<event>
 9    1  0.1610296E-005  0.2212449E+03  0.7546771E-02  0.1133112E+00
         -1   -1    0    0    0  501 -0.00000000000E+00  0.00000000000E+00  0.30099350409E+03  0.30099350409E+03  0.00000000000E+00 0.  1.
         21   -1    0    0  501  502  0.00000000000E+00 -0.00000000000E+00 -0.23831469148E+03  0.23831469148E+03  0.00000000000E+00 0. -1.
         23    2    1    2    0    0 -0.19236235668E+03  0.24427179048E+02  0.13630221762E+03  0.25379986211E+03  0.90753028244E+02 0.  0.
         23    2    1    2    0    0  0.21981039983E+03 -0.43237642362E+02 -0.74564453369E+02  0.25221998452E+03  0.88707143418E+02 0.  0.
        -13    1    3    3    0    0 -0.15684011110E+03  0.12583994862E+02  0.14650476769E+03  0.21499028893E+03  0.00000000000E+00 0.  1.
         13    1    3    3    0    0 -0.35522245577E+02  0.11843184186E+02 -0.10202550072E+02  0.38809573181E+02  0.00000000000E+00 0. -1.
        -13    1    4    4    0    0  0.12373856310E+02 -0.22078990359E+02  0.99970146247E+01  0.27212762386E+02  0.00000000000E+00 0.  1.
         13    1    4    4    0    0  0.20743654352E+03 -0.21158652002E+02 -0.84561467994E+02  0.22500722213E+03  0.00000000000E+00 0. -1.
         -1    1    1    2    0  502 -0.27448043152E+02  0.18810463314E+02  0.94104836062E+00  0.33288348937E+02  0.00000000000E+00 0.  1.
<scales pt_clust_5="13000.00000" pt_clust_6="13000.00000" pt_clust_7="13000.00000" pt_clust_8="13000.00000" pt_clust_9="33.27504"></scales>
<clustering>
<clus scale="   33.275">  2  9  1 -1</clus>
<clus scale="   88.707">  7  8 -1 -1</clus>
<clus scale="   90.753">  5  6 -1 -1</clus>
<clus scale="  220.414">  2  7  1 -1</clus>
<clus scale="   33.275">  2  5  1 -1</clus>
</clustering>
</event>
<event>
 9    1  0.1610296E-005  0.2207574E+03  0.7546771E-02  0.1133409E+00
         21   -1    0    0  501  502  0.00000000000E+00  0.00000000000E+00  0.21462113885E+03  0.21462113885E+03  0.00000000000E+00 0.  1.
         -1   -1    0    0    0  501 -0.00000000000E+00 -0.00000000000E+00 -0.40317281647E+03  0.40317281647E+03  0.00000000000E+00 0.  1.
         23    2    1    2    0    0 -0.11518421395E+02  0.19424204142E+03 -0.19338479466E+03  0.29000596537E+03  0.94037952237E+02 0.  0.
         23    2    1    2    0    0  0.93791191545E+02 -0.20120407708E+03 -0.20241797923E+02  0.24149760804E+03  0.92905845135E+02 0.  0.
        -11    1    4    4    0    0  0.10110506512E+03 -0.13061668997E+03  0.73944735266E+01  0.16534095721E+03  0.00000000000E+00 0. -1.
         11    1    4    4    0    0 -0.73138735792E+01 -0.70587387110E+02 -0.27636271449E+02  0.76156650828E+02  0.00000000000E+00 0.  1.
        -11    1    3    3    0    0  0.37664366515E+02  0.86037746698E+02 -0.60494265726E+02  0.11171684988E+03  0.00000000000E+00 0.  1.
         11    1    3    3    0    0 -0.49182787910E+02  0.10820429472E+03 -0.13289052893E+03  0.17828911549E+03  0.00000000000E+00 0. -1.
         -1    1    1    2    0  502 -0.82272770151E+02  0.69620356643E+01  0.25074914965E+02  0.86290381905E+02  0.00000000000E+00 0.  1.
<scales pt_clust_5="13000.00000" pt_clust_6="13000.00000" pt_clust_7="13000.00000" pt_clust_8="13000.00000" pt_clust_9="82.56681"></scales>
<clustering>
<clus scale="   82.567">  1  9  2 -1</clus>
<clus scale="   92.906">  5  6 -1 -1</clus>
<clus scale="   94.038">  7  8 -1 -1</clus>
<clus scale="  220.278">  1  5  2 -1</clus>
<clus scale="   82.567">  1  5  2 -1</clus>
</clustering>
</event>
<event>
 9    1  0.1610296E-005  0.1113372E+03  0.7546771E-02  0.1258514E+00
         21   -1    0    0  501  502  0.00000000000E+00  0.00000000000E+00  0.18100311664E+03  0.18100311664E+03  0.00000000000E+00 0. -1.
         -2   -1    0    0    0  501 -0.00000000000E+00 -0.00000000000E+00 -0.99389602286E+02  0.99389602286E+02  0.00000000000E+00 0.  1.
         23    2    1    2    0    0 -0.47624773925E+02 -0.51115304063E+02  0.97667481712E+01  0.11458380193E+03  0.90294877454E+02 0.  0.
         23    2    1    2    0    0  0.59898708134E+02  0.14303182406E+02  0.47387913581E+02  0.11993934939E+03  0.91364089855E+02 0.  0.
        -11    1    3    3    0    0 -0.68939234036E+02 -0.45794552166E+02  0.26572319478E+02  0.86924376097E+02  0.00000000000E+00 0. -1.
         11    1    3    3    0    0  0.21314460111E+02 -0.53207518970E+01 -0.16805571306E+02  0.27659425834E+02  0.00000000000E+00 0.  1.
        -13    1    4    4    0    0  0.53665438513E+02  0.44370108784E+02  0.81396516423E+01  0.70106631449E+02  0.00000000000E+00 0.  1.
         13    1    4    4    0    0  0.62332696218E+01 -0.30066926378E+02  0.39248261939E+02  0.49832717939E+02  0.00000000000E+00 0. -1.
         -2    1    1    2    0  502 -0.12273934209E+02  0.36812121657E+02  0.24458852602E+02  0.45869567608E+02  0.00000000000E+00 0.  1.
<scales pt_clust_5="13000.00000" pt_clust_6="13000.00000" pt_clust_7="13000.00000" pt_clust_8="13000.00000" pt_clust_9="38.80440"></scales>
<clustering>
<clus scale="   38.804">  1  9  2 -1</clus>
<clus scale="   90.295">  5  6 -1 -1</clus>
<clus scale="   91.364">  7  8 -1 -1</clus>
<clus scale="  110.462">  2  5  1 -1</clus>
<clus scale="   38.804">  1  5  2 -1</clus>
</clustering>
</event>
<event>
 9    1  0.1610296E-005  0.1135754E+03  0.7546771E-02  0.1254280E+00
         21   -1    0    0  501  502  0.00000000000E+00  0.00000000000E+00  0.55221569014E+02  0.55221569014E+02  0.00000000000E+00 0. -1.
          1   -1    0    0  502    0 -0.00000000000E+00 -0.00000000000E+00 -0.52238289258E+03  0.52238289258E+03  0.00000000000E+00 0. -1.
         23    2    1    2    0    0 -0.25774146582E+02  0.43404498420E+02 -0.12336383059E+03  0.16101941983E+03  0.90334720618E+02 0.  0.
         23    2    1    2    0    0  0.10916823265E+03 -0.10580080999E+02 -0.17658515930E+03  0.22686951656E+03  0.90872536690E+02 0.  0.
        -11    1    3    3    0    0  0.20682195756E+02  0.17163237380E+02 -0.28991234900E+00  0.26877760097E+02  0.00000000000E+00 0. -1.
         11    1    3    3    0    0 -0.46456342338E+02  0.26241261040E+02 -0.12307391824E+03  0.13414165973E+03  0.00000000000E+00 0.  1.
        -11    1    4    4    0    0  0.47738385920E+01 -0.33711775418E+02 -0.29662933565E+02  0.45157092072E+02  0.00000000000E+00 0.  1.
         11    1    4    4    0    0  0.10439439406E+03  0.23131694419E+02 -0.14692222574E+03  0.18171242449E+03  0.00000000000E+00 0. -1.
          1    1    1    2  501    0 -0.83394086070E+02 -0.32824417422E+02 -0.16721233367E+03  0.18971552520E+03  0.00000000000E+00 0. -1.
<scales pt_clust_5="13000.00000" pt_clust_6="13000.00000" pt_clust_7="13000.00000" pt_clust_8="13000.00000" pt_clust_9="89.62156"></scales>
<clustering>
<clus scale="   89.622">  1  9  2 -1</clus>
<clus scale="   90.335">  5  6 -1 -1</clus>
<clus scale="   90.873">  7  8 -1 -1</clus>
<clus scale="  113.146">  2  5  1 -1</clus>
<clus scale="   89.622">  1  5  2 -1</clus>
</clustering>
</event>
<event>
 9    1  0.1610296E-005  0.9700308E+02  0.7546771E-02  0.1288818E+00
         21   -1    0    0  501  502  0.00000000000E+00  0.00000000000E+00  0.31002779010E+03  0.31002779010E+03  0.00000000000E+00 0. -1.
         -2   -1    0    0    0  501 -0.00000000000E+00 -0.00000000000E+00 -0.71592124779E+02  0.71592124779E+02  0.00000000000E+00 0.  1.
         23    2    1    2    0    0  0.17733411716E+01  0.24458013056E+02  0.13158055575E+02  0.94758281451E+02  0.90579569084E+02 0.  0.
         23    2    1    2    0    0 -0.34353365973E+02 -0.51794954145E+01  0.59657019300E+02  0.11696961114E+03  0.94424303288E+02 0.  0.
        -11    1    4    4    0    0 -0.33252576368E+02 -0.42089866585E+02  0.91686517320E+01  0.54418332194E+02  0.00000000000E+00 0.  1.
         11    1    4    4    0    0 -0.11007896056E+01  0.36910371171E+02  0.50488367568E+02  0.62551278943E+02  0.00000000000E+00 0. -1.
        -13    1    3    3    0    0  0.83986516656E+01 -0.27310689507E+02 -0.18194610631E+02  0.33874104669E+02  0.00000000000E+00 0.  1.
         13    1    3    3    0    0 -0.66253104941E+01  0.51768702562E+02  0.31352666206E+02  0.60884176781E+02  0.00000000000E+00 0. -1.
         -2    1    1    2    0  502  0.32580024802E+02 -0.19278517641E+02  0.16562059045E+03  0.16989202229E+03  0.00000000000E+00 0.  1.
<scales pt_clust_5="13000.00000" pt_clust_6="13000.00000" pt_clust_7="13000.00000" pt_clust_8="13000.00000" pt_clust_9="37.85656"></scales>
<clustering>
<clus scale="   37.857">  1  9  2 -1</clus>
<clus scale="   90.580">  7  8 -1 -1</clus>
<clus scale="   93.265">  2  7  1 -1</clus>
<clus scale="   94.424">  5  6 -1 -1</clus>
<clus scale="   37.857">  1  5  2 -1</clus>
</clustering>
</event>
<event>
 9    1  0.1610296E-005  0.9791038E+02  0.7546771E-02  0.1285160E+00
         21   -1    0    0  501  502  0.00000000000E+00  0.00000000000E+00  0.27118295269E+03  0.27118295269E+03  0.00000000000E+00 0. -1.
          1   -1    0    0  502    0 -0.00000000000E+00 -0.00000000000E+00 -0.16644472000E+03  0.16644472000E+03  0.00000000000E+00 0. -1.
         23    2    1    2    0    0 -0.19612920224E+02  0.21426792058E+02 -0.10034829133E+03  0.13816736650E+03  0.90424927622E+02 0.  0.
         23    2    1    2    0    0  0.42281423719E+02 -0.94013690107E+02  0.15994971720E+03  0.21102925877E+03  0.91231262762E+02 0.  0.
        -11    1    4    4    0    0  0.68931987128E+02 -0.46840307455E+02  0.10147307315E+03  0.13131038735E+03  0.00000000000E+00 0. -1.
         11    1    4    4    0    0 -0.26650563409E+02 -0.47173382652E+02  0.58476644058E+02  0.79718871424E+02  0.00000000000E+00 0.  1.
        -13    1    3    3    0    0 -0.44224420653E+02  0.43301181862E+02 -0.61691698239E+02  0.87387970364E+02  0.00000000000E+00 0. -1.
         13    1    3    3    0    0  0.24611500429E+02 -0.21874389804E+02 -0.38656593090E+02  0.50779396137E+02  0.00000000000E+00 0.  1.
          1    1    1    2  501    0 -0.22668503495E+02  0.72586898049E+02  0.45136806813E+02  0.88431047423E+02  0.00000000000E+00 0. -1.
<scales pt_clust_5="13000.00000" pt_clust_6="13000.00000" pt_clust_7="13000.00000" pt_clust_8="13000.00000" pt_clust_9="76.04419"></scales>
<clustering>
<clus scale="   76.044">  1  9  2 -1</clus>
<clus scale="   90.425">  7  8 -1 -1</clus>
<clus scale="   91.231">  5  6 -1 -1</clus>
<clus scale="   97.159">  2  7  1 -1</clus>
<clus scale="   76.044">  1  5  2 -1</clus>
</clustering>
</event>
<event>
 9    1  0.1610296E-005  0.1405245E+03  0.7546771E-02  0.1212730E+00
          2   -1    0    0  502    0 -0.00000000000E+00  0.00000000000E+00  0.10247175674E+04  0.10247175674E+04  0.00000000000E+00 0. -1.
         21   -1    0    0  501  502  0.00000000000E+00 -0.00000000000E+00 -0.30822502466E+02  0.30822502466E+02  0.00000000000E+00 0.  1.
         23    2    1    2    0    0  0.53246732934E+02 -0.94512632075E+02  0.62917978171E+03  0.64480370109E+03  0.90204007864E+02 0.  0.
         23    2    1    2    0    0 -0.75654465188E+02  0.76756315709E+02  0.35258587377E+03  0.37967971396E+03  0.90690444413E+02 0.  0.
        -11    1    3    3    0    0  0.58199094895E+02 -0.19928997154E+02  0.36927129420E+03  0.37436023867E+03  0.00000000000E+00 0.  1.
         11    1    3    3    0    0 -0.49523619616E+01 -0.74583634921E+02  0.25990848751E+03  0.27044346242E+03  0.00000000000E+00 0. -1.
        -13    1    4    4    0    0 -0.42768289699E+02  0.42439996941E+02  0.66759371597E+02  0.89928269416E+02  0.00000000000E+00 0.  1.
         13    1    4    4    0    0 -0.32886175489E+02  0.34316318768E+02  0.28582650217E+03  0.28975144454E+03  0.00000000000E+00 0. -1.
          2    1    1    2  501    0  0.22407732255E+02  0.17756316367E+02  0.12129409481E+02  0.31056654844E+02  0.00000000000E+00 0. -1.
<scales pt_clust_5="13000.00000" pt_clust_6="13000.00000" pt_clust_7="13000.00000" pt_clust_8="13000.00000" pt_clust_9="28.59009"></scales>
<clustering>
<clus scale="   28.590">  2  9  1 -1</clus>
<clus scale="   90.204">  5  6 -1 -1</clus>
<clus scale="   90.690">  7  8 -1 -1</clus>
<clus scale="  140.211">  1  5  2 -1</clus>
<clus scale="   28.590">  2  5  1 -1</clus>
</clustering>
</event>
<event>
 9    1  0.1637988E-005  0.2557996E+03  0.7546771E-02  0.1150008E+00
          1   -1    0    0  502    0 -0.00000000000E+00  0.00000000000E+00  0.87251380842E+03  0.87251380842E+03  0.00000000000E+00 0. -1.
         21   -1    0    0  501  502  0.00000000000E+00 -0.00000000000E+00 -0.12121511082E+03  0.12121511082E+03  0.00000000000E+00 0. -1.
         23    2    1    2    0    0 -0.29201591714E+02  0.12344063249E+02  0.32323440491E+02  0.10033405993E+03  0.89537756960E+02 0.  0.
         23    2    1    2    0    0 -0.88505232028E+02  0.20534168940E+03  0.52986682682E+03  0.58194023714E+03  0.88866191165E+02 0.  0.
        -11    1    4    4    0    0  0.16306319626E+02  0.37023467984E+02  0.65137211221E+02  0.76677829435E+02  0.00000000000E+00 0.  1.
         11    1    4    4    0    0 -0.10481155165E+03  0.16831822142E+03  0.46472961560E+03  0.50526240770E+03  0.00000000000E+00 0. -1.
        -13    1    3    3    0    0  0.14001721735E+02 -0.30213311978E+02  0.18653949009E+02  0.38168864875E+02  0.00000000000E+00 0.  1.
         13    1    3    3    0    0 -0.43203313449E+02  0.42557375228E+02  0.13669491482E+02  0.62165195058E+02  0.00000000000E+00 0. -1.
          1    1    1    2  501    0  0.11770682374E+03 -0.21768575265E+03  0.18910843029E+03  0.31145462217E+03  0.00000000000E+00 0. -1.
<scales pt_clust_5="13000.00000" pt_clust_6="13000.00000" pt_clust_7="13000.00000" pt_clust_8="13000.00000" pt_clust_9="239.86710"></scales>
<clustering>
<clus scale="   88.866">  5  6 -1 -1</clus>
<clus scale="   89.538">  7  8 -1 -1</clus>
<clus scale="   94.985">  1  7  2 -1</clus>
<clus scale="  239.867">  2  9  1 -1</clus>
<clus scale="  239.867">  2  5  1 -1</clus>
</clustering>
</event>
<event>
 9    1  0.1610296E-005  0.1708241E+03  0.7546771E-02  0.1177477E+00
         21   -1    0    0  501  502  0.00000000000E+00  0.00000000000E+00  0.14822920291E+03  0.14822920291E+03  0.00000000000E+00 0. -1.
         -3   -1    0    0    0  501 -0.00000000000E+00 -0.00000000000E+00 -0.34632264879E+03  0.34632264879E+03  0.00000000000E+00 0.  1.
         23    2    1    2    0    0 -0.12142997784E+03  0.12380639428E+03 -0.15285642100E+03  0.24839417205E+03  0.90891784470E+02 0.  0.
         23    2    1    2    0    0  0.10547928213E+03 -0.29569023103E+02 -0.12337383734E+02  0.14507606309E+03  0.94311435991E+02 0.  0.
        -11    1    3    3    0    0 -0.86049477375E+02  0.11264342776E+03 -0.15645658451E+03  0.21112014876E+03  0.00000000000E+00 0. -1.
         11    1    3    3    0    0 -0.35380500468E+02  0.11162966520E+02  0.36001635167E+01  0.37274023290E+02  0.00000000000E+00 0.  1.
        -13    1    4    4    0    0  0.40186296260E+02 -0.25009851731E+02  0.39447220937E+02  0.61615861029E+02  0.00000000000E+00 0. -1.
         13    1    4    4    0    0  0.65292985867E+02 -0.45591713722E+01 -0.51784604670E+02  0.83460202060E+02  0.00000000000E+00 0.  1.
         -3    1    1    2    0  502  0.15950695715E+02 -0.94237371178E+02 -0.32899641152E+02  0.10108161657E+03  0.00000000000E+00 0.  1.
<scales pt_clust_5="13000.00000" pt_clust_6="13000.00000" pt_clust_7="13000.00000" pt_clust_8="13000.00000" pt_clust_9="95.57775"></scales>
<clustering>
<clus scale="   90.892">  5  6 -1 -1</clus>
<clus scale="   94.311">  7  8 -1 -1</clus>
<clus scale="   95.578">  1  9  2 -1</clus>
<clus scale="  168.960">  2  5  1 -1</clus>
<clus scale="   95.578">  1  5  2 -1</clus>
</clustering>
</event>
<event>
 9    1  0.1610296E-005  0.1059598E+03  0.7546771E-02  0.1269013E+00
         21   -1    0    0  501  502  0.00000000000E+00  0.00000000000E+00  0.92428131679E+02  0.92428131679E+02  0.00000000000E+00 0. -1.
         -1   -1    0    0    0  501 -0.00000000000E+00 -0.00000000000E+00 -0.27627542129E+03  0.27627542129E+03  0.00000000000E+00 0.  1.
         23    2    1    2    0    0 -0.40947285026E+02 -0.27242647097E+02 -0.18089932146E+03  0.20813844106E+03  0.90433423976E+02 0.  0.
         23    2    1    2    0    0  0.72283052753E+02  0.91544657498E+01  0.17746107536E+02  0.11888349231E+03  0.92248124390E+02 0.  0.
        -11    1    3    3    0    0 -0.21826904394E+02  0.27712329435E+02 -0.29645322169E+02  0.46078542562E+02  0.00000000000E+00 0. -1.
         11    1    3    3    0    0 -0.19120380632E+02 -0.54954976531E+02 -0.15125399929E+03  0.16205989850E+03  0.00000000000E+00 0.  1.
        -11    1    4    4    0    0 -0.73318337155E+01 -0.27547160526E+02  0.12302022118E+02  0.31047408698E+02  0.00000000000E+00 0.  1.
         11    1    4    4    0    0  0.79614886469E+02  0.36701626276E+02  0.54440854176E+01  0.87836083615E+02  0.00000000000E+00 0. -1.
         -1    1    1    2    0  502 -0.31335767727E+02  0.18088181347E+02 -0.20694075694E+02  0.41681619598E+02  0.00000000000E+00 0.  1.
<scales pt_clust_5="13000.00000" pt_clust_6="13000.00000" pt_clust_7="13000.00000" pt_clust_8="13000.00000" pt_clust_9="36.18166"></scales>
<clustering>
<clus scale="   36.182">  1  9  2 -1</clus>
<clus scale="   90.433">  5  6 -1 -1</clus>
<clus scale="   92.248">  7  8 -1 -1</clus>
<clus scale="  104.384">  2  5  1 -1</clus>
<clus scale="   36.182">  1  5  2 -1</clus>
</clustering>
</event>
<event>
 9    1  0.1610296E-005  0.1118405E+03  0.7546771E-02  0.1259320E+00
         21   -1    0    0  501  502  0.00000000000E+00  0.00000000000E+00  0.17965193503E+03  0.17965193503E+03  0.00000000000E+00 0.  1.
          1   -1    0    0  502    0 -0.00000000000E+00 -0.00000000000E+00 -0.25027826970E+03  0.25027826970E+03  0.00000000000E+00 0. -1.
         23    2    1    2    0    0 -0.30160579695E+02 -0.35967735105E+02 -0.15659707471E+03  0.18994411143E+03  0.96709788160E+02 0.  0.
         23    2    1    2    0    0  0.99350511328E+02  0.43949756856E+02  0.18750003784E+02  0.14318946788E+03  0.91375904048E+02 0.  0.
        -13    1    4    4    0    0  0.75693150134E+02  0.22525479973E+02 -0.30369122953E+02  0.84611665000E+02  0.00000000000E+00 0.  1.
         13    1    4    4    0    0  0.23657361194E+02  0.21424276882E+02  0.49119126737E+02  0.58577802878E+02  0.00000000000E+00 0. -1.
        -13    1    3    3    0    0 -0.38416409106E+02  0.25072462921E+02 -0.69038413953E+02  0.82889996300E+02  0.00000000000E+00 0.  1.
         13    1    3    3    0    0  0.82558294104E+01 -0.61040198026E+02 -0.87558660754E+02  0.10705411513E+03  0.00000000000E+00 0. -1.
          1    1    1    2  501    0 -0.69189931632E+02 -0.79820217511E+01  0.67220736249E+02  0.96796625418E+02  0.00000000000E+00 0. -1.
<scales pt_clust_5="13000.00000" pt_clust_6="13000.00000" pt_clust_7="13000.00000" pt_clust_8="13000.00000" pt_clust_9="69.64883"></scales>
<clustering>
<clus scale="   69.649">  1  9  2 -1</clus>
<clus scale="   91.376">  5  6 -1 -1</clus>
<clus scale="   96.710">  7  8 -1 -1</clus>
<clus scale="  107.262">  1  5  2 -1</clus>
<clus scale="   69.649">  1  5  2 -1</clus>
</clustering>
</event>
<event>
 9    1  0.1610296E-005  0.1297972E+03  0.7546771E-02  0.1230585E+00
         21   -1    0    0  501  502  0.00000000000E+00  0.00000000000E+00  0.13797589473E+03  0.13797589473E+03  0.00000000000E+00 0. -1.
         -1   -1    0    0    0  501 -0.00000000000E+00 -0.00000000000E+00 -0.19377139509E+03  0.19377139509E+03  0.00000000000E+00 0.  1.
         23    2    1    2    0    0  0.48914888798E+02  0.63353773530E+02 -0.10118999729E+03  0.16391692584E+03  0.10110873384E+03 0.  0.
         23    2    1    2    0    0 -0.32182469457E+02 -0.80375003808E+02  0.11612542383E+02  0.12646713647E+03  0.91450712890E+02 0.  0.
        -11    1    4    4    0    0 -0.45254293756E+02 -0.52399714669E+02 -0.29324214444E+02  0.75190363436E+02  0.00000000000E+00 0.  1.
         11    1    4    4    0    0  0.13071824300E+02 -0.27975289139E+02  0.40936756827E+02  0.51276773031E+02  0.00000000000E+00 0. -1.
        -13    1    3    3    0    0 -0.22081398369E+02 -0.12207833863E+02 -0.21467853097E+02  0.33128357613E+02  0.00000000000E+00 0. -1.
         13    1    3    3    0    0  0.70996287167E+02  0.75561607394E+02 -0.79722144197E+02  0.13078856823E+03  0.00000000000E+00 0.  1.
         -1    1    1    2    0  502 -0.16732419341E+02  0.17021230278E+02  0.33781954550E+02  0.41363227514E+02  0.00000000000E+00 0.  1.
<scales pt_clust_5="13000.00000" pt_clust_6="13000.00000" pt_clust_7="13000.00000" pt_clust_8="13000.00000" pt_clust_9="23.86831"></scales>
<clustering>
<clus scale="   23.868">  1  9  2 -1</clus>
<clus scale="   91.451">  5  6 -1 -1</clus>
<clus scale="  101.109">  7  8 -1 -1</clus>
<clus scale="  122.424">  1  5  2 -1</clus>
<clus scale="   23.868">  1  5  2 -1</clus>
</clustering>
</event>
<event>
 9    1  0.1610296E-005  0.1939553E+03  0.7546771E-02  0.1154987E+00
         21   -1    0    0  501  502  0.00000000000E+00  0.00000000000E+00  0.82892852394E+02  0.82892852394E+02  0.00000000000E+00 0. -1.
          1   -1    0    0  502    0 -0.00000000000E+00 -0.00000000000E+00 -0.79675485562E+03  0.79675485562E+03  0.00000000000E+00 0. -1.
         23    2    1    2    0    0  0.64065859633E+02  0.15070036103E+03 -0.41115745022E+03  0.45181705655E+03  0.90956970780E+02 0.  0.
         23    2    1    2    0    0 -0.97883006950E+01 -0.19075643132E+03 -0.29053026365E+03  0.35928318257E+03  0.90513779379E+02 0.  0.
        -11    1    4    4    0    0 -0.41845396017E+02 -0.48239867658E+02 -0.69920211167E+02  0.94694022668E+02  0.00000000000E+00 0.  1.
         11    1    4    4    0    0  0.32057095322E+02 -0.14251656366E+03 -0.22061005249E+03  0.26458915990E+03  0.00000000000E+00 0. -1.
        -13    1    3    3    0    0  0.13086194361E+02  0.12151125786E+03 -0.32778441025E+03  0.34982689130E+03  0.00000000000E+00 0.  1.
         13    1    3    3    0    0  0.50979665272E+02  0.29189103170E+02 -0.83373039967E+02  0.10199016525E+03  0.00000000000E+00 0. -1.
          1    1    1    2  501    0 -0.54277558938E+02  0.40056070289E+02 -0.12174289358E+02  0.68547468900E+02  0.00000000000E+00 0. -1.
<scales pt_clust_5="13000.00000" pt_clust_6="13000.00000" pt_clust_7="13000.00000" pt_clust_8="13000.00000" pt_clust_9="67.45771"></scales>
<clustering>
<clus scale="   67.458">  1  9  2 -1</clus>
<clus scale="   90.514">  5  6 -1 -1</clus>
<clus scale="   90.957">  7  8 -1 -1</clus>
<clus scale="  193.748">  1  5  2 -1</clus>
<clus scale="   67.458">  1  5  2 -1</clus>
</clustering>
</event>
<event>
 9    1  0.1610296E-005  0.9919404E+02  0.7546771E-02  0.1284436E+00
         21   -1    0    0  501  502  0.00000000000E+00  0.00000000000E+00  0.46340914003E+02  0.46340914003E+02  0.00000000000E+00 0.  1.
          1   -1    0    0  502    0 -0.00000000000E+00 -0.00000000000E+00 -0.69810721899E+03  0.69810721899E+03  0.00000000000E+00 0. -1.
         23    2    1    2    0    0  0.11388830625E+02 -0.37000771327E+02 -0.56413907348E+03  0.57232506195E+03  0.88342061146E+02 0.  0.
         23    2    1    2    0    0  0.28608041651E+01 -0.42399376072E+01 -0.26372422471E+02  0.96916689697E+02  0.93119164534E+02 0.  0.
        -11    1    3    3    0    0  0.10314842263E+00  0.29227902142E+02 -0.16344498079E+03  0.16603777477E+03  0.00000000000E+00 0.  1.
         11    1    3    3    0    0  0.11285682202E+02 -0.66228673469E+02 -0.40069409269E+03  0.40628728719E+03  0.00000000000E+00 0. -1.
        -13    1    4    4    0    0 -0.35691737044E+02  0.25960587967E+02 -0.15264037719E+02  0.46699497517E+02  0.00000000000E+00 0. -1.
         13    1    4    4    0    0  0.38552541209E+02 -0.30200525575E+02 -0.11108384753E+02  0.50217192180E+02  0.00000000000E+00 0.  1.
          1    1    1    2  501    0 -0.14249634790E+02  0.41240708934E+02 -0.61254809037E+02  0.75206381346E+02  0.00000000000E+00 0. -1.
<scales pt_clust_5="13000.00000" pt_clust_6="13000.00000" pt_clust_7="13000.00000" pt_clust_8="13000.00000" pt_clust_9="43.63311"></scales>
<clustering>
<clus scale="   43.633">  1  9  2 -1</clus>
<clus scale="   88.342">  5  6 -1 -1</clus>
<clus scale="   93.119">  7  8 -1 -1</clus>
<clus scale="   94.724">  2  5  1 -1</clus>
<clus scale="   43.633">  1  5  2 -1</clus>
</clustering>
</event>
<event>
 9    1  0.1610296E-005  0.1794693E+03  0.7546771E-02  0.1171331E+00
         21   -1    0    0  501  502  0.00000000000E+00  0.00000000000E+00  0.51194827063E+02  0.51194827063E+02  0.00000000000E+00 0. -1.
          1   -1    0    0  502    0 -0.00000000000E+00 -0.00000000000E+00 -0.79927682311E+03  0.79927682311E+03  0.00000000000E+00 0. -1.
         23    2    1    2    0    0  0.98400314017E+02 -0.85966754360E+02 -0.45060422309E+03  0.48228533218E+03  0.11172318967E+03 0.  0.
         23    2    1    2    0    0 -0.10694679005E+03  0.11682608856E+03 -0.26957413970E+03  0.32571334414E+03  0.91285348704E+02 0.  0.
        -11    1    4    4    0    0 -0.34029493039E+02  0.36142392289E+02 -0.17396926630E+03  0.18091319613E+03  0.00000000000E+00 0.  1.
         11    1    4    4    0    0 -0.72917297007E+02  0.80683696266E+02 -0.95604873400E+02  0.14480014801E+03  0.00000000000E+00 0. -1.
        -13    1    3    3    0    0  0.96624568771E+02 -0.26750291292E+02 -0.36254471327E+03  0.37615230225E+03  0.00000000000E+00 0. -1.
         13    1    3    3    0    0  0.17757452467E+01 -0.59216463068E+02 -0.88059509825E+02  0.10613302992E+03  0.00000000000E+00 0.  1.
          1    1    1    2  501    0  0.85464760287E+01 -0.30859334196E+02 -0.27903633256E+02  0.42472973859E+02  0.00000000000E+00 0. -1.
<scales pt_clust_5="13000.00000" pt_clust_6="13000.00000" pt_clust_7="13000.00000" pt_clust_8="13000.00000" pt_clust_9="32.02094"></scales>
<clustering>
<clus scale="   32.021">  1  9  2 -1</clus>
<clus scale="   91.285">  5  6 -1 -1</clus>
<clus scale="  111.723">  7  8 -1 -1</clus>
<clus scale="  167.512">  1  5  2 -1</clus>
<clus scale="   32.021">  1  5  2 -1</clus>
</clustering>
</event>
<event>
 9    1  0.1610296E-005  0.3175442E+03  0.7546771E-02  0.1076942E+00
         21   -1    0    0  501  502  0.00000000000E+00  0.00000000000E+00  0.23490069847E+03  0.23490069847E+03  0.00000000000E+00 0. -1.
          1   -1    0    0  502    0 -0.00000000000E+00 -0.00000000000E+00 -0.61007470435E+03  0.61007470435E+03  0.00000000000E+00 0. -1.
         23    2    1    2    0    0  0.26707244646E+03  0.12416188586E+03 -0.29604957650E+03  0.42747486062E+03  0.91353922486E+02 0.  0.
         23    2    1    2    0    0 -0.30378071322E+03 -0.96648632878E+02 -0.12214944159E+03  0.35460676179E+03  0.95925958257E+02 0.  0.
        -11    1    4    4    0    0 -0.29329689723E+03 -0.66477657459E+02 -0.10648602470E+03  0.31903232175E+03  0.00000000000E+00 0. -1.
         11    1    4    4    0    0 -0.10483815986E+02 -0.30170975419E+02 -0.15663416891E+02  0.35574440038E+02  0.00000000000E+00 0.  1.
        -13    1    3    3    0    0  0.11025123804E+03  0.32874905901E+01 -0.10167440765E+03  0.15001276030E+03  0.00000000000E+00 0. -1.
         13    1    3    3    0    0  0.15682120842E+03  0.12087439527E+03 -0.19437516885E+03  0.27746210031E+03  0.00000000000E+00 0.  1.
          1    1    1    2  501    0  0.36708266758E+02 -0.27513252987E+02  0.43025012211E+02  0.62893780408E+02  0.00000000000E+00 0. -1.
<scales pt_clust_5="13000.00000" pt_clust_6="13000.00000" pt_clust_7="13000.00000" pt_clust_8="13000.00000" pt_clust_9="45.87457"></scales>
<clustering>
<clus scale="   45.875">  1  9  2 -1</clus>
<clus scale="   91.354">  7  8 -1 -1</clus>
<clus scale="   95.926">  5  6 -1 -1</clus>
<clus scale="  316.193">  2  7  1 -1</clus>
<clus scale="   45.875">  1  5  2 -1</clus>
</clustering>
</event>
<event>
 9    1  0.1610296E-005  0.9919304E+02  0.7546771E-02  0.1282172E+00
         -1   -1    0    0    0  501 -0.00000000000E+00  0.00000000000E+00  0.34052240424E+03  0.34052240424E+03  0.00000000000E+00 0.  1.
         21   -1    0    0  501  502  0.00000000000E+00 -0.00000000000E+00 -0.15421935873E+03  0.15421935873E+03  0.00000000000E+00 0.  1.
         23    2    1    2    0    0  0.33493408136E+02  0.16674150906E+02  0.25553850264E+03  0.27414804754E+03  0.91964068752E+02 0.  0.
         23    2    1    2    0    0 -0.50058005319E+01 -0.57474550117E+02  0.27589077469E+02  0.11173046699E+03  0.91619638219E+02 0.  0.
        -11    1    4    4    0    0 -0.46245965987E+02 -0.31498893698E+02  0.47292244014E+00  0.55956173296E+02  0.00000000000E+00 0.  1.
         11    1    4    4    0    0  0.41240165455E+02 -0.25975656419E+02  0.27116155029E+02  0.55774293691E+02  0.00000000000E+00 0. -1.
        -13    1    3    3    0    0  0.61913984841E+02 -0.46079085334E+01  0.18567477824E+03  0.19577971707E+03  0.00000000000E+00 0.  1.
         13    1    3    3    0    0 -0.28420576705E+02  0.21282059439E+02  0.69863724396E+02  0.78368330470E+02  0.00000000000E+00 0. -1.
         -1    1    1    2    0  502 -0.28487607604E+02  0.40800399211E+02 -0.96824534592E+02  0.10886324844E+03  0.00000000000E+00 0.  1.
<scales pt_clust_5="13000.00000" pt_clust_6="13000.00000" pt_clust_7="13000.00000" pt_clust_8="13000.00000" pt_clust_9="49.76160"></scales>
<clustering>
<clus scale="   49.762">  2  9  1 -1</clus>
<clus scale="   91.620">  5  6 -1 -1</clus>
<clus scale="   91.964">  7  8 -1 -1</clus>
<clus scale="   98.874">  2  5  1 -1</clus>
<clus scale="   49.762">  2  5  1 -1</clus>
</clustering>
</event>
<event>
 9    1  0.1610296E-005  0.1128679E+03  0.7546771E-02  0.1263014E+00
         21   -1    0    0  501  502  0.00000000000E+00  0.00000000000E+00  0.90399506339E+02  0.90399506339E+02  0.00000000000E+00 0.  1.
          1   -1    0    0  502    0 -0.00000000000E+00 -0.00000000000E+00 -0.23381455557E+03  0.23381455557E+03  0.00000000000E+00 0. -1.
         23    2    1    2    0    0 -0.78228231285E+01  0.44697097739E+02 -0.12927615385E+03  0.17435437924E+03  0.10783366125E+03 0.  0.
         23    2    1    2    0    0  0.50389507021E+01 -0.17776108354E+02 -0.49472320198E+02  0.10535192465E+03  0.91159950141E+02 0.  0.
        -13    1    3    3    0    0  0.23214712648E+02  0.61456730778E+02 -0.12166572249E+03  0.13826930487E+03  0.00000000000E+00 0. -1.
         13    1    3    3    0    0 -0.31037535777E+02 -0.16759633039E+02 -0.76104313569E+01  0.36085074368E+02  0.00000000000E+00 0.  1.
        -13    1    4    4    0    0  0.29310149843E+02 -0.11728459827E+02  0.15907238464E+02  0.35350840008E+02  0.00000000000E+00 0. -1.
         13    1    4    4    0    0 -0.24271199141E+02 -0.60476485273E+01 -0.65379558662E+02  0.70001084644E+02  0.00000000000E+00 0.  1.
          1    1    1    2  501    0  0.27838724264E+01 -0.26920989385E+02  0.35333424810E+02  0.44507758020E+02  0.00000000000E+00 0. -1.
<scales pt_clust_5="13000.00000" pt_clust_6="13000.00000" pt_clust_7="13000.00000" pt_clust_8="13000.00000" pt_clust_9="27.06455"></scales>
<clustering>
<clus scale="   27.065">  1  9  2 -1</clus>
<clus scale="   91.160">  7  8 -1 -1</clus>
<clus scale="   97.063">  1  7  2 -1</clus>
<clus scale="  107.834">  5  6 -1 -1</clus>
<clus scale="   27.065">  1  5  2 -1</clus>
</clustering>
</event>
<event>
 9    1  0.1610296E-005  0.1651771E+03  0.7546771E-02  0.1200633E+00
          1   -1    0    0  502    0 -0.00000000000E+00  0.00000000000E+00  0.35913314383E+03  0.35913314383E+03  0.00000000000E+00 0. -1.
         21   -1    0    0  501  502  0.00000000000E+00 -0.00000000000E+00 -0.15843006585E+03  0.15843006585E+03  0.00000000000E+00 0. -1.
         23    2    1    2    0    0 -0.60483910267E+02  0.46852075562E+01  0.94294473645E+02  0.14636624961E+03  0.94081755376E+02 0.  0.
         23    2    1    2    0    0  0.15259150786E+03  0.83440381192E+02  0.13683693676E+03  0.24014043661E+03  0.93255651559E+02 0.  0.
        -11    1    4    4    0    0  0.10268960291E+03  0.33292792749E+02  0.30069542600E+02  0.11206133137E+03  0.00000000000E+00 0.  1.
         11    1    4    4    0    0  0.49901904950E+02  0.50147588442E+02  0.10676739416E+03  0.12807910524E+03  0.00000000000E+00 0. -1.
        -13    1    3    3    0    0 -0.13607011949E+02 -0.41875591746E+02  0.25051193385E+02  0.50658446959E+02  0.00000000000E+00 0.  1.
         13    1    3    3    0    0 -0.46876898318E+02  0.46560799302E+02  0.69243280260E+02  0.95707802654E+02  0.00000000000E+00 0. -1.
          1    1    1    2  501    0 -0.92107597594E+02 -0.88125588748E+02 -0.30428332421E+02  0.13105652346E+03  0.00000000000E+00 0. -1.
<scales pt_clust_5="13000.00000" pt_clust_6="13000.00000" pt_clust_7="13000.00000" pt_clust_8="13000.00000" pt_clust_9="136.33367"></scales>
<clustering>
<clus scale="   93.256">  5  6 -1 -1</clus>
<clus scale="   94.082">  7  8 -1 -1</clus>
<clus scale="  111.945">  1  7  2 -1</clus>
<clus scale="  136.334">  2  9  1 -1</clus>
<clus scale="  136.334">  2  5  1 -1</clus>
</clustering>
</event>
<event>
 9    1  0.1610296E-005  0.9296726E+02  0.7546771E-02  0.1297188E+00
         21   -1    0    0  501  502  0.00000000000E+00  0.00000000000E+00  0.12807919264E+03  0.12807919264E+03  0.00000000000E+00 0. -1.
          2   -1    0    0  502    0 -0.00000000000E+00 -0.00000000000E+00 -0.10136557170E+03  0.10136557170E+03  0.00000000000E+00 0. -1.
         23    2    1    2    0    0 -0.48035922958E+01 -0.32401999846E+02  0.12415023753E+01  0.93857473479E+02  0.87947256392E+02 0.  0.
         23    2    1    2    0    0  0.24219381354E+02 -0.32456277557E-01  0.77974202473E+01  0.93857663859E+02  0.90343133752E+02 0.  0.
        -13    1    4    4    0    0 -0.76169181081E+01  0.29861793167E+02  0.31584063556E+02  0.44128190574E+02  0.00000000000E+00 0.  1.
         13    1    4    4    0    0  0.31836299463E+02 -0.29894249445E+02 -0.23786643309E+02  0.49729473285E+02  0.00000000000E+00 0. -1.
        -13    1    3    3    0    0 -0.42323086181E+02 -0.19912254419E+02 -0.17701258306E+02  0.50010759298E+02  0.00000000000E+00 0.  1.
         13    1    3    3    0    0  0.37519493885E+02 -0.12489745427E+02  0.18942760682E+02  0.43846714181E+02  0.00000000000E+00 0. -1.
          2    1    1    2  501    0 -0.19415789059E+02  0.32434456124E+02  0.17674698323E+02  0.41729627000E+02  0.00000000000E+00 0. -1.
<scales pt_clust_5="13000.00000" pt_clust_6="13000.00000" pt_clust_7="13000.00000" pt_clust_8="13000.00000" pt_clust_9="37.80168"></scales>
<clustering>
<clus scale="   37.802">  1  9  2 -1</clus>
<clus scale="   87.947">  7  8 -1 -1</clus>
<clus scale="   90.343">  5  6 -1 -1</clus>
<clus scale="   90.641">  2  7  1 -1</clus>
<clus scale="   37.802">  1  5  2 -1</clus>
</clustering>
</event>
<event>
 9    1  0.1610296E-005  0.1650627E+03  0.7546771E-02  0.1197258E+00
          2   -1    0    0  502    0 -0.00000000000E+00  0.00000000000E+00  0.34739871523E+03  0.34739871523E+03  0.00000000000E+00 0. -1.
         21   -1    0    0  501  502  0.00000000000E+00 -0.00000000000E+00 -0.13590875443E+03  0.13590875443E+03  0.00000000000E+00 0. -1.
         23    2    1    2    0    0 -0.18671165225E+02  0.74126856262E+02  0.66987385129E+02  0.13806543751E+03  0.93441703962E+02 0.  0.
         23    2    1    2    0    0  0.27527903284E+02  0.96348606901E+02  0.10408522486E+03  0.16981715479E+03  0.89237282103E+02 0.  0.
        -11    1    3    3    0    0 -0.10840207213E+01 -0.21798917408E+02  0.46370508004E+01  0.22313003859E+02  0.00000000000E+00 0.  1.
         11    1    3    3    0    0 -0.17587144504E+02  0.95925773670E+02  0.62350334329E+02  0.11575243365E+03  0.00000000000E+00 0. -1.
        -11    1    4    4    0    0  0.11321345812E+02  0.23902998539E+02 -0.14310991466E+02  0.30072091495E+02  0.00000000000E+00 0.  1.
         11    1    4    4    0    0  0.16206557472E+02  0.72445608362E+02  0.11839621633E+03  0.13974506330E+03  0.00000000000E+00 0. -1.
          2    1    1    2  501    0 -0.88567380591E+01 -0.17047546316E+03  0.40417350808E+02  0.17542487736E+03  0.00000000000E+00 0. -1.
<scales pt_clust_5="13000.00000" pt_clust_6="13000.00000" pt_clust_7="13000.00000" pt_clust_8="13000.00000" pt_clust_9="138.86109"></scales>
<clustering>
<clus scale="   89.237">  7  8 -1 -1</clus>
<clus scale="   93.442">  5  6 -1 -1</clus>
<clus scale="  120.726">  1  5  2 -1</clus>
<clus scale="  138.861">  2  9  1 -1</clus>
<clus scale="  138.861">  2  5  1 -1</clus>
</clustering>
</event>
<event>
 9    1  0.1610296E-005  0.1972508E+03  0.7546771E-02  0.1152501E+00
          2   -1    0    0  502    0 -0.00000000000E+00  0.00000000000E+00  0.87362138692E+03  0.87362138692E+03  0.00000000000E+00 0. -1.
         21   -1    0    0  501  502  0.00000000000E+00 -0.00000000000E+00 -0.67358726367E+02  0.67358726367E+02  0.00000000000E+00 0.  1.
         23    2    1    2    0    0 -0.63958754343E+02 -0.16639135338E+03  0.61419217665E+03  0.64643951772E+03  0.94208362038E+02 0.  0.
         23    2    1    2    0    0  0.87282200730E+02  0.13704553280E+03  0.15743294376E+03  0.24350218333E+03  0.90047325770E+02 0.  0.
        -11    1    3    3    0    0  0.16795556588E+02 -0.50423062007E+02  0.25436083952E+03  0.25985382927E+03  0.00000000000E+00 0.  1.
         11    1    3    3    0    0 -0.80754310931E+02 -0.11596829137E+03  0.35983133713E+03  0.38658568846E+03  0.00000000000E+00 0. -1.
        -13    1    4    4    0    0  0.92970183531E+02  0.74228923602E+02  0.78800281948E+02  0.14269853734E+03  0.00000000000E+00 0.  1.
         13    1    4    4    0    0 -0.56879828010E+01  0.62816609201E+02  0.78632661810E+02  0.10080364598E+03  0.00000000000E+00 0. -1.
          2    1    1    2  501    0 -0.23323446388E+02  0.29345820575E+02  0.34637540140E+02  0.51038412236E+02  0.00000000000E+00 0. -1.
<scales pt_clust_5="13000.00000" pt_clust_6="13000.00000" pt_clust_7="13000.00000" pt_clust_8="13000.00000" pt_clust_9="37.48547"></scales>
<clustering>
<clus scale="   37.485">  2  9  1 -1</clus>
<clus scale="   90.047">  7  8 -1 -1</clus>
<clus scale="   94.208">  5  6 -1 -1</clus>
<clus scale="  195.298">  2  7  1 -1</clus>
<clus scale="   37.485">  2  5  1 -1</clus>
</clustering>
</event>
<event>
 9    1  0.1610296E-005  0.1842913E+03  0.7546771E-02  0.1163773E+00
          1   -1    0    0  502    0 -0.00000000000E+00  0.00000000000E+00  0.83010846780E+02  0.83010846780E+02  0.00000000000E+00 0. -1.
         21   -1    0    0  501  502  0.00000000000E+00 -0.00000000000E+00 -0.64278016582E+03  0.64278016582E+03  0.00000000000E+00 0.  1.
         23    2    1    2    0    0 -0.51570249900E+02  0.15744723268E+03 -0.80937073246E+02  0.20678646228E+03  0.93598661320E+02 0.  0.
         23    2    1    2    0    0  0.40900295158E+02 -0.12933558863E+03 -0.43958097811E+03  0.46955988953E+03  0.94098485194E+02 0.  0.
        -11    1    4    4    0    0  0.16020094442E+02  0.12926069112E+02 -0.50012761311E+02  0.54083296706E+02  0.00000000000E+00 0. -1.
         11    1    4    4    0    0  0.24880200716E+02 -0.14226165774E+03 -0.38956821680E+03  0.41547659283E+03  0.00000000000E+00 0.  1.
        -11    1    3    3    0    0  0.19565110997E+02  0.65111868390E+02 -0.54822519615E+02  0.87337607194E+02  0.00000000000E+00 0.  1.
         11    1    3    3    0    0 -0.71135360897E+02  0.92335364293E+02 -0.26114553631E+02  0.11944885508E+03  0.00000000000E+00 0. -1.
          1    1    1    2  501    0  0.10669954742E+02 -0.28111644056E+02 -0.39251267689E+02  0.49444660793E+02  0.00000000000E+00 0. -1.
<scales pt_clust_5="13000.00000" pt_clust_6="13000.00000" pt_clust_7="13000.00000" pt_clust_8="13000.00000" pt_clust_9="30.06846"></scales>
<clustering>
<clus scale="   30.068">  2  9  1 -1</clus>
<clus scale="   93.599">  7  8 -1 -1</clus>
<clus scale="   94.098">  5  6 -1 -1</clus>
<clus scale="  184.037">  1  7  2 -1</clus>
<clus scale="   30.068">  2  5  1 -1</clus>
</clustering>
</event>
<event>
 9    1  0.1610296E-005  0.9751527E+02  0.7546771E-02  0.1285628E+00
         21   -1    0    0  501  502  0.00000000000E+00  0.00000000000E+00  0.41764648645E+02  0.41764648645E+02  0.00000000000E+00 0.  1.
          1   -1    0    0  502    0 -0.00000000000E+00 -0.00000000000E+00 -0.52086749113E+03  0.52086749113E+03  0.00000000000E+00 0. -1.
         23    2    1    2    0    0 -0.24546828941E+02 -0.71149507545E+01 -0.30797129974E+03  0.32222611079E+03  0.91269796055E+02 0.  0.
         23    2    1    2    0    0  0.56597085561E+02 -0.18502431768E+02 -0.16669209824E+03  0.19913645298E+03  0.91233224284E+02 0.  0.
        -11    1    3    3    0    0  0.22376720685E+01 -0.40903790622E+02 -0.76544484008E+02  0.86816964330E+02  0.00000000000E+00 0.  1.
         11    1    3    3    0    0 -0.26784501010E+02  0.33788839867E+02 -0.23142681574E+03  0.23540914646E+03  0.00000000000E+00 0. -1.
        -13    1    4    4    0    0  0.79843728649E+02 -0.73671632707E+01 -0.10376860808E+03  0.13113817188E+03  0.00000000000E+00 0.  1.
         13    1    4    4    0    0 -0.23246643088E+02 -0.11135268498E+02 -0.62923490154E+02  0.67998281100E+02  0.00000000000E+00 0. -1.
          1    1    1    2  501    0 -0.32050256620E+02  0.25617382523E+02 -0.44394445028E+01  0.41269576012E+02  0.00000000000E+00 0. -1.
<scales pt_clust_5="13000.00000" pt_clust_6="13000.00000" pt_clust_7="13000.00000" pt_clust_8="13000.00000" pt_clust_9="41.03010"></scales>
<clustering>
<clus scale="   41.030">  1  9  2 -1</clus>
<clus scale="   91.233">  7  8 -1 -1</clus>
<clus scale="   91.270">  5  6 -1 -1</clus>
<clus scale="   97.481">  1  7  2 -1</clus>
<clus scale="   41.030">  1  5  2 -1</clus>
</clustering>
</event>
<event>
 9    1  0.1610296E-005  0.1452708E+03  0.7546771E-02  0.1226416E+00
         21   -1    0    0  501  502  0.00000000000E+00  0.00000000000E+00  0.51790515319E+03  0.51790515319E+03  0.00000000000E+00 0.  1.
          4   -1    0    0  502    0 -0.00000000000E+00 -0.00000000000E+00 -0.64812531787E+02  0.64812531787E+02  0.00000000000E+00 0. -1.
         23    2    1    2    0    0  0.51782154694E+01 -0.25182950227E+02  0.19739066833E+03  0.21914591954E+03  0.91656222981E+02 0.  0.
         23    2    1    2    0    0 -0.42566201336E+02  0.11787676193E+03  0.17965446862E+03  0.23798026848E+03  0.93016490975E+02 0.  0.
        -11    1    3    3    0    0  0.96244693589E+01  0.32034623922E+02  0.43300953693E+02  0.54715812440E+02  0.00000000000E+00 0.  1.
         11    1    3    3    0    0 -0.44462538894E+01 -0.57217574149E+02  0.15408971463E+03  0.16443010710E+03  0.00000000000E+00 0. -1.
        -11    1    4    4    0    0  0.21427903784E+02  0.28461727034E+02  0.87636080713E+02  0.94600780171E+02  0.00000000000E+00 0. -1.
         11    1    4    4    0    0 -0.63994105121E+02  0.89415034896E+02  0.92018387905E+02  0.14337948831E+03  0.00000000000E+00 0.  1.
          4    1    1    2  501    0  0.37387985867E+02 -0.92693811702E+02  0.76047484460E+02  0.12559149696E+03  0.00000000000E+00 0. -1.
<scales pt_clust_5="13000.00000" pt_clust_6="13000.00000" pt_clust_7="13000.00000" pt_clust_8="13000.00000" pt_clust_9="111.58657"></scales>
<clustering>
<clus scale="   91.656">  5  6 -1 -1</clus>
<clus scale="   93.016">  7  8 -1 -1</clus>
<clus scale="   95.194">  2  5  1 -1</clus>
<clus scale="  111.587">  1  9  2 -1</clus>
<clus scale="  111.587">  1  5  2 -1</clus>
</clustering>
</event>
<event>
 9    1  0.1610296E-005  0.1185626E+03  0.7546771E-02  0.1245924E+00
         -1   -1    0    0    0  501 -0.00000000000E+00  0.00000000000E+00  0.15060661859E+03  0.15060661859E+03  0.00000000000E+00 0.  1.
         21   -1    0    0  501  502  0.00000000000E+00 -0.00000000000E+00 -0.16144122752E+03  0.16144122752E+03  0.00000000000E+00 0. -1.
         23    2    1    2    0    0 -0.48144087203E+02 -0.49910469319E+02  0.66975506709E+02  0.13195653119E+03  0.90099387033E+02 0.  0.
         23    2    1    2    0    0  0.67222013297E+02  0.62950864016E+02 -0.40055114322E+02  0.13582553488E+03  0.91446997712E+02 0.  0.
        -11    1    3    3    0    0 -0.24528848499E+02 -0.49436274280E+02  0.85620041342E+02  0.10186462145E+03  0.00000000000E+00 0.  1.
         11    1    3    3    0    0 -0.23615238704E+02 -0.47419503857E+00 -0.18644534633E+02  0.30091909738E+02  0.00000000000E+00 0. -1.
        -11    1    4    4    0    0  0.17800669642E+02  0.16098655091E+02  0.29803697332E+02  0.38266054279E+02  0.00000000000E+00 0.  1.
         11    1    4    4    0    0  0.49421343655E+02  0.46852208925E+02 -0.69858811654E+02  0.97559480603E+02  0.00000000000E+00 0. -1.
         -1    1    1    2    0  502 -0.19077926093E+02 -0.13040394697E+02 -0.37755001315E+02  0.44265780035E+02  0.00000000000E+00 0.  1.
<scales pt_clust_5="13000.00000" pt_clust_6="13000.00000" pt_clust_7="13000.00000" pt_clust_8="13000.00000" pt_clust_9="23.10885"></scales>
<clustering>
<clus scale="   23.109">  2  9  1 -1</clus>
<clus scale="   90.099">  5  6 -1 -1</clus>
<clus scale="   91.447">  7  8 -1 -1</clus>
<clus scale="  117.526">  1  5  2 -1</clus>
<clus scale="   23.109">  2  5  1 -1</clus>
</clustering>
</event>
<event>
 9    1  0.1610296E-005  0.1065964E+03  0.7546771E-02  0.1268050E+00
         -1   -1    0    0    0  501 -0.00000000000E+00  0.00000000000E+00  0.16797367849E+03  0.16797367849E+03  0.00000000000E+00 0.  1.
         21   -1    0    0  501  502  0.00000000000E+00 -0.00000000000E+00 -0.12929216744E+03  0.12929216744E+03  0.00000000000E+00 0. -1.
         23    2    1    2    0    0  0.43704431602E+02 -0.36750936778E+02  0.86956474670E+02  0.13837618403E+03  0.91245992374E+02 0.  0.
         23    2    1    2    0    0 -0.60052095212E+02  0.60757102709E+00 -0.17248420213E+02  0.10852861159E+03  0.88737411790E+02 0.  0.
        -11    1    3    3    0    0  0.55702172080E+02  0.45920022793E+01  0.21189779991E+02  0.59773114654E+02  0.00000000000E+00 0. -1.
         11    1    3    3    0    0 -0.11997740478E+02 -0.41342939057E+02  0.65766694679E+02  0.78603069377E+02  0.00000000000E+00 0.  1.
        -13    1    4    4    0    0 -0.59126454548E+02 -0.35849584537E+02 -0.25015449508E+01  0.69190953643E+02  0.00000000000E+00 0.  1.
         13    1    4    4    0    0 -0.92564066400E+00  0.36457155564E+02 -0.14746875262E+02  0.39337657943E+02  0.00000000000E+00 0. -1.
         -1    1    1    2    0  502  0.16347663611E+02  0.36143365751E+02 -0.31026543399E+02  0.50361050312E+02  0.00000000000E+00 0.  1.
<scales pt_clust_5="13000.00000" pt_clust_6="13000.00000" pt_clust_7="13000.00000" pt_clust_8="13000.00000" pt_clust_9="39.66849"></scales>
<clustering>
<clus scale="   39.668">  2  9  1 -1</clus>
<clus scale="   88.737">  7  8 -1 -1</clus>
<clus scale="   91.246">  5  6 -1 -1</clus>
<clus scale="  104.457">  2  7  1 -1</clus>
<clus scale="   39.668">  2  5  1 -1</clus>
</clustering>
</event>
<event>
 9    1  0.1610296E-005  0.9664396E+02  0.7546771E-02  0.1289150E+00
         21   -1    0    0  501  502  0.00000000000E+00  0.00000000000E+00  0.55328602244E+03  0.55328602244E+03  0.00000000000E+00 0.  1.
         -2   -1    0    0    0  501 -0.00000000000E+00 -0.00000000000E+00 -0.23410027623E+02  0.23410027623E+02  0.00000000000E+00 0.  1.
         23    2    1    2    0    0  0.11692772048E+02 -0.12282996633E+02  0.16566590538E+03  0.19083012867E+03  0.93184509869E+02 0.  0.
         23    2    1    2    0    0 -0.35564740121E+02  0.22105590891E+02  0.31477155782E+03  0.33009386184E+03  0.90151628524E+02 0.  0.
        -11    1    4    4    0    0 -0.54820891588E+02  0.39363184877E+02  0.27079693925E+03  0.27908022643E+03  0.00000000000E+00 0.  1.
         11    1    4    4    0    0  0.19256151467E+02 -0.17257593986E+02  0.43974618571E+02  0.51013635412E+02  0.00000000000E+00 0. -1.
        -13    1    3    3    0    0  0.23553933672E+02  0.36209973039E+02  0.94447845810E+02  0.10385733251E+03  0.00000000000E+00 0. -1.
         13    1    3    3    0    0 -0.11861161624E+02 -0.48492969672E+02  0.71218059568E+02  0.86972796156E+02  0.00000000000E+00 0.  1.
         -2    1    1    2    0  502  0.23871968073E+02 -0.98225942580E+01  0.49438531621E+02  0.55772059550E+02  0.00000000000E+00 0.  1.
<scales pt_clust_5="13000.00000" pt_clust_6="13000.00000" pt_clust_7="13000.00000" pt_clust_8="13000.00000" pt_clust_9="25.81385"></scales>
<clustering>
<clus scale="   25.814">  1  9  2 -1</clus>
<clus scale="   90.152">  5  6 -1 -1</clus>
<clus scale="   93.185">  7  8 -1 -1</clus>
<clus scale="   93.723">  1  5  2 -1</clus>
<clus scale="   25.814">  1  5  2 -1</clus>
</clustering>
</event>
<event>
 9    1  0.1610296E-005  0.1000133E+03  0.7546771E-02  0.1280941E+00
          1   -1    0    0  502    0 -0.00000000000E+00  0.00000000000E+00  0.13770713345E+03  0.13770713345E+03  0.00000000000E+00 0. -1.
         21   -1    0    0  501  502  0.00000000000E+00 -0.00000000000E+00 -0.11193736289E+03  0.11193736289E+03  0.00000000000E+00 0.  1.
         23    2    1    2    0    0  0.17925270867E+02  0.23449159974E+02  0.54074946483E+02  0.11039067274E+03  0.91601432035E+02 0.  0.
         23    2    1    2    0    0 -0.30919117703E+02 -0.46348083203E+02 -0.31143585582E+02  0.11277256023E+03  0.92970913529E+02 0.  0.
        -11    1    3    3    0    0  0.49812217756E+02 -0.16443448317E+01  0.48302943846E+02  0.69405585451E+02  0.00000000000E+00 0. -1.
         11    1    3    3    0    0 -0.31886946888E+02  0.25093504805E+02  0.57720026376E+01  0.40985087285E+02  0.00000000000E+00 0.  1.
        -13    1    4    4    0    0  0.11262911180E+02 -0.24032233999E+02 -0.53766625381E+02  0.59960415643E+02  0.00000000000E+00 0.  1.
         13    1    4    4    0    0 -0.42182028883E+02 -0.22315849204E+02  0.22623039799E+02  0.52812144589E+02  0.00000000000E+00 0. -1.
          1    1    1    2  501    0  0.12993846835E+02  0.22898923229E+02  0.28384096625E+01  0.26481263377E+02  0.00000000000E+00 0. -1.
<scales pt_clust_5="13000.00000" pt_clust_6="13000.00000" pt_clust_7="13000.00000" pt_clust_8="13000.00000" pt_clust_9="26.32872"></scales>
<clustering>
<clus scale="   26.329">  2  9  1 -1</clus>
<clus scale="   91.601">  5  6 -1 -1</clus>
<clus scale="   92.971">  7  8 -1 -1</clus>
<clus scale="   98.742">  1  5  2 -1</clus>
<clus scale="   26.329">  2  5  1 -1</clus>
</clustering>
</event>
<event>
 9    1  0.1610296E-005  0.9600358E+02  0.7546771E-02  0.1290844E+00
         21   -1    0    0  501  502  0.00000000000E+00  0.00000000000E+00  0.73372556804E+02  0.73372556804E+02  0.00000000000E+00 0. -1.
          1   -1    0    0  502    0 -0.00000000000E+00 -0.00000000000E+00 -0.27533570492E+03  0.27533570492E+03  0.00000000000E+00 0. -1.
         23    2    1    2    0    0  0.12277773373E+02 -0.40909136830E+02 -0.15909517613E+03  0.18659697550E+03  0.87651896742E+02 0.  0.
         23    2    1    2    0    0 -0.54800250459E+01  0.80895328770E+01 -0.72848371987E+02  0.11714285097E+03  0.91214532918E+02 0.  0.
        -11    1    3    3    0    0  0.48593109897E+02 -0.25078569367E+02 -0.67993163784E+02  0.87254199282E+02  0.00000000000E+00 0.  1.
         11    1    3    3    0    0 -0.36315336524E+02 -0.15830567463E+02 -0.91102012342E+02  0.99342776214E+02  0.00000000000E+00 0. -1.
        -13    1    4    4    0    0 -0.20852498546E+02  0.45580878035E+02 -0.49151118381E+02  0.70201677873E+02  0.00000000000E+00 0. -1.
         13    1    4    4    0    0  0.15372473500E+02 -0.37491345158E+02 -0.23697253606E+02  0.46941173097E+02  0.00000000000E+00 0.  1.
          1    1    1    2  501    0 -0.67977483273E+01  0.32819603953E+02  0.29980399995E+02  0.44968435261E+02  0.00000000000E+00 0. -1.
<scales pt_clust_5="13000.00000" pt_clust_6="13000.00000" pt_clust_7="13000.00000" pt_clust_8="13000.00000" pt_clust_9="33.51620"></scales>
<clustering>
<clus scale="   33.516">  1  9  2 -1</clus>
<clus scale="   87.652">  5  6 -1 -1</clus>
<clus scale="   91.215">  7  8 -1 -1</clus>
<clus scale="   92.625">  2  5  1 -1</clus>
<clus scale="   33.516">  1  5  2 -1</clus>
</clustering>
</event>
<event>
 9    1  0.1610296E-005  0.2381487E+03  0.7546771E-02  0.1121431E+00
         21   -1    0    0  501  502  0.00000000000E+00  0.00000000000E+00  0.20528769040E+03  0.20528769040E+03  0.00000000000E+00 0.  1.
          2   -1    0    0  502    0 -0.00000000000E+00 -0.00000000000E+00 -0.58589420671E+03  0.58589420671E+03  0.00000000000E+00 0.  1.
         23    2    1    2    0    0 -0.10024622026E+03  0.18247910653E+03 -0.32723178265E+03  0.39874097506E+03  0.92551588975E+02 0.  0.
         23    2    1    2    0    0  0.20693572851E+03 -0.16063823439E+03 -0.41350530189E+02  0.28287698486E+03  0.98399614506E+02 0.  0.
        -11    1    4    4    0    0  0.19076835115E+03 -0.12963466095E+03 -0.25697997231E+01  0.23066060130E+03  0.00000000000E+00 0.  1.
         11    1    4    4    0    0  0.16167377355E+02 -0.31003573440E+02 -0.38780730466E+02  0.52216383560E+02  0.00000000000E+00 0. -1.
        -13    1    3    3    0    0 -0.11734196033E+03  0.14440687367E+03 -0.26434521991E+03  0.32326595259E+03  0.00000000000E+00 0.  1.
         13    1    3    3    0    0  0.17095740070E+02  0.38072232858E+02 -0.62886562735E+02  0.75475022464E+02  0.00000000000E+00 0. -1.
          2    1    1    2  501    0 -0.10668950825E+03 -0.21840872137E+02 -0.12024203470E+02  0.10956393720E+03  0.00000000000E+00 0.  1.
<scales pt_clust_5="13000.00000" pt_clust_6="13000.00000" pt_clust_7="13000.00000" pt_clust_8="13000.00000" pt_clust_9="108.90213"></scales>
<clustering>
<clus scale="   92.552">  7  8 -1 -1</clus>
<clus scale="   98.400">  5  6 -1 -1</clus>
<clus scale="  108.902">  1  9  2 -1</clus>
<clus scale="  235.793">  2  7  1 -1</clus>
<clus scale="  108.902">  1  5  2 -1</clus>
</clustering>
</event>
<event>
 9    1  0.1610296E-005  0.1002426E+03  0.7546771E-02  0.1281476E+00
         21   -1    0    0  501  502  0.00000000000E+00  0.00000000000E+00  0.15938127574E+03  0.15938127574E+03  0.00000000000E+00 0. -1.
          2   -1    0    0  502    0 -0.00000000000E+00 -0.00000000000E+00 -0.40070726764E+03  0.40070726764E+03  0.00000000000E+00 0. -1.
         23    2    1    2    0    0  0.16909622612E+02  0.28220768489E+02 -0.24959790791E+03  0.26754189145E+03  0.90538394829E+02 0.  0.
         23    2    1    2    0    0 -0.49720132121E+02 -0.91113151228E+01 -0.11895544601E+03  0.15977428135E+03  0.93927180535E+02 0.  0.
        -11    1    3    3    0    0  0.46831118092E+02  0.13533419145E+01 -0.75461394252E+02  0.88822334908E+02  0.00000000000E+00 0. -1.
         11    1    3    3    0    0 -0.29921495481E+02  0.26867426575E+02 -0.17413651366E+03  0.17871955654E+03  0.00000000000E+00 0.  1.
        -13    1    4    4    0    0 -0.11955136939E-01 -0.31404920746E+02 -0.28634309995E+01  0.31535193468E+02  0.00000000000E+00 0.  1.
         13    1    4    4    0    0 -0.49708176984E+02  0.22293605623E+02 -0.11609201501E+03  0.12823908788E+03  0.00000000000E+00 0. -1.
          2    1    1    2  501    0  0.32810509509E+02 -0.19109453367E+02  0.12722736202E+03  0.13277237058E+03  0.00000000000E+00 0. -1.
<scales pt_clust_5="13000.00000" pt_clust_6="13000.00000" pt_clust_7="13000.00000" pt_clust_8="13000.00000" pt_clust_9="37.96973"></scales>
<clustering>
<clus scale="   37.970">  1  9  2 -1</clus>
<clus scale="   90.538">  5  6 -1 -1</clus>
<clus scale="   93.927">  7  8 -1 -1</clus>
<clus scale="   97.075">  2  5  1 -1</clus>
<clus scale="   37.970">  1  5  2 -1</clus>
</clustering>
</event>
<event>
 9    1  0.1610296E-005  0.1586154E+03  0.7546771E-02  0.1190800E+00
         21   -1    0    0  501  502  0.00000000000E+00  0.00000000000E+00  0.56185569154E+02  0.56185569154E+02  0.00000000000E+00 0. -1.
          2   -1    0    0  502    0 -0.00000000000E+00 -0.00000000000E+00 -0.81375634272E+03  0.81375634272E+03  0.00000000000E+00 0. -1.
         23    2    1    2    0    0  0.11029574569E+03 -0.14221214106E+02 -0.34625825912E+03  0.37495868110E+03  0.91278891752E+02 0.  0.
         23    2    1    2    0    0 -0.16508712809E+03  0.61889820447E+02 -0.25203186708E+03  0.31992690772E+03  0.88028714174E+02 0.  0.
        -11    1    4    4    0    0 -0.13684029612E+03  0.39380854346E+02 -0.24463482373E+03  0.28305885486E+03  0.00000000000E+00 0.  1.
         11    1    4    4    0    0 -0.28246831968E+02  0.22508966101E+02 -0.73970433527E+01  0.36868052858E+02  0.00000000000E+00 0. -1.
        -11    1    3    3    0    0  0.18208860159E+02 -0.43012079654E+02 -0.96409462750E+02  0.10712789596E+03  0.00000000000E+00 0.  1.
         11    1    3    3    0    0  0.92086885526E+02  0.28790865547E+02 -0.24984879637E+03  0.26783078515E+03  0.00000000000E+00 0. -1.
          2    1    1    2  501    0  0.54791382406E+02 -0.47668606341E+02 -0.15928064736E+03  0.17505632305E+03  0.00000000000E+00 0. -1.
<scales pt_clust_5="13000.00000" pt_clust_6="13000.00000" pt_clust_7="13000.00000" pt_clust_8="13000.00000" pt_clust_9="72.62504"></scales>
<clustering>
<clus scale="   72.625">  1  9  2 -1</clus>
<clus scale="   88.029">  5  6 -1 -1</clus>
<clus scale="   91.279">  7  8 -1 -1</clus>
<clus scale="  156.768">  1  5  2 -1</clus>
<clus scale="   72.625">  1  5  2 -1</clus>
</clustering>
</event>
<event>
 9    1  0.1610296E-005  0.1093001E+03  0.7546771E-02  0.1262456E+00
          2   -1    0    0  502    0 -0.00000000000E+00  0.00000000000E+00  0.53366940703E+03  0.53366940703E+03  0.00000000000E+00 0. -1.
         21   -1    0    0  501  502  0.00000000000E+00 -0.00000000000E+00 -0.46878299198E+02  0.46878299198E+02  0.00000000000E+00 0. -1.
         23    2    1    2    0    0  0.65195733437E+02 -0.95231312555E+00  0.25685614244E+03  0.28015496624E+03  0.90886394155E+02 0.  0.
         23    2    1    2    0    0 -0.41411169279E+02  0.58616794717E+02  0.20153370141E+03  0.23185421268E+03  0.89385287210E+02 0.  0.
        -11    1    4    4    0    0  0.72096655575E+01  0.60701675940E+02  0.14438683292E+03  0.15679359126E+03  0.00000000000E+00 0. -1.
         11    1    4    4    0    0 -0.48620834836E+02 -0.20848812239E+01  0.57146868492E+02  0.75060621422E+02  0.00000000000E+00 0.  1.
        -13    1    3    3    0    0  0.61858187088E+02  0.36981270458E+02  0.14363964640E+03  0.16070593546E+03  0.00000000000E+00 0. -1.
         13    1    3    3    0    0  0.33375463493E+01 -0.37933583583E+02  0.11321649604E+03  0.11944903078E+03  0.00000000000E+00 0.  1.
          2    1    1    2  501    0 -0.23784564158E+02 -0.57664481591E+02  0.28401263983E+02  0.68538527306E+02  0.00000000000E+00 0. -1.
<scales pt_clust_5="13000.00000" pt_clust_6="13000.00000" pt_clust_7="13000.00000" pt_clust_8="13000.00000" pt_clust_9="62.37706"></scales>
<clustering>
<clus scale="   62.377">  2  9  1 -1</clus>
<clus scale="   89.385">  5  6 -1 -1</clus>
<clus scale="   90.886">  7  8 -1 -1</clus>
<clus scale="  108.055">  2  5  1 -1</clus>
<clus scale="   62.377">  2  5  1 -1</clus>
</clustering>
</event>
<event>
 9    1  0.1610296E-005  0.1341851E+03  0.7546771E-02  0.1221464E+00
         21   -1    0    0  501  502  0.00000000000E+00  0.00000000000E+00  0.33741897953E+03  0.33741897953E+03  0.00000000000E+00 0.  1.
          2   -1    0    0  502    0 -0.00000000000E+00 -0.00000000000E+00 -0.17219010022E+03  0.17219010022E+03  0.00000000000E+00 0. -1.
         23    2    1    2    0    0 -0.10888053832E+02 -0.99267832683E+02 -0.10381134832E+03  0.17071016048E+03  0.91610646370E+02 0.  0.
         23    2    1    2    0    0  0.47920895279E+02  0.84435959223E+02  0.10375278792E+03  0.16886552978E+03  0.91241891326E+02 0.  0.
        -13    1    3    3    0    0 -0.10010642102E+02 -0.20664952779E+02  0.15591283543E+02  0.27755023891E+02  0.00000000000E+00 0. -1.
         13    1    3    3    0    0 -0.87741172987E+00 -0.78602879904E+02 -0.11940263186E+03  0.14295513659E+03  0.00000000000E+00 0.  1.
        -13    1    4    4    0    0  0.63258715859E+02  0.40296128571E+02  0.95470260185E+02  0.12140845807E+03  0.00000000000E+00 0. -1.
         13    1    4    4    0    0 -0.15337820581E+02  0.44139830652E+02  0.82825277353E+01  0.47457071716E+02  0.00000000000E+00 0.  1.
          2    1    1    2  501    0 -0.37032841447E+02  0.14831873460E+02  0.16528743971E+03  0.17003338949E+03  0.00000000000E+00 0. -1.
<scales pt_clust_5="13000.00000" pt_clust_6="13000.00000" pt_clust_7="13000.00000" pt_clust_8="13000.00000" pt_clust_9="39.89255"></scales>
<clustering>
<clus scale="   39.893">  1  9  2 -1</clus>
<clus scale="   91.242">  7  8 -1 -1</clus>
<clus scale="   91.611">  5  6 -1 -1</clus>
<clus scale="  133.934">  1  7  2 -1</clus>
<clus scale="   39.893">  1  5  2 -1</clus>
</clustering>
</event>
<event>
 9    1  0.1610296E-005  0.1063423E+03  0.7546771E-02  0.1268927E+00
         21   -1    0    0  501  502  0.00000000000E+00  0.00000000000E+00  0.72532808134E+02  0.72532808134E+02  0.00000000000E+00 0.  1.
          2   -1    0    0  502    0 -0.00000000000E+00 -0.00000000000E+00 -0.20722270894E+03  0.20722270894E+03  0.00000000000E+00 0. -1.
         23    2    1    2    0    0  0.65075888422E+01  0.39130388755E+02 -0.92561580742E+02  0.13682436767E+03  0.92626806722E+02 0.  0.
         23    2    1    2    0    0 -0.25780689655E+02 -0.53149644658E+02 -0.37262050369E+02  0.11860682964E+03  0.95862354198E+02 0.  0.
        -13    1    3    3    0    0 -0.42414027262E+02  0.27257480801E+02 -0.45691007908E+02  0.68041077092E+02  0.00000000000E+00 0.  1.
         13    1    3    3    0    0  0.48921616104E+02  0.11872907953E+02 -0.46870572834E+02  0.68783290582E+02  0.00000000000E+00 0. -1.
        -13    1    4    4    0    0  0.30276649116E+02  0.61889606454E+01 -0.12091033142E+02  0.33183908721E+02  0.00000000000E+00 0. -1.
         13    1    4    4    0    0 -0.56057338772E+02 -0.59338605303E+02 -0.25171017227E+02  0.85422920916E+02  0.00000000000E+00 0.  1.
          2    1    1    2  501    0  0.19273100813E+02  0.14019255903E+02 -0.48662696912E+01  0.24324319759E+02  0.00000000000E+00 0. -1.
<scales pt_clust_5="13000.00000" pt_clust_6="13000.00000" pt_clust_7="13000.00000" pt_clust_8="13000.00000" pt_clust_9="23.83258"></scales>
<clustering>
<clus scale="   23.833">  1  9  2 -1</clus>
<clus scale="   92.627">  5  6 -1 -1</clus>
<clus scale="   95.862">  7  8 -1 -1</clus>
<clus scale="  103.435">  2  5  1 -1</clus>
<clus scale="   23.833">  1  5  2 -1</clus>
</clustering>
</event>
<event>
 9    1  0.1610296E-005  0.1547029E+03  0.7546771E-02  0.1195044E+00
         21   -1    0    0  501  502  0.00000000000E+00  0.00000000000E+00  0.29245363791E+03  0.29245363791E+03  0.00000000000E+00 0.  1.
          1   -1    0    0  502    0 -0.00000000000E+00 -0.00000000000E+00 -0.42583408901E+03  0.42583408901E+03  0.00000000000E+00 0. -1.
         23    2    1    2    0    0  0.12031286148E+03 -0.57334378679E+01 -0.28100771957E+03  0.31958229144E+03  0.93056142182E+02 0.  0.
         23    2    1    2    0    0 -0.16574647439E+03  0.26306507505E+02  0.23201319681E+03  0.30068273771E+03  0.91739081928E+02 0.  0.
        -11    1    3    3    0    0  0.54898134773E+02  0.31812839131E+02 -0.19562157476E+03  0.20565423031E+03  0.00000000000E+00 0. -1.
         11    1    3    3    0    0  0.65414726703E+02 -0.37546276999E+02 -0.85386144811E+02  0.11392806113E+03  0.00000000000E+00 0.  1.
        -11    1    4    4    0    0 -0.82725668944E+02 -0.12947938244E+02  0.17108268685E+03  0.19047433199E+03  0.00000000000E+00 0.  1.
         11    1    4    4    0    0 -0.83020805446E+02  0.39254445748E+02  0.60930509967E+02  0.11020840573E+03  0.00000000000E+00 0. -1.
          1    1    1    2  501    0  0.45433612913E+02 -0.20573069637E+02 -0.84385928337E+02  0.98022697769E+02  0.00000000000E+00 0. -1.
<scales pt_clust_5="13000.00000" pt_clust_6="13000.00000" pt_clust_7="13000.00000" pt_clust_8="13000.00000" pt_clust_9="49.87451"></scales>
<clustering>
<clus scale="   49.875">  1  9  2 -1</clus>
<clus scale="   91.739">  7  8 -1 -1</clus>
<clus scale="   93.056">  5  6 -1 -1</clus>
<clus scale="  153.914">  1  7  2 -1</clus>
<clus scale="   49.875">  1  5  2 -1</clus>
</clustering>
</event>
<event>
 9    1  0.1610296E-005  0.1894832E+03  0.7546771E-02  0.1188260E+00
         21   -1    0    0  501  502  0.00000000000E+00  0.00000000000E+00  0.21881673832E+03  0.21881673832E+03  0.00000000000E+00 0. -1.
          1   -1    0    0  502    0 -0.00000000000E+00 -0.00000000000E+00 -0.28645862630E+03  0.28645862630E+03  0.00000000000E+00 0. -1.
         23    2    1    2    0    0 -0.16792217715E+02  0.28428637647E+02 -0.19647755933E+02  0.99233055501E+02  0.91493163551E+02 0.  0.
         23    2    1    2    0    0  0.87254114693E+02  0.12645262648E+03 -0.12596005794E+03  0.21887454880E+03  0.91850882641E+02 0.  0.
        -11    1    4    4    0    0  0.26681029724E+02  0.84498118152E+02 -0.11374311627E+03  0.14418497084E+03  0.00000000000E+00 0.  1.
         11    1    4    4    0    0  0.60573084969E+02  0.41954508331E+02 -0.12216941669E+02  0.74689577959E+02  0.00000000000E+00 0. -1.
        -13    1    3    3    0    0  0.48670920437E+01 -0.31571040776E+02 -0.14954667580E+02  0.35271252928E+02  0.00000000000E+00 0. -1.
         13    1    3    3    0    0 -0.21659309759E+02  0.59999678423E+02 -0.46930883531E+01  0.63961802573E+02  0.00000000000E+00 0.  1.
          1    1    1    2  501    0 -0.70461896978E+02 -0.15488126413E+03  0.77965925893E+02  0.18716776032E+03  0.00000000000E+00 0. -1.
<scales pt_clust_5="13000.00000" pt_clust_6="13000.00000" pt_clust_7="13000.00000" pt_clust_8="13000.00000" pt_clust_9="165.73265"></scales>
<clustering>
<clus scale="   91.493">  7  8 -1 -1</clus>
<clus scale="   91.851">  5  6 -1 -1</clus>
<clus scale="   97.269">  2  7  1 -1</clus>
<clus scale="  165.733">  1  9  2 -1</clus>
<clus scale="  165.733">  1  5  2 -1</clus>
</clustering>
</event>
<event>
 9    1  0.1610296E-005  0.9874790E+02  0.7546771E-02  0.1288449E+00
          3   -1    0    0  502    0 -0.00000000000E+00  0.00000000000E+00  0.35370685615E+03  0.35370685615E+03  0.00000000000E+00 0. -1.
         21   -1    0    0  501  502  0.00000000000E+00 -0.00000000000E+00 -0.42972601370E+02  0.42972601370E+02  0.00000000000E+00 0. -1.
         23    2    1    2    0    0  0.26647391122E+02  0.15743097978E+02  0.20599459410E+03  0.22384155848E+03  0.81934985922E+02 0.  0.
         23    2    1    2    0    0 -0.25197096860E+02 -0.45424107464E+02  0.69585001605E+02  0.12680621721E+03  0.92409420759E+02 0.  0.
        -13    1    3    3    0    0  0.49606785376E+02 -0.12221366161E+02  0.12979032792E+03  0.13948377744E+03  0.00000000000E+00 0.  1.
         13    1    3    3    0    0 -0.22959394255E+02  0.27964464139E+02  0.76204266178E+02  0.84357781045E+02  0.00000000000E+00 0. -1.
        -13    1    4    4    0    0 -0.42219278785E+02  0.36902446801E+01  0.60762719878E+02  0.74082342930E+02  0.00000000000E+00 0.  1.
         13    1    4    4    0    0  0.17022181925E+02 -0.49114352144E+02  0.88222817269E+01  0.52723874278E+02  0.00000000000E+00 0. -1.
          3    1    1    2  501    0 -0.14502942614E+01  0.29681009486E+02  0.35154659081E+02  0.46031681836E+02  0.00000000000E+00 0. -1.
<scales pt_clust_5="13000.00000" pt_clust_6="13000.00000" pt_clust_7="13000.00000" pt_clust_8="13000.00000" pt_clust_9="29.71642"></scales>
<clustering>
<clus scale="   29.716">  2  9  1 -1</clus>
<clus scale="   81.935">  5  6 -1 -1</clus>
<clus scale="   89.022">  1  5  2 -1</clus>
<clus scale="   92.409">  7  8 -1 -1</clus>
<clus scale="   29.716">  2  5  1 -1</clus>
</clustering>
</event>
<event>
 9    1  0.1610296E-005  0.9905155E+02  0.7546771E-02  0.1283112E+00
          3   -1    0    0  502    0 -0.00000000000E+00  0.00000000000E+00  0.57308708310E+02  0.57308708310E+02  0.00000000000E+00 0. -1.
         21   -1    0    0  501  502  0.00000000000E+00 -0.00000000000E+00 -0.30222152363E+03  0.30222152363E+03  0.00000000000E+00 0.  1.
         23    2    1    2    0    0 -0.18562485319E+02  0.42178540472E+02 -0.41425903299E+02  0.11042862122E+03  0.91404484477E+02 0.  0.
         23    2    1    2    0    0  0.35142683419E+02 -0.76732501047E+01 -0.10163779718E+03  0.14029554367E+03  0.89770322456E+02 0.  0.
        -11    1    3    3    0    0 -0.82892655255E+01  0.70355342383E+02 -0.37578003428E+02  0.80191598478E+02  0.00000000000E+00 0. -1.
         11    1    3    3    0    0 -0.10273219793E+02 -0.28176801911E+02 -0.38478998710E+01  0.30237022741E+02  0.00000000000E+00 0.  1.
        -13    1    4    4    0    0  0.30191268180E+02 -0.31384752977E+02 -0.10696792286E+03  0.11549308167E+03  0.00000000000E+00 0.  1.
         13    1    4    4    0    0  0.49514152391E+01  0.23711502872E+02  0.53301256821E+01  0.24802461997E+02  0.00000000000E+00 0. -1.
          3    1    1    2  501    0 -0.16580198100E+02 -0.34505290367E+02 -0.10184911484E+03  0.10880606705E+03  0.00000000000E+00 0. -1.
<scales pt_clust_5="13000.00000" pt_clust_6="13000.00000" pt_clust_7="13000.00000" pt_clust_8="13000.00000" pt_clust_9="38.28209"></scales>
<clustering>
<clus scale="   38.282">  2  9  1 -1</clus>
<clus scale="   89.770">  7  8 -1 -1</clus>
<clus scale="   91.404">  5  6 -1 -1</clus>
<clus scale="   97.546">  2  7  1 -1</clus>
<clus scale="   38.282">  2  5  1 -1</clus>
</clustering>
</event>
<event>
 9    1  0.1610296E-005  0.1174857E+03  0.7546771E-02  0.1247924E+00
         21   -1    0    0  501  502  0.00000000000E+00  0.00000000000E+00  0.12662950523E+03  0.12662950523E+03  0.00000000000E+00 0.  1.
          4   -1    0    0  502    0 -0.00000000000E+00 -0.00000000000E+00 -0.21661485552E+03  0.21661485552E+03  0.00000000000E+00 0. -1.
         23    2    1    2    0    0 -0.59599500360E+02  0.25859867404E+01 -0.64957374929E+02  0.12533752663E+03  0.89057550232E+02 0.  0.
         23    2    1    2    0    0  0.11455917921E+03  0.11013731896E+02  0.16621410853E+02  0.14762034880E+03  0.90941674987E+02 0.  0.
        -11    1    3    3    0    0  0.64898322172E+01 -0.27944045601E+02 -0.38206631360E+02  0.47777968632E+02  0.00000000000E+00 0. -1.
         11    1    3    3    0    0 -0.66089332577E+02  0.30530032341E+02 -0.26750743569E+02  0.77559557997E+02  0.00000000000E+00 0.  1.
        -11    1    4    4    0    0  0.28094472258E+02  0.97938664443E+01  0.47288872894E+02  0.55869998129E+02  0.00000000000E+00 0.  1.
         11    1    4    4    0    0  0.86464706956E+02  0.12198654517E+01 -0.30667462041E+02  0.91750350673E+02  0.00000000000E+00 0. -1.
          4    1    1    2  501    0 -0.54959678854E+02 -0.13599718636E+02 -0.41649386210E+02  0.70286485318E+02  0.00000000000E+00 0. -1.
<scales pt_clust_5="13000.00000" pt_clust_6="13000.00000" pt_clust_7="13000.00000" pt_clust_8="13000.00000" pt_clust_9="56.61733"></scales>
<clustering>
<clus scale="   56.617">  1  9  2 -1</clus>
<clus scale="   89.058">  5  6 -1 -1</clus>
<clus scale="   90.942">  7  8 -1 -1</clus>
<clus scale="  116.033">  2  5  1 -1</clus>
<clus scale="   56.617">  1  5  2 -1</clus>
</clustering>
</event>
<event>
 9    1  0.1610296E-005  0.1078154E+03  0.7546771E-02  0.1265318E+00
          1   -1    0    0  502    0 -0.00000000000E+00  0.00000000000E+00  0.46073114331E+03  0.46073114331E+03  0.00000000000E+00 0. -1.
         21   -1    0    0  501  502  0.00000000000E+00 -0.00000000000E+00 -0.12524649447E+03  0.12524649447E+03  0.00000000000E+00 0.  1.
         23    2    1    2    0    0  0.63151162955E+01  0.52331897573E+02  0.36695298403E+03  0.38190764206E+03  0.91762990258E+02 0.  0.
         23    2    1    2    0    0 -0.15194627393E+01 -0.79285455192E+02  0.40775241160E+02  0.12681310680E+03  0.90169016809E+02 0.  0.
        -11    1    3    3    0    0 -0.37984910197E+02  0.14945570573E+01  0.14818653026E+03  0.15298475366E+03  0.00000000000E+00 0.  1.
         11    1    3    3    0    0  0.44300026492E+02  0.50837340516E+02  0.21876645377E+03  0.22892288840E+03  0.00000000000E+00 0. -1.
        -13    1    4    4    0    0  0.35287876406E+02 -0.57268335077E+02  0.48896668374E+02  0.83161172442E+02  0.00000000000E+00 0.  1.
         13    1    4    4    0    0 -0.36807339146E+02 -0.22017120115E+02 -0.81214272136E+01  0.43651934357E+02  0.00000000000E+00 0. -1.
          1    1    1    2  501    0 -0.47956535562E+01  0.26953557619E+02 -0.72243576349E+02  0.77256888917E+02  0.00000000000E+00 0. -1.
<scales pt_clust_5="13000.00000" pt_clust_6="13000.00000" pt_clust_7="13000.00000" pt_clust_8="13000.00000" pt_clust_9="27.37686"></scales>
<clustering>
<clus scale="   27.377">  2  9  1 -1</clus>
<clus scale="   90.169">  7  8 -1 -1</clus>
<clus scale="   91.763">  5  6 -1 -1</clus>
<clus scale="  106.462">  2  7  1 -1</clus>
<clus scale="   27.377">  2  5  1 -1</clus>
</clustering>
</event>
<event>
 9    1  0.1610296E-005  0.9273462E+02  0.7546771E-02  0.1312198E+00
         21   -1    0    0  501  502  0.00000000000E+00  0.00000000000E+00  0.78845972214E+03  0.78845972214E+03  0.00000000000E+00 0.  1.
          3   -1    0    0  502    0 -0.00000000000E+00 -0.00000000000E+00 -0.12273466130E+02  0.12273466130E+02  0.00000000000E+00 0. -1.
         23    2    1    2    0    0 -0.12501181644E+02 -0.10984970909E+02  0.23877165710E+03  0.24874921980E+03  0.67729764423E+02 0.  0.
         23    2    1    2    0    0  0.19734928733E+02 -0.16033552351E+02  0.45923895705E+03  0.46895530669E+03  0.91499277546E+02 0.  0.
        -11    1    3    3    0    0  0.24326810485E+02  0.71066897068E+01  0.56619109440E+02  0.62032429428E+02  0.00000000000E+00 0.  1.
         11    1    3    3    0    0 -0.36827992129E+02 -0.18091660616E+02  0.18215254766E+03  0.18671679037E+03  0.00000000000E+00 0. -1.
        -13    1    4    4    0    0 -0.51869107022E+01 -0.50548162285E+02  0.29166527033E+03  0.29605852575E+03  0.00000000000E+00 0. -1.
         13    1    4    4    0    0  0.24921839435E+02  0.34514609934E+02  0.16757368672E+03  0.17289678094E+03  0.00000000000E+00 0.  1.
          3    1    1    2  501    0 -0.72337470885E+01  0.27018523260E+02  0.78175641870E+02  0.83028661785E+02  0.00000000000E+00 0. -1.
<scales pt_clust_5="13000.00000" pt_clust_6="13000.00000" pt_clust_7="13000.00000" pt_clust_8="13000.00000" pt_clust_9="27.97014"></scales>
<clustering>
<clus scale="   27.970">  1  9  2 -1</clus>
<clus scale="   67.730">  5  6 -1 -1</clus>
<clus scale="   69.390">  2  5  1 -1</clus>
<clus scale="   91.499">  7  8 -1 -1</clus>
<clus scale="   27.970">  1  5  2 -1</clus>
</clustering>
</event>
<event>
 9    1  0.1610296E-005  0.9805294E+02  0.7546771E-02  0.1285612E+00
         21   -1    0    0  501  502  0.00000000000E+00  0.00000000000E+00  0.19512057323E+02  0.19512057323E+02  0.00000000000E+00 0. -1.
          3   -1    0    0  502    0 -0.00000000000E+00 -0.00000000000E+00 -0.77768044910E+03  0.77768044910E+03  0.00000000000E+00 0. -1.
         23    2    1    2    0    0  0.14998729302E+02 -0.15936683471E+02 -0.40538726598E+03  0.41578885146E+03  0.89791947397E+02 0.  0.
         23    2    1    2    0    0 -0.32733366935E+02  0.43548153269E+02 -0.30676679286E+03  0.32488614023E+03  0.92071841227E+02 0.  0.
        -13    1    4    4    0    0 -0.42713859798E+00  0.67037429762E+02 -0.19255372987E+03  0.20389001526E+03  0.00000000000E+00 0. -1.
         13    1    4    4    0    0 -0.32306228337E+02 -0.23489276493E+02 -0.11421306299E+03  0.12099612496E+03  0.00000000000E+00 0.  1.
        -13    1    3    3    0    0 -0.32001516630E+02 -0.28726360225E+02 -0.21590283830E+03  0.22014389936E+03  0.00000000000E+00 0. -1.
         13    1    3    3    0    0  0.47000245932E+02  0.12789676753E+02 -0.18948442768E+03  0.19564495210E+03  0.00000000000E+00 0.  1.
          3    1    1    2  501    0  0.17734637633E+02 -0.27611469798E+02 -0.46014332938E+02  0.56517514738E+02  0.00000000000E+00 0. -1.
<scales pt_clust_5="13000.00000" pt_clust_6="13000.00000" pt_clust_7="13000.00000" pt_clust_8="13000.00000" pt_clust_9="32.81632"></scales>
<clustering>
<clus scale="   32.816">  1  9  2 -1</clus>
<clus scale="   89.792">  7  8 -1 -1</clus>
<clus scale="   92.072">  5  6 -1 -1</clus>
<clus scale="   95.915">  2  7  1 -1</clus>
<clus scale="   32.816">  1  5  2 -1</clus>
</clustering>
</event>
<event>
 9    1  0.1610296E-005  0.8981810E+02  0.7546771E-02  0.1305287E+00
          3   -1    0    0  502    0 -0.00000000000E+00  0.00000000000E+00  0.13398941896E+03  0.13398941896E+03  0.00000000000E+00 0. -1.
         21   -1    0    0  501  502  0.00000000000E+00 -0.00000000000E+00 -0.18435491194E+03  0.18435491194E+03  0.00000000000E+00 0.  1.
         23    2    1    2    0    0  0.18878991258E+02 -0.93728200541E+01  0.49494136794E+02  0.10174327578E+03  0.86358314730E+02 0.  0.
         23    2    1    2    0    0  0.11502276884E+02 -0.10923686252E+02  0.18402066887E+02  0.92823841871E+02  0.89587947064E+02 0.  0.
        -11    1    4    4    0    0  0.33173257349E+02 -0.22350862455E+02  0.42567111572E+02  0.58412199438E+02  0.00000000000E+00 0. -1.
         11    1    4    4    0    0 -0.21670980465E+02  0.11427176203E+02 -0.24165044685E+02  0.34411642432E+02  0.00000000000E+00 0.  1.
        -13    1    3    3    0    0  0.25866601275E+02  0.11528932179E+02  0.67554076895E+02  0.73249919071E+02  0.00000000000E+00 0.  1.
         13    1    3    3    0    0 -0.69876100170E+01 -0.20901752233E+02 -0.18059940101E+02  0.28493356711E+02  0.00000000000E+00 0. -1.
          3    1    1    2  501    0 -0.30381268143E+02  0.20296506306E+02 -0.11826169666E+03  0.12377721324E+03  0.00000000000E+00 0. -1.
<scales pt_clust_5="13000.00000" pt_clust_6="13000.00000" pt_clust_7="13000.00000" pt_clust_8="13000.00000" pt_clust_9="36.53724"></scales>
<clustering>
<clus scale="   36.537">  2  9  1 -1</clus>
<clus scale="   86.358">  7  8 -1 -1</clus>
<clus scale="   86.597">  1  7  2 -1</clus>
<clus scale="   89.588">  5  6 -1 -1</clus>
<clus scale="   36.537">  2  5  1 -1</clus>
</clustering>
</event>
<event>
 9    1  0.1610296E-005  0.9868373E+02  0.7546771E-02  0.1286754E+00
         -1   -1    0    0    0  501 -0.00000000000E+00  0.00000000000E+00  0.33348389758E+03  0.33348389758E+03  0.00000000000E+00 0.  1.
         21   -1    0    0  501  502  0.00000000000E+00 -0.00000000000E+00 -0.38388007354E+02  0.38388007354E+02  0.00000000000E+00 0. -1.
         23    2    1    2    0    0 -0.29778050483E+02  0.95873553145E+01  0.16615995153E+03  0.19473379041E+03  0.96609885422E+02 0.  0.
         23    2    1    2    0    0  0.14056129376E+00 -0.14384934827E+02  0.10321372949E+03  0.13760294561E+03  0.89858503095E+02 0.  0.
        -11    1    4    4    0    0  0.41816029336E+02  0.56110502699E+00  0.28007432175E+02  0.50332011735E+02  0.00000000000E+00 0.  1.
         11    1    4    4    0    0 -0.41675468043E+02 -0.14946039854E+02  0.75206297315E+02  0.87270933877E+02  0.00000000000E+00 0. -1.
        -13    1    3    3    0    0 -0.11877601417E+02 -0.34756835000E+02  0.12912914293E+03  0.13425144524E+03  0.00000000000E+00 0.  1.
         13    1    3    3    0    0 -0.17900449067E+02  0.44344190315E+02  0.37030808597E+02  0.60482345166E+02  0.00000000000E+00 0. -1.
         -1    1    1    2    0  502  0.29637489189E+02  0.47975795127E+01  0.25722209204E+02  0.39535168913E+02  0.00000000000E+00 0.  1.
<scales pt_clust_5="13000.00000" pt_clust_6="13000.00000" pt_clust_7="13000.00000" pt_clust_8="13000.00000" pt_clust_9="30.02328"></scales>
<clustering>
<clus scale="   30.023">  2  9  1 -1</clus>
<clus scale="   89.859">  5  6 -1 -1</clus>
<clus scale="   92.085">  2  5  1 -1</clus>
<clus scale="   96.610">  7  8 -1 -1</clus>
<clus scale="   30.023">  2  5  1 -1</clus>
</clustering>
</event>
<event>
 9    1  0.1610296E-005  0.9901076E+02  0.7546771E-02  0.1283898E+00
         21   -1    0    0  501  502  0.00000000000E+00  0.00000000000E+00  0.46830279881E+02  0.46830279881E+02  0.00000000000E+00 0.  1.
          2   -1    0    0  502    0 -0.00000000000E+00 -0.00000000000E+00 -0.40063005913E+03  0.40063005913E+03  0.00000000000E+00 0. -1.
         23    2    1    2    0    0  0.49789300181E+02 -0.10812509499E+02 -0.19734954472E+03  0.22472997030E+03  0.94661671101E+02 0.  0.
         23    2    1    2    0    0  0.51594349775E+01 -0.18899695880E+02 -0.75129606932E+02  0.12018660675E+03  0.91741726227E+02 0.  0.
        -11    1    4    4    0    0  0.20664269791E+02 -0.44715036238E+02 -0.12694103450E+02  0.50868327810E+02  0.00000000000E+00 0.  1.
         11    1    4    4    0    0 -0.15504834814E+02  0.25815340357E+02 -0.62435503482E+02  0.69318278942E+02  0.00000000000E+00 0. -1.
        -11    1    3    3    0    0  0.57741260738E+02 -0.44130958070E+02 -0.14457637240E+03  0.16181446817E+03  0.00000000000E+00 0.  1.
         11    1    3    3    0    0 -0.79519605572E+01  0.33318448571E+02 -0.52773172317E+02  0.62915502131E+02  0.00000000000E+00 0. -1.
          2    1    1    2  501    0 -0.54948735159E+02  0.29712205379E+02 -0.81320627600E+02  0.10254376196E+03  0.00000000000E+00 0. -1.
<scales pt_clust_5="13000.00000" pt_clust_6="13000.00000" pt_clust_7="13000.00000" pt_clust_8="13000.00000" pt_clust_9="62.46745"></scales>
<clustering>
<clus scale="   62.467">  1  9  2 -1</clus>
<clus scale="   91.742">  5  6 -1 -1</clus>
<clus scale="   94.662">  7  8 -1 -1</clus>
<clus scale="   96.223">  1  5  2 -1</clus>
<clus scale="   62.467">  1  5  2 -1</clus>
</clustering>
</event>
<event>
 9    1  0.1610296E-005  0.1003942E+03  0.7546771E-02  0.1280140E+00
         21   -1    0    0  501  502  0.00000000000E+00  0.00000000000E+00  0.39989877725E+03  0.39989877725E+03  0.00000000000E+00 0.  1.
         -2   -1    0    0    0  501 -0.00000000000E+00 -0.00000000000E+00 -0.63827878102E+02  0.63827878102E+02  0.00000000000E+00 0.  1.
         23    2    1    2    0    0  0.26959322535E+02 -0.18438252690E+00  0.32268112524E+02  0.10514926565E+03  0.96375816009E+02 0.  0.
         23    2    1    2    0    0 -0.15595484734E+02  0.43431436670E+02  0.86006449432E+02  0.13623825911E+03  0.95048645783E+02 0.  0.
        -11    1    4    4    0    0 -0.53450700637E+02  0.18576631462E+02  0.65406689494E+02  0.86487592553E+02  0.00000000000E+00 0. -1.
         11    1    4    4    0    0  0.37855215903E+02  0.24854805208E+02  0.20599759938E+02  0.49750666554E+02  0.00000000000E+00 0.  1.
        -13    1    3    3    0    0 -0.25084883155E+02 -0.13035672720E+02  0.42037464259E+02  0.50658943213E+02  0.00000000000E+00 0. -1.
         13    1    3    3    0    0  0.52044205690E+02  0.12851290193E+02 -0.97693517346E+01  0.54490322433E+02  0.00000000000E+00 0.  1.
         -2    1    1    2    0  502 -0.11363837801E+02 -0.43247054143E+02  0.21779633719E+03  0.22233913060E+03  0.00000000000E+00 0.  1.
<scales pt_clust_5="13000.00000" pt_clust_6="13000.00000" pt_clust_7="13000.00000" pt_clust_8="13000.00000" pt_clust_9="44.71515"></scales>
<clustering>
<clus scale="   44.715">  1  9  2 -1</clus>
<clus scale="   95.049">  5  6 -1 -1</clus>
<clus scale="   96.376">  7  8 -1 -1</clus>
<clus scale="   99.121">  1  5  2 -1</clus>
<clus scale="   44.715">  1  5  2 -1</clus>
</clustering>
</event>
<event>
 9    1  0.1610296E-005  0.1097995E+03  0.7546771E-02  0.1262515E+00
          2   -1    0    0  502    0 -0.00000000000E+00  0.00000000000E+00  0.38905910056E+03  0.38905910056E+03  0.00000000000E+00 0. -1.
         21   -1    0    0  501  502  0.00000000000E+00 -0.00000000000E+00 -0.43472442731E+02  0.43472442731E+02  0.00000000000E+00 0.  1.
         23    2    1    2    0    0 -0.45845451221E+02  0.40721700141E+02  0.25182001016E+03  0.27572948407E+03  0.94092340859E+02 0.  0.
         23    2    1    2    0    0  0.22837370322E+02 -0.42570802250E+02  0.72228234102E+02  0.12523159479E+03  0.90178799312E+02 0.  0.
        -11    1    4    4    0    0  0.24001960253E+02  0.20903705213E+02  0.40712332367E+01  0.32087909369E+02  0.00000000000E+00 0.  1.
         11    1    4    4    0    0 -0.11645899304E+01 -0.63474507463E+02  0.68157000866E+02  0.93143685424E+02  0.00000000000E+00 0. -1.
        -11    1    3    3    0    0 -0.52657248975E+02  0.63926095808E+02  0.15283277017E+03  0.17383091564E+03  0.00000000000E+00 0.  1.
         11    1    3    3    0    0  0.68117977538E+01 -0.23204395667E+02  0.98987239994E+02  0.10189856843E+03  0.00000000000E+00 0. -1.
          2    1    1    2  501    0  0.23008080899E+02  0.18491021093E+01  0.21538413566E+02  0.31570464428E+02  0.00000000000E+00 0. -1.
<scales pt_clust_5="13000.00000" pt_clust_6="13000.00000" pt_clust_7="13000.00000" pt_clust_8="13000.00000" pt_clust_9="23.08227"></scales>
<clustering>
<clus scale="   23.082">  2  9  1 -1</clus>
<clus scale="   90.179">  5  6 -1 -1</clus>
<clus scale="   94.092">  7  8 -1 -1</clus>
<clus scale="  106.465">  2  5  1 -1</clus>
<clus scale="   23.082">  2  5  1 -1</clus>
</clustering>
</event>
<event>
 9    1  0.1610296E-005  0.2521114E+03  0.7546771E-02  0.1129127E+00
          2   -1    0    0  502    0 -0.00000000000E+00  0.00000000000E+00  0.85762545868E+03  0.85762545868E+03  0.00000000000E+00 0. -1.
         21   -1    0    0  501  502  0.00000000000E+00 -0.00000000000E+00 -0.22187013299E+03  0.22187013299E+03  0.00000000000E+00 0. -1.
         23    2    1    2    0    0 -0.13074913177E+03  0.15495405759E+02  0.53449609303E+03  0.55916356994E+03  0.98195628321E+02 0.  0.
         23    2    1    2    0    0 -0.14402258112E+03  0.74354711595E+02  0.13567067713E+03  0.22920200730E+03  0.88633517965E+02 0.  0.
        -11    1    3    3    0    0 -0.10313581585E+03  0.49287466198E+02  0.30857949457E+03  0.32907074514E+03  0.00000000000E+00 0. -1.
         11    1    3    3    0    0 -0.27613315920E+02 -0.33792060438E+02  0.22591659846E+03  0.23009282480E+03  0.00000000000E+00 0.  1.
        -13    1    4    4    0    0 -0.31917636102E+01  0.21923531125E+02  0.53552765894E+02  0.57954527923E+02  0.00000000000E+00 0.  1.
         13    1    4    4    0    0 -0.14083081751E+03  0.52431180470E+02  0.82117911237E+02  0.17124747937E+03  0.00000000000E+00 0. -1.
          2    1    1    2  501    0  0.27477171289E+03 -0.89850117355E+02 -0.34411444470E+02  0.29113001443E+03  0.00000000000E+00 0. -1.
<scales pt_clust_5="13000.00000" pt_clust_6="13000.00000" pt_clust_7="13000.00000" pt_clust_8="13000.00000" pt_clust_9="236.01753"></scales>
<clustering>
<clus scale="   88.634">  7  8 -1 -1</clus>
<clus scale="   98.196">  5  6 -1 -1</clus>
<clus scale="  164.249">  1  5  2 -1</clus>
<clus scale="  236.018">  2  9  1 -1</clus>
<clus scale="  236.018">  2  5  1 -1</clus>
</clustering>
</event>
<event>
 9    1  0.1610296E-005  0.1462491E+03  0.7546771E-02  0.1205875E+00
          4   -1    0    0  502    0 -0.00000000000E+00  0.00000000000E+00  0.41716357851E+03  0.41716357851E+03  0.00000000000E+00 0. -1.
         21   -1    0    0  501  502  0.00000000000E+00 -0.00000000000E+00 -0.17664661919E+03  0.17664661919E+03  0.00000000000E+00 0.  1.
         23    2    1    2    0    0 -0.11117436019E+03  0.27618210675E+02  0.34906177866E+03  0.37903350644E+03  0.93272556298E+02 0.  0.
         23    2    1    2    0    0  0.92641300832E+02 -0.11742558008E+02 -0.12910626930E+03  0.18286613091E+03  0.89729007411E+02 0.  0.
        -13    1    3    3    0    0  0.11882663420E+02  0.20820463015E+02  0.46036266299E+02  0.51904018966E+02  0.00000000000E+00 0.  1.
         13    1    3    3    0    0 -0.12305702361E+03  0.67977476604E+01  0.30302551236E+03  0.32712948747E+03  0.00000000000E+00 0. -1.
        -13    1    4    4    0    0  0.21374799105E+01 -0.26449660138E+02 -0.67156160960E+02  0.72208748061E+02  0.00000000000E+00 0.  1.
         13    1    4    4    0    0  0.90503820922E+02  0.14707102129E+02 -0.61950108345E+02  0.11065738285E+03  0.00000000000E+00 0. -1.
          4    1    1    2  501    0  0.18533059362E+02 -0.15875652667E+02  0.20561449973E+02  0.31910560351E+02  0.00000000000E+00 0. -1.
<scales pt_clust_5="13000.00000" pt_clust_6="13000.00000" pt_clust_7="13000.00000" pt_clust_8="13000.00000" pt_clust_9="24.40310"></scales>
<clustering>
<clus scale="   24.403">  2  9  1 -1</clus>
<clus scale="   89.729">  7  8 -1 -1</clus>
<clus scale="   93.273">  5  6 -1 -1</clus>
<clus scale="  144.015">  2  7  1 -1</clus>
<clus scale="   24.403">  2  5  1 -1</clus>
</clustering>
</event>
<event>
 9    1  0.1610296E-005  0.1310755E+03  0.7546771E-02  0.1242391E+00
          2   -1    0    0  502    0 -0.00000000000E+00  0.00000000000E+00  0.19347173066E+03  0.19347173066E+03  0.00000000000E+00 0. -1.
         21   -1    0    0  501  502  0.00000000000E+00 -0.00000000000E+00 -0.38715347580E+03  0.38715347580E+03  0.00000000000E+00 0. -1.
         23    2    1    2    0    0  0.76155869505E+01  0.74170796082E+01 -0.39914783435E+02  0.10157446517E+03  0.92796399731E+02 0.  0.
         23    2    1    2    0    0  0.13282853351E+02  0.85016630080E+02  0.12962050541E+03  0.18023776967E+03  0.90994047116E+02 0.  0.
        -11    1    4    4    0    0 -0.24364689207E+02  0.58787489634E+02  0.29576994665E+02  0.70174109407E+02  0.00000000000E+00 0.  1.
         11    1    4    4    0    0  0.37647542558E+02  0.26229140446E+02  0.10004351074E+03  0.11006366026E+03  0.00000000000E+00 0. -1.
        -13    1    3    3    0    0 -0.20349455339E+02 -0.26839209274E+02  0.97608020786E+01  0.35067317324E+02  0.00000000000E+00 0.  1.
         13    1    3    3    0    0  0.27965042290E+02  0.34256288882E+02 -0.49675585514E+02  0.66507147844E+02  0.00000000000E+00 0. -1.
          2    1    1    2  501    0 -0.20898440301E+02 -0.92433709688E+02 -0.28338746711E+03  0.29881297162E+03  0.00000000000E+00 0. -1.
<scales pt_clust_5="13000.00000" pt_clust_6="13000.00000" pt_clust_7="13000.00000" pt_clust_8="13000.00000" pt_clust_9="94.34443"></scales>
<clustering>
<clus scale="   90.994">  5  6 -1 -1</clus>
<clus scale="   92.796">  7  8 -1 -1</clus>
<clus scale="   93.403">  1  7  2 -1</clus>
<clus scale="   94.344">  2  9  1 -1</clus>
<clus scale="   94.344">  2  5  1 -1</clus>
</clustering>
</event>
<event>
 9    1  0.1610296E-005  0.1055750E+03  0.7546771E-02  0.1270341E+00
         -1   -1    0    0    0  501 -0.00000000000E+00  0.00000000000E+00  0.21884231248E+03  0.21884231248E+03  0.00000000000E+00 0.  1.
         21   -1    0    0  501  502  0.00000000000E+00 -0.00000000000E+00 -0.14068782766E+03  0.14068782766E+03  0.00000000000E+00 0.  1.
         23    2    1    2    0    0 -0.36826878511E+02 -0.10839097392E+02  0.97284811389E+02  0.13814218372E+03  0.90250891314E+02 0.  0.
         23    2    1    2    0    0  0.87973534551E+02  0.11199849473E+02  0.51218896502E+02  0.13441023656E+03  0.87051461354E+02 0.  0.
        -13    1    4    4    0    0  0.23759965824E+02 -0.31084477657E+02 -0.46064270864E+01  0.39395429908E+02  0.00000000000E+00 0. -1.
         13    1    4    4    0    0  0.64213568727E+02  0.42284327130E+02  0.55825323589E+02  0.95014806653E+02  0.00000000000E+00 0.  1.
        -13    1    3    3    0    0 -0.45667575990E+02  0.30972041584E+02  0.58727026905E+02  0.80583239857E+02  0.00000000000E+00 0.  1.
         13    1    3    3    0    0  0.88406974790E+01 -0.41811138976E+02  0.38557784484E+02  0.57558943864E+02  0.00000000000E+00 0. -1.
         -1    1    1    2    0  502 -0.51146656040E+02 -0.36075208169E+00 -0.70349223068E+02  0.86977719862E+02  0.00000000000E+00 0.  1.
<scales pt_clust_5="13000.00000" pt_clust_6="13000.00000" pt_clust_7="13000.00000" pt_clust_8="13000.00000" pt_clust_9="51.14793"></scales>
<clustering>
<clus scale="   51.148">  2  9  1 -1</clus>
<clus scale="   87.051">  5  6 -1 -1</clus>
<clus scale="   90.251">  7  8 -1 -1</clus>
<clus scale="  102.853">  2  5  1 -1</clus>
<clus scale="   51.148">  2  5  1 -1</clus>
</clustering>
</event>
<event>
 9    1  0.1610296E-005  0.1036603E+03  0.7546771E-02  0.1272995E+00
         21   -1    0    0  501  502  0.00000000000E+00  0.00000000000E+00  0.17366785373E+03  0.17366785373E+03  0.00000000000E+00 0. -1.
          1   -1    0    0  502    0 -0.00000000000E+00 -0.00000000000E+00 -0.82303199774E+02  0.82303199774E+02  0.00000000000E+00 0. -1.
         23    2    1    2    0    0 -0.15502184707E+01  0.35611948351E+02  0.23184505163E+02  0.10175644067E+03  0.92445864675E+02 0.  0.
         23    2    1    2    0    0  0.74935503008E+01 -0.58397597885E+02  0.38985809481E+02  0.11670703406E+03  0.92920426830E+02 0.  0.
        -11    1    4    4    0    0  0.16027482211E+02 -0.13955443565E+02 -0.28439661956E+02  0.35502802189E+02  0.00000000000E+00 0. -1.
         11    1    4    4    0    0 -0.85339319104E+01 -0.44442154320E+02  0.67425471437E+02  0.81204231866E+02  0.00000000000E+00 0.  1.
        -11    1    3    3    0    0  0.39456124539E+02  0.38092675538E+02  0.53768596000E+00  0.54846392766E+02  0.00000000000E+00 0.  1.
         11    1    3    3    0    0 -0.41006343009E+02 -0.24807271868E+01  0.22646819203E+02  0.46910047904E+02  0.00000000000E+00 0. -1.
          1    1    1    2  501    0 -0.59433318301E+01  0.22785649534E+02  0.29194339313E+02  0.37507578779E+02  0.00000000000E+00 0. -1.
<scales pt_clust_5="13000.00000" pt_clust_6="13000.00000" pt_clust_7="13000.00000" pt_clust_8="13000.00000" pt_clust_9="23.54802"></scales>
<clustering>
<clus scale="   23.548">  1  9  2 -1</clus>
<clus scale="   92.446">  7  8 -1 -1</clus>
<clus scale="   92.920">  5  6 -1 -1</clus>
<clus scale="  103.235">  2  7  1 -1</clus>
<clus scale="   23.548">  1  5  2 -1</clus>
</clustering>
</event>
<event>
 9    1  0.1610296E-005  0.1231282E+03  0.7546771E-02  0.1242268E+00
          2   -1    0    0  502    0 -0.00000000000E+00  0.00000000000E+00  0.43338880306E+03  0.43338880306E+03  0.00000000000E+00 0. -1.
         21   -1    0    0  501  502  0.00000000000E+00 -0.00000000000E+00 -0.89000769355E+02  0.89000769355E+02  0.00000000000E+00 0. -1.
         23    2    1    2    0    0  0.68884237767E+02 -0.60556356179E+01  0.20706512851E+03  0.23587409235E+03  0.89324750547E+02 0.  0.
         23    2    1    2    0    0  0.33028336798E+02 -0.59809401617E+02  0.16756907247E+02  0.11545836725E+03  0.91552198630E+02 0.  0.
        -11    1    3    3    0    0  0.33380882803E+02 -0.39913775314E+02  0.15858012277E+03  0.16689831675E+03  0.00000000000E+00 0. -1.
         11    1    3    3    0    0  0.35503354964E+02  0.33858139696E+02  0.48485005735E+02  0.68975775592E+02  0.00000000000E+00 0.  1.
        -11    1    4    4    0    0  0.55040772827E+02 -0.70301853125E+02  0.83934689302E+01  0.89678802104E+02  0.00000000000E+00 0. -1.
         11    1    4    4    0    0 -0.22012436029E+02  0.10492451508E+02  0.83634383170E+01  0.25779565145E+02  0.00000000000E+00 0.  1.
          2    1    1    2  501    0 -0.10191257457E+03  0.65865037235E+02  0.12056599795E+03  0.17105711282E+03  0.00000000000E+00 0. -1.
<scales pt_clust_5="13000.00000" pt_clust_6="13000.00000" pt_clust_7="13000.00000" pt_clust_8="13000.00000" pt_clust_9="82.33325"></scales>
<clustering>
<clus scale="   89.325">  5  6 -1 -1</clus>
<clus scale="   91.552">  7  8 -1 -1</clus>
<clus scale="  112.963">  1  5  2 -1</clus>
<clus scale="   82.333">  2  9  1 -1</clus>
<clus scale="   82.333">  2  5  1 -1</clus>
</clustering>
</event>
<event>
 9    1  0.1610296E-005  0.1100622E+03  0.7546771E-02  0.1260638E+00
         21   -1    0    0  501  502  0.00000000000E+00  0.00000000000E+00  0.27398837687E+03  0.27398837687E+03  0.00000000000E+00 0. -1.
         -1   -1    0    0    0  501 -0.00000000000E+00 -0.00000000000E+00 -0.59712056270E+02  0.59712056270E+02  0.00000000000E+00 0.  1.
         23    2    1    2    0    0  0.54970533700E+02  0.27619300474E+01  0.57617611087E+02  0.12104819618E+03  0.91123481380E+02 0.  0.
         23    2    1    2    0    0 -0.70604023141E+02 -0.19393032499E+02  0.14654096902E+03  0.18768489362E+03  0.91598831311E+02 0.  0.
        -11    1    3    3    0    0 -0.10432054117E+02 -0.30807573757E+02  0.12830147574E+02  0.34964940164E+02  0.00000000000E+00 0.  1.
         11    1    3    3    0    0  0.65402587817E+02  0.33569503804E+02  0.44787463513E+02  0.86083256018E+02  0.00000000000E+00 0. -1.
        -13    1    4    4    0    0  0.21400739971E+00  0.30549664384E+02  0.40836445057E+02  0.50999441547E+02  0.00000000000E+00 0. -1.
         13    1    4    4    0    0 -0.70818030541E+02 -0.49942696883E+02  0.10570452396E+03  0.13668545207E+03  0.00000000000E+00 0.  1.
         -1    1    1    2    0  502  0.15633489442E+02  0.16631102452E+02  0.10117740498E+02  0.24967343344E+02  0.00000000000E+00 0.  1.
<scales pt_clust_5="13000.00000" pt_clust_6="13000.00000" pt_clust_7="13000.00000" pt_clust_8="13000.00000" pt_clust_9="22.82543"></scales>
<clustering>
<clus scale="   22.825">  1  9  2 -1</clus>
<clus scale="   91.123">  5  6 -1 -1</clus>
<clus scale="   91.599">  7  8 -1 -1</clus>
<clus scale="  109.667">  2  5  1 -1</clus>
<clus scale="   22.825">  1  5  2 -1</clus>
</clustering>
</event>
<event>
 9    1  0.1610296E-005  0.1339172E+03  0.7546771E-02  0.1221953E+00
         21   -1    0    0  501  502  0.00000000000E+00  0.00000000000E+00  0.25420326263E+03  0.25420326263E+03  0.00000000000E+00 0.  1.
          1   -1    0    0  502    0 -0.00000000000E+00 -0.00000000000E+00 -0.35824166054E+03  0.35824166054E+03  0.00000000000E+00 0. -1.
         23    2    1    2    0    0 -0.84002349497E+02  0.25881862427E+02 -0.24149322134E+03  0.27251307385E+03  0.90653924017E+02 0.  0.
         23    2    1    2    0    0  0.14860224707E+03 -0.28900761750E+02 -0.11805577034E+02  0.17726369735E+03  0.91461275324E+02 0.  0.
        -13    1    3    3    0    0 -0.93581520215E+02  0.43050918500E+01 -0.22497563351E+03  0.24370078050E+03  0.00000000000E+00 0. -1.
         13    1    3    3    0    0  0.95791707187E+01  0.21576770577E+02 -0.16517587828E+02  0.28812293346E+02  0.00000000000E+00 0.  1.
        -13    1    4    4    0    0  0.60423476549E+02 -0.14960829657E+01 -0.48906311502E+02  0.77749997346E+02  0.00000000000E+00 0. -1.
         13    1    4    4    0    0  0.88178770523E+02 -0.27404678785E+02  0.37100734468E+02  0.99513700003E+02  0.00000000000E+00 0.  1.
          1    1    1    2  501    0 -0.64599897576E+02  0.30188993230E+01  0.14926040047E+03  0.16266815198E+03  0.00000000000E+00 0. -1.
<scales pt_clust_5="13000.00000" pt_clust_6="13000.00000" pt_clust_7="13000.00000" pt_clust_8="13000.00000" pt_clust_9="64.67040"></scales>
<clustering>
<clus scale="   64.670">  1  9  2 -1</clus>
<clus scale="   90.654">  5  6 -1 -1</clus>
<clus scale="   91.461">  7  8 -1 -1</clus>
<clus scale="  133.367">  2  5  1 -1</clus>
<clus scale="   64.670">  1  5  2 -1</clus>
</clustering>
</event>
<event>
 9    1  0.1610296E-005  0.1076769E+03  0.7546771E-02  0.1269329E+00
         21   -1    0    0  501  502  0.00000000000E+00  0.00000000000E+00  0.56850133334E+02  0.56850133334E+02  0.00000000000E+00 0. -1.
         -3   -1    0    0    0  501 -0.00000000000E+00 -0.00000000000E+00 -0.33568129351E+03  0.33568129351E+03  0.00000000000E+00 0.  1.
         23    2    1    2    0    0 -0.18324651768E+02 -0.57337518888E+01 -0.15131278562E+03  0.17860484742E+03  0.92927195457E+02 0.  0.
         23    2    1    2    0    0  0.51276287728E+02  0.28772112473E+02 -0.12753672417E+03  0.17371990451E+03  0.10225408095E+03 0.  0.
        -11    1    4    4    0    0  0.79120359208E+02  0.27241939804E+01 -0.94417678104E+02  0.12321586916E+03  0.00000000000E+00 0.  1.
         11    1    4    4    0    0 -0.27844071479E+02  0.26047918492E+02 -0.33119046066E+02  0.50504035350E+02  0.00000000000E+00 0. -1.
        -13    1    3    3    0    0  0.34004577694E+02  0.15154381314E+02 -0.75152061628E+02  0.83867746744E+02  0.00000000000E+00 0.  1.
         13    1    3    3    0    0 -0.52329229461E+02 -0.20888133203E+02 -0.76160723994E+02  0.94737100673E+02  0.00000000000E+00 0. -1.
         -3    1    1    2    0  502 -0.32951635960E+02 -0.23038360584E+02  0.18349620171E-01  0.40206674913E+02  0.00000000000E+00 0.  1.
<scales pt_clust_5="13000.00000" pt_clust_6="13000.00000" pt_clust_7="13000.00000" pt_clust_8="13000.00000" pt_clust_9="40.20667"></scales>
<clustering>
<clus scale="   40.207">  1  9  2 -1</clus>
<clus scale="   92.927">  7  8 -1 -1</clus>
<clus scale="   98.863">  2  7  1 -1</clus>
<clus scale="  102.254">  5  6 -1 -1</clus>
<clus scale="   40.207">  1  5  2 -1</clus>
</clustering>
</event>
<event>
 9    1  0.1610296E-005  0.1524846E+03  0.7546771E-02  0.1197849E+00
         21   -1    0    0  501  502  0.00000000000E+00  0.00000000000E+00  0.29447840350E+03  0.29447840350E+03  0.00000000000E+00 0.  1.
          2   -1    0    0  502    0 -0.00000000000E+00 -0.00000000000E+00 -0.13697407627E+03  0.13697407627E+03  0.00000000000E+00 0. -1.
         23    2    1    2    0    0  0.87569661073E+02  0.15511474105E+02  0.57462094858E+02  0.14165897939E+03  0.94108037520E+02 0.  0.
         23    2    1    2    0    0 -0.15258460426E+03  0.20992628337E+02  0.20159414413E+02  0.18051972981E+03  0.91968575926E+02 0.  0.
        -13    1    4    4    0    0 -0.23598075074E+02 -0.27565965445E+02  0.22461746386E+02  0.42676476528E+02  0.00000000000E+00 0.  1.
         13    1    4    4    0    0 -0.12898652919E+03  0.48558593782E+02 -0.23023319728E+01  0.13784325328E+03  0.00000000000E+00 0. -1.
        -13    1    3    3    0    0  0.81850609244E+02 -0.19360840957E+02  0.64039550068E+02  0.10571389866E+03  0.00000000000E+00 0.  1.
         13    1    3    3    0    0  0.57190518287E+01  0.34872315062E+02 -0.65774552100E+01  0.35945080730E+02  0.00000000000E+00 0. -1.
          2    1    1    2  501    0  0.65014943187E+02 -0.36504102442E+02  0.79882817958E+02  0.10927377058E+03  0.00000000000E+00 0. -1.
<scales pt_clust_5="13000.00000" pt_clust_6="13000.00000" pt_clust_7="13000.00000" pt_clust_8="13000.00000" pt_clust_9="74.56200"></scales>
<clustering>
<clus scale="   74.562">  1  9  2 -1</clus>
<clus scale="   91.969">  5  6 -1 -1</clus>
<clus scale="   94.108">  7  8 -1 -1</clus>
<clus scale="  151.174">  1  5  2 -1</clus>
<clus scale="   74.562">  1  5  2 -1</clus>
</clustering>
</event>
<event>
 9    1  0.1610296E-005  0.9990189E+02  0.7546771E-02  0.1280744E+00
          1   -1    0    0  502    0 -0.00000000000E+00  0.00000000000E+00  0.31134543325E+03  0.31134543325E+03  0.00000000000E+00 0. -1.
         21   -1    0    0  501  502  0.00000000000E+00 -0.00000000000E+00 -0.78139441128E+02  0.78139441128E+02  0.00000000000E+00 0.  1.
         23    2    1    2    0    0 -0.39370230550E+02  0.26181930764E+02  0.23450304647E+03  0.25583196086E+03  0.90679682605E+02 0.  0.
         23    2    1    2    0    0  0.14235917453E+02 -0.21159354071E+02  0.24940504561E+02  0.96973635046E+02  0.90174705522E+02 0.  0.
        -11    1    3    3    0    0 -0.63173308676E+02 -0.42959807431E+01  0.13633469466E+03  0.15032122720E+03  0.00000000000E+00 0. -1.
         11    1    3    3    0    0  0.23803078126E+02  0.30477911507E+02  0.98168351813E+02  0.10551073365E+03  0.00000000000E+00 0.  1.
        -13    1    4    4    0    0  0.49799229269E+02 -0.25957913283E+02  0.62295184154E+01  0.56502950343E+02  0.00000000000E+00 0.  1.
         13    1    4    4    0    0 -0.35563311816E+02  0.47985592118E+01  0.18710986145E+02  0.40470684703E+02  0.00000000000E+00 0. -1.
          1    1    1    2  501    0  0.25134313097E+02 -0.50225766923E+01 -0.26237558916E+02  0.36679278474E+02  0.00000000000E+00 0. -1.
<scales pt_clust_5="13000.00000" pt_clust_6="13000.00000" pt_clust_7="13000.00000" pt_clust_8="13000.00000" pt_clust_9="25.63123"></scales>
<clustering>
<clus scale="   25.631">  2  9  1 -1</clus>
<clus scale="   90.175">  7  8 -1 -1</clus>
<clus scale="   90.680">  5  6 -1 -1</clus>
<clus scale="   99.444">  2  7  1 -1</clus>
<clus scale="   25.631">  2  5  1 -1</clus>
</clustering>
</event>
<event>
 9    1  0.1610296E-005  0.9815746E+02  0.7546771E-02  0.1285603E+00
          1   -1    0    0  502    0 -0.00000000000E+00  0.00000000000E+00  0.30381450454E+03  0.30381450454E+03  0.00000000000E+00 0. -1.
         21   -1    0    0  501  502  0.00000000000E+00 -0.00000000000E+00 -0.64820195885E+02  0.64820195885E+02  0.00000000000E+00 0. -1.
         23    2    1    2    0    0  0.27457275031E+02  0.99943165923E+01  0.21736792307E+03  0.23811398121E+03  0.92712813314E+02 0.  0.
         23    2    1    2    0    0 -0.87586794447E+00  0.69634914980E+01  0.72138241457E+01  0.95852861114E+02  0.95323000196E+02 0.  0.
        -11    1    4    4    0    0  0.34018069575E+02 -0.18449486380E+02 -0.21246679709E+02  0.44147865225E+02  0.00000000000E+00 0.  1.
         11    1    4    4    0    0 -0.34893937519E+02  0.25412977878E+02  0.28460503854E+02  0.51704995889E+02  0.00000000000E+00 0. -1.
        -11    1    3    3    0    0  0.45729384845E+02  0.35978815605E+02  0.17945437827E+03  0.18865186374E+03  0.00000000000E+00 0. -1.
         11    1    3    3    0    0 -0.18272109814E+02 -0.25984499012E+02  0.37913544802E+02  0.49462117478E+02  0.00000000000E+00 0.  1.
          1    1    1    2  501    0 -0.26581407086E+02 -0.16957808090E+02  0.14412561439E+02  0.34667858099E+02  0.00000000000E+00 0. -1.
<scales pt_clust_5="13000.00000" pt_clust_6="13000.00000" pt_clust_7="13000.00000" pt_clust_8="13000.00000" pt_clust_9="31.52996"></scales>
<clustering>
<clus scale="   31.530">  2  9  1 -1</clus>
<clus scale="   92.713">  7  8 -1 -1</clus>
<clus scale="   95.323">  5  6 -1 -1</clus>
<clus scale="   95.625">  1  7  2 -1</clus>
<clus scale="   31.530">  2  5  1 -1</clus>
</clustering>
</event>
<event>
 9    1  0.1610296E-005  0.1617321E+03  0.7546771E-02  0.1187045E+00
         21   -1    0    0  501  502  0.00000000000E+00  0.00000000000E+00  0.59405351538E+03  0.59405351538E+03  0.00000000000E+00 0.  1.
          4   -1    0    0  502    0 -0.00000000000E+00 -0.00000000000E+00 -0.10576157553E+03  0.10576157553E+03  0.00000000000E+00 0. -1.
         23    2    1    2    0    0  0.64041795075E+02  0.96443907540E+02  0.93224011641E+02  0.17398903254E+03  0.90436100537E+02 0.  0.
         23    2    1    2    0    0  0.24232136636E+02 -0.19329750875E+03  0.23323724976E+03  0.31759043323E+03  0.92265623433E+02 0.  0.
        -11    1    4    4    0    0  0.29806310740E+02 -0.15705921693E+03  0.23091583980E+03  0.28085252153E+03  0.00000000000E+00 0.  1.
         11    1    4    4    0    0 -0.55741741046E+01 -0.36238291827E+02  0.23214099575E+01  0.36737911694E+02  0.00000000000E+00 0. -1.
        -13    1    3    3    0    0  0.20380095791E+02  0.58737049047E+02 -0.25025979146E+01  0.62222602256E+02  0.00000000000E+00 0. -1.
         13    1    3    3    0    0  0.43661699284E+02  0.37706858493E+02  0.95726609555E+02  0.11176643029E+03  0.00000000000E+00 0.  1.
          4    1    1    2  501    0 -0.88273931710E+02  0.96853601213E+02  0.16183067846E+03  0.20823562514E+03  0.00000000000E+00 0. -1.
<scales pt_clust_5="13000.00000" pt_clust_6="13000.00000" pt_clust_7="13000.00000" pt_clust_8="13000.00000" pt_clust_9="131.04544"></scales>
<clustering>
<clus scale="   90.436">  7  8 -1 -1</clus>
<clus scale="   92.266">  5  6 -1 -1</clus>
<clus scale="  131.045">  1  9  2 -1</clus>
<clus scale="  160.695">  2  7  1 -1</clus>
<clus scale="  131.045">  1  5  2 -1</clus>
</clustering>
</event>
<event>
 9    1  0.1610296E-005  0.9665031E+02  0.7546771E-02  0.1289659E+00
         21   -1    0    0  501  502  0.00000000000E+00  0.00000000000E+00  0.11755353350E+03  0.11755353350E+03  0.00000000000E+00 0. -1.
          2   -1    0    0  502    0 -0.00000000000E+00 -0.00000000000E+00 -0.41806843815E+03  0.41806843815E+03  0.00000000000E+00 0. -1.
         23    2    1    2    0    0  0.10573959478E+02  0.38519902517E+02 -0.26283265887E+03  0.28036393777E+03  0.89035608195E+02 0.  0.
         23    2    1    2    0    0  0.30540821668E+02 -0.12586143731E+01 -0.12068754407E+03  0.15541461463E+03  0.93026304078E+02 0.  0.
        -11    1    4    4    0    0  0.43132457893E+02 -0.35671516388E+02 -0.96339532942E+02  0.11141890151E+03  0.00000000000E+00 0. -1.
         11    1    4    4    0    0 -0.12591636225E+02  0.34412902014E+02 -0.24348011127E+02  0.43995713129E+02  0.00000000000E+00 0.  1.
        -11    1    3    3    0    0 -0.38452536305E+02  0.27448760717E+02 -0.13303410025E+03  0.14117401972E+03  0.00000000000E+00 0.  1.
         11    1    3    3    0    0  0.49026495782E+02  0.11071141800E+02 -0.12979855861E+03  0.13918991805E+03  0.00000000000E+00 0. -1.
          2    1    1    2  501    0 -0.41114781146E+02 -0.37261288144E+02  0.83005298284E+02  0.99843419242E+02  0.00000000000E+00 0. -1.
<scales pt_clust_5="13000.00000" pt_clust_6="13000.00000" pt_clust_7="13000.00000" pt_clust_8="13000.00000" pt_clust_9="55.48720"></scales>
<clustering>
<clus scale="   55.487">  1  9  2 -1</clus>
<clus scale="   89.036">  7  8 -1 -1</clus>
<clus scale="   92.816">  2  7  1 -1</clus>
<clus scale="   93.026">  5  6 -1 -1</clus>
<clus scale="   55.487">  1  5  2 -1</clus>
</clustering>
</event>
<event>
 9    1  0.1610296E-005  0.1152111E+03  0.7546771E-02  0.1251277E+00
         -2   -1    0    0    0  501 -0.00000000000E+00  0.00000000000E+00  0.34006342863E+03  0.34006342863E+03  0.00000000000E+00 0.  1.
         21   -1    0    0  501  502  0.00000000000E+00 -0.00000000000E+00 -0.14019476152E+03  0.14019476152E+03  0.00000000000E+00 0. -1.
         23    2    1    2    0    0 -0.35409144197E+02 -0.40652224815E+02  0.16063546391E+03  0.19234828201E+03  0.91036797246E+02 0.  0.
         23    2    1    2    0    0  0.11334407056E+03  0.10875522429E+03  0.19010475635E+02  0.18245456217E+03  0.90849831772E+02 0.  0.
        -11    1    3    3    0    0 -0.57491042402E+02 -0.10915421320E+02  0.13547103432E+03  0.14756953452E+03  0.00000000000E+00 0.  1.
         11    1    3    3    0    0  0.22081898206E+02 -0.29736803495E+02  0.25164429592E+02  0.44778747494E+02  0.00000000000E+00 0. -1.
        -11    1    4    4    0    0  0.72899775726E+02  0.74777499397E+02 -0.31794671256E+02  0.10916479669E+03  0.00000000000E+00 0. -1.
         11    1    4    4    0    0  0.40444294829E+02  0.33977724890E+02  0.50805146891E+02  0.73289765476E+02  0.00000000000E+00 0.  1.
         -2    1    1    2    0  502 -0.77934926359E+02 -0.68102999472E+02  0.20222727565E+02  0.10545534597E+03  0.00000000000E+00 0.  1.
<scales pt_clust_5="13000.00000" pt_clust_6="13000.00000" pt_clust_7="13000.00000" pt_clust_8="13000.00000" pt_clust_9="103.49817"></scales>
<clustering>
<clus scale="   90.850">  7  8 -1 -1</clus>
<clus scale="   91.037">  5  6 -1 -1</clus>
<clus scale="  103.498">  2  9  1 -1</clus>
<clus scale="  115.063">  2  7  1 -1</clus>
<clus scale="  103.498">  2  5  1 -1</clus>
</clustering>
</event>
<event>
 9    1  0.1663238E-005  0.9669349E+02  0.7546771E-02  0.1287639E+00
         21   -1    0    0  501  502  0.00000000000E+00  0.00000000000E+00  0.11672581531E+03  0.11672581531E+03  0.00000000000E+00 0.  1.
         -3   -1    0    0    0  501 -0.00000000000E+00 -0.00000000000E+00 -0.42835060067E+03  0.42835060067E+03  0.00000000000E+00 0.  1.
         23    2    1    2    0    0 -0.50821329210E+01  0.83528897392E+01 -0.28899334012E+03  0.30391803508E+03  0.93559727290E+02 0.  0.
         23    2    1    2    0    0  0.41161917553E+02 -0.65800486558E+02 -0.85321041067E+02  0.14878975709E+03  0.93993107618E+02 0.  0.
        -13    1    4    4    0    0 -0.22487489648E+02  0.83327607061E+01 -0.13459285297E+02  0.27500444584E+02  0.00000000000E+00 0. -1.
         13    1    4    4    0    0  0.63649407200E+02 -0.74133247264E+02 -0.71861755770E+02  0.12128931251E+03  0.00000000000E+00 0.  1.
        -13    1    3    3    0    0 -0.45145550375E+02 -0.14802772023E+02 -0.15820964085E+03  0.16518938596E+03  0.00000000000E+00 0.  1.
         13    1    3    3    0    0  0.40063417454E+02  0.23155661762E+02 -0.13078369927E+03  0.13872864911E+03  0.00000000000E+00 0. -1.
         -3    1    1    2    0  502 -0.36079784632E+02  0.57447596818E+02  0.62689595831E+02  0.92368623811E+02  0.00000000000E+00 0.  1.
<scales pt_clust_5="13000.00000" pt_clust_6="13000.00000" pt_clust_7="13000.00000" pt_clust_8="13000.00000" pt_clust_9="67.83787"></scales>
<clustering>
<clus scale="   67.838">  1  9  2 -1</clus>
<clus scale="   93.560">  7  8 -1 -1</clus>
<clus scale="   93.993">  5  6 -1 -1</clus>
<clus scale="   96.272">  2  7  1 -1</clus>
<clus scale="   67.838">  1  5  2 -1</clus>
</clustering>
</event>
<event>
 9    1  0.1610296E-005  0.1028261E+03  0.7546771E-02  0.1275958E+00
          3   -1    0    0  502    0 -0.00000000000E+00  0.00000000000E+00  0.29629972157E+03  0.29629972157E+03  0.00000000000E+00 0. -1.
         21   -1    0    0  501  502  0.00000000000E+00 -0.00000000000E+00 -0.13230660216E+03  0.13230660216E+03  0.00000000000E+00 0.  1.
         23    2    1    2    0    0 -0.29589387948E+00 -0.44255177998E+02  0.25159107139E+03  0.27174337143E+03  0.92670299333E+02 0.  0.
         23    2    1    2    0    0 -0.24530859075E+02  0.47230290789E+02 -0.78091123255E+02  0.13011227473E+03  0.89434428995E+02 0.  0.
        -13    1    3    3    0    0  0.83351805836E+01  0.20780676592E+02  0.16892227614E+02  0.28047443889E+02  0.00000000000E+00 0.  1.
         13    1    3    3    0    0 -0.86310744631E+01 -0.65035854590E+02  0.23469884378E+03  0.24369592754E+03  0.00000000000E+00 0. -1.
        -13    1    4    4    0    0  0.12846119773E+01  0.69494477110E+02 -0.46430745522E+02  0.83587957903E+02  0.00000000000E+00 0.  1.
         13    1    4    4    0    0 -0.25815471052E+02 -0.22264186320E+02 -0.31660377733E+02  0.46524316828E+02  0.00000000000E+00 0. -1.
          3    1    1    2  501    0  0.24826752955E+02 -0.29751127908E+01 -0.95068287200E+01  0.26750677575E+02  0.00000000000E+00 0. -1.
<scales pt_clust_5="13000.00000" pt_clust_6="13000.00000" pt_clust_7="13000.00000" pt_clust_8="13000.00000" pt_clust_9="25.00438"></scales>
<clustering>
<clus scale="   25.004">  2  9  1 -1</clus>
<clus scale="   89.434">  7  8 -1 -1</clus>
<clus scale="   92.670">  5  6 -1 -1</clus>
<clus scale="   99.920">  2  7  1 -1</clus>
<clus scale="   25.004">  2  5  1 -1</clus>
</clustering>
</event>
<event>
 9    1  0.1610296E-005  0.9466387E+02  0.7546771E-02  0.1293143E+00
         21   -1    0    0  501  502  0.00000000000E+00  0.00000000000E+00  0.26457811658E+02  0.26457811658E+02  0.00000000000E+00 0.  1.
          1   -1    0    0  502    0 -0.00000000000E+00 -0.00000000000E+00 -0.48690151758E+03  0.48690151758E+03  0.00000000000E+00 0. -1.
         23    2    1    2    0    0 -0.14299811268E+02  0.11083080615E+02 -0.27212548024E+03  0.28779547337E+03  0.91905594035E+02 0.  0.
         23    2    1    2    0    0  0.34715773112E+02  0.36253754595E+01 -0.16614292243E+03  0.19202441264E+03  0.89730575199E+02 0.  0.
        -11    1    3    3    0    0  0.24991877483E+02  0.37789471572E+02 -0.11350264196E+03  0.12221083354E+03  0.00000000000E+00 0.  1.
         11    1    3    3    0    0 -0.39291688751E+02 -0.26706390957E+02 -0.15862283828E+03  0.16558463983E+03  0.00000000000E+00 0. -1.
        -13    1    4    4    0    0 -0.12154375916E+02 -0.23197122743E+02 -0.11395516780E+03  0.11692568420E+03  0.00000000000E+00 0. -1.
         13    1    4    4    0    0  0.46870149028E+02  0.26822498203E+02 -0.52187754633E+02  0.75098728440E+02  0.00000000000E+00 0.  1.
          1    1    1    2  501    0 -0.20415961845E+02 -0.14708456074E+02 -0.22175303246E+02  0.33539443231E+02  0.00000000000E+00 0. -1.
<scales pt_clust_5="13000.00000" pt_clust_6="13000.00000" pt_clust_7="13000.00000" pt_clust_8="13000.00000" pt_clust_9="25.16248"></scales>
<clustering>
<clus scale="   25.162">  1  9  2 -1</clus>
<clus scale="   89.731">  7  8 -1 -1</clus>
<clus scale="   91.906">  5  6 -1 -1</clus>
<clus scale="   92.554">  1  7  2 -1</clus>
<clus scale="   25.162">  1  5  2 -1</clus>
</clustering>
</event>
<event>
 9    1  0.1610296E-005  0.9831862E+02  0.7546771E-02  0.1291195E+00
          4   -1    0    0  502    0 -0.00000000000E+00  0.00000000000E+00  0.10556593621E+04  0.10556593621E+04  0.00000000000E+00 0. -1.
         21   -1    0    0  501  502  0.00000000000E+00 -0.00000000000E+00 -0.12073919781E+02  0.12073919781E+02  0.00000000000E+00 0.  1.
         23    2    1    2    0    0  0.30730270891E+01 -0.30392190024E+02  0.41786167251E+03  0.42584827770E+03  0.76192188329E+02 0.  0.
         23    2    1    2    0    0 -0.34926933252E+02  0.41701356923E+02  0.53016540941E+03  0.54052441600E+03  0.90179760034E+02 0.  0.
        -11    1    4    4    0    0 -0.65815929791E+02  0.28151449879E+02  0.35920637262E+03  0.36626965323E+03  0.00000000000E+00 0.  1.
         11    1    4    4    0    0  0.30888996539E+02  0.13549907043E+02  0.17095903679E+03  0.17425476277E+03  0.00000000000E+00 0. -1.
        -13    1    3    3    0    0  0.51069112826E+00 -0.54930277421E+02  0.33193913218E+03  0.33645383585E+03  0.00000000000E+00 0. -1.
         13    1    3    3    0    0  0.25623359608E+01  0.24538087397E+02  0.85922540322E+02  0.89394441853E+02  0.00000000000E+00 0.  1.
          4    1    1    2  501    0  0.31853906163E+02 -0.11309166899E+02  0.95558360415E+02  0.10136058819E+03  0.00000000000E+00 0. -1.
<scales pt_clust_5="13000.00000" pt_clust_6="13000.00000" pt_clust_7="13000.00000" pt_clust_8="13000.00000" pt_clust_9="33.80190"></scales>
<clustering>
<clus scale="   33.802">  2  9  1 -1</clus>
<clus scale="   76.192">  7  8 -1 -1</clus>
<clus scale="   85.670">  1  7  2 -1</clus>
<clus scale="   90.180">  5  6 -1 -1</clus>
<clus scale="   33.802">  2  5  1 -1</clus>
</clustering>
</event>
<event>
 9    1  0.1610296E-005  0.3534009E+03  0.7546771E-02  0.1061762E+00
          3   -1    0    0  502    0 -0.00000000000E+00  0.00000000000E+00  0.50406305459E+03  0.50406305459E+03  0.00000000000E+00 0. -1.
         21   -1    0    0  501  502  0.00000000000E+00 -0.00000000000E+00 -0.64112887457E+03  0.64112887457E+03  0.00000000000E+00 0. -1.
         23    2    1    2    0    0 -0.12274971803E+03  0.29175199232E+03  0.24148567614E+03  0.40822628310E+03  0.90258784235E+02 0.  0.
         23    2    1    2    0    0  0.21832170132E+03 -0.39648621775E+03 -0.37052516881E+03  0.59495267518E+03  0.10869268077E+03 0.  0.
        -13    1    3    3    0    0 -0.88443243176E+02  0.25959018455E+03  0.23420762970E+03  0.36064176822E+03  0.00000000000E+00 0. -1.
         13    1    3    3    0    0 -0.34306474852E+02  0.32161807776E+02  0.72780464423E+01  0.47584514878E+02  0.00000000000E+00 0.  1.
        -13    1    4    4    0    0  0.44403512653E+02 -0.33339413439E+02 -0.84286732995E+02  0.10093285780E+03  0.00000000000E+00 0.  1.
         13    1    4    4    0    0  0.17391818866E+03 -0.36314680431E+03 -0.28623843582E+03  0.49401981738E+03  0.00000000000E+00 0. -1.
          3    1    1    2  501    0 -0.95571983290E+02  0.10473422543E+03 -0.80263273142E+01  0.14201297087E+03  0.00000000000E+00 0. -1.
<scales pt_clust_5="13000.00000" pt_clust_6="13000.00000" pt_clust_7="13000.00000" pt_clust_8="13000.00000" pt_clust_9="141.78604"></scales>
<clustering>
<clus scale="   90.259">  5  6 -1 -1</clus>
<clus scale="  108.693">  7  8 -1 -1</clus>
<clus scale="  141.786">  2  9  1 -1</clus>
<clus scale="  348.173">  1  5  2 -1</clus>
<clus scale="  141.786">  2  5  1 -1</clus>
</clustering>
</event>
<event>
 9    1  0.1610296E-005  0.3564249E+03  0.7546771E-02  0.1060114E+00
          1   -1    0    0  502    0 -0.00000000000E+00  0.00000000000E+00  0.12283820906E+04  0.12283820906E+04  0.00000000000E+00 0. -1.
         21   -1    0    0  501  502  0.00000000000E+00 -0.00000000000E+00 -0.62085777876E+03  0.62085777876E+03  0.00000000000E+00 0. -1.
         23    2    1    2    0    0  0.91562381494E+02  0.35523342712E+03  0.10369944851E+04  0.11037801971E+04  0.91644442817E+02 0.  0.
         23    2    1    2    0    0  0.52740648006E+01 -0.26473894851E+03  0.17344893244E+02  0.27940146606E+03  0.87463176806E+02 0.  0.
        -13    1    3    3    0    0 -0.14143483406E+02  0.10169121791E+03  0.31407289971E+03  0.33042840110E+03  0.00000000000E+00 0.  1.
         13    1    3    3    0    0  0.10570586490E+03  0.25354220921E+03  0.72292158539E+03  0.77335179598E+03  0.00000000000E+00 0. -1.
        -13    1    4    4    0    0  0.28580895096E+02 -0.18113022381E+03 -0.20888682576E+02  0.18455720685E+03  0.00000000000E+00 0.  1.
         13    1    4    4    0    0 -0.23306830295E+02 -0.83608724703E+02  0.38233575820E+02  0.94844259209E+02  0.00000000000E+00 0. -1.
          1    1    1    2  501    0 -0.96836446295E+02 -0.90494478613E+02 -0.44681506647E+03  0.46605820625E+03  0.00000000000E+00 0. -1.
<scales pt_clust_5="13000.00000" pt_clust_6="13000.00000" pt_clust_7="13000.00000" pt_clust_8="13000.00000" pt_clust_9="132.53885"></scales>
<clustering>
<clus scale="   87.463">  7  8 -1 -1</clus>
<clus scale="   91.644">  5  6 -1 -1</clus>
<clus scale="  132.539">  2  9  1 -1</clus>
<clus scale="  355.373">  2  7  1 -1</clus>
<clus scale="  132.539">  2  5  1 -1</clus>
</clustering>
</event>
<event>
 9    1  0.1610296E-005  0.1127914E+03  0.7546771E-02  0.1257886E+00
         21   -1    0    0  501  502  0.00000000000E+00  0.00000000000E+00  0.15186426499E+03  0.15186426499E+03  0.00000000000E+00 0.  1.
         -1   -1    0    0    0  501 -0.00000000000E+00 -0.00000000000E+00 -0.15416517131E+03  0.15416517131E+03  0.00000000000E+00 0.  1.
         23    2    1    2    0    0  0.32847138503E+02 -0.40784262332E+02  0.18916090747E+01  0.99757776674E+02  0.84886661262E+02 0.  0.
         23    2    1    2    0    0 -0.46478821882E+02  0.79355970416E+02  0.49476351534E+02  0.13878872302E+03  0.91415257760E+02 0.  0.
        -11    1    3    3    0    0  0.26934931560E+02  0.18955346922E+01  0.35861354376E+02  0.44890091642E+02  0.00000000000E+00 0. -1.
         11    1    3    3    0    0  0.59122069435E+01 -0.42679797024E+02 -0.33969745302E+02  0.54867685032E+02  0.00000000000E+00 0.  1.
        -13    1    4    4    0    0 -0.19219102795E+02  0.38723430515E+02  0.72735097953E+02  0.84612484051E+02  0.00000000000E+00 0.  1.
         13    1    4    4    0    0 -0.27259719087E+02  0.40632539901E+02 -0.23258746419E+02  0.54176238966E+02  0.00000000000E+00 0. -1.
         -1    1    1    2    0  502  0.13631683379E+02 -0.38571708085E+02 -0.53668866924E+02  0.67482936608E+02  0.00000000000E+00 0.  1.
<scales pt_clust_5="13000.00000" pt_clust_6="13000.00000" pt_clust_7="13000.00000" pt_clust_8="13000.00000" pt_clust_9="40.90967"></scales>
<clustering>
<clus scale="   40.910">  1  9  2 -1</clus>
<clus scale="   84.887">  5  6 -1 -1</clus>
<clus scale="   91.415">  7  8 -1 -1</clus>
<clus scale="  107.568">  2  5  1 -1</clus>
<clus scale="   40.910">  1  5  2 -1</clus>
</clustering>
</event>
<event>
 9    1  0.1610296E-005  0.2464754E+03  0.7546771E-02  0.1115661E+00
         21   -1    0    0  501  502  0.00000000000E+00  0.00000000000E+00  0.82693547296E+03  0.82693547296E+03  0.00000000000E+00 0. -1.
         -1   -1    0    0    0  501 -0.00000000000E+00 -0.00000000000E+00 -0.16909272245E+03  0.16909272245E+03  0.00000000000E+00 0.  1.
         23    2    1    2    0    0  0.20069879798E+03 -0.96464589820E+02 -0.81062213185E+01  0.24076554148E+03  0.91197097204E+02 0.  0.
         23    2    1    2    0    0 -0.20170611950E+03  0.16550595535E+03  0.44271732040E+03  0.52159602164E+03  0.89365564426E+02 0.  0.
        -13    1    3    3    0    0  0.77213095198E+02 -0.57857593073E+02  0.37595484189E+02  0.10355087434E+03  0.00000000000E+00 0. -1.
         13    1    3    3    0    0  0.12348570279E+03 -0.38606996747E+02 -0.45701705508E+02  0.13721466713E+03  0.00000000000E+00 0.  1.
        -13    1    4    4    0    0 -0.35579223174E+02  0.37560144305E+02  0.33073559931E+02  0.61404445510E+02  0.00000000000E+00 0.  1.
         13    1    4    4    0    0 -0.16612689632E+03  0.12794581105E+03  0.40964376047E+03  0.46019157613E+03  0.00000000000E+00 0. -1.
         -1    1    1    2    0  502  0.10073215132E+01 -0.69041365532E+02  0.22323165142E+03  0.23366663229E+03  0.00000000000E+00 0.  1.
<scales pt_clust_5="13000.00000" pt_clust_6="13000.00000" pt_clust_7="13000.00000" pt_clust_8="13000.00000" pt_clust_9="69.04871"></scales>
<clustering>
<clus scale="   69.049">  1  9  2 -1</clus>
<clus scale="   89.366">  7  8 -1 -1</clus>
<clus scale="   91.197">  5  6 -1 -1</clus>
<clus scale="  245.804">  1  7  2 -1</clus>
<clus scale="   69.049">  1  5  2 -1</clus>
</clustering>
</event>
<event>
 9    1  0.1610296E-005  0.1666300E+03  0.7546771E-02  0.1181719E+00
         21   -1    0    0  501  502  0.00000000000E+00  0.00000000000E+00  0.29591343129E+03  0.29591343129E+03  0.00000000000E+00 0. -1.
         -3   -1    0    0    0  501 -0.00000000000E+00 -0.00000000000E+00 -0.11823966730E+03  0.11823966730E+03  0.00000000000E+00 0.  1.
         23    2    1    2    0    0 -0.10006877489E+03  0.10493024031E+03  0.24050150660E+02  0.17356734727E+03  0.92320632875E+02 0.  0.
         23    2    1    2    0    0  0.97032019200E+02 -0.77838639872E+02  0.14161342413E+03  0.21079613326E+03  0.94374685674E+02 0.  0.
        -11    1    3    3    0    0 -0.30632019738E+02  0.74851356286E+02  0.48181818660E+02  0.94141031546E+02  0.00000000000E+00 0. -1.
         11    1    3    3    0    0 -0.69436755150E+02  0.30078884020E+02 -0.24131668000E+02  0.79426315728E+02  0.00000000000E+00 0.  1.
        -13    1    4    4    0    0  0.15608312803E+02 -0.58655268517E+02  0.10092985767E+03  0.11777476862E+03  0.00000000000E+00 0.  1.
         13    1    4    4    0    0  0.81423706397E+02 -0.19183371356E+02  0.40683566459E+02  0.93021364642E+02  0.00000000000E+00 0. -1.
         -3    1    1    2    0  502  0.30367556882E+01 -0.27091600433E+02  0.12010189210E+02  0.29789618057E+02  0.00000000000E+00 0.  1.
<scales pt_clust_5="13000.00000" pt_clust_6="13000.00000" pt_clust_7="13000.00000" pt_clust_8="13000.00000" pt_clust_9="27.26128"></scales>
<clustering>
<clus scale="   27.261">  1  9  2 -1</clus>
<clus scale="   92.321">  5  6 -1 -1</clus>
<clus scale="   94.375">  7  8 -1 -1</clus>
<clus scale="  165.475">  2  5  1 -1</clus>
<clus scale="   27.261">  1  5  2 -1</clus>
</clustering>
</event>
<event>
 9    1  0.1610296E-005  0.9356454E+02  0.7546771E-02  0.1294490E+00
          1   -1    0    0  502    0 -0.00000000000E+00  0.00000000000E+00  0.20986990814E+03  0.20986990814E+03  0.00000000000E+00 0. -1.
         21   -1    0    0  501  502  0.00000000000E+00 -0.00000000000E+00 -0.21098535149E+03  0.21098535149E+03  0.00000000000E+00 0. -1.
         23    2    1    2    0    0 -0.11951772813E+02 -0.68757936899E+01  0.16535319082E+03  0.18982496459E+03  0.92204761563E+02 0.  0.
         23    2    1    2    0    0  0.49529605393E+02 -0.24012839054E+02 -0.13715565286E+03  0.17423723203E+03  0.92288361467E+02 0.  0.
        -11    1    4    4    0    0 -0.12165408502E+02  0.24401256022E+02 -0.50306136968E+02  0.57219977946E+02  0.00000000000E+00 0.  1.
         11    1    4    4    0    0  0.61695013894E+02 -0.48414095076E+02 -0.86849515895E+02  0.11701725408E+03  0.00000000000E+00 0. -1.
        -13    1    3    3    0    0 -0.23734319642E+02 -0.46044352481E+02  0.82287520888E+02  0.97234954714E+02  0.00000000000E+00 0. -1.
         13    1    3    3    0    0  0.11782546829E+02  0.39168558792E+02  0.83065669930E+02  0.92590009874E+02  0.00000000000E+00 0.  1.
          1    1    1    2  501    0 -0.37577832580E+02  0.30888632744E+02 -0.29312981303E+02  0.56793063019E+02  0.00000000000E+00 0. -1.
<scales pt_clust_5="13000.00000" pt_clust_6="13000.00000" pt_clust_7="13000.00000" pt_clust_8="13000.00000" pt_clust_9="48.64361"></scales>
<clustering>
<clus scale="   48.644">  2  9  1 -1</clus>
<clus scale="   92.205">  7  8 -1 -1</clus>
<clus scale="   92.288">  5  6 -1 -1</clus>
<clus scale="   93.482">  1  7  2 -1</clus>
<clus scale="   48.644">  2  5  1 -1</clus>
</clustering>
</event>
<event>
 9    1  0.1610296E-005  0.1006917E+03  0.7546771E-02  0.1279011E+00
          3   -1    0    0  502    0 -0.00000000000E+00  0.00000000000E+00  0.11230938546E+03  0.11230938546E+03  0.00000000000E+00 0. -1.
         21   -1    0    0  501  502  0.00000000000E+00 -0.00000000000E+00 -0.35889193089E+03  0.35889193089E+03  0.00000000000E+00 0. -1.
         23    2    1    2    0    0 -0.53558799973E+02  0.19830187014E+01  0.39411040488E+02  0.11248690364E+03  0.90706096596E+02 0.  0.
         23    2    1    2    0    0  0.14189359478E+02  0.43628606526E+02 -0.47045773130E+02  0.11228707975E+03  0.91051031182E+02 0.  0.
        -11    1    3    3    0    0 -0.72472034099E+02  0.21295510219E+02  0.39950860144E+02  0.85450369854E+02  0.00000000000E+00 0.  1.
         11    1    3    3    0    0  0.18913234126E+02 -0.19312491518E+02 -0.53981965633E+00  0.27036533783E+02  0.00000000000E+00 0. -1.
        -13    1    4    4    0    0  0.14683601148E+01  0.70990015556E+02 -0.26532018646E+02  0.75800306091E+02  0.00000000000E+00 0. -1.
         13    1    4    4    0    0  0.12720999364E+02 -0.27361409030E+02 -0.20513754484E+02  0.36486773658E+02  0.00000000000E+00 0.  1.
          3    1    1    2  501    0  0.39369440495E+02 -0.45611625228E+02 -0.23894781278E+03  0.24642733297E+03  0.00000000000E+00 0. -1.
<scales pt_clust_5="13000.00000" pt_clust_6="13000.00000" pt_clust_7="13000.00000" pt_clust_8="13000.00000" pt_clust_9="60.25258"></scales>
<clustering>
<clus scale="   60.253">  2  9  1 -1</clus>
<clus scale="   90.706">  5  6 -1 -1</clus>
<clus scale="   91.051">  7  8 -1 -1</clus>
<clus scale="  100.380">  1  5  2 -1</clus>
<clus scale="   60.253">  2  5  1 -1</clus>
</clustering>
</event>
<event>
 9    1  0.1610296E-005  0.1054881E+03  0.7546771E-02  0.1274599E+00
         21   -1    0    0  501  502  0.00000000000E+00  0.00000000000E+00  0.46266080240E+03  0.46266080240E+03  0.00000000000E+00 0.  1.
          4   -1    0    0  502    0 -0.00000000000E+00 -0.00000000000E+00 -0.12905597394E+03  0.12905597394E+03  0.00000000000E+00 0.  1.
         23    2    1    2    0    0  0.62798493668E+00  0.24598114584E+02 -0.97726522050E+02  0.14391339062E+03  0.10273815884E+03 0.  0.
         23    2    1    2    0    0  0.19843963481E+02 -0.14640474793E+02  0.30732720733E+03  0.32172688994E+03  0.91924169607E+02 0.  0.
        -11    1    3    3    0    0  0.43028035247E+02 -0.15071339621E+02 -0.57001069644E+02  0.72990951739E+02  0.00000000000E+00 0.  1.
         11    1    3    3    0    0 -0.42400050311E+02  0.39669454205E+02 -0.40725452406E+02  0.70922438882E+02  0.00000000000E+00 0. -1.
        -13    1    4    4    0    0 -0.19611174078E+02 -0.37589685253E+02  0.20987997300E+03  0.21411955925E+03  0.00000000000E+00 0. -1.
         13    1    4    4    0    0  0.39455137560E+02  0.22949210459E+02  0.97447234328E+02  0.10760733069E+03  0.00000000000E+00 0.  1.
          4    1    1    2  501    0 -0.20471948418E+02 -0.99576397903E+01  0.12400414319E+03  0.12607649578E+03  0.00000000000E+00 0.  1.
<scales pt_clust_5="13000.00000" pt_clust_6="13000.00000" pt_clust_7="13000.00000" pt_clust_8="13000.00000" pt_clust_9="22.76522"></scales>
<clustering>
<clus scale="   22.765">  1  9  2 -1</clus>
<clus scale="   91.924">  7  8 -1 -1</clus>
<clus scale="   94.988">  1  7  2 -1</clus>
<clus scale="  102.738">  5  6 -1 -1</clus>
<clus scale="   22.765">  1  5  2 -1</clus>
</clustering>
</event>
<event>
 9    1  0.1610296E-005  0.1196120E+03  0.7546771E-02  0.1244970E+00
         -1   -1    0    0    0  501 -0.00000000000E+00  0.00000000000E+00  0.16522754926E+03  0.16522754926E+03  0.00000000000E+00 0.  1.
         21   -1    0    0  501  502  0.00000000000E+00 -0.00000000000E+00 -0.12634564398E+03  0.12634564398E+03  0.00000000000E+00 0. -1.
         23    2    1    2    0    0  0.55821643500E+02 -0.24541798625E+02  0.30370814041E+02  0.11361378679E+03  0.90924971489E+02 0.  0.
         23    2    1    2    0    0 -0.82195220234E+02  0.28027995095E+02  0.42034306820E+02  0.13516308536E+03  0.94660202596E+02 0.  0.
        -11    1    4    4    0    0 -0.86280214189E+02  0.24276834550E+01  0.63495261073E+00  0.86316696950E+02  0.00000000000E+00 0. -1.
         11    1    4    4    0    0  0.40849939556E+01  0.25600311640E+02  0.41399354209E+02  0.48846388409E+02  0.00000000000E+00 0.  1.
        -13    1    3    3    0    0  0.49618203160E+02 -0.29833416869E+01  0.59060570957E+02  0.77194672447E+02  0.00000000000E+00 0.  1.
         13    1    3    3    0    0  0.62034403405E+01 -0.21558456938E+02 -0.28689756916E+02  0.36419114343E+02  0.00000000000E+00 0. -1.
         -1    1    1    2    0  502  0.26373576733E+02 -0.34861964704E+01 -0.33523215587E+02  0.42796321090E+02  0.00000000000E+00 0.  1.
<scales pt_clust_5="13000.00000" pt_clust_6="13000.00000" pt_clust_7="13000.00000" pt_clust_8="13000.00000" pt_clust_9="26.60299"></scales>
<clustering>
<clus scale="   26.603">  2  9  1 -1</clus>
<clus scale="   90.925">  7  8 -1 -1</clus>
<clus scale="   94.660">  5  6 -1 -1</clus>
<clus scale="  116.678">  1  7  2 -1</clus>
<clus scale="   26.603">  2  5  1 -1</clus>
</clustering>
</event>
<event>
 9    1  0.1610296E-005  0.1185689E+03  0.7546771E-02  0.1246294E+00
         21   -1    0    0  501  502  0.00000000000E+00  0.00000000000E+00  0.13779785793E+03  0.13779785793E+03  0.00000000000E+00 0. -1.
          2   -1    0    0  502    0 -0.00000000000E+00 -0.00000000000E+00 -0.45069252606E+03  0.45069252606E+03  0.00000000000E+00 0. -1.
         23    2    1    2    0    0 -0.73527056959E+02  0.25275516810E+02 -0.35490866975E+03  0.37447166864E+03  0.90685097424E+02 0.  0.
         23    2    1    2    0    0  0.59366833255E+02 -0.10906347740E+01 -0.47476947678E+02  0.12024211668E+03  0.93158443998E+02 0.  0.
        -11    1    3    3    0    0 -0.21294138420E+02  0.55032207626E+02 -0.16191591134E+03  0.17233324274E+03  0.00000000000E+00 0.  1.
         11    1    3    3    0    0 -0.52232918539E+02 -0.29756690817E+02 -0.19299275840E+03  0.20213842589E+03  0.00000000000E+00 0. -1.
        -13    1    4    4    0    0  0.25403601931E+02 -0.24935734061E+02  0.20145341357E+02  0.40901938862E+02  0.00000000000E+00 0.  1.
         13    1    4    4    0    0  0.33963231323E+02  0.23845099287E+02 -0.67622289036E+02  0.79340177819E+02  0.00000000000E+00 0. -1.
          2    1    1    2  501    0  0.14160223705E+02 -0.24184882036E+02  0.89490949293E+02  0.93776598679E+02  0.00000000000E+00 0. -1.
<scales pt_clust_5="13000.00000" pt_clust_6="13000.00000" pt_clust_7="13000.00000" pt_clust_8="13000.00000" pt_clust_9="28.02535"></scales>
<clustering>
<clus scale="   28.025">  1  9  2 -1</clus>
<clus scale="   90.685">  5  6 -1 -1</clus>
<clus scale="   93.158">  7  8 -1 -1</clus>
<clus scale="  116.636">  2  5  1 -1</clus>
<clus scale="   28.025">  1  5  2 -1</clus>
</clustering>
</event>
<event>
 9    1  0.1610296E-005  0.3304887E+03  0.7546771E-02  0.1071271E+00
         21   -1    0    0  501  502  0.00000000000E+00  0.00000000000E+00  0.19530287283E+03  0.19530287283E+03  0.00000000000E+00 0. -1.
         -4   -1    0    0    0  501 -0.00000000000E+00 -0.00000000000E+00 -0.10054563530E+04  0.10054563530E+04  0.00000000000E+00 0.  1.
         23    2    1    2    0    0 -0.31648679883E+03  0.56784368940E+02 -0.69940972633E+03  0.77507433732E+03  0.90431768159E+02 0.  0.
         23    2    1    2    0    0  0.29411928465E+03 -0.45408036975E+02 -0.17282024141E+03  0.35872805972E+03  0.10124693359E+03 0.  0.
        -11    1    3    3    0    0 -0.22658541723E+03  0.69039063729E+02 -0.43181219312E+03  0.49251305947E+03  0.00000000000E+00 0.  1.
         11    1    3    3    0    0 -0.89901381601E+02 -0.12254694789E+02 -0.26759753322E+03  0.28256127785E+03  0.00000000000E+00 0. -1.
        -13    1    4    4    0    0  0.14092245370E+03 -0.56011373611E+02 -0.12884823147E+03  0.19899316240E+03  0.00000000000E+00 0.  1.
         13    1    4    4    0    0  0.15319683095E+03  0.10603336636E+02 -0.43972009942E+02  0.15973489731E+03  0.00000000000E+00 0. -1.
         -4    1    1    2    0  502  0.22367514175E+02 -0.11376331965E+02  0.62076487551E+02  0.66956828823E+02  0.00000000000E+00 0.  1.
<scales pt_clust_5="13000.00000" pt_clust_6="13000.00000" pt_clust_7="13000.00000" pt_clust_8="13000.00000" pt_clust_9="25.09435"></scales>
<clustering>
<clus scale="   25.094">  1  9  2 -1</clus>
<clus scale="   90.432">  5  6 -1 -1</clus>
<clus scale="  101.247">  7  8 -1 -1</clus>
<clus scale="  327.337">  2  5  1 -1</clus>
<clus scale="   25.094">  1  5  2 -1</clus>
</clustering>
</event>
<event>
 9    1  0.1610296E-005  0.1343521E+03  0.7546771E-02  0.1222965E+00
          1   -1    0    0  502    0 -0.00000000000E+00  0.00000000000E+00  0.31530518442E+03  0.31530518442E+03  0.00000000000E+00 0. -1.
         21   -1    0    0  501  502  0.00000000000E+00 -0.00000000000E+00 -0.13783470427E+03  0.13783470427E+03  0.00000000000E+00 0. -1.
         23    2    1    2    0    0  0.33839075212E+02  0.81906532253E+02  0.16377463136E+03  0.21053607221E+03  0.98232096527E+02 0.  0.
         23    2    1    2    0    0  0.12112222729E+02 -0.10418503363E+03  0.78860530570E+02  0.15981318201E+03  0.91214268020E+02 0.  0.
        -11    1    4    4    0    0  0.41725338105E+02 -0.97900120023E+02  0.72802003164E+02  0.12894017607E+03  0.00000000000E+00 0.  1.
         11    1    4    4    0    0 -0.29613115376E+02 -0.62849136033E+01  0.60585274068E+01  0.30873005937E+02  0.00000000000E+00 0. -1.
        -11    1    3    3    0    0  0.47228960652E+02  0.12305272252E+02  0.25293500920E+02  0.54970497890E+02  0.00000000000E+00 0.  1.
         11    1    3    3    0    0 -0.13389885440E+02  0.69601260001E+02  0.13848113044E+03  0.15556557432E+03  0.00000000000E+00 0. -1.
          1    1    1    2  501    0 -0.45951297941E+02  0.22278501374E+02 -0.65164681776E+02  0.82790634476E+02  0.00000000000E+00 0. -1.
<scales pt_clust_5="13000.00000" pt_clust_6="13000.00000" pt_clust_7="13000.00000" pt_clust_8="13000.00000" pt_clust_9="51.06715"></scales>
<clustering>
<clus scale="   51.067">  2  9  1 -1</clus>
<clus scale="   91.214">  5  6 -1 -1</clus>
<clus scale="   98.232">  7  8 -1 -1</clus>
<clus scale="  129.310">  2  5  1 -1</clus>
<clus scale="   51.067">  2  5  1 -1</clus>
</clustering>
</event>
<event>
 9    1  0.1610296E-005  0.1097520E+03  0.7546771E-02  0.1262616E+00
          1   -1    0    0  502    0 -0.00000000000E+00  0.00000000000E+00  0.33006632783E+03  0.33006632783E+03  0.00000000000E+00 0. -1.
         21   -1    0    0  501  502  0.00000000000E+00 -0.00000000000E+00 -0.26593853104E+03  0.26593853104E+03  0.00000000000E+00 0.  1.
         23    2    1    2    0    0  0.48967115720E+02 -0.13955380580E+02  0.23358046958E+03  0.25486199868E+03  0.88330467732E+02 0.  0.
         23    2    1    2    0    0 -0.14367106096E+03  0.43822520813E+01 -0.31795105386E+02  0.17378071423E+03  0.92348416449E+02 0.  0.
        -11    1    4    4    0    0 -0.11453221732E+03  0.96905253207E+01  0.17505899373E+02  0.11626689812E+03  0.00000000000E+00 0. -1.
         11    1    4    4    0    0 -0.29138843645E+02 -0.53082732395E+01 -0.49301004760E+02  0.57513816115E+02  0.00000000000E+00 0.  1.
        -11    1    3    3    0    0  0.64475931638E+01 -0.45696235930E+02  0.13839360438E+03  0.14588525344E+03  0.00000000000E+00 0.  1.
         11    1    3    3    0    0  0.42519522556E+02  0.31740855350E+02  0.95186865199E+02  0.10897674524E+03  0.00000000000E+00 0. -1.
          1    1    1    2  501    0  0.94703945244E+02  0.95731284988E+01 -0.13765756742E+03  0.16736214596E+03  0.00000000000E+00 0. -1.
<scales pt_clust_5="13000.00000" pt_clust_6="13000.00000" pt_clust_7="13000.00000" pt_clust_8="13000.00000" pt_clust_9="95.18656"></scales>
<clustering>
<clus scale="   88.330">  7  8 -1 -1</clus>
<clus scale="   92.348">  5  6 -1 -1</clus>
<clus scale="   95.187">  2  9  1 -1</clus>
<clus scale="  106.393">  1  7  2 -1</clus>
<clus scale="   95.187">  2  5  1 -1</clus>
</clustering>
</event>
<event>
 9    1  0.1610296E-005  0.9903861E+02  0.7546771E-02  0.1287910E+00
          1   -1    0    0  502    0 -0.00000000000E+00  0.00000000000E+00  0.36748707149E+03  0.36748707149E+03  0.00000000000E+00 0. -1.
         21   -1    0    0  501  502  0.00000000000E+00 -0.00000000000E+00 -0.91482168666E+02  0.91482168666E+02  0.00000000000E+00 0.  1.
         23    2    1    2    0    0  0.18043926033E+02 -0.10141107871E+02  0.18479560290E+03  0.20318309378E+03  0.81887297001E+02 0.  0.
         23    2    1    2    0    0 -0.49725818302E+02  0.45493545497E+02  0.14453367978E+03  0.18439268288E+03  0.92565421317E+02 0.  0.
        -13    1    4    4    0    0 -0.44358410350E+02  0.71982049240E+02  0.89750391931E+02  0.12330538039E+03  0.00000000000E+00 0. -1.
         13    1    4    4    0    0 -0.53674079513E+01 -0.26488503743E+02  0.54783287845E+02  0.61087302492E+02  0.00000000000E+00 0.  1.
        -13    1    3    3    0    0  0.33040118552E+02  0.39808309409E+01  0.17859795966E+03  0.18167203319E+03  0.00000000000E+00 0. -1.
         13    1    3    3    0    0 -0.14996192519E+02 -0.14121938812E+02  0.61976432416E+01  0.21511060588E+02  0.00000000000E+00 0.  1.
          1    1    1    2  501    0  0.31681892268E+02 -0.35352437626E+02 -0.53324379850E+02  0.71393463498E+02  0.00000000000E+00 0. -1.
<scales pt_clust_5="13000.00000" pt_clust_6="13000.00000" pt_clust_7="13000.00000" pt_clust_8="13000.00000" pt_clust_9="47.47144"></scales>
<clustering>
<clus scale="   47.471">  2  9  1 -1</clus>
<clus scale="   81.887">  7  8 -1 -1</clus>
<clus scale="   89.139">  1  7  2 -1</clus>
<clus scale="   92.565">  5  6 -1 -1</clus>
<clus scale="   47.471">  2  5  1 -1</clus>
</clustering>
</event>
<event>
 9    1  0.1610296E-005  0.1053599E+03  0.7546771E-02  0.1269424E+00
         21   -1    0    0  501  502  0.00000000000E+00  0.00000000000E+00  0.96652428827E+02  0.96652428827E+02  0.00000000000E+00 0. -1.
          2   -1    0    0  502    0 -0.00000000000E+00 -0.00000000000E+00 -0.44442183077E+03  0.44442183077E+03  0.00000000000E+00 0. -1.
         23    2    1    2    0    0 -0.40929087003E+02 -0.22382405092E+02 -0.24015780295E+03  0.26189064847E+03  0.93460040766E+02 0.  0.
         23    2    1    2    0    0  0.20630836956E+02  0.56070694860E+02 -0.17144125011E+03  0.20420932097E+03  0.93486845478E+02 0.  0.
        -11    1    3    3    0    0 -0.95575823373E+01 -0.56867865250E+02 -0.12532798318E+03  0.13795798218E+03  0.00000000000E+00 0.  1.
         11    1    3    3    0    0 -0.31371504666E+02  0.34485460158E+02 -0.11482981977E+03  0.12393266629E+03  0.00000000000E+00 0. -1.
        -13    1    4    4    0    0  0.57444830117E+02  0.31286687864E+02 -0.11623614392E+03  0.13337768366E+03  0.00000000000E+00 0.  1.
         13    1    4    4    0    0 -0.36813993160E+02  0.24784006996E+02 -0.55205106181E+02  0.70831637307E+02  0.00000000000E+00 0. -1.
          2    1    1    2  501    0  0.20298250047E+02 -0.33688289767E+02  0.63829651114E+02  0.74974290152E+02  0.00000000000E+00 0. -1.
<scales pt_clust_5="13000.00000" pt_clust_6="13000.00000" pt_clust_7="13000.00000" pt_clust_8="13000.00000" pt_clust_9="39.33090"></scales>
<clustering>
<clus scale="   39.331">  1  9  2 -1</clus>
<clus scale="   93.460">  5  6 -1 -1</clus>
<clus scale="   93.487">  7  8 -1 -1</clus>
<clus scale="  105.336">  2  5  1 -1</clus>
<clus scale="   39.331">  1  5  2 -1</clus>
</clustering>
</event>
<event>
 9    1  0.1610296E-005  0.1036228E+03  0.7546771E-02  0.1274667E+00
         -1   -1    0    0    0  501 -0.00000000000E+00  0.00000000000E+00  0.53816606716E+02  0.53816606716E+02  0.00000000000E+00 0.  1.
         21   -1    0    0  501  502  0.00000000000E+00 -0.00000000000E+00 -0.45452877135E+03  0.45452877135E+03  0.00000000000E+00 0. -1.
         23    2    1    2    0    0  0.10575214811E+02  0.42621737486E+02 -0.17920564252E+02  0.10018461783E+03  0.88246038733E+02 0.  0.
         23    2    1    2    0    0 -0.14938381673E+02 -0.65494931978E+02 -0.34852846980E+03  0.36673392873E+03  0.92243909604E+02 0.  0.
        -11    1    4    4    0    0  0.25450156452E+02  0.76951535016E+01 -0.48877495313E+02  0.55641130460E+02  0.00000000000E+00 0.  1.
         11    1    4    4    0    0 -0.40388538125E+02 -0.73190085479E+02 -0.29965097449E+03  0.31109279827E+03  0.00000000000E+00 0. -1.
        -13    1    3    3    0    0  0.22995258197E+02 -0.44228645095E+01 -0.40314668838E+02  0.46622056513E+02  0.00000000000E+00 0. -1.
         13    1    3    3    0    0 -0.12420043386E+02  0.47044601996E+02  0.22394104586E+02  0.53562561317E+02  0.00000000000E+00 0.  1.
         -1    1    1    2    0  502  0.43631668623E+01  0.22873194491E+02 -0.34263130577E+02  0.41426831501E+02  0.00000000000E+00 0.  1.
<scales pt_clust_5="13000.00000" pt_clust_6="13000.00000" pt_clust_7="13000.00000" pt_clust_8="13000.00000" pt_clust_9="23.28562"></scales>
<clustering>
<clus scale="   23.286">  2  9  1 -1</clus>
<clus scale="   88.246">  7  8 -1 -1</clus>
<clus scale="   92.244">  5  6 -1 -1</clus>
<clus scale="  100.080">  1  7  2 -1</clus>
<clus scale="   23.286">  2  5  1 -1</clus>
</clustering>
</event>
<event>
 9    1  0.1610296E-005  0.1014658E+03  0.7546771E-02  0.1277662E+00
         21   -1    0    0  501  502  0.00000000000E+00  0.00000000000E+00  0.20931290354E+03  0.20931290354E+03  0.00000000000E+00 0.  1.
         -1   -1    0    0    0  501 -0.00000000000E+00 -0.00000000000E+00 -0.23596316090E+03  0.23596316090E+03  0.00000000000E+00 0.  1.
         23    2    1    2    0    0  0.41545713244E+02 -0.42482272609E+01 -0.97618857193E+02  0.13981044705E+03  0.90958375649E+02 0.  0.
         23    2    1    2    0    0 -0.41488881232E+02  0.31657068707E+02 -0.92783698664E+02  0.13943530967E+03  0.90054947558E+02 0.  0.
        -11    1    3    3    0    0  0.40704120826E+02 -0.24842766910E+02 -0.86240376631E+01  0.48459906579E+02  0.00000000000E+00 0. -1.
         11    1    3    3    0    0  0.84159241717E+00  0.20594539649E+02 -0.88994819530E+02  0.91350540471E+02  0.00000000000E+00 0.  1.
        -11    1    4    4    0    0 -0.93781370048E+01 -0.29438077931E+02 -0.11905364972E+02  0.33110234083E+02  0.00000000000E+00 0. -1.
         11    1    4    4    0    0 -0.32110744228E+02  0.61095146638E+02 -0.80878333692E+02  0.10632507559E+03  0.00000000000E+00 0.  1.
         -1    1    1    2    0  502 -0.56832011264E-01 -0.27408841446E+02  0.16375229850E+03  0.16603030772E+03  0.00000000000E+00 0.  1.
<scales pt_clust_5="13000.00000" pt_clust_6="13000.00000" pt_clust_7="13000.00000" pt_clust_8="13000.00000" pt_clust_9="27.40890"></scales>
<clustering>
<clus scale="   27.409">  1  9  2 -1</clus>
<clus scale="   90.055">  7  8 -1 -1</clus>
<clus scale="   90.958">  5  6 -1 -1</clus>
<clus scale="  100.657">  1  7  2 -1</clus>
<clus scale="   27.409">  1  5  2 -1</clus>
</clustering>
</event>
<event>
 9    1  0.1610296E-005  0.9895178E+02  0.7546771E-02  0.1283094E+00
         21   -1    0    0  501  502  0.00000000000E+00  0.00000000000E+00  0.40174918290E+03  0.40174918290E+03  0.00000000000E+00 0. -1.
         -2   -1    0    0    0  501 -0.00000000000E+00 -0.00000000000E+00 -0.37818929745E+02  0.37818929745E+02  0.00000000000E+00 0.  1.
         23    2    1    2    0    0 -0.23295281331E+02 -0.83565601648E+01  0.69998191275E+02  0.12015460068E+03  0.94471578019E+02 0.  0.
         23    2    1    2    0    0  0.42626329372E+02 -0.29860382416E+00  0.22487149411E+03  0.24717804074E+03  0.93341854712E+02 0.  0.
        -11    1    4    4    0    0 -0.20032033153E+02 -0.27917699107E+01  0.85634775553E+01  0.21963822057E+02  0.00000000000E+00 0.  1.
         11    1    4    4    0    0  0.62658362525E+02  0.24931660866E+01  0.21630801655E+03  0.22521421868E+03  0.00000000000E+00 0. -1.
        -13    1    3    3    0    0 -0.51814725882E+02  0.70225680873E+01  0.70468947260E+02  0.87749386372E+02  0.00000000000E+00 0.  1.
         13    1    3    3    0    0  0.28519444551E+02 -0.15379128252E+02 -0.47075598493E+00  0.32405214311E+02  0.00000000000E+00 0. -1.
         -2    1    1    2    0  502 -0.19331048041E+02  0.86551639889E+01  0.69060567773E+02  0.72235471226E+02  0.00000000000E+00 0.  1.
<scales pt_clust_5="13000.00000" pt_clust_6="13000.00000" pt_clust_7="13000.00000" pt_clust_8="13000.00000" pt_clust_9="21.18021"></scales>
<clustering>
<clus scale="   21.180">  1  9  2 -1</clus>
<clus scale="   93.342">  5  6 -1 -1</clus>
<clus scale="   94.472">  7  8 -1 -1</clus>
<clus scale="   97.874">  1  5  2 -1</clus>
<clus scale="   21.180">  1  5  2 -1</clus>
</clustering>
</event>
<event>
 9    1  0.1610296E-005  0.1107483E+03  0.7546771E-02  0.1259590E+00
         21   -1    0    0  501  502  0.00000000000E+00  0.00000000000E+00  0.57320187167E+02  0.57320187167E+02  0.00000000000E+00 0.  1.
          2   -1    0    0  502    0 -0.00000000000E+00 -0.00000000000E+00 -0.32530819914E+03  0.32530819914E+03  0.00000000000E+00 0. -1.
         23    2    1    2    0    0 -0.62157322218E+02  0.20573761282E+02 -0.21586807923E+03  0.24349546253E+03  0.91674425463E+02 0.  0.
         23    2    1    2    0    0  0.55130140949E+02  0.90100709802E-01 -0.36068521956E+02  0.11204004173E+03  0.90623904774E+02 0.  0.
        -11    1    4    4    0    0  0.66791661737E+02 -0.26336013849E+02 -0.41088501205E+02  0.82722286201E+02  0.00000000000E+00 0.  1.
         11    1    4    4    0    0 -0.11661520789E+02  0.26426114559E+02  0.50199792491E+01  0.29317755532E+02  0.00000000000E+00 0. -1.
        -13    1    3    3    0    0  0.37268896666E+01  0.27002803460E+02 -0.14077729198E+03  0.14339207453E+03  0.00000000000E+00 0. -1.
         13    1    3    3    0    0 -0.65884211885E+02 -0.64290421778E+01 -0.75090787251E+02  0.10010338800E+03  0.00000000000E+00 0.  1.
          2    1    1    2  501    0  0.70271812696E+01 -0.20663861992E+02 -0.16051410781E+02  0.27092882037E+02  0.00000000000E+00 0. -1.
<scales pt_clust_5="13000.00000" pt_clust_6="13000.00000" pt_clust_7="13000.00000" pt_clust_8="13000.00000" pt_clust_9="21.82605"></scales>
<clustering>
<clus scale="   21.826">  1  9  2 -1</clus>
<clus scale="   90.624">  5  6 -1 -1</clus>
<clus scale="   91.674">  7  8 -1 -1</clus>
<clus scale="  109.880">  1  5  2 -1</clus>
<clus scale="   21.826">  1  5  2 -1</clus>
</clustering>
</event>
<event>
 9    1  0.1610296E-005  0.1215980E+03  0.7546771E-02  0.1240822E+00
         21   -1    0    0  501  502  0.00000000000E+00  0.00000000000E+00  0.21087559290E+03  0.21087559290E+03  0.00000000000E+00 0. -1.
          3   -1    0    0  502    0 -0.00000000000E+00 -0.00000000000E+00 -0.20743089069E+03  0.20743089069E+03  0.00000000000E+00 0. -1.
         23    2    1    2    0    0  0.56291127436E+02  0.56422542089E+02 -0.11313471761E+03  0.16521269784E+03  0.90241769232E+02 0.  0.
         23    2    1    2    0    0 -0.84641640555E+02 -0.26379789125E+02 -0.22199960874E+01  0.12731771562E+03  0.91349722155E+02 0.  0.
        -11    1    3    3    0    0 -0.11335633680E+02 -0.16946077415E+02 -0.23165415816E+02  0.30859400847E+02  0.00000000000E+00 0.  1.
         11    1    3    3    0    0  0.67626761116E+02  0.73368619504E+02 -0.89969301795E+02  0.13435329699E+03  0.00000000000E+00 0. -1.
        -11    1    4    4    0    0 -0.62484782518E+02  0.28079682833E+02 -0.11822964248E+01  0.68514337617E+02  0.00000000000E+00 0. -1.
         11    1    4    4    0    0 -0.22156858038E+02 -0.54459471957E+02 -0.10376996626E+01  0.58803378003E+02  0.00000000000E+00 0.  1.
          3    1    1    2  501    0  0.28350513120E+02 -0.30042752965E+02  0.11879941591E+03  0.12577607014E+03  0.00000000000E+00 0. -1.
<scales pt_clust_5="13000.00000" pt_clust_6="13000.00000" pt_clust_7="13000.00000" pt_clust_8="13000.00000" pt_clust_9="41.30761"></scales>
<clustering>
<clus scale="   41.308">  1  9  2 -1</clus>
<clus scale="   90.242">  5  6 -1 -1</clus>
<clus scale="   91.350">  7  8 -1 -1</clus>
<clus scale="  120.768">  2  5  1 -1</clus>
<clus scale="   41.308">  1  5  2 -1</clus>
</clustering>
</event>
<event>
 9    1  0.1610296E-005  0.9503097E+02  0.7546771E-02  0.1293549E+00
         -2   -1    0    0    0  501 -0.00000000000E+00  0.00000000000E+00  0.15161379564E+03  0.15161379564E+03  0.00000000000E+00 0.  1.
         21   -1    0    0  501  502  0.00000000000E+00 -0.00000000000E+00 -0.98352088257E+02  0.98352088257E+02  0.00000000000E+00 0. -1.
         23    2    1    2    0    0 -0.63147041424E+01  0.94778034384E+01  0.31768045555E+02  0.94273755473E+02  0.88026291562E+02 0.  0.
         23    2    1    2    0    0  0.48318426759E+02  0.11513648546E+02  0.21755956116E+01  0.10491672638E+03  0.92388050046E+02 0.  0.
        -13    1    3    3    0    0 -0.37431324184E+02 -0.86319741853E+01  0.41928252825E+02  0.56864693734E+02  0.00000000000E+00 0. -1.
         13    1    3    3    0    0  0.31116620042E+02  0.18109777624E+02 -0.10160207270E+02  0.37409061739E+02  0.00000000000E+00 0.  1.
        -13    1    4    4    0    0  0.33369597018E+02 -0.40193379742E+01  0.45474801884E+02  0.56547702776E+02  0.00000000000E+00 0.  1.
         13    1    4    4    0    0  0.14948829741E+02  0.15532986520E+02 -0.43299206272E+02  0.48369023607E+02  0.00000000000E+00 0. -1.
         -2    1    1    2    0  502 -0.42003722616E+02 -0.20991451984E+02  0.19318066214E+02  0.50775402040E+02  0.00000000000E+00 0.  1.
<scales pt_clust_5="13000.00000" pt_clust_6="13000.00000" pt_clust_7="13000.00000" pt_clust_8="13000.00000" pt_clust_9="46.95696"></scales>
<clustering>
<clus scale="   46.957">  2  9  1 -1</clus>
<clus scale="   88.026">  5  6 -1 -1</clus>
<clus scale="   90.796">  1  5  2 -1</clus>
<clus scale="   92.388">  7  8 -1 -1</clus>
<clus scale="   46.957">  2  5  1 -1</clus>
</clustering>
</event>
<event>
 9    1  0.1610296E-005  0.2043861E+03  0.7546771E-02  0.1181932E+00
         -2   -1    0    0    0  501 -0.00000000000E+00  0.00000000000E+00  0.27974040538E+03  0.27974040538E+03  0.00000000000E+00 0.  1.
         21   -1    0    0  501  502  0.00000000000E+00 -0.00000000000E+00 -0.39094571750E+03  0.39094571750E+03  0.00000000000E+00 0. -1.
         23    2    1    2    0    0 -0.65021632915E+01  0.37048244336E+02  0.12315187182E+03  0.15208627516E+03  0.80925898344E+02 0.  0.
         23    2    1    2    0    0  0.17170558807E+03 -0.10457020350E+03  0.39112440267E+01  0.22090330711E+03  0.91461668635E+02 0.  0.
        -11    1    4    4    0    0  0.18701416662E+02  0.10566593373E+02  0.19197216404E+02  0.28808488304E+02  0.00000000000E+00 0.  1.
         11    1    4    4    0    0  0.15300417141E+03 -0.11513679687E+03 -0.15285972378E+02  0.19209481881E+03  0.00000000000E+00 0. -1.
        -13    1    3    3    0    0 -0.26135654939E+02  0.56052927204E+02  0.82623099961E+02  0.10320649085E+03  0.00000000000E+00 0. -1.
         13    1    3    3    0    0  0.19633491648E+02 -0.19004682868E+02  0.40528771861E+02  0.48879784305E+02  0.00000000000E+00 0.  1.
         -2    1    1    2    0  502 -0.16520342478E+03  0.67521959161E+02 -0.23826842797E+03  0.29769654062E+03  0.00000000000E+00 0.  1.
<scales pt_clust_5="13000.00000" pt_clust_6="13000.00000" pt_clust_7="13000.00000" pt_clust_8="13000.00000" pt_clust_9="182.77974"></scales>
<clustering>
<clus scale="   80.926">  7  8 -1 -1</clus>
<clus scale="   89.240">  1  7  2 -1</clus>
<clus scale="   91.462">  5  6 -1 -1</clus>
<clus scale="  182.780">  2  9  1 -1</clus>
<clus scale="  182.780">  2  5  1 -1</clus>
</clustering>
</event>
<event>
 9    1  0.1610296E-005  0.1313017E+03  0.7546771E-02  0.1228732E+00
         -1   -1    0    0    0  501 -0.00000000000E+00  0.00000000000E+00  0.36110540786E+03  0.36110540786E+03  0.00000000000E+00 0.  1.
         21   -1    0    0  501  502  0.00000000000E+00 -0.00000000000E+00 -0.13251025927E+03  0.13251025927E+03  0.00000000000E+00 0.  1.
         23    2    1    2    0    0  0.74896257358E+02 -0.33525769185E+02  0.18848384398E+03  0.22875000934E+03  0.10033434491E+03 0.  0.
         23    2    1    2    0    0 -0.89855323779E+01  0.77435815836E+02  0.97802415791E+02  0.16688310744E+03  0.11048807015E+03 0.  0.
        -11    1    4    4    0    0 -0.18046726298E+02 -0.16398670939E+02  0.60982126956E+02  0.65676636232E+02  0.00000000000E+00 0. -1.
         11    1    4    4    0    0  0.90611939205E+01  0.93834486775E+02  0.36820288834E+02  0.10120647120E+03  0.00000000000E+00 0.  1.
        -13    1    3    3    0    0  0.58322011435E+02 -0.67128240328E+02  0.15399154929E+03  0.17782310007E+03  0.00000000000E+00 0.  1.
         13    1    3    3    0    0  0.16574245923E+02  0.33602471143E+02  0.34492294695E+02  0.50926909274E+02  0.00000000000E+00 0. -1.
         -1    1    1    2    0  502 -0.65910724981E+02 -0.43910046652E+02 -0.57691111179E+02  0.97982550352E+02  0.00000000000E+00 0.  1.
<scales pt_clust_5="13000.00000" pt_clust_6="13000.00000" pt_clust_7="13000.00000" pt_clust_8="13000.00000" pt_clust_9="79.19795"></scales>
<clustering>
<clus scale="   79.198">  2  9  1 -1</clus>
<clus scale="  100.334">  7  8 -1 -1</clus>
<clus scale="  110.488">  5  6 -1 -1</clus>
<clus scale="  122.880">  1  7  2 -1</clus>
<clus scale="   79.198">  2  5  1 -1</clus>
</clustering>
</event>
<event>
 9    1  0.1610296E-005  0.9446121E+02  0.7546771E-02  0.1292716E+00
         21   -1    0    0  501  502  0.00000000000E+00  0.00000000000E+00  0.10009858910E+03  0.10009858910E+03  0.00000000000E+00 0. -1.
          3   -1    0    0  502    0 -0.00000000000E+00 -0.00000000000E+00 -0.26542332946E+03  0.26542332946E+03  0.00000000000E+00 0. -1.
         23    2    1    2    0    0  0.13010134617E+02  0.18810723862E+02 -0.17070865433E+03  0.19496673312E+03  0.91364519514E+02 0.  0.
         23    2    1    2    0    0 -0.36542932602E+02  0.14778150844E+02 -0.41464360374E+02  0.10829150506E+03  0.91945512241E+02 0.  0.
        -11    1    3    3    0    0 -0.74514512774E+01 -0.19700854645E+02 -0.25164008807E+01  0.21212733753E+02  0.00000000000E+00 0.  1.
         11    1    3    3    0    0  0.20461585894E+02  0.38511578506E+02 -0.16819225345E+03  0.17375399937E+03  0.00000000000E+00 0. -1.
        -13    1    4    4    0    0  0.23686288948E+01 -0.28276108634E+02  0.10635854453E+02  0.30302972169E+02  0.00000000000E+00 0.  1.
         13    1    4    4    0    0 -0.38911561497E+02  0.43054259478E+02 -0.52100214827E+02  0.77988532890E+02  0.00000000000E+00 0. -1.
          3    1    1    2  501    0  0.23532797985E+02 -0.33588874706E+02  0.46848274345E+02  0.62263680377E+02  0.00000000000E+00 0. -1.
<scales pt_clust_5="13000.00000" pt_clust_6="13000.00000" pt_clust_7="13000.00000" pt_clust_8="13000.00000" pt_clust_9="41.01226"></scales>
<clustering>
<clus scale="   41.012">  1  9  2 -1</clus>
<clus scale="   91.365">  5  6 -1 -1</clus>
<clus scale="   91.946">  7  8 -1 -1</clus>
<clus scale="   93.896">  2  5  1 -1</clus>
<clus scale="   41.012">  1  5  2 -1</clus>
</clustering>
</event>
<event>
 9    1  0.1610296E-005  0.1000343E+03  0.7546771E-02  0.1280888E+00
          3   -1    0    0  502    0 -0.00000000000E+00  0.00000000000E+00  0.10645087563E+03  0.10645087563E+03  0.00000000000E+00 0. -1.
         21   -1    0    0  501  502  0.00000000000E+00 -0.00000000000E+00 -0.16554957497E+03  0.16554957497E+03  0.00000000000E+00 0.  1.
         23    2    1    2    0    0 -0.28862294289E+02  0.21422449132E+02  0.40549893588E+02  0.10734840739E+03  0.92668405298E+02 0.  0.
         23    2    1    2    0    0  0.47894038376E+02 -0.31341126538E+01 -0.68525313736E+02  0.12384359995E+03  0.91311866980E+02 0.  0.
        -11    1    4    4    0    0  0.25225832799E+02 -0.13406777175E+02  0.18030184670E+02  0.33781235529E+02  0.00000000000E+00 0. -1.
         11    1    4    4    0    0  0.22668205577E+02  0.10272664522E+02 -0.86555498406E+02  0.90062364419E+02  0.00000000000E+00 0.  1.
        -11    1    3    3    0    0 -0.58702813213E+02 -0.43950766668E+01  0.31891529948E+02  0.66950777893E+02  0.00000000000E+00 0.  1.
         11    1    3    3    0    0  0.29840518924E+02  0.25817525798E+02  0.86583636401E+01  0.40397629496E+02  0.00000000000E+00 0. -1.
          3    1    1    2  501    0 -0.19031744087E+02 -0.18288336478E+02 -0.31123279194E+02  0.40808443268E+02  0.00000000000E+00 0. -1.
<scales pt_clust_5="13000.00000" pt_clust_6="13000.00000" pt_clust_7="13000.00000" pt_clust_8="13000.00000" pt_clust_9="26.39452"></scales>
<clustering>
<clus scale="   26.395">  2  9  1 -1</clus>
<clus scale="   91.312">  5  6 -1 -1</clus>
<clus scale="   92.668">  7  8 -1 -1</clus>
<clus scale="   98.779">  2  5  1 -1</clus>
<clus scale="   26.395">  2  5  1 -1</clus>
</clustering>
</event>
<event>
 9    1  0.1610296E-005  0.9973208E+02  0.7546771E-02  0.1282131E+00
          1   -1    0    0  502    0 -0.00000000000E+00  0.00000000000E+00  0.62658202595E+03  0.62658202595E+03  0.00000000000E+00 0. -1.
         21   -1    0    0  501  502  0.00000000000E+00 -0.00000000000E+00 -0.37782651039E+02  0.37782651039E+02  0.00000000000E+00 0.  1.
         23    2    1    2    0    0  0.28692141958E+02  0.58560859118E+02  0.27418212064E+03  0.29725798717E+03  0.94519111440E+02 0.  0.
         23    2    1    2    0    0  0.33481859628E+02  0.49418632257E+01  0.13659972594E+03  0.16813824355E+03  0.92008297887E+02 0.  0.
        -11    1    3    3    0    0  0.62934109609E+01 -0.23016071421E+02  0.11005350984E+03  0.11261048616E+03  0.00000000000E+00 0. -1.
         11    1    3    3    0    0  0.22398730997E+02  0.81576930539E+02  0.16412861081E+03  0.18464750102E+03  0.00000000000E+00 0.  1.
        -11    1    4    4    0    0  0.36250408577E+02  0.42092063597E+02  0.53745690699E+02  0.77294457813E+02  0.00000000000E+00 0. -1.
         11    1    4    4    0    0 -0.27685489493E+01 -0.37150200371E+02  0.82854035242E+02  0.90843785736E+02  0.00000000000E+00 0.  1.
          1    1    1    2  501    0 -0.62174001586E+02 -0.63502722344E+02  0.17801752833E+03  0.19896844627E+03  0.00000000000E+00 0. -1.
<scales pt_clust_5="13000.00000" pt_clust_6="13000.00000" pt_clust_7="13000.00000" pt_clust_8="13000.00000" pt_clust_9="88.87187"></scales>
<clustering>
<clus scale="   88.872">  2  9  1 -1</clus>
<clus scale="   92.008">  7  8 -1 -1</clus>
<clus scale="   94.519">  5  6 -1 -1</clus>
<clus scale="   97.356">  2  7  1 -1</clus>
<clus scale="   88.872">  2  5  1 -1</clus>
</clustering>
</event>
<event>
 9    1  0.1610296E-005  0.1022725E+03  0.7546771E-02  0.1277448E+00
         21   -1    0    0  501  502  0.00000000000E+00  0.00000000000E+00  0.57642513539E+02  0.57642513539E+02  0.00000000000E+00 0.  1.
          3   -1    0    0  502    0 -0.00000000000E+00 -0.00000000000E+00 -0.30547823861E+03  0.30547823861E+03  0.00000000000E+00 0. -1.
         23    2    1    2    0    0 -0.39447540019E+02  0.71827100852E+01 -0.17345274783E+03  0.20015421866E+03  0.91477624469E+02 0.  0.
         23    2    1    2    0    0  0.51357285877E+02 -0.24986589854E+02 -0.88836864635E+02  0.13712596380E+03  0.87462225820E+02 0.  0.
        -11    1    4    4    0    0  0.74716875688E+02 -0.13208361377E+02 -0.52158522618E+02  0.92073795428E+02  0.00000000000E+00 0.  1.
         11    1    4    4    0    0 -0.23359589810E+02 -0.11778228476E+02 -0.36678342017E+02  0.45052168375E+02  0.00000000000E+00 0. -1.
        -11    1    3    3    0    0 -0.45420624728E+02  0.36356345937E+02 -0.15390060130E+03  0.16453027722E+03  0.00000000000E+00 0. -1.
         11    1    3    3    0    0  0.59730847089E+01 -0.29173635852E+02 -0.19552146529E+02  0.35623941439E+02  0.00000000000E+00 0.  1.
          3    1    1    2  501    0 -0.11909745858E+02  0.17803879768E+02  0.14453887393E+02  0.25840569691E+02  0.00000000000E+00 0. -1.
<scales pt_clust_5="13000.00000" pt_clust_6="13000.00000" pt_clust_7="13000.00000" pt_clust_8="13000.00000" pt_clust_9="21.42009"></scales>
<clustering>
<clus scale="   21.420">  1  9  2 -1</clus>
<clus scale="   87.462">  5  6 -1 -1</clus>
<clus scale="   91.478">  7  8 -1 -1</clus>
<clus scale="   98.697">  1  5  2 -1</clus>
<clus scale="   21.420">  1  5  2 -1</clus>
</clustering>
</event>
<event>
 9    1  0.1610296E-005  0.1353407E+03  0.7546771E-02  0.1225401E+00
          2   -1    0    0  502    0 -0.00000000000E+00  0.00000000000E+00  0.64302901621E+03  0.64302901621E+03  0.00000000000E+00 0. -1.
         21   -1    0    0  501  502  0.00000000000E+00 -0.00000000000E+00 -0.10705824056E+03  0.10705824056E+03  0.00000000000E+00 0. -1.
         23    2    1    2    0    0  0.65434435633E+02  0.42888354294E+02  0.58734076938E+03  0.60288914177E+03  0.11128819158E+03 0.  0.
         23    2    1    2    0    0 -0.42969769840E+02 -0.50004145012E+02 -0.48780200768E+02  0.12349151857E+03  0.92324598748E+02 0.  0.
        -11    1    4    4    0    0 -0.49459079855E+02  0.11577653007E+02 -0.28973098003E+02  0.58478056031E+02  0.00000000000E+00 0.  1.
         11    1    4    4    0    0  0.64893100150E+01 -0.61581798019E+02 -0.19807102765E+02  0.65013462542E+02  0.00000000000E+00 0. -1.
        -13    1    3    3    0    0 -0.78686855188E+01 -0.29501093460E+02  0.91529322509E+02  0.96487551560E+02  0.00000000000E+00 0.  1.
         13    1    3    3    0    0  0.73303121152E+02  0.72389447754E+02  0.49581144687E+03  0.50640159021E+03  0.00000000000E+00 0. -1.
          2    1    1    2  501    0 -0.22464665793E+02  0.71157907181E+01 -0.25897929656E+01  0.23706596431E+02  0.00000000000E+00 0. -1.
<scales pt_clust_5="13000.00000" pt_clust_6="13000.00000" pt_clust_7="13000.00000" pt_clust_8="13000.00000" pt_clust_9="23.56471"></scales>
<clustering>
<clus scale="   23.565">  2  9  1 -1</clus>
<clus scale="   92.325">  5  6 -1 -1</clus>
<clus scale="  111.288">  7  8 -1 -1</clus>
<clus scale="  120.233">  2  5  1 -1</clus>
<clus scale="   23.565">  2  5  1 -1</clus>
</clustering>
</event>
<event>
 9    1  0.1610296E-005  0.2247865E+03  0.7546771E-02  0.1130459E+00
          2   -1    0    0  502    0 -0.00000000000E+00  0.00000000000E+00  0.15990818037E+04  0.15990818037E+04  0.00000000000E+00 0. -1.
         21   -1    0    0  501  502  0.00000000000E+00 -0.00000000000E+00 -0.49600085198E+02  0.49600085198E+02  0.00000000000E+00 0. -1.
         23    2    1    2    0    0 -0.86164857131E+02  0.19971036166E+03  0.10798474574E+04  0.11053636257E+04  0.91921720262E+02 0.  0.
         23    2    1    2    0    0  0.80756530812E+02 -0.16562694839E+03  0.46522233159E+03  0.50852754346E+03  0.90634106950E+02 0.  0.
        -13    1    3    3    0    0 -0.76922384340E+01  0.12488320833E+03  0.49636543951E+03  0.51189221111E+03  0.00000000000E+00 0.  1.
         13    1    3    3    0    0 -0.78472618696E+02  0.74827153337E+02  0.58348201792E+03  0.59347141464E+03  0.00000000000E+00 0. -1.
        -13    1    4    4    0    0  0.55522483113E+02 -0.16941765356E+03  0.42518164770E+03  0.46104720042E+03  0.00000000000E+00 0. -1.
         13    1    4    4    0    0  0.25234047699E+02  0.37907051726E+01  0.40040683888E+02  0.47480343040E+02  0.00000000000E+00 0.  1.
          2    1    1    2  501    0  0.54083263189E+01 -0.34083413275E+02  0.44119294702E+01  0.34790719677E+02  0.00000000000E+00 0. -1.
<scales pt_clust_5="13000.00000" pt_clust_6="13000.00000" pt_clust_7="13000.00000" pt_clust_8="13000.00000" pt_clust_9="34.50984"></scales>
<clustering>
<clus scale="   34.510">  2  9  1 -1</clus>
<clus scale="   90.634">  7  8 -1 -1</clus>
<clus scale="   91.922">  5  6 -1 -1</clus>
<clus scale="  224.263">  2  7  1 -1</clus>
<clus scale="   34.510">  2  5  1 -1</clus>
</clustering>
</event>
<event>
 9    1  0.1610296E-005  0.1027601E+03  0.7546771E-02  0.1275371E+00
         -2   -1    0    0    0  501 -0.00000000000E+00  0.00000000000E+00  0.68658923429E+03  0.68658923429E+03  0.00000000000E+00 0.  1.
         21   -1    0    0  501  502  0.00000000000E+00 -0.00000000000E+00 -0.60836876873E+02  0.60836876873E+02  0.00000000000E+00 0.  1.
         23    2    1    2    0    0 -0.25787141054E+02  0.40593292447E+02  0.31027170613E+03  0.32634308959E+03  0.88985889131E+02 0.  0.
         23    2    1    2    0    0  0.68847600512E+02  0.12381611403E+02  0.33169422137E+03  0.35091591060E+03  0.90706247998E+02 0.  0.
        -11    1    4    4    0    0 -0.67984901942E+00 -0.26958851161E+02  0.38307790419E+02  0.46847931197E+02  0.00000000000E+00 0. -1.
         11    1    4    4    0    0  0.69527449531E+02  0.39340462564E+02  0.29338643095E+03  0.30406797941E+03  0.00000000000E+00 0.  1.
        -11    1    3    3    0    0 -0.24871722222E+02  0.68564914950E+02  0.23370076903E+03  0.24481789063E+03  0.00000000000E+00 0. -1.
         11    1    3    3    0    0 -0.91541883143E+00 -0.27971622503E+02  0.76570937097E+02  0.81525198957E+02  0.00000000000E+00 0.  1.
         -2    1    1    2    0  502 -0.43060459458E+02 -0.52974903850E+02 -0.16213570084E+02  0.70167110967E+02  0.00000000000E+00 0.  1.
<scales pt_clust_5="13000.00000" pt_clust_6="13000.00000" pt_clust_7="13000.00000" pt_clust_8="13000.00000" pt_clust_9="68.26817"></scales>
<clustering>
<clus scale="   68.268">  2  9  1 -1</clus>
<clus scale="   88.986">  7  8 -1 -1</clus>
<clus scale="   90.706">  5  6 -1 -1</clus>
<clus scale="  101.245">  1  7  2 -1</clus>
<clus scale="   68.268">  2  5  1 -1</clus>
</clustering>
</event>
<event>
 9    1  0.1610296E-005  0.1410161E+03  0.7546771E-02  0.1212229E+00
         21   -1    0    0  501  502  0.00000000000E+00  0.00000000000E+00  0.19620486519E+03  0.19620486519E+03  0.00000000000E+00 0.  1.
         -2   -1    0    0    0  501 -0.00000000000E+00 -0.00000000000E+00 -0.17475842548E+03  0.17475842548E+03  0.00000000000E+00 0.  1.
         23    2    1    2    0    0  0.79928500052E+02  0.82208556595E+02 -0.89267860406E+02  0.17096943103E+03  0.90083203463E+02 0.  0.
         23    2    1    2    0    0 -0.65090146483E+02 -0.62522543061E+02  0.56150027698E+02  0.14011919313E+03  0.91294945709E+02 0.  0.
        -11    1    4    4    0    0 -0.74845581376E+02 -0.28095195203E+02  0.83075643839E+01  0.80375473068E+02  0.00000000000E+00 0.  1.
         11    1    4    4    0    0  0.97554348929E+01 -0.34427347858E+02  0.47842463314E+02  0.59743720059E+02  0.00000000000E+00 0. -1.
        -11    1    3    3    0    0  0.70013184320E+00  0.62619359827E+02 -0.51314538511E+02  0.80962066873E+02  0.00000000000E+00 0.  1.
         11    1    3    3    0    0  0.79228368209E+02  0.19589196768E+02 -0.37953321895E+02  0.90007364154E+02  0.00000000000E+00 0. -1.
         -2    1    1    2    0  502 -0.14838353569E+02 -0.19686013534E+02  0.54564272418E+02  0.59874666512E+02  0.00000000000E+00 0.  1.
<scales pt_clust_5="13000.00000" pt_clust_6="13000.00000" pt_clust_7="13000.00000" pt_clust_8="13000.00000" pt_clust_9="24.65189"></scales>
<clustering>
<clus scale="   24.652">  1  9  2 -1</clus>
<clus scale="   90.083">  7  8 -1 -1</clus>
<clus scale="   91.295">  5  6 -1 -1</clus>
<clus scale="  140.235">  2  7  1 -1</clus>
<clus scale="   24.652">  1  5  2 -1</clus>
</clustering>
</event>
<event>
 9    1  0.1610296E-005  0.1361292E+03  0.7546771E-02  0.1219455E+00
         -4   -1    0    0    0  501 -0.00000000000E+00  0.00000000000E+00  0.11521744455E+03  0.11521744455E+03  0.00000000000E+00 0.  1.
         21   -1    0    0  501  502  0.00000000000E+00 -0.00000000000E+00 -0.53860634016E+03  0.53860634016E+03  0.00000000000E+00 0.  1.
         23    2    1    2    0    0 -0.89572180496E+02 -0.44408990155E+02  0.32920530783E+02  0.13847186677E+03  0.89974233063E+02 0.  0.
         23    2    1    2    0    0  0.64006369641E+02  0.81547380742E+02 -0.14664954377E+03  0.20242682523E+03  0.93400964806E+02 0.  0.
        -13    1    4    4    0    0  0.31614319463E+02 -0.16926410326E+02 -0.36541322469E+02  0.51198015679E+02  0.00000000000E+00 0. -1.
         13    1    4    4    0    0  0.32392050178E+02  0.98473791068E+02 -0.11010822130E+03  0.15122880956E+03  0.00000000000E+00 0.  1.
        -13    1    3    3    0    0 -0.19043539595E+02  0.10003563006E+02 -0.24412388405E+02  0.32537553392E+02  0.00000000000E+00 0. -1.
         13    1    3    3    0    0 -0.70528640902E+02 -0.54412553161E+02  0.57332919188E+02  0.10593431338E+03  0.00000000000E+00 0.  1.
         -4    1    1    2    0  502  0.25565810855E+02 -0.37138390587E+02 -0.30965988262E+03  0.31292509271E+03  0.00000000000E+00 0.  1.
<scales pt_clust_5="13000.00000" pt_clust_6="13000.00000" pt_clust_7="13000.00000" pt_clust_8="13000.00000" pt_clust_9="45.08737"></scales>
<clustering>
<clus scale="   45.087">  2  9  1 -1</clus>
<clus scale="   89.974">  7  8 -1 -1</clus>
<clus scale="   93.401">  5  6 -1 -1</clus>
<clus scale="  133.801">  1  7  2 -1</clus>
<clus scale="   45.087">  2  5  1 -1</clus>
</clustering>
</event>
<event>
 9    1  0.1610296E-005  0.9689591E+02  0.7546771E-02  0.1288199E+00
         -4   -1    0    0    0  501 -0.00000000000E+00  0.00000000000E+00  0.88569529520E+02  0.88569529520E+02  0.00000000000E+00 0.  1.
         21   -1    0    0  501  502  0.00000000000E+00 -0.00000000000E+00 -0.15694512470E+03  0.15694512470E+03  0.00000000000E+00 0. -1.
         23    2    1    2    0    0 -0.45257265891E+02  0.27154929914E+01  0.61104996902E+01  0.10133243384E+03  0.90417531059E+02 0.  0.
         23    2    1    2    0    0  0.16675101614E+02  0.13451497534E+02 -0.55753067843E+02  0.10637695621E+03  0.88026418986E+02 0.  0.
        -11    1    4    4    0    0  0.14752178663E+02  0.48490838540E+02 -0.49279670369E+02  0.70692815118E+02  0.00000000000E+00 0. -1.
         11    1    4    4    0    0  0.19229229513E+01 -0.35039341006E+02 -0.64733974740E+01  0.35684141095E+02  0.00000000000E+00 0.  1.
        -13    1    3    3    0    0  0.97097231133E-01 -0.31171356544E+02  0.26746076847E+02  0.41073294528E+02  0.00000000000E+00 0.  1.
         13    1    3    3    0    0 -0.45354363123E+02  0.33886849535E+02 -0.20635577157E+02  0.60259139309E+02  0.00000000000E+00 0. -1.
         -4    1    1    2    0  502  0.28582164277E+02 -0.16166990525E+02 -0.18733027028E+02  0.37805264171E+02  0.00000000000E+00 0.  1.
<scales pt_clust_5="13000.00000" pt_clust_6="13000.00000" pt_clust_7="13000.00000" pt_clust_8="13000.00000" pt_clust_9="32.83766"></scales>
<clustering>
<clus scale="   32.838">  2  9  1 -1</clus>
<clus scale="   88.026">  5  6 -1 -1</clus>
<clus scale="   90.418">  7  8 -1 -1</clus>
<clus scale="   94.669">  2  5  1 -1</clus>
<clus scale="   32.838">  2  5  1 -1</clus>
</clustering>
</event>
<event>
 9    1  0.1610296E-005  0.9359818E+02  0.7546771E-02  0.1294616E+00
         21   -1    0    0  501  502  0.00000000000E+00  0.00000000000E+00  0.27933783058E+03  0.27933783058E+03  0.00000000000E+00 0. -1.
          1   -1    0    0  502    0 -0.00000000000E+00 -0.00000000000E+00 -0.69898398610E+02  0.69898398610E+02  0.00000000000E+00 0. -1.
         23    2    1    2    0    0  0.86746844491E+01  0.13060956104E+01  0.20128540200E+02  0.94868089529E+02  0.92292146168E+02 0.  0.
         23    2    1    2    0    0 -0.15966623503E+02 -0.20936715499E+02  0.39981536281E+02  0.10357758948E+03  0.91850501782E+02 0.  0.
        -11    1    3    3    0    0  0.11084461460E+01  0.33558019284E+02  0.43041323678E+02  0.54588687977E+02  0.00000000000E+00 0.  1.
         11    1    3    3    0    0  0.75662383031E+01 -0.32251923673E+02 -0.22912783478E+02  0.40279401552E+02  0.00000000000E+00 0. -1.
        -13    1    4    4    0    0 -0.39442031943E+02 -0.44336165798E+02  0.37805463493E+02  0.70360660538E+02  0.00000000000E+00 0. -1.
         13    1    4    4    0    0  0.23475408440E+02  0.23399450299E+02  0.21760727879E+01  0.33216928944E+02  0.00000000000E+00 0.  1.
          1    1    1    2  501    0  0.72919390540E+01  0.19630619888E+02  0.14932935549E+03  0.15079055018E+03  0.00000000000E+00 0. -1.
<scales pt_clust_5="13000.00000" pt_clust_6="13000.00000" pt_clust_7="13000.00000" pt_clust_8="13000.00000" pt_clust_9="20.94119"></scales>
<clustering>
<clus scale="   20.941">  1  9  2 -1</clus>
<clus scale="   91.851">  7  8 -1 -1</clus>
<clus scale="   92.292">  5  6 -1 -1</clus>
<clus scale="   93.163">  1  7  2 -1</clus>
<clus scale="   20.941">  1  5  2 -1</clus>
</clustering>
</event>
<event>
 9    1  0.1610296E-005  0.1516169E+03  0.7546771E-02  0.1201472E+00
          2   -1    0    0  502    0 -0.00000000000E+00  0.00000000000E+00  0.24541752787E+03  0.24541752787E+03  0.00000000000E+00 0. -1.
         21   -1    0    0  501  502  0.00000000000E+00 -0.00000000000E+00 -0.36026949143E+03  0.36026949143E+03  0.00000000000E+00 0. -1.
         23    2    1    2    0    0  0.29036390563E+02  0.11074275434E+03  0.16640560234E+03  0.22203304435E+03  0.92199667463E+02 0.  0.
         23    2    1    2    0    0  0.99143677868E+01 -0.90077531371E+02 -0.50128520028E+02  0.14835661231E+03  0.10622880753E+03 0.  0.
        -11    1    4    4    0    0 -0.29806238632E+02  0.10280006135E+02 -0.14425474672E+02  0.34672535342E+02  0.00000000000E+00 0.  1.
         11    1    4    4    0    0  0.39720606419E+02 -0.10035753751E+03 -0.35703045357E+02  0.11368407697E+03  0.00000000000E+00 0. -1.
        -11    1    3    3    0    0 -0.19626042068E+02  0.58539141149E+02  0.31266664550E+02  0.69207058064E+02  0.00000000000E+00 0. -1.
         11    1    3    3    0    0  0.48662432630E+02  0.52203613193E+02  0.13513893779E+03  0.15282598629E+03  0.00000000000E+00 0.  1.
          2    1    1    2  501    0 -0.38950758350E+02 -0.20665222972E+02 -0.23112904587E+03  0.23529736263E+03  0.00000000000E+00 0. -1.
<scales pt_clust_5="13000.00000" pt_clust_6="13000.00000" pt_clust_7="13000.00000" pt_clust_8="13000.00000" pt_clust_9="44.09323"></scales>
<clustering>
<clus scale="   44.093">  2  9  1 -1</clus>
<clus scale="   92.200">  7  8 -1 -1</clus>
<clus scale="  106.229">  5  6 -1 -1</clus>
<clus scale="  142.140">  1  7  2 -1</clus>
<clus scale="   44.093">  2  5  1 -1</clus>
</clustering>
</event>
<event>
 9    1  0.1610296E-005  0.1086133E+03  0.7546771E-02  0.1264611E+00
          3   -1    0    0  502    0 -0.00000000000E+00  0.00000000000E+00  0.28524976897E+02  0.28524976897E+02  0.00000000000E+00 0. -1.
         21   -1    0    0  501  502  0.00000000000E+00 -0.00000000000E+00 -0.67323005465E+03  0.67323005465E+03  0.00000000000E+00 0. -1.
         23    2    1    2    0    0 -0.21041928316E+02 -0.19184336862E+02 -0.21542753155E+03  0.23834615800E+03  0.97923787489E+02 0.  0.
         23    2    1    2    0    0  0.67005078755E+02  0.15661234526E+02 -0.22033676259E+03  0.24944328168E+03  0.94544735324E+02 0.  0.
        -13    1    4    4    0    0 -0.10528002640E+02  0.18033327462E+02 -0.12406349497E+03  0.12580854709E+03  0.00000000000E+00 0.  1.
         13    1    4    4    0    0  0.77533081395E+02 -0.23720929352E+01 -0.96273267629E+02  0.12363473458E+03  0.00000000000E+00 0. -1.
        -13    1    3    3    0    0 -0.29246853791E+02 -0.55745970150E+02 -0.11413325158E+03  0.13034335718E+03  0.00000000000E+00 0.  1.
         13    1    3    3    0    0  0.82049254746E+01  0.36561633288E+02 -0.10129427997E+03  0.10800280083E+03  0.00000000000E+00 0. -1.
          3    1    1    2  501    0 -0.45963150439E+02  0.35231023355E+01 -0.20894078361E+03  0.21396559187E+03  0.00000000000E+00 0. -1.
<scales pt_clust_5="13000.00000" pt_clust_6="13000.00000" pt_clust_7="13000.00000" pt_clust_8="13000.00000" pt_clust_9="46.09798"></scales>
<clustering>
<clus scale="   46.098">  2  9  1 -1</clus>
<clus scale="   94.545">  5  6 -1 -1</clus>
<clus scale="   97.924">  7  8 -1 -1</clus>
<clus scale="  105.577">  2  5  1 -1</clus>
<clus scale="   46.098">  2  5  1 -1</clus>
</clustering>
</event>
<event>
 9    1  0.1610296E-005  0.1362814E+03  0.7546771E-02  0.1219002E+00
         21   -1    0    0  501  502  0.00000000000E+00  0.00000000000E+00  0.31114343456E+03  0.31114343456E+03  0.00000000000E+00 0. -1.
          1   -1    0    0  502    0 -0.00000000000E+00 -0.00000000000E+00 -0.31099446264E+03  0.31099446264E+03  0.00000000000E+00 0. -1.
         23    2    1    2    0    0 -0.98590911903E+02  0.89458620220E+01 -0.26130498033E+03  0.29514130003E+03  0.95015250777E+02 0.  0.
         23    2    1    2    0    0  0.88979143429E+02  0.27616214368E+02  0.11138871511E+03  0.17224277034E+03  0.92629276248E+02 0.  0.
        -11    1    3    3    0    0 -0.29095384512E+02 -0.41894485545E+02 -0.10275623939E+03  0.11471937087E+03  0.00000000000E+00 0.  1.
         11    1    3    3    0    0 -0.69495527391E+02  0.50840347567E+02 -0.15854874094E+03  0.18042192916E+03  0.00000000000E+00 0. -1.
        -11    1    4    4    0    0  0.86218865545E+02 -0.15940608297E+02  0.76670588890E+02  0.11647392399E+03  0.00000000000E+00 0.  1.
         11    1    4    4    0    0  0.27602778836E+01  0.43556822665E+02  0.34718126223E+02  0.55768846350E+02  0.00000000000E+00 0. -1.
          1    1    1    2  501    0  0.96117684741E+01 -0.36562076390E+02  0.15006523714E+03  0.15475382683E+03  0.00000000000E+00 0. -1.
<scales pt_clust_5="13000.00000" pt_clust_6="13000.00000" pt_clust_7="13000.00000" pt_clust_8="13000.00000" pt_clust_9="37.80438"></scales>
<clustering>
<clus scale="   37.804">  1  9  2 -1</clus>
<clus scale="   92.629">  7  8 -1 -1</clus>
<clus scale="   95.015">  5  6 -1 -1</clus>
<clus scale="  134.629">  1  7  2 -1</clus>
<clus scale="   37.804">  1  5  2 -1</clus>
</clustering>
</event>
<event>
 9    1  0.1610296E-005  0.2538317E+03  0.7546771E-02  0.1143842E+00
         21   -1    0    0  501  502  0.00000000000E+00  0.00000000000E+00  0.18329121171E+03  0.18329121171E+03  0.00000000000E+00 0. -1.
          1   -1    0    0  502    0 -0.00000000000E+00 -0.00000000000E+00 -0.65101010455E+03  0.65101010455E+03  0.00000000000E+00 0. -1.
         23    2    1    2    0    0 -0.55124625167E+02 -0.30510303590E+02 -0.17511495113E+03  0.20818898006E+03  0.93315606329E+02 0.  0.
         23    2    1    2    0    0 -0.16327401410E+03  0.14329292064E+03 -0.29859383751E+03  0.38023886632E+03  0.90730650123E+02 0.  0.
        -11    1    3    3    0    0  0.25023793392E+02 -0.18477133256E+02 -0.40623773780E+02  0.51165278121E+02  0.00000000000E+00 0.  1.
         11    1    3    3    0    0 -0.80148418559E+02 -0.12033170334E+02 -0.13449117735E+03  0.15702370194E+03  0.00000000000E+00 0. -1.
        -11    1    4    4    0    0 -0.34229729802E+02  0.59910935985E+02 -0.40873158816E+02  0.80197317689E+02  0.00000000000E+00 0.  1.
         11    1    4    4    0    0 -0.12904428430E+03  0.83381984650E+02 -0.25772067870E+03  0.30004154863E+03  0.00000000000E+00 0. -1.
          1    1    1    2  501    0  0.21839863926E+03 -0.11278261704E+03  0.59898958112E+01  0.24587346988E+03  0.00000000000E+00 0. -1.
<scales pt_clust_5="13000.00000" pt_clust_6="13000.00000" pt_clust_7="13000.00000" pt_clust_8="13000.00000" pt_clust_9="237.06214"></scales>
<clustering>
<clus scale="   90.731">  7  8 -1 -1</clus>
<clus scale="   93.316">  5  6 -1 -1</clus>
<clus scale="  112.594">  2  5  1 -1</clus>
<clus scale="  237.062">  1  9  2 -1</clus>
<clus scale="  237.062">  1  5  2 -1</clus>
</clustering>
</event>
<event>
 9    1  0.1610296E-005  0.1017277E+03  0.7546771E-02  0.1278694E+00
          4   -1    0    0  502    0 -0.00000000000E+00  0.00000000000E+00  0.15692533574E+03  0.15692533574E+03  0.00000000000E+00 0. -1.
         21   -1    0    0  501  502  0.00000000000E+00 -0.00000000000E+00 -0.18906922965E+03  0.18906922965E+03  0.00000000000E+00 0. -1.
         23    2    1    2    0    0 -0.41702210247E+02 -0.17744108893E+02  0.73761123827E+02  0.12970568478E+03  0.96586404517E+02 0.  0.
         23    2    1    2    0    0  0.99017083893E+01 -0.44959503583E+02 -0.20055870626E+02  0.10532451248E+03  0.92583012428E+02 0.  0.
        -13    1    4    4    0    0  0.42480406575E+02 -0.45509920696E+01  0.11926022800E+02  0.44356808851E+02  0.00000000000E+00 0.  1.
         13    1    4    4    0    0 -0.32578698186E+02 -0.40408511513E+02 -0.31981893425E+02  0.60967703625E+02  0.00000000000E+00 0. -1.
        -13    1    3    3    0    0 -0.53883447562E+02 -0.45627469339E+02  0.30731826711E+02  0.77004785906E+02  0.00000000000E+00 0. -1.
         13    1    3    3    0    0  0.12181237315E+02  0.27883360447E+02  0.43029297116E+02  0.52700898879E+02  0.00000000000E+00 0.  1.
          4    1    1    2  501    0  0.31800501857E+02  0.62703612475E+02 -0.85849147113E+02  0.11096436814E+03  0.00000000000E+00 0. -1.
<scales pt_clust_5="13000.00000" pt_clust_6="13000.00000" pt_clust_7="13000.00000" pt_clust_8="13000.00000" pt_clust_9="70.30658"></scales>
<clustering>
<clus scale="   70.307">  2  9  1 -1</clus>
<clus scale="   92.583">  5  6 -1 -1</clus>
<clus scale="   96.586">  7  8 -1 -1</clus>
<clus scale="   97.935">  2  5  1 -1</clus>
<clus scale="   70.307">  2  5  1 -1</clus>
</clustering>
</event>
<event>
 9    1  0.1610296E-005  0.9893701E+02  0.7546771E-02  0.1284074E+00
          1   -1    0    0  502    0 -0.00000000000E+00  0.00000000000E+00  0.20420748602E+03  0.20420748602E+03  0.00000000000E+00 0. -1.
         21   -1    0    0  501  502  0.00000000000E+00 -0.00000000000E+00 -0.13002264961E+03  0.13002264961E+03  0.00000000000E+00 0.  1.
         23    2    1    2    0    0 -0.21557929568E+02  0.12203010293E+02  0.14263376582E+03  0.17271671633E+03  0.94196683391E+02 0.  0.
         23    2    1    2    0    0  0.56184486005E+02 -0.18350834510E+02 -0.38499010365E+02  0.11532043493E+03  0.91231460136E+02 0.  0.
        -13    1    4    4    0    0  0.76227610696E+02 -0.33375258238E+02 -0.33892119115E+02  0.89851167121E+02  0.00000000000E+00 0.  1.
         13    1    4    4    0    0 -0.20043124692E+02  0.15024423728E+02 -0.46068912499E+01  0.25469267809E+02  0.00000000000E+00 0. -1.
        -13    1    3    3    0    0  0.81560365624E+00  0.27795211883E+02  0.31523067928E+00  0.27808962284E+02  0.00000000000E+00 0.  1.
         13    1    3    3    0    0 -0.22373533224E+02 -0.15592201589E+02  0.14231853514E+03  0.14490775405E+03  0.00000000000E+00 0. -1.
          1    1    1    2  501    0 -0.34626556437E+02  0.61478242167E+01 -0.29949919050E+02  0.46192984363E+02  0.00000000000E+00 0. -1.
<scales pt_clust_5="13000.00000" pt_clust_6="13000.00000" pt_clust_7="13000.00000" pt_clust_8="13000.00000" pt_clust_9="35.16808"></scales>
<clustering>
<clus scale="   35.168">  2  9  1 -1</clus>
<clus scale="   91.231">  5  6 -1 -1</clus>
<clus scale="   94.197">  7  8 -1 -1</clus>
<clus scale="   96.118">  2  5  1 -1</clus>
<clus scale="   35.168">  2  5  1 -1</clus>
</clustering>
</event>
<event>
 9    1  0.1610296E-005  0.1093746E+03  0.7546771E-02  0.1262282E+00
          2   -1    0    0  502    0 -0.00000000000E+00  0.00000000000E+00  0.24034509927E+03  0.24034509927E+03  0.00000000000E+00 0. -1.
         21   -1    0    0  501  502  0.00000000000E+00 -0.00000000000E+00 -0.23218011707E+03  0.23218011707E+03  0.00000000000E+00 0. -1.
         23    2    1    2    0    0  0.17067303361E+02  0.47950235833E+02  0.10066436048E+03  0.14601937888E+03  0.92724471295E+02 0.  0.
         23    2    1    2    0    0  0.51150532667E+02 -0.12861266464E+03 -0.13379838478E+03  0.21307873086E+03  0.91339713578E+02 0.  0.
        -11    1    4    4    0    0  0.67190355274E+01 -0.10240817837E+03 -0.12332667374E+03  0.16044328870E+03  0.00000000000E+00 0. -1.
         11    1    4    4    0    0  0.44431497139E+02 -0.26204486269E+02 -0.10471711048E+02  0.52635442156E+02  0.00000000000E+00 0.  1.
        -13    1    3    3    0    0 -0.31633613878E+02 -0.49003699650E+01  0.18958245562E+02  0.37203685672E+02  0.00000000000E+00 0. -1.
         13    1    3    3    0    0  0.48700917239E+02  0.52850605798E+02  0.81706114917E+02  0.10881569321E+03  0.00000000000E+00 0.  1.
          2    1    1    2  501    0 -0.68217836027E+02  0.80662428807E+02  0.41299006505E+02  0.11342710660E+03  0.00000000000E+00 0. -1.
<scales pt_clust_5="13000.00000" pt_clust_6="13000.00000" pt_clust_7="13000.00000" pt_clust_8="13000.00000" pt_clust_9="105.64143"></scales>
<clustering>
<clus scale="   91.340">  5  6 -1 -1</clus>
<clus scale="   92.724">  7  8 -1 -1</clus>
<clus scale="  105.641">  2  9  1 -1</clus>
<clus scale="  108.203">  2  5  1 -1</clus>
<clus scale="  105.641">  2  5  1 -1</clus>
</clustering>
</event>
<event>
 9    1  0.1610296E-005  0.1878361E+03  0.7546771E-02  0.1160731E+00
         21   -1    0    0  501  502  0.00000000000E+00  0.00000000000E+00  0.36509431139E+02  0.36509431139E+02  0.00000000000E+00 0.  1.
          2   -1    0    0  502    0 -0.00000000000E+00 -0.00000000000E+00 -0.12235976628E+04  0.12235976628E+04  0.00000000000E+00 0. -1.
         23    2    1    2    0    0  0.77937069335E+02  0.16094469189E+03 -0.73388716183E+03  0.76064712857E+03  0.89533833197E+02 0.  0.
         23    2    1    2    0    0 -0.63812569021E+02 -0.12533457848E+03 -0.32928725501E+03  0.36975948275E+03  0.92256047196E+02 0.  0.
        -13    1    3    3    0    0  0.41258719501E+02  0.13978838855E+03 -0.65598050009E+03  0.67197730022E+03  0.00000000000E+00 0.  1.
         13    1    3    3    0    0  0.36678349834E+02  0.21156303344E+02 -0.77906661733E+02  0.88669828352E+02  0.00000000000E+00 0. -1.
        -13    1    4    4    0    0 -0.69723449398E+02 -0.54002190365E+02 -0.12256247943E+03  0.15099389830E+03  0.00000000000E+00 0. -1.
         13    1    4    4    0    0  0.59108803768E+01 -0.71332388110E+02 -0.20672477558E+03  0.21876558445E+03  0.00000000000E+00 0.  1.
          2    1    1    2  501    0 -0.14124500313E+02 -0.35610113415E+02 -0.12391381478E+03  0.12970048258E+03  0.00000000000E+00 0. -1.
<scales pt_clust_5="13000.00000" pt_clust_6="13000.00000" pt_clust_7="13000.00000" pt_clust_8="13000.00000" pt_clust_9="38.30905"></scales>
<clustering>
<clus scale="   38.309">  1  9  2 -1</clus>
<clus scale="   89.534">  5  6 -1 -1</clus>
<clus scale="   92.256">  7  8 -1 -1</clus>
<clus scale="  186.514">  2  5  1 -1</clus>
<clus scale="   38.309">  1  5  2 -1</clus>
</clustering>
</event>
<event>
 9    1  0.1610296E-005  0.1640638E+03  0.7546771E-02  0.1184470E+00
          3   -1    0    0  502    0 -0.00000000000E+00  0.00000000000E+00  0.92249124903E+03  0.92249124903E+03  0.00000000000E+00 0. -1.
         21   -1    0    0  501  502  0.00000000000E+00 -0.00000000000E+00 -0.61312779006E+02  0.61312779006E+02  0.00000000000E+00 0. -1.
         23    2    1    2    0    0  0.15747750584E+03 -0.68654121665E+02  0.62928953338E+03  0.65857359132E+03  0.90561057317E+02 0.  0.
         23    2    1    2    0    0 -0.60016108936E+02  0.61840321379E+02  0.16025271451E+03  0.20408218009E+03  0.92425348486E+02 0.  0.
        -13    1    3    3    0    0  0.19317426269E+02  0.18201560712E+02  0.14821644290E+03  0.15057414690E+03  0.00000000000E+00 0.  1.
         13    1    3    3    0    0  0.13816007957E+03 -0.86855682377E+02  0.48107309048E+03  0.50799944442E+03  0.00000000000E+00 0. -1.
        -13    1    4    4    0    0 -0.50859126720E+02  0.83922486479E+02  0.14701262123E+03  0.17675504323E+03  0.00000000000E+00 0.  1.
         13    1    4    4    0    0 -0.91569822156E+01 -0.22082165100E+02  0.13240093281E+02  0.27327136858E+02  0.00000000000E+00 0. -1.
          3    1    1    2  501    0 -0.97461396903E+02  0.68138002859E+01  0.71636222135E+02  0.12114825662E+03  0.00000000000E+00 0. -1.
<scales pt_clust_5="13000.00000" pt_clust_6="13000.00000" pt_clust_7="13000.00000" pt_clust_8="13000.00000" pt_clust_9="97.69929"></scales>
<clustering>
<clus scale="   90.561">  5  6 -1 -1</clus>
<clus scale="   92.425">  7  8 -1 -1</clus>
<clus scale="   97.699">  2  9  1 -1</clus>
<clus scale="  163.021">  1  5  2 -1</clus>
<clus scale="   97.699">  2  5  1 -1</clus>
</clustering>
</event>
<event>
 9    1  0.1610296E-005  0.1675692E+03  0.7546771E-02  0.1180529E+00
          1   -1    0    0  502    0 -0.00000000000E+00  0.00000000000E+00  0.52729596607E+03  0.52729596607E+03  0.00000000000E+00 0. -1.
         21   -1    0    0  501  502  0.00000000000E+00 -0.00000000000E+00 -0.16343708719E+03  0.16343708719E+03  0.00000000000E+00 0.  1.
         23    2    1    2    0    0 -0.24760241217E+02  0.13059100259E+03  0.28234499652E+03  0.32489797250E+03  0.90404181154E+02 0.  0.
         23    2    1    2    0    0  0.29441340768E+02 -0.15050442043E+03  0.18694062102E+03  0.25844209158E+03  0.91253196110E+02 0.  0.
        -11    1    4    4    0    0  0.49314800918E+02 -0.14417999207E+03  0.18130991736E+03  0.23683983161E+03  0.00000000000E+00 0.  1.
         11    1    4    4    0    0 -0.19873460150E+02 -0.63244283602E+01  0.56307036605E+01  0.21602259978E+02  0.00000000000E+00 0. -1.
        -13    1    3    3    0    0 -0.38855059441E+02  0.13151529167E+02  0.92990915696E+02  0.10163655231E+03  0.00000000000E+00 0.  1.
         13    1    3    3    0    0  0.14094818224E+02  0.11743947343E+03  0.18935408082E+03  0.22326142019E+03  0.00000000000E+00 0. -1.
          1    1    1    2  501    0 -0.46810995507E+01  0.19913417838E+02 -0.10542673865E+03  0.10739298918E+03  0.00000000000E+00 0. -1.
<scales pt_clust_5="13000.00000" pt_clust_6="13000.00000" pt_clust_7="13000.00000" pt_clust_8="13000.00000" pt_clust_9="20.45622"></scales>
<clustering>
<clus scale="   20.456">  2  9  1 -1</clus>
<clus scale="   90.404">  7  8 -1 -1</clus>
<clus scale="   91.253">  5  6 -1 -1</clus>
<clus scale="  167.108">  1  7  2 -1</clus>
<clus scale="   20.456">  2  5  1 -1</clus>
</clustering>
</event>
<event>
 9    1  0.1610296E-005  0.9783393E+02  0.7546771E-02  0.1286165E+00
          1   -1    0    0  502    0 -0.00000000000E+00  0.00000000000E+00  0.28727626058E+02  0.28727626058E+02  0.00000000000E+00 0. -1.
         21   -1    0    0  501  502  0.00000000000E+00 -0.00000000000E+00 -0.54852213123E+03  0.54852213123E+03  0.00000000000E+00 0. -1.
         23    2    1    2    0    0  0.23004062887E+02 -0.42297681491E+02 -0.13693946397E+03  0.17153146676E+03  0.91391173144E+02 0.  0.
         23    2    1    2    0    0  0.11982017035E+02  0.17668713576E+02 -0.26304913320E+03  0.27850167432E+03  0.88952706230E+02 0.  0.
        -13    1    4    4    0    0  0.48481872657E+02  0.31964987225E+01 -0.10577621219E+03  0.11640153197E+03  0.00000000000E+00 0. -1.
         13    1    4    4    0    0 -0.36499855622E+02  0.14472214854E+02 -0.15727292102E+03  0.16210014234E+03  0.00000000000E+00 0.  1.
        -13    1    3    3    0    0 -0.28405912167E+02 -0.34535045122E+01 -0.82016948300E+02  0.86865426654E+02  0.00000000000E+00 0.  1.
         13    1    3    3    0    0  0.51409975053E+02 -0.38844176979E+02 -0.54922515671E+02  0.84666040110E+02  0.00000000000E+00 0. -1.
          1    1    1    2  501    0 -0.34986079922E+02  0.24628967915E+02 -0.11980590800E+03  0.12721661621E+03  0.00000000000E+00 0. -1.
<scales pt_clust_5="13000.00000" pt_clust_6="13000.00000" pt_clust_7="13000.00000" pt_clust_8="13000.00000" pt_clust_9="42.78565"></scales>
<clustering>
<clus scale="   42.786">  2  9  1 -1</clus>
<clus scale="   88.953">  5  6 -1 -1</clus>
<clus scale="   91.391">  7  8 -1 -1</clus>
<clus scale="   95.560">  2  5  1 -1</clus>
<clus scale="   42.786">  2  5  1 -1</clus>
</clustering>
</event>
<event>
 9    1  0.1610296E-005  0.9583636E+02  0.7546771E-02  0.1291249E+00
         21   -1    0    0  501  502  0.00000000000E+00  0.00000000000E+00  0.44014740314E+02  0.44014740314E+02  0.00000000000E+00 0.  1.
          1   -1    0    0  502    0 -0.00000000000E+00 -0.00000000000E+00 -0.43826121473E+03  0.43826121473E+03  0.00000000000E+00 0. -1.
         23    2    1    2    0    0 -0.47255724282E+01  0.21986105122E+02 -0.17497573774E+03  0.19789434099E+03  0.89665721132E+02 0.  0.
         23    2    1    2    0    0  0.42977215780E+02  0.23317560861E+02 -0.19236093408E+03  0.21926826790E+03  0.93193855106E+02 0.  0.
        -11    1    3    3    0    0  0.26700314647E+02 -0.24345825228E+02 -0.76864355605E+02  0.84933828189E+02  0.00000000000E+00 0.  1.
         11    1    3    3    0    0 -0.31425887075E+02  0.46331930350E+02 -0.98111382135E+02  0.11296051280E+03  0.00000000000E+00 0. -1.
        -13    1    4    4    0    0 -0.36295822091E+01  0.40543970381E+02 -0.14506901701E+03  0.15067185237E+03  0.00000000000E+00 0. -1.
         13    1    4    4    0    0  0.46606797989E+02 -0.17226409520E+02 -0.47291917069E+02  0.68596415532E+02  0.00000000000E+00 0.  1.
          1    1    1    2  501    0 -0.38251643352E+02 -0.45303665983E+02 -0.26909802597E+02  0.65113346147E+02  0.00000000000E+00 0. -1.
<scales pt_clust_5="13000.00000" pt_clust_6="13000.00000" pt_clust_7="13000.00000" pt_clust_8="13000.00000" pt_clust_9="59.29258"></scales>
<clustering>
<clus scale="   59.293">  1  9  2 -1</clus>
<clus scale="   89.666">  5  6 -1 -1</clus>
<clus scale="   92.409">  2  5  1 -1</clus>
<clus scale="   93.194">  7  8 -1 -1</clus>
<clus scale="   59.293">  1  5  2 -1</clus>
</clustering>
</event>
<event>
 9    1  0.1610296E-005  0.1387928E+03  0.7546771E-02  0.1215321E+00
         -1   -1    0    0    0  501 -0.00000000000E+00  0.00000000000E+00  0.43262276128E+03  0.43262276128E+03  0.00000000000E+00 0.  1.
         21   -1    0    0  501  502  0.00000000000E+00 -0.00000000000E+00 -0.55491756367E+02  0.55491756367E+02  0.00000000000E+00 0. -1.
         23    2    1    2    0    0 -0.49665015888E+02 -0.81351168221E+02  0.18337036065E+03  0.22631223243E+03  0.92238338064E+02 0.  0.
         23    2    1    2    0    0  0.44681135572E+02  0.10742595369E+03  0.14830277666E+03  0.20916056006E+03  0.90651458437E+02 0.  0.
        -13    1    4    4    0    0  0.21998744270E+02  0.56278610013E+02  0.14014637816E+03  0.15261793475E+03  0.00000000000E+00 0.  1.
         13    1    4    4    0    0  0.22682391303E+02  0.51147343679E+02  0.81563984955E+01  0.56542625311E+02  0.00000000000E+00 0. -1.
        -13    1    3    3    0    0  0.19923729922E+02 -0.34080555882E+01  0.71448364748E+01  0.21438716033E+02  0.00000000000E+00 0. -1.
         13    1    3    3    0    0 -0.69588745810E+02 -0.77943112632E+02  0.17622552418E+03  0.20487351640E+03  0.00000000000E+00 0.  1.
         -1    1    1    2    0  502  0.49838803161E+01 -0.26074785472E+02  0.45457867604E+02  0.52641725157E+02  0.00000000000E+00 0.  1.
<scales pt_clust_5="13000.00000" pt_clust_6="13000.00000" pt_clust_7="13000.00000" pt_clust_8="13000.00000" pt_clust_9="26.54683"></scales>
<clustering>
<clus scale="   26.547">  2  9  1 -1</clus>
<clus scale="   90.651">  5  6 -1 -1</clus>
<clus scale="   92.238">  7  8 -1 -1</clus>
<clus scale="  137.743">  2  5  1 -1</clus>
<clus scale="   26.547">  2  5  1 -1</clus>
</clustering>
</event>
<event>
 9    1  0.1610296E-005  0.1204136E+03  0.7546771E-02  0.1248142E+00
          2   -1    0    0  502    0 -0.00000000000E+00  0.00000000000E+00  0.31446962379E+03  0.31446962379E+03  0.00000000000E+00 0. -1.
         21   -1    0    0  501  502  0.00000000000E+00 -0.00000000000E+00 -0.86197483092E+02  0.86197483092E+02  0.00000000000E+00 0.  1.
         23    2    1    2    0    0  0.26984273334E+01  0.73505804523E+02  0.23374525566E+03  0.25851264984E+03  0.82350232398E+02 0.  0.
         23    2    1    2    0    0  0.71110934033E+01 -0.44726355749E+02 -0.16199349216E+02  0.10991262908E+03  0.98829917380E+02 0.  0.
        -11    1    3    3    0    0  0.34388055463E+02  0.25676936967E+02  0.49366303901E+02  0.65413113451E+02  0.00000000000E+00 0. -1.
         11    1    3    3    0    0 -0.31689628129E+02  0.47828867556E+02  0.18437895176E+03  0.19309953639E+03  0.00000000000E+00 0.  1.
        -13    1    4    4    0    0  0.18641344168E+02  0.21711973262E+02  0.18501206043E+02  0.34076445243E+02  0.00000000000E+00 0. -1.
         13    1    4    4    0    0 -0.11530250765E+02 -0.66438329011E+02 -0.34700555259E+02  0.75836183842E+02  0.00000000000E+00 0.  1.
          2    1    1    2  501    0 -0.98095207368E+01 -0.28779448774E+02  0.10726234260E+02  0.32241827960E+02  0.00000000000E+00 0. -1.
<scales pt_clust_5="13000.00000" pt_clust_6="13000.00000" pt_clust_7="13000.00000" pt_clust_8="13000.00000" pt_clust_9="30.40532"></scales>
<clustering>
<clus scale="   30.405">  2  9  1 -1</clus>
<clus scale="   82.350">  5  6 -1 -1</clus>
<clus scale="   98.830">  7  8 -1 -1</clus>
<clus scale="  107.302">  1  5  2 -1</clus>
<clus scale="   30.405">  2  5  1 -1</clus>
</clustering>
</event>
<event>
 9    1  0.1610296E-005  0.1056420E+03  0.7546771E-02  0.1269083E+00
         -4   -1    0    0    0  501 -0.00000000000E+00  0.00000000000E+00  0.48724291237E+03  0.48724291237E+03  0.00000000000E+00 0.  1.
         21   -1    0    0  501  502  0.00000000000E+00 -0.00000000000E+00 -0.12912432857E+03  0.12912432857E+03  0.00000000000E+00 0.  1.
         23    2    1    2    0    0 -0.15197133610E+02 -0.49684155341E+02  0.26899761513E+03  0.28909469824E+03  0.92285207068E+02 0.  0.
         23    2    1    2    0    0 -0.41134639326E+02  0.53149257772E+02  0.18432645347E+03  0.21659571625E+03  0.91763613132E+02 0.  0.
        -11    1    3    3    0    0  0.37746224712E+02 -0.24804292510E+02  0.14727072327E+03  0.15404121637E+03  0.00000000000E+00 0. -1.
         11    1    3    3    0    0 -0.52943358321E+02 -0.24879862832E+02  0.12172689186E+03  0.13505348187E+03  0.00000000000E+00 0.  1.
        -13    1    4    4    0    0 -0.16649820605E+02  0.66237334563E+02  0.17408577723E+03  0.18700390063E+03  0.00000000000E+00 0.  1.
         13    1    4    4    0    0 -0.24484818721E+02 -0.13088076792E+02  0.10240676237E+02  0.29591815620E+02  0.00000000000E+00 0. -1.
         -4    1    1    2    0  502  0.56331772935E+02 -0.34651024306E+01 -0.95205484794E+02  0.11067682644E+03  0.00000000000E+00 0.  1.
<scales pt_clust_5="13000.00000" pt_clust_6="13000.00000" pt_clust_7="13000.00000" pt_clust_8="13000.00000" pt_clust_9="56.43825"></scales>
<clustering>
<clus scale="   56.438">  2  9  1 -1</clus>
<clus scale="   91.764">  7  8 -1 -1</clus>
<clus scale="   92.285">  5  6 -1 -1</clus>
<clus scale="  105.187">  2  7  1 -1</clus>
<clus scale="   56.438">  2  5  1 -1</clus>
</clustering>
</event>
<event>
 9    1  0.1610296E-005  0.1041586E+03  0.7546771E-02  0.1280779E+00
         21   -1    0    0  501  502  0.00000000000E+00  0.00000000000E+00  0.51537298143E+02  0.51537298143E+02  0.00000000000E+00 0. -1.
         -2   -1    0    0    0  501 -0.00000000000E+00 -0.00000000000E+00 -0.38230370945E+03  0.38230370945E+03  0.00000000000E+00 0.  1.
         23    2    1    2    0    0  0.23311491615E+02  0.11177720650E+02 -0.22146959298E+03  0.24310767367E+03  0.96872046032E+02 0.  0.
         23    2    1    2    0    0 -0.68099487422E+02 -0.27019679655E+02 -0.64911570873E+02  0.12571808629E+03  0.78891836783E+02 0.  0.
        -13    1    4    4    0    0 -0.51358542948E+02  0.12758716184E+02 -0.63332276324E+02  0.82531581814E+02  0.00000000000E+00 0.  1.
         13    1    4    4    0    0 -0.16740944475E+02 -0.39778395839E+02 -0.15792945495E+01  0.43186504475E+02  0.00000000000E+00 0. -1.
        -13    1    3    3    0    0  0.55349259692E+01 -0.39860509409E+02 -0.13733709996E+03  0.14311175578E+03  0.00000000000E+00 0. -1.
         13    1    3    3    0    0  0.17776565646E+02  0.51038230058E+02 -0.84132493012E+02  0.99995917887E+02  0.00000000000E+00 0.  1.
         -2    1    1    2    0  502  0.44787995808E+02  0.15841959006E+02 -0.44385247462E+02  0.65015247641E+02  0.00000000000E+00 0.  1.
<scales pt_clust_5="13000.00000" pt_clust_6="13000.00000" pt_clust_7="13000.00000" pt_clust_8="13000.00000" pt_clust_9="47.50718"></scales>
<clustering>
<clus scale="   47.507">  1  9  2 -1</clus>
<clus scale="   78.892">  5  6 -1 -1</clus>
<clus scale="   87.686">  1  5  2 -1</clus>
<clus scale="   96.872">  7  8 -1 -1</clus>
<clus scale="   47.507">  1  5  2 -1</clus>
</clustering>
</event>
<event>
 9    1  0.1610296E-005  0.9665192E+02  0.7546771E-02  0.1288118E+00
         21   -1    0    0  501  502  0.00000000000E+00  0.00000000000E+00  0.83254289983E+02  0.83254289983E+02  0.00000000000E+00 0. -1.
          1   -1    0    0  502    0 -0.00000000000E+00 -0.00000000000E+00 -0.38606093117E+03  0.38606093117E+03  0.00000000000E+00 0. -1.
         23    2    1    2    0    0 -0.13141202189E+02  0.15684470629E+02 -0.24077700622E+03  0.25788270794E+03  0.90062370155E+02 0.  0.
         23    2    1    2    0    0  0.78036384260E+02 -0.32614814654E+02 -0.71812771497E+02  0.14365544507E+03  0.91249160796E+02 0.  0.
        -11    1    3    3    0    0  0.34705155648E+02 -0.75216111060E+01 -0.13359665507E+03  0.13823562749E+03  0.00000000000E+00 0.  1.
         11    1    3    3    0    0 -0.47846357838E+02  0.23206081735E+02 -0.10718035115E+03  0.11964708045E+03  0.00000000000E+00 0. -1.
        -11    1    4    4    0    0  0.67881819769E+02  0.15283301652E+02 -0.20067580730E+02  0.72417046066E+02  0.00000000000E+00 0. -1.
         11    1    4    4    0    0  0.10154564491E+02 -0.47898116306E+02 -0.51745190766E+02  0.71238399007E+02  0.00000000000E+00 0.  1.
          1    1    1    2  501    0 -0.64895182071E+02  0.16930344025E+02  0.97831365305E+01  0.67777068136E+02  0.00000000000E+00 0. -1.
<scales pt_clust_5="13000.00000" pt_clust_6="13000.00000" pt_clust_7="13000.00000" pt_clust_8="13000.00000" pt_clust_9="67.06729"></scales>
<clustering>
<clus scale="   67.067">  1  9  2 -1</clus>
<clus scale="   90.062">  5  6 -1 -1</clus>
<clus scale="   91.249">  7  8 -1 -1</clus>
<clus scale="   95.532">  2  5  1 -1</clus>
<clus scale="   67.067">  1  5  2 -1</clus>
</clustering>
</event>
<event>
 9    1  0.1610296E-005  0.9439779E+02  0.7546771E-02  0.1296482E+00
         21   -1    0    0  501  502  0.00000000000E+00  0.00000000000E+00  0.56672293823E+02  0.56672293823E+02  0.00000000000E+00 0. -1.
          1   -1    0    0  502    0 -0.00000000000E+00 -0.00000000000E+00 -0.33805208614E+03  0.33805208614E+03  0.00000000000E+00 0. -1.
         23    2    1    2    0    0  0.37438144649E+02  0.10387837615E+02 -0.22336154009E+03  0.24430919063E+03  0.91033406981E+02 0.  0.
         23    2    1    2    0    0  0.98450658900E+01 -0.11718427079E+02 -0.57675275627E+02  0.10311201714E+03  0.84091639325E+02 0.  0.
        -11    1    4    4    0    0 -0.14269682752E+02 -0.39063405538E+02 -0.51398684445E+02  0.66116550581E+02  0.00000000000E+00 0. -1.
         11    1    4    4    0    0  0.24114748642E+02  0.27344978459E+02 -0.62765911817E+01  0.36995466558E+02  0.00000000000E+00 0.  1.
        -11    1    3    3    0    0  0.33393174557E+02  0.38536431417E+02 -0.61136657301E+02  0.79610624412E+02  0.00000000000E+00 0. -1.
         11    1    3    3    0    0  0.40449700916E+01 -0.28148593802E+02 -0.16222488279E+03  0.16469856621E+03  0.00000000000E+00 0.  1.
          1    1    1    2  501    0 -0.47283210539E+02  0.13305894641E+01 -0.34297659956E+00  0.47303172199E+02  0.00000000000E+00 0. -1.
<scales pt_clust_5="13000.00000" pt_clust_6="13000.00000" pt_clust_7="13000.00000" pt_clust_8="13000.00000" pt_clust_9="47.30193"></scales>
<clustering>
<clus scale="   47.302">  1  9  2 -1</clus>
<clus scale="   84.092">  5  6 -1 -1</clus>
<clus scale="   87.723">  1  5  2 -1</clus>
<clus scale="   91.033">  7  8 -1 -1</clus>
<clus scale="   47.302">  1  5  2 -1</clus>
</clustering>
</event>
<event>
 9    1  0.1610296E-005  0.1606212E+03  0.7546771E-02  0.1188344E+00
         21   -1    0    0  501  502  0.00000000000E+00  0.00000000000E+00  0.27137016776E+03  0.27137016776E+03  0.00000000000E+00 0. -1.
          2   -1    0    0  502    0 -0.00000000000E+00 -0.00000000000E+00 -0.21273989559E+03  0.21273989559E+03  0.00000000000E+00 0. -1.
         23    2    1    2    0    0 -0.44567444562E+02 -0.13986865447E+03 -0.87720066050E+02  0.19506160833E+03  0.93833487836E+02 0.  0.
         23    2    1    2    0    0  0.41049628606E+02  0.10005534104E+03  0.47102875608E+01  0.14187719795E+03  0.91710464021E+02 0.  0.
        -11    1    3    3    0    0 -0.73156920679E+02 -0.10012448084E+03 -0.73192212515E+02  0.14399287024E+03  0.00000000000E+00 0. -1.
         11    1    3    3    0    0  0.28589476117E+02 -0.39744173631E+02 -0.14527853535E+02  0.51068738095E+02  0.00000000000E+00 0.  1.
        -11    1    4    4    0    0  0.18709587324E+02  0.11205534391E+03 -0.72532762721E+01  0.11383786178E+03  0.00000000000E+00 0.  1.
         11    1    4    4    0    0  0.22340041282E+02 -0.12000002876E+02  0.11963563833E+02  0.28039336174E+02  0.00000000000E+00 0. -1.
          2    1    1    2  501    0  0.35178159561E+01  0.39813313434E+02  0.14164005066E+03  0.14717125707E+03  0.00000000000E+00 0. -1.
<scales pt_clust_5="13000.00000" pt_clust_6="13000.00000" pt_clust_7="13000.00000" pt_clust_8="13000.00000" pt_clust_9="39.96842"></scales>
<clustering>
<clus scale="   39.968">  1  9  2 -1</clus>
<clus scale="   91.710">  7  8 -1 -1</clus>
<clus scale="   93.833">  5  6 -1 -1</clus>
<clus scale="  159.390">  1  7  2 -1</clus>
<clus scale="   39.968">  1  5  2 -1</clus>
</clustering>
</event>
<event>
 9    1  0.1610296E-005  0.9967106E+02  0.7546771E-02  0.1285440E+00
         21   -1    0    0  501  502  0.00000000000E+00  0.00000000000E+00  0.43289775317E+02  0.43289775317E+02  0.00000000000E+00 0. -1.
          2   -1    0    0  502    0 -0.00000000000E+00 -0.00000000000E+00 -0.48566834461E+03  0.48566834461E+03  0.00000000000E+00 0. -1.
         23    2    1    2    0    0  0.95159304282E+01 -0.13234014072E+02 -0.31051565074E+03  0.32339129263E+03  0.88860940452E+02 0.  0.
         23    2    1    2    0    0 -0.37255226653E+02  0.17923274175E+02 -0.14085708807E+03  0.17603120811E+03  0.97144589654E+02 0.  0.
        -13    1    3    3    0    0 -0.15928686520E+02 -0.45400759589E+02 -0.14093857556E+03  0.14892492776E+03  0.00000000000E+00 0.  1.
         13    1    3    3    0    0  0.25444616949E+02  0.32166745517E+02 -0.16957707518E+03  0.17446636488E+03  0.00000000000E+00 0. -1.
        -13    1    4    4    0    0 -0.60876648394E+02  0.26756524800E+02 -0.54226090578E+02  0.85804119006E+02  0.00000000000E+00 0. -1.
         13    1    4    4    0    0  0.23621421741E+02 -0.88332506257E+01 -0.86630997492E+02  0.90227089104E+02  0.00000000000E+00 0.  1.
          2    1    1    2  501    0  0.27739296224E+02 -0.46892601028E+01  0.89941695136E+01  0.29535619184E+02  0.00000000000E+00 0. -1.
<scales pt_clust_5="13000.00000" pt_clust_6="13000.00000" pt_clust_7="13000.00000" pt_clust_8="13000.00000" pt_clust_9="28.13286"></scales>
<clustering>
<clus scale="   28.133">  1  9  2 -1</clus>
<clus scale="   88.861">  5  6 -1 -1</clus>
<clus scale="   91.616">  2  5  1 -1</clus>
<clus scale="   97.145">  7  8 -1 -1</clus>
<clus scale="   28.133">  1  5  2 -1</clus>
</clustering>
</event>
<event>
 9    1  0.1610296E-005  0.1179309E+03  0.7546771E-02  0.1250966E+00
         -3   -1    0    0    0  501 -0.00000000000E+00  0.00000000000E+00  0.57473248836E+03  0.57473248836E+03  0.00000000000E+00 0.  1.
         21   -1    0    0  501  502  0.00000000000E+00 -0.00000000000E+00 -0.27652090319E+02  0.27652090319E+02  0.00000000000E+00 0. -1.
         23    2    1    2    0    0 -0.36257791514E+02  0.52153567404E+02  0.30741169132E+03  0.33002218407E+03  0.10187282255E+03 0.  0.
         23    2    1    2    0    0  0.46206312428E+02 -0.32225133003E+02  0.18552271155E+03  0.21381408670E+03  0.90134924800E+02 0.  0.
        -13    1    4    4    0    0  0.95154472932E+00  0.23290359738E+02  0.97931253763E+02  0.10066715829E+03  0.00000000000E+00 0.  1.
         13    1    4    4    0    0  0.45254767699E+02 -0.55515492741E+02  0.87591457783E+02  0.11314692842E+03  0.00000000000E+00 0. -1.
        -13    1    3    3    0    0  0.13587454640E+02  0.46720201462E+02  0.58401484975E+02  0.76014009206E+02  0.00000000000E+00 0. -1.
         13    1    3    3    0    0 -0.49845246154E+02  0.54333659413E+01  0.24901020635E+03  0.25400817486E+03  0.00000000000E+00 0.  1.
         -3    1    1    2    0  502 -0.99485209139E+01 -0.19928434401E+02  0.54145995175E+02  0.58548307913E+02  0.00000000000E+00 0.  1.
<scales pt_clust_5="13000.00000" pt_clust_6="13000.00000" pt_clust_7="13000.00000" pt_clust_8="13000.00000" pt_clust_9="22.27366"></scales>
<clustering>
<clus scale="   22.274">  2  9  1 -1</clus>
<clus scale="   90.135">  5  6 -1 -1</clus>
<clus scale="  101.873">  7  8 -1 -1</clus>
<clus scale="  107.953">  2  5  1 -1</clus>
<clus scale="   22.274">  2  5  1 -1</clus>
</clustering>
</event>
<event>
 9    1  0.1610296E-005  0.9952419E+02  0.7546771E-02  0.1286248E+00
         -2   -1    0    0    0  501 -0.00000000000E+00  0.00000000000E+00  0.33547528989E+03  0.33547528989E+03  0.00000000000E+00 0.  1.
         21   -1    0    0  501  502  0.00000000000E+00 -0.00000000000E+00 -0.74084542564E+02  0.74084542564E+02  0.00000000000E+00 0. -1.
         23    2    1    2    0    0  0.11955737148E+02 -0.10890772705E+02  0.19987105218E+03  0.22221538447E+03  0.95758503603E+02 0.  0.
         23    2    1    2    0    0 -0.69826644207E+00  0.72150028155E+02  0.53020541021E+02  0.12448219663E+03  0.86478467657E+02 0.  0.
        -11    1    4    4    0    0  0.29949924228E+02  0.72767519425E+02  0.23996721027E+02  0.82267566298E+02  0.00000000000E+00 0. -1.
         11    1    4    4    0    0 -0.30648190670E+02 -0.61749127040E+00  0.29023819994E+02  0.42214630330E+02  0.00000000000E+00 0.  1.
        -13    1    3    3    0    0 -0.51836019587E+01 -0.52109847053E+02  0.11307783285E+03  0.12461501583E+03  0.00000000000E+00 0.  1.
         13    1    3    3    0    0  0.17139339107E+02  0.41219074349E+02  0.86793219334E+02  0.97600368634E+02  0.00000000000E+00 0. -1.
         -2    1    1    2    0  502 -0.11257470706E+02 -0.61259255450E+02  0.84991541200E+01  0.62862251357E+02  0.00000000000E+00 0.  1.
<scales pt_clust_5="13000.00000" pt_clust_6="13000.00000" pt_clust_7="13000.00000" pt_clust_8="13000.00000" pt_clust_9="62.28505"></scales>
<clustering>
<clus scale="   62.285">  2  9  1 -1</clus>
<clus scale="   86.478">  5  6 -1 -1</clus>
<clus scale="   90.631">  2  5  1 -1</clus>
<clus scale="   95.759">  7  8 -1 -1</clus>
<clus scale="   62.285">  2  5  1 -1</clus>
</clustering>
</event>
<event>
 9    1  0.1610296E-005  0.2107079E+03  0.7546771E-02  0.1141013E+00
         21   -1    0    0  501  502  0.00000000000E+00  0.00000000000E+00  0.29090498864E+03  0.29090498864E+03  0.00000000000E+00 0. -1.
          2   -1    0    0  502    0 -0.00000000000E+00 -0.00000000000E+00 -0.21407231150E+03  0.21407231150E+03  0.00000000000E+00 0. -1.
         23    2    1    2    0    0  0.13397040842E+03 -0.13388307606E+03 -0.64349638203E+02  0.21842256224E+03  0.87719959943E+02 0.  0.
         23    2    1    2    0    0 -0.12464258767E+03  0.15243584003E+03  0.94254248348E+02  0.23523752088E+03  0.87637708273E+02 0.  0.
        -13    1    4    4    0    0 -0.29211323898E+02  0.18747461875E+02  0.57117061756E+02  0.66836573179E+02  0.00000000000E+00 0.  1.
         13    1    4    4    0    0 -0.95431263777E+02  0.13368837815E+03  0.37137186592E+02  0.16840094770E+03  0.00000000000E+00 0. -1.
        -13    1    3    3    0    0 -0.85877264642E+01 -0.22383430914E+02  0.52067768794E+01  0.24533192837E+02  0.00000000000E+00 0.  1.
         13    1    3    3    0    0  0.14255813489E+03 -0.11149964514E+03 -0.69556415082E+02  0.19388936940E+03  0.00000000000E+00 0. -1.
          2    1    1    2  501    0 -0.93278207476E+01 -0.18552763969E+02  0.46928066991E+02  0.51317217017E+02  0.00000000000E+00 0. -1.
<scales pt_clust_5="13000.00000" pt_clust_6="13000.00000" pt_clust_7="13000.00000" pt_clust_8="13000.00000" pt_clust_9="20.76568"></scales>
<clustering>
<clus scale="   20.766">  1  9  2 -1</clus>
<clus scale="   87.638">  5  6 -1 -1</clus>
<clus scale="   87.720">  7  8 -1 -1</clus>
<clus scale="  210.674">  1  5  2 -1</clus>
<clus scale="   20.766">  1  5  2 -1</clus>
</clustering>
</event>
<event>
 9    1  0.1610296E-005  0.1471353E+03  0.7546771E-02  0.1204665E+00
         21   -1    0    0  501  502  0.00000000000E+00  0.00000000000E+00  0.22158572507E+03  0.22158572507E+03  0.00000000000E+00 0. -1.
          1   -1    0    0  502    0 -0.00000000000E+00 -0.00000000000E+00 -0.51055189642E+03  0.51055189642E+03  0.00000000000E+00 0. -1.
         23    2    1    2    0    0 -0.10948236424E+03  0.23336743843E+02 -0.25840813846E+03  0.29593982787E+03  0.90964960296E+02 0.  0.
         23    2    1    2    0    0  0.11681072930E+03  0.71453349154E+01 -0.20770465239E+03  0.25629841379E+03  0.94084281344E+02 0.  0.
        -11    1    4    4    0    0  0.83994007398E+02  0.23295178913E+02 -0.64332154170E+02  0.10833413451E+03  0.00000000000E+00 0. -1.
         11    1    4    4    0    0  0.32816721900E+02 -0.16149843998E+02 -0.14337249822E+03  0.14796427928E+03  0.00000000000E+00 0.  1.
        -13    1    3    3    0    0 -0.17928842428E+02 -0.26456823876E+02 -0.25877665696E+02  0.41122506031E+02  0.00000000000E+00 0. -1.
         13    1    3    3    0    0 -0.91553521816E+02  0.49793567719E+02 -0.23253047277E+03  0.25481732184E+03  0.00000000000E+00 0.  1.
          1    1    1    2  501    0 -0.73283650531E+01 -0.30482078758E+02  0.17714661951E+03  0.17989937983E+03  0.00000000000E+00 0. -1.
<scales pt_clust_5="13000.00000" pt_clust_6="13000.00000" pt_clust_7="13000.00000" pt_clust_8="13000.00000" pt_clust_9="31.35063"></scales>
<clustering>
<clus scale="   31.351">  1  9  2 -1</clus>
<clus scale="   90.965">  7  8 -1 -1</clus>
<clus scale="   94.084">  5  6 -1 -1</clus>
<clus scale="  145.160">  2  7  1 -1</clus>
<clus scale="   31.351">  1  5  2 -1</clus>
</clustering>
</event>
<event>
 9    1  0.1610296E-005  0.1972395E+03  0.7546771E-02  0.1152218E+00
          2   -1    0    0  502    0 -0.00000000000E+00  0.00000000000E+00  0.35429412523E+03  0.35429412523E+03  0.00000000000E+00 0. -1.
         21   -1    0    0  501  502  0.00000000000E+00 -0.00000000000E+00 -0.24360621292E+03  0.24360621292E+03  0.00000000000E+00 0. -1.
         23    2    1    2    0    0 -0.79179814676E+02 -0.11251857659E+03  0.42067615447E+02  0.16995018029E+03  0.90462734771E+02 0.  0.
         23    2    1    2    0    0  0.21783248034E+03  0.14207976901E+03  0.14379780816E+02  0.27615931698E+03  0.91758051440E+02 0.  0.
        -13    1    3    3    0    0 -0.50305108726E+02 -0.12380731537E+03  0.35214037767E+02  0.13819871113E+03  0.00000000000E+00 0. -1.
         13    1    3    3    0    0 -0.28874705950E+02  0.11288738777E+02  0.68535776796E+01  0.31751469161E+02  0.00000000000E+00 0.  1.
        -13    1    4    4    0    0  0.37807474760E+01  0.37127405173E+02 -0.15323311611E+00  0.37319723294E+02  0.00000000000E+00 0.  1.
         13    1    4    4    0    0  0.21405173286E+03  0.10495236384E+03  0.14533013932E+02  0.23883959368E+03  0.00000000000E+00 0. -1.
          2    1    1    2  501    0 -0.13865266566E+03 -0.29561192421E+02  0.54240516045E+02  0.15179084087E+03  0.00000000000E+00 0. -1.
<scales pt_clust_5="13000.00000" pt_clust_6="13000.00000" pt_clust_7="13000.00000" pt_clust_8="13000.00000" pt_clust_9="141.76899"></scales>
<clustering>
<clus scale="   90.463">  5  6 -1 -1</clus>
<clus scale="   91.758">  7  8 -1 -1</clus>
<clus scale="  141.769">  2  9  1 -1</clus>
<clus scale="  196.640">  1  5  2 -1</clus>
<clus scale="  141.769">  2  5  1 -1</clus>
</clustering>
</event>
<event>
 9    1  0.1610296E-005  0.9385942E+02  0.7546771E-02  0.1294809E+00
         21   -1    0    0  501  502  0.00000000000E+00  0.00000000000E+00  0.44608535052E+02  0.44608535052E+02  0.00000000000E+00 0.  1.
         -3   -1    0    0    0  501 -0.00000000000E+00 -0.00000000000E+00 -0.33747858071E+03  0.33747858071E+03  0.00000000000E+00 0.  1.
         23    2    1    2    0    0  0.29502812602E+02  0.13377753816E+02 -0.15776299876E+03  0.18502477591E+03  0.91080314424E+02 0.  0.
         23    2    1    2    0    0  0.11408758933E+02 -0.13390987535E+01 -0.11916001095E+03  0.15153219756E+03  0.92902883284E+02 0.  0.
        -13    1    3    3    0    0 -0.31988533667E+02  0.13923160318E+02 -0.64102231374E+02  0.72980934131E+02  0.00000000000E+00 0. -1.
         13    1    3    3    0    0  0.61491346269E+02 -0.54540650246E+00 -0.93660767387E+02  0.11204384178E+03  0.00000000000E+00 0.  1.
        -13    1    4    4    0    0  0.14821100292E+02  0.26475700751E+02 -0.12819673909E+01  0.30368918066E+02  0.00000000000E+00 0.  1.
         13    1    4    4    0    0 -0.34123413587E+01 -0.27814799504E+02 -0.11787804356E+03  0.12116327950E+03  0.00000000000E+00 0. -1.
         -3    1    1    2    0  502 -0.40911571535E+02 -0.12038655062E+02 -0.15947035949E+02  0.45530142287E+02  0.00000000000E+00 0.  1.
<scales pt_clust_5="13000.00000" pt_clust_6="13000.00000" pt_clust_7="13000.00000" pt_clust_8="13000.00000" pt_clust_9="42.64605"></scales>
<clustering>
<clus scale="   42.646">  1  9  2 -1</clus>
<clus scale="   91.080">  5  6 -1 -1</clus>
<clus scale="   92.056">  2  5  1 -1</clus>
<clus scale="   92.903">  7  8 -1 -1</clus>
<clus scale="   42.646">  1  5  2 -1</clus>
</clustering>
</event>
<event>
 9    1  0.4476327E-005  0.9578568E+02  0.7546771E-02  0.1291203E+00
         -3   -1    0    0    0  501 -0.00000000000E+00  0.00000000000E+00  0.14672005389E+03  0.14672005389E+03  0.00000000000E+00 0.  1.
         21   -1    0    0  501  502  0.00000000000E+00 -0.00000000000E+00 -0.67978065511E+03  0.67978065511E+03  0.00000000000E+00 0.  1.
         23    2    1    2    0    0 -0.43247254035E+01 -0.38849831105E+02  0.97949824606E+02  0.13985678306E+03  0.91857166298E+02 0.  0.
         23    2    1    2    0    0  0.30725653904E+02 -0.40576218209E+02 -0.81179791780E+02  0.13047917294E+03  0.88567266451E+02 0.  0.
        -13    1    4    4    0    0  0.33678782287E+02  0.21305716117E+02 -0.26602573824E+02  0.47915455228E+02  0.00000000000E+00 0. -1.
         13    1    4    4    0    0 -0.29531283838E+01 -0.61881934326E+02 -0.54577217955E+02  0.82563717715E+02  0.00000000000E+00 0.  1.
        -13    1    3    3    0    0  0.18529046599E+02 -0.30608229654E+02  0.10784430528E+03  0.11362474850E+03  0.00000000000E+00 0.  1.
         13    1    3    3    0    0 -0.22853772002E+02 -0.82416014511E+01 -0.98944806743E+01  0.26232034557E+02  0.00000000000E+00 0. -1.
         -3    1    1    2    0  502 -0.26400928500E+02  0.79426049314E+02 -0.54983063405E+03  0.55616475300E+03  0.00000000000E+00 0.  1.
<scales pt_clust_5="13000.00000" pt_clust_6="13000.00000" pt_clust_7="13000.00000" pt_clust_8="13000.00000" pt_clust_9="83.69890"></scales>
<clustering>
<clus scale="   83.699">  2  9  1 -1</clus>
<clus scale="   88.567">  5  6 -1 -1</clus>
<clus scale="   91.857">  7  8 -1 -1</clus>
<clus scale="   92.635">  2  5  1 -1</clus>
<clus scale="   83.699">  2  5  1 -1</clus>
</clustering>
</event>
<event>
 9    1  0.1610296E-005  0.1391490E+03  0.7546771E-02  0.1215265E+00
          2   -1    0    0  502    0 -0.00000000000E+00  0.00000000000E+00  0.41107637501E+03  0.41107637501E+03  0.00000000000E+00 0. -1.
         21   -1    0    0  501  502  0.00000000000E+00 -0.00000000000E+00 -0.10824325926E+03  0.10824325926E+03  0.00000000000E+00 0. -1.
         23    2    1    2    0    0 -0.62765106246E+02 -0.50168855735E+02  0.14104209522E+03  0.18424413281E+03  0.87158793034E+02 0.  0.
         23    2    1    2    0    0  0.14603215069E+03  0.47725805392E+02  0.17594225781E+03  0.25057918970E+03  0.90725468796E+02 0.  0.
        -11    1    4    4    0    0  0.20956953076E+02  0.27440341701E+02  0.92831473125E+02  0.99044680006E+02  0.00000000000E+00 0.  1.
         11    1    4    4    0    0  0.12507519761E+03  0.20285463691E+02  0.83110784689E+02  0.15153450969E+03  0.00000000000E+00 0. -1.
        -11    1    3    3    0    0 -0.15146000489E+02 -0.65500968163E+02  0.94051471249E+02  0.11560907147E+03  0.00000000000E+00 0.  1.
         11    1    3    3    0    0 -0.47619105757E+02  0.15332112428E+02  0.46990623976E+02  0.68635061348E+02  0.00000000000E+00 0. -1.
          2    1    1    2  501    0 -0.83267044443E+02  0.24430503427E+01 -0.14151237284E+02  0.84496311765E+02  0.00000000000E+00 0. -1.
<scales pt_clust_5="13000.00000" pt_clust_6="13000.00000" pt_clust_7="13000.00000" pt_clust_8="13000.00000" pt_clust_9="83.30288"></scales>
<clustering>
<clus scale="   83.303">  2  9  1 -1</clus>
<clus scale="   87.159">  7  8 -1 -1</clus>
<clus scale="   90.725">  5  6 -1 -1</clus>
<clus scale="  136.850">  1  7  2 -1</clus>
<clus scale="   83.303">  2  5  1 -1</clus>
</clustering>
</event>
<event>
 9    1  0.1610296E-005  0.1416721E+03  0.7546771E-02  0.1211741E+00
          3   -1    0    0  502    0 -0.00000000000E+00  0.00000000000E+00  0.79616693398E+02  0.79616693398E+02  0.00000000000E+00 0. -1.
         21   -1    0    0  501  502  0.00000000000E+00 -0.00000000000E+00 -0.37045001840E+03  0.37045001840E+03  0.00000000000E+00 0. -1.
         23    2    1    2    0    0 -0.75200379433E+02  0.69394050928E+02 -0.54406083402E+02  0.14710658672E+03  0.90607364900E+02 0.  0.
         23    2    1    2    0    0  0.68377258047E+02 -0.10515802000E+03 -0.18796278245E+03  0.24234312854E+03  0.87558699020E+02 0.  0.
        -11    1    3    3    0    0 -0.44315622454E+02  0.30237465650E+02 -0.75780171262E+02  0.92848333743E+02  0.00000000000E+00 0.  1.
         11    1    3    3    0    0 -0.30884756979E+02  0.39156585278E+02  0.21374087859E+02  0.54258252977E+02  0.00000000000E+00 0. -1.
        -13    1    4    4    0    0  0.43643299570E+02 -0.11351983489E+03 -0.17521516795E+03  0.21328817499E+03  0.00000000000E+00 0. -1.
         13    1    4    4    0    0  0.24733958477E+02  0.83618148892E+01 -0.12747614500E+02  0.29054953547E+02  0.00000000000E+00 0.  1.
          3    1    1    2  501    0  0.68231213862E+01  0.35763969070E+02 -0.48464459148E+02  0.60616996540E+02  0.00000000000E+00 0. -1.
<scales pt_clust_5="13000.00000" pt_clust_6="13000.00000" pt_clust_7="13000.00000" pt_clust_8="13000.00000" pt_clust_9="36.40902"></scales>
<clustering>
<clus scale="   36.409">  2  9  1 -1</clus>
<clus scale="   87.559">  7  8 -1 -1</clus>
<clus scale="   90.607">  5  6 -1 -1</clus>
<clus scale="  139.742">  2  7  1 -1</clus>
<clus scale="   36.409">  2  5  1 -1</clus>
</clustering>
</event>
<event>
 9    1  0.1610296E-005  0.9527757E+02  0.7546771E-02  0.1290710E+00
          3   -1    0    0  502    0 -0.00000000000E+00  0.00000000000E+00  0.53842520287E+03  0.53842520287E+03  0.00000000000E+00 0. -1.
         21   -1    0    0  501  502  0.00000000000E+00 -0.00000000000E+00 -0.27732342765E+02  0.27732342765E+02  0.00000000000E+00 0.  1.
         23    2    1    2    0    0  0.49619240377E+01  0.28248629731E+02  0.22713457000E+03  0.24646690627E+03  0.91286456941E+02 0.  0.
         23    2    1    2    0    0  0.35210781366E+02 -0.15003814335E+02  0.23611314197E+03  0.25612717915E+03  0.91579487429E+02 0.  0.
        -13    1    3    3    0    0  0.20762718542E+01 -0.25859379577E+02  0.14985498849E+03  0.15208397677E+03  0.00000000000E+00 0. -1.
         13    1    3    3    0    0  0.28856521834E+01  0.54108009308E+02  0.77279581519E+02  0.94382929492E+02  0.00000000000E+00 0.  1.
        -13    1    4    4    0    0 -0.20603184995E+02  0.23070312220E+02  0.60107371931E+02  0.67599014034E+02  0.00000000000E+00 0.  1.
         13    1    4    4    0    0  0.55813966361E+02 -0.38074126556E+02  0.17600577004E+03  0.18852816511E+03  0.00000000000E+00 0. -1.
          3    1    1    2  501    0 -0.40172705403E+02 -0.13244815395E+02  0.47445148126E+02  0.63563460219E+02  0.00000000000E+00 0. -1.
<scales pt_clust_5="13000.00000" pt_clust_6="13000.00000" pt_clust_7="13000.00000" pt_clust_8="13000.00000" pt_clust_9="42.29978"></scales>
<clustering>
<clus scale="   42.300">  2  9  1 -1</clus>
<clus scale="   91.286">  5  6 -1 -1</clus>
<clus scale="   91.579">  7  8 -1 -1</clus>
<clus scale="   94.996">  1  5  2 -1</clus>
<clus scale="   42.300">  2  5  1 -1</clus>
</clustering>
</event>
<event>
 9    1  0.1610296E-005  0.1231614E+03  0.7546771E-02  0.1238946E+00
         21   -1    0    0  501  502  0.00000000000E+00  0.00000000000E+00  0.21220872642E+03  0.21220872642E+03  0.00000000000E+00 0. -1.
          1   -1    0    0  502    0 -0.00000000000E+00 -0.00000000000E+00 -0.13329264780E+03  0.13329264780E+03  0.00000000000E+00 0. -1.
         23    2    1    2    0    0  0.16356481230E+02  0.74377234790E+02 -0.23360484066E+02  0.12054344009E+03  0.90473759734E+02 0.  0.
         23    2    1    2    0    0 -0.75067945340E+02 -0.79068416828E+02  0.57439552553E+02  0.15093496009E+03  0.87149578439E+02 0.  0.
        -11    1    4    4    0    0  0.39898565137E+01 -0.37831498523E+02 -0.97700447063E+01  0.39275883301E+02  0.00000000000E+00 0.  1.
         11    1    4    4    0    0 -0.79057801854E+02 -0.41236918305E+02  0.67209597259E+02  0.11165907679E+03  0.00000000000E+00 0. -1.
        -13    1    3    3    0    0  0.36983622761E+02  0.98575310414E+01  0.16796312669E+02  0.41798030935E+02  0.00000000000E+00 0.  1.
         13    1    3    3    0    0 -0.20627141531E+02  0.64519703749E+02 -0.40156796735E+02  0.78745409159E+02  0.00000000000E+00 0. -1.
          1    1    1    2  501    0  0.58711464110E+02  0.46911820372E+01  0.44837010138E+02  0.74022974035E+02  0.00000000000E+00 0. -1.
<scales pt_clust_5="13000.00000" pt_clust_6="13000.00000" pt_clust_7="13000.00000" pt_clust_8="13000.00000" pt_clust_9="58.89858"></scales>
<clustering>
<clus scale="   58.899">  1  9  2 -1</clus>
<clus scale="   87.150">  5  6 -1 -1</clus>
<clus scale="   90.474">  7  8 -1 -1</clus>
<clus scale="  120.741">  1  5  2 -1</clus>
<clus scale="   58.899">  1  5  2 -1</clus>
</clustering>
</event>
<event>
 9    1  0.1610296E-005  0.1013384E+03  0.7546771E-02  0.1279093E+00
         21   -1    0    0  501  502  0.00000000000E+00  0.00000000000E+00  0.13469670173E+03  0.13469670173E+03  0.00000000000E+00 0.  1.
         -2   -1    0    0    0  501 -0.00000000000E+00 -0.00000000000E+00 -0.24182238794E+03  0.24182238794E+03  0.00000000000E+00 0.  1.
         23    2    1    2    0    0 -0.21531925752E+02 -0.93419614607E+01 -0.11349878836E+03  0.14976045024E+03  0.94843668344E+02 0.  0.
         23    2    1    2    0    0  0.75026239090E+02 -0.58668876637E+02 -0.25428697676E+02  0.13457149212E+03  0.91607282397E+02 0.  0.
        -11    1    4    4    0    0  0.78921141081E+02 -0.78767286787E+02 -0.23950519327E+02  0.11404586513E+03  0.00000000000E+00 0.  1.
         11    1    4    4    0    0 -0.38949019910E+01  0.20098410150E+02 -0.14781783489E+01  0.20525626990E+02  0.00000000000E+00 0. -1.
        -13    1    3    3    0    0 -0.50736506360E+02  0.19841370084E+02 -0.49547349776E+02  0.73639750911E+02  0.00000000000E+00 0.  1.
         13    1    3    3    0    0  0.29204580608E+02 -0.29183331545E+02 -0.63951438588E+02  0.76120699327E+02  0.00000000000E+00 0. -1.
         -2    1    1    2    0  502 -0.53494313338E+02  0.68010838098E+02  0.31801799832E+02  0.92187147319E+02  0.00000000000E+00 0.  1.
<scales pt_clust_5="13000.00000" pt_clust_6="13000.00000" pt_clust_7="13000.00000" pt_clust_8="13000.00000" pt_clust_9="86.52812"></scales>
<clustering>
<clus scale="   86.528">  1  9  2 -1</clus>
<clus scale="   91.607">  5  6 -1 -1</clus>
<clus scale="   94.844">  7  8 -1 -1</clus>
<clus scale="   98.316">  1  5  2 -1</clus>
<clus scale="   86.528">  1  5  2 -1</clus>
</clustering>
</event>
<event>
 9    1  0.1610296E-005  0.1079078E+03  0.7546771E-02  0.1266631E+00
         21   -1    0    0  501  502  0.00000000000E+00  0.00000000000E+00  0.80813703148E+02  0.80813703148E+02  0.00000000000E+00 0.  1.
         -4   -1    0    0    0  501 -0.00000000000E+00 -0.00000000000E+00 -0.32098631580E+03  0.32098631580E+03  0.00000000000E+00 0.  1.
         23    2    1    2    0    0  0.62988576247E+02 -0.22460466721E+02 -0.19077776012E+03  0.22317984820E+03  0.94557165698E+02 0.  0.
         23    2    1    2    0    0 -0.16119283128E+01  0.46407783138E+02 -0.50405218567E+02  0.11272944519E+03  0.89503972563E+02 0.  0.
        -11    1    3    3    0    0  0.38205347267E+02  0.10116263767E+02 -0.17484477824E+03  0.17925591715E+03  0.00000000000E+00 0. -1.
         11    1    3    3    0    0  0.24783228980E+02 -0.32576730489E+02 -0.15932981873E+02  0.43923931055E+02  0.00000000000E+00 0.  1.
        -11    1    4    4    0    0  0.11399525798E+02 -0.21517630073E+02  0.40736034307E+01  0.24689103614E+02  0.00000000000E+00 0. -1.
         11    1    4    4    0    0 -0.13011454111E+02  0.67925413210E+02 -0.54478821998E+02  0.88040341572E+02  0.00000000000E+00 0.  1.
         -4    1    1    2    0  502 -0.61376647934E+02 -0.23947316416E+02  0.10103660339E+01  0.65890725559E+02  0.00000000000E+00 0.  1.
<scales pt_clust_5="13000.00000" pt_clust_6="13000.00000" pt_clust_7="13000.00000" pt_clust_8="13000.00000" pt_clust_9="65.88298"></scales>
<clustering>
<clus scale="   65.883">  1  9  2 -1</clus>
<clus scale="   89.504">  7  8 -1 -1</clus>
<clus scale="   94.557">  5  6 -1 -1</clus>
<clus scale="  103.508">  1  7  2 -1</clus>
<clus scale="   65.883">  1  5  2 -1</clus>
</clustering>
</event>
<event>
 9    1  0.1610296E-005  0.9623130E+02  0.7546771E-02  0.1290955E+00
          2   -1    0    0  502    0 -0.00000000000E+00  0.00000000000E+00  0.80807570359E+03  0.80807570359E+03  0.00000000000E+00 0. -1.
         21   -1    0    0  501  502  0.00000000000E+00 -0.00000000000E+00 -0.63873391703E+02  0.63873391703E+02  0.00000000000E+00 0. -1.
         23    2    1    2    0    0  0.12633256577E+02 -0.14116580398E+02  0.35531950459E+03  0.36708821954E+03  0.90238204611E+02 0.  0.
         23    2    1    2    0    0  0.53152408869E+02 -0.27998084656E+02  0.40907353807E+03  0.42418210283E+03  0.94764051733E+02 0.  0.
        -11    1    4    4    0    0  0.80671190687E+02 -0.20280518284E+02  0.32007618275E+03  0.33070818435E+03  0.00000000000E+00 0. -1.
         11    1    4    4    0    0 -0.27518781817E+02 -0.77175663717E+01  0.88997355320E+02  0.93473918488E+02  0.00000000000E+00 0.  1.
        -11    1    3    3    0    0  0.12862104067E+02  0.37984696253E+02  0.15494899766E+03  0.16005456178E+03  0.00000000000E+00 0.  1.
         11    1    3    3    0    0 -0.22884748989E+00 -0.52101276651E+02  0.20037050693E+03  0.20703365776E+03  0.00000000000E+00 0. -1.
          2    1    1    2  501    0 -0.65785665446E+02  0.42114665054E+02 -0.20190730771E+02  0.80678772920E+02  0.00000000000E+00 0. -1.
<scales pt_clust_5="13000.00000" pt_clust_6="13000.00000" pt_clust_7="13000.00000" pt_clust_8="13000.00000" pt_clust_9="78.11145"></scales>
<clustering>
<clus scale="   78.111">  2  9  1 -1</clus>
<clus scale="   90.238">  7  8 -1 -1</clus>
<clus scale="   91.778">  1  7  2 -1</clus>
<clus scale="   94.764">  5  6 -1 -1</clus>
<clus scale="   78.111">  2  5  1 -1</clus>
</clustering>
</event>
<event>
 9    1  0.1610296E-005  0.1353231E+03  0.7546771E-02  0.1220007E+00
          3   -1    0    0  502    0 -0.00000000000E+00  0.00000000000E+00  0.46979857505E+03  0.46979857505E+03  0.00000000000E+00 0. -1.
         21   -1    0    0  501  502  0.00000000000E+00 -0.00000000000E+00 -0.13528800358E+03  0.13528800358E+03  0.00000000000E+00 0.  1.
         23    2    1    2    0    0 -0.10659265854E+02  0.86468133380E+02  0.24223592590E+03  0.27325269287E+03  0.91642961152E+02 0.  0.
         23    2    1    2    0    0 -0.20843342449E+02 -0.17994469644E+03  0.90168983692E+01  0.20275199453E+03  0.90622999986E+02 0.  0.
        -11    1    4    4    0    0 -0.41814321120E+02 -0.16039213658E+03 -0.13490449198E+02  0.16630113394E+03  0.00000000000E+00 0.  1.
         11    1    4    4    0    0  0.20970978670E+02 -0.19552559859E+02  0.22507347567E+02  0.36450860592E+02  0.00000000000E+00 0. -1.
        -13    1    3    3    0    0 -0.30855623822E+02  0.96323685450E+02  0.17228996058E+03  0.19978526576E+03  0.00000000000E+00 0.  1.
         13    1    3    3    0    0  0.20196357968E+02 -0.98555520696E+01  0.69945965321E+02  0.73467427112E+02  0.00000000000E+00 0. -1.
          3    1    1    2  501    0  0.31502608304E+02  0.93476563062E+02  0.83257747211E+02  0.12908189123E+03  0.00000000000E+00 0. -1.
<scales pt_clust_5="13000.00000" pt_clust_6="13000.00000" pt_clust_7="13000.00000" pt_clust_8="13000.00000" pt_clust_9="98.64224"></scales>
<clustering>
<clus scale="   90.623">  5  6 -1 -1</clus>
<clus scale="   91.643">  7  8 -1 -1</clus>
<clus scale="   98.642">  2  9  1 -1</clus>
<clus scale="  134.634">  2  5  1 -1</clus>
<clus scale="   98.642">  2  5  1 -1</clus>
</clustering>
</event>
<event>
 9    1  0.1610296E-005  0.1466101E+03  0.7546771E-02  0.1206455E+00
         21   -1    0    0  501  502  0.00000000000E+00  0.00000000000E+00  0.86819420604E+02  0.86819420604E+02  0.00000000000E+00 0. -1.
         -1   -1    0    0    0  501 -0.00000000000E+00 -0.00000000000E+00 -0.34646279363E+03  0.34646279363E+03  0.00000000000E+00 0.  1.
         23    2    1    2    0    0  0.11252473136E+03 -0.23805615411E+02 -0.18629597128E+03  0.23746445704E+03  0.91949208545E+02 0.  0.
         23    2    1    2    0    0 -0.11450876047E+03 -0.55543363172E+00 -0.88703820326E+02  0.16695226441E+03  0.83018829905E+02 0.  0.
        -13    1    4    4    0    0 -0.44564882116E+02  0.39317797360E+00 -0.86103572551E+02  0.96953641050E+02  0.00000000000E+00 0.  1.
         13    1    4    4    0    0 -0.69943878354E+02 -0.94861160532E+00 -0.26002477756E+01  0.69998623355E+02  0.00000000000E+00 0. -1.
        -13    1    3    3    0    0  0.14147307264E+02 -0.42050964133E+02 -0.37152492768E+02  0.57868278066E+02  0.00000000000E+00 0. -1.
         13    1    3    3    0    0  0.98377424093E+02  0.18245348723E+02 -0.14914347851E+03  0.17959617898E+03  0.00000000000E+00 0.  1.
         -1    1    1    2    0  502  0.19840291128E+01  0.24361049042E+02  0.15356418580E+02  0.28865492783E+02  0.00000000000E+00 0.  1.
<scales pt_clust_5="13000.00000" pt_clust_6="13000.00000" pt_clust_7="13000.00000" pt_clust_8="13000.00000" pt_clust_9="24.44171"></scales>
<clustering>
<clus scale="   24.442">  1  9  2 -1</clus>
<clus scale="   83.019">  5  6 -1 -1</clus>
<clus scale="   91.949">  7  8 -1 -1</clus>
<clus scale="  141.181">  1  5  2 -1</clus>
<clus scale="   24.442">  1  5  2 -1</clus>
</clustering>
</event>
<event>
 9    1  0.1610296E-005  0.9652125E+02  0.7546771E-02  0.1288098E+00
         -1   -1    0    0    0  501 -0.00000000000E+00  0.00000000000E+00  0.49378280337E+02  0.49378280337E+02  0.00000000000E+00 0.  1.
         21   -1    0    0  501  502  0.00000000000E+00 -0.00000000000E+00 -0.46265907063E+03  0.46265907063E+03  0.00000000000E+00 0.  1.
         23    2    1    2    0    0 -0.36268314817E+02 -0.56806749558E+01 -0.33969798732E+02  0.10496171329E+03  0.92278671979E+02 0.  0.
         23    2    1    2    0    0 -0.30335781469E+01  0.25805308055E+02 -0.18847462118E+03  0.21119771675E+03  0.91687928386E+02 0.  0.
        -13    1    4    4    0    0 -0.38170186473E+02  0.11706148215E+02 -0.34909972886E+02  0.53034924798E+02  0.00000000000E+00 0.  1.
         13    1    4    4    0    0  0.35136608326E+02  0.14099159841E+02 -0.15356464829E+03  0.15816279195E+03  0.00000000000E+00 0. -1.
        -13    1    3    3    0    0 -0.51603987218E+01 -0.44210292718E+02 -0.33039853499E+02  0.55432947030E+02  0.00000000000E+00 0. -1.
         13    1    3    3    0    0 -0.31107916095E+02  0.38529617762E+02 -0.92994523370E+00  0.49528766256E+02  0.00000000000E+00 0.  1.
         -1    1    1    2    0  502  0.39301892964E+02 -0.20124633100E+02 -0.19083637038E+03  0.19587792093E+03  0.00000000000E+00 0.  1.
<scales pt_clust_5="13000.00000" pt_clust_6="13000.00000" pt_clust_7="13000.00000" pt_clust_8="13000.00000" pt_clust_9="44.15472"></scales>
<clustering>
<clus scale="   44.155">  2  9  1 -1</clus>
<clus scale="   91.688">  5  6 -1 -1</clus>
<clus scale="   92.279">  7  8 -1 -1</clus>
<clus scale="   95.957">  2  5  1 -1</clus>
<clus scale="   44.155">  2  5  1 -1</clus>
</clustering>
</event>
<event>
 9    1  0.1610296E-005  0.1077378E+03  0.7546771E-02  0.1267799E+00
         21   -1    0    0  501  502  0.00000000000E+00  0.00000000000E+00  0.10544139798E+03  0.10544139798E+03  0.00000000000E+00 0.  1.
         -3   -1    0    0    0  501 -0.00000000000E+00 -0.00000000000E+00 -0.22040034519E+03  0.22040034519E+03  0.00000000000E+00 0.  1.
         23    2    1    2    0    0 -0.53866973313E+02 -0.37113712545E+02 -0.92068378036E+02  0.14610181679E+03  0.92682663771E+02 0.  0.
         23    2    1    2    0    0  0.18344789769E+02  0.46187395407E+02 -0.69154552599E+02  0.12071015926E+03  0.85549889518E+02 0.  0.
        -11    1    3    3    0    0 -0.62990667577E+02  0.75335967065E+01 -0.33033572385E+02  0.71524794203E+02  0.00000000000E+00 0. -1.
         11    1    3    3    0    0  0.91236942647E+01 -0.44647309252E+02 -0.59034805651E+02  0.74577022592E+02  0.00000000000E+00 0.  1.
        -11    1    4    4    0    0  0.22351307108E+02 -0.96374451581E+01 -0.59005801288E+02  0.63829036215E+02  0.00000000000E+00 0.  1.
         11    1    4    4    0    0 -0.40065173383E+01  0.55824840565E+02 -0.10148751312E+02  0.56881123042E+02  0.00000000000E+00 0. -1.
         -3    1    1    2    0  502  0.35522183543E+02 -0.90736828616E+01  0.46263983419E+02  0.59029767119E+02  0.00000000000E+00 0.  1.
<scales pt_clust_5="13000.00000" pt_clust_6="13000.00000" pt_clust_7="13000.00000" pt_clust_8="13000.00000" pt_clust_9="36.66275"></scales>
<clustering>
<clus scale="   36.663">  1  9  2 -1</clus>
<clus scale="   85.550">  7  8 -1 -1</clus>
<clus scale="   92.683">  5  6 -1 -1</clus>
<clus scale="  101.667">  1  7  2 -1</clus>
<clus scale="   36.663">  1  5  2 -1</clus>
</clustering>
</event>
<event>
 9    1  0.1610296E-005  0.1072190E+03  0.7546771E-02  0.1267576E+00
         21   -1    0    0  501  502  0.00000000000E+00  0.00000000000E+00  0.50410466022E+03  0.50410466022E+03  0.00000000000E+00 0. -1.
         -1   -1    0    0    0  501 -0.00000000000E+00 -0.00000000000E+00 -0.74064359825E+02  0.74064359825E+02  0.00000000000E+00 0.  1.
         23    2    1    2    0    0  0.46642581565E+02 -0.21213848165E+02 -0.69285554865E+01  0.10441633620E+03  0.90714985612E+02 0.  0.
         23    2    1    2    0    0 -0.68407381109E+02  0.66540825851E+02  0.26551296481E+03  0.29507598143E+03  0.86402830030E+02 0.  0.
        -11    1    3    3    0    0  0.38134009469E+02 -0.56342307475E+02 -0.39183800527E+01  0.68146988137E+02  0.00000000000E+00 0.  1.
         11    1    3    3    0    0  0.85085720959E+01  0.35128459310E+02 -0.30101754338E+01  0.36269348061E+02  0.00000000000E+00 0. -1.
        -13    1    4    4    0    0 -0.88911994546E+02  0.58958974002E+02  0.21408203759E+03  0.23919160145E+03  0.00000000000E+00 0. -1.
         13    1    4    4    0    0  0.20504613437E+02  0.75818518494E+01  0.51430927226E+02  0.55884379973E+02  0.00000000000E+00 0.  1.
         -1    1    1    2    0  502  0.21764799544E+02 -0.45326977685E+02  0.17145589107E+03  0.17867670242E+03  0.00000000000E+00 0.  1.
<scales pt_clust_5="13000.00000" pt_clust_6="13000.00000" pt_clust_7="13000.00000" pt_clust_8="13000.00000" pt_clust_9="50.28162"></scales>
<clustering>
<clus scale="   50.282">  1  9  2 -1</clus>
<clus scale="   86.403">  7  8 -1 -1</clus>
<clus scale="   90.715">  5  6 -1 -1</clus>
<clus scale="  103.596">  1  7  2 -1</clus>
<clus scale="   50.282">  1  5  2 -1</clus>
</clustering>
</event>
<event>
 9    1  0.1610296E-005  0.1263291E+03  0.7546771E-02  0.1233391E+00
          1   -1    0    0  502    0 -0.00000000000E+00  0.00000000000E+00  0.79628684506E+03  0.79628684506E+03  0.00000000000E+00 0. -1.
         21   -1    0    0  501  502  0.00000000000E+00 -0.00000000000E+00 -0.63631551667E+02  0.63631551667E+02  0.00000000000E+00 0. -1.
         23    2    1    2    0    0 -0.90776437084E+02  0.36154914728E+02  0.59874961511E+03  0.61353316538E+03  0.91511223543E+02 0.  0.
         23    2    1    2    0    0  0.26036962182E+02 -0.69900405760E+02  0.12758137162E+03  0.17310525707E+03  0.90135639542E+02 0.  0.
        -11    1    4    4    0    0 -0.14007400957E+02 -0.74680578699E+02  0.74202562612E+02  0.10620459696E+03  0.00000000000E+00 0. -1.
         11    1    4    4    0    0  0.40044363139E+02  0.47801729382E+01  0.53378809012E+02  0.66900660117E+02  0.00000000000E+00 0.  1.
        -13    1    3    3    0    0 -0.46417857456E+02 -0.26371956406E+02  0.32048289090E+03  0.32489903191E+03  0.00000000000E+00 0.  1.
         13    1    3    3    0    0 -0.44358579628E+02  0.62526871134E+02  0.27826672421E+03  0.28863413346E+03  0.00000000000E+00 0. -1.
          1    1    1    2  501    0  0.64739474902E+02  0.33745491033E+02  0.63243066599E+01  0.73279974279E+02  0.00000000000E+00 0. -1.
<scales pt_clust_5="13000.00000" pt_clust_6="13000.00000" pt_clust_7="13000.00000" pt_clust_8="13000.00000" pt_clust_9="73.00656"></scales>
<clustering>
<clus scale="   73.007">  2  9  1 -1</clus>
<clus scale="   90.136">  5  6 -1 -1</clus>
<clus scale="   91.511">  7  8 -1 -1</clus>
<clus scale="  125.336">  2  5  1 -1</clus>
<clus scale="   73.007">  2  5  1 -1</clus>
</clustering>
</event>
<event>
 9    1  0.1610296E-005  0.1341415E+03  0.7546771E-02  0.1234662E+00
         21   -1    0    0  501  502  0.00000000000E+00  0.00000000000E+00  0.96907696408E+02  0.96907696408E+02  0.00000000000E+00 0. -1.
          1   -1    0    0  502    0 -0.00000000000E+00 -0.00000000000E+00 -0.35517012316E+03  0.35517012316E+03  0.00000000000E+00 0. -1.
         23    2    1    2    0    0  0.34660251246E+02 -0.41075373503E+02 -0.71816179789E+02  0.12474068285E+03  0.86684225516E+02 0.  0.
         23    2    1    2    0    0 -0.20054178860E+02 -0.63840464564E+02 -0.18957441499E+03  0.22136329153E+03  0.92657827588E+02 0.  0.
        -11    1    3    3    0    0 -0.23901942431E+02 -0.33552842847E+02 -0.41073193717E+02  0.58173046656E+02  0.00000000000E+00 0.  1.
         11    1    3    3    0    0  0.58562193677E+02 -0.75225306559E+01 -0.30742986071E+02  0.66567636193E+02  0.00000000000E+00 0. -1.
        -13    1    4    4    0    0 -0.48718102415E+02 -0.20563102637E+02 -0.51335172255E+02  0.73699352802E+02  0.00000000000E+00 0. -1.
         13    1    4    4    0    0  0.28663923556E+02 -0.43277361927E+02 -0.13823924274E+03  0.14766393873E+03  0.00000000000E+00 0.  1.
          1    1    1    2  501    0 -0.14606072387E+02  0.10491583807E+03  0.31281680308E+01  0.10597384518E+03  0.00000000000E+00 0. -1.
<scales pt_clust_5="13000.00000" pt_clust_6="13000.00000" pt_clust_7="13000.00000" pt_clust_8="13000.00000" pt_clust_9="96.99722"></scales>
<clustering>
<clus scale="   86.684">  5  6 -1 -1</clus>
<clus scale="   92.658">  7  8 -1 -1</clus>
<clus scale="  101.994">  2  5  1 -1</clus>
<clus scale="   96.997">  1  9  2 -1</clus>
<clus scale="   96.997">  1  5  2 -1</clus>
</clustering>
</event>
<event>
 9    1  0.1610296E-005  0.1045780E+03  0.7546771E-02  0.1271637E+00
         -4   -1    0    0    0  501 -0.00000000000E+00  0.00000000000E+00  0.36901108575E+02  0.36901108575E+02  0.00000000000E+00 0.  1.
         21   -1    0    0  501  502  0.00000000000E+00 -0.00000000000E+00 -0.69046867737E+03  0.69046867737E+03  0.00000000000E+00 0.  1.
         23    2    1    2    0    0 -0.43012425835E+02  0.41041874780E+02 -0.10401243225E+03  0.15117788536E+03  0.92204461373E+02 0.  0.
         23    2    1    2    0    0 -0.13021001742E+01 -0.33711615159E+02 -0.19670258400E+03  0.22049197964E+03  0.93737068832E+02 0.  0.
        -11    1    3    3    0    0  0.28804025457E+02  0.18941945971E+02 -0.35672300752E+02  0.49608288024E+02  0.00000000000E+00 0. -1.
         11    1    3    3    0    0 -0.71816451292E+02  0.22099928809E+02 -0.68340131499E+02  0.10156959733E+03  0.00000000000E+00 0.  1.
        -11    1    4    4    0    0 -0.44452398125E+02 -0.11544869100E+01 -0.72720291576E+02  0.85238426463E+02  0.00000000000E+00 0.  1.
         11    1    4    4    0    0  0.43150297951E+02 -0.32557128249E+02 -0.12398229242E+03  0.13525355318E+03  0.00000000000E+00 0. -1.
         -4    1    1    2    0  502  0.44314526009E+02 -0.73302596214E+01 -0.35285255254E+03  0.35569992094E+03  0.00000000000E+00 0.  1.
<scales pt_clust_5="13000.00000" pt_clust_6="13000.00000" pt_clust_7="13000.00000" pt_clust_8="13000.00000" pt_clust_9="44.91670"></scales>
<clustering>
<clus scale="   44.917">  2  9  1 -1</clus>
<clus scale="   92.204">  5  6 -1 -1</clus>
<clus scale="   93.737">  7  8 -1 -1</clus>
<clus scale="  103.207">  1  5  2 -1</clus>
<clus scale="   44.917">  2  5  1 -1</clus>
</clustering>
</event>
<event>
 9    1  0.1610296E-005  0.9483483E+02  0.7546771E-02  0.1293445E+00
          2   -1    0    0  502    0 -0.00000000000E+00  0.00000000000E+00  0.39165166700E+03  0.39165166700E+03  0.00000000000E+00 0. -1.
         21   -1    0    0  501  502  0.00000000000E+00 -0.00000000000E+00 -0.48517060415E+02  0.48517060415E+02  0.00000000000E+00 0.  1.
         23    2    1    2    0    0 -0.11468954294E+02  0.28733959250E+02  0.22511055044E+03  0.24265079997E+03  0.85132094309E+02 0.  0.
         23    2    1    2    0    0 -0.78241281822E+01 -0.41628459700E+02  0.13626540769E+03  0.16800118509E+03  0.88667870282E+02 0.  0.
        -11    1    3    3    0    0 -0.37931787924E+02 -0.34707191695E+01  0.16604954736E+03  0.17036231569E+03  0.00000000000E+00 0. -1.
         11    1    3    3    0    0  0.26462833631E+02  0.32204678420E+02  0.59061003073E+02  0.72288484283E+02  0.00000000000E+00 0.  1.
        -13    1    4    4    0    0 -0.12649586514E+02  0.26181378864E+02  0.53543908055E+02  0.60929686754E+02  0.00000000000E+00 0. -1.
         13    1    4    4    0    0  0.48254583315E+01 -0.67809838564E+02  0.82721499631E+02  0.10707149833E+03  0.00000000000E+00 0.  1.
          2    1    1    2  501    0  0.19293082476E+02  0.12894500450E+02 -0.18241351540E+02  0.29516742356E+02  0.00000000000E+00 0. -1.
<scales pt_clust_5="13000.00000" pt_clust_6="13000.00000" pt_clust_7="13000.00000" pt_clust_8="13000.00000" pt_clust_9="23.20541"></scales>
<clustering>
<clus scale="   23.205">  2  9  1 -1</clus>
<clus scale="   85.132">  5  6 -1 -1</clus>
<clus scale="   88.668">  7  8 -1 -1</clus>
<clus scale="   91.538">  1  5  2 -1</clus>
<clus scale="   23.205">  2  5  1 -1</clus>
</clustering>
</event>
<event>
 9    1  0.1610296E-005  0.9132109E+02  0.7546771E-02  0.1300071E+00
          1   -1    0    0  502    0 -0.00000000000E+00  0.00000000000E+00  0.51707885929E+03  0.51707885929E+03  0.00000000000E+00 0. -1.
         21   -1    0    0  501  502  0.00000000000E+00 -0.00000000000E+00 -0.26892230096E+02  0.26892230096E+02  0.00000000000E+00 0.  1.
         23    2    1    2    0    0 -0.24354547892E+02 -0.30239539055E+01  0.26689374591E+03  0.28269756731E+03  0.89907478322E+02 0.  0.
         23    2    1    2    0    0 -0.11375983424E+02 -0.18833435071E+02  0.16485122511E+03  0.18937189670E+03  0.90563113707E+02 0.  0.
        -13    1    3    3    0    0  0.27505393546E+02 -0.27053365514E+01  0.32629475430E+02  0.42761526947E+02  0.00000000000E+00 0. -1.
         13    1    3    3    0    0 -0.51859941438E+02 -0.31861735406E+00  0.23426427048E+03  0.23993604036E+03  0.00000000000E+00 0.  1.
        -13    1    4    4    0    0 -0.25835995055E+02 -0.50932760923E+02  0.88992242245E+02  0.10574149590E+03  0.00000000000E+00 0.  1.
         13    1    4    4    0    0  0.14460011631E+02  0.32099325851E+02  0.75858982869E+02  0.83630400803E+02  0.00000000000E+00 0. -1.
          1    1    1    2  501    0  0.35730531316E+02  0.21857388977E+02  0.58441658170E+02  0.71901625369E+02  0.00000000000E+00 0. -1.
<scales pt_clust_5="13000.00000" pt_clust_6="13000.00000" pt_clust_7="13000.00000" pt_clust_8="13000.00000" pt_clust_9="41.88575"></scales>
<clustering>
<clus scale="   41.886">  2  9  1 -1</clus>
<clus scale="   89.907">  5  6 -1 -1</clus>
<clus scale="   90.563">  7  8 -1 -1</clus>
<clus scale="   90.671">  1  5  2 -1</clus>
<clus scale="   41.886">  2  5  1 -1</clus>
</clustering>
</event>
<event>
 9    1  0.1610296E-005  0.1038779E+03  0.7546771E-02  0.1272444E+00
          4   -1    0    0  502    0 -0.00000000000E+00  0.00000000000E+00  0.34146174966E+02  0.34146174966E+02  0.00000000000E+00 0. -1.
         21   -1    0    0  501  502  0.00000000000E+00 -0.00000000000E+00 -0.43068858761E+03  0.43068858761E+03  0.00000000000E+00 0.  1.
         23    2    1    2    0    0  0.36220556217E+02  0.20531880287E+02 -0.12297370230E+03  0.15856536691E+03  0.91032726675E+02 0.  0.
         23    2    1    2    0    0 -0.49425090354E+02 -0.38217297647E+02 -0.18829408057E+03  0.21818479887E+03  0.90810485541E+02 0.  0.
        -11    1    3    3    0    0  0.27103376697E+02 -0.34726499504E+02 -0.56516459448E+02  0.71656353415E+02  0.00000000000E+00 0.  1.
         11    1    3    3    0    0  0.91171795191E+01  0.55258379791E+02 -0.66457242851E+02  0.86909013496E+02  0.00000000000E+00 0. -1.
        -13    1    4    4    0    0 -0.35150881572E+02 -0.92843709236E+01 -0.11006911999E+02  0.37985999138E+02  0.00000000000E+00 0. -1.
         13    1    4    4    0    0 -0.14274208782E+02 -0.28932926723E+02 -0.17728716857E+03  0.18019879973E+03  0.00000000000E+00 0.  1.
          4    1    1    2  501    0  0.13204534138E+02  0.17685417359E+02 -0.85274629774E+02  0.88084596792E+02  0.00000000000E+00 0. -1.
<scales pt_clust_5="13000.00000" pt_clust_6="13000.00000" pt_clust_7="13000.00000" pt_clust_8="13000.00000" pt_clust_9="22.07111"></scales>
<clustering>
<clus scale="   22.071">  2  9  1 -1</clus>
<clus scale="   90.810">  7  8 -1 -1</clus>
<clus scale="   91.033">  5  6 -1 -1</clus>
<clus scale="  103.683">  2  7  1 -1</clus>
<clus scale="   22.071">  2  5  1 -1</clus>
</clustering>
</event>
<event>
 9    1  0.1610296E-005  0.9495314E+02  0.7546771E-02  0.1291797E+00
         21   -1    0    0  501  502  0.00000000000E+00  0.00000000000E+00  0.69392837671E+02  0.69392837671E+02  0.00000000000E+00 0.  1.
         -2   -1    0    0    0  501 -0.00000000000E+00 -0.00000000000E+00 -0.52942008267E+03  0.52942008267E+03  0.00000000000E+00 0.  1.
         23    2    1    2    0    0  0.17827082201E+02  0.21221330529E+02 -0.26908130347E+03  0.28528161417E+03  0.90623958064E+02 0.  0.
         23    2    1    2    0    0 -0.27975243086E+02  0.54148073407E+00 -0.24028518898E+03  0.25865903209E+03  0.91567545633E+02 0.  0.
        -11    1    3    3    0    0  0.38892764987E+02  0.34521927567E+02 -0.24560404017E+03  0.25104930830E+03  0.00000000000E+00 0. -1.
         11    1    3    3    0    0 -0.21065682786E+02 -0.13300597038E+02 -0.23477263303E+02  0.34232305867E+02  0.00000000000E+00 0.  1.
        -13    1    4    4    0    0  0.12324358187E+02 -0.37645554022E+02 -0.11476697315E+03  0.12141060773E+03  0.00000000000E+00 0.  1.
         13    1    4    4    0    0 -0.40299601273E+02  0.38187034756E+02 -0.12551821583E+03  0.13724842437E+03  0.00000000000E+00 0. -1.
         -2    1    1    2    0  502  0.10148160885E+02 -0.21762811263E+02  0.49339247453E+02  0.54872274079E+02  0.00000000000E+00 0.  1.
<scales pt_clust_5="13000.00000" pt_clust_6="13000.00000" pt_clust_7="13000.00000" pt_clust_8="13000.00000" pt_clust_9="24.01260"></scales>
<clustering>
<clus scale="   24.013">  1  9  2 -1</clus>
<clus scale="   90.624">  5  6 -1 -1</clus>
<clus scale="   91.568">  7  8 -1 -1</clus>
<clus scale="   94.044">  2  5  1 -1</clus>
<clus scale="   24.013">  1  5  2 -1</clus>
</clustering>
</event>
<event>
 9    1  0.1610296E-005  0.1480084E+03  0.7546771E-02  0.1204069E+00
         21   -1    0    0  501  502  0.00000000000E+00  0.00000000000E+00  0.35706172900E+03  0.35706172900E+03  0.00000000000E+00 0. -1.
          3   -1    0    0  502    0 -0.00000000000E+00 -0.00000000000E+00 -0.27582753365E+03  0.27582753365E+03  0.00000000000E+00 0. -1.
         23    2    1    2    0    0 -0.14632789580E+02  0.10524448963E+03 -0.13043590923E+03  0.19483023648E+03  0.98258706989E+02 0.  0.
         23    2    1    2    0    0  0.66511583702E+02 -0.10560379526E+03 -0.56077424861E+02  0.16533154698E+03  0.92811047339E+02 0.  0.
        -11    1    4    4    0    0  0.18869904218E+02 -0.10541784409E+03 -0.30986022608E+02  0.11148600242E+03  0.00000000000E+00 0.  1.
         11    1    4    4    0    0  0.47641679484E+02 -0.18595116498E+00 -0.25091402253E+02  0.53845544560E+02  0.00000000000E+00 0. -1.
        -11    1    3    3    0    0 -0.50404015201E+02  0.71405601657E+02 -0.50494947023E+02  0.10094089544E+03  0.00000000000E+00 0. -1.
         11    1    3    3    0    0  0.35771225622E+02  0.33838887972E+02 -0.79940962212E+02  0.93889341041E+02  0.00000000000E+00 0.  1.
          3    1    1    2  501    0 -0.51878794123E+02  0.35930562894E+00  0.26774752945E+03  0.27272747920E+03  0.00000000000E+00 0. -1.
<scales pt_clust_5="13000.00000" pt_clust_6="13000.00000" pt_clust_7="13000.00000" pt_clust_8="13000.00000" pt_clust_9="51.88004"></scales>
<clustering>
<clus scale="   51.880">  1  9  2 -1</clus>
<clus scale="   92.811">  5  6 -1 -1</clus>
<clus scale="   98.259">  7  8 -1 -1</clus>
<clus scale="  144.449">  1  5  2 -1</clus>
<clus scale="   51.880">  1  5  2 -1</clus>
</clustering>
</event>
<event>
 9    1  0.1610296E-005  0.1208110E+03  0.7546771E-02  0.1246071E+00
         21   -1    0    0  501  502  0.00000000000E+00  0.00000000000E+00  0.12312781412E+03  0.12312781412E+03  0.00000000000E+00 0.  1.
          1   -1    0    0  502    0 -0.00000000000E+00 -0.00000000000E+00 -0.24286437148E+03  0.24286437148E+03  0.00000000000E+00 0. -1.
         23    2    1    2    0    0  0.37748685315E+02  0.63401126145E+02 -0.16486453123E+03  0.19962210697E+03  0.84994152122E+02 0.  0.
         23    2    1    2    0    0 -0.59299166977E+02 -0.32522227202E+02  0.18578464436E+02  0.12029615856E+03  0.97733924294E+02 0.  0.
        -11    1    4    4    0    0 -0.70795687494E+02  0.72244490568E+01  0.30219359090E+02  0.77313851901E+02  0.00000000000E+00 0.  1.
         11    1    4    4    0    0  0.11496520517E+02 -0.39746676259E+02 -0.11640894654E+02  0.42982306662E+02  0.00000000000E+00 0. -1.
        -13    1    3    3    0    0  0.83957091329E+01  0.51373288260E+02 -0.15907618344E+03  0.16737662566E+03  0.00000000000E+00 0. -1.
         13    1    3    3    0    0  0.29352976182E+02  0.12027837886E+02 -0.57883477857E+01  0.32245481312E+02  0.00000000000E+00 0.  1.
          1    1    1    2  501    0  0.21550481661E+02 -0.30878898943E+02  0.26549509430E+02  0.46073920071E+02  0.00000000000E+00 0. -1.
<scales pt_clust_5="13000.00000" pt_clust_6="13000.00000" pt_clust_7="13000.00000" pt_clust_8="13000.00000" pt_clust_9="37.65541"></scales>
<clustering>
<clus scale="   37.655">  1  9  2 -1</clus>
<clus scale="   84.994">  7  8 -1 -1</clus>
<clus scale="   97.734">  5  6 -1 -1</clus>
<clus scale="  110.758">  2  7  1 -1</clus>
<clus scale="   37.655">  1  5  2 -1</clus>
</clustering>
</event>
<event>
 9    1  0.1610296E-005  0.1516538E+03  0.7546771E-02  0.1217330E+00
         -2   -1    0    0    0  501 -0.00000000000E+00  0.00000000000E+00  0.34372948729E+02  0.34372948729E+02  0.00000000000E+00 0.  1.
         21   -1    0    0  501  502  0.00000000000E+00 -0.00000000000E+00 -0.14422762391E+04  0.14422762391E+04  0.00000000000E+00 0.  1.
         23    2    1    2    0    0  0.40111674597E+02  0.18109770500E+02 -0.17416239625E+03  0.20142987122E+03  0.91129262721E+02 0.  0.
         23    2    1    2    0    0 -0.12965443975E+02 -0.13064697214E+03 -0.37485699314E+03  0.40856881326E+03  0.95780873877E+02 0.  0.
        -11    1    3    3    0    0 -0.18090651844E+02 -0.22102380859E+02 -0.33829642635E+02  0.44274503324E+02  0.00000000000E+00 0.  1.
         11    1    3    3    0    0  0.58202326442E+02  0.40212151359E+02 -0.14033275362E+03  0.15715536789E+03  0.00000000000E+00 0. -1.
        -11    1    4    4    0    0  0.20483890765E+02 -0.11328156231E+03 -0.21025301784E+03  0.23970530585E+03  0.00000000000E+00 0.  1.
         11    1    4    4    0    0 -0.33449334740E+02 -0.17365409826E+02 -0.16460397529E+03  0.16886350741E+03  0.00000000000E+00 0. -1.
         -2    1    1    2    0  502 -0.27146230623E+02  0.11253720164E+03 -0.85888390097E+03  0.86665050334E+03  0.00000000000E+00 0.  1.
<scales pt_clust_5="13000.00000" pt_clust_6="13000.00000" pt_clust_7="13000.00000" pt_clust_8="13000.00000" pt_clust_9="117.57930"></scales>
<clustering>
<clus scale="   91.129">  5  6 -1 -1</clus>
<clus scale="   95.781">  7  8 -1 -1</clus>
<clus scale="  101.200">  1  5  2 -1</clus>
<clus scale="  117.579">  2  9  1 -1</clus>
<clus scale="  117.579">  2  5  1 -1</clus>
</clustering>
</event>
<event>
 9    1  0.1610296E-005  0.9388808E+02  0.7546771E-02  0.1294238E+00
         21   -1    0    0  501  502  0.00000000000E+00  0.00000000000E+00  0.12363377002E+03  0.12363377002E+03  0.00000000000E+00 0.  1.
          1   -1    0    0  502    0 -0.00000000000E+00 -0.00000000000E+00 -0.20305997825E+03  0.20305997825E+03  0.00000000000E+00 0. -1.
         23    2    1    2    0    0 -0.37463541652E+01 -0.45497848325E+01 -0.11752302962E+03  0.14945556298E+03  0.92144273311E+02 0.  0.
         23    2    1    2    0    0 -0.51075467148E+02  0.32645589588E+02  0.18647586772E+02  0.11263881173E+03  0.93087762635E+02 0.  0.
        -13    1    3    3    0    0  0.33631466088E+02 -0.22028691193E+02 -0.93335803499E+02  0.10162633006E+03  0.00000000000E+00 0. -1.
         13    1    3    3    0    0 -0.37377820253E+02  0.17478906360E+02 -0.24187226118E+02  0.47829232920E+02  0.00000000000E+00 0.  1.
        -13    1    4    4    0    0 -0.70395146232E+02  0.48768851805E+02  0.11017912298E+02  0.86343916467E+02  0.00000000000E+00 0.  1.
         13    1    4    4    0    0  0.19319679084E+02 -0.16123262218E+02  0.76296744744E+01  0.26294895266E+02  0.00000000000E+00 0. -1.
          1    1    1    2  501    0  0.54821821313E+02 -0.28095804755E+02  0.19449234618E+02  0.64599373558E+02  0.00000000000E+00 0. -1.
<scales pt_clust_5="13000.00000" pt_clust_6="13000.00000" pt_clust_7="13000.00000" pt_clust_8="13000.00000" pt_clust_9="61.60200"></scales>
<clustering>
<clus scale="   61.602">  1  9  2 -1</clus>
<clus scale="   92.144">  5  6 -1 -1</clus>
<clus scale="   92.953">  2  5  1 -1</clus>
<clus scale="   93.088">  7  8 -1 -1</clus>
<clus scale="   61.602">  1  5  2 -1</clus>
</clustering>
</event>
<event>
 9    1  0.1610296E-005  0.1379192E+03  0.7546771E-02  0.1231423E+00
         -3   -1    0    0    0  501 -0.00000000000E+00  0.00000000000E+00  0.28842230063E+03  0.28842230063E+03  0.00000000000E+00 0.  1.
         21   -1    0    0  501  502  0.00000000000E+00 -0.00000000000E+00 -0.25339049811E+03  0.25339049811E+03  0.00000000000E+00 0.  1.
         23    2    1    2    0    0 -0.59913185991E+01 -0.40644483038E+02  0.13923041862E+03  0.17159395042E+03  0.91495925870E+02 0.  0.
         23    2    1    2    0    0 -0.24670243025E+02 -0.65841657823E+02  0.91710758947E+02  0.14514127772E+03  0.87814477149E+02 0.  0.
        -11    1    4    4    0    0 -0.21162286375E+02  0.21327795650E+01  0.70816361077E+02  0.73941518171E+02  0.00000000000E+00 0.  1.
         11    1    4    4    0    0 -0.35079566500E+01 -0.67974437388E+02  0.20894397870E+02  0.71199759553E+02  0.00000000000E+00 0. -1.
        -11    1    3    3    0    0  0.30858896717E+02 -0.17693923548E+02  0.12614259315E+02  0.37742098182E+02  0.00000000000E+00 0. -1.
         11    1    3    3    0    0 -0.36850215316E+02 -0.22950559490E+02  0.12661615930E+03  0.13385185223E+03  0.00000000000E+00 0.  1.
         -3    1    1    2    0  502  0.30661561624E+02  0.10648614086E+03 -0.19590937505E+03  0.22507757060E+03  0.00000000000E+00 0.  1.
<scales pt_clust_5="13000.00000" pt_clust_6="13000.00000" pt_clust_7="13000.00000" pt_clust_8="13000.00000" pt_clust_9="106.34999"></scales>
<clustering>
<clus scale="   87.814">  5  6 -1 -1</clus>
<clus scale="   91.496">  7  8 -1 -1</clus>
<clus scale="  100.296">  1  7  2 -1</clus>
<clus scale="  106.350">  2  9  1 -1</clus>
<clus scale="  106.350">  2  5  1 -1</clus>
</clustering>
</event>
<event>
 9    1  0.1610296E-005  0.9338081E+02  0.7546771E-02  0.1305478E+00
         -2   -1    0    0    0  501 -0.00000000000E+00  0.00000000000E+00  0.14739410279E+03  0.14739410279E+03  0.00000000000E+00 0.  1.
         21   -1    0    0  501  502  0.00000000000E+00 -0.00000000000E+00 -0.19206832615E+03  0.19206832615E+03  0.00000000000E+00 0. -1.
         23    2    1    2    0    0 -0.15789028849E+02  0.17497096053E+02  0.10969776706E+03  0.13436489461E+03  0.73924846983E+02 0.  0.
         23    2    1    2    0    0 -0.10382139389E+02 -0.88961729120E+01 -0.68033273347E+02  0.11447038613E+03  0.91038521010E+02 0.  0.
        -11    1    3    3    0    0 -0.38542660835E+02 -0.11908465371E+02  0.59921080942E+02  0.72234923639E+02  0.00000000000E+00 0.  1.
         11    1    3    3    0    0  0.22753631986E+02  0.29405561424E+02  0.49776686122E+02  0.62129970968E+02  0.00000000000E+00 0. -1.
        -13    1    4    4    0    0 -0.11801053189E+02  0.19083310118E+02  0.14899249372E+02  0.26933718890E+02  0.00000000000E+00 0.  1.
         13    1    4    4    0    0  0.14189138000E+01 -0.27979483030E+02 -0.82932522719E+02  0.87536667240E+02  0.00000000000E+00 0. -1.
         -2    1    1    2    0  502  0.26171168238E+02 -0.86009231406E+01 -0.86338717070E+02  0.90627148201E+02  0.00000000000E+00 0.  1.
<scales pt_clust_5="13000.00000" pt_clust_6="13000.00000" pt_clust_7="13000.00000" pt_clust_8="13000.00000" pt_clust_9="27.54825"></scales>
<clustering>
<clus scale="   27.548">  2  9  1 -1</clus>
<clus scale="   73.925">  5  6 -1 -1</clus>
<clus scale="   76.791">  1  5  2 -1</clus>
<clus scale="   91.039">  7  8 -1 -1</clus>
<clus scale="   27.548">  2  5  1 -1</clus>
</clustering>
</event>
<event>
 9    1  0.1610296E-005  0.9109715E+02  0.7546771E-02  0.1300971E+00
          1   -1    0    0  502    0 -0.00000000000E+00  0.00000000000E+00  0.42808487460E+03  0.42808487460E+03  0.00000000000E+00 0. -1.
         21   -1    0    0  501  502  0.00000000000E+00 -0.00000000000E+00 -0.79425778164E+02  0.79425778164E+02  0.00000000000E+00 0.  1.
         23    2    1    2    0    0 -0.32315955885E+01  0.23131480767E+02  0.21594488744E+03  0.23530337164E+03  0.90498473356E+02 0.  0.
         23    2    1    2    0    0 -0.13378761687E+02  0.55526978766E+01  0.18751118521E+03  0.20816514910E+03  0.89232622962E+02 0.  0.
        -11    1    3    3    0    0  0.16916678953E+02 -0.20056517912E+02  0.15853092446E+03  0.16068756003E+03  0.00000000000E+00 0. -1.
         11    1    3    3    0    0 -0.20148274541E+02  0.43187998679E+02  0.57413962975E+02  0.74615811605E+02  0.00000000000E+00 0.  1.
        -11    1    4    4    0    0 -0.11522198062E+02 -0.41350961233E+02  0.78331411290E+02  0.89322298659E+02  0.00000000000E+00 0. -1.
         11    1    4    4    0    0 -0.18565636253E+01  0.46903659110E+02  0.10917977392E+03  0.11884285044E+03  0.00000000000E+00 0.  1.
          1    1    1    2  501    0  0.16610357276E+02 -0.28684178644E+02 -0.54796976213E+02  0.64042132033E+02  0.00000000000E+00 0. -1.
<scales pt_clust_5="13000.00000" pt_clust_6="13000.00000" pt_clust_7="13000.00000" pt_clust_8="13000.00000" pt_clust_9="33.14643"></scales>
<clustering>
<clus scale="   33.146">  2  9  1 -1</clus>
<clus scale="   89.233">  7  8 -1 -1</clus>
<clus scale="   89.840">  2  7  1 -1</clus>
<clus scale="   90.498">  5  6 -1 -1</clus>
<clus scale="   33.146">  2  5  1 -1</clus>
</clustering>
</event>
<event>
 9    1  0.1610296E-005  0.1413229E+03  0.7546771E-02  0.1212366E+00
          1   -1    0    0  502    0 -0.00000000000E+00  0.00000000000E+00  0.10543787496E+03  0.10543787496E+03  0.00000000000E+00 0. -1.
         21   -1    0    0  501  502  0.00000000000E+00 -0.00000000000E+00 -0.26445505765E+03  0.26445505765E+03  0.00000000000E+00 0.  1.
         23    2    1    2    0    0  0.11969731203E+03  0.15341344418E+02 -0.29779237014E+02  0.15413014979E+03  0.91139984414E+02 0.  0.
         23    2    1    2    0    0 -0.94187251974E+02 -0.21127564797E+01 -0.62039969586E+02  0.14267840219E+03  0.87363988290E+02 0.  0.
        -11    1    4    4    0    0 -0.53644869547E+02  0.34439557836E+02 -0.53388894270E+01  0.63971547683E+02  0.00000000000E+00 0.  1.
         11    1    4    4    0    0 -0.40542382427E+02 -0.36552314315E+02 -0.56701080159E+02  0.78706854503E+02  0.00000000000E+00 0. -1.
        -13    1    3    3    0    0  0.10469297389E+03 -0.10174284997E+02 -0.51788422397E+02  0.11724408536E+03  0.00000000000E+00 0.  1.
         13    1    3    3    0    0  0.15004338140E+02  0.25515629415E+02  0.22009185383E+02  0.36886064424E+02  0.00000000000E+00 0. -1.
          1    1    1    2  501    0 -0.25510060060E+02 -0.13228587938E+02 -0.67197976090E+02  0.73084380642E+02  0.00000000000E+00 0. -1.
<scales pt_clust_5="13000.00000" pt_clust_6="13000.00000" pt_clust_7="13000.00000" pt_clust_8="13000.00000" pt_clust_9="28.73602"></scales>
<clustering>
<clus scale="   28.736">  2  9  1 -1</clus>
<clus scale="   87.364">  5  6 -1 -1</clus>
<clus scale="   91.140">  7  8 -1 -1</clus>
<clus scale="  138.918">  2  5  1 -1</clus>
<clus scale="   28.736">  2  5  1 -1</clus>
</clustering>
</event>
<event>
 9    1  0.1610296E-005  0.1869114E+03  0.7546771E-02  0.1162913E+00
          1   -1    0    0  502    0 -0.00000000000E+00  0.00000000000E+00  0.67914181253E+03  0.67914181253E+03  0.00000000000E+00 0. -1.
         21   -1    0    0  501  502  0.00000000000E+00 -0.00000000000E+00 -0.32724450683E+03  0.32724450683E+03  0.00000000000E+00 0. -1.
         23    2    1    2    0    0  0.10635522978E+03  0.11237769430E+03  0.41690299586E+03  0.45412449769E+03  0.92091098178E+02 0.  0.
         23    2    1    2    0    0 -0.14887277428E+03 -0.10502674764E+03  0.20146043122E+03  0.28232484411E+03  0.76988905752E+02 0.  0.
        -11    1    4    4    0    0 -0.21502655230E+02 -0.32723163368E+02  0.90403921507E+02  0.98519229730E+02  0.00000000000E+00 0.  1.
         11    1    4    4    0    0 -0.12737011905E+03 -0.72303584276E+02  0.11105650971E+03  0.18380561438E+03  0.00000000000E+00 0. -1.
        -13    1    3    3    0    0  0.52787764225E+02 -0.26499491485E+01  0.13512787164E+03  0.14509690547E+03  0.00000000000E+00 0.  1.
         13    1    3    3    0    0  0.53567465559E+02  0.11502764345E+03  0.28177512422E+03  0.30902759222E+03  0.00000000000E+00 0. -1.
          1    1    1    2  501    0  0.42517544498E+02 -0.73509466542E+01 -0.26646612139E+03  0.26993697756E+03  0.00000000000E+00 0. -1.
<scales pt_clust_5="13000.00000" pt_clust_6="13000.00000" pt_clust_7="13000.00000" pt_clust_8="13000.00000" pt_clust_9="43.14833"></scales>
<clustering>
<clus scale="   43.148">  2  9  1 -1</clus>
<clus scale="   76.989">  5  6 -1 -1</clus>
<clus scale="   92.091">  7  8 -1 -1</clus>
<clus scale="  179.951">  2  5  1 -1</clus>
<clus scale="   43.148">  2  5  1 -1</clus>
</clustering>
</event>
<event>
 9    1  0.1610296E-005  0.2420770E+03  0.7546771E-02  0.1141240E+00
         -1   -1    0    0    0  501 -0.00000000000E+00  0.00000000000E+00  0.41458326626E+03  0.41458326626E+03  0.00000000000E+00 0.  1.
         21   -1    0    0  501  502  0.00000000000E+00 -0.00000000000E+00 -0.30572519204E+03  0.30572519204E+03  0.00000000000E+00 0. -1.
         23    2    1    2    0    0 -0.49947111901E+01  0.10489270519E+03 -0.10974749646E+03  0.17645572248E+03  0.89803576084E+02 0.  0.
         23    2    1    2    0    0 -0.19063941381E+03  0.43154283434E+02  0.20585181432E+03  0.29818369014E+03  0.91284529509E+02 0.  0.
        -11    1    4    4    0    0 -0.29340272844E+01  0.26407939746E+02  0.17974491759E+02  0.32079123301E+02  0.00000000000E+00 0.  1.
         11    1    4    4    0    0 -0.18770538653E+03  0.16746343687E+02  0.18787732256E+03  0.26610456683E+03  0.00000000000E+00 0. -1.
        -13    1    3    3    0    0  0.21757174834E+02  0.41973856578E+02 -0.14611562214E+00  0.47277908610E+02  0.00000000000E+00 0.  1.
         13    1    3    3    0    0 -0.26751886024E+02  0.62918848607E+02 -0.10960138084E+03  0.12917781387E+03  0.00000000000E+00 0. -1.
         -1    1    1    2    0  502  0.19563412500E+03 -0.14804698862E+03  0.12753756356E+02  0.24566904568E+03  0.00000000000E+00 0.  1.
<scales pt_clust_5="13000.00000" pt_clust_6="13000.00000" pt_clust_7="13000.00000" pt_clust_8="13000.00000" pt_clust_9="224.20617"></scales>
<clustering>
<clus scale="   89.804">  7  8 -1 -1</clus>
<clus scale="   91.285">  5  6 -1 -1</clus>
<clus scale="  138.174">  1  7  2 -1</clus>
<clus scale="  224.206">  2  9  1 -1</clus>
<clus scale="  224.206">  2  5  1 -1</clus>
</clustering>
</event>
<event>
 9    1  0.1610296E-005  0.1016967E+03  0.7546771E-02  0.1281644E+00
         21   -1    0    0  501  502  0.00000000000E+00  0.00000000000E+00  0.83604429187E+02  0.83604429187E+02  0.00000000000E+00 0. -1.
          1   -1    0    0  502    0 -0.00000000000E+00 -0.00000000000E+00 -0.23278630212E+03  0.23278630212E+03  0.00000000000E+00 0. -1.
         23    2    1    2    0    0 -0.44314229797E+02 -0.23949961233E+02 -0.85791557198E+02  0.13735079042E+03  0.94697923615E+02 0.  0.
         23    2    1    2    0    0  0.27276270597E+02 -0.41910896821E+02 -0.46310948130E+02  0.10889972792E+03  0.84934849235E+02 0.  0.
        -11    1    4    4    0    0  0.78611126332E+01  0.23696696825E+02  0.21455158573E+01  0.25058606716E+02  0.00000000000E+00 0.  1.
         11    1    4    4    0    0  0.19415157963E+02 -0.65607593646E+02 -0.48456463987E+02  0.83841121205E+02  0.00000000000E+00 0. -1.
        -11    1    3    3    0    0  0.23323864612E+01  0.25476404051E+02 -0.58982909910E+02  0.64292074562E+02  0.00000000000E+00 0.  1.
         11    1    3    3    0    0 -0.46646616259E+02 -0.49426365284E+02 -0.26808647288E+02  0.73058715859E+02  0.00000000000E+00 0. -1.
          1    1    1    2  501    0  0.17037959201E+02  0.65860858054E+02 -0.17079367607E+02  0.70140212968E+02  0.00000000000E+00 0. -1.
<scales pt_clust_5="13000.00000" pt_clust_6="13000.00000" pt_clust_7="13000.00000" pt_clust_8="13000.00000" pt_clust_9="68.02900"></scales>
<clustering>
<clus scale="   68.029">  1  9  2 -1</clus>
<clus scale="   84.935">  5  6 -1 -1</clus>
<clus scale="   92.674">  1  5  2 -1</clus>
<clus scale="   94.698">  7  8 -1 -1</clus>
<clus scale="   68.029">  1  5  2 -1</clus>
</clustering>
</event>
<event>
 9    1  0.1610296E-005  0.1169024E+03  0.7546771E-02  0.1252434E+00
          3   -1    0    0  502    0 -0.00000000000E+00  0.00000000000E+00  0.24386832244E+03  0.24386832244E+03  0.00000000000E+00 0. -1.
         21   -1    0    0  501  502  0.00000000000E+00 -0.00000000000E+00 -0.85234096810E+02  0.85234096810E+02  0.00000000000E+00 0. -1.
         23    2    1    2    0    0  0.70313575239E+02 -0.86101491668E+01  0.12191407837E+03  0.17306218612E+03  0.10034612213E+03 0.  0.
         23    2    1    2    0    0 -0.47256392788E+02  0.93704942990E+01  0.64225221939E+02  0.12014119527E+03  0.89375918702E+02 0.  0.
        -11    1    3    3    0    0 -0.25678014724E+02 -0.64853283517E+01  0.31782788980E+02  0.41371072011E+02  0.00000000000E+00 0.  1.
         11    1    3    3    0    0  0.95991589962E+02 -0.21248208151E+01  0.90131289391E+02  0.13169111411E+03  0.00000000000E+00 0. -1.
        -11    1    4    4    0    0  0.23309204574E+02  0.19153483383E+02  0.21850212423E+02  0.37250593639E+02  0.00000000000E+00 0.  1.
         11    1    4    4    0    0 -0.70565597361E+02 -0.97829890839E+01  0.42375009517E+02  0.82890601626E+02  0.00000000000E+00 0. -1.
          3    1    1    2  501    0 -0.23057182451E+02 -0.76034513219E+00 -0.27505074676E+02  0.35899037873E+02  0.00000000000E+00 0. -1.
<scales pt_clust_5="13000.00000" pt_clust_6="13000.00000" pt_clust_7="13000.00000" pt_clust_8="13000.00000" pt_clust_9="23.06972"></scales>
<clustering>
<clus scale="   23.070">  2  9  1 -1</clus>
<clus scale="   89.376">  7  8 -1 -1</clus>
<clus scale="  100.346">  5  6 -1 -1</clus>
<clus scale="  107.633">  2  7  1 -1</clus>
<clus scale="   23.070">  2  5  1 -1</clus>
</clustering>
</event>
<event>
 9    1  0.1610296E-005  0.1208485E+03  0.7546771E-02  0.1243345E+00
         21   -1    0    0  501  502  0.00000000000E+00  0.00000000000E+00  0.68550802386E+02  0.68550802386E+02  0.00000000000E+00 0. -1.
         -3   -1    0    0    0  501 -0.00000000000E+00 -0.00000000000E+00 -0.41005887306E+03  0.41005887306E+03  0.00000000000E+00 0.  1.
         23    2    1    2    0    0  0.57064828659E+02 -0.35150753909E+02 -0.25447493183E+03  0.27819321116E+03  0.90233040710E+02 0.  0.
         23    2    1    2    0    0 -0.90261199935E+02  0.35825400289E+02 -0.95409601547E+02  0.16617293438E+03  0.95288554047E+02 0.  0.
        -11    1    4    4    0    0 -0.33099742259E+02 -0.27129940067E+02 -0.60829574637E+02  0.74376499892E+02  0.00000000000E+00 0.  1.
         11    1    4    4    0    0 -0.57161457676E+02  0.62955340356E+02 -0.34580026910E+02  0.91796434484E+02  0.00000000000E+00 0. -1.
        -13    1    3    3    0    0 -0.97533107953E+01 -0.36476740202E+02 -0.14582889642E+03  0.15063779963E+03  0.00000000000E+00 0.  1.
         13    1    3    3    0    0  0.66818139454E+02  0.13259862930E+01 -0.10864603541E+03  0.12755541153E+03  0.00000000000E+00 0. -1.
         -3    1    1    2    0  502  0.33196371276E+02 -0.67464637938E+00  0.83764626975E+01  0.34243529914E+02  0.00000000000E+00 0.  1.
<scales pt_clust_5="13000.00000" pt_clust_6="13000.00000" pt_clust_7="13000.00000" pt_clust_8="13000.00000" pt_clust_9="33.20323"></scales>
<clustering>
<clus scale="   33.203">  1  9  2 -1</clus>
<clus scale="   90.233">  7  8 -1 -1</clus>
<clus scale="   95.289">  5  6 -1 -1</clus>
<clus scale="  116.904">  2  7  1 -1</clus>
<clus scale="   33.203">  1  5  2 -1</clus>
</clustering>
</event>
<event>
 9    1  0.1610296E-005  0.1055388E+03  0.7546771E-02  0.1271547E+00
         21   -1    0    0  501  502  0.00000000000E+00  0.00000000000E+00  0.24472670504E+03  0.24472670504E+03  0.00000000000E+00 0. -1.
         -1   -1    0    0    0  501 -0.00000000000E+00 -0.00000000000E+00 -0.91742910143E+02  0.91742910143E+02  0.00000000000E+00 0.  1.
         23    2    1    2    0    0  0.54238883093E+02  0.17336349177E+02  0.11654706887E+02  0.10863205759E+03  0.91775194373E+02 0.  0.
         23    2    1    2    0    0 -0.17452092310E+02 -0.58870381304E+02  0.41360274617E+02  0.11350424026E+03  0.86036288390E+02 0.  0.
        -11    1    3    3    0    0  0.11680823970E+02  0.39789266058E+02 -0.24751539512E+02  0.48293540461E+02  0.00000000000E+00 0.  1.
         11    1    3    3    0    0  0.42558059123E+02 -0.22452916880E+02  0.36406246399E+02  0.60338517132E+02  0.00000000000E+00 0. -1.
        -13    1    4    4    0    0 -0.28281534785E+02 -0.42012208788E+02  0.65073872623E+02  0.82458958247E+02  0.00000000000E+00 0. -1.
         13    1    4    4    0    0  0.10829442475E+02 -0.16858172516E+02 -0.23713598006E+02  0.31045282013E+02  0.00000000000E+00 0.  1.
         -1    1    1    2    0  502 -0.36786790783E+02  0.41534032126E+02  0.99968813397E+02  0.11433331733E+03  0.00000000000E+00 0.  1.
<scales pt_clust_5="13000.00000" pt_clust_6="13000.00000" pt_clust_7="13000.00000" pt_clust_8="13000.00000" pt_clust_9="55.48282"></scales>
<clustering>
<clus scale="   55.483">  1  9  2 -1</clus>
<clus scale="   86.036">  7  8 -1 -1</clus>
<clus scale="   91.775">  5  6 -1 -1</clus>
<clus scale="  100.588">  1  7  2 -1</clus>
<clus scale="   55.483">  1  5  2 -1</clus>
</clustering>
</event>
<event>
 9    1  0.1610296E-005  0.9241095E+02  0.7546771E-02  0.1298637E+00
          3   -1    0    0  502    0 -0.00000000000E+00  0.00000000000E+00  0.18600182564E+03  0.18600182564E+03  0.00000000000E+00 0. -1.
         21   -1    0    0  501  502  0.00000000000E+00 -0.00000000000E+00 -0.25210587426E+03  0.25210587426E+03  0.00000000000E+00 0. -1.
         23    2    1    2    0    0 -0.13734447489E+02 -0.14444503489E+02  0.86258096594E+02  0.12535952529E+03  0.88754000603E+02 0.  0.
         23    2    1    2    0    0  0.14230341387E+02 -0.24310708484E+02  0.49187971825E+02  0.10750524040E+03  0.91347725637E+02 0.  0.
        -11    1    3    3    0    0 -0.24655040119E+01  0.34677654901E+02  0.14491761071E+02  0.37664699633E+02  0.00000000000E+00 0.  1.
         11    1    3    3    0    0 -0.11268943477E+02 -0.49122158390E+02  0.71766335523E+02  0.87694825654E+02  0.00000000000E+00 0. -1.
        -13    1    4    4    0    0 -0.37982857386E+02 -0.63893706293E+01  0.99596795836E+01  0.39783372527E+02  0.00000000000E+00 0.  1.
         13    1    4    4    0    0  0.52213198773E+02 -0.17921337855E+02  0.39228292241E+02  0.67721867877E+02  0.00000000000E+00 0. -1.
          3    1    1    2  501    0 -0.49589389774E+00  0.38755211973E+02 -0.20155011704E+03  0.20524293421E+03  0.00000000000E+00 0. -1.
<scales pt_clust_5="13000.00000" pt_clust_6="13000.00000" pt_clust_7="13000.00000" pt_clust_8="13000.00000" pt_clust_9="38.75838"></scales>
<clustering>
<clus scale="   38.758">  2  9  1 -1</clus>
<clus scale="   88.754">  5  6 -1 -1</clus>
<clus scale="   89.848">  1  5  2 -1</clus>
<clus scale="   91.348">  7  8 -1 -1</clus>
<clus scale="   38.758">  2  5  1 -1</clus>
</clustering>
</event>
<event>
 9    1  0.1610296E-005  0.1146649E+03  0.7546771E-02  0.1252629E+00
         -3   -1    0    0    0  501 -0.00000000000E+00  0.00000000000E+00  0.54926256645E+03  0.54926256645E+03  0.00000000000E+00 0.  1.
         21   -1    0    0  501  502  0.00000000000E+00 -0.00000000000E+00 -0.52452944542E+02  0.52452944542E+02  0.00000000000E+00 0.  1.
         23    2    1    2    0    0  0.77650721517E+02 -0.14072390469E+02  0.40791663535E+03  0.42534056568E+03  0.91054646773E+02 0.  0.
         23    2    1    2    0    0 -0.47117425548E+02  0.47429693152E+01  0.10011097582E+03  0.14253468016E+03  0.89729482453E+02 0.  0.
        -11    1    4    4    0    0  0.65886342554E+01 -0.18985164755E+02 -0.62486714612E+01  0.21045010742E+02  0.00000000000E+00 0.  1.
         11    1    4    4    0    0 -0.53706059803E+02  0.23728134070E+02  0.10635964728E+03  0.12148966942E+03  0.00000000000E+00 0. -1.
        -13    1    3    3    0    0  0.91957093338E+02  0.82368143254E+01  0.28431984271E+03  0.29893431567E+03  0.00000000000E+00 0.  1.
         13    1    3    3    0    0 -0.14306371821E+02 -0.22309204795E+02  0.12359679263E+03  0.12640625001E+03  0.00000000000E+00 0. -1.
         -3    1    1    2    0  502 -0.30533295969E+02  0.93294211541E+01 -0.11217989261E+02  0.33840265142E+02  0.00000000000E+00 0.  1.
<scales pt_clust_5="13000.00000" pt_clust_6="13000.00000" pt_clust_7="13000.00000" pt_clust_8="13000.00000" pt_clust_9="31.92680"></scales>
<clustering>
<clus scale="   31.927">  2  9  1 -1</clus>
<clus scale="   89.729">  5  6 -1 -1</clus>
<clus scale="   91.055">  7  8 -1 -1</clus>
<clus scale="  113.615">  2  5  1 -1</clus>
<clus scale="   31.927">  2  5  1 -1</clus>
</clustering>
</event>
<event>
 9    1  0.1610296E-005  0.1075860E+03  0.7546771E-02  0.1265849E+00
         21   -1    0    0  501  502  0.00000000000E+00  0.00000000000E+00  0.84731685450E+02  0.84731685450E+02  0.00000000000E+00 0. -1.
         -3   -1    0    0    0  501 -0.00000000000E+00 -0.00000000000E+00 -0.27672407321E+03  0.27672407321E+03  0.00000000000E+00 0.  1.
         23    2    1    2    0    0  0.58915886335E+01 -0.34911843897E+02 -0.58801671405E+02  0.11320131840E+03  0.90018632881E+02 0.  0.
         23    2    1    2    0    0  0.63637835012E+02  0.69025503807E+02 -0.93619310172E+02  0.16128330291E+03  0.91833732042E+02 0.  0.
        -11    1    3    3    0    0  0.23057878947E+02 -0.55373078085E+02 -0.62042798288E+02  0.86296885098E+02  0.00000000000E+00 0.  1.
         11    1    3    3    0    0 -0.17166290314E+02  0.20461234188E+02  0.32411268834E+01  0.26904433298E+02  0.00000000000E+00 0. -1.
        -11    1    4    4    0    0  0.16806728834E+02 -0.19782149931E+02 -0.39392415705E+02  0.47175862526E+02  0.00000000000E+00 0.  1.
         11    1    4    4    0    0  0.46831106178E+02  0.88807653737E+02 -0.54226894467E+02  0.11410744039E+03  0.00000000000E+00 0. -1.
         -3    1    1    2    0  502 -0.69529423646E+02 -0.34113659910E+02 -0.39571406185E+02  0.86971137353E+02  0.00000000000E+00 0.  1.
<scales pt_clust_5="13000.00000" pt_clust_6="13000.00000" pt_clust_7="13000.00000" pt_clust_8="13000.00000" pt_clust_9="77.44729"></scales>
<clustering>
<clus scale="   77.447">  1  9  2 -1</clus>
<clus scale="   90.019">  5  6 -1 -1</clus>
<clus scale="   91.834">  7  8 -1 -1</clus>
<clus scale="  106.041">  2  5  1 -1</clus>
<clus scale="   77.447">  1  5  2 -1</clus>
</clustering>
</event>
<event>
 9    1  0.1610296E-005  0.1560076E+03  0.7546771E-02  0.1196646E+00
         21   -1    0    0  501  502  0.00000000000E+00  0.00000000000E+00  0.35144061459E+03  0.35144061459E+03  0.00000000000E+00 0. -1.
          2   -1    0    0  502    0 -0.00000000000E+00 -0.00000000000E+00 -0.23141037892E+03  0.23141037892E+03  0.00000000000E+00 0. -1.
         23    2    1    2    0    0  0.12651521727E+03  0.21965886393E+02 -0.17130901546E+03  0.22531740459E+03  0.70232141266E+02 0.  0.
         23    2    1    2    0    0 -0.10924329166E+03 -0.46376458596E+02  0.14538745474E+03  0.20854995787E+03  0.90943390340E+02 0.  0.
        -11    1    3    3    0    0  0.30436834972E+02  0.12690103861E+02 -0.54615432754E+01  0.33425560789E+02  0.00000000000E+00 0.  1.
         11    1    3    3    0    0  0.96078382298E+02  0.92757825319E+01 -0.16584747219E+03  0.19189184380E+03  0.00000000000E+00 0. -1.
        -11    1    4    4    0    0 -0.83213566388E+01  0.24418108588E+02  0.31531218788E+02  0.40739498789E+02  0.00000000000E+00 0.  1.
         11    1    4    4    0    0 -0.10092193502E+03 -0.70794567184E+02  0.11385623596E+03  0.16781045908E+03  0.00000000000E+00 0. -1.
          2    1    1    2  501    0 -0.17271925610E+02  0.24410572203E+02  0.14595179639E+03  0.14898363104E+03  0.00000000000E+00 0. -1.
<scales pt_clust_5="13000.00000" pt_clust_6="13000.00000" pt_clust_7="13000.00000" pt_clust_8="13000.00000" pt_clust_9="29.90310"></scales>
<clustering>
<clus scale="   29.903">  1  9  2 -1</clus>
<clus scale="   70.232">  5  6 -1 -1</clus>
<clus scale="   90.943">  7  8 -1 -1</clus>
<clus scale="  144.914">  2  5  1 -1</clus>
<clus scale="   29.903">  1  5  2 -1</clus>
</clustering>
</event>
<event>
 9    1  0.1610296E-005  0.9681346E+02  0.7546771E-02  0.1287262E+00
         -1   -1    0    0    0  501 -0.00000000000E+00  0.00000000000E+00  0.60248043142E+02  0.60248043142E+02  0.00000000000E+00 0.  1.
         21   -1    0    0  501  502  0.00000000000E+00 -0.00000000000E+00 -0.56723679035E+03  0.56723679035E+03  0.00000000000E+00 0.  1.
         23    2    1    2    0    0 -0.42690555661E+02 -0.57608330437E+01 -0.25618209367E+02  0.10514771340E+03  0.92434183301E+02 0.  0.
         23    2    1    2    0    0 -0.13230756166E+01 -0.26024534418E+02 -0.10648460560E+03  0.14354037840E+03  0.92659819128E+02 0.  0.
        -11    1    3    3    0    0 -0.19036740149E+02 -0.45450254431E+02  0.52902744541E+01  0.49559157651E+02  0.00000000000E+00 0.  1.
         11    1    3    3    0    0 -0.23653815512E+02  0.39689421387E+02 -0.30908483821E+02  0.55588555750E+02  0.00000000000E+00 0. -1.
        -13    1    4    4    0    0  0.61233921658E+01 -0.57634685737E+02 -0.42785809780E+02  0.72040811005E+02  0.00000000000E+00 0. -1.
         13    1    4    4    0    0 -0.74464677823E+01  0.31610151320E+02 -0.63698795819E+02  0.71499567395E+02  0.00000000000E+00 0.  1.
         -1    1    1    2    0  502  0.44013631278E+02  0.31785367461E+02 -0.37488593224E+03  0.37879674169E+03  0.00000000000E+00 0.  1.
<scales pt_clust_5="13000.00000" pt_clust_6="13000.00000" pt_clust_7="13000.00000" pt_clust_8="13000.00000" pt_clust_9="54.29097"></scales>
<clustering>
<clus scale="   54.291">  2  9  1 -1</clus>
<clus scale="   92.434">  5  6 -1 -1</clus>
<clus scale="   92.660">  7  8 -1 -1</clus>
<clus scale="   96.598">  1  5  2 -1</clus>
<clus scale="   54.291">  2  5  1 -1</clus>
</clustering>
</event>
<event>
 9    1  0.1610296E-005  0.1996132E+03  0.7546771E-02  0.1150224E+00
         -1   -1    0    0    0  501 -0.00000000000E+00  0.00000000000E+00  0.27374791708E+03  0.27374791708E+03  0.00000000000E+00 0.  1.
         21   -1    0    0  501  502  0.00000000000E+00 -0.00000000000E+00 -0.23339130349E+03  0.23339130349E+03  0.00000000000E+00 0.  1.
         23    2    1    2    0    0 -0.99851774571E+02  0.14866428579E+03  0.71493256280E+02  0.21527947648E+03  0.95721055911E+02 0.  0.
         23    2    1    2    0    0  0.76813403310E+02 -0.15169885859E+03  0.54334093290E+02  0.20328648690E+03  0.97264379066E+02 0.  0.
        -11    1    4    4    0    0  0.92746047475E+02 -0.10423530867E+03  0.61924219654E+02  0.15264808507E+03  0.00000000000E+00 0.  1.
         11    1    4    4    0    0 -0.15932644164E+02 -0.47463549929E+02 -0.75901263640E+01  0.50638401833E+02  0.00000000000E+00 0. -1.
        -11    1    3    3    0    0 -0.50466061479E+02  0.12932026840E+03  0.81973693446E+02  0.16121489260E+03  0.00000000000E+00 0.  1.
         11    1    3    3    0    0 -0.49385713092E+02  0.19344017391E+02 -0.10480437166E+02  0.54064583875E+02  0.00000000000E+00 0. -1.
         -1    1    1    2    0  502  0.23038371260E+02  0.30345728082E+01 -0.85470735978E+02  0.88573257201E+02  0.00000000000E+00 0.  1.
<scales pt_clust_5="13000.00000" pt_clust_6="13000.00000" pt_clust_7="13000.00000" pt_clust_8="13000.00000" pt_clust_9="23.23737"></scales>
<clustering>
<clus scale="   23.237">  2  9  1 -1</clus>
<clus scale="   95.721">  7  8 -1 -1</clus>
<clus scale="   97.264">  5  6 -1 -1</clus>
<clus scale="  198.866">  1  7  2 -1</clus>
<clus scale="   23.237">  2  5  1 -1</clus>
</clustering>
</event>
<event>
 9    1  0.1610296E-005  0.1610159E+03  0.7546771E-02  0.1187667E+00
         21   -1    0    0  501  502  0.00000000000E+00  0.00000000000E+00  0.20071546193E+03  0.20071546193E+03  0.00000000000E+00 0.  1.
          1   -1    0    0  502    0 -0.00000000000E+00 -0.00000000000E+00 -0.32603313781E+03  0.32603313781E+03  0.00000000000E+00 0. -1.
         23    2    1    2    0    0 -0.66068678891E+02  0.10045327846E+03 -0.15730737939E+03  0.21847472643E+03  0.92356174640E+02 0.  0.
         23    2    1    2    0    0  0.15114033811E+03 -0.11745669786E+03  0.53552728504E+02  0.21887998359E+03  0.91657377265E+02 0.  0.
        -11    1    4    4    0    0  0.15928512930E+03 -0.98031791266E+02  0.60698606631E+02  0.19663749735E+03  0.00000000000E+00 0.  1.
         11    1    4    4    0    0 -0.81447911918E+01 -0.19424906596E+02 -0.71458781278E+01  0.22242486238E+02  0.00000000000E+00 0. -1.
        -13    1    3    3    0    0 -0.88529095659E+02  0.65777124752E+02 -0.11519633192E+03  0.15948111426E+03  0.00000000000E+00 0. -1.
         13    1    3    3    0    0  0.22460416769E+02  0.34676153706E+02 -0.42111047472E+02  0.58993612166E+02  0.00000000000E+00 0.  1.
          1    1    1    2  501    0 -0.85071659222E+02  0.17003419404E+02 -0.21563024995E+02  0.89393889731E+02  0.00000000000E+00 0. -1.
<scales pt_clust_5="13000.00000" pt_clust_6="13000.00000" pt_clust_7="13000.00000" pt_clust_8="13000.00000" pt_clust_9="86.75431"></scales>
<clustering>
<clus scale="   86.754">  1  9  2 -1</clus>
<clus scale="   91.657">  5  6 -1 -1</clus>
<clus scale="   92.356">  7  8 -1 -1</clus>
<clus scale="  160.616">  1  5  2 -1</clus>
<clus scale="   86.754">  1  5  2 -1</clus>
</clustering>
</event>
<event>
 9    1  0.1610296E-005  0.9096824E+02  0.7546771E-02  0.1308046E+00
          2   -1    0    0  502    0 -0.00000000000E+00  0.00000000000E+00  0.36300220544E+03  0.36300220544E+03  0.00000000000E+00 0. -1.
         21   -1    0    0  501  502  0.00000000000E+00 -0.00000000000E+00 -0.43254187939E+02  0.43254187939E+02  0.00000000000E+00 0. -1.
         23    2    1    2    0    0 -0.27432716150E+01  0.31277541926E+02  0.16306216850E+03  0.18376986254E+03  0.78716462158E+02 0.  0.
         23    2    1    2    0    0 -0.74563030092E+01  0.22082808354E+02  0.13456491952E+03  0.16382910313E+03  0.90493152162E+02 0.  0.
        -11    1    3    3    0    0  0.26980039968E+02 -0.28005371889E+01  0.11342565213E+03  0.11662394319E+03  0.00000000000E+00 0.  1.
         11    1    3    3    0    0 -0.29723311583E+02  0.34078079115E+02  0.49636516369E+02  0.67145919346E+02  0.00000000000E+00 0. -1.
        -13    1    4    4    0    0 -0.38737658987E+02  0.77310199904E+01  0.20138360215E+02  0.44338791662E+02  0.00000000000E+00 0.  1.
         13    1    4    4    0    0  0.31281355977E+02  0.14351788364E+02  0.11442655930E+03  0.11949031147E+03  0.00000000000E+00 0. -1.
          2    1    1    2  501    0  0.10199574624E+02 -0.53360350280E+02  0.22120929491E+02  0.58657427715E+02  0.00000000000E+00 0. -1.
<scales pt_clust_5="13000.00000" pt_clust_6="13000.00000" pt_clust_7="13000.00000" pt_clust_8="13000.00000" pt_clust_9="54.32641"></scales>
<clustering>
<clus scale="   54.326">  2  9  1 -1</clus>
<clus scale="   78.716">  5  6 -1 -1</clus>
<clus scale="   79.262">  1  5  2 -1</clus>
<clus scale="   90.493">  7  8 -1 -1</clus>
<clus scale="   54.326">  2  5  1 -1</clus>
</clustering>
</event>
<event>
 9    1  0.1610296E-005  0.9609209E+02  0.7546771E-02  0.1294809E+00
         -3   -1    0    0    0  501 -0.00000000000E+00  0.00000000000E+00  0.18845360623E+03  0.18845360623E+03  0.00000000000E+00 0.  1.
         21   -1    0    0  501  502  0.00000000000E+00 -0.00000000000E+00 -0.10080843244E+03  0.10080843244E+03  0.00000000000E+00 0.  1.
         23    2    1    2    0    0  0.35926235110E+02 -0.18997558915E+02  0.12282620344E+03  0.15711518096E+03  0.89147642828E+02 0.  0.
         23    2    1    2    0    0 -0.22009319460E+02 -0.10707612370E+02 -0.50404196710E+02  0.95983028299E+02  0.77930068457E+02 0.  0.
        -11    1    3    3    0    0  0.11013793137E+02 -0.38264405807E+02  0.11888517019E+03  0.12537604270E+03  0.00000000000E+00 0.  1.
         11    1    3    3    0    0  0.24912441973E+02  0.19266846892E+02  0.39410332451E+01  0.31739138257E+02  0.00000000000E+00 0. -1.
        -13    1    4    4    0    0 -0.14897312514E+02  0.26806628155E+02 -0.48961554845E+02  0.57773342347E+02  0.00000000000E+00 0. -1.
         13    1    4    4    0    0 -0.71120069461E+01 -0.37514240525E+02 -0.14426418654E+01  0.38209685952E+02  0.00000000000E+00 0.  1.
         -3    1    1    2    0  502 -0.13916915650E+02  0.29705171285E+02  0.15223167061E+02  0.36163829411E+02  0.00000000000E+00 0.  1.
<scales pt_clust_5="13000.00000" pt_clust_6="13000.00000" pt_clust_7="13000.00000" pt_clust_8="13000.00000" pt_clust_9="32.80364"></scales>
<clustering>
<clus scale="   32.804">  2  9  1 -1</clus>
<clus scale="   77.930">  7  8 -1 -1</clus>
<clus scale="   85.787">  2  7  1 -1</clus>
<clus scale="   89.148">  5  6 -1 -1</clus>
<clus scale="   32.804">  2  5  1 -1</clus>
</clustering>
</event>
<event>
 9    1  0.1610296E-005  0.1011838E+03  0.7546771E-02  0.1278036E+00
          1   -1    0    0  502    0 -0.00000000000E+00  0.00000000000E+00  0.78094123025E+02  0.78094123025E+02  0.00000000000E+00 0. -1.
         21   -1    0    0  501  502  0.00000000000E+00 -0.00000000000E+00 -0.27726975647E+03  0.27726975647E+03  0.00000000000E+00 0.  1.
         23    2    1    2    0    0 -0.36299905126E+02 -0.16268373405E+02  0.15859154347E+02  0.10072120370E+03  0.91164165180E+02 0.  0.
         23    2    1    2    0    0  0.49847539674E+02  0.37670462019E+02 -0.16241512039E+03  0.19624389844E+03  0.90714692433E+02 0.  0.
        -11    1    3    3    0    0 -0.61015426631E+02 -0.32353761741E+02  0.48089113008E+01  0.69229862152E+02  0.00000000000E+00 0. -1.
         11    1    3    3    0    0  0.24715521504E+02  0.16085388336E+02  0.11050243046E+02  0.31491341549E+02  0.00000000000E+00 0.  1.
        -13    1    4    4    0    0  0.69783234289E+02  0.46976384531E+02 -0.14704180929E+03  0.16940417400E+03  0.00000000000E+00 0.  1.
         13    1    4    4    0    0 -0.19935694615E+02 -0.93059225119E+01 -0.15373311106E+02  0.26839724439E+02  0.00000000000E+00 0. -1.
          1    1    1    2  501    0 -0.13547634548E+02 -0.21402088614E+02 -0.52619667399E+02  0.58398777351E+02  0.00000000000E+00 0. -1.
<scales pt_clust_5="13000.00000" pt_clust_6="13000.00000" pt_clust_7="13000.00000" pt_clust_8="13000.00000" pt_clust_9="25.32958"></scales>
<clustering>
<clus scale="   25.330">  2  9  1 -1</clus>
<clus scale="   90.715">  7  8 -1 -1</clus>
<clus scale="   91.164">  5  6 -1 -1</clus>
<clus scale="  100.779">  2  7  1 -1</clus>
<clus scale="   25.330">  2  5  1 -1</clus>
</clustering>
</event>
<event>
 9    1  0.1610296E-005  0.9788715E+02  0.7546771E-02  0.1286102E+00
         21   -1    0    0  501  502  0.00000000000E+00  0.00000000000E+00  0.39789892982E+02  0.39789892982E+02  0.00000000000E+00 0. -1.
          1   -1    0    0  502    0 -0.00000000000E+00 -0.00000000000E+00 -0.30189972762E+03  0.30189972762E+03  0.00000000000E+00 0. -1.
         23    2    1    2    0    0 -0.36161925919E+02 -0.12551844141E+02 -0.13682744863E+03  0.17028209657E+03  0.93856315910E+02 0.  0.
         23    2    1    2    0    0  0.17292573066E+02  0.34043857453E+01 -0.11532888711E+03  0.14819544501E+03  0.91381151199E+02 0.  0.
        -11    1    4    4    0    0  0.41077286689E+02  0.34688103952E+02 -0.66122732625E+02  0.85222202549E+02  0.00000000000E+00 0.  1.
         11    1    4    4    0    0 -0.23784713624E+02 -0.31283718206E+02 -0.49206154482E+02  0.62973242460E+02  0.00000000000E+00 0. -1.
        -13    1    3    3    0    0 -0.62587337897E+02 -0.14183412266E+02 -0.55807566102E+02  0.85046037431E+02  0.00000000000E+00 0. -1.
         13    1    3    3    0    0  0.26425411978E+02  0.16315681248E+01 -0.81019882527E+02  0.85236059138E+02  0.00000000000E+00 0.  1.
          1    1    1    2  501    0  0.18869352853E+02  0.91474583961E+01 -0.99534989034E+01  0.23212079024E+02  0.00000000000E+00 0. -1.
<scales pt_clust_5="13000.00000" pt_clust_6="13000.00000" pt_clust_7="13000.00000" pt_clust_8="13000.00000" pt_clust_9="20.96970"></scales>
<clustering>
<clus scale="   20.970">  1  9  2 -1</clus>
<clus scale="   91.381">  5  6 -1 -1</clus>
<clus scale="   93.856">  7  8 -1 -1</clus>
<clus scale="   95.516">  1  5  2 -1</clus>
<clus scale="   20.970">  1  5  2 -1</clus>
</clustering>
</event>
<event>
 9    1  0.1812241E-005  0.1100672E+03  0.7546771E-02  0.1268000E+00
          1   -1    0    0  502    0 -0.00000000000E+00  0.00000000000E+00  0.25850494975E+03  0.25850494975E+03  0.00000000000E+00 0. -1.
         21   -1    0    0  501  502  0.00000000000E+00 -0.00000000000E+00 -0.28305319540E+03  0.28305319540E+03  0.00000000000E+00 0. -1.
         23    2    1    2    0    0  0.20803708314E+02 -0.27014402093E+02  0.17414654716E+03  0.19944310993E+03  0.91038244764E+02 0.  0.
         23    2    1    2    0    0  0.19126212477E+02  0.15513161854E+02  0.26880468586E+02  0.11274442757E+03  0.10668775076E+03 0.  0.
        -13    1    3    3    0    0  0.36132004082E+02 -0.52434841629E+02  0.14235110487E+03  0.15594477033E+03  0.00000000000E+00 0. -1.
         13    1    3    3    0    0 -0.15328295768E+02  0.25420439537E+02  0.31795442298E+02  0.43498339604E+02  0.00000000000E+00 0.  1.
        -13    1    4    4    0    0  0.43908769840E+02  0.50306592311E+02  0.16741812269E+02  0.68840551834E+02  0.00000000000E+00 0. -1.
         13    1    4    4    0    0 -0.24782557362E+02 -0.34793430457E+02  0.10138656317E+02  0.43903875732E+02  0.00000000000E+00 0.  1.
          1    1    1    2  501    0 -0.39929920792E+02  0.11501240239E+02 -0.22557526139E+03  0.22937060765E+03  0.00000000000E+00 0. -1.
<scales pt_clust_5="13000.00000" pt_clust_6="13000.00000" pt_clust_7="13000.00000" pt_clust_8="13000.00000" pt_clust_9="41.55330"></scales>
<clustering>
<clus scale="   41.553">  2  9  1 -1</clus>
<clus scale="   91.038">  5  6 -1 -1</clus>
<clus scale="   94.976">  1  5  2 -1</clus>
<clus scale="  106.688">  7  8 -1 -1</clus>
<clus scale="   41.553">  2  5  1 -1</clus>
</clustering>
</event>
<event>
 9    1  0.1610296E-005  0.9428799E+02  0.7546771E-02  0.1293315E+00
         21   -1    0    0  501  502  0.00000000000E+00  0.00000000000E+00  0.33126035254E+02  0.33126035254E+02  0.00000000000E+00 0.  1.
          2   -1    0    0  502    0 -0.00000000000E+00 -0.00000000000E+00 -0.54882089273E+03  0.54882089273E+03  0.00000000000E+00 0. -1.
         23    2    1    2    0    0  0.36901206908E+02  0.24176913113E+02 -0.19384782234E+03  0.21846453624E+03  0.90573468363E+02 0.  0.
         23    2    1    2    0    0 -0.10081210045E+02  0.23156451296E+02 -0.10691300103E+03  0.14176996847E+03  0.89612957414E+02 0.  0.
        -11    1    4    4    0    0  0.81549026433E+00 -0.29967745330E+02 -0.70054904086E+02  0.76199871201E+02  0.00000000000E+00 0. -1.
         11    1    4    4    0    0 -0.10896700309E+02  0.53124196626E+02 -0.36858096948E+02  0.65570097266E+02  0.00000000000E+00 0.  1.
        -13    1    3    3    0    0 -0.43808379993E+01 -0.27428744554E+02 -0.99289131669E+02  0.10310120968E+03  0.00000000000E+00 0. -1.
         13    1    3    3    0    0  0.41282044907E+02  0.51605657667E+02 -0.94558690670E+02  0.11536332656E+03  0.00000000000E+00 0.  1.
          2    1    1    2  501    0 -0.26819996863E+02 -0.47333364409E+02 -0.21493403410E+03  0.22171242327E+03  0.00000000000E+00 0. -1.
<scales pt_clust_5="13000.00000" pt_clust_6="13000.00000" pt_clust_7="13000.00000" pt_clust_8="13000.00000" pt_clust_9="54.40370"></scales>
<clustering>
<clus scale="   54.404">  1  9  2 -1</clus>
<clus scale="   89.613">  5  6 -1 -1</clus>
<clus scale="   90.573">  7  8 -1 -1</clus>
<clus scale="   93.366">  1  5  2 -1</clus>
<clus scale="   54.404">  1  5  2 -1</clus>
</clustering>
</event>
<event>
 9    1  0.1610296E-005  0.1075956E+03  0.7546771E-02  0.1269144E+00
          2   -1    0    0  502    0 -0.00000000000E+00  0.00000000000E+00  0.25309533052E+03  0.25309533052E+03  0.00000000000E+00 0. -1.
         21   -1    0    0  501  502  0.00000000000E+00 -0.00000000000E+00 -0.15634778169E+03  0.15634778169E+03  0.00000000000E+00 0.  1.
         23    2    1    2    0    0 -0.37003873705E+02 -0.80790705505E+01  0.20289907964E+03  0.22986179833E+03  0.10116250178E+03 0.  0.
         23    2    1    2    0    0  0.18713241484E+02  0.26051338202E+02 -0.11631340056E+03  0.15199847087E+03  0.92443876851E+02 0.  0.
        -11    1    3    3    0    0 -0.59164048513E+02 -0.38102095922E+02  0.12381078460E+03  0.14241230541E+03  0.00000000000E+00 0. -1.
         11    1    3    3    0    0  0.22160174808E+02  0.30023025371E+02  0.79088295043E+02  0.87449492925E+02  0.00000000000E+00 0.  1.
        -13    1    4    4    0    0  0.39129925239E+02 -0.17513131328E+02 -0.83192453150E+02  0.93588701665E+02  0.00000000000E+00 0.  1.
         13    1    4    4    0    0 -0.20416683755E+02  0.43564469530E+02 -0.33120947409E+02  0.58409769202E+02  0.00000000000E+00 0. -1.
          2    1    1    2  501    0  0.18290632221E+02 -0.17972267651E+02  0.10161869750E+02  0.27582843008E+02  0.00000000000E+00 0. -1.
<scales pt_clust_5="13000.00000" pt_clust_6="13000.00000" pt_clust_7="13000.00000" pt_clust_8="13000.00000" pt_clust_9="25.64274"></scales>
<clustering>
<clus scale="   25.643">  2  9  1 -1</clus>
<clus scale="   92.444">  7  8 -1 -1</clus>
<clus scale="   99.443">  2  7  1 -1</clus>
<clus scale="  101.163">  5  6 -1 -1</clus>
<clus scale="   25.643">  2  5  1 -1</clus>
</clustering>
</event>
<event>
 9    1  0.1610296E-005  0.2226882E+03  0.7546771E-02  0.1132339E+00
         21   -1    0    0  501  502  0.00000000000E+00  0.00000000000E+00  0.88483629902E+03  0.88483629902E+03  0.00000000000E+00 0.  1.
         -2   -1    0    0    0  501 -0.00000000000E+00 -0.00000000000E+00 -0.30101532374E+03  0.30101532374E+03  0.00000000000E+00 0.  1.
         23    2    1    2    0    0  0.13779553030E+03 -0.17417904558E+03 -0.13380174496E+03  0.27627338451E+03  0.95384107395E+02 0.  0.
         23    2    1    2    0    0 -0.15522421875E+03  0.88111072144E+02  0.13693921228E+02  0.20019314585E+03  0.89619490326E+02 0.  0.
        -11    1    3    3    0    0  0.93850075493E+02 -0.16352397169E+03 -0.13355907381E+03  0.23105400274E+03  0.00000000000E+00 0. -1.
         11    1    3    3    0    0  0.43945454809E+02 -0.10655073895E+02 -0.24267114747E+00  0.45219381767E+02  0.00000000000E+00 0.  1.
        -13    1    4    4    0    0  0.73469430037E+01  0.18661215446E+02  0.12058378679E+02  0.23401346751E+02  0.00000000000E+00 0. -1.
         13    1    4    4    0    0 -0.16257116176E+03  0.69449856699E+02  0.16355425494E+01  0.17679179910E+03  0.00000000000E+00 0.  1.
         -2    1    1    2    0  502  0.17428688452E+02  0.86067973438E+02  0.70392879901E+03  0.70938509239E+03  0.00000000000E+00 0.  1.
<scales pt_clust_5="13000.00000" pt_clust_6="13000.00000" pt_clust_7="13000.00000" pt_clust_8="13000.00000" pt_clust_9="87.81489"></scales>
<clustering>
<clus scale="   87.815">  1  9  2 -1</clus>
<clus scale="   89.619">  7  8 -1 -1</clus>
<clus scale="   95.384">  5  6 -1 -1</clus>
<clus scale="  220.281">  1  7  2 -1</clus>
<clus scale="   87.815">  1  5  2 -1</clus>
</clustering>
</event>
<event>
 9    1  0.1610296E-005  0.1564943E+03  0.7546771E-02  0.1194607E+00
          2   -1    0    0  502    0 -0.00000000000E+00  0.00000000000E+00  0.99223133805E+03  0.99223133805E+03  0.00000000000E+00 0. -1.
         21   -1    0    0  501  502  0.00000000000E+00 -0.00000000000E+00 -0.37965623338E+02  0.37965623338E+02  0.00000000000E+00 0. -1.
         23    2    1    2    0    0  0.10356491892E+03  0.27138882329E+00  0.37978864894E+03  0.40369121348E+03  0.89450611471E+02 0.  0.
         23    2    1    2    0    0 -0.13781761566E+03 -0.26221717258E+02  0.55156213894E+03  0.57780502254E+03  0.99782650375E+02 0.  0.
        -11    1    4    4    0    0 -0.55678277713E+02  0.16001670216E+02  0.89570508669E+02  0.10667239606E+03  0.00000000000E+00 0.  1.
         11    1    4    4    0    0 -0.82139337949E+02 -0.42223387474E+02  0.46199163027E+03  0.47113262647E+03  0.00000000000E+00 0. -1.
        -13    1    3    3    0    0  0.53526535694E+02 -0.39552827565E+02  0.25405852278E+03  0.26263139414E+03  0.00000000000E+00 0.  1.
         13    1    3    3    0    0  0.50038383223E+02  0.39824216389E+02  0.12573012616E+03  0.14105981934E+03  0.00000000000E+00 0. -1.
          2    1    1    2  501    0  0.34252696745E+02  0.25950328435E+02  0.22914926835E+02  0.48700725375E+02  0.00000000000E+00 0. -1.
<scales pt_clust_5="13000.00000" pt_clust_6="13000.00000" pt_clust_7="13000.00000" pt_clust_8="13000.00000" pt_clust_9="42.97286"></scales>
<clustering>
<clus scale="   42.973">  2  9  1 -1</clus>
<clus scale="   89.451">  7  8 -1 -1</clus>
<clus scale="   99.783">  5  6 -1 -1</clus>
<clus scale="  150.118">  1  7  2 -1</clus>
<clus scale="   42.973">  2  5  1 -1</clus>
</clustering>
</event>
<event>
 9    1  0.1610296E-005  0.9403914E+02  0.7546771E-02  0.1293898E+00
         21   -1    0    0  501  502  0.00000000000E+00  0.00000000000E+00  0.11951232424E+03  0.11951232424E+03  0.00000000000E+00 0. -1.
          1   -1    0    0  502    0 -0.00000000000E+00 -0.00000000000E+00 -0.40344846519E+03  0.40344846519E+03  0.00000000000E+00 0. -1.
         23    2    1    2    0    0 -0.32134746683E+02  0.82232340943E+01 -0.29445226669E+03  0.30957981917E+03  0.89650786696E+02 0.  0.
         23    2    1    2    0    0  0.17653633532E+02  0.16169528572E+02 -0.77963930126E+02  0.12046471874E+03  0.88658161663E+02 0.  0.
        -11    1    4    4    0    0 -0.19445697056E+02  0.41934363521E+02 -0.45325286082E+02  0.64737991445E+02  0.00000000000E+00 0. -1.
         11    1    4    4    0    0  0.37099330588E+02 -0.25764834949E+02 -0.32638644044E+02  0.55726727296E+02  0.00000000000E+00 0.  1.
        -11    1    3    3    0    0 -0.14954315532E+02  0.46540403096E+02 -0.10943285128E+03  0.11985486895E+03  0.00000000000E+00 0.  1.
         11    1    3    3    0    0 -0.17180431150E+02 -0.38317169001E+02 -0.18501941542E+03  0.18972495022E+03  0.00000000000E+00 0. -1.
          1    1    1    2  501    0  0.14481113150E+02 -0.24392762666E+02  0.88480055872E+02  0.92916251515E+02  0.00000000000E+00 0. -1.
<scales pt_clust_5="13000.00000" pt_clust_6="13000.00000" pt_clust_7="13000.00000" pt_clust_8="13000.00000" pt_clust_9="28.36740"></scales>
<clustering>
<clus scale="   28.367">  1  9  2 -1</clus>
<clus scale="   88.658">  5  6 -1 -1</clus>
<clus scale="   89.651">  7  8 -1 -1</clus>
<clus scale="   93.093">  1  5  2 -1</clus>
<clus scale="   28.367">  1  5  2 -1</clus>
</clustering>
</event>
<event>
 9    1  0.1610296E-005  0.1360695E+03  0.7546771E-02  0.1220188E+00
          2   -1    0    0  502    0 -0.00000000000E+00  0.00000000000E+00  0.10767240871E+04  0.10767240871E+04  0.00000000000E+00 0. -1.
         21   -1    0    0  501  502  0.00000000000E+00 -0.00000000000E+00 -0.22747848895E+02  0.22747848895E+02  0.00000000000E+00 0. -1.
         23    2    1    2    0    0  0.86772834258E+02  0.25236626526E+02  0.54055191780E+03  0.55642401467E+03  0.96150383139E+02 0.  0.
         23    2    1    2    0    0 -0.88772479746E+02 -0.60016485797E+02  0.44046321499E+03  0.46219645197E+03  0.90195258921E+02 0.  0.
        -11    1    4    4    0    0 -0.47689082285E+02  0.17556134919E+02  0.19487802824E+03  0.20139491635E+03  0.00000000000E+00 0. -1.
         11    1    4    4    0    0 -0.41083397461E+02 -0.77572620716E+02  0.24558518675E+03  0.26080153562E+03  0.00000000000E+00 0.  1.
        -11    1    3    3    0    0 -0.64197133986E+01  0.37308630533E+02  0.14454027234E+03  0.14941565166E+03  0.00000000000E+00 0. -1.
         11    1    3    3    0    0  0.93192547657E+02 -0.12072004007E+02  0.39601164546E+03  0.40700836301E+03  0.00000000000E+00 0.  1.
          2    1    1    2  501    0  0.19996454879E+01  0.34779859271E+02  0.72961105421E+02  0.80851469357E+02  0.00000000000E+00 0. -1.
<scales pt_clust_5="13000.00000" pt_clust_6="13000.00000" pt_clust_7="13000.00000" pt_clust_8="13000.00000" pt_clust_9="34.83730"></scales>
<clustering>
<clus scale="   34.837">  2  9  1 -1</clus>
<clus scale="   90.195">  5  6 -1 -1</clus>
<clus scale="   96.150">  7  8 -1 -1</clus>
<clus scale="  131.929">  2  5  1 -1</clus>
<clus scale="   34.837">  2  5  1 -1</clus>
</clustering>
</event>
<event>
 9    1  0.1610296E-005  0.1235234E+03  0.7546771E-02  0.1238287E+00
          1   -1    0    0  502    0 -0.00000000000E+00  0.00000000000E+00  0.16477484659E+03  0.16477484659E+03  0.00000000000E+00 0. -1.
         21   -1    0    0  501  502  0.00000000000E+00 -0.00000000000E+00 -0.14787920377E+03  0.14787920377E+03  0.00000000000E+00 0.  1.
         23    2    1    2    0    0 -0.95971935950E+02  0.19567832531E+02  0.54571283273E+02  0.14505559349E+03  0.92030362843E+02 0.  0.
         23    2    1    2    0    0  0.64270842541E+02 -0.93374230975E+01  0.86584151276E+01  0.11053300929E+03  0.89020499433E+02 0.  0.
        -11    1    4    4    0    0 -0.19022087632E+02 -0.13111835932E+02 -0.98658607059E+01  0.25121609559E+02  0.00000000000E+00 0.  1.
         11    1    4    4    0    0  0.83292930173E+02  0.37744128342E+01  0.18524275833E+02  0.85411399732E+02  0.00000000000E+00 0. -1.
        -13    1    3    3    0    0 -0.88637165882E+02  0.50902100855E+02  0.42003189558E+02  0.11050718972E+03  0.00000000000E+00 0.  1.
         13    1    3    3    0    0 -0.73347700678E+01 -0.31334268325E+02  0.12568093715E+02  0.34548403769E+02  0.00000000000E+00 0. -1.
          1    1    1    2  501    0  0.31701093409E+02 -0.10230409433E+02 -0.46334055578E+02  0.57065447573E+02  0.00000000000E+00 0. -1.
<scales pt_clust_5="13000.00000" pt_clust_6="13000.00000" pt_clust_7="13000.00000" pt_clust_8="13000.00000" pt_clust_9="33.31097"></scales>
<clustering>
<clus scale="   33.311">  2  9  1 -1</clus>
<clus scale="   89.020">  5  6 -1 -1</clus>
<clus scale="   92.030">  7  8 -1 -1</clus>
<clus scale="  121.298">  2  5  1 -1</clus>
<clus scale="   33.311">  2  5  1 -1</clus>
</clustering>
</event>
<event>
 9    1  0.1610296E-005  0.1202805E+03  0.7546771E-02  0.1243047E+00
         21   -1    0    0  501  502  0.00000000000E+00  0.00000000000E+00  0.65228680332E+02  0.65228680332E+02  0.00000000000E+00 0. -1.
          3   -1    0    0  502    0 -0.00000000000E+00 -0.00000000000E+00 -0.36806417154E+03  0.36806417154E+03  0.00000000000E+00 0. -1.
         23    2    1    2    0    0  0.27122967095E+02  0.61726917852E+02 -0.16269868121E+03  0.19854431981E+03  0.91668524203E+02 0.  0.
         23    2    1    2    0    0 -0.31585952207E+02 -0.85546359742E+02 -0.15877251548E+03  0.20417773609E+03  0.90354768564E+02 0.  0.
        -11    1    3    3    0    0 -0.21679692692E+02  0.60971199592E+02 -0.85870052937E+02  0.10752284523E+03  0.00000000000E+00 0. -1.
         11    1    3    3    0    0  0.48802659786E+02  0.75571825914E+00 -0.76828628270E+02  0.91021474577E+02  0.00000000000E+00 0.  1.
        -13    1    4    4    0    0  0.11392879971E+01 -0.32091089741E+02  0.14378981263E+01  0.32143484082E+02  0.00000000000E+00 0.  1.
         13    1    4    4    0    0 -0.32725240204E+02 -0.53455270001E+02 -0.16021041360E+03  0.17203425201E+03  0.00000000000E+00 0. -1.
          3    1    1    2  501    0  0.44629851126E+01  0.23819441891E+02  0.18635705474E+02  0.30570795976E+02  0.00000000000E+00 0. -1.
<scales pt_clust_5="13000.00000" pt_clust_6="13000.00000" pt_clust_7="13000.00000" pt_clust_8="13000.00000" pt_clust_9="24.23394"></scales>
<clustering>
<clus scale="   24.234">  1  9  2 -1</clus>
<clus scale="   90.355">  7  8 -1 -1</clus>
<clus scale="   91.669">  5  6 -1 -1</clus>
<clus scale="  119.282">  1  7  2 -1</clus>
<clus scale="   24.234">  1  5  2 -1</clus>
</clustering>
</event>
<event>
 9    1  0.1610296E-005  0.9895654E+02  0.7546771E-02  0.1284348E+00
          1   -1    0    0  502    0 -0.00000000000E+00  0.00000000000E+00  0.32990412459E+03  0.32990412459E+03  0.00000000000E+00 0. -1.
         21   -1    0    0  501  502  0.00000000000E+00 -0.00000000000E+00 -0.60798564766E+02  0.60798564766E+02  0.00000000000E+00 0.  1.
         23    2    1    2    0    0  0.12207956578E+01  0.28856237592E+02  0.19473983856E+03  0.21710314689E+03  0.91520483360E+02 0.  0.
         23    2    1    2    0    0  0.19908918724E+02 -0.23009381018E+02  0.99030241899E+02  0.14059970702E+03  0.95055205769E+02 0.  0.
        -11    1    4    4    0    0  0.29928724695E+02 -0.56330919241E+02  0.74220458535E+02  0.97865098424E+02  0.00000000000E+00 0.  1.
         11    1    4    4    0    0 -0.10019805971E+02  0.33321538223E+02  0.24809783364E+02  0.42734608596E+02  0.00000000000E+00 0. -1.
        -13    1    3    3    0    0 -0.18853993287E+02 -0.28757750747E+02  0.81879816629E+02  0.88807576602E+02  0.00000000000E+00 0.  1.
         13    1    3    3    0    0  0.20074788944E+02  0.57613988339E+02  0.11286002193E+03  0.12829557028E+03  0.00000000000E+00 0. -1.
          1    1    1    2  501    0 -0.21129714381E+02 -0.58468565742E+01 -0.24664520636E+02  0.32999835452E+02  0.00000000000E+00 0. -1.
<scales pt_clust_5="13000.00000" pt_clust_6="13000.00000" pt_clust_7="13000.00000" pt_clust_8="13000.00000" pt_clust_9="21.92374"></scales>
<clustering>
<clus scale="   21.924">  2  9  1 -1</clus>
<clus scale="   91.520">  7  8 -1 -1</clus>
<clus scale="   95.055">  5  6 -1 -1</clus>
<clus scale="   95.566">  1  7  2 -1</clus>
<clus scale="   21.924">  2  5  1 -1</clus>
</clustering>
</event>
<event>
 9    1  0.1610296E-005  0.9434091E+02  0.7546771E-02  0.1292939E+00
          1   -1    0    0  502    0 -0.00000000000E+00  0.00000000000E+00  0.15157955425E+03  0.15157955425E+03  0.00000000000E+00 0. -1.
         21   -1    0    0  501  502  0.00000000000E+00 -0.00000000000E+00 -0.13605839776E+03  0.13605839776E+03  0.00000000000E+00 0. -1.
         23    2    1    2    0    0  0.60326289203E+01 -0.28227629298E+02  0.10293049469E+03  0.13966573476E+03  0.89881249772E+02 0.  0.
         23    2    1    2    0    0 -0.21235219732E+02  0.13867854999E+02 -0.53256056182E+02  0.10792513798E+03  0.90379067980E+02 0.  0.
        -13    1    3    3    0    0 -0.23782674492E+02 -0.35871587708E+02  0.99851817209E+02  0.10873257015E+03  0.00000000000E+00 0. -1.
         13    1    3    3    0    0  0.29815303412E+02  0.76439584107E+01  0.30786774796E+01  0.30933164610E+02  0.00000000000E+00 0.  1.
        -13    1    4    4    0    0  0.78966150856E+01  0.36126194596E+02 -0.60162270946E+02  0.70618392159E+02  0.00000000000E+00 0.  1.
         13    1    4    4    0    0 -0.29131834818E+02 -0.22258339597E+02  0.69062147641E+01  0.37306745822E+02  0.00000000000E+00 0. -1.
          1    1    1    2  501    0  0.15202590812E+02  0.14359774299E+02 -0.34153282021E+02  0.40047079271E+02  0.00000000000E+00 0. -1.
<scales pt_clust_5="13000.00000" pt_clust_6="13000.00000" pt_clust_7="13000.00000" pt_clust_8="13000.00000" pt_clust_9="20.91224"></scales>
<clustering>
<clus scale="   20.912">  2  9  1 -1</clus>
<clus scale="   89.881">  5  6 -1 -1</clus>
<clus scale="   90.379">  7  8 -1 -1</clus>
<clus scale="   93.864">  1  5  2 -1</clus>
<clus scale="   20.912">  2  5  1 -1</clus>
</clustering>
</event>
<event>
 9    1  0.1610296E-005  0.1123090E+03  0.7546771E-02  0.1256859E+00
         21   -1    0    0  501  502  0.00000000000E+00  0.00000000000E+00  0.14036395530E+03  0.14036395530E+03  0.00000000000E+00 0.  1.
          1   -1    0    0  502    0 -0.00000000000E+00 -0.00000000000E+00 -0.21477219331E+03  0.21477219331E+03  0.00000000000E+00 0. -1.
         23    2    1    2    0    0  0.49910290313E+02 -0.39865838352E+02 -0.15557730307E+03  0.19136130390E+03  0.91293643007E+02 0.  0.
         23    2    1    2    0    0 -0.68228451338E+02  0.31058047130E+02  0.51694794838E+02  0.12797170497E+03  0.89914857487E+02 0.  0.
        -11    1    4    4    0    0 -0.81580512808E+02  0.46730549830E+02  0.31556029051E+02  0.99171101269E+02  0.00000000000E+00 0.  1.
         11    1    4    4    0    0  0.13352061469E+02 -0.15672502700E+02  0.20138765787E+02  0.28800603705E+02  0.00000000000E+00 0. -1.
        -13    1    3    3    0    0 -0.30808708170E+01  0.21827662688E+02 -0.91558214485E+01  0.23869807075E+02  0.00000000000E+00 0.  1.
         13    1    3    3    0    0  0.52991161130E+02 -0.61693501041E+02 -0.14642148162E+03  0.16749149683E+03  0.00000000000E+00 0. -1.
          1    1    1    2  501    0  0.18318161026E+02  0.88077912221E+01  0.29474270228E+02  0.35803139737E+02  0.00000000000E+00 0. -1.
<scales pt_clust_5="13000.00000" pt_clust_6="13000.00000" pt_clust_7="13000.00000" pt_clust_8="13000.00000" pt_clust_9="20.32565"></scales>
<clustering>
<clus scale="   20.326">  1  9  2 -1</clus>
<clus scale="   89.915">  5  6 -1 -1</clus>
<clus scale="   91.294">  7  8 -1 -1</clus>
<clus scale="  111.191">  1  5  2 -1</clus>
<clus scale="   20.326">  1  5  2 -1</clus>
</clustering>
</event>
<event>
 9    1  0.1610296E-005  0.1147036E+03  0.7546771E-02  0.1252648E+00
          1   -1    0    0  502    0 -0.00000000000E+00  0.00000000000E+00  0.56362913299E+02  0.56362913299E+02  0.00000000000E+00 0. -1.
         21   -1    0    0  501  502  0.00000000000E+00 -0.00000000000E+00 -0.33196647959E+03  0.33196647959E+03  0.00000000000E+00 0. -1.
         23    2    1    2    0    0 -0.30587710277E+02  0.46940272002E+02 -0.96120608605E+02  0.14423541556E+03  0.91791538543E+02 0.  0.
         23    2    1    2    0    0  0.30172206284E+02 -0.77315764123E+02 -0.97422667148E+02  0.15659120910E+03  0.90230489735E+02 0.  0.
        -11    1    3    3    0    0  0.22840443611E+02  0.23563726035E+02 -0.75594345233E+02  0.82410194031E+02  0.00000000000E+00 0.  1.
         11    1    3    3    0    0 -0.53428153888E+02  0.23376545967E+02 -0.20526263371E+02  0.61825221530E+02  0.00000000000E+00 0. -1.
        -11    1    4    4    0    0  0.45231324403E+02 -0.90719788649E+02 -0.72985854067E+02  0.12491151930E+03  0.00000000000E+00 0. -1.
         11    1    4    4    0    0 -0.15059118119E+02  0.13404024526E+02 -0.24436813081E+02  0.31679689796E+02  0.00000000000E+00 0.  1.
          1    1    1    2  501    0  0.41550399272E+00  0.30375492121E+02 -0.82060290540E+02  0.87502768235E+02  0.00000000000E+00 0. -1.
<scales pt_clust_5="13000.00000" pt_clust_6="13000.00000" pt_clust_7="13000.00000" pt_clust_8="13000.00000" pt_clust_9="30.37833"></scales>
<clustering>
<clus scale="   30.378">  2  9  1 -1</clus>
<clus scale="   90.230">  7  8 -1 -1</clus>
<clus scale="   91.792">  5  6 -1 -1</clus>
<clus scale="  113.458">  2  7  1 -1</clus>
<clus scale="   30.378">  2  5  1 -1</clus>
</clustering>
</event>
<event>
 9    1  0.1610296E-005  0.1782665E+03  0.7546771E-02  0.1190684E+00
          1   -1    0    0  502    0 -0.00000000000E+00  0.00000000000E+00  0.58902762362E+03  0.58902762362E+03  0.00000000000E+00 0. -1.
         21   -1    0    0  501  502  0.00000000000E+00 -0.00000000000E+00 -0.21010359520E+03  0.21010359520E+03  0.00000000000E+00 0. -1.
         23    2    1    2    0    0  0.70441958032E+01  0.61648000615E+02  0.22736983052E+03  0.25289119142E+03  0.91688702646E+02 0.  0.
         23    2    1    2    0    0  0.10078076506E+03  0.55347304871E+02  0.29689181266E+03  0.33074722948E+03  0.89604099354E+02 0.  0.
        -11    1    3    3    0    0  0.45138289242E+01  0.86002182002E+02  0.18149193388E+03  0.20088820778E+03  0.00000000000E+00 0. -1.
         11    1    3    3    0    0  0.25303668789E+01 -0.24354181387E+02  0.45877896644E+02  0.52002983646E+02  0.00000000000E+00 0.  1.
        -13    1    4    4    0    0  0.49902527930E+02  0.38669605101E+02  0.57339646476E+02  0.85284440025E+02  0.00000000000E+00 0.  1.
         13    1    4    4    0    0  0.50878237132E+02  0.16677699770E+02  0.23955216618E+03  0.24546278945E+03  0.00000000000E+00 0. -1.
          1    1    1    2  501    0 -0.10782496087E+03 -0.11699530549E+03 -0.14533761476E+03  0.21549279792E+03  0.00000000000E+00 0. -1.
<scales pt_clust_5="13000.00000" pt_clust_6="13000.00000" pt_clust_7="13000.00000" pt_clust_8="13000.00000" pt_clust_9="154.11048"></scales>
<clustering>
<clus scale="   89.604">  7  8 -1 -1</clus>
<clus scale="   91.689">  5  6 -1 -1</clus>
<clus scale="  110.711">  1  5  2 -1</clus>
<clus scale="  154.110">  2  9  1 -1</clus>
<clus scale="  154.110">  2  5  1 -1</clus>
</clustering>
</event>
<event>
 9    1  0.1610296E-005  0.1239047E+03  0.7546771E-02  0.1237167E+00
          3   -1    0    0  502    0 -0.00000000000E+00  0.00000000000E+00  0.67755162482E+02  0.67755162482E+02  0.00000000000E+00 0. -1.
         21   -1    0    0  501  502  0.00000000000E+00 -0.00000000000E+00 -0.42129988642E+03  0.42129988642E+03  0.00000000000E+00 0. -1.
         23    2    1    2    0    0 -0.62099853537E+02 -0.50044605368E+02 -0.10588852279E+03  0.16110536595E+03  0.91551653958E+02 0.  0.
         23    2    1    2    0    0  0.10544927051E+03 -0.92462279602E+01 -0.18458372767E+03  0.23113691634E+03  0.90266716979E+02 0.  0.
        -11    1    4    4    0    0  0.28804961247E+02  0.33607348467E+02 -0.99341889372E+02  0.10875656600E+03  0.00000000000E+00 0.  1.
         11    1    4    4    0    0  0.76644309259E+02 -0.42853576427E+02 -0.85241838298E+02  0.12238035035E+03  0.00000000000E+00 0. -1.
        -11    1    3    3    0    0 -0.25543375378E+02  0.26284862435E+02 -0.28555488053E+02  0.46462607728E+02  0.00000000000E+00 0.  1.
         11    1    3    3    0    0 -0.36556478158E+02 -0.76329467803E+02 -0.77333034739E+02  0.11464275822E+03  0.00000000000E+00 0. -1.
          3    1    1    2  501    0 -0.43349416969E+02  0.59290833328E+02 -0.63072473471E+02  0.96812766607E+02  0.00000000000E+00 0. -1.
<scales pt_clust_5="13000.00000" pt_clust_6="13000.00000" pt_clust_7="13000.00000" pt_clust_8="13000.00000" pt_clust_9="73.44781"></scales>
<clustering>
<clus scale="   73.448">  2  9  1 -1</clus>
<clus scale="   90.267">  5  6 -1 -1</clus>
<clus scale="   91.552">  7  8 -1 -1</clus>
<clus scale="  122.958">  2  5  1 -1</clus>
<clus scale="   73.448">  2  5  1 -1</clus>
</clustering>
</event>
<event>
 9    1  0.1610296E-005  0.1391392E+03  0.7546771E-02  0.1214996E+00
         -3   -1    0    0    0  501 -0.00000000000E+00  0.00000000000E+00  0.18039762280E+03  0.18039762280E+03  0.00000000000E+00 0.  1.
         21   -1    0    0  501  502  0.00000000000E+00 -0.00000000000E+00 -0.38743124349E+03  0.38743124349E+03  0.00000000000E+00 0.  1.
         23    2    1    2    0    0 -0.53256530263E+02 -0.77245659621E+02  0.83011315425E+02  0.15547408568E+03  0.92076940012E+02 0.  0.
         23    2    1    2    0    0  0.37422102007E+02  0.16858708690E+03 -0.15639476807E+03  0.24970069099E+03  0.89828124841E+02 0.  0.
        -11    1    3    3    0    0  0.32429513554E+01 -0.74351844338E+02  0.40667722646E+02  0.84809062930E+02  0.00000000000E+00 0.  1.
         11    1    3    3    0    0 -0.56499481619E+02 -0.28938152833E+01  0.42343592779E+02  0.70665022745E+02  0.00000000000E+00 0. -1.
        -11    1    4    4    0    0  0.37109531542E+02  0.14674961027E+02 -0.41976667795E+02  0.57918153040E+02  0.00000000000E+00 0. -1.
         11    1    4    4    0    0  0.31257046481E+00  0.15391212587E+03 -0.11441810027E+03  0.19178253795E+03  0.00000000000E+00 0.  1.
         -3    1    1    2    0  502  0.15834428256E+02 -0.91341427280E+02 -0.13365016804E+03  0.16265408963E+03  0.00000000000E+00 0.  1.
<scales pt_clust_5="13000.00000" pt_clust_6="13000.00000" pt_clust_7="13000.00000" pt_clust_8="13000.00000" pt_clust_9="92.70375"></scales>
<clustering>
<clus scale="   89.828">  7  8 -1 -1</clus>
<clus scale="   92.077">  5  6 -1 -1</clus>
<clus scale="   92.704">  2  9  1 -1</clus>
<clus scale="  137.661">  2  7  1 -1</clus>
<clus scale="   92.704">  2  5  1 -1</clus>
</clustering>
</event>
<event>
 9    1  0.1610296E-005  0.1144154E+03  0.7546771E-02  0.1252756E+00
         21   -1    0    0  501  502  0.00000000000E+00  0.00000000000E+00  0.38191757393E+03  0.38191757393E+03  0.00000000000E+00 0. -1.
          1   -1    0    0  502    0 -0.00000000000E+00 -0.00000000000E+00 -0.94004608359E+02  0.94004608359E+02  0.00000000000E+00 0. -1.
         23    2    1    2    0    0 -0.15547048877E+02  0.62469961788E+02 -0.23696031025E+02  0.11360393730E+03  0.90554656591E+02 0.  0.
         23    2    1    2    0    0  0.26086376412E+02 -0.83534574617E+02  0.13765715181E+03  0.18677896265E+03  0.90985522220E+02 0.  0.
        -13    1    3    3    0    0 -0.28476603908E+02  0.74497926161E+00  0.21775245990E+02  0.35855729001E+02  0.00000000000E+00 0.  1.
         13    1    3    3    0    0  0.12929555031E+02  0.61724982526E+02 -0.45471277015E+02  0.77748208304E+02  0.00000000000E+00 0. -1.
        -13    1    4    4    0    0 -0.28437746798E+02 -0.63696625220E+01  0.50119538429E+02  0.57976255277E+02  0.00000000000E+00 0.  1.
         13    1    4    4    0    0  0.54524123210E+02 -0.77164912095E+02  0.87537613384E+02  0.12880270738E+03  0.00000000000E+00 0. -1.
          1    1    1    2  501    0 -0.10539327535E+02  0.21064612829E+02  0.17395184478E+03  0.17553928233E+03  0.00000000000E+00 0. -1.
<scales pt_clust_5="13000.00000" pt_clust_6="13000.00000" pt_clust_7="13000.00000" pt_clust_8="13000.00000" pt_clust_9="23.55409"></scales>
<clustering>
<clus scale="   23.554">  1  9  2 -1</clus>
<clus scale="   90.555">  5  6 -1 -1</clus>
<clus scale="   90.986">  7  8 -1 -1</clus>
<clus scale="  114.073">  2  5  1 -1</clus>
<clus scale="   23.554">  1  5  2 -1</clus>
</clustering>
</event>
<event>
 9    1  0.1610296E-005  0.1148503E+03  0.7546771E-02  0.1251953E+00
         21   -1    0    0  501  502  0.00000000000E+00  0.00000000000E+00  0.20944482469E+03  0.20944482469E+03  0.00000000000E+00 0.  1.
          1   -1    0    0  502    0 -0.00000000000E+00 -0.00000000000E+00 -0.11237887384E+03  0.11237887384E+03  0.00000000000E+00 0. -1.
         23    2    1    2    0    0  0.63695769456E+02 -0.26139904547E+02 -0.32669020200E+02  0.11939348056E+03  0.91908066368E+02 0.  0.
         23    2    1    2    0    0 -0.74699443513E+02 -0.67603297094E+01  0.84613480109E+02  0.14551400585E+03  0.91592444898E+02 0.  0.
        -11    1    4    4    0    0 -0.20522761668E+02 -0.28692788268E+02  0.79339597404E+02  0.86828748473E+02  0.00000000000E+00 0. -1.
         11    1    4    4    0    0 -0.54176681845E+02  0.21932458559E+02  0.52738827046E+01  0.58685257373E+02  0.00000000000E+00 0.  1.
        -13    1    3    3    0    0 -0.19327457927E+02 -0.24423756121E+02 -0.14653112977E+02  0.34420694544E+02  0.00000000000E+00 0.  1.
         13    1    3    3    0    0  0.83023227383E+02 -0.17161484261E+01 -0.18015907224E+02  0.84972786018E+02  0.00000000000E+00 0. -1.
          1    1    1    2  501    0  0.11003674057E+02  0.32900234257E+02  0.45121490940E+02  0.56916212115E+02  0.00000000000E+00 0. -1.
<scales pt_clust_5="13000.00000" pt_clust_6="13000.00000" pt_clust_7="13000.00000" pt_clust_8="13000.00000" pt_clust_9="34.69159"></scales>
<clustering>
<clus scale="   34.692">  1  9  2 -1</clus>
<clus scale="   91.592">  5  6 -1 -1</clus>
<clus scale="   91.908">  7  8 -1 -1</clus>
<clus scale="  114.598">  1  5  2 -1</clus>
<clus scale="   34.692">  1  5  2 -1</clus>
</clustering>
</event>
<event>
 9    1  0.1610296E-005  0.1194473E+03  0.7546771E-02  0.1244318E+00
         21   -1    0    0  501  502  0.00000000000E+00  0.00000000000E+00  0.16435293271E+03  0.16435293271E+03  0.00000000000E+00 0.  1.
          1   -1    0    0  502    0 -0.00000000000E+00 -0.00000000000E+00 -0.18209884240E+03  0.18209884240E+03  0.00000000000E+00 0. -1.
         23    2    1    2    0    0 -0.46662986857E+02 -0.76550628935E+02 -0.84221938928E+02  0.15428661718E+03  0.93132121808E+02 0.  0.
         23    2    1    2    0    0  0.31718346250E+02  0.44064715691E+02 -0.10288836016E+02  0.10748032233E+03  0.92186804280E+02 0.  0.
        -11    1    4    4    0    0  0.64587313641E+02  0.28939035693E+02 -0.80168153137E+01  0.71226808141E+02  0.00000000000E+00 0.  1.
         11    1    4    4    0    0 -0.32868967391E+02  0.15125679998E+02 -0.22720207024E+01  0.36253514186E+02  0.00000000000E+00 0. -1.
        -11    1    3    3    0    0 -0.32259387854E+02 -0.17244086905E+02 -0.85761552921E+02  0.93236637634E+02  0.00000000000E+00 0. -1.
         11    1    3    3    0    0 -0.14403599003E+02 -0.59306542030E+02  0.15396139930E+01  0.61049979550E+02  0.00000000000E+00 0.  1.
          1    1    1    2  501    0  0.14944640607E+02  0.32485913244E+02  0.76764865253E+02  0.84684835593E+02  0.00000000000E+00 0. -1.
<scales pt_clust_5="13000.00000" pt_clust_6="13000.00000" pt_clust_7="13000.00000" pt_clust_8="13000.00000" pt_clust_9="35.75859"></scales>
<clustering>
<clus scale="   35.759">  1  9  2 -1</clus>
<clus scale="   92.187">  5  6 -1 -1</clus>
<clus scale="   93.132">  7  8 -1 -1</clus>
<clus scale="  118.712">  1  5  2 -1</clus>
<clus scale="   35.759">  1  5  2 -1</clus>
</clustering>
</event>
<event>
 9    1  0.1610296E-005  0.9647596E+02  0.7546771E-02  0.1290314E+00
          2   -1    0    0  502    0 -0.00000000000E+00  0.00000000000E+00  0.30851647456E+02  0.30851647456E+02  0.00000000000E+00 0. -1.
         21   -1    0    0  501  502  0.00000000000E+00 -0.00000000000E+00 -0.68588170811E+03  0.68588170811E+03  0.00000000000E+00 0.  1.
         23    2    1    2    0    0  0.64903025198E+01 -0.34675190571E+02 -0.14310822756E+03  0.17304717081E+03  0.90668989523E+02 0.  0.
         23    2    1    2    0    0  0.39211338857E+02 -0.26937355048E+02 -0.30722808601E+03  0.32509003681E+03  0.95033073236E+02 0.  0.
        -13    1    3    3    0    0  0.26314948307E+02  0.11459324759E+02 -0.10807236571E+03  0.11181873215E+03  0.00000000000E+00 0. -1.
         13    1    3    3    0    0 -0.19824645787E+02 -0.46134515330E+02 -0.35035861846E+02  0.61228438659E+02  0.00000000000E+00 0.  1.
        -13    1    4    4    0    0 -0.13419401744E+02 -0.36914959691E+02 -0.21394017913E+03  0.21751596456E+03  0.00000000000E+00 0.  1.
         13    1    4    4    0    0  0.52630740602E+02  0.99776046425E+01 -0.93287906877E+02  0.10757407225E+03  0.00000000000E+00 0. -1.
          2    1    1    2  501    0 -0.45701641377E+02  0.61612545619E+02 -0.20469374708E+03  0.21859614795E+03  0.00000000000E+00 0. -1.
<scales pt_clust_5="13000.00000" pt_clust_6="13000.00000" pt_clust_7="13000.00000" pt_clust_8="13000.00000" pt_clust_9="76.71210"></scales>
<clustering>
<clus scale="   76.712">  2  9  1 -1</clus>
<clus scale="   90.669">  5  6 -1 -1</clus>
<clus scale="   92.180">  1  5  2 -1</clus>
<clus scale="   95.033">  7  8 -1 -1</clus>
<clus scale="   76.712">  2  5  1 -1</clus>
</clustering>
</event>
<event>
 9    1  0.1610296E-005  0.1019678E+03  0.7546771E-02  0.1280628E+00
         21   -1    0    0  501  502  0.00000000000E+00  0.00000000000E+00  0.20268106923E+03  0.20268106923E+03  0.00000000000E+00 0. -1.
          3   -1    0    0  502    0 -0.00000000000E+00 -0.00000000000E+00 -0.31334412777E+03  0.31334412777E+03  0.00000000000E+00 0. -1.
         23    2    1    2    0    0  0.60080684172E+01  0.29838867028E+02 -0.19332373402E+03  0.21515115787E+03  0.89384001516E+02 0.  0.
         23    2    1    2    0    0 -0.27230113569E+02 -0.14981100327E+02 -0.83664709950E+02  0.13254322712E+03  0.97989851067E+02 0.  0.
        -11    1    3    3    0    0  0.36909421296E+02  0.44788995530E+02 -0.98777738877E+02  0.11456614333E+03  0.00000000000E+00 0.  1.
         11    1    3    3    0    0 -0.30901352879E+02 -0.14950128502E+02 -0.94545995145E+02  0.10058501454E+03  0.00000000000E+00 0. -1.
        -13    1    4    4    0    0 -0.20303435847E+02  0.37633523800E+02 -0.61789427827E+02  0.75142830742E+02  0.00000000000E+00 0. -1.
         13    1    4    4    0    0 -0.69266777224E+01 -0.52614624127E+02 -0.21875282123E+02  0.57400396377E+02  0.00000000000E+00 0.  1.
          3    1    1    2  501    0  0.21222045152E+02 -0.14857766701E+02  0.16632538543E+03  0.16833081200E+03  0.00000000000E+00 0. -1.
<scales pt_clust_5="13000.00000" pt_clust_6="13000.00000" pt_clust_7="13000.00000" pt_clust_8="13000.00000" pt_clust_9="25.90615"></scales>
<clustering>
<clus scale="   25.906">  1  9  2 -1</clus>
<clus scale="   89.384">  5  6 -1 -1</clus>
<clus scale="   93.728">  2  5  1 -1</clus>
<clus scale="   97.990">  7  8 -1 -1</clus>
<clus scale="   25.906">  1  5  2 -1</clus>
</clustering>
</event>
<event>
 9    1  0.1610296E-005  0.9850864E+02  0.7546771E-02  0.1289459E+00
          2   -1    0    0  502    0 -0.00000000000E+00  0.00000000000E+00  0.50402974516E+03  0.50402974516E+03  0.00000000000E+00 0. -1.
         21   -1    0    0  501  502  0.00000000000E+00 -0.00000000000E+00 -0.24936558225E+02  0.24936558225E+02  0.00000000000E+00 0.  1.
         23    2    1    2    0    0 -0.18397600471E+02 -0.38890017745E+02  0.27662286162E+03  0.29114324886E+03  0.79957980251E+02 0.  0.
         23    2    1    2    0    0  0.21526051370E+02  0.18912710091E+02  0.19306303946E+03  0.21552110274E+03  0.91405399351E+02 0.  0.
        -13    1    4    4    0    0  0.50526872152E+01  0.47869419654E+02  0.16526477698E+03  0.17213209316E+03  0.00000000000E+00 0. -1.
         13    1    4    4    0    0  0.16473364155E+02 -0.28956709563E+02  0.27798262481E+02  0.43389009579E+02  0.00000000000E+00 0.  1.
        -13    1    3    3    0    0  0.85636024635E+01 -0.57118711828E+02  0.19109233665E+03  0.19963006701E+03  0.00000000000E+00 0.  1.
         13    1    3    3    0    0 -0.26961202935E+02  0.18228694083E+02  0.85530524963E+02  0.91513181848E+02  0.00000000000E+00 0. -1.
          2    1    1    2  501    0 -0.31284508986E+01  0.19977307654E+02  0.94072858612E+01  0.22301951785E+02  0.00000000000E+00 0. -1.
<scales pt_clust_5="13000.00000" pt_clust_6="13000.00000" pt_clust_7="13000.00000" pt_clust_8="13000.00000" pt_clust_9="20.22078"></scales>
<clustering>
<clus scale="   20.221">  2  9  1 -1</clus>
<clus scale="   79.958">  7  8 -1 -1</clus>
<clus scale="   87.990">  1  7  2 -1</clus>
<clus scale="   91.405">  5  6 -1 -1</clus>
<clus scale="   20.221">  2  5  1 -1</clus>
</clustering>
</event>
<event>
 9    1  0.1610296E-005  0.1181638E+03  0.7546771E-02  0.1247050E+00
          2   -1    0    0  502    0 -0.00000000000E+00  0.00000000000E+00  0.54083862022E+03  0.54083862022E+03  0.00000000000E+00 0. -1.
         21   -1    0    0  501  502  0.00000000000E+00 -0.00000000000E+00 -0.31707654104E+02  0.31707654104E+02  0.00000000000E+00 0. -1.
         23    2    1    2    0    0 -0.81047797445E+02 -0.17618836335E+02  0.24967738940E+03  0.27801902453E+03  0.89869963614E+02 0.  0.
         23    2    1    2    0    0  0.59443327654E+02  0.20663726707E+02  0.17856634962E+03  0.21074916209E+03  0.92567647152E+02 0.  0.
        -11    1    4    4    0    0  0.59464493555E+02 -0.20233090140E+02  0.66600044470E+02  0.91547637073E+02  0.00000000000E+00 0.  1.
         11    1    4    4    0    0 -0.21165901052E-01  0.40896816847E+02  0.11196630515E+03  0.11920152501E+03  0.00000000000E+00 0. -1.
        -11    1    3    3    0    0 -0.47755565142E+02 -0.54184875562E+02  0.13427503290E+03  0.15246763330E+03  0.00000000000E+00 0. -1.
         11    1    3    3    0    0 -0.33292232303E+02  0.36566039227E+02  0.11540235649E+03  0.12555139123E+03  0.00000000000E+00 0.  1.
          2    1    1    2  501    0  0.21604469791E+02 -0.30448903718E+01  0.80887227105E+02  0.83778087714E+02  0.00000000000E+00 0. -1.
<scales pt_clust_5="13000.00000" pt_clust_6="13000.00000" pt_clust_7="13000.00000" pt_clust_8="13000.00000" pt_clust_9="21.81800"></scales>
<clustering>
<clus scale="   21.818">  2  9  1 -1</clus>
<clus scale="   89.870">  7  8 -1 -1</clus>
<clus scale="   92.568">  5  6 -1 -1</clus>
<clus scale="  116.063">  1  7  2 -1</clus>
<clus scale="   21.818">  2  5  1 -1</clus>
</clustering>
</event>
<event>
 9    1  0.1610296E-005  0.3790899E+03  0.7546771E-02  0.1051293E+00
         21   -1    0    0  501  502  0.00000000000E+00  0.00000000000E+00  0.51927688888E+03  0.51927688888E+03  0.00000000000E+00 0.  1.
          2   -1    0    0  502    0 -0.00000000000E+00 -0.00000000000E+00 -0.42640854100E+03  0.42640854100E+03  0.00000000000E+00 0. -1.
         23    2    1    2    0    0  0.34295330426E+03 -0.13505356037E+03 -0.20510998292E+03  0.43153213630E+03  0.91068361646E+02 0.  0.
         23    2    1    2    0    0 -0.35350806495E+03  0.97359248387E+02  0.25494464898E+03  0.45597974375E+03  0.92054209222E+02 0.  0.
        -11    1    3    3    0    0  0.18975113270E+03 -0.28204428791E+02 -0.11997028746E+03  0.22626058436E+03  0.00000000000E+00 0. -1.
         11    1    3    3    0    0  0.15320217156E+03 -0.10684913158E+03 -0.85139695469E+02  0.20527155194E+03  0.00000000000E+00 0.  1.
        -13    1    4    4    0    0 -0.15099119744E+03  0.76775047338E+02  0.78939640639E+02  0.18688021956E+03  0.00000000000E+00 0.  1.
         13    1    4    4    0    0 -0.20251686751E+03  0.20584201049E+02  0.17600500834E+03  0.26909952419E+03  0.00000000000E+00 0. -1.
          2    1    1    2  501    0  0.10554760692E+02  0.37694311983E+02  0.43033681820E+02  0.58173549833E+02  0.00000000000E+00 0. -1.
<scales pt_clust_5="13000.00000" pt_clust_6="13000.00000" pt_clust_7="13000.00000" pt_clust_8="13000.00000" pt_clust_9="39.14415"></scales>
<clustering>
<clus scale="   39.144">  1  9  2 -1</clus>
<clus scale="   91.068">  5  6 -1 -1</clus>
<clus scale="   92.054">  7  8 -1 -1</clus>
<clus scale="  378.852">  2  5  1 -1</clus>
<clus scale="   39.144">  1  5  2 -1</clus>
</clustering>
</event>
<event>
 9    1  0.1610296E-005  0.9493085E+02  0.7546771E-02  0.1291596E+00
         -2   -1    0    0    0  501 -0.00000000000E+00  0.00000000000E+00  0.17471900434E+03  0.17471900434E+03  0.00000000000E+00 0.  1.
         21   -1    0    0  501  502  0.00000000000E+00 -0.00000000000E+00 -0.12618107428E+03  0.12618107428E+03  0.00000000000E+00 0.  1.
         23    2    1    2    0    0 -0.69369403604E+01 -0.33328078409E+02  0.66352114736E+02  0.11819671203E+03  0.91700477929E+02 0.  0.
         23    2    1    2    0    0  0.24659224707E+02  0.35257208780E+01  0.49688134216E+02  0.10681645776E+03  0.91215880725E+02 0.  0.
        -11    1    3    3    0    0 -0.18387131977E+02 -0.61957025972E+02  0.56455322645E+02  0.85813537071E+02  0.00000000000E+00 0. -1.
         11    1    3    3    0    0  0.11450191617E+02  0.28628947563E+02  0.98967920909E+01  0.32383174958E+02  0.00000000000E+00 0.  1.
        -13    1    4    4    0    0  0.10346246209E+02 -0.42480725311E+02  0.11158908936E+02  0.45124029986E+02  0.00000000000E+00 0. -1.
         13    1    4    4    0    0  0.14312978499E+02  0.46006446189E+02  0.38529225280E+02  0.61692427778E+02  0.00000000000E+00 0.  1.
         -2    1    1    2    0  502 -0.17722284347E+02  0.29802357531E+02 -0.67502318892E+02  0.75886908836E+02  0.00000000000E+00 0.  1.
<scales pt_clust_5="13000.00000" pt_clust_6="13000.00000" pt_clust_7="13000.00000" pt_clust_8="13000.00000" pt_clust_9="34.67362"></scales>
<clustering>
<clus scale="   34.674">  2  9  1 -1</clus>
<clus scale="   91.216">  7  8 -1 -1</clus>
<clus scale="   91.700">  5  6 -1 -1</clus>
<clus scale="   94.463">  2  7  1 -1</clus>
<clus scale="   34.674">  2  5  1 -1</clus>
</clustering>
</event>
<event>
 9    1  0.1610296E-005  0.1084877E+03  0.7546771E-02  0.1264117E+00
          1   -1    0    0  502    0 -0.00000000000E+00  0.00000000000E+00  0.43224343795E+03  0.43224343795E+03  0.00000000000E+00 0. -1.
         21   -1    0    0  501  502  0.00000000000E+00 -0.00000000000E+00 -0.78097952404E+02  0.78097952404E+02  0.00000000000E+00 0.  1.
         23    2    1    2    0    0  0.35945875874E+02 -0.34387122421E+02  0.21302957056E+03  0.23751390023E+03  0.92502295574E+02 0.  0.
         23    2    1    2    0    0 -0.57989599612E+02  0.32491139160E+02  0.18908385227E+03  0.22000284137E+03  0.90719784149E+02 0.  0.
        -13    1    3    3    0    0  0.67084220761E+02 -0.30348018976E+02  0.14883956335E+03  0.16605574530E+03  0.00000000000E+00 0.  1.
         13    1    3    3    0    0 -0.31138344886E+02 -0.40391034456E+01  0.64190007216E+02  0.71458154925E+02  0.00000000000E+00 0. -1.
        -13    1    4    4    0    0 -0.40899533341E+01  0.39045134627E+02  0.14452769708E+03  0.14976483392E+03  0.00000000000E+00 0. -1.
         13    1    4    4    0    0 -0.53899646278E+02 -0.65539954669E+01  0.44556155187E+02  0.70238007449E+02  0.00000000000E+00 0.  1.
          1    1    1    2  501    0  0.22043723737E+02  0.18959832616E+01 -0.47967937284E+02  0.52824648754E+02  0.00000000000E+00 0. -1.
<scales pt_clust_5="13000.00000" pt_clust_6="13000.00000" pt_clust_7="13000.00000" pt_clust_8="13000.00000" pt_clust_9="22.12511"></scales>
<clustering>
<clus scale="   22.125">  2  9  1 -1</clus>
<clus scale="   90.720">  7  8 -1 -1</clus>
<clus scale="   92.502">  5  6 -1 -1</clus>
<clus scale="  106.972">  2  7  1 -1</clus>
<clus scale="   22.125">  2  5  1 -1</clus>
</clustering>
</event>
<event>
 9    1  0.1610296E-005  0.1194826E+03  0.7546771E-02  0.1245945E+00
         -1   -1    0    0    0  501 -0.00000000000E+00  0.00000000000E+00  0.40168980824E+03  0.40168980824E+03  0.00000000000E+00 0.  1.
         21   -1    0    0  501  502  0.00000000000E+00 -0.00000000000E+00 -0.85729854330E+02  0.85729854330E+02  0.00000000000E+00 0.  1.
         23    2    1    2    0    0  0.39223903500E+02  0.22129709415E+02  0.13782531270E+03  0.17089377836E+03  0.90446824254E+02 0.  0.
         23    2    1    2    0    0 -0.10579859703E+03 -0.26072147496E+02  0.19914479139E+03  0.24660336247E+03  0.96340388380E+02 0.  0.
        -13    1    3    3    0    0 -0.19890164007E+02  0.32336234294E+02  0.33895549646E+02  0.50893604297E+02  0.00000000000E+00 0.  1.
         13    1    3    3    0    0  0.59114067507E+02 -0.10206524879E+02  0.10392976305E+03  0.12000017406E+03  0.00000000000E+00 0. -1.
        -13    1    4    4    0    0 -0.10000915848E+03 -0.53875973698E+02  0.13488475697E+03  0.17634724264E+03  0.00000000000E+00 0.  1.
         13    1    4    4    0    0 -0.57894385505E+01  0.27803826202E+02  0.64260034418E+02  0.70256119830E+02  0.00000000000E+00 0. -1.
         -1    1    1    2    0  502  0.66574693533E+02  0.39424380810E+01 -0.21010150172E+02  0.69922521746E+02  0.00000000000E+00 0.  1.
<scales pt_clust_5="13000.00000" pt_clust_6="13000.00000" pt_clust_7="13000.00000" pt_clust_8="13000.00000" pt_clust_9="66.69132"></scales>
<clustering>
<clus scale="   66.691">  2  9  1 -1</clus>
<clus scale="   90.447">  5  6 -1 -1</clus>
<clus scale="   96.340">  7  8 -1 -1</clus>
<clus scale="  114.783">  1  5  2 -1</clus>
<clus scale="   66.691">  2  5  1 -1</clus>
</clustering>
</event>
<event>
 9    1  0.1610296E-005  0.1761018E+03  0.7546771E-02  0.1196902E+00
          1   -1    0    0  502    0 -0.00000000000E+00  0.00000000000E+00  0.58126429094E+03  0.58126429094E+03  0.00000000000E+00 0. -1.
         21   -1    0    0  501  502  0.00000000000E+00 -0.00000000000E+00 -0.97214501170E+03  0.97214501170E+03  0.00000000000E+00 0. -1.
         23    2    1    2    0    0  0.25256846321E+02 -0.31745257688E+02  0.13356265748E+03  0.16696535473E+03  0.91612098198E+02 0.  0.
         23    2    1    2    0    0 -0.33900115131E+02 -0.11833050677E+03  0.41106347847E+03  0.43893641752E+03  0.92415738137E+02 0.  0.
        -13    1    3    3    0    0  0.28482421488E+02  0.71169243554E+01  0.16444413476E+01  0.29404134631E+02  0.00000000000E+00 0.  1.
         13    1    3    3    0    0 -0.32255751671E+01 -0.38862182044E+02  0.13191821613E+03  0.13756122010E+03  0.00000000000E+00 0. -1.
        -13    1    4    4    0    0  0.24764661284E+02 -0.13923814897E+02  0.13594972199E+03  0.13888660115E+03  0.00000000000E+00 0.  1.
         13    1    4    4    0    0 -0.58664776415E+02 -0.10440669187E+03  0.27511375649E+03  0.30004981638E+03  0.00000000000E+00 0. -1.
          1    1    1    2  501    0  0.86432688109E+01  0.15007576446E+03 -0.93550685672E+03  0.94750753038E+03  0.00000000000E+00 0. -1.
<scales pt_clust_5="13000.00000" pt_clust_6="13000.00000" pt_clust_7="13000.00000" pt_clust_8="13000.00000" pt_clust_9="149.90392"></scales>
<clustering>
<clus scale="   91.612">  5  6 -1 -1</clus>
<clus scale="   92.416">  7  8 -1 -1</clus>
<clus scale="  100.192">  1  5  2 -1</clus>
<clus scale="  149.904">  2  9  1 -1</clus>
<clus scale="  149.904">  2  5  1 -1</clus>
</clustering>
</event>
<event>
 9    1  0.1610296E-005  0.1181497E+03  0.7546771E-02  0.1247869E+00
          3   -1    0    0  502    0 -0.00000000000E+00  0.00000000000E+00  0.37565118435E+03  0.37565118435E+03  0.00000000000E+00 0. -1.
         21   -1    0    0  501  502  0.00000000000E+00 -0.00000000000E+00 -0.91591929647E+02  0.91591929647E+02  0.00000000000E+00 0. -1.
         23    2    1    2    0    0 -0.66618628643E+02  0.47228935166E+02  0.26679901115E+03  0.29241558395E+03  0.87501699349E+02 0.  0.
         23    2    1    2    0    0  0.33513610540E+02 -0.43080760673E+02  0.58036178682E+02  0.12214141744E+03  0.92580849998E+02 0.  0.
        -11    1    4    4    0    0  0.26547752711E+02 -0.12221829390E+02  0.78971586279E+02  0.84206102671E+02  0.00000000000E+00 0. -1.
         11    1    4    4    0    0  0.69658578291E+01 -0.30858931284E+02 -0.20935407597E+02  0.37935314768E+02  0.00000000000E+00 0.  1.
        -13    1    3    3    0    0 -0.70475630494E+02  0.34835668355E+01  0.12020476233E+03  0.13938484357E+03  0.00000000000E+00 0. -1.
         13    1    3    3    0    0  0.38570018516E+01  0.43745368331E+02  0.14659424882E+03  0.15303074038E+03  0.00000000000E+00 0.  1.
          3    1    1    2  501    0  0.33105018103E+02 -0.41481744928E+01 -0.40775935132E+02  0.52686112602E+02  0.00000000000E+00 0. -1.
<scales pt_clust_5="13000.00000" pt_clust_6="13000.00000" pt_clust_7="13000.00000" pt_clust_8="13000.00000" pt_clust_9="33.36390"></scales>
<clustering>
<clus scale="   33.364">  2  9  1 -1</clus>
<clus scale="   87.502">  7  8 -1 -1</clus>
<clus scale="   92.581">  5  6 -1 -1</clus>
<clus scale="  114.213">  1  7  2 -1</clus>
<clus scale="   33.364">  2  5  1 -1</clus>
</clustering>
</event>
<event>
 9    1  0.1610296E-005  0.9532033E+02  0.7546771E-02  0.1291003E+00
          1   -1    0    0  502    0 -0.00000000000E+00  0.00000000000E+00  0.42932833542E+03  0.42932833542E+03  0.00000000000E+00 0. -1.
         21   -1    0    0  501  502  0.00000000000E+00 -0.00000000000E+00 -0.95012323903E+02  0.95012323903E+02  0.00000000000E+00 0. -1.
         23    2    1    2    0    0 -0.17105463157E+02 -0.19236287909E+02  0.30101037987E+03  0.31620377189E+03  0.93353869375E+02 0.  0.
         23    2    1    2    0    0  0.19740264350E+02 -0.25783758600E+02  0.91844012984E+02  0.13424176679E+03  0.92363677855E+02 0.  0.
        -11    1    3    3    0    0 -0.54309056897E+02  0.11136288652E+01  0.17654308369E+03  0.18471105605E+03  0.00000000000E+00 0.  1.
         11    1    3    3    0    0  0.37203593740E+02 -0.20349916775E+02  0.12446729618E+03  0.13149271584E+03  0.00000000000E+00 0. -1.
        -13    1    4    4    0    0 -0.24446564203E+02 -0.20877848328E+02  0.82869234633E+02  0.88886608107E+02  0.00000000000E+00 0. -1.
         13    1    4    4    0    0  0.44186828553E+02 -0.49059102718E+01  0.89747783516E+01  0.45355158688E+02  0.00000000000E+00 0.  1.
          1    1    1    2  501    0 -0.26348011928E+01  0.45020046510E+02 -0.58538381334E+02  0.73895120639E+02  0.00000000000E+00 0. -1.
<scales pt_clust_5="13000.00000" pt_clust_6="13000.00000" pt_clust_7="13000.00000" pt_clust_8="13000.00000" pt_clust_9="45.09708"></scales>
<clustering>
<clus scale="   45.097">  2  9  1 -1</clus>
<clus scale="   92.364">  7  8 -1 -1</clus>
<clus scale="   93.354">  5  6 -1 -1</clus>
<clus scale="   94.351">  2  7  1 -1</clus>
<clus scale="   45.097">  2  5  1 -1</clus>
</clustering>
</event>
<event>
 9    1  0.1610296E-005  0.9771800E+02  0.7546771E-02  0.1285386E+00
         21   -1    0    0  501  502  0.00000000000E+00  0.00000000000E+00  0.22458732130E+02  0.22458732130E+02  0.00000000000E+00 0.  1.
          1   -1    0    0  502    0 -0.00000000000E+00 -0.00000000000E+00 -0.53326480440E+03  0.53326480440E+03  0.00000000000E+00 0. -1.
         23    2    1    2    0    0 -0.20625927243E+02  0.63095284679E+01 -0.21731470399E+03  0.23721698472E+03  0.92633569762E+02 0.  0.
         23    2    1    2    0    0  0.37151762626E+02 -0.19349344623E+02 -0.22265118295E+03  0.24460477985E+03  0.92213331213E+02 0.  0.
        -13    1    4    4    0    0  0.70825582698E+01  0.28625036645E+02 -0.23933525199E+02  0.37978533186E+02  0.00000000000E+00 0.  1.
         13    1    4    4    0    0  0.30069204356E+02 -0.47974381268E+02 -0.19871765775E+03  0.20662624666E+03  0.00000000000E+00 0. -1.
        -13    1    3    3    0    0 -0.48396310653E+02 -0.18656085525E+02 -0.16486754423E+03  0.17283390741E+03  0.00000000000E+00 0.  1.
         13    1    3    3    0    0  0.27770383410E+02  0.24965613993E+02 -0.52447159762E+02  0.64383077310E+02  0.00000000000E+00 0. -1.
          1    1    1    2  501    0 -0.16525835382E+02  0.13039816155E+02 -0.70840185332E+02  0.73901771957E+02  0.00000000000E+00 0. -1.
<scales pt_clust_5="13000.00000" pt_clust_6="13000.00000" pt_clust_7="13000.00000" pt_clust_8="13000.00000" pt_clust_9="21.05090"></scales>
<clustering>
<clus scale="   21.051">  1  9  2 -1</clus>
<clus scale="   92.213">  5  6 -1 -1</clus>
<clus scale="   92.634">  7  8 -1 -1</clus>
<clus scale="   97.320">  1  5  2 -1</clus>
<clus scale="   21.051">  1  5  2 -1</clus>
</clustering>
</event>
<event>
 9    1  0.1610296E-005  0.1198644E+03  0.7546771E-02  0.1244185E+00
         21   -1    0    0  501  502  0.00000000000E+00  0.00000000000E+00  0.83074465345E+02  0.83074465345E+02  0.00000000000E+00 0.  1.
          1   -1    0    0  502    0 -0.00000000000E+00 -0.00000000000E+00 -0.23858158958E+03  0.23858158958E+03  0.00000000000E+00 0. -1.
         23    2    1    2    0    0 -0.62847931892E+02 -0.78173971413E+01 -0.71760813896E+02  0.13134335285E+03  0.89947138279E+02 0.  0.
         23    2    1    2    0    0  0.91860742173E+02 -0.10835285152E+02 -0.84492817998E+02  0.15581309352E+03  0.92643858197E+02 0.  0.
        -11    1    4    4    0    0  0.67162582045E+02  0.26921443923E+02 -0.16503014524E+02  0.74215403106E+02  0.00000000000E+00 0.  1.
         11    1    4    4    0    0  0.24698160128E+02 -0.37756729075E+02 -0.67989803474E+02  0.81597690412E+02  0.00000000000E+00 0. -1.
        -13    1    3    3    0    0 -0.14315702294E+02 -0.31065770509E+02  0.79981269498E+01  0.35128214646E+02  0.00000000000E+00 0.  1.
         13    1    3    3    0    0 -0.48532229598E+02  0.23248373368E+02 -0.79758940846E+02  0.96215138200E+02  0.00000000000E+00 0. -1.
          1    1    1    2  501    0 -0.29012810281E+02  0.18652682294E+02  0.74650765826E+00  0.34499608561E+02  0.00000000000E+00 0. -1.
<scales pt_clust_5="13000.00000" pt_clust_6="13000.00000" pt_clust_7="13000.00000" pt_clust_8="13000.00000" pt_clust_9="34.49153"></scales>
<clustering>
<clus scale="   34.492">  1  9  2 -1</clus>
<clus scale="   89.947">  7  8 -1 -1</clus>
<clus scale="   92.644">  5  6 -1 -1</clus>
<clus scale="  117.793">  2  7  1 -1</clus>
<clus scale="   34.492">  1  5  2 -1</clus>
</clustering>
</event>
<event>
 9    1  0.1610296E-005  0.1106932E+03  0.7546771E-02  0.1260669E+00
          1   -1    0    0  502    0 -0.00000000000E+00  0.00000000000E+00  0.10011630954E+03  0.10011630954E+03  0.00000000000E+00 0. -1.
         21   -1    0    0  501  502  0.00000000000E+00 -0.00000000000E+00 -0.23006766985E+03  0.23006766985E+03  0.00000000000E+00 0.  1.
         23    2    1    2    0    0 -0.13879672067E+01 -0.60451832757E+02  0.30192221623E+02  0.11120452022E+03  0.88309255083E+02 0.  0.
         23    2    1    2    0    0 -0.22815265890E+02  0.66714153423E+02 -0.15493311665E+03  0.19344199452E+03  0.91892437029E+02 0.  0.
        -11    1    4    4    0    0 -0.96826543377E+01  0.24901207016E+02 -0.14636752171E+03  0.14878600511E+03  0.00000000000E+00 0. -1.
         11    1    4    4    0    0 -0.13132611552E+02  0.41812946407E+02 -0.85655949468E+01  0.44655989410E+02  0.00000000000E+00 0.  1.
        -13    1    3    3    0    0 -0.15290446617E+01 -0.31524380933E+02 -0.30550307494E+02  0.43925457980E+02  0.00000000000E+00 0.  1.
         13    1    3    3    0    0  0.14107745504E+00 -0.28927451824E+02  0.60742529117E+02  0.67279062237E+02  0.00000000000E+00 0. -1.
          1    1    1    2  501    0  0.24203233096E+02 -0.62623206660E+01 -0.52104652842E+01  0.25537464653E+02  0.00000000000E+00 0. -1.
<scales pt_clust_5="13000.00000" pt_clust_6="13000.00000" pt_clust_7="13000.00000" pt_clust_8="13000.00000" pt_clust_9="25.00028"></scales>
<clustering>
<clus scale="   25.000">  2  9  1 -1</clus>
<clus scale="   88.309">  7  8 -1 -1</clus>
<clus scale="   91.892">  5  6 -1 -1</clus>
<clus scale="  107.737">  1  7  2 -1</clus>
<clus scale="   25.000">  2  5  1 -1</clus>
</clustering>
</event>
<event>
 9    1  0.1610296E-005  0.1423932E+03  0.7546771E-02  0.1210394E+00
         -1   -1    0    0    0  501 -0.00000000000E+00  0.00000000000E+00  0.94851250944E+02  0.94851250944E+02  0.00000000000E+00 0.  1.
         21   -1    0    0  501  502  0.00000000000E+00 -0.00000000000E+00 -0.82394118409E+03  0.82394118409E+03  0.00000000000E+00 0.  1.
         23    2    1    2    0    0 -0.65130218687E+02  0.75668893407E+02 -0.24463482686E+02  0.13706740660E+03  0.90671302798E+02 0.  0.
         23    2    1    2    0    0  0.70278665581E+02 -0.17320795259E+03 -0.61445429776E+03  0.64879124155E+03  0.91847185073E+02 0.  0.
        -13    1    4    4    0    0  0.67794170180E+02 -0.12016461356E+03 -0.30420432433E+03  0.33402972144E+03  0.00000000000E+00 0.  1.
         13    1    4    4    0    0  0.24844954012E+01 -0.53043339025E+02 -0.31024997343E+03  0.31476152011E+03  0.00000000000E+00 0. -1.
        -13    1    3    3    0    0 -0.59247004578E+02  0.51930275394E+02 -0.56364248437E+02  0.96870478247E+02  0.00000000000E+00 0.  1.
         13    1    3    3    0    0 -0.58832141092E+01  0.23738618013E+02  0.31900765752E+02  0.40196928352E+02  0.00000000000E+00 0. -1.
         -1    1    1    2    0  502 -0.51484468945E+01  0.97539059182E+02 -0.90172152696E+02  0.13293378688E+03  0.00000000000E+00 0.  1.
<scales pt_clust_5="13000.00000" pt_clust_6="13000.00000" pt_clust_7="13000.00000" pt_clust_8="13000.00000" pt_clust_9="97.67489"></scales>
<clustering>
<clus scale="   90.671">  7  8 -1 -1</clus>
<clus scale="   91.847">  5  6 -1 -1</clus>
<clus scale="   97.675">  2  9  1 -1</clus>
<clus scale="  141.638">  1  7  2 -1</clus>
<clus scale="   97.675">  2  5  1 -1</clus>
</clustering>
</event>
<event>
 9    1  0.1610296E-005  0.9835496E+02  0.7546771E-02  0.1287598E+00
         -1   -1    0    0    0  501 -0.00000000000E+00  0.00000000000E+00  0.70439790362E+02  0.70439790362E+02  0.00000000000E+00 0.  1.
         21   -1    0    0  501  502  0.00000000000E+00 -0.00000000000E+00 -0.40558882392E+03  0.40558882392E+03  0.00000000000E+00 0. -1.
         23    2    1    2    0    0 -0.42762028575E+01 -0.42482507105E+02  0.25222783243E+02  0.95942192942E+02  0.82132005157E+02 0.  0.
         23    2    1    2    0    0 -0.71130759573E+01  0.25684182332E+02 -0.23242675908E+03  0.25054169091E+03  0.89658616298E+02 0.  0.
        -11    1    3    3    0    0  0.36117280423E+02 -0.30617288439E+02  0.25629763791E+02  0.53840143838E+02  0.00000000000E+00 0. -1.
         11    1    3    3    0    0 -0.40393483281E+02 -0.11865218666E+02 -0.40698054814E+00  0.42102049104E+02  0.00000000000E+00 0.  1.
        -11    1    4    4    0    0 -0.34397628202E+02 -0.11491347852E+02 -0.46437480281E+02  0.58921027454E+02  0.00000000000E+00 0.  1.
         11    1    4    4    0    0  0.27284552244E+02  0.37175530184E+02 -0.18598927880E+03  0.19162066346E+03  0.00000000000E+00 0. -1.
         -1    1    1    2    0  502  0.11389278815E+02  0.16798324773E+02 -0.12794505772E+03  0.12954473043E+03  0.00000000000E+00 0.  1.
<scales pt_clust_5="13000.00000" pt_clust_6="13000.00000" pt_clust_7="13000.00000" pt_clust_8="13000.00000" pt_clust_9="20.29530"></scales>
<clustering>
<clus scale="   20.295">  2  9  1 -1</clus>
<clus scale="   82.132">  5  6 -1 -1</clus>
<clus scale="   89.659">  7  8 -1 -1</clus>
<clus scale="   91.546">  1  5  2 -1</clus>
<clus scale="   20.295">  2  5  1 -1</clus>
</clustering>
</event>
<event>
 9    1  0.1610296E-005  0.9411216E+02  0.7546771E-02  0.1293970E+00
         21   -1    0    0  501  502  0.00000000000E+00  0.00000000000E+00  0.16763383919E+03  0.16763383919E+03  0.00000000000E+00 0.  1.
          1   -1    0    0  502    0 -0.00000000000E+00 -0.00000000000E+00 -0.16004485488E+03  0.16004485488E+03  0.00000000000E+00 0. -1.
         23    2    1    2    0    0 -0.34600205593E+02  0.29061551140E+02 -0.50018341565E+02  0.11428345309E+03  0.92288272144E+02 0.  0.
         23    2    1    2    0    0 -0.49820355872E+01  0.47157024357E+02 -0.11488304884E+02  0.10316715356E+03  0.90900356436E+02 0.  0.
        -11    1    3    3    0    0 -0.55251963109E+02 -0.97657369646E+01 -0.40736001222E+02  0.69336648617E+02  0.00000000000E+00 0. -1.
         11    1    3    3    0    0  0.20651757516E+02  0.38827288104E+02 -0.92823403434E+01  0.44946804472E+02  0.00000000000E+00 0.  1.
        -13    1    4    4    0    0 -0.47241271576E+02  0.27711220265E+02  0.17647343479E+01  0.54797479468E+02  0.00000000000E+00 0.  1.
         13    1    4    4    0    0  0.42259235989E+02  0.19445804092E+02 -0.13253039232E+02  0.48369674094E+02  0.00000000000E+00 0. -1.
          1    1    1    2  501    0  0.39582241180E+02 -0.76218575496E+02  0.69095630753E+02  0.11022808742E+03  0.00000000000E+00 0. -1.
<scales pt_clust_5="13000.00000" pt_clust_6="13000.00000" pt_clust_7="13000.00000" pt_clust_8="13000.00000" pt_clust_9="85.88379"></scales>
<clustering>
<clus scale="   85.884">  1  9  2 -1</clus>
<clus scale="   90.900">  7  8 -1 -1</clus>
<clus scale="   92.288">  5  6 -1 -1</clus>
<clus scale="   92.752">  1  7  2 -1</clus>
<clus scale="   85.884">  1  5  2 -1</clus>
</clustering>
</event>
<event>
 9    1  0.1610296E-005  0.1158239E+03  0.7546771E-02  0.1251961E+00
         21   -1    0    0  501  502  0.00000000000E+00  0.00000000000E+00  0.39797968877E+02  0.39797968877E+02  0.00000000000E+00 0. -1.
         -3   -1    0    0    0  501 -0.00000000000E+00 -0.00000000000E+00 -0.78723868868E+03  0.78723868868E+03  0.00000000000E+00 0.  1.
         23    2    1    2    0    0 -0.49469036568E+02  0.40422238600E+02 -0.50604703832E+03  0.51813657351E+03  0.91108511432E+02 0.  0.
         23    2    1    2    0    0  0.18912824532E+02 -0.74758385782E+02 -0.23095143993E+03  0.26176524019E+03  0.96103913506E+02 0.  0.
        -11    1    3    3    0    0 -0.72217739829E+02  0.36666774023E+02 -0.45460862194E+03  0.46176709866E+03  0.00000000000E+00 0.  1.
         11    1    3    3    0    0  0.22748703260E+02  0.37554645776E+01 -0.51438416384E+02  0.56369474845E+02  0.00000000000E+00 0. -1.
        -13    1    4    4    0    0 -0.21488540079E+02 -0.77128874309E+02 -0.17748542406E+03  0.19470926111E+03  0.00000000000E+00 0. -1.
         13    1    4    4    0    0  0.40401364611E+02  0.23704885263E+01 -0.53466015868E+02  0.67055979086E+02  0.00000000000E+00 0.  1.
         -3    1    1    2    0  502  0.30556212037E+02  0.34336147182E+02 -0.10442241554E+02  0.47134843863E+02  0.00000000000E+00 0.  1.
<scales pt_clust_5="13000.00000" pt_clust_6="13000.00000" pt_clust_7="13000.00000" pt_clust_8="13000.00000" pt_clust_9="45.96361"></scales>
<clustering>
<clus scale="   45.964">  1  9  2 -1</clus>
<clus scale="   91.109">  5  6 -1 -1</clus>
<clus scale="   96.104">  7  8 -1 -1</clus>
<clus scale="  111.714">  2  5  1 -1</clus>
<clus scale="   45.964">  1  5  2 -1</clus>
</clustering>
</event>
<event>
 9    1  0.1610296E-005  0.1334430E+03  0.7546771E-02  0.1225940E+00
         21   -1    0    0  501  502  0.00000000000E+00  0.00000000000E+00  0.59559502763E+03  0.59559502763E+03  0.00000000000E+00 0. -1.
          1   -1    0    0  502    0 -0.00000000000E+00 -0.00000000000E+00 -0.73340779540E+02  0.73340779540E+02  0.00000000000E+00 0. -1.
         23    2    1    2    0    0  0.67532663351E+02  0.54619866022E+02  0.82072522170E+02  0.14924730685E+03  0.89414033137E+02 0.  0.
         23    2    1    2    0    0 -0.28147621575E+02 -0.88538483210E+02  0.87978410160E+02  0.16367048148E+03  0.10206112994E+03 0.  0.
        -11    1    4    4    0    0 -0.50303525935E+02 -0.95899331060E+02  0.89189887870E+02  0.14029241789E+03  0.00000000000E+00 0. -1.
         11    1    4    4    0    0  0.22155904360E+02  0.73608478498E+01 -0.12114777100E+01  0.23378063592E+02  0.00000000000E+00 0.  1.
        -13    1    3    3    0    0  0.20772012134E+02 -0.24566510718E+02  0.27418940544E+02  0.42270417996E+02  0.00000000000E+00 0.  1.
         13    1    3    3    0    0  0.46760651217E+02  0.79186376741E+02  0.54653581626E+02  0.10697688885E+03  0.00000000000E+00 0. -1.
          1    1    1    2  501    0 -0.39385041776E+02  0.33918617188E+02  0.35220331576E+03  0.35601801884E+03  0.00000000000E+00 0. -1.
<scales pt_clust_5="13000.00000" pt_clust_6="13000.00000" pt_clust_7="13000.00000" pt_clust_8="13000.00000" pt_clust_9="51.97744"></scales>
<clustering>
<clus scale="   51.977">  1  9  2 -1</clus>
<clus scale="   89.414">  7  8 -1 -1</clus>
<clus scale="  102.061">  5  6 -1 -1</clus>
<clus scale="  124.038">  2  7  1 -1</clus>
<clus scale="   51.977">  1  5  2 -1</clus>
</clustering>
</event>
<event>
 9    1  0.1610296E-005  0.9901752E+02  0.7546771E-02  0.1285921E+00
          1   -1    0    0  502    0 -0.00000000000E+00  0.00000000000E+00  0.33440226337E+02  0.33440226337E+02  0.00000000000E+00 0. -1.
         21   -1    0    0  501  502  0.00000000000E+00 -0.00000000000E+00 -0.46305868353E+03  0.46305868353E+03  0.00000000000E+00 0.  1.
         23    2    1    2    0    0 -0.36857615190E+01 -0.15485809548E+02 -0.10129238617E+03  0.13676551886E+03  0.90505604891E+02 0.  0.
         23    2    1    2    0    0 -0.22798734426E+02  0.22602590308E+02 -0.16488933753E+03  0.19401180838E+03  0.97064044738E+02 0.  0.
        -11    1    4    4    0    0 -0.60165611213E+02  0.94321950105E+01 -0.82011743768E+02  0.10215083549E+03  0.00000000000E+00 0.  1.
         11    1    4    4    0    0  0.37366876787E+02  0.13170395298E+02 -0.82877593762E+02  0.91860972893E+02  0.00000000000E+00 0. -1.
        -13    1    3    3    0    0 -0.20856507841E+02  0.76385807251E+01 -0.10536147631E+03  0.10767721452E+03  0.00000000000E+00 0.  1.
         13    1    3    3    0    0  0.17170746322E+02 -0.23124390273E+02  0.40690901446E+01  0.29088304340E+02  0.00000000000E+00 0. -1.
          1    1    1    2  501    0  0.26484495945E+02 -0.71167807603E+01 -0.16343673349E+03  0.16572158262E+03  0.00000000000E+00 0. -1.
<scales pt_clust_5="13000.00000" pt_clust_6="13000.00000" pt_clust_7="13000.00000" pt_clust_8="13000.00000" pt_clust_9="27.42402"></scales>
<clustering>
<clus scale="   27.424">  2  9  1 -1</clus>
<clus scale="   90.506">  7  8 -1 -1</clus>
<clus scale="   92.598">  1  7  2 -1</clus>
<clus scale="   97.064">  5  6 -1 -1</clus>
<clus scale="   27.424">  2  5  1 -1</clus>
</clustering>
</event>
<event>
 9    1  0.1610296E-005  0.1000560E+03  0.7546771E-02  0.1283131E+00
         21   -1    0    0  501  502  0.00000000000E+00  0.00000000000E+00  0.43291857901E+02  0.43291857901E+02  0.00000000000E+00 0.  1.
         -1   -1    0    0    0  501 -0.00000000000E+00 -0.00000000000E+00 -0.54210393214E+03  0.54210393214E+03  0.00000000000E+00 0.  1.
         23    2    1    2    0    0  0.37510087896E+01 -0.13447951045E+02 -0.29687992233E+03  0.31280693816E+03  0.97547807913E+02 0.  0.
         23    2    1    2    0    0  0.81357453157E+01  0.33690912826E+02 -0.22131385105E+03  0.24214673162E+03  0.91945369714E+02 0.  0.
        -13    1    3    3    0    0 -0.40854997560E+01  0.41372533737E+02 -0.15569117074E+03  0.16114626431E+03  0.00000000000E+00 0.  1.
         13    1    3    3    0    0  0.78365085456E+01 -0.54820484782E+02 -0.14118875159E+03  0.15166067385E+03  0.00000000000E+00 0. -1.
        -13    1    4    4    0    0 -0.18208799534E+02 -0.21810448647E+02 -0.12281450687E+03  0.12605815780E+03  0.00000000000E+00 0.  1.
         13    1    4    4    0    0  0.26344544850E+02  0.55501361473E+02 -0.98499344178E+02  0.11608857382E+03  0.00000000000E+00 0. -1.
         -1    1    1    2    0  502 -0.11886754105E+02 -0.20242961781E+02  0.19381699128E+02  0.30442120260E+02  0.00000000000E+00 0.  1.
<scales pt_clust_5="13000.00000" pt_clust_6="13000.00000" pt_clust_7="13000.00000" pt_clust_8="13000.00000" pt_clust_9="23.47493"></scales>
<clustering>
<clus scale="   23.475">  1  9  2 -1</clus>
<clus scale="   91.945">  7  8 -1 -1</clus>
<clus scale="   94.602">  1  7  2 -1</clus>
<clus scale="   97.548">  5  6 -1 -1</clus>
<clus scale="   23.475">  1  5  2 -1</clus>
</clustering>
</event>
<event>
 9    1  0.1610296E-005  0.1539755E+03  0.7546771E-02  0.1208279E+00
          2   -1    0    0  502    0 -0.00000000000E+00  0.00000000000E+00  0.23428606284E+03  0.23428606284E+03  0.00000000000E+00 0. -1.
         21   -1    0    0  501  502  0.00000000000E+00 -0.00000000000E+00 -0.23888548068E+03  0.23888548068E+03  0.00000000000E+00 0. -1.
         23    2    1    2    0    0  0.55933796702E+02  0.48509313129E+02  0.27338013063E+02  0.12034545480E+03  0.90851078465E+02 0.  0.
         23    2    1    2    0    0  0.58818685056E+02 -0.82060251101E+02  0.99281482358E+02  0.17530932697E+03  0.10335871933E+03 0.  0.
        -11    1    3    3    0    0 -0.29338047904E+01  0.20364441288E+02  0.47736405659E+02  0.51981555428E+02  0.00000000000E+00 0.  1.
         11    1    3    3    0    0  0.58867601492E+02  0.28144871841E+02 -0.20398392595E+02  0.68363899368E+02  0.00000000000E+00 0. -1.
        -13    1    4    4    0    0  0.74131597921E+01  0.24789428350E+02  0.19399466275E+02  0.32338985571E+02  0.00000000000E+00 0.  1.
         13    1    4    4    0    0  0.51405525264E+02 -0.10684967945E+03  0.79882016083E+02  0.14297034140E+03  0.00000000000E+00 0. -1.
          2    1    1    2  501    0 -0.11475248176E+03  0.33550937972E+02 -0.13121891325E+03  0.17751676175E+03  0.00000000000E+00 0. -1.
<scales pt_clust_5="13000.00000" pt_clust_6="13000.00000" pt_clust_7="13000.00000" pt_clust_8="13000.00000" pt_clust_9="114.12894"></scales>
<clustering>
<clus scale="   90.851">  5  6 -1 -1</clus>
<clus scale="  103.359">  7  8 -1 -1</clus>
<clus scale="  117.199">  1  5  2 -1</clus>
<clus scale="  114.129">  2  9  1 -1</clus>
<clus scale="  114.129">  2  5  1 -1</clus>
</clustering>
</event>
<event>
 9    1  0.1610296E-005  0.9866838E+02  0.7546771E-02  0.1283274E+00
          4   -1    0    0  502    0 -0.00000000000E+00  0.00000000000E+00  0.72716538520E+02  0.72716538520E+02  0.00000000000E+00 0. -1.
         21   -1    0    0  501  502  0.00000000000E+00 -0.00000000000E+00 -0.16628229433E+03  0.16628229433E+03  0.00000000000E+00 0.  1.
         23    2    1    2    0    0  0.19426202149E+02 -0.46443880771E+02 -0.32174252741E+02  0.10658231158E+03  0.88262082523E+02 0.  0.
         23    2    1    2    0    0 -0.38280381915E+00  0.37146083136E+02 -0.52150489374E+02  0.10929734319E+03  0.88579103946E+02 0.  0.
        -13    1    4    4    0    0  0.73964945482E+00 -0.29421069423E+02 -0.17560993351E+02  0.34271488074E+02  0.00000000000E+00 0.  1.
         13    1    4    4    0    0 -0.11224532740E+01  0.66567152559E+02 -0.34589496024E+02  0.75025855119E+02  0.00000000000E+00 0. -1.
        -13    1    3    3    0    0 -0.21550660802E+02  0.12602204714E+02 -0.23328667833E+02  0.34168308233E+02  0.00000000000E+00 0. -1.
         13    1    3    3    0    0  0.40976862951E+02 -0.59046085485E+02 -0.88455849086E+01  0.72414003347E+02  0.00000000000E+00 0.  1.
          4    1    1    2  501    0 -0.19043398329E+02  0.92977976350E+01 -0.92410136918E+01  0.23119178075E+02  0.00000000000E+00 0. -1.
<scales pt_clust_5="13000.00000" pt_clust_6="13000.00000" pt_clust_7="13000.00000" pt_clust_8="13000.00000" pt_clust_9="21.19198"></scales>
<clustering>
<clus scale="   21.192">  2  9  1 -1</clus>
<clus scale="   88.262">  7  8 -1 -1</clus>
<clus scale="   88.579">  5  6 -1 -1</clus>
<clus scale="   98.384">  1  7  2 -1</clus>
<clus scale="   21.192">  2  5  1 -1</clus>
</clustering>
</event>
<event>
 9    1  0.1610296E-005  0.9612700E+02  0.7546771E-02  0.1294838E+00
         -1   -1    0    0    0  501 -0.00000000000E+00  0.00000000000E+00  0.17917425187E+03  0.17917425187E+03  0.00000000000E+00 0.  1.
         21   -1    0    0  501  502  0.00000000000E+00 -0.00000000000E+00 -0.15230428725E+03  0.15230428725E+03  0.00000000000E+00 0.  1.
         23    2    1    2    0    0 -0.23811149226E+02  0.51671425051E+01  0.64935131744E+02  0.11485637025E+03  0.91551866522E+02 0.  0.
         23    2    1    2    0    0  0.22985019773E+02 -0.28831153407E+02  0.65668151609E+02  0.11022071533E+03  0.80478279129E+02 0.  0.
        -13    1    4    4    0    0  0.44368425243E+02 -0.30685604453E+02  0.16246167403E+02  0.56339164304E+02  0.00000000000E+00 0. -1.
         13    1    4    4    0    0 -0.21383405470E+02  0.18544510460E+01  0.49421984206E+02  0.53881551026E+02  0.00000000000E+00 0.  1.
        -13    1    3    3    0    0  0.83928182849E+01  0.41439942012E+02  0.46800798378E+02  0.63071569835E+02  0.00000000000E+00 0.  1.
         13    1    3    3    0    0 -0.32203967511E+02 -0.36272799507E+02  0.18134333366E+02  0.51784800416E+02  0.00000000000E+00 0. -1.
         -1    1    1    2    0  502  0.82612945384E+00  0.23664010901E+02 -0.10373331873E+03  0.10640145354E+03  0.00000000000E+00 0.  1.
<scales pt_clust_5="13000.00000" pt_clust_6="13000.00000" pt_clust_7="13000.00000" pt_clust_8="13000.00000" pt_clust_9="23.67843"></scales>
<clustering>
<clus scale="   23.678">  2  9  1 -1</clus>
<clus scale="   80.478">  5  6 -1 -1</clus>
<clus scale="   85.647">  2  5  1 -1</clus>
<clus scale="   91.552">  7  8 -1 -1</clus>
<clus scale="   23.678">  2  5  1 -1</clus>
</clustering>
</event>
<event>
 9    1  0.1610296E-005  0.1045317E+03  0.7546771E-02  0.1275792E+00
          3   -1    0    0  502    0 -0.00000000000E+00  0.00000000000E+00  0.94943903948E+03  0.94943903948E+03  0.00000000000E+00 0. -1.
         21   -1    0    0  501  502  0.00000000000E+00 -0.00000000000E+00 -0.14464978194E+02  0.14464978194E+02  0.00000000000E+00 0.  1.
         23    2    1    2    0    0  0.13462642314E+02  0.49097357470E+02  0.59159126774E+03  0.60138292802E+03  0.95338370004E+02 0.  0.
         23    2    1    2    0    0 -0.19823621087E+02 -0.26382009920E+02  0.29222675248E+03  0.30618824309E+03  0.85239538591E+02 0.  0.
        -11    1    3    3    0    0  0.65016358052E+01  0.77940129140E+02  0.41214848539E+03  0.41950364600E+03  0.00000000000E+00 0.  1.
         11    1    3    3    0    0  0.69610065088E+01 -0.28842771669E+02  0.17944278235E+03  0.18187928202E+03  0.00000000000E+00 0. -1.
        -11    1    4    4    0    0 -0.24466990283E+02 -0.47269153225E+02  0.27052729267E+03  0.27571366042E+03  0.00000000000E+00 0. -1.
         11    1    4    4    0    0  0.46433691965E+01  0.20887143304E+02  0.21699459806E+02  0.30474582668E+02  0.00000000000E+00 0.  1.
          3    1    1    2  501    0  0.63609787728E+01 -0.22715347550E+02  0.51156041066E+02  0.56332846571E+02  0.00000000000E+00 0. -1.
<scales pt_clust_5="13000.00000" pt_clust_6="13000.00000" pt_clust_7="13000.00000" pt_clust_8="13000.00000" pt_clust_9="23.58917"></scales>
<clustering>
<clus scale="   23.589">  2  9  1 -1</clus>
<clus scale="   85.240">  7  8 -1 -1</clus>
<clus scale="   95.338">  5  6 -1 -1</clus>
<clus scale="   95.411">  2  7  1 -1</clus>
<clus scale="   23.589">  2  5  1 -1</clus>
</clustering>
</event>
<event>
 9    1  0.1610296E-005  0.9194432E+02  0.7546771E-02  0.1298496E+00
         21   -1    0    0  501  502  0.00000000000E+00  0.00000000000E+00  0.13803869679E+03  0.13803869679E+03  0.00000000000E+00 0. -1.
          1   -1    0    0  502    0 -0.00000000000E+00 -0.00000000000E+00 -0.45363973274E+03  0.45363973274E+03  0.00000000000E+00 0. -1.
         23    2    1    2    0    0  0.14604054402E+02 -0.14469273923E+02 -0.25287246455E+03  0.26934719007E+03  0.90447704107E+02 0.  0.
         23    2    1    2    0    0 -0.93905326269E+01 -0.61873576923E+01 -0.18061875046E+03  0.20253152512E+03  0.90936352203E+02 0.  0.
        -11    1    4    4    0    0  0.12248650103E+02 -0.44435711615E+02 -0.11117185180E+03  0.12034842138E+03  0.00000000000E+00 0. -1.
         11    1    4    4    0    0 -0.21639182730E+02  0.38248353922E+02 -0.69446898656E+02  0.82183103738E+02  0.00000000000E+00 0.  1.
        -11    1    3    3    0    0  0.40673792442E+02 -0.26983533735E+02 -0.22093728979E+03  0.22626478847E+03  0.00000000000E+00 0. -1.
         11    1    3    3    0    0 -0.26069738040E+02  0.12514259812E+02 -0.31935174760E+02  0.43082401594E+02  0.00000000000E+00 0.  1.
          1    1    1    2  501    0 -0.52135217751E+01  0.20656631615E+02  0.11789017905E+03  0.11979971434E+03  0.00000000000E+00 0. -1.
<scales pt_clust_5="13000.00000" pt_clust_6="13000.00000" pt_clust_7="13000.00000" pt_clust_8="13000.00000" pt_clust_9="21.30439"></scales>
<clustering>
<clus scale="   21.304">  1  9  2 -1</clus>
<clus scale="   90.448">  7  8 -1 -1</clus>
<clus scale="   90.936">  5  6 -1 -1</clus>
<clus scale="   91.461">  2  7  1 -1</clus>
<clus scale="   21.304">  1  5  2 -1</clus>
</clustering>
</event>
<event>
 9    1  0.1610296E-005  0.1063033E+03  0.7546771E-02  0.1269240E+00
         21   -1    0    0  501  502  0.00000000000E+00  0.00000000000E+00  0.28403288960E+03  0.28403288960E+03  0.00000000000E+00 0. -1.
         -3   -1    0    0    0  501 -0.00000000000E+00 -0.00000000000E+00 -0.59055316249E+02  0.59055316249E+02  0.00000000000E+00 0.  1.
         23    2    1    2    0    0  0.39343005559E+02 -0.39243597800E+02  0.72433053763E+02  0.12878843815E+03  0.90840423103E+02 0.  0.
         23    2    1    2    0    0 -0.49057658664E+02 -0.13000610489E+01  0.92213499214E+02  0.14096495484E+03  0.94654344974E+02 0.  0.
        -11    1    3    3    0    0  0.56116648595E+02 -0.47374274871E+01  0.70692056676E+02  0.90381902756E+02  0.00000000000E+00 0.  1.
         11    1    3    3    0    0 -0.16773643035E+02 -0.34506170313E+02  0.17409970871E+01  0.38406535396E+02  0.00000000000E+00 0. -1.
        -13    1    4    4    0    0 -0.64380321920E+01  0.34773739199E+02  0.27044671824E+01  0.35467948053E+02  0.00000000000E+00 0.  1.
         13    1    4    4    0    0 -0.42619626472E+02 -0.36073800248E+02  0.89509032032E+02  0.10549700678E+03  0.00000000000E+00 0. -1.
         -3    1    1    2    0  502  0.97146531042E+01  0.40543658849E+02  0.60331020372E+02  0.73334812858E+02  0.00000000000E+00 0.  1.
<scales pt_clust_5="13000.00000" pt_clust_6="13000.00000" pt_clust_7="13000.00000" pt_clust_8="13000.00000" pt_clust_9="41.69128"></scales>
<clustering>
<clus scale="   41.691">  1  9  2 -1</clus>
<clus scale="   90.840">  5  6 -1 -1</clus>
<clus scale="   94.654">  7  8 -1 -1</clus>
<clus scale="  102.922">  2  5  1 -1</clus>
<clus scale="   41.691">  1  5  2 -1</clus>
</clustering>
</event>
<event>
 9    1  0.1610296E-005  0.1063585E+03  0.7546771E-02  0.1268006E+00
         21   -1    0    0  501  502  0.00000000000E+00  0.00000000000E+00  0.27933738639E+02  0.27933738639E+02  0.00000000000E+00 0. -1.
          3   -1    0    0  502    0 -0.00000000000E+00 -0.00000000000E+00 -0.67144574074E+03  0.67144574074E+03  0.00000000000E+00 0. -1.
         23    2    1    2    0    0 -0.26037131501E+02  0.44524941791E+02 -0.41836792806E+03  0.43165019672E+03  0.92896536216E+02 0.  0.
         23    2    1    2    0    0  0.51621197551E+02 -0.26771398534E+02 -0.20062752388E+03  0.22809603947E+03  0.91623927372E+02 0.  0.
        -13    1    4    4    0    0  0.77849184337E+02 -0.21509205092E+02 -0.16319779183E+03  0.18208970499E+03  0.00000000000E+00 0. -1.
         13    1    4    4    0    0 -0.26227986786E+02 -0.52621934420E+01 -0.37429732048E+02  0.46006334476E+02  0.00000000000E+00 0.  1.
        -13    1    3    3    0    0 -0.54802518365E+02  0.50369834520E+02 -0.25399619832E+03  0.26467811585E+03  0.00000000000E+00 0.  1.
         13    1    3    3    0    0  0.28765386864E+02 -0.58448927291E+01 -0.16437172974E+03  0.16697208087E+03  0.00000000000E+00 0. -1.
          3    1    1    2  501    0 -0.25584066049E+02 -0.17753543257E+02 -0.24516550157E+02  0.39633243186E+02  0.00000000000E+00 0. -1.
<scales pt_clust_5="13000.00000" pt_clust_6="13000.00000" pt_clust_7="13000.00000" pt_clust_8="13000.00000" pt_clust_9="31.14053"></scales>
<clustering>
<clus scale="   31.141">  1  9  2 -1</clus>
<clus scale="   91.624">  5  6 -1 -1</clus>
<clus scale="   92.897">  7  8 -1 -1</clus>
<clus scale="  105.249">  1  5  2 -1</clus>
<clus scale="   31.141">  1  5  2 -1</clus>
</clustering>
</event>
<event>
 9    1  0.1610296E-005  0.1009593E+03  0.7546771E-02  0.1284550E+00
          2   -1    0    0  502    0 -0.00000000000E+00  0.00000000000E+00  0.60954293181E+03  0.60954293181E+03  0.00000000000E+00 0. -1.
         21   -1    0    0  501  502  0.00000000000E+00 -0.00000000000E+00 -0.23978283098E+02  0.23978283098E+02  0.00000000000E+00 0.  1.
         23    2    1    2    0    0 -0.20174337031E+02  0.93928641290E+01  0.34529368136E+03  0.36032747823E+03  0.10056309169E+03 0.  0.
         23    2    1    2    0    0 -0.11229628740E+02  0.10314792238E+02  0.14451996782E+03  0.17051533244E+03  0.89201782475E+02 0.  0.
        -11    1    3    3    0    0  0.11977092508E+02 -0.39398892103E+02  0.18983407829E+03  0.19424906879E+03  0.00000000000E+00 0. -1.
         11    1    3    3    0    0 -0.32151429538E+02  0.48791756232E+02  0.15545960307E+03  0.16607840945E+03  0.00000000000E+00 0.  1.
        -11    1    4    4    0    0  0.12023292119E+02  0.35235840214E+02  0.21786047121E+02  0.43136479204E+02  0.00000000000E+00 0.  1.
         11    1    4    4    0    0 -0.23252920859E+02 -0.24921047976E+02  0.12273392070E+03  0.12737885323E+03  0.00000000000E+00 0. -1.
          2    1    1    2  501    0  0.31403965771E+02 -0.19707656367E+02  0.95750999532E+02  0.10267840424E+03  0.00000000000E+00 0. -1.
<scales pt_clust_5="13000.00000" pt_clust_6="13000.00000" pt_clust_7="13000.00000" pt_clust_8="13000.00000" pt_clust_9="37.07563"></scales>
<clustering>
<clus scale="   37.076">  2  9  1 -1</clus>
<clus scale="   89.202">  7  8 -1 -1</clus>
<clus scale="   89.648">  2  7  1 -1</clus>
<clus scale="  100.563">  5  6 -1 -1</clus>
<clus scale="   37.076">  2  5  1 -1</clus>
</clustering>
</event>
<event>
 9    1  0.1610296E-005  0.9834910E+02  0.7546771E-02  0.1287100E+00
         21   -1    0    0  501  502  0.00000000000E+00  0.00000000000E+00  0.13482641833E+03  0.13482641833E+03  0.00000000000E+00 0.  1.
          1   -1    0    0  502    0 -0.00000000000E+00 -0.00000000000E+00 -0.11201555576E+03  0.11201555576E+03  0.00000000000E+00 0. -1.
         23    2    1    2    0    0 -0.14251810958E+02  0.38646369750E+01 -0.33731822340E+02  0.10496697421E+03  0.98296390074E+02 0.  0.
         23    2    1    2    0    0 -0.17054012473E+02  0.89556231204E+01  0.30431268432E+02  0.99140707788E+02  0.92367609666E+02 0.  0.
        -11    1    3    3    0    0  0.16371910101E+02  0.39347584695E+02 -0.39040797045E+02  0.57796675472E+02  0.00000000000E+00 0.  1.
         11    1    3    3    0    0 -0.30623721060E+02 -0.35482947720E+02  0.53089747058E+01  0.47170298736E+02  0.00000000000E+00 0. -1.
        -13    1    4    4    0    0 -0.19717420489E+02  0.46849689216E+02  0.58903887231E+00  0.50833227491E+02  0.00000000000E+00 0.  1.
         13    1    4    4    0    0  0.26634080161E+01 -0.37894066096E+02  0.29842229560E+02  0.48307480297E+02  0.00000000000E+00 0. -1.
          1    1    1    2  501    0  0.31305823431E+02 -0.12820260095E+02  0.26111416484E+02  0.42734292090E+02  0.00000000000E+00 0. -1.
<scales pt_clust_5="13000.00000" pt_clust_6="13000.00000" pt_clust_7="13000.00000" pt_clust_8="13000.00000" pt_clust_9="33.82918"></scales>
<clustering>
<clus scale="   33.829">  1  9  2 -1</clus>
<clus scale="   92.368">  7  8 -1 -1</clus>
<clus scale="   92.424">  1  7  2 -1</clus>
<clus scale="   98.296">  5  6 -1 -1</clus>
<clus scale="   33.829">  1  5  2 -1</clus>
</clustering>
</event>
<event>
 9    1  0.4760293E-005  0.2804635E+03  0.7546771E-02  0.1095509E+00
         -1   -1    0    0    0  501 -0.00000000000E+00  0.00000000000E+00  0.98582020595E+03  0.98582020595E+03  0.00000000000E+00 0.  1.
         21   -1    0    0  501  502  0.00000000000E+00 -0.00000000000E+00 -0.34273282002E+03  0.34273282002E+03  0.00000000000E+00 0. -1.
         23    2    1    2    0    0 -0.20720074858E+03  0.16619781970E+03  0.89201122587E+03  0.93522539438E+03  0.91698668075E+02 0.  0.
         23    2    1    2    0    0  0.21895945337E+03 -0.13819364172E+03 -0.22570304209E+03  0.35509536021E+03  0.90056242460E+02 0.  0.
        -11    1    4    4    0    0  0.11979759030E+03 -0.71749421529E+02 -0.62725306639E+02  0.15308137125E+03  0.00000000000E+00 0.  1.
         11    1    4    4    0    0  0.99161863068E+02 -0.66444220192E+02 -0.16297773545E+03  0.20201398896E+03  0.00000000000E+00 0. -1.
        -13    1    3    3    0    0 -0.52226465419E+02  0.73387082792E+01  0.10470417265E+03  0.11723661587E+03  0.00000000000E+00 0. -1.
         13    1    3    3    0    0 -0.15497428316E+03  0.15885911142E+03  0.78730705321E+03  0.81798877851E+03  0.00000000000E+00 0.  1.
         -1    1    1    2    0  502 -0.11758704788E+02 -0.28004177979E+02 -0.23220797846E+02  0.38232271384E+02  0.00000000000E+00 0.  1.
<scales pt_clust_5="13000.00000" pt_clust_6="13000.00000" pt_clust_7="13000.00000" pt_clust_8="13000.00000" pt_clust_9="30.37270"></scales>
<clustering>
<clus scale="   30.373">  2  9  1 -1</clus>
<clus scale="   90.056">  5  6 -1 -1</clus>
<clus scale="   91.699">  7  8 -1 -1</clus>
<clus scale="  279.931">  2  5  1 -1</clus>
<clus scale="   30.373">  2  5  1 -1</clus>
</clustering>
</event>
<event>
 9    1  0.1610296E-005  0.1012186E+03  0.7546771E-02  0.1279636E+00
         21   -1    0    0  501  502  0.00000000000E+00  0.00000000000E+00  0.55252723357E+03  0.55252723357E+03  0.00000000000E+00 0. -1.
          2   -1    0    0  502    0 -0.00000000000E+00 -0.00000000000E+00 -0.29840063353E+02  0.29840063353E+02  0.00000000000E+00 0. -1.
         23    2    1    2    0    0 -0.34170104427E+02 -0.10029985291E+01  0.15732824936E+03  0.18445719275E+03  0.90020419182E+02 0.  0.
         23    2    1    2    0    0  0.35553178913E+02 -0.32028039973E+02  0.17173982501E+03  0.20148883069E+03  0.93879484029E+02 0.  0.
        -11    1    4    4    0    0  0.41627417850E+02  0.65557289415E+01  0.15198383636E+03  0.15771780500E+03  0.00000000000E+00 0.  1.
         11    1    4    4    0    0 -0.60742389367E+01 -0.38583768914E+02  0.19755988652E+02  0.43771025689E+02  0.00000000000E+00 0. -1.
        -11    1    3    3    0    0 -0.44246235989E+02 -0.26762918899E+02  0.44293948875E+02  0.68087716470E+02  0.00000000000E+00 0. -1.
         11    1    3    3    0    0  0.10076131562E+02  0.25759920370E+02  0.11303430048E+03  0.11636947628E+03  0.00000000000E+00 0.  1.
          2    1    1    2  501    0 -0.13830744863E+01  0.33031038502E+02  0.19361909585E+03  0.19642127348E+03  0.00000000000E+00 0. -1.
<scales pt_clust_5="13000.00000" pt_clust_6="13000.00000" pt_clust_7="13000.00000" pt_clust_8="13000.00000" pt_clust_9="33.05998"></scales>
<clustering>
<clus scale="   33.060">  1  9  2 -1</clus>
<clus scale="   90.020">  7  8 -1 -1</clus>
<clus scale="   93.879">  5  6 -1 -1</clus>
<clus scale="   97.650">  2  7  1 -1</clus>
<clus scale="   33.060">  1  5  2 -1</clus>
</clustering>
</event>
<event>
 9    1  0.1610296E-005  0.9849699E+02  0.7546771E-02  0.1285901E+00
         -1   -1    0    0    0  501 -0.00000000000E+00  0.00000000000E+00  0.20232569815E+03  0.20232569815E+03  0.00000000000E+00 0.  1.
         21   -1    0    0  501  502  0.00000000000E+00 -0.00000000000E+00 -0.10171304564E+03  0.10171304564E+03  0.00000000000E+00 0.  1.
         23    2    1    2    0    0  0.21987067022E+01 -0.21522371285E+02  0.90842144717E+02  0.13077067459E+03  0.91545766151E+02 0.  0.
         23    2    1    2    0    0  0.29922957395E+02  0.15338143524E+02  0.56369089626E+02  0.11633412672E+03  0.96049532789E+02 0.  0.
        -11    1    3    3    0    0  0.32898719940E+02  0.70499151507E+01  0.80974865645E+02  0.87686691941E+02  0.00000000000E+00 0.  1.
         11    1    3    3    0    0 -0.30700013238E+02 -0.28572286436E+02  0.98672790721E+01  0.43083982653E+02  0.00000000000E+00 0. -1.
        -13    1    4    4    0    0  0.50168990326E+02  0.44949728986E+00  0.71239382469E+02  0.87133112264E+02  0.00000000000E+00 0. -1.
         13    1    4    4    0    0 -0.20246032932E+02  0.14888646234E+02 -0.14870292843E+02  0.29201014459E+02  0.00000000000E+00 0.  1.
         -1    1    1    2    0  502 -0.32121664097E+02  0.61842277610E+01 -0.46598581827E+02  0.56933942474E+02  0.00000000000E+00 0.  1.
<scales pt_clust_5="13000.00000" pt_clust_6="13000.00000" pt_clust_7="13000.00000" pt_clust_8="13000.00000" pt_clust_9="32.71156"></scales>
<clustering>
<clus scale="   32.712">  2  9  1 -1</clus>
<clus scale="   91.546">  5  6 -1 -1</clus>
<clus scale="   94.110">  1  5  2 -1</clus>
<clus scale="   96.050">  7  8 -1 -1</clus>
<clus scale="   32.712">  2  5  1 -1</clus>
</clustering>
</event>
<event>
 9    1  0.1610296E-005  0.1023232E+03  0.7546771E-02  0.1278057E+00
         21   -1    0    0  501  502  0.00000000000E+00  0.00000000000E+00  0.31572448249E+03  0.31572448249E+03  0.00000000000E+00 0.  1.
         -4   -1    0    0    0  501 -0.00000000000E+00 -0.00000000000E+00 -0.72844185411E+02  0.72844185411E+02  0.00000000000E+00 0.  1.
         23    2    1    2    0    0  0.13596276388E+02 -0.30934390820E+02  0.55601995794E+02  0.11068514678E+03  0.89542305722E+02 0.  0.
         23    2    1    2    0    0 -0.72823733996E+02  0.15858702224E+02  0.41201462942E+02  0.11953703135E+03  0.83885318424E+02 0.  0.
        -11    1    3    3    0    0 -0.95855466694E+01 -0.50792302346E+02  0.54513977910E+01  0.51975555990E+02  0.00000000000E+00 0. -1.
         11    1    3    3    0    0  0.23181823058E+02  0.19857911527E+02  0.50150598003E+02  0.58709590788E+02  0.00000000000E+00 0.  1.
        -11    1    4    4    0    0 -0.30276209890E+02  0.39048347094E+02  0.49991867352E+02  0.70289466476E+02  0.00000000000E+00 0. -1.
         11    1    4    4    0    0 -0.42547524106E+02 -0.23189644871E+02 -0.87904044100E+01  0.49247564879E+02  0.00000000000E+00 0.  1.
         -4    1    1    2    0  502  0.59227457608E+02  0.15075688596E+02  0.14607683834E+03  0.15834648977E+03  0.00000000000E+00 0.  1.
<scales pt_clust_5="13000.00000" pt_clust_6="13000.00000" pt_clust_7="13000.00000" pt_clust_8="13000.00000" pt_clust_9="61.11602"></scales>
<clustering>
<clus scale="   61.116">  1  9  2 -1</clus>
<clus scale="   83.885">  7  8 -1 -1</clus>
<clus scale="   89.542">  5  6 -1 -1</clus>
<clus scale="   97.411">  1  7  2 -1</clus>
<clus scale="   61.116">  1  5  2 -1</clus>
</clustering>
</event>
<event>
 9    1  0.1610296E-005  0.1018467E+03  0.7546771E-02  0.1277127E+00
         21   -1    0    0  501  502  0.00000000000E+00  0.00000000000E+00  0.34998829710E+03  0.34998829710E+03  0.00000000000E+00 0.  1.
          2   -1    0    0  502    0 -0.00000000000E+00 -0.00000000000E+00 -0.90656484607E+02  0.90656484607E+02  0.00000000000E+00 0. -1.
         23    2    1    2    0    0 -0.40621012040E+02  0.37927945563E+01  0.78464195280E+01  0.10225920434E+03  0.93439427780E+02 0.  0.
         23    2    1    2    0    0  0.24297456219E+02 -0.32235561400E+02  0.20496855301E+02  0.10508072531E+03  0.94827949237E+02 0.  0.
        -11    1    4    4    0    0 -0.85897110946E+01 -0.32781731482E+02  0.50329478865E+02  0.60675213213E+02  0.00000000000E+00 0.  1.
         11    1    4    4    0    0  0.32887167314E+02  0.54617008251E+00 -0.29832623564E+02  0.44405512095E+02  0.00000000000E+00 0. -1.
        -13    1    3    3    0    0 -0.19113773384E+02  0.13072367149E+02 -0.41563131800E+02  0.47578535506E+02  0.00000000000E+00 0. -1.
         13    1    3    3    0    0 -0.21507238657E+02 -0.92795725924E+01  0.49409551328E+02  0.54680668838E+02  0.00000000000E+00 0.  1.
          2    1    1    2  501    0  0.16323555821E+02  0.28442766843E+02  0.23098853766E+03  0.23330485206E+03  0.00000000000E+00 0. -1.
<scales pt_clust_5="13000.00000" pt_clust_6="13000.00000" pt_clust_7="13000.00000" pt_clust_8="13000.00000" pt_clust_9="32.79405"></scales>
<clustering>
<clus scale="   32.794">  1  9  2 -1</clus>
<clus scale="   93.439">  7  8 -1 -1</clus>
<clus scale="   94.828">  5  6 -1 -1</clus>
<clus scale="  100.555">  2  7  1 -1</clus>
<clus scale="   32.794">  1  5  2 -1</clus>
</clustering>
</event>
<event>
 9    1  0.1610296E-005  0.2829701E+03  0.7546771E-02  0.1094143E+00
         -1   -1    0    0    0  501 -0.00000000000E+00  0.00000000000E+00  0.16142600534E+03  0.16142600534E+03  0.00000000000E+00 0.  1.
         21   -1    0    0  501  502  0.00000000000E+00 -0.00000000000E+00 -0.99890142980E+03  0.99890142980E+03  0.00000000000E+00 0.  1.
         23    2    1    2    0    0 -0.29620297993E+02  0.25671813754E+03 -0.51879088666E+02  0.27902931542E+03  0.91566122692E+02 0.  0.
         23    2    1    2    0    0  0.67246721996E+02 -0.28899965391E+03 -0.48150877951E+03  0.57319572445E+03  0.93057574674E+02 0.  0.
        -11    1    4    4    0    0  0.42159700581E+02 -0.27353298361E+03 -0.45950364205E+03  0.53641525942E+03  0.00000000000E+00 0.  1.
         11    1    4    4    0    0  0.25087021414E+02 -0.15466670293E+02 -0.22005137461E+02  0.36780465033E+02  0.00000000000E+00 0. -1.
        -13    1    3    3    0    0 -0.60111652883E+02  0.17388652006E+03 -0.50357682639E+02  0.19075069822E+03  0.00000000000E+00 0.  1.
         13    1    3    3    0    0  0.30491354890E+02  0.82831617487E+02 -0.15214060269E+01  0.88278617200E+02  0.00000000000E+00 0. -1.
         -1    1    1    2    0  502 -0.37626424003E+02  0.32281516362E+02 -0.30408755628E+03  0.30810239527E+03  0.00000000000E+00 0.  1.
<scales pt_clust_5="13000.00000" pt_clust_6="13000.00000" pt_clust_7="13000.00000" pt_clust_8="13000.00000" pt_clust_9="49.57665"></scales>
<clustering>
<clus scale="   49.577">  2  9  1 -1</clus>
<clus scale="   91.566">  7  8 -1 -1</clus>
<clus scale="   93.058">  5  6 -1 -1</clus>
<clus scale="  282.483">  1  7  2 -1</clus>
<clus scale="   49.577">  2  5  1 -1</clus>
</clustering>
</event>
<event>
 9    1  0.1610296E-005  0.1055209E+03  0.7546771E-02  0.1269957E+00
         21   -1    0    0  501  502  0.00000000000E+00  0.00000000000E+00  0.31738470976E+02  0.31738470976E+02  0.00000000000E+00 0. -1.
          1   -1    0    0  502    0 -0.00000000000E+00 -0.00000000000E+00 -0.45478128170E+03  0.45478128170E+03  0.00000000000E+00 0. -1.
         23    2    1    2    0    0  0.16227280264E+02 -0.42016424064E+02 -0.22296721573E+03  0.24417960183E+03  0.88772710583E+02 0.  0.
         23    2    1    2    0    0 -0.23929612132E+02  0.63870975657E+02 -0.16560017463E+03  0.20080098919E+03  0.90804689056E+02 0.  0.
        -11    1    3    3    0    0 -0.34490821619E+02 -0.30654342574E+02 -0.84492252475E+02  0.96271731172E+02  0.00000000000E+00 0.  1.
         11    1    3    3    0    0  0.50718101883E+02 -0.11362081490E+02 -0.13847496326E+03  0.14790787066E+03  0.00000000000E+00 0. -1.
        -11    1    4    4    0    0 -0.55590417611E+02  0.34710330211E+02 -0.12732218225E+03  0.14319930044E+03  0.00000000000E+00 0. -1.
         11    1    4    4    0    0  0.31660805479E+02  0.29160645446E+02 -0.38277992379E+02  0.57601688751E+02  0.00000000000E+00 0.  1.
          1    1    1    2  501    0  0.77023318685E+01 -0.21854551594E+02 -0.34475420365E+02  0.41539161654E+02  0.00000000000E+00 0. -1.
<scales pt_clust_5="13000.00000" pt_clust_6="13000.00000" pt_clust_7="13000.00000" pt_clust_8="13000.00000" pt_clust_9="23.17212"></scales>
<clustering>
<clus scale="   23.172">  1  9  2 -1</clus>
<clus scale="   88.773">  5  6 -1 -1</clus>
<clus scale="   90.805">  7  8 -1 -1</clus>
<clus scale="  103.778">  2  5  1 -1</clus>
<clus scale="   23.172">  1  5  2 -1</clus>
</clustering>
</event>
<event>
 9    1  0.1610296E-005  0.1003813E+03  0.7546771E-02  0.1280240E+00
         21   -1    0    0  501  502  0.00000000000E+00  0.00000000000E+00  0.99806922811E+02  0.99806922811E+02  0.00000000000E+00 0. -1.
         -1   -1    0    0    0  501 -0.00000000000E+00 -0.00000000000E+00 -0.23308315550E+03  0.23308315550E+03  0.00000000000E+00 0.  1.
         23    2    1    2    0    0 -0.40843247242E+02  0.47362734960E+02 -0.10134658880E+03  0.14833689773E+03  0.88438140303E+02 0.  0.
         23    2    1    2    0    0  0.39016121492E+02  0.13415085710E+02 -0.61886723896E+02  0.11676890130E+03  0.90015484535E+02 0.  0.
        -11    1    3    3    0    0  0.25573771099E+02  0.20612523481E+02 -0.14844122760E+02  0.36044997892E+02  0.00000000000E+00 0.  1.
         11    1    3    3    0    0 -0.66417018341E+02  0.26750211479E+02 -0.86502466039E+02  0.11229189984E+03  0.00000000000E+00 0. -1.
        -13    1    4    4    0    0  0.28202189156E+02 -0.15571450359E+02  0.13766945123E+02  0.35033731138E+02  0.00000000000E+00 0. -1.
         13    1    4    4    0    0  0.10813932337E+02  0.28986536069E+02 -0.75653669019E+02  0.81735170165E+02  0.00000000000E+00 0.  1.
         -1    1    1    2    0  502  0.18271257499E+01 -0.60777820671E+02  0.29957080007E+02  0.67784279273E+02  0.00000000000E+00 0.  1.
<scales pt_clust_5="13000.00000" pt_clust_6="13000.00000" pt_clust_7="13000.00000" pt_clust_8="13000.00000" pt_clust_9="60.80528"></scales>
<clustering>
<clus scale="   60.805">  1  9  2 -1</clus>
<clus scale="   88.438">  5  6 -1 -1</clus>
<clus scale="   90.015">  7  8 -1 -1</clus>
<clus scale="   98.969">  2  5  1 -1</clus>
<clus scale="   60.805">  1  5  2 -1</clus>
</clustering>
</event>
<event>
 9    1  0.1610296E-005  0.9980578E+02  0.7546771E-02  0.1281164E+00
         21   -1    0    0  501  502  0.00000000000E+00  0.00000000000E+00  0.63849131961E+02  0.63849131961E+02  0.00000000000E+00 0. -1.
          2   -1    0    0  502    0 -0.00000000000E+00 -0.00000000000E+00 -0.52860096394E+03  0.52860096394E+03  0.00000000000E+00 0. -1.
         23    2    1    2    0    0  0.29046946187E+02  0.37391143891E+02 -0.39944410558E+03  0.41224549340E+03  0.90271427501E+02 0.  0.
         23    2    1    2    0    0 -0.36055149614E+02  0.13390182207E+02 -0.79552137115E+02  0.12699970392E+03  0.91220126523E+02 0.  0.
        -11    1    3    3    0    0 -0.32371680889E+02  0.15643751034E+02 -0.16806627333E+03  0.17186891778E+03  0.00000000000E+00 0.  1.
         11    1    3    3    0    0  0.61418627075E+02  0.21747392857E+02 -0.23137783226E+03  0.24037657562E+03  0.00000000000E+00 0. -1.
        -13    1    4    4    0    0  0.15669968276E+02  0.31007773004E+02 -0.59293179463E+02  0.68721983551E+02  0.00000000000E+00 0. -1.
         13    1    4    4    0    0 -0.51725117890E+02 -0.17617590797E+02 -0.20258957652E+02  0.58277720369E+02  0.00000000000E+00 0.  1.
          2    1    1    2  501    0  0.70082034273E+01 -0.50781326098E+02  0.14244410722E+02  0.53204898575E+02  0.00000000000E+00 0. -1.
<scales pt_clust_5="13000.00000" pt_clust_6="13000.00000" pt_clust_7="13000.00000" pt_clust_8="13000.00000" pt_clust_9="51.26264"></scales>
<clustering>
<clus scale="   51.263">  1  9  2 -1</clus>
<clus scale="   90.271">  5  6 -1 -1</clus>
<clus scale="   91.220">  7  8 -1 -1</clus>
<clus scale="   98.939">  2  5  1 -1</clus>
<clus scale="   51.263">  1  5  2 -1</clus>
</clustering>
</event>
<event>
 9    1  0.1610296E-005  0.1043041E+03  0.7546771E-02  0.1273267E+00
         21   -1    0    0  501  502  0.00000000000E+00  0.00000000000E+00  0.53330195725E+02  0.53330195725E+02  0.00000000000E+00 0. -1.
          1   -1    0    0  502    0 -0.00000000000E+00 -0.00000000000E+00 -0.55575758891E+03  0.55575758891E+03  0.00000000000E+00 0. -1.
         23    2    1    2    0    0  0.47221564789E+02  0.82542529788E+01 -0.44270322876E+03  0.45561196408E+03  0.96426677768E+02 0.  0.
         23    2    1    2    0    0 -0.93354006520E+01 -0.11826010903E+01 -0.66401305553E+02  0.11436119532E+03  0.92632615020E+02 0.  0.
        -11    1    4    4    0    0  0.25359960524E+02  0.10508850223E+02 -0.72245862130E+02  0.77285368121E+02  0.00000000000E+00 0. -1.
         11    1    4    4    0    0 -0.34695361176E+02 -0.11691451313E+02  0.58445565771E+01  0.37075827200E+02  0.00000000000E+00 0.  1.
        -11    1    3    3    0    0  0.12008404706E+02  0.48053561418E+02 -0.28293635572E+03  0.28723914764E+03  0.00000000000E+00 0.  1.
         11    1    3    3    0    0  0.35213160083E+02 -0.39799308439E+02 -0.15976687304E+03  0.16837281644E+03  0.00000000000E+00 0. -1.
          1    1    1    2  501    0 -0.37886164136E+02 -0.70716518885E+01  0.66771411290E+01  0.39114625232E+02  0.00000000000E+00 0. -1.
<scales pt_clust_5="13000.00000" pt_clust_6="13000.00000" pt_clust_7="13000.00000" pt_clust_8="13000.00000" pt_clust_9="38.54049"></scales>
<clustering>
<clus scale="   38.540">  1  9  2 -1</clus>
<clus scale="   92.633">  5  6 -1 -1</clus>
<clus scale="   96.427">  7  8 -1 -1</clus>
<clus scale="  100.807">  1  5  2 -1</clus>
<clus scale="   38.540">  1  5  2 -1</clus>
</clustering>
</event>
<event>
 9    1  0.1610296E-005  0.1042150E+03  0.7546771E-02  0.1274038E+00
         -3   -1    0    0    0  501 -0.00000000000E+00  0.00000000000E+00  0.18693854664E+03  0.18693854664E+03  0.00000000000E+00 0.  1.
         21   -1    0    0  501  502  0.00000000000E+00 -0.00000000000E+00 -0.19610061940E+03  0.19610061940E+03  0.00000000000E+00 0.  1.
         23    2    1    2    0    0 -0.38150586677E+02 -0.35417664177E+02  0.14581960714E+03  0.17658446691E+03  0.84904875761E+02 0.  0.
         23    2    1    2    0    0  0.55320182916E+02  0.15595309874E+02 -0.14007200884E+03  0.17628817702E+03  0.90298490407E+02 0.  0.
        -11    1    4    4    0    0 -0.10651518570E+02 -0.26355008838E+02 -0.30600346536E+02  0.41766284810E+02  0.00000000000E+00 0. -1.
         11    1    4    4    0    0  0.65971701486E+02  0.41950318712E+02 -0.10947166230E+03  0.13452189221E+03  0.00000000000E+00 0.  1.
        -13    1    3    3    0    0 -0.60063958201E+02 -0.39130893505E+02  0.81541129673E+02  0.10857191962E+03  0.00000000000E+00 0.  1.
         13    1    3    3    0    0  0.21913371524E+02  0.37132293285E+01  0.64278477467E+02  0.68012547292E+02  0.00000000000E+00 0. -1.
         -3    1    1    2    0  502 -0.17169596239E+02  0.19822354303E+02 -0.14909671061E+02  0.30166522111E+02  0.00000000000E+00 0.  1.
<scales pt_clust_5="13000.00000" pt_clust_6="13000.00000" pt_clust_7="13000.00000" pt_clust_8="13000.00000" pt_clust_9="26.22443"></scales>
<clustering>
<clus scale="   26.224">  2  9  1 -1</clus>
<clus scale="   84.905">  7  8 -1 -1</clus>
<clus scale="   90.298">  5  6 -1 -1</clus>
<clus scale="   99.578">  1  7  2 -1</clus>
<clus scale="   26.224">  2  5  1 -1</clus>
</clustering>
</event>
<event>
 9    1  0.1610296E-005  0.9401391E+02  0.7546771E-02  0.1296911E+00
         -1   -1    0    0    0  501 -0.00000000000E+00  0.00000000000E+00  0.17564208992E+03  0.17564208992E+03  0.00000000000E+00 0.  1.
         21   -1    0    0  501  502  0.00000000000E+00 -0.00000000000E+00 -0.81588189011E+02  0.81588189011E+02  0.00000000000E+00 0. -1.
         23    2    1    2    0    0  0.21061452840E+02  0.12476205545E+02  0.10967798865E+03  0.14143262428E+03  0.85875989173E+02 0.  0.
         23    2    1    2    0    0 -0.15497558607E+01 -0.70608083443E+01 -0.36873328830E+01  0.92291932750E+02  0.91934474868E+02 0.  0.
        -11    1    3    3    0    0 -0.11916022332E+02  0.40364151472E+02  0.33210034973E+02  0.53611218371E+02  0.00000000000E+00 0. -1.
         11    1    3    3    0    0  0.32977475173E+02 -0.27887945927E+02  0.76467953672E+02  0.87821405908E+02  0.00000000000E+00 0.  1.
        -13    1    4    4    0    0  0.30529898247E+02 -0.94673575463E+01 -0.34999677255E+02  0.47399187270E+02  0.00000000000E+00 0.  1.
         13    1    4    4    0    0 -0.32079654108E+02  0.24065492020E+01  0.31312344372E+02  0.44892745481E+02  0.00000000000E+00 0. -1.
         -1    1    1    2    0  502 -0.19511696980E+02 -0.54153972003E+01 -0.11936754851E+02  0.23505721904E+02  0.00000000000E+00 0.  1.
<scales pt_clust_5="13000.00000" pt_clust_6="13000.00000" pt_clust_7="13000.00000" pt_clust_8="13000.00000" pt_clust_9="20.24927"></scales>
<clustering>
<clus scale="   20.249">  2  9  1 -1</clus>
<clus scale="   85.876">  5  6 -1 -1</clus>
<clus scale="   88.099">  1  5  2 -1</clus>
<clus scale="   91.934">  7  8 -1 -1</clus>
<clus scale="   20.249">  2  5  1 -1</clus>
</clustering>
</event>
<event>
 9    1  0.1610296E-005  0.1131326E+03  0.7546771E-02  0.1255967E+00
         21   -1    0    0  501  502  0.00000000000E+00  0.00000000000E+00  0.10550019885E+03  0.10550019885E+03  0.00000000000E+00 0. -1.
          1   -1    0    0  502    0 -0.00000000000E+00 -0.00000000000E+00 -0.59124814547E+03  0.59124814547E+03  0.00000000000E+00 0. -1.
         23    2    1    2    0    0 -0.17273052906E+02  0.66730563176E+02 -0.43593122076E+03  0.45087719058E+03  0.92211091166E+02 0.  0.
         23    2    1    2    0    0  0.32012297791E+02 -0.49513515370E+02 -0.12664909566E+03  0.16576569121E+03  0.89229454430E+02 0.  0.
        -13    1    4    4    0    0 -0.26046711534E+02 -0.36319440170E+01 -0.11084858029E+02  0.28539381153E+02  0.00000000000E+00 0.  1.
         13    1    4    4    0    0  0.58059009325E+02 -0.45881571353E+02 -0.11556423763E+03  0.13722631006E+03  0.00000000000E+00 0. -1.
        -13    1    3    3    0    0 -0.47373387115E+02  0.70324979923E+02 -0.31740520368E+03  0.32853600097E+03  0.00000000000E+00 0.  1.
         13    1    3    3    0    0  0.30100334209E+02 -0.35944167475E+01 -0.11852601708E+03  0.12234118962E+03  0.00000000000E+00 0. -1.
          1    1    1    2  501    0 -0.14739244886E+02 -0.17217047806E+02  0.76832369811E+02  0.80105462521E+02  0.00000000000E+00 0. -1.
<scales pt_clust_5="13000.00000" pt_clust_6="13000.00000" pt_clust_7="13000.00000" pt_clust_8="13000.00000" pt_clust_9="22.66433"></scales>
<clustering>
<clus scale="   22.664">  1  9  2 -1</clus>
<clus scale="   89.229">  5  6 -1 -1</clus>
<clus scale="   92.211">  7  8 -1 -1</clus>
<clus scale="  110.716">  1  5  2 -1</clus>
<clus scale="   22.664">  1  5  2 -1</clus>
</clustering>
</event>
<event>
 9    1  0.1610296E-005  0.1245737E+03  0.7546771E-02  0.1235894E+00
         21   -1    0    0  501  502  0.00000000000E+00  0.00000000000E+00  0.12314602665E+03  0.12314602665E+03  0.00000000000E+00 0. -1.
         -1   -1    0    0    0  501 -0.00000000000E+00 -0.00000000000E+00 -0.37596584834E+03  0.37596584834E+03  0.00000000000E+00 0.  1.
         23    2    1    2    0    0  0.67840244572E+02 -0.28011162667E+02 -0.10541409869E+03  0.15749700810E+03  0.91138638024E+02 0.  0.
         23    2    1    2    0    0 -0.99295810731E+02 -0.78857186788E+02 -0.16709611062E+03  0.22848658518E+03  0.90591917322E+02 0.  0.
        -11    1    3    3    0    0  0.31429223341E+02 -0.28027083485E+02  0.38879230151E+01  0.42289826600E+02  0.00000000000E+00 0. -1.
         11    1    3    3    0    0  0.36411021231E+02  0.15920818324E-01 -0.10930202171E+03  0.11520718150E+03  0.00000000000E+00 0.  1.
        -11    1    4    4    0    0 -0.24404297542E+02 -0.93245848219E+01 -0.10654507090E+03  0.10970127508E+03  0.00000000000E+00 0.  1.
         11    1    4    4    0    0 -0.74891513189E+02 -0.69532601966E+02 -0.60551039723E+02  0.11878531010E+03  0.00000000000E+00 0. -1.
         -1    1    1    2    0  502  0.31455566159E+02  0.10686834946E+03  0.19690387631E+02  0.11312828171E+03  0.00000000000E+00 0.  1.
<scales pt_clust_5="13000.00000" pt_clust_6="13000.00000" pt_clust_7="13000.00000" pt_clust_8="13000.00000" pt_clust_9="111.40151"></scales>
<clustering>
<clus scale="   90.592">  7  8 -1 -1</clus>
<clus scale="   91.139">  5  6 -1 -1</clus>
<clus scale="  111.402">  1  9  2 -1</clus>
<clus scale="  124.174">  1  7  2 -1</clus>
<clus scale="  111.402">  1  5  2 -1</clus>
</clustering>
</event>
<event>
 9    1  0.1610296E-005  0.1980747E+03  0.7546771E-02  0.1151392E+00
         21   -1    0    0  501  502  0.00000000000E+00  0.00000000000E+00  0.59103138816E+03  0.59103138816E+03  0.00000000000E+00 0.  1.
         -2   -1    0    0    0  501 -0.00000000000E+00 -0.00000000000E+00 -0.11604572654E+03  0.11604572654E+03  0.00000000000E+00 0.  1.
         23    2    1    2    0    0 -0.46386211902E+02  0.18735751826E+03  0.45727196704E+02  0.21771522479E+03  0.89746433243E+02 0.  0.
         23    2    1    2    0    0  0.14946970841E+02 -0.12898289648E+03  0.36179722795E+03  0.39477309121E+03  0.89936421249E+02 0.  0.
        -13    1    3    3    0    0 -0.30308841266E+02  0.71498819389E+02  0.62324924488E+02  0.99574611450E+02  0.00000000000E+00 0.  1.
         13    1    3    3    0    0 -0.16077370636E+02  0.11585869888E+03 -0.16597727784E+02  0.11814061334E+03  0.00000000000E+00 0. -1.
        -13    1    4    4    0    0 -0.14837450212E+02 -0.10022378669E+03  0.32114958948E+03  0.33675215838E+03  0.00000000000E+00 0.  1.
         13    1    4    4    0    0  0.29784421053E+02 -0.28759109790E+02  0.40647638465E+02  0.58020932827E+02  0.00000000000E+00 0. -1.
         -2    1    1    2    0  502  0.31439241061E+02 -0.58374621784E+02  0.67461236966E+02  0.94588798702E+02  0.00000000000E+00 0.  1.
<scales pt_clust_5="13000.00000" pt_clust_6="13000.00000" pt_clust_7="13000.00000" pt_clust_8="13000.00000" pt_clust_9="66.30251"></scales>
<clustering>
<clus scale="   66.303">  1  9  2 -1</clus>
<clus scale="   89.746">  5  6 -1 -1</clus>
<clus scale="   89.936">  7  8 -1 -1</clus>
<clus scale="  197.988">  2  5  1 -1</clus>
<clus scale="   66.303">  1  5  2 -1</clus>
</clustering>
</event>
<event>
 9    1  0.1610296E-005  0.1038069E+03  0.7546771E-02  0.1272538E+00
          1   -1    0    0  502    0 -0.00000000000E+00  0.00000000000E+00  0.38987554207E+03  0.38987554207E+03  0.00000000000E+00 0. -1.
         21   -1    0    0  501  502  0.00000000000E+00 -0.00000000000E+00 -0.86156550635E+02  0.86156550635E+02  0.00000000000E+00 0. -1.
         23    2    1    2    0    0  0.54815832783E+01 -0.56871660376E+02  0.25237087979E+03  0.27420382803E+03  0.90731718997E+02 0.  0.
         23    2    1    2    0    0  0.45108474703E+01  0.38819561240E+02  0.10514986530E+03  0.14420573738E+03  0.90617296588E+02 0.  0.
        -11    1    3    3    0    0  0.16540059004E+02 -0.79533959581E+02  0.20562750862E+03  0.22109250683E+03  0.00000000000E+00 0. -1.
         11    1    3    3    0    0 -0.11058475726E+02  0.22662299205E+02  0.46743371176E+02  0.53111321199E+02  0.00000000000E+00 0.  1.
        -11    1    4    4    0    0  0.42249704610E+02  0.24335666948E+02  0.25822675643E+02  0.55173116668E+02  0.00000000000E+00 0.  1.
         11    1    4    4    0    0 -0.37738857140E+02  0.14483894292E+02  0.79327189654E+02  0.89032620710E+02  0.00000000000E+00 0. -1.
          1    1    1    2  501    0 -0.99924307486E+01  0.18052099136E+02 -0.53801753654E+02  0.57622527294E+02  0.00000000000E+00 0. -1.
<scales pt_clust_5="13000.00000" pt_clust_6="13000.00000" pt_clust_7="13000.00000" pt_clust_8="13000.00000" pt_clust_9="20.63315"></scales>
<clustering>
<clus scale="   20.633">  2  9  1 -1</clus>
<clus scale="   90.617">  7  8 -1 -1</clus>
<clus scale="   90.732">  5  6 -1 -1</clus>
<clus scale="  103.707">  2  7  1 -1</clus>
<clus scale="   20.633">  2  5  1 -1</clus>
</clustering>
</event>
<event>
 9    1  0.1610296E-005  0.1845977E+03  0.7546771E-02  0.1178161E+00
          1   -1    0    0  502    0 -0.00000000000E+00  0.00000000000E+00  0.36475343876E+03  0.36475343876E+03  0.00000000000E+00 0. -1.
         21   -1    0    0  501  502  0.00000000000E+00 -0.00000000000E+00 -0.25270439124E+03  0.25270439124E+03  0.00000000000E+00 0. -1.
         23    2    1    2    0    0  0.26300879229E+02 -0.89474921981E+02  0.20603394405E+03  0.24460510625E+03  0.93188915609E+02 0.  0.
         23    2    1    2    0    0  0.94729011747E+02 -0.78241488835E+02 -0.24581447101E+02  0.15469253545E+03  0.90720542006E+02 0.  0.
        -11    1    3    3    0    0 -0.99331389361E+01 -0.94223601382E+02  0.13829193482E+03  0.16763476234E+03  0.00000000000E+00 0.  1.
         11    1    3    3    0    0  0.36234018165E+02  0.47486794009E+01  0.67742009229E+02  0.76970343918E+02  0.00000000000E+00 0. -1.
        -11    1    4    4    0    0  0.42619192772E+02  0.14710390122E+02 -0.15777474299E+02  0.47767351459E+02  0.00000000000E+00 0.  1.
         11    1    4    4    0    0  0.52109818975E+02 -0.92951878958E+02 -0.88039728020E+01  0.10692518400E+03  0.00000000000E+00 0. -1.
          1    1    1    2  501    0 -0.12102989098E+03  0.16771641082E+03 -0.69403449429E+02  0.21816018830E+03  0.00000000000E+00 0. -1.
<scales pt_clust_5="13000.00000" pt_clust_6="13000.00000" pt_clust_7="13000.00000" pt_clust_8="13000.00000" pt_clust_9="160.76728"></scales>
<clustering>
<clus scale="   90.721">  7  8 -1 -1</clus>
<clus scale="   93.189">  5  6 -1 -1</clus>
<clus scale="  131.840">  1  5  2 -1</clus>
<clus scale="  160.767">  2  9  1 -1</clus>
<clus scale="  160.767">  2  5  1 -1</clus>
</clustering>
</event>
<event>
 9    1  0.1610296E-005  0.1468023E+03  0.7546771E-02  0.1225993E+00
          1   -1    0    0  502    0 -0.00000000000E+00  0.00000000000E+00  0.24648392535E+03  0.24648392535E+03  0.00000000000E+00 0. -1.
         21   -1    0    0  501  502  0.00000000000E+00 -0.00000000000E+00 -0.14081091000E+03  0.14081091000E+03  0.00000000000E+00 0.  1.
         23    2    1    2    0    0 -0.20046431336E+02  0.79295537585E+01  0.77273599071E+02  0.12096013751E+03  0.90528495631E+02 0.  0.
         23    2    1    2    0    0  0.92128781636E+02  0.74943875225E+02 -0.76974443179E+01  0.15071958723E+03  0.92481600795E+02 0.  0.
        -11    1    4    4    0    0  0.81428156512E+02  0.92685768391E+02 -0.22297829587E+02  0.12537300164E+03  0.00000000000E+00 0.  1.
         11    1    4    4    0    0  0.10700625124E+02 -0.17741893165E+02  0.14600385270E+02  0.25346585592E+02  0.00000000000E+00 0. -1.
        -11    1    3    3    0    0  0.30378481602E+02 -0.11626642636E+02  0.51826346024E+02  0.61188243198E+02  0.00000000000E+00 0.  1.
         11    1    3    3    0    0 -0.50424912938E+02  0.19556196395E+02  0.25447253047E+02  0.59771894314E+02  0.00000000000E+00 0. -1.
          1    1    1    2  501    0 -0.72082350300E+02 -0.82873428984E+02  0.36096860598E+02  0.11561511061E+03  0.00000000000E+00 0. -1.
<scales pt_clust_5="13000.00000" pt_clust_6="13000.00000" pt_clust_7="13000.00000" pt_clust_8="13000.00000" pt_clust_9="114.00918"></scales>
<clustering>
<clus scale="   90.528">  7  8 -1 -1</clus>
<clus scale="   92.482">  5  6 -1 -1</clus>
<clus scale="   93.060">  1  7  2 -1</clus>
<clus scale="  114.009">  2  9  1 -1</clus>
<clus scale="  114.009">  2  5  1 -1</clus>
</clustering>
</event>
<event>
 9    1  0.1610296E-005  0.1078915E+03  0.7546771E-02  0.1267353E+00
          2   -1    0    0  502    0 -0.00000000000E+00  0.00000000000E+00  0.36668485738E+03  0.36668485738E+03  0.00000000000E+00 0. -1.
         21   -1    0    0  501  502  0.00000000000E+00 -0.00000000000E+00 -0.10577415839E+03  0.10577415839E+03  0.00000000000E+00 0. -1.
         23    2    1    2    0    0 -0.27025525038E+01 -0.50440123077E+02  0.22353697696E+03  0.24942913652E+03  0.98461181539E+02 0.  0.
         23    2    1    2    0    0  0.33785867894E+02  0.27460217744E+02  0.10426919199E+03  0.14576894187E+03  0.92092190699E+02 0.  0.
        -11    1    4    4    0    0  0.58798784013E+02 -0.70710738999E+01  0.61266940519E+02  0.85211120683E+02  0.00000000000E+00 0. -1.
         11    1    4    4    0    0 -0.25012916118E+02  0.34531291644E+02  0.43002251468E+02  0.60557821185E+02  0.00000000000E+00 0.  1.
        -11    1    3    3    0    0 -0.27204970705E+02 -0.63741994086E+02  0.93201418559E+02  0.11614498122E+03  0.00000000000E+00 0.  1.
         11    1    3    3    0    0  0.24502418201E+02  0.13301871009E+02  0.13033555840E+03  0.13328415530E+03  0.00000000000E+00 0. -1.
          2    1    1    2  501    0 -0.31083315391E+02  0.22979905333E+02 -0.66895469954E+02  0.77260937382E+02  0.00000000000E+00 0. -1.
<scales pt_clust_5="13000.00000" pt_clust_6="13000.00000" pt_clust_7="13000.00000" pt_clust_8="13000.00000" pt_clust_9="38.65551"></scales>
<clustering>
<clus scale="   38.656">  2  9  1 -1</clus>
<clus scale="   92.092">  5  6 -1 -1</clus>
<clus scale="   98.461">  7  8 -1 -1</clus>
<clus scale="  102.112">  2  5  1 -1</clus>
<clus scale="   38.656">  2  5  1 -1</clus>
</clustering>
</event>
<event>
 9    1  0.1610296E-005  0.1386842E+03  0.7546771E-02  0.1233670E+00
         21   -1    0    0  501  502  0.00000000000E+00  0.00000000000E+00  0.57844531665E+02  0.57844531665E+02  0.00000000000E+00 0. -1.
          2   -1    0    0  502    0 -0.00000000000E+00 -0.00000000000E+00 -0.62754760627E+03  0.62754760627E+03  0.00000000000E+00 0. -1.
         23    2    1    2    0    0 -0.18570414713E+02 -0.11125139444E+02 -0.23244080899E+03  0.25080053949E+03  0.91670889034E+02 0.  0.
         23    2    1    2    0    0  0.11917334469E+03  0.18310610637E+01 -0.28231908712E+03  0.31958689300E+03  0.90697719675E+02 0.  0.
        -13    1    4    4    0    0  0.67160593784E+02  0.52329510977E+00 -0.56245594921E+02  0.87603573804E+02  0.00000000000E+00 0.  1.
         13    1    4    4    0    0  0.52012750902E+02  0.13077659539E+01 -0.22607349220E+03  0.23198331919E+03  0.00000000000E+00 0. -1.
        -13    1    3    3    0    0 -0.29009783624E+02 -0.45839162343E+02 -0.17169374066E+03  0.18005981488E+03  0.00000000000E+00 0.  1.
         13    1    3    3    0    0  0.10439368911E+02  0.34714022900E+02 -0.60747068323E+02  0.70740724614E+02  0.00000000000E+00 0. -1.
          2    1    1    2  501    0 -0.10060292997E+03  0.92940783799E+01 -0.54943178501E+02  0.11500470545E+03  0.00000000000E+00 0. -1.
<scales pt_clust_5="13000.00000" pt_clust_6="13000.00000" pt_clust_7="13000.00000" pt_clust_8="13000.00000" pt_clust_9="104.91529"></scales>
<clustering>
<clus scale="   90.698">  5  6 -1 -1</clus>
<clus scale="   91.671">  7  8 -1 -1</clus>
<clus scale="   94.192">  2  7  1 -1</clus>
<clus scale="  104.915">  1  9  2 -1</clus>
<clus scale="  104.915">  1  5  2 -1</clus>
</clustering>
</event>
<event>
 9    1  0.1610296E-005  0.1047517E+03  0.7546771E-02  0.1270826E+00
          1   -1    0    0  502    0 -0.00000000000E+00  0.00000000000E+00  0.64951103913E+03  0.64951103913E+03  0.00000000000E+00 0. -1.
         21   -1    0    0  501  502  0.00000000000E+00 -0.00000000000E+00 -0.48650612210E+02  0.48650612210E+02  0.00000000000E+00 0. -1.
         23    2    1    2    0    0 -0.99053657088E+01  0.54098390035E+02  0.49733505825E+03  0.50855798227E+03  0.90908245416E+02 0.  0.
         23    2    1    2    0    0 -0.17421485735E+02 -0.44534567999E+02  0.11889000248E+03  0.15682722213E+03  0.90405248734E+02 0.  0.
        -13    1    4    4    0    0 -0.32990452322E+02 -0.66342625953E+02  0.97970585168E+02  0.12283301478E+03  0.00000000000E+00 0.  1.
         13    1    4    4    0    0  0.15568966587E+02  0.21808057954E+02  0.20919417312E+02  0.33994207344E+02  0.00000000000E+00 0. -1.
        -13    1    3    3    0    0  0.29968304107E+02  0.58727736187E+02  0.32313428156E+03  0.32979207111E+03  0.00000000000E+00 0.  1.
         13    1    3    3    0    0 -0.39873669816E+02 -0.46293461526E+01  0.17420077669E+03  0.17876591115E+03  0.00000000000E+00 0. -1.
          1    1    1    2  501    0  0.27326851444E+02 -0.95638220358E+01 -0.15364633818E+02  0.32776446942E+02  0.00000000000E+00 0. -1.
<scales pt_clust_5="13000.00000" pt_clust_6="13000.00000" pt_clust_7="13000.00000" pt_clust_8="13000.00000" pt_clust_9="28.95209"></scales>
<clustering>
<clus scale="   28.952">  2  9  1 -1</clus>
<clus scale="   90.405">  5  6 -1 -1</clus>
<clus scale="   90.908">  7  8 -1 -1</clus>
<clus scale="  104.316">  2  5  1 -1</clus>
<clus scale="   28.952">  2  5  1 -1</clus>
</clustering>
</event>
<event>
 9    1  0.1610296E-005  0.1147754E+03  0.7546771E-02  0.1253218E+00
          1   -1    0    0  502    0 -0.00000000000E+00  0.00000000000E+00  0.35958394724E+03  0.35958394724E+03  0.00000000000E+00 0. -1.
         21   -1    0    0  501  502  0.00000000000E+00 -0.00000000000E+00 -0.45708599837E+02  0.45708599837E+02  0.00000000000E+00 0.  1.
         23    2    1    2    0    0  0.44767433326E+02 -0.56922983521E+02  0.16683228427E+03  0.20290663357E+03  0.89965225123E+02 0.  0.
         23    2    1    2    0    0 -0.17978313590E+02  0.59371858015E+02  0.11764931455E+03  0.16254063300E+03  0.93433713832E+02 0.  0.
        -11    1    3    3    0    0 -0.61934626456E+01 -0.39138461522E+02  0.13398657476E+03  0.13972322772E+03  0.00000000000E+00 0. -1.
         11    1    3    3    0    0  0.50960895972E+02 -0.17784521999E+02  0.32845709516E+02  0.63183405849E+02  0.00000000000E+00 0.  1.
        -13    1    4    4    0    0  0.23951319747E+02  0.14048770738E+02 -0.20624678102E+01  0.27843984096E+02  0.00000000000E+00 0.  1.
         13    1    4    4    0    0 -0.41929633336E+02  0.45323087278E+02  0.11971178236E+03  0.13469664891E+03  0.00000000000E+00 0. -1.
          1    1    1    2  501    0 -0.26789119736E+02 -0.24488744942E+01  0.29393748585E+02  0.39845280504E+02  0.00000000000E+00 0. -1.
<scales pt_clust_5="13000.00000" pt_clust_6="13000.00000" pt_clust_7="13000.00000" pt_clust_8="13000.00000" pt_clust_9="26.90082"></scales>
<clustering>
<clus scale="   26.901">  2  9  1 -1</clus>
<clus scale="   89.965">  5  6 -1 -1</clus>
<clus scale="   93.434">  7  8 -1 -1</clus>
<clus scale="  111.970">  1  5  2 -1</clus>
<clus scale="   26.901">  2  5  1 -1</clus>
</clustering>
</event>
<event>
 9    1  0.1610296E-005  0.1207635E+03  0.7546771E-02  0.1242237E+00
          1   -1    0    0  502    0 -0.00000000000E+00  0.00000000000E+00  0.87932319816E+03  0.87932319816E+03  0.00000000000E+00 0. -1.
         21   -1    0    0  501  502  0.00000000000E+00 -0.00000000000E+00 -0.34125475229E+02  0.34125475229E+02  0.00000000000E+00 0. -1.
         23    2    1    2    0    0 -0.77818828953E+02 -0.38672502357E+02  0.53574616916E+03  0.55037918086E+03  0.91334289167E+02 0.  0.
         23    2    1    2    0    0  0.36639552040E+02  0.60110784657E+02  0.29050952374E+03  0.31292835875E+03  0.92588396268E+02 0.  0.
        -11    1    3    3    0    0 -0.72572493515E+02 -0.58903651582E+02  0.50242792420E+03  0.51104816407E+03  0.00000000000E+00 0.  1.
         11    1    3    3    0    0 -0.52463354384E+01  0.20231149225E+02  0.33318244957E+02  0.39331016787E+02  0.00000000000E+00 0. -1.
        -13    1    4    4    0    0  0.23429194863E+02 -0.69998235150E+01  0.14194985331E+02  0.28274057185E+02  0.00000000000E+00 0.  1.
         13    1    4    4    0    0  0.13210357178E+02  0.67110608172E+02  0.27631453841E+03  0.28465430157E+03  0.00000000000E+00 0. -1.
          1    1    1    2  501    0  0.41179276913E+02 -0.21438282300E+02  0.18942030042E+02  0.50141133784E+02  0.00000000000E+00 0. -1.
<scales pt_clust_5="13000.00000" pt_clust_6="13000.00000" pt_clust_7="13000.00000" pt_clust_8="13000.00000" pt_clust_9="46.42556"></scales>
<clustering>
<clus scale="   46.426">  2  9  1 -1</clus>
<clus scale="   91.334">  5  6 -1 -1</clus>
<clus scale="   92.588">  7  8 -1 -1</clus>
<clus scale="  119.805">  1  5  2 -1</clus>
<clus scale="   46.426">  2  5  1 -1</clus>
</clustering>
</event>
<event>
 9    1  0.1610296E-005  0.9793404E+02  0.7546771E-02  0.1286842E+00
          1   -1    0    0  502    0 -0.00000000000E+00  0.00000000000E+00  0.54457072771E+03  0.54457072771E+03  0.00000000000E+00 0. -1.
         21   -1    0    0  501  502  0.00000000000E+00 -0.00000000000E+00 -0.70025983842E+02  0.70025983842E+02  0.00000000000E+00 0. -1.
         23    2    1    2    0    0  0.41491074714E+02 -0.93773469774E+01  0.37077883168E+03  0.38405872568E+03  0.90635086091E+02 0.  0.
         23    2    1    2    0    0  0.29144946975E+02 -0.34908055579E+02  0.10310569714E+03  0.14716484678E+03  0.94650446730E+02 0.  0.
        -11    1    4    4    0    0  0.62415778274E+02 -0.34395888078E+02  0.76587688789E+02  0.10461587149E+03  0.00000000000E+00 0. -1.
         11    1    4    4    0    0 -0.33270831300E+02 -0.51216750098E+00  0.26518008352E+02  0.42548975286E+02  0.00000000000E+00 0.  1.
        -13    1    3    3    0    0 -0.12834570064E+02 -0.32716462014E+02  0.80780562934E+02  0.88094224688E+02  0.00000000000E+00 0.  1.
         13    1    3    3    0    0  0.54325644777E+02  0.23339115036E+02  0.28999826874E+03  0.29596450099E+03  0.00000000000E+00 0. -1.
          1    1    1    2  501    0 -0.70636021689E+02  0.44285402556E+02  0.66021505388E+00  0.83373139101E+02  0.00000000000E+00 0. -1.
<scales pt_clust_5="13000.00000" pt_clust_6="13000.00000" pt_clust_7="13000.00000" pt_clust_8="13000.00000" pt_clust_9="83.37053"></scales>
<clustering>
<clus scale="   83.371">  2  9  1 -1</clus>
<clus scale="   90.635">  7  8 -1 -1</clus>
<clus scale="   94.059">  1  7  2 -1</clus>
<clus scale="   94.650">  5  6 -1 -1</clus>
<clus scale="   83.371">  2  5  1 -1</clus>
</clustering>
</event>
<event>
 9    1  0.1610296E-005  0.1140329E+03  0.7546771E-02  0.1255341E+00
         21   -1    0    0  501  502  0.00000000000E+00  0.00000000000E+00  0.17091383301E+03  0.17091383301E+03  0.00000000000E+00 0.  1.
          2   -1    0    0  502    0 -0.00000000000E+00 -0.00000000000E+00 -0.48238735809E+03  0.48238735809E+03  0.00000000000E+00 0. -1.
         23    2    1    2    0    0  0.45476492379E+01  0.66554598739E+02 -0.43383312683E+03  0.44833808172E+03  0.91354572174E+02 0.  0.
         23    2    1    2    0    0 -0.24508156723E+02 -0.89187252195E+02  0.69012514220E+02  0.14367224048E+03  0.85580195519E+02 0.  0.
        -11    1    3    3    0    0  0.39381105613E+02  0.64867588897E+02 -0.33636002528E+03  0.34481406899E+03  0.00000000000E+00 0. -1.
         11    1    3    3    0    0 -0.34833456375E+02  0.16870098423E+01 -0.97473101555E+02  0.10352401273E+03  0.00000000000E+00 0.  1.
        -11    1    4    4    0    0 -0.27218086014E+02 -0.35244893563E+02 -0.12170424663E+02  0.46164336505E+02  0.00000000000E+00 0. -1.
         11    1    4    4    0    0  0.27099292911E+01 -0.53942358632E+02  0.81182938882E+02  0.97507903973E+02  0.00000000000E+00 0.  1.
          2    1    1    2  501    0  0.19960507485E+02  0.22632653455E+02  0.53347087533E+02  0.61290868893E+02  0.00000000000E+00 0. -1.
<scales pt_clust_5="13000.00000" pt_clust_6="13000.00000" pt_clust_7="13000.00000" pt_clust_8="13000.00000" pt_clust_9="30.17712"></scales>
<clustering>
<clus scale="   30.177">  1  9  2 -1</clus>
<clus scale="   85.580">  7  8 -1 -1</clus>
<clus scale="   91.355">  5  6 -1 -1</clus>
<clus scale="  109.461">  1  7  2 -1</clus>
<clus scale="   30.177">  1  5  2 -1</clus>
</clustering>
</event>
<event>
 9    1  0.1610296E-005  0.1531718E+03  0.7546771E-02  0.1196825E+00
         21   -1    0    0  501  502  0.00000000000E+00  0.00000000000E+00  0.74316519390E+02  0.74316519390E+02  0.00000000000E+00 0. -1.
          2   -1    0    0  502    0 -0.00000000000E+00 -0.00000000000E+00 -0.55423442391E+03  0.55423442391E+03  0.00000000000E+00 0. -1.
         23    2    1    2    0    0  0.54637431527E+01 -0.11347557677E+03 -0.34308090912E+03  0.37315055483E+03  0.92899232254E+02 0.  0.
         23    2    1    2    0    0  0.91990558290E+01  0.14959162654E+03 -0.10258161487E+03  0.20350821353E+03  0.91816817119E+02 0.  0.
        -11    1    4    4    0    0 -0.21696865273E+02  0.24173200959E+02 -0.58703734584E+02  0.67091177224E+02  0.00000000000E+00 0.  1.
         11    1    4    4    0    0  0.30895921102E+02  0.12541842558E+03 -0.43877880283E+02  0.13641703630E+03  0.00000000000E+00 0. -1.
        -13    1    3    3    0    0  0.38472355937E+02 -0.33830320570E+02 -0.19674890911E+03  0.20330948330E+03  0.00000000000E+00 0.  1.
         13    1    3    3    0    0 -0.33008612784E+02 -0.79645256195E+02 -0.14633200000E+03  0.16984107153E+03  0.00000000000E+00 0. -1.
          2    1    1    2  501    0 -0.14662798982E+02 -0.36116049773E+02 -0.34255380538E+02  0.51892174950E+02  0.00000000000E+00 0. -1.
<scales pt_clust_5="13000.00000" pt_clust_6="13000.00000" pt_clust_7="13000.00000" pt_clust_8="13000.00000" pt_clust_9="38.97905"></scales>
<clustering>
<clus scale="   38.979">  1  9  2 -1</clus>
<clus scale="   91.817">  5  6 -1 -1</clus>
<clus scale="   92.899">  7  8 -1 -1</clus>
<clus scale="  152.518">  1  5  2 -1</clus>
<clus scale="   38.979">  1  5  2 -1</clus>
</clustering>
</event>
<event>
 9    1  0.1610296E-005  0.9275656E+02  0.7546771E-02  0.1296576E+00
          1   -1    0    0  502    0 -0.00000000000E+00  0.00000000000E+00  0.27394395477E+03  0.27394395477E+03  0.00000000000E+00 0. -1.
         21   -1    0    0  501  502  0.00000000000E+00 -0.00000000000E+00 -0.12436617703E+03  0.12436617703E+03  0.00000000000E+00 0. -1.
         23    2    1    2    0    0 -0.25156485286E+02  0.67222566480E+01  0.18567265946E+03  0.20825135405E+03  0.90643546414E+02 0.  0.
         23    2    1    2    0    0 -0.31623959863E+01  0.39111778747E+01  0.46275504512E+02  0.10230964958E+03  0.91107321433E+02 0.  0.
        -11    1    4    4    0    0  0.14942569337E+02  0.44416852145E+02  0.22833458058E+02  0.52129683864E+02  0.00000000000E+00 0.  1.
         11    1    4    4    0    0 -0.18104965323E+02 -0.40505674270E+02  0.23442046453E+02  0.50179965717E+02  0.00000000000E+00 0. -1.
        -13    1    3    3    0    0 -0.70856719500E+01  0.45484754630E+02  0.13090685495E+03  0.13876481659E+03  0.00000000000E+00 0.  1.
         13    1    3    3    0    0 -0.18070813336E+02 -0.38762497982E+02  0.54765804512E+02  0.69486537461E+02  0.00000000000E+00 0. -1.
          1    1    1    2  501    0  0.28318881272E+02 -0.10633434523E+02 -0.82370386231E+02  0.87749128167E+02  0.00000000000E+00 0. -1.
<scales pt_clust_5="13000.00000" pt_clust_6="13000.00000" pt_clust_7="13000.00000" pt_clust_8="13000.00000" pt_clust_9="30.24945"></scales>
<clustering>
<clus scale="   30.249">  2  9  1 -1</clus>
<clus scale="   90.644">  7  8 -1 -1</clus>
<clus scale="   91.107">  5  6 -1 -1</clus>
<clus scale="   92.301">  1  7  2 -1</clus>
<clus scale="   30.249">  2  5  1 -1</clus>
</clustering>
</event>
<event>
 9    1  0.1610296E-005  0.1142165E+03  0.7546771E-02  0.1255619E+00
         21   -1    0    0  501  502  0.00000000000E+00  0.00000000000E+00  0.90308615194E+02  0.90308615194E+02  0.00000000000E+00 0. -1.
         -4   -1    0    0    0  501 -0.00000000000E+00 -0.00000000000E+00 -0.49294344402E+03  0.49294344402E+03  0.00000000000E+00 0. -1.
         23    2    1    2    0    0 -0.25615911355E+02 -0.46469901344E+02 -0.29244768804E+03  0.31272881689E+03  0.97252434542E+02 0.  0.
         23    2    1    2    0    0  0.17947287385E+02  0.71177097318E+02 -0.16962734783E+03  0.20569738684E+03  0.90275652940E+02 0.  0.
        -11    1    3    3    0    0 -0.61854037245E+02 -0.36394023061E+02 -0.21436214833E+03  0.22605658025E+03  0.00000000000E+00 0.  1.
         11    1    3    3    0    0  0.36238125890E+02 -0.10075878282E+02 -0.78085539710E+02  0.86672236633E+02  0.00000000000E+00 0. -1.
        -13    1    4    4    0    0 -0.93507717909E+01  0.75384956488E+02 -0.73574626891E+02  0.10575232536E+03  0.00000000000E+00 0.  1.
         13    1    4    4    0    0  0.27298059176E+02 -0.42078591698E+01 -0.96052720941E+02  0.99945061478E+02  0.00000000000E+00 0. -1.
         -4    1    1    2    0  502  0.76686239702E+01 -0.24707195975E+02  0.59440207045E+02  0.64825855490E+02  0.00000000000E+00 0. -1.
<scales pt_clust_5="13000.00000" pt_clust_6="13000.00000" pt_clust_7="13000.00000" pt_clust_8="13000.00000" pt_clust_9="25.86993"></scales>
<clustering>
<clus scale="   25.870">  1  9  2 -1</clus>
<clus scale="   90.276">  7  8 -1 -1</clus>
<clus scale="   97.252">  5  6 -1 -1</clus>
<clus scale="  108.338">  1  7  2 -1</clus>
<clus scale="   25.870">  1  5  2 -1</clus>
</clustering>
</event>
<event>
 9    1  0.1610296E-005  0.1230534E+03  0.7546771E-02  0.1238471E+00
         21   -1    0    0  501  502  0.00000000000E+00  0.00000000000E+00  0.62143250899E+02  0.62143250899E+02  0.00000000000E+00 0.  1.
          1   -1    0    0  502    0 -0.00000000000E+00 -0.00000000000E+00 -0.52537319354E+03  0.52537319354E+03  0.00000000000E+00 0. -1.
         23    2    1    2    0    0  0.17407192374E+02 -0.72495843579E+02 -0.35118938278E+03  0.37028438704E+03  0.90652562169E+02 0.  0.
         23    2    1    2    0    0 -0.15356374016E+02  0.10844037386E+03 -0.11148341726E+03  0.18122475924E+03  0.91753627344E+02 0.  0.
        -11    1    3    3    0    0  0.16494569740E+02  0.12422302912E+02 -0.21406325456E+02  0.29742481572E+02  0.00000000000E+00 0.  1.
         11    1    3    3    0    0  0.91262263375E+00 -0.84918146491E+02 -0.32978305732E+03  0.34054190547E+03  0.00000000000E+00 0. -1.
        -11    1    4    4    0    0  0.16249265573E+02  0.10956274976E+03 -0.80264354600E+02  0.13678596926E+03  0.00000000000E+00 0.  1.
         11    1    4    4    0    0 -0.31605639589E+02 -0.11223758982E+01 -0.31219062665E+02  0.44438789983E+02  0.00000000000E+00 0. -1.
          1    1    1    2  501    0 -0.20508183577E+01 -0.35944530279E+02 -0.55714259954E+00  0.36007298161E+02  0.00000000000E+00 0. -1.
<scales pt_clust_5="13000.00000" pt_clust_6="13000.00000" pt_clust_7="13000.00000" pt_clust_8="13000.00000" pt_clust_9="36.00299"></scales>
<clustering>
<clus scale="   36.003">  1  9  2 -1</clus>
<clus scale="   90.653">  5  6 -1 -1</clus>
<clus scale="   91.754">  7  8 -1 -1</clus>
<clus scale="  122.235">  2  5  1 -1</clus>
<clus scale="   36.003">  1  5  2 -1</clus>
</clustering>
</event>
<event>
 9    1  0.1610296E-005  0.1467760E+03  0.7546771E-02  0.1209249E+00
         21   -1    0    0  501  502  0.00000000000E+00  0.00000000000E+00  0.74817088618E+02  0.74817088618E+02  0.00000000000E+00 0.  1.
          1   -1    0    0  502    0 -0.00000000000E+00 -0.00000000000E+00 -0.69361240102E+03  0.69361240102E+03  0.00000000000E+00 0. -1.
         23    2    1    2    0    0  0.85337990944E+02  0.58072112980E+02 -0.43747183066E+03  0.45855596296E+03  0.90758060502E+02 0.  0.
         23    2    1    2    0    0 -0.12790620000E+03 -0.74930502985E+02 -0.20260483417E+03  0.25938438233E+03  0.65245403614E+02 0.  0.
        -13    1    4    4    0    0 -0.45068741227E+02 -0.10912657143E+02 -0.11091326262E+03  0.12021659347E+03  0.00000000000E+00 0. -1.
         13    1    4    4    0    0 -0.82837458775E+02 -0.64017845842E+02 -0.91691571550E+02  0.13916778886E+03  0.00000000000E+00 0.  1.
        -13    1    3    3    0    0 -0.11036572893E+02  0.31525172086E+02 -0.16448357749E+03  0.16784066754E+03  0.00000000000E+00 0.  1.
         13    1    3    3    0    0  0.96374563837E+02  0.26546940894E+02 -0.27298825316E+03  0.29071529542E+03  0.00000000000E+00 0. -1.
          1    1    1    2  501    0  0.42568209058E+02  0.16858390005E+02  0.21281352421E+02  0.50489144346E+02  0.00000000000E+00 0. -1.
<scales pt_clust_5="13000.00000" pt_clust_6="13000.00000" pt_clust_7="13000.00000" pt_clust_8="13000.00000" pt_clust_9="45.78491"></scales>
<clustering>
<clus scale="   45.785">  1  9  2 -1</clus>
<clus scale="   65.245">  5  6 -1 -1</clus>
<clus scale="   90.758">  7  8 -1 -1</clus>
<clus scale="  132.526">  1  5  2 -1</clus>
<clus scale="   45.785">  1  5  2 -1</clus>
</clustering>
</event>
<event>
 9    1  0.1610296E-005  0.9585763E+02  0.7546771E-02  0.1292791E+00
         21   -1    0    0  501  502  0.00000000000E+00  0.00000000000E+00  0.35201770430E+02  0.35201770430E+02  0.00000000000E+00 0.  1.
          1   -1    0    0  502    0 -0.00000000000E+00 -0.00000000000E+00 -0.68195886066E+03  0.68195886066E+03  0.00000000000E+00 0. -1.
         23    2    1    2    0    0 -0.16845562536E+02  0.66649722598E+01 -0.47799243078E+03  0.48731273285E+03  0.93106073304E+02 0.  0.
         23    2    1    2    0    0  0.21054749113E+02 -0.32548130345E+02 -0.17821382525E+03  0.20197422144E+03  0.86779809670E+02 0.  0.
        -11    1    4    4    0    0  0.50553276325E+02 -0.23211552493E+02 -0.15044441792E+03  0.16039929177E+03  0.00000000000E+00 0.  1.
         11    1    4    4    0    0 -0.29498527212E+02 -0.93365778518E+01 -0.27769407327E+02  0.41574929668E+02  0.00000000000E+00 0. -1.
        -11    1    3    3    0    0  0.29382893967E+02 -0.25137138883E+02 -0.18568728339E+03  0.18967076059E+03  0.00000000000E+00 0.  1.
         11    1    3    3    0    0 -0.46228456503E+02  0.31802111143E+02 -0.29230514739E+03  0.29764197226E+03  0.00000000000E+00 0. -1.
          1    1    1    2  501    0 -0.42091865768E+01  0.25883158085E+02  0.94491657977E+01  0.27873676800E+02  0.00000000000E+00 0. -1.
<scales pt_clust_5="13000.00000" pt_clust_6="13000.00000" pt_clust_7="13000.00000" pt_clust_8="13000.00000" pt_clust_9="26.22318"></scales>
<clustering>
<clus scale="   26.223">  1  9  2 -1</clus>
<clus scale="   86.780">  5  6 -1 -1</clus>
<clus scale="   89.726">  1  5  2 -1</clus>
<clus scale="   93.106">  7  8 -1 -1</clus>
<clus scale="   26.223">  1  5  2 -1</clus>
</clustering>
</event>
<event>
 9    1  0.1610296E-005  0.2283308E+03  0.7546771E-02  0.1128070E+00
          2   -1    0    0  502    0 -0.00000000000E+00  0.00000000000E+00  0.23624564198E+03  0.23624564198E+03  0.00000000000E+00 0. -1.
         21   -1    0    0  501  502  0.00000000000E+00 -0.00000000000E+00 -0.78318116402E+03  0.78318116402E+03  0.00000000000E+00 0. -1.
         23    2    1    2    0    0  0.62407479928E+02 -0.16501792927E+03  0.76130420879E+01  0.19827474831E+03  0.90162668978E+02 0.  0.
         23    2    1    2    0    0 -0.47659566885E+02  0.25490419564E+03 -0.17314517435E+02  0.27625072464E+03  0.93632724426E+02 0.  0.
        -11    1    4    4    0    0 -0.44145225595E+02  0.21801252527E+03  0.20406786306E+02  0.22337121355E+03  0.00000000000E+00 0. -1.
         11    1    4    4    0    0 -0.35143412895E+01  0.36891670366E+02 -0.37721303740E+02  0.52879511089E+02  0.00000000000E+00 0.  1.
        -11    1    3    3    0    0  0.38035092702E+02 -0.11299590898E+03 -0.37767824587E+02  0.12506459250E+03  0.00000000000E+00 0. -1.
         11    1    3    3    0    0  0.24372387226E+02 -0.52022020294E+02  0.45380866675E+02  0.73210155817E+02  0.00000000000E+00 0.  1.
          2    1    1    2  501    0 -0.14747913043E+02 -0.89886266366E+02 -0.53723404670E+03  0.54490133304E+03  0.00000000000E+00 0. -1.
<scales pt_clust_5="13000.00000" pt_clust_6="13000.00000" pt_clust_7="13000.00000" pt_clust_8="13000.00000" pt_clust_9="91.08810"></scales>
<clustering>
<clus scale="   90.163">  7  8 -1 -1</clus>
<clus scale="   91.088">  2  9  1 -1</clus>
<clus scale="   93.633">  5  6 -1 -1</clus>
<clus scale="  226.930">  1  7  2 -1</clus>
<clus scale="   91.088">  2  5  1 -1</clus>
</clustering>
</event>
<event>
 9    1  0.1610296E-005  0.1285062E+03  0.7546771E-02  0.1235890E+00
         21   -1    0    0  501  502  0.00000000000E+00  0.00000000000E+00  0.20791542358E+03  0.20791542358E+03  0.00000000000E+00 0. -1.
          1   -1    0    0  502    0 -0.00000000000E+00 -0.00000000000E+00 -0.32654481212E+03  0.32654481212E+03  0.00000000000E+00 0. -1.
         23    2    1    2    0    0  0.59490653632E+02  0.13789252883E+02 -0.24875499540E+03  0.27885812247E+03  0.11024301956E+03 0.  0.
         23    2    1    2    0    0 -0.10807893673E+03 -0.52238781889E+02  0.11961055890E+03  0.19275504672E+03  0.91857908405E+02 0.  0.
        -13    1    3    3    0    0  0.60795087961E+02 -0.37205533241E+02 -0.17705723373E+03  0.19086528873E+03  0.00000000000E+00 0. -1.
         13    1    3    3    0    0 -0.13044343284E+01  0.50994786124E+02 -0.71697761673E+02  0.87992833741E+02  0.00000000000E+00 0.  1.
        -13    1    4    4    0    0 -0.45045802107E+02 -0.56618200702E+02  0.20470184592E+02  0.75191577956E+02  0.00000000000E+00 0.  1.
         13    1    4    4    0    0 -0.63033134628E+02  0.43794188130E+01  0.99140374304E+02  0.11756346876E+03  0.00000000000E+00 0. -1.
          1    1    1    2  501    0  0.48588283103E+02  0.38449529006E+02  0.10515047977E+02  0.62847066516E+02  0.00000000000E+00 0. -1.
<scales pt_clust_5="13000.00000" pt_clust_6="13000.00000" pt_clust_7="13000.00000" pt_clust_8="13000.00000" pt_clust_9="61.96118"></scales>
<clustering>
<clus scale="   61.961">  1  9  2 -1</clus>
<clus scale="   91.858">  7  8 -1 -1</clus>
<clus scale="  110.243">  5  6 -1 -1</clus>
<clus scale="  113.129">  1  7  2 -1</clus>
<clus scale="   61.961">  1  5  2 -1</clus>
</clustering>
</event>
<event>
 9    1  0.2154576E-005  0.1306674E+03  0.7546771E-02  0.1226921E+00
         21   -1    0    0  501  502  0.00000000000E+00  0.00000000000E+00  0.29230142596E+03  0.29230142596E+03  0.00000000000E+00 0.  1.
          1   -1    0    0  502    0 -0.00000000000E+00 -0.00000000000E+00 -0.29398284750E+03  0.29398284750E+03  0.00000000000E+00 0. -1.
         23    2    1    2    0    0 -0.42480102317E+02  0.86968999824E+02 -0.24512580217E+03  0.27964935467E+03  0.93535750679E+02 0.  0.
         23    2    1    2    0    0  0.57755864644E+02 -0.11491784446E+02  0.15188013133E+03  0.18699307533E+03  0.91820667167E+02 0.  0.
        -13    1    4    4    0    0  0.23375051570E+02 -0.45247229578E+02  0.11671863725E+03  0.12734576987E+03  0.00000000000E+00 0.  1.
         13    1    4    4    0    0  0.34380813074E+02  0.33755445132E+02  0.35161494075E+02  0.59647305466E+02  0.00000000000E+00 0. -1.
        -13    1    3    3    0    0 -0.39632961680E+02  0.10706144250E+03 -0.21259210265E+03  0.24130546250E+03  0.00000000000E+00 0. -1.
         13    1    3    3    0    0 -0.28471406362E+01 -0.20092442677E+02 -0.32533699516E+02  0.38343892170E+02  0.00000000000E+00 0.  1.
          1    1    1    2  501    0 -0.15275762328E+02 -0.75477215378E+02  0.91564249306E+02  0.11964184346E+03  0.00000000000E+00 0. -1.
<scales pt_clust_5="13000.00000" pt_clust_6="13000.00000" pt_clust_7="13000.00000" pt_clust_8="13000.00000" pt_clust_9="77.00753"></scales>
<clustering>
<clus scale="   77.008">  1  9  2 -1</clus>
<clus scale="   91.821">  5  6 -1 -1</clus>
<clus scale="   93.536">  7  8 -1 -1</clus>
<clus scale="  129.445">  1  5  2 -1</clus>
<clus scale="   77.008">  1  5  2 -1</clus>
</clustering>
</event>
<event>
 9    1  0.1610296E-005  0.1430561E+03  0.7546771E-02  0.1209608E+00
         -3   -1    0    0    0  501 -0.00000000000E+00  0.00000000000E+00  0.98184223918E+02  0.98184223918E+02  0.00000000000E+00 0.  1.
         21   -1    0    0  501  502  0.00000000000E+00 -0.00000000000E+00 -0.47994842048E+03  0.47994842048E+03  0.00000000000E+00 0.  1.
         23    2    1    2    0    0 -0.93516575878E+02  0.67444452628E+02  0.10962103965E+02  0.14654850841E+03  0.89789717897E+02 0.  0.
         23    2    1    2    0    0  0.91952146546E+02 -0.19893362743E+02 -0.27814879273E+03  0.30752141442E+03  0.91387779801E+02 0.  0.
        -11    1    3    3    0    0 -0.73984587796E+02 -0.13334354265E+01  0.12443808471E+02  0.75035629208E+02  0.00000000000E+00 0. -1.
         11    1    3    3    0    0 -0.19531988082E+02  0.68777888054E+02 -0.14817045055E+01  0.71512879203E+02  0.00000000000E+00 0.  1.
        -11    1    4    4    0    0  0.82394708800E+02  0.20815157212E+02 -0.22045202718E+03  0.23626522193E+03  0.00000000000E+00 0.  1.
         11    1    4    4    0    0  0.95574377458E+01 -0.40708519955E+02 -0.57696765547E+02  0.71256192488E+02  0.00000000000E+00 0. -1.
         -3    1    1    2    0  502  0.15644293326E+01 -0.47551089885E+02 -0.11457750780E+03  0.12406272156E+03  0.00000000000E+00 0.  1.
<scales pt_clust_5="13000.00000" pt_clust_6="13000.00000" pt_clust_7="13000.00000" pt_clust_8="13000.00000" pt_clust_9="47.57682"></scales>
<clustering>
<clus scale="   47.577">  2  9  1 -1</clus>
<clus scale="   89.790">  5  6 -1 -1</clus>
<clus scale="   91.388">  7  8 -1 -1</clus>
<clus scale="  142.041">  1  5  2 -1</clus>
<clus scale="   47.577">  2  5  1 -1</clus>
</clustering>
</event>
<event>
 9    1  0.1610296E-005  0.1198169E+03  0.7546771E-02  0.1244117E+00
          1   -1    0    0  502    0 -0.00000000000E+00  0.00000000000E+00  0.93845299431E+02  0.93845299431E+02  0.00000000000E+00 0. -1.
         21   -1    0    0  501  502  0.00000000000E+00 -0.00000000000E+00 -0.33610711273E+03  0.33610711273E+03  0.00000000000E+00 0.  1.
         23    2    1    2    0    0 -0.63375525011E+02 -0.32698082566E+02  0.18331714802E+02  0.11650029100E+03  0.90280918594E+02 0.  0.
         23    2    1    2    0    0  0.73809157514E+02  0.60654397862E+02 -0.15756600635E+03  0.20619035495E+03  0.92523880184E+02 0.  0.
        -11    1    4    4    0    0  0.60147777026E+02  0.21797600745E+02 -0.27280766892E+02  0.69549483978E+02  0.00000000000E+00 0. -1.
         11    1    4    4    0    0  0.13661380488E+02  0.38856797118E+02 -0.13028523946E+03  0.13664087097E+03  0.00000000000E+00 0.  1.
        -11    1    3    3    0    0 -0.60916039169E+02  0.50194167447E+01  0.39889418688E+02  0.72987150210E+02  0.00000000000E+00 0. -1.
         11    1    3    3    0    0 -0.24594858418E+01 -0.37717499310E+02 -0.21557703886E+02  0.43513140793E+02  0.00000000000E+00 0.  1.
          1    1    1    2  501    0 -0.10433632503E+02 -0.27956315297E+02 -0.10302752175E+03  0.10726176620E+03  0.00000000000E+00 0. -1.
<scales pt_clust_5="13000.00000" pt_clust_6="13000.00000" pt_clust_7="13000.00000" pt_clust_8="13000.00000" pt_clust_9="29.83984"></scales>
<clustering>
<clus scale="   29.840">  2  9  1 -1</clus>
<clus scale="   90.281">  7  8 -1 -1</clus>
<clus scale="   92.524">  5  6 -1 -1</clus>
<clus scale="  118.093">  1  7  2 -1</clus>
<clus scale="   29.840">  2  5  1 -1</clus>
</clustering>
</event>
<event>
 9    1  0.1610296E-005  0.1941058E+03  0.7546771E-02  0.1155518E+00
         -3   -1    0    0    0  501 -0.00000000000E+00  0.00000000000E+00  0.50599148960E+03  0.50599148960E+03  0.00000000000E+00 0.  1.
         21   -1    0    0  501  502  0.00000000000E+00 -0.00000000000E+00 -0.99214979928E+02  0.99214979928E+02  0.00000000000E+00 0. -1.
         23    2    1    2    0    0 -0.16566220808E+02 -0.17206074217E+03  0.21768387035E+03  0.29112985582E+03  0.86550487408E+02 0.  0.
         23    2    1    2    0    0 -0.35881127531E+02  0.16750319181E+03  0.16759721114E+03  0.25721230992E+03  0.93405420667E+02 0.  0.
        -11    1    4    4    0    0  0.25003168036E+02  0.30564192379E+02  0.63374701314E+02  0.74670483019E+02  0.00000000000E+00 0.  1.
         11    1    4    4    0    0 -0.60884295567E+02  0.13693899943E+03  0.10422250983E+03  0.18254182690E+03  0.00000000000E+00 0. -1.
        -13    1    3    3    0    0 -0.26776716045E+02 -0.15222624524E+03  0.13412528594E+03  0.20464460557E+03  0.00000000000E+00 0.  1.
         13    1    3    3    0    0  0.10210495237E+02 -0.19834496932E+02  0.83558584411E+02  0.86485250247E+02  0.00000000000E+00 0. -1.
         -3    1    1    2    0  502  0.52447348339E+02  0.45575503574E+01  0.21495428177E+02  0.56864303790E+02  0.00000000000E+00 0.  1.
<scales pt_clust_5="13000.00000" pt_clust_6="13000.00000" pt_clust_7="13000.00000" pt_clust_8="13000.00000" pt_clust_9="52.64500"></scales>
<clustering>
<clus scale="   52.645">  2  9  1 -1</clus>
<clus scale="   86.550">  7  8 -1 -1</clus>
<clus scale="   93.405">  5  6 -1 -1</clus>
<clus scale="  190.902">  1  7  2 -1</clus>
<clus scale="   52.645">  2  5  1 -1</clus>
</clustering>
</event>
<event>
 9    1  0.1610296E-005  0.1337178E+03  0.7546771E-02  0.1222218E+00
         21   -1    0    0  501  502  0.00000000000E+00  0.00000000000E+00  0.38984908375E+02  0.38984908375E+02  0.00000000000E+00 0.  1.
          2   -1    0    0  502    0 -0.00000000000E+00 -0.00000000000E+00 -0.76861130521E+03  0.76861130521E+03  0.00000000000E+00 0.  1.
         23    2    1    2    0    0 -0.41761294617E+02 -0.80448985718E+02 -0.49481055561E+03  0.51137085232E+03  0.91905482011E+02 0.  0.
         23    2    1    2    0    0  0.72464745170E+02  0.88961362536E+02 -0.20548790436E+03  0.25292073893E+03  0.92619425753E+02 0.  0.
        -11    1    3    3    0    0 -0.12414102589E+02 -0.78000162655E+02 -0.45526115930E+03  0.46206153106E+03  0.00000000000E+00 0.  1.
         11    1    3    3    0    0 -0.29347192029E+02 -0.24488230622E+01 -0.39549396314E+02  0.49309321260E+02  0.00000000000E+00 0. -1.
        -13    1    4    4    0    0  0.88321385448E+02  0.43295266841E+02 -0.12540335953E+03  0.15937738184E+03  0.00000000000E+00 0.  1.
         13    1    4    4    0    0 -0.15856640278E+02  0.45666095695E+02 -0.80084544820E+02  0.93543357092E+02  0.00000000000E+00 0. -1.
          2    1    1    2  501    0 -0.30703450553E+02 -0.85123768187E+01 -0.29327936861E+02  0.43304622334E+02  0.00000000000E+00 0.  1.
<scales pt_clust_5="13000.00000" pt_clust_6="13000.00000" pt_clust_7="13000.00000" pt_clust_8="13000.00000" pt_clust_9="31.86161"></scales>
<clustering>
<clus scale="   31.862">  1  9  2 -1</clus>
<clus scale="   91.905">  5  6 -1 -1</clus>
<clus scale="   92.619">  7  8 -1 -1</clus>
<clus scale="  133.224">  2  5  1 -1</clus>
<clus scale="   31.862">  1  5  2 -1</clus>
</clustering>
</event>
<event>
 9    1  0.1610296E-005  0.1204552E+03  0.7546771E-02  0.1242618E+00
         -1   -1    0    0    0  501 -0.00000000000E+00  0.00000000000E+00  0.50566110457E+02  0.50566110457E+02  0.00000000000E+00 0.  1.
         21   -1    0    0  501  502  0.00000000000E+00 -0.00000000000E+00 -0.44884670017E+03  0.44884670017E+03  0.00000000000E+00 0. -1.
         23    2    1    2    0    0 -0.63359177928E+02 -0.61243249674E+01 -0.11170756088E+03  0.15806985284E+03  0.91954371482E+02 0.  0.
         23    2    1    2    0    0  0.10342591617E+03  0.91950501787E+00 -0.25365853608E+03  0.28922964377E+03  0.92808233941E+02 0.  0.
        -11    1    3    3    0    0 -0.72958422649E+02 -0.28937769535E+02 -0.53975342255E+02  0.95255779418E+02  0.00000000000E+00 0.  1.
         11    1    3    3    0    0  0.95992447211E+01  0.22813444568E+02 -0.57732218624E+02  0.62814073419E+02  0.00000000000E+00 0. -1.
        -13    1    4    4    0    0 -0.10014852014E+02 -0.18059951902E+02 -0.19762150811E+02  0.28583242088E+02  0.00000000000E+00 0.  1.
         13    1    4    4    0    0  0.11344076819E+03  0.18979456920E+02 -0.23389638526E+03  0.26064640168E+03  0.00000000000E+00 0. -1.
         -1    1    1    2    0  502 -0.40066738245E+02  0.52048199495E+01 -0.32914492761E+02  0.52113314019E+02  0.00000000000E+00 0.  1.
<scales pt_clust_5="13000.00000" pt_clust_6="13000.00000" pt_clust_7="13000.00000" pt_clust_8="13000.00000" pt_clust_9="40.40341"></scales>
<clustering>
<clus scale="   40.403">  2  9  1 -1</clus>
<clus scale="   91.954">  5  6 -1 -1</clus>
<clus scale="   92.808">  7  8 -1 -1</clus>
<clus scale="  119.799">  1  5  2 -1</clus>
<clus scale="   40.403">  2  5  1 -1</clus>
</clustering>
</event>
<event>
 9    1  0.1610296E-005  0.1969070E+03  0.7546771E-02  0.1152439E+00
          2   -1    0    0  502    0 -0.00000000000E+00  0.00000000000E+00  0.26484487181E+03  0.26484487181E+03  0.00000000000E+00 0. -1.
         21   -1    0    0  501  502  0.00000000000E+00 -0.00000000000E+00 -0.25625755141E+03  0.25625755141E+03  0.00000000000E+00 0.  1.
         23    2    1    2    0    0  0.37269047780E+02 -0.16258967189E+03  0.11838316432E+03  0.22366411320E+03  0.90480266428E+02 0.  0.
         23    2    1    2    0    0 -0.81328846393E+02  0.18181508007E+03 -0.56538115388E+02  0.22569384807E+03  0.89833456834E+02 0.  0.
        -11    1    3    3    0    0  0.46856516678E+02 -0.52329361154E+02  0.14192859553E+02  0.71661233985E+02  0.00000000000E+00 0.  1.
         11    1    3    3    0    0 -0.95874688977E+01 -0.11026031073E+03  0.10419030476E+03  0.15200287921E+03  0.00000000000E+00 0. -1.
        -13    1    4    4    0    0 -0.60555467946E+02  0.18248727699E+03 -0.34394820162E+02  0.19532428066E+03  0.00000000000E+00 0.  1.
         13    1    4    4    0    0 -0.20773378447E+02 -0.67219692259E+00 -0.22143295226E+02  0.30369567404E+02  0.00000000000E+00 0. -1.
          2    1    1    2  501    0  0.44059798613E+02 -0.19225408182E+02 -0.53257728526E+02  0.71744461956E+02  0.00000000000E+00 0. -1.
<scales pt_clust_5="13000.00000" pt_clust_6="13000.00000" pt_clust_7="13000.00000" pt_clust_8="13000.00000" pt_clust_9="48.07164"></scales>
<clustering>
<clus scale="   48.072">  2  9  1 -1</clus>
<clus scale="   89.833">  7  8 -1 -1</clus>
<clus scale="   90.480">  5  6 -1 -1</clus>
<clus scale="  196.611">  2  7  1 -1</clus>
<clus scale="   48.072">  2  5  1 -1</clus>
</clustering>
</event>
<event>
 9    1  0.1610296E-005  0.9999353E+02  0.7546771E-02  0.1280679E+00
         21   -1    0    0  501  502  0.00000000000E+00  0.00000000000E+00  0.82586123308E+02  0.82586123308E+02  0.00000000000E+00 0.  1.
         -2   -1    0    0    0  501 -0.00000000000E+00 -0.00000000000E+00 -0.47838471167E+03  0.47838471167E+03  0.00000000000E+00 0.  1.
         23    2    1    2    0    0  0.29218700515E+00 -0.38015135379E+02 -0.41129294648E+03  0.42354923145E+03  0.93738080585E+02 0.  0.
         23    2    1    2    0    0  0.67578261343E+01  0.15595562909E+01  0.29397167021E+02  0.97773147977E+02  0.92990830766E+02 0.  0.
        -11    1    3    3    0    0  0.46824223157E+02 -0.23596424427E+02 -0.21533734571E+03  0.22162913071E+03  0.00000000000E+00 0.  1.
         11    1    3    3    0    0 -0.46532036152E+02 -0.14418710953E+02 -0.19595560076E+03  0.20192010074E+03  0.00000000000E+00 0. -1.
        -13    1    4    4    0    0 -0.14935313270E+02 -0.40112222534E+02  0.87234295831E+00  0.42811388221E+02  0.00000000000E+00 0.  1.
         13    1    4    4    0    0  0.21693139405E+02  0.41671778825E+02  0.28524824062E+02  0.54961759756E+02  0.00000000000E+00 0. -1.
         -2    1    1    2    0  502 -0.70500131394E+01  0.36455579088E+02 -0.13902808906E+02  0.39648455549E+02  0.00000000000E+00 0.  1.
<scales pt_clust_5="13000.00000" pt_clust_6="13000.00000" pt_clust_7="13000.00000" pt_clust_8="13000.00000" pt_clust_9="37.13101"></scales>
<clustering>
<clus scale="   37.131">  1  9  2 -1</clus>
<clus scale="   92.991">  7  8 -1 -1</clus>
<clus scale="   93.738">  5  6 -1 -1</clus>
<clus scale="   99.293">  1  7  2 -1</clus>
<clus scale="   37.131">  1  5  2 -1</clus>
</clustering>
</event>
<event>
 9    1  0.1610296E-005  0.9990834E+02  0.7546771E-02  0.1282618E+00
         21   -1    0    0  501  502  0.00000000000E+00  0.00000000000E+00  0.58651378232E+03  0.58651378232E+03  0.00000000000E+00 0. -1.
          3   -1    0    0  502    0 -0.00000000000E+00 -0.00000000000E+00 -0.53428896579E+02  0.53428896579E+02  0.00000000000E+00 0. -1.
         23    2    1    2    0    0  0.36039574330E+02  0.35779953156E+02  0.21483402111E+03  0.23704212626E+03  0.86349620883E+02 0.  0.
         23    2    1    2    0    0  0.46025040313E+02 -0.69269604775E+02  0.28552144780E+03  0.30841577891E+03  0.81738687573E+02 0.  0.
        -11    1    3    3    0    0  0.20424736297E+02 -0.27420570666E+02  0.59621807447E+02  0.68730033258E+02  0.00000000000E+00 0.  1.
         11    1    3    3    0    0  0.15614838034E+02  0.63200523822E+02  0.15521221367E+03  0.16831209300E+03  0.00000000000E+00 0. -1.
        -13    1    4    4    0    0  0.23553425107E+02  0.15757308466E+02  0.79877380718E+02  0.84755250897E+02  0.00000000000E+00 0.  1.
         13    1    4    4    0    0  0.22471615206E+02 -0.85026913241E+02  0.20564406708E+03  0.22366052801E+03  0.00000000000E+00 0. -1.
          3    1    1    2  501    0 -0.82064614643E+02  0.33489651619E+02  0.32729416836E+02  0.94484773739E+02  0.00000000000E+00 0. -1.
<scales pt_clust_5="13000.00000" pt_clust_6="13000.00000" pt_clust_7="13000.00000" pt_clust_8="13000.00000" pt_clust_9="88.63501"></scales>
<clustering>
<clus scale="   81.739">  7  8 -1 -1</clus>
<clus scale="   86.350">  5  6 -1 -1</clus>
<clus scale="   88.635">  1  9  2 -1</clus>
<clus scale="   95.951">  1  7  2 -1</clus>
<clus scale="   88.635">  1  5  2 -1</clus>
</clustering>
</event>
<event>
 9    1  0.1610296E-005  0.1153896E+03  0.7546771E-02  0.1254379E+00
          4   -1    0    0  502    0 -0.00000000000E+00  0.00000000000E+00  0.31254222802E+03  0.31254222802E+03  0.00000000000E+00 0. -1.
         21   -1    0    0  501  502  0.00000000000E+00 -0.00000000000E+00 -0.16135278120E+03  0.16135278120E+03  0.00000000000E+00 0. -1.
         23    2    1    2    0    0 -0.80314537859E+02  0.72955270407E+01  0.19529286096E+03  0.23264473651E+03  0.97368486580E+02 0.  0.
         23    2    1    2    0    0  0.37198257777E+02 -0.59599420270E+01  0.70396318420E+02  0.11889429144E+03  0.88096422172E+02 0.  0.
        -11    1    3    3    0    0 -0.25559815908E+02 -0.34341843428E+02  0.26436003845E+02  0.50314299146E+02  0.00000000000E+00 0.  1.
         11    1    3    3    0    0 -0.54754721951E+02  0.41637370468E+02  0.16885685712E+03  0.18233043737E+03  0.00000000000E+00 0. -1.
        -11    1    4    4    0    0 -0.99889295462E+01  0.19063232285E+02  0.60970472445E+02  0.64657436144E+02  0.00000000000E+00 0. -1.
         11    1    4    4    0    0  0.47187187323E+02 -0.25023174312E+02  0.94258459757E+01  0.54236855297E+02  0.00000000000E+00 0.  1.
          4    1    1    2  501    0  0.43116280082E+02 -0.13355850137E+01 -0.11449973256E+03  0.12235598126E+03  0.00000000000E+00 0. -1.
<scales pt_clust_5="13000.00000" pt_clust_6="13000.00000" pt_clust_7="13000.00000" pt_clust_8="13000.00000" pt_clust_9="43.13696"></scales>
<clustering>
<clus scale="   43.137">  2  9  1 -1</clus>
<clus scale="   88.096">  7  8 -1 -1</clus>
<clus scale="   97.368">  5  6 -1 -1</clus>
<clus scale="  107.681">  2  7  1 -1</clus>
<clus scale="   43.137">  2  5  1 -1</clus>
</clustering>
</event>
<event>
 9    1  0.1610296E-005  0.1198418E+03  0.7546771E-02  0.1245904E+00
          1   -1    0    0  502    0 -0.00000000000E+00  0.00000000000E+00  0.96572563125E+02  0.96572563125E+02  0.00000000000E+00 0. -1.
         21   -1    0    0  501  502  0.00000000000E+00 -0.00000000000E+00 -0.30357908464E+03  0.30357908464E+03  0.00000000000E+00 0.  1.
         23    2    1    2    0    0  0.68918202237E+02  0.28868031102E+02  0.35368066249E+02  0.12147487230E+03  0.89006531613E+02 0.  0.
         23    2    1    2    0    0 -0.53006468588E+02 -0.75854859848E+01 -0.20463803569E+03  0.23252293102E+03  0.96555489186E+02 0.  0.
        -13    1    4    4    0    0 -0.69200396086E+02 -0.34768380461E+02 -0.16059242290E+03  0.17829038503E+03  0.00000000000E+00 0.  1.
         13    1    4    4    0    0  0.16193927498E+02  0.27182894477E+02 -0.44045612782E+02  0.54232545997E+02  0.00000000000E+00 0. -1.
        -13    1    3    3    0    0  0.44679738345E+02  0.44235966236E+02 -0.13960451829E+02  0.64404921727E+02  0.00000000000E+00 0.  1.
         13    1    3    3    0    0  0.24238463892E+02 -0.15367935134E+02  0.49328518078E+02  0.57069950569E+02  0.00000000000E+00 0. -1.
          1    1    1    2  501    0 -0.15911733649E+02 -0.21282545117E+02 -0.37736552078E+02  0.46153844446E+02  0.00000000000E+00 0. -1.
<scales pt_clust_5="13000.00000" pt_clust_6="13000.00000" pt_clust_7="13000.00000" pt_clust_8="13000.00000" pt_clust_9="26.57311"></scales>
<clustering>
<clus scale="   26.573">  2  9  1 -1</clus>
<clus scale="   89.007">  7  8 -1 -1</clus>
<clus scale="   96.555">  5  6 -1 -1</clus>
<clus scale="  113.848">  1  7  2 -1</clus>
<clus scale="   26.573">  2  5  1 -1</clus>
</clustering>
</event>
<event>
 9    1  0.1610296E-005  0.1147015E+03  0.7546771E-02  0.1252139E+00
         -2   -1    0    0    0  501 -0.00000000000E+00  0.00000000000E+00  0.31113149925E+03  0.31113149925E+03  0.00000000000E+00 0.  1.
         21   -1    0    0  501  502  0.00000000000E+00 -0.00000000000E+00 -0.15945586638E+03  0.15945586638E+03  0.00000000000E+00 0.  1.
         23    2    1    2    0    0  0.64785133641E+02 -0.27850526978E+02  0.24425198199E+03  0.26998747337E+03  0.90892462140E+02 0.  0.
         23    2    1    2    0    0 -0.76616903164E+02 -0.21922724593E+02 -0.87293376960E+02  0.14916763452E+03  0.90995020868E+02 0.  0.
        -11    1    4    4    0    0 -0.76041939305E+02  0.37921235109E+01 -0.22400825447E+02  0.79363428068E+02  0.00000000000E+00 0. -1.
         11    1    4    4    0    0 -0.57496385968E+00 -0.25714848104E+02 -0.64892551513E+02  0.69804206451E+02  0.00000000000E+00 0.  1.
        -13    1    3    3    0    0  0.28017206358E+02  0.28659209996E+02  0.14170468807E+03  0.14726348085E+03  0.00000000000E+00 0. -1.
         13    1    3    3    0    0  0.36767927282E+02 -0.56509736974E+02  0.10254729392E+03  0.12272399252E+03  0.00000000000E+00 0.  1.
         -2    1    1    2    0  502  0.11831769524E+02  0.49773251571E+02 -0.52829721681E+01  0.51432257747E+02  0.00000000000E+00 0.  1.
<scales pt_clust_5="13000.00000" pt_clust_6="13000.00000" pt_clust_7="13000.00000" pt_clust_8="13000.00000" pt_clust_9="51.16021"></scales>
<clustering>
<clus scale="   51.160">  2  9  1 -1</clus>
<clus scale="   90.892">  7  8 -1 -1</clus>
<clus scale="   90.995">  5  6 -1 -1</clus>
<clus scale="  114.620">  1  7  2 -1</clus>
<clus scale="   51.160">  2  5  1 -1</clus>
</clustering>
</event>
<event>
 9    1  0.1610296E-005  0.1058974E+03  0.7546771E-02  0.1268815E+00
         -4   -1    0    0    0  501 -0.00000000000E+00  0.00000000000E+00  0.37265011152E+03  0.37265011152E+03  0.00000000000E+00 0.  1.
         21   -1    0    0  501  502  0.00000000000E+00 -0.00000000000E+00 -0.49957483543E+02  0.49957483543E+02  0.00000000000E+00 0. -1.
         23    2    1    2    0    0  0.35594924837E+02 -0.34987059198E+02  0.25253060322E+03  0.27368718106E+03  0.92961683118E+02 0.  0.
         23    2    1    2    0    0 -0.53112659052E+02  0.20214892618E+02  0.53406249556E+02  0.12053302384E+03  0.91904221391E+02 0.  0.
        -11    1    4    4    0    0 -0.15698205975E+02  0.42637402513E+02  0.61201123795E+02  0.76223089138E+02  0.00000000000E+00 0.  1.
         11    1    4    4    0    0 -0.37414453077E+02 -0.22422509895E+02 -0.77948742389E+01  0.44309934704E+02  0.00000000000E+00 0. -1.
        -11    1    3    3    0    0  0.61116232425E+02  0.11528400918E+01  0.15347154142E+03  0.16519696405E+03  0.00000000000E+00 0.  1.
         11    1    3    3    0    0 -0.25521307588E+02 -0.36139899290E+02  0.99059061801E+02  0.10849021701E+03  0.00000000000E+00 0. -1.
         -4    1    1    2    0  502  0.17517734215E+02  0.14772166580E+02  0.16755775198E+02  0.28387390158E+02  0.00000000000E+00 0.  1.
<scales pt_clust_5="13000.00000" pt_clust_6="13000.00000" pt_clust_7="13000.00000" pt_clust_8="13000.00000" pt_clust_9="22.91480"></scales>
<clustering>
<clus scale="   22.915">  2  9  1 -1</clus>
<clus scale="   91.904">  5  6 -1 -1</clus>
<clus scale="   92.962">  7  8 -1 -1</clus>
<clus scale="  104.970">  2  5  1 -1</clus>
<clus scale="   22.915">  2  5  1 -1</clus>
</clustering>
</event>
<event>
 9    1  0.1610296E-005  0.1133103E+03  0.7546771E-02  0.1258342E+00
          1   -1    0    0  502    0 -0.00000000000E+00  0.00000000000E+00  0.47079179676E+03  0.47079179676E+03  0.00000000000E+00 0. -1.
         21   -1    0    0  501  502  0.00000000000E+00 -0.00000000000E+00 -0.69237894557E+02  0.69237894557E+02  0.00000000000E+00 0.  1.
         23    2    1    2    0    0 -0.15680780356E+02 -0.28248107515E+02  0.18403669358E+03  0.20720644840E+03  0.89560958157E+02 0.  0.
         23    2    1    2    0    0  0.13807979434E+02  0.12038236412E+03  0.16201540899E+03  0.22524685895E+03  0.99018083359E+02 0.  0.
        -11    1    3    3    0    0  0.31828950995E+02  0.10607845763E+02  0.72862362564E+02  0.80215537096E+02  0.00000000000E+00 0.  1.
         11    1    3    3    0    0 -0.47509731351E+02 -0.38855953278E+02  0.11117433102E+03  0.12699091131E+03  0.00000000000E+00 0. -1.
        -11    1    4    4    0    0 -0.17764377875E+02  0.98632170563E+02  0.15744615152E+03  0.18663646166E+03  0.00000000000E+00 0.  1.
         11    1    4    4    0    0  0.31572357309E+02  0.21750193552E+02  0.45692574702E+01  0.38610397297E+02  0.00000000000E+00 0. -1.
          1    1    1    2  501    0  0.18728009222E+01 -0.92134256600E+02  0.55501799629E+02  0.10757638395E+03  0.00000000000E+00 0. -1.
<scales pt_clust_5="13000.00000" pt_clust_6="13000.00000" pt_clust_7="13000.00000" pt_clust_8="13000.00000" pt_clust_9="92.15329"></scales>
<clustering>
<clus scale="   89.561">  5  6 -1 -1</clus>
<clus scale="   92.153">  2  9  1 -1</clus>
<clus scale="   99.018">  7  8 -1 -1</clus>
<clus scale="  105.147">  1  5  2 -1</clus>
<clus scale="   92.153">  2  5  1 -1</clus>
</clustering>
</event>
<event>
 9    1  0.1610296E-005  0.2030935E+03  0.7546771E-02  0.1147353E+00
         21   -1    0    0  501  502  0.00000000000E+00  0.00000000000E+00  0.40793339428E+03  0.40793339428E+03  0.00000000000E+00 0.  1.
          1   -1    0    0  502    0 -0.00000000000E+00 -0.00000000000E+00 -0.12555195873E+03  0.12555195873E+03  0.00000000000E+00 0. -1.
         23    2    1    2    0    0  0.83272900809E+02  0.15727036682E+03  0.73075308929E+02  0.21193413027E+03  0.88925421052E+02 0.  0.
         23    2    1    2    0    0 -0.11530019240E+03 -0.14924103742E+03  0.16687436637E+03  0.26778625444E+03  0.91079099125E+02 0.  0.
        -13    1    4    4    0    0 -0.35351378473E+02  0.26032071370E+00  0.52440379827E+02  0.63243823123E+02  0.00000000000E+00 0.  1.
         13    1    4    4    0    0 -0.79948813929E+02 -0.14950135814E+03  0.11443398654E+03  0.20454243131E+03  0.00000000000E+00 0. -1.
        -13    1    3    3    0    0 -0.17187197664E+02  0.44395901016E+02  0.21854663214E+02  0.52383414310E+02  0.00000000000E+00 0.  1.
         13    1    3    3    0    0  0.10046009847E+03  0.11287446581E+03  0.51220645715E+02  0.15955071596E+03  0.00000000000E+00 0. -1.
          1    1    1    2  501    0  0.32027291594E+02 -0.80293294013E+01  0.42431760262E+02  0.53764968301E+02  0.00000000000E+00 0. -1.
<scales pt_clust_5="13000.00000" pt_clust_6="13000.00000" pt_clust_7="13000.00000" pt_clust_8="13000.00000" pt_clust_9="33.01844"></scales>
<clustering>
<clus scale="   33.018">  1  9  2 -1</clus>
<clus scale="   88.925">  7  8 -1 -1</clus>
<clus scale="   91.079">  5  6 -1 -1</clus>
<clus scale="  202.137">  2  7  1 -1</clus>
<clus scale="   33.018">  1  5  2 -1</clus>
</clustering>
</event>
<event>
 9    1  0.1610296E-005  0.1300029E+03  0.7546771E-02  0.1228186E+00
         21   -1    0    0  501  502  0.00000000000E+00  0.00000000000E+00  0.52977821142E+02  0.52977821142E+02  0.00000000000E+00 0. -1.
         -1   -1    0    0    0  501 -0.00000000000E+00 -0.00000000000E+00 -0.65468371480E+03  0.65468371480E+03  0.00000000000E+00 0.  1.
         23    2    1    2    0    0  0.36025839372E+02 -0.98516680429E+02 -0.49742084294E+03  0.51533505871E+03  0.84494557899E+02 0.  0.
         23    2    1    2    0    0 -0.13254708232E+02  0.72012828237E+02 -0.10814309743E+03  0.15717163235E+03  0.87444026512E+02 0.  0.
        -11    1    3    3    0    0  0.58227605880E+02 -0.82920153898E+02 -0.44405380229E+03  0.45546677742E+03  0.00000000000E+00 0.  1.
         11    1    3    3    0    0 -0.22201766508E+02 -0.15596526531E+02 -0.53367040658E+02  0.59868281289E+02  0.00000000000E+00 0. -1.
        -13    1    4    4    0    0  0.22346421953E+02  0.74605465133E+02 -0.80657375479E+02  0.11212024893E+03  0.00000000000E+00 0. -1.
         13    1    4    4    0    0 -0.35601130185E+02 -0.25926368957E+01 -0.27485721947E+02  0.45051383413E+02  0.00000000000E+00 0.  1.
         -1    1    1    2    0  502 -0.22771131140E+02  0.26503852192E+02  0.38580467124E+01  0.35154844885E+02  0.00000000000E+00 0.  1.
<scales pt_clust_5="13000.00000" pt_clust_6="13000.00000" pt_clust_7="13000.00000" pt_clust_8="13000.00000" pt_clust_9="34.94250"></scales>
<clustering>
<clus scale="   34.943">  1  9  2 -1</clus>
<clus scale="   84.495">  5  6 -1 -1</clus>
<clus scale="   87.444">  7  8 -1 -1</clus>
<clus scale="  128.038">  2  5  1 -1</clus>
<clus scale="   34.943">  1  5  2 -1</clus>
</clustering>
</event>
<event>
 9    1  0.1610296E-005  0.9852445E+02  0.7546771E-02  0.1283586E+00
         -3   -1    0    0    0  501 -0.00000000000E+00  0.00000000000E+00  0.38677174293E+03  0.38677174293E+03  0.00000000000E+00 0.  1.
         21   -1    0    0  501  502  0.00000000000E+00 -0.00000000000E+00 -0.54224051388E+02  0.54224051388E+02  0.00000000000E+00 0.  1.
         23    2    1    2    0    0  0.15033577583E+02 -0.34149498597E+02  0.22904731331E+03  0.24908348761E+03  0.90485995336E+02 0.  0.
         23    2    1    2    0    0  0.29202265161E+02  0.51082188620E+02  0.46414935760E+02  0.11773499538E+03  0.90802095742E+02 0.  0.
        -13    1    4    4    0    0  0.47020265380E+02 -0.39276618294E+01  0.35117540261E+02  0.58818139361E+02  0.00000000000E+00 0. -1.
         13    1    4    4    0    0 -0.17818000220E+02  0.55009850449E+02  0.11297395499E+02  0.58916856020E+02  0.00000000000E+00 0.  1.
        -13    1    3    3    0    0 -0.33967492543E+02 -0.30394801558E+02  0.79161232906E+02  0.91346238602E+02  0.00000000000E+00 0. -1.
         13    1    3    3    0    0  0.49001070126E+02 -0.37546970385E+01  0.14988608041E+03  0.15773724900E+03  0.00000000000E+00 0.  1.
         -3    1    1    2    0  502 -0.44235842744E+02 -0.16932690023E+02  0.57085442468E+02  0.74177311331E+02  0.00000000000E+00 0.  1.
<scales pt_clust_5="13000.00000" pt_clust_6="13000.00000" pt_clust_7="13000.00000" pt_clust_8="13000.00000" pt_clust_9="47.36590"></scales>
<clustering>
<clus scale="   47.366">  2  9  1 -1</clus>
<clus scale="   90.486">  7  8 -1 -1</clus>
<clus scale="   90.802">  5  6 -1 -1</clus>
<clus scale="   98.233">  1  7  2 -1</clus>
<clus scale="   47.366">  2  5  1 -1</clus>
</clustering>
</event>
<event>
 9    1  0.1610296E-005  0.2870692E+03  0.7546771E-02  0.1117795E+00
         21   -1    0    0  501  502  0.00000000000E+00  0.00000000000E+00  0.39992678245E+03  0.39992678245E+03  0.00000000000E+00 0. -1.
          2   -1    0    0  502    0 -0.00000000000E+00 -0.00000000000E+00 -0.82105270268E+03  0.82105270268E+03  0.00000000000E+00 0. -1.
         23    2    1    2    0    0 -0.11566522459E+03  0.10928530288E+02 -0.49749645154E+02  0.15561243594E+03  0.90787257216E+02 0.  0.
         23    2    1    2    0    0 -0.12642373103E+03 -0.15016820259E+03 -0.64120858706E+03  0.67703185200E+03  0.93221390613E+02 0.  0.
        -11    1    3    3    0    0 -0.35482338221E+02  0.46694693020E+02 -0.28862985644E+02  0.65364077459E+02  0.00000000000E+00 0.  1.
         11    1    3    3    0    0 -0.80182886370E+02 -0.35766162732E+02 -0.20886659510E+02  0.90248358482E+02  0.00000000000E+00 0. -1.
        -13    1    4    4    0    0 -0.19229103011E+02  0.10477159293E+02 -0.40489583158E+02  0.46031897786E+02  0.00000000000E+00 0.  1.
         13    1    4    4    0    0 -0.10719462802E+03 -0.16064536188E+03 -0.60071900391E+03  0.63099995422E+03  0.00000000000E+00 0. -1.
          2    1    1    2  501    0  0.24208895562E+03  0.13923967230E+03  0.26983231199E+03  0.38833519718E+03  0.00000000000E+00 0. -1.
<scales pt_clust_5="13000.00000" pt_clust_6="13000.00000" pt_clust_7="13000.00000" pt_clust_8="13000.00000" pt_clust_9="271.51149"></scales>
<clustering>
<clus scale="   90.787">  5  6 -1 -1</clus>
<clus scale="   93.221">  7  8 -1 -1</clus>
<clus scale="  147.446">  2  5  1 -1</clus>
<clus scale="  271.511">  1  9  2 -1</clus>
<clus scale="  271.511">  1  5  2 -1</clus>
</clustering>
</event>
<event>
 9    1  0.1610296E-005  0.1064285E+03  0.7546771E-02  0.1268506E+00
          1   -1    0    0  502    0 -0.00000000000E+00  0.00000000000E+00  0.58714450708E+03  0.58714450708E+03  0.00000000000E+00 0. -1.
         21   -1    0    0  501  502  0.00000000000E+00 -0.00000000000E+00 -0.29894676024E+02  0.29894676024E+02  0.00000000000E+00 0.  1.
         23    2    1    2    0    0 -0.17124998112E+02  0.56909653535E+02  0.35087935562E+03  0.36813530999E+03  0.94208863897E+02 0.  0.
         23    2    1    2    0    0  0.14131194842E+02 -0.33770684635E+02  0.20256819101E+03  0.22526424311E+03  0.91487471311E+02 0.  0.
        -13    1    4    4    0    0  0.14318426206E+02 -0.64932696124E+02  0.12321473392E+03  0.14001122458E+03  0.00000000000E+00 0.  1.
         13    1    4    4    0    0 -0.18723136412E+00  0.31162011489E+02  0.79353457090E+02  0.85253018526E+02  0.00000000000E+00 0. -1.
        -13    1    3    3    0    0  0.21446966681E+02 -0.49489622288E+01  0.21440493829E+02  0.30727176613E+02  0.00000000000E+00 0.  1.
         13    1    3    3    0    0 -0.38571964793E+02  0.61858615764E+02  0.32943886179E+03  0.33740813338E+03  0.00000000000E+00 0. -1.
          1    1    1    2  501    0  0.29938032707E+01 -0.23138968901E+02  0.38022844281E+01  0.23639630003E+02  0.00000000000E+00 0. -1.
<scales pt_clust_5="13000.00000" pt_clust_6="13000.00000" pt_clust_7="13000.00000" pt_clust_8="13000.00000" pt_clust_9="23.33184"></scales>
<clustering>
<clus scale="   23.332">  2  9  1 -1</clus>
<clus scale="   91.487">  5  6 -1 -1</clus>
<clus scale="   94.209">  7  8 -1 -1</clus>
<clus scale="  104.027">  2  5  1 -1</clus>
<clus scale="   23.332">  2  5  1 -1</clus>
</clustering>
</event>
<event>
 9    1  0.1610296E-005  0.9008926E+02  0.7546771E-02  0.1307237E+00
          2   -1    0    0  502    0 -0.00000000000E+00  0.00000000000E+00  0.55538066072E+03  0.55538066072E+03  0.00000000000E+00 0. -1.
         21   -1    0    0  501  502  0.00000000000E+00 -0.00000000000E+00 -0.21287824681E+02  0.21287824681E+02  0.00000000000E+00 0. -1.
         23    2    1    2    0    0 -0.84410430965E+01  0.19584698330E+01  0.27021392588E+03  0.28261559270E+03  0.82346345910E+02 0.  0.
         23    2    1    2    0    0 -0.71331644011E+01  0.23725505290E+02  0.23343782592E+03  0.25128746126E+03  0.89657057602E+02 0.  0.
        -11    1    3    3    0    0 -0.35801902693E+02 -0.24866723492E+02  0.12295943377E+03  0.13045747402E+03  0.00000000000E+00 0.  1.
         11    1    3    3    0    0  0.27360859596E+02  0.26825193325E+02  0.14725449210E+03  0.15215811868E+03  0.00000000000E+00 0. -1.
        -11    1    4    4    0    0  0.28473157545E+02  0.13046116733E+02  0.26467983916E+02  0.41005804894E+02  0.00000000000E+00 0.  1.
         11    1    4    4    0    0 -0.35606321946E+02  0.10679388557E+02  0.20696984201E+03  0.21028165636E+03  0.00000000000E+00 0. -1.
          2    1    1    2  501    0  0.15574207498E+02 -0.25683975123E+02  0.30441084244E+02  0.42765431451E+02  0.00000000000E+00 0. -1.
<scales pt_clust_5="13000.00000" pt_clust_6="13000.00000" pt_clust_7="13000.00000" pt_clust_8="13000.00000" pt_clust_9="30.03702"></scales>
<clustering>
<clus scale="   30.037">  2  9  1 -1</clus>
<clus scale="   82.346">  5  6 -1 -1</clus>
<clus scale="   82.817">  1  5  2 -1</clus>
<clus scale="   89.657">  7  8 -1 -1</clus>
<clus scale="   30.037">  2  5  1 -1</clus>
</clustering>
</event>
<event>
 9    1  0.1610296E-005  0.1137275E+03  0.7546771E-02  0.1253905E+00
         21   -1    0    0  501  502  0.00000000000E+00  0.00000000000E+00  0.25641569480E+02  0.25641569480E+02  0.00000000000E+00 0.  1.
          2   -1    0    0  502    0 -0.00000000000E+00 -0.00000000000E+00 -0.97387739563E+03  0.97387739563E+03  0.00000000000E+00 0. -1.
         23    2    1    2    0    0 -0.22395030447E+02 -0.92972181456E+02 -0.48415728688E+03  0.50186462513E+03  0.91183658636E+02 0.  0.
         23    2    1    2    0    0  0.16584736270E+02  0.23697599848E+02 -0.16721038564E+03  0.19275529469E+03  0.91425712205E+02 0.  0.
        -11    1    4    4    0    0 -0.96574731892E+01 -0.31157322853E+02 -0.80405881021E+02  0.86770682021E+02  0.00000000000E+00 0.  1.
         11    1    4    4    0    0  0.26242209459E+02  0.54854922701E+02 -0.86804504616E+02  0.10598461267E+03  0.00000000000E+00 0. -1.
        -13    1    3    3    0    0  0.26136482300E+02 -0.64361333036E+02 -0.18860673005E+03  0.20099252602E+03  0.00000000000E+00 0.  1.
         13    1    3    3    0    0 -0.48531512747E+02 -0.28610848420E+02 -0.29555055683E+03  0.30087209911E+03  0.00000000000E+00 0. -1.
          2    1    1    2  501    0  0.58102941775E+01  0.69274581608E+02 -0.29686815363E+03  0.30489904528E+03  0.00000000000E+00 0. -1.
<scales pt_clust_5="13000.00000" pt_clust_6="13000.00000" pt_clust_7="13000.00000" pt_clust_8="13000.00000" pt_clust_9="69.51785"></scales>
<clustering>
<clus scale="   69.518">  1  9  2 -1</clus>
<clus scale="   91.184">  7  8 -1 -1</clus>
<clus scale="   91.426">  5  6 -1 -1</clus>
<clus scale="  113.533">  2  7  1 -1</clus>
<clus scale="   69.518">  1  5  2 -1</clus>
</clustering>
</event>
<event>
 9    1  0.1610296E-005  0.1305471E+03  0.7546771E-02  0.1227400E+00
         -2   -1    0    0    0  501 -0.00000000000E+00  0.00000000000E+00  0.14456346891E+03  0.14456346891E+03  0.00000000000E+00 0.  1.
         21   -1    0    0  501  502  0.00000000000E+00 -0.00000000000E+00 -0.28487885310E+03  0.28487885310E+03  0.00000000000E+00 0.  1.
         23    2    1    2    0    0  0.95269759189E+02  0.61904862488E+01  0.83868138936E+02  0.15677695277E+03  0.91817749135E+02 0.  0.
         23    2    1    2    0    0 -0.59664459589E+02  0.11175695498E+02 -0.18777765903E+03  0.21886287331E+03  0.94634899342E+02 0.  0.
        -11    1    4    4    0    0 -0.29416032654E+02  0.50784286947E+02 -0.72526406582E+02  0.93297515667E+02  0.00000000000E+00 0. -1.
         11    1    4    4    0    0 -0.30248426936E+02 -0.39608591449E+02 -0.11525125245E+03  0.12556535764E+03  0.00000000000E+00 0.  1.
        -13    1    3    3    0    0  0.88671422957E+01 -0.34116506173E+02  0.11492685719E+02  0.37076192239E+02  0.00000000000E+00 0. -1.
         13    1    3    3    0    0  0.86402616894E+02  0.40306992421E+02  0.72375453216E+02  0.11970076053E+03  0.00000000000E+00 0.  1.
         -2    1    1    2    0  502 -0.35605299600E+02 -0.17366181747E+02 -0.36405864098E+02  0.53802495934E+02  0.00000000000E+00 0.  1.
<scales pt_clust_5="13000.00000" pt_clust_6="13000.00000" pt_clust_7="13000.00000" pt_clust_8="13000.00000" pt_clust_9="39.61466"></scales>
<clustering>
<clus scale="   39.615">  2  9  1 -1</clus>
<clus scale="   91.818">  7  8 -1 -1</clus>
<clus scale="   94.635">  5  6 -1 -1</clus>
<clus scale="  128.520">  1  7  2 -1</clus>
<clus scale="   39.615">  2  5  1 -1</clus>
</clustering>
</event>
<event>
 9    1  0.1610296E-005  0.1204012E+03  0.7546771E-02  0.1242761E+00
         21   -1    0    0  501  502  0.00000000000E+00  0.00000000000E+00  0.14082039911E+03  0.14082039911E+03  0.00000000000E+00 0.  1.
          2   -1    0    0  502    0 -0.00000000000E+00 -0.00000000000E+00 -0.16554923644E+03  0.16554923644E+03  0.00000000000E+00 0. -1.
         23    2    1    2    0    0 -0.75439154644E+02  0.32216140901E+02 -0.63199998828E+02  0.13912837076E+03  0.92916725680E+02 0.  0.
         23    2    1    2    0    0  0.68782811593E+02 -0.12639282761E+02 -0.86299969207E+01  0.11580120840E+03  0.91894593855E+02 0.  0.
        -11    1    3    3    0    0 -0.12911170570E+02  0.53423841934E+02 -0.43890298225E+02  0.70336075315E+02  0.00000000000E+00 0.  1.
         11    1    3    3    0    0 -0.62527984074E+02 -0.21207701033E+02 -0.19309700603E+02  0.68792295446E+02  0.00000000000E+00 0. -1.
        -13    1    4    4    0    0  0.72250768676E+02  0.72035751141E+01 -0.36616384763E+02  0.81319276324E+02  0.00000000000E+00 0. -1.
         13    1    4    4    0    0 -0.34679570834E+01 -0.19842857875E+02  0.27986387842E+02  0.34481932072E+02  0.00000000000E+00 0.  1.
          2    1    1    2  501    0  0.66563430509E+01 -0.19576858140E+02  0.47101158422E+02  0.51440056397E+02  0.00000000000E+00 0. -1.
<scales pt_clust_5="13000.00000" pt_clust_6="13000.00000" pt_clust_7="13000.00000" pt_clust_8="13000.00000" pt_clust_9="20.67753"></scales>
<clustering>
<clus scale="   20.678">  1  9  2 -1</clus>
<clus scale="   91.895">  7  8 -1 -1</clus>
<clus scale="   92.917">  5  6 -1 -1</clus>
<clus scale="  119.614">  1  7  2 -1</clus>
<clus scale="   20.678">  1  5  2 -1</clus>
</clustering>
</event>
<event>
 9    1  0.1610296E-005  0.9847501E+02  0.7546771E-02  0.1283887E+00
         21   -1    0    0  501  502  0.00000000000E+00  0.00000000000E+00  0.26118022502E+03  0.26118022502E+03  0.00000000000E+00 0.  1.
          2   -1    0    0  502    0 -0.00000000000E+00 -0.00000000000E+00 -0.90770498552E+02  0.90770498552E+02  0.00000000000E+00 0. -1.
         23    2    1    2    0    0  0.14868749975E+02 -0.30953167376E+02 -0.37732450957E+02  0.10428512221E+03  0.90953122889E+02 0.  0.
         23    2    1    2    0    0 -0.37020770343E+02  0.41797146897E+02  0.14349936017E+03  0.17847746856E+03  0.90247445876E+02 0.  0.
        -11    1    3    3    0    0 -0.30990424186E+02 -0.24508040425E+02  0.67380146529E+01  0.40080559854E+02  0.00000000000E+00 0.  1.
         11    1    3    3    0    0  0.45859174161E+02 -0.64451269513E+01 -0.44470465610E+02  0.64204562359E+02  0.00000000000E+00 0. -1.
        -13    1    4    4    0    0 -0.64509069453E+02  0.43671517782E+02  0.11438747178E+03  0.13839478027E+03  0.00000000000E+00 0.  1.
         13    1    4    4    0    0  0.27488299111E+02 -0.18743708847E+01  0.29111888400E+02  0.40082688288E+02  0.00000000000E+00 0. -1.
          2    1    1    2  501    0  0.22152020368E+02 -0.10843979521E+02  0.64642817252E+02  0.69188132802E+02  0.00000000000E+00 0. -1.
<scales pt_clust_5="13000.00000" pt_clust_6="13000.00000" pt_clust_7="13000.00000" pt_clust_8="13000.00000" pt_clust_9="24.66382"></scales>
<clustering>
<clus scale="   24.664">  1  9  2 -1</clus>
<clus scale="   90.247">  7  8 -1 -1</clus>
<clus scale="   90.953">  5  6 -1 -1</clus>
<clus scale="   97.824">  1  7  2 -1</clus>
<clus scale="   24.664">  1  5  2 -1</clus>
</clustering>
</event>
<event>
 9    1  0.1610296E-005  0.9254835E+02  0.7546771E-02  0.1297707E+00
         21   -1    0    0  501  502  0.00000000000E+00  0.00000000000E+00  0.30818796294E+03  0.30818796294E+03  0.00000000000E+00 0. -1.
         -1   -1    0    0    0  501 -0.00000000000E+00 -0.00000000000E+00 -0.34855687929E+02  0.34855687929E+02  0.00000000000E+00 0.  1.
         23    2    1    2    0    0 -0.14026071518E+01  0.67958456089E+01  0.11423286604E+03  0.14647294581E+03  0.91416767305E+02 0.  0.
         23    2    1    2    0    0 -0.15421037666E+02 -0.18497921851E+02  0.11475791850E+03  0.14772255883E+03  0.89847609948E+02 0.  0.
        -13    1    3    3    0    0  0.16689693535E+01  0.45001850253E+02  0.30514628575E+02  0.54397560074E+02  0.00000000000E+00 0.  1.
         13    1    3    3    0    0 -0.30715765053E+01 -0.38206004644E+02  0.83718237467E+02  0.92075385732E+02  0.00000000000E+00 0. -1.
        -13    1    4    4    0    0  0.28795113101E+02  0.89091253704E+01  0.11801403845E+02  0.32369803615E+02  0.00000000000E+00 0.  1.
         13    1    4    4    0    0 -0.44216150767E+02 -0.27407047221E+02  0.10295651465E+03  0.11535275522E+03  0.00000000000E+00 0. -1.
         -1    1    1    2    0  502  0.16823644818E+02  0.11702076242E+02  0.44341490469E+02  0.48848146232E+02  0.00000000000E+00 0.  1.
<scales pt_clust_5="13000.00000" pt_clust_6="13000.00000" pt_clust_7="13000.00000" pt_clust_8="13000.00000" pt_clust_9="20.49326"></scales>
<clustering>
<clus scale="   20.493">  1  9  2 -1</clus>
<clus scale="   89.848">  7  8 -1 -1</clus>
<clus scale="   90.999">  1  7  2 -1</clus>
<clus scale="   91.417">  5  6 -1 -1</clus>
<clus scale="   20.493">  1  5  2 -1</clus>
</clustering>
</event>
<event>
 9    1  0.1610296E-005  0.1275569E+03  0.7546771E-02  0.1231441E+00
         21   -1    0    0  501  502  0.00000000000E+00  0.00000000000E+00  0.75177931488E+02  0.75177931488E+02  0.00000000000E+00 0. -1.
          1   -1    0    0  502    0 -0.00000000000E+00 -0.00000000000E+00 -0.63329411063E+03  0.63329411063E+03  0.00000000000E+00 0. -1.
         23    2    1    2    0    0  0.19544409239E+02  0.75399894905E+02 -0.40691061834E+03  0.42443492493E+03  0.92204262904E+02 0.  0.
         23    2    1    2    0    0 -0.66568265497E+02 -0.11235997049E+03 -0.15743094568E+03  0.22390355201E+03  0.91061523189E+02 0.  0.
        -11    1    3    3    0    0 -0.21537639698E+02  0.65326826346E+02 -0.16355944729E+03  0.17743493726E+03  0.00000000000E+00 0.  1.
         11    1    3    3    0    0  0.41082048938E+02  0.10073068559E+02 -0.24335117105E+03  0.24699998766E+03  0.00000000000E+00 0. -1.
        -13    1    4    4    0    0 -0.53478153127E+02 -0.92545997309E+02 -0.57864203145E+02  0.12154398580E+03  0.00000000000E+00 0. -1.
         13    1    4    4    0    0 -0.13090112370E+02 -0.19813973183E+02 -0.99566742531E+02  0.10235956620E+03  0.00000000000E+00 0.  1.
          1    1    1    2  501    0  0.47023856257E+02  0.36960075587E+02  0.62253848714E+01  0.60133565182E+02  0.00000000000E+00 0. -1.
<scales pt_clust_5="13000.00000" pt_clust_6="13000.00000" pt_clust_7="13000.00000" pt_clust_8="13000.00000" pt_clust_9="59.81045"></scales>
<clustering>
<clus scale="   59.810">  1  9  2 -1</clus>
<clus scale="   91.062">  7  8 -1 -1</clus>
<clus scale="   92.204">  5  6 -1 -1</clus>
<clus scale="  126.733">  1  7  2 -1</clus>
<clus scale="   59.810">  1  5  2 -1</clus>
</clustering>
</event>
<event>
 9    1  0.1610296E-005  0.9393658E+02  0.7546771E-02  0.1293990E+00
         21   -1    0    0  501  502  0.00000000000E+00  0.00000000000E+00  0.15934207720E+03  0.15934207720E+03  0.00000000000E+00 0.  1.
         -2   -1    0    0    0  501 -0.00000000000E+00 -0.00000000000E+00 -0.24758398310E+03  0.24758398310E+03  0.00000000000E+00 0.  1.
         23    2    1    2    0    0  0.12982510947E+02 -0.15681885777E+02 -0.98195181314E+02  0.13470838258E+03  0.89942134569E+02 0.  0.
         23    2    1    2    0    0 -0.41465345605E+02 -0.39279334998E+02 -0.10023230992E+03  0.14583385409E+03  0.89211860203E+02 0.  0.
        -11    1    3    3    0    0  0.46727010502E+02 -0.19827168503E+02 -0.31203604442E+02  0.59583513252E+02  0.00000000000E+00 0. -1.
         11    1    3    3    0    0 -0.33744499555E+02  0.41452827262E+01 -0.66991576872E+02  0.75124869324E+02  0.00000000000E+00 0.  1.
        -13    1    4    4    0    0 -0.38974997412E+02 -0.65764754226E+02 -0.58154283448E+02  0.96051933895E+02  0.00000000000E+00 0.  1.
         13    1    4    4    0    0 -0.24903481931E+01  0.26485419228E+02 -0.42078026476E+02  0.49781920191E+02  0.00000000000E+00 0. -1.
         -2    1    1    2    0  502  0.28482834658E+02  0.54961220775E+02  0.11018558535E+03  0.12638382364E+03  0.00000000000E+00 0.  1.
<scales pt_clust_5="13000.00000" pt_clust_6="13000.00000" pt_clust_7="13000.00000" pt_clust_8="13000.00000" pt_clust_9="61.90321"></scales>
<clustering>
<clus scale="   61.903">  1  9  2 -1</clus>
<clus scale="   89.212">  7  8 -1 -1</clus>
<clus scale="   89.942">  5  6 -1 -1</clus>
<clus scale="   93.238">  1  7  2 -1</clus>
<clus scale="   61.903">  1  5  2 -1</clus>
</clustering>
</event>
<event>
 9    1  0.1610296E-005  0.9252145E+02  0.7546771E-02  0.1296974E+00
         21   -1    0    0  501  502  0.00000000000E+00  0.00000000000E+00  0.11457238288E+03  0.11457238288E+03  0.00000000000E+00 0.  1.
          3   -1    0    0  502    0 -0.00000000000E+00 -0.00000000000E+00 -0.13692860808E+03  0.13692860808E+03  0.00000000000E+00 0. -1.
         23    2    1    2    0    0  0.48186571896E+01  0.30654006046E+01 -0.68890641631E+02  0.11519631779E+03  0.92150176292E+02 0.  0.
         23    2    1    2    0    0 -0.14246273513E+02  0.17907701812E+02  0.12999226003E+02  0.95643143792E+02  0.91951014048E+02 0.  0.
        -11    1    4    4    0    0  0.15301585741E+02  0.27418919466E+02  0.42485739936E+02  0.52829667506E+02  0.00000000000E+00 0.  1.
         11    1    4    4    0    0 -0.29547859254E+02 -0.95112176530E+01 -0.29486513933E+02  0.42813476286E+02  0.00000000000E+00 0. -1.
        -11    1    3    3    0    0 -0.17753172212E+02  0.39151180689E+02 -0.56248776107E+02  0.70794878957E+02  0.00000000000E+00 0.  1.
         11    1    3    3    0    0  0.22571829401E+02 -0.36085780084E+02 -0.12641865524E+02  0.44401438836E+02  0.00000000000E+00 0. -1.
          3    1    1    2  501    0  0.94276163238E+01 -0.20973102417E+02  0.33535190422E+02  0.40661529376E+02  0.00000000000E+00 0. -1.
<scales pt_clust_5="13000.00000" pt_clust_6="13000.00000" pt_clust_7="13000.00000" pt_clust_8="13000.00000" pt_clust_9="22.99459"></scales>
<clustering>
<clus scale="   22.995">  1  9  2 -1</clus>
<clus scale="   91.951">  5  6 -1 -1</clus>
<clus scale="   92.150">  7  8 -1 -1</clus>
<clus scale="   92.323">  1  5  2 -1</clus>
<clus scale="   22.995">  1  5  2 -1</clus>
</clustering>
</event>
<event>
 9    1  0.1610296E-005  0.9258569E+02  0.7546771E-02  0.1297102E+00
         21   -1    0    0  501  502  0.00000000000E+00  0.00000000000E+00  0.10763443297E+03  0.10763443297E+03  0.00000000000E+00 0. -1.
         -1   -1    0    0    0  501 -0.00000000000E+00 -0.00000000000E+00 -0.28351308454E+03  0.28351308454E+03  0.00000000000E+00 0.  1.
         23    2    1    2    0    0  0.13390690176E+01  0.75861177963E+01 -0.17694615405E+03  0.19879714848E+03  0.90283013476E+02 0.  0.
         23    2    1    2    0    0 -0.52087787585E+02 -0.58177469466E+02  0.91621066417E+01  0.12023629330E+03  0.90967392287E+02 0.  0.
        -11    1    4    4    0    0 -0.46301426744E+02 -0.80621083093E+02  0.19276103215E+02  0.94948140123E+02  0.00000000000E+00 0. -1.
         11    1    4    4    0    0 -0.57863608417E+01  0.22443613628E+02 -0.10113996573E+02  0.25288153178E+02  0.00000000000E+00 0.  1.
        -13    1    3    3    0    0  0.10420623085E+02  0.48014903761E+02 -0.99004931413E+02  0.11052600062E+03  0.00000000000E+00 0.  1.
         13    1    3    3    0    0 -0.90815540678E+01 -0.40428785965E+02 -0.77941222640E+02  0.88271147866E+02  0.00000000000E+00 0. -1.
         -1    1    1    2    0  502  0.50748718568E+02  0.50591351670E+02 -0.80946041588E+01  0.72114075717E+02  0.00000000000E+00 0.  1.
<scales pt_clust_5="13000.00000" pt_clust_6="13000.00000" pt_clust_7="13000.00000" pt_clust_8="13000.00000" pt_clust_9="71.65834"></scales>
<clustering>
<clus scale="   71.658">  1  9  2 -1</clus>
<clus scale="   90.283">  7  8 -1 -1</clus>
<clus scale="   90.967">  5  6 -1 -1</clus>
<clus scale="   91.913">  2  7  1 -1</clus>
<clus scale="   71.658">  1  5  2 -1</clus>
</clustering>
</event>
<event>
 9    1  0.1610296E-005  0.1118350E+03  0.7546771E-02  0.1257249E+00
          2   -1    0    0  502    0 -0.00000000000E+00  0.00000000000E+00  0.17490240802E+03  0.17490240802E+03  0.00000000000E+00 0. -1.
         21   -1    0    0  501  502  0.00000000000E+00 -0.00000000000E+00 -0.28596182558E+03  0.28596182558E+03  0.00000000000E+00 0. -1.
         23    2    1    2    0    0 -0.71423009697E+02 -0.27965466593E+01  0.11476840162E+03  0.16314833574E+03  0.91304580708E+02 0.  0.
         23    2    1    2    0    0  0.25678379462E+02  0.56721195662E+02 -0.82799427256E+02  0.13816164418E+03  0.91412370940E+02 0.  0.
        -11    1    3    3    0    0 -0.39387296063E+02  0.35590499178E+02  0.21401556832E+02  0.57236957971E+02  0.00000000000E+00 0. -1.
         11    1    3    3    0    0 -0.32035713633E+02 -0.38387045837E+02  0.93366844789E+02  0.10591137777E+03  0.00000000000E+00 0.  1.
        -13    1    4    4    0    0  0.28538936706E+02 -0.13084874661E+02 -0.54268767566E+02  0.62695964674E+02  0.00000000000E+00 0.  1.
         13    1    4    4    0    0 -0.28605572439E+01  0.69806070323E+02 -0.28530659689E+02  0.75465679511E+02  0.00000000000E+00 0. -1.
          2    1    1    2  501    0  0.45744630234E+02 -0.53924649002E+02 -0.14302839193E+03  0.15955425367E+03  0.00000000000E+00 0. -1.
<scales pt_clust_5="13000.00000" pt_clust_6="13000.00000" pt_clust_7="13000.00000" pt_clust_8="13000.00000" pt_clust_9="70.71378"></scales>
<clustering>
<clus scale="   70.714">  2  9  1 -1</clus>
<clus scale="   91.305">  5  6 -1 -1</clus>
<clus scale="   91.412">  7  8 -1 -1</clus>
<clus scale="  111.747">  1  5  2 -1</clus>
<clus scale="   70.714">  2  5  1 -1</clus>
</clustering>
</event>
<event>
 9    1  0.1610296E-005  0.2395561E+03  0.7546771E-02  0.1146746E+00
         21   -1    0    0  501  502  0.00000000000E+00  0.00000000000E+00  0.10585884306E+03  0.10585884306E+03  0.00000000000E+00 0. -1.
          2   -1    0    0  502    0 -0.00000000000E+00 -0.00000000000E+00 -0.95291053815E+03  0.95291053815E+03  0.00000000000E+00 0. -1.
         23    2    1    2    0    0  0.47436216922E+02 -0.67845258938E+02 -0.20158948561E+03  0.23718054244E+03  0.93611511932E+02 0.  0.
         23    2    1    2    0    0 -0.38780324912E+02  0.27061561641E+03 -0.48112285347E+03  0.56044105250E+03  0.88759493912E+02 0.  0.
        -11    1    4    4    0    0  0.59603964985E+01  0.35876075900E+02 -0.21078806489E+02  0.42034928707E+02  0.00000000000E+00 0.  1.
         11    1    4    4    0    0 -0.44740721411E+02  0.23473954051E+03 -0.46004404698E+03  0.51840612380E+03  0.00000000000E+00 0. -1.
        -13    1    3    3    0    0  0.65550906998E+02 -0.50748377608E+02 -0.19427060514E+03  0.21121881370E+03  0.00000000000E+00 0.  1.
         13    1    3    3    0    0 -0.18114690076E+02 -0.17096881330E+02 -0.73188804683E+01  0.25961728739E+02  0.00000000000E+00 0. -1.
          2    1    1    2  501    0 -0.86558920095E+01 -0.20277035747E+03 -0.16433935601E+03  0.26114778626E+03  0.00000000000E+00 0. -1.
<scales pt_clust_5="13000.00000" pt_clust_6="13000.00000" pt_clust_7="13000.00000" pt_clust_8="13000.00000" pt_clust_9="222.50594"></scales>
<clustering>
<clus scale="   88.759">  5  6 -1 -1</clus>
<clus scale="   93.612">  7  8 -1 -1</clus>
<clus scale="  124.965">  2  7  1 -1</clus>
<clus scale="  222.506">  1  9  2 -1</clus>
<clus scale="  222.506">  1  5  2 -1</clus>
</clustering>
</event>
<event>
 9    1  0.1610296E-005  0.1617150E+03  0.7546771E-02  0.1187221E+00
          1   -1    0    0  502    0 -0.00000000000E+00  0.00000000000E+00  0.11249416304E+04  0.11249416304E+04  0.00000000000E+00 0. -1.
         21   -1    0    0  501  502  0.00000000000E+00 -0.00000000000E+00 -0.27663423995E+02  0.27663423995E+02  0.00000000000E+00 0.  1.
         23    2    1    2    0    0 -0.12273286280E+03 -0.21640966965E+02  0.51890127180E+03  0.54140338809E+03  0.91254653007E+02 0.  0.
         23    2    1    2    0    0  0.14127271561E+03  0.35927073164E+02  0.46092042021E+03  0.49143584587E+03  0.88390169536E+02 0.  0.
        -11    1    3    3    0    0 -0.13842690110E+02 -0.37854522326E+02  0.20037457992E+03  0.20438825115E+03  0.00000000000E+00 0. -1.
         11    1    3    3    0    0 -0.10889017268E+03  0.16213555362E+02  0.31852669188E+03  0.33701513694E+03  0.00000000000E+00 0.  1.
        -13    1    4    4    0    0  0.18423234462E+02  0.43379308901E+02  0.11558149644E+03  0.12482092103E+03  0.00000000000E+00 0.  1.
         13    1    4    4    0    0  0.12284948115E+03 -0.74522357364E+01  0.34533892377E+03  0.36661492483E+03  0.00000000000E+00 0. -1.
          1    1    1    2  501    0 -0.18539852819E+02 -0.14286106200E+02  0.11745651440E+03  0.11976582045E+03  0.00000000000E+00 0. -1.
<scales pt_clust_5="13000.00000" pt_clust_6="13000.00000" pt_clust_7="13000.00000" pt_clust_8="13000.00000" pt_clust_9="23.40554"></scales>
<clustering>
<clus scale="   23.406">  2  9  1 -1</clus>
<clus scale="   88.390">  7  8 -1 -1</clus>
<clus scale="   91.255">  5  6 -1 -1</clus>
<clus scale="  160.116">  2  7  1 -1</clus>
<clus scale="   23.406">  2  5  1 -1</clus>
</clustering>
</event>
<event>
 9    1  0.1610296E-005  0.9767343E+02  0.7546771E-02  0.1285756E+00
         21   -1    0    0  501  502  0.00000000000E+00  0.00000000000E+00  0.74994508839E+02  0.74994508839E+02  0.00000000000E+00 0.  1.
          2   -1    0    0  502    0 -0.00000000000E+00 -0.00000000000E+00 -0.26746946336E+03  0.26746946336E+03  0.00000000000E+00 0. -1.
         23    2    1    2    0    0 -0.16491022574E+02 -0.24566798022E+02 -0.19165516589E+03  0.21412826057E+03  0.90794977676E+02 0.  0.
         23    2    1    2    0    0  0.31524698089E+02  0.41529595562E+02  0.15674040783E+01  0.10554434070E+03  0.91753131831E+02 0.  0.
        -13    1    4    4    0    0 -0.99473793284E+01 -0.23816907697E+02 -0.92038790424E+01  0.27402679380E+02  0.00000000000E+00 0. -1.
         13    1    4    4    0    0  0.41472077418E+02  0.65346503259E+02  0.10771283121E+02  0.78141661319E+02  0.00000000000E+00 0.  1.
        -13    1    3    3    0    0  0.73199862029E+01 -0.36296755677E+02 -0.18224131032E+03  0.18596486726E+03  0.00000000000E+00 0. -1.
         13    1    3    3    0    0 -0.23811008777E+02  0.11729957655E+02 -0.94138555716E+01  0.28163393302E+02  0.00000000000E+00 0.  1.
          2    1    1    2  501    0 -0.15033675515E+02 -0.16962797540E+02 -0.23871927087E+01  0.22791370931E+02  0.00000000000E+00 0. -1.
<scales pt_clust_5="13000.00000" pt_clust_6="13000.00000" pt_clust_7="13000.00000" pt_clust_8="13000.00000" pt_clust_9="22.66601"></scales>
<clustering>
<clus scale="   22.666">  1  9  2 -1</clus>
<clus scale="   90.795">  7  8 -1 -1</clus>
<clus scale="   91.753">  5  6 -1 -1</clus>
<clus scale="   96.774">  2  7  1 -1</clus>
<clus scale="   22.666">  1  5  2 -1</clus>
</clustering>
</event>
<event>
 9    1  0.1610296E-005  0.9750915E+02  0.7546771E-02  0.1286251E+00
          1   -1    0    0  502    0 -0.00000000000E+00  0.00000000000E+00  0.24828492285E+03  0.24828492285E+03  0.00000000000E+00 0. -1.
         21   -1    0    0  501  502  0.00000000000E+00 -0.00000000000E+00 -0.76315276847E+02  0.76315276847E+02  0.00000000000E+00 0.  1.
         23    2    1    2    0    0 -0.20647835302E+02  0.31621418490E+02  0.13251877484E+03  0.16547207041E+03  0.91616227768E+02 0.  0.
         23    2    1    2    0    0  0.19712862476E+01 -0.20185567599E+02  0.72477163628E+02  0.11950076294E+03  0.92823219011E+02 0.  0.
        -11    1    3    3    0    0 -0.42931938276E+02  0.52301040065E+02  0.79899342125E+02  0.10470174300E+03  0.00000000000E+00 0. -1.
         11    1    3    3    0    0  0.22284102973E+02 -0.20679621575E+02  0.52619432711E+02  0.60770327403E+02  0.00000000000E+00 0.  1.
        -11    1    4    4    0    0  0.27873414699E+02  0.14476332156E+02  0.69333483009E+02  0.76115854497E+02  0.00000000000E+00 0.  1.
         11    1    4    4    0    0 -0.25902128452E+02 -0.34661899755E+02  0.31436806190E+01  0.43384908445E+02  0.00000000000E+00 0. -1.
          1    1    1    2  501    0  0.18676549055E+02 -0.11435850891E+02 -0.33026292460E+02  0.39627366350E+02  0.00000000000E+00 0. -1.
<scales pt_clust_5="13000.00000" pt_clust_6="13000.00000" pt_clust_7="13000.00000" pt_clust_8="13000.00000" pt_clust_9="21.89959"></scales>
<clustering>
<clus scale="   21.900">  2  9  1 -1</clus>
<clus scale="   91.616">  5  6 -1 -1</clus>
<clus scale="   92.823">  7  8 -1 -1</clus>
<clus scale="   96.361">  1  5  2 -1</clus>
<clus scale="   21.900">  2  5  1 -1</clus>
</clustering>
</event>
<event>
 9    1  0.1610296E-005  0.1902683E+03  0.7546771E-02  0.1158613E+00
         21   -1    0    0  501  502  0.00000000000E+00  0.00000000000E+00  0.13563845128E+03  0.13563845128E+03  0.00000000000E+00 0. -1.
          1   -1    0    0  502    0 -0.00000000000E+00 -0.00000000000E+00 -0.82636290291E+03  0.82636290291E+03  0.00000000000E+00 0. -1.
         23    2    1    2    0    0  0.10461184022E+03  0.14516376134E+03 -0.66785355073E+03  0.69789352116E+03  0.94925480977E+02 0.  0.
         23    2    1    2    0    0 -0.75000727300E+02 -0.98210506535E+02 -0.89127920246E+02  0.17767046404E+03  0.91392532171E+02 0.  0.
        -11    1    4    4    0    0 -0.21428415658E+02  0.13666126949E+02 -0.86246031659E+00  0.25429979575E+02  0.00000000000E+00 0.  1.
         11    1    4    4    0    0 -0.53572311643E+02 -0.11187663348E+03 -0.88265459929E+02  0.15224048447E+03  0.00000000000E+00 0. -1.
        -13    1    3    3    0    0  0.48520150488E+02  0.63649222909E+02 -0.46902159588E+03  0.47580109918E+03  0.00000000000E+00 0. -1.
         13    1    3    3    0    0  0.56091689728E+02  0.81514538430E+02 -0.19883195485E+03  0.22209242198E+03  0.00000000000E+00 0.  1.
          1    1    1    2  501    0 -0.29611112915E+02 -0.46953254804E+02  0.66257019342E+02  0.86437368983E+02  0.00000000000E+00 0. -1.
<scales pt_clust_5="13000.00000" pt_clust_6="13000.00000" pt_clust_7="13000.00000" pt_clust_8="13000.00000" pt_clust_9="55.51059"></scales>
<clustering>
<clus scale="   55.511">  1  9  2 -1</clus>
<clus scale="   91.393">  5  6 -1 -1</clus>
<clus scale="   94.925">  7  8 -1 -1</clus>
<clus scale="  188.531">  1  5  2 -1</clus>
<clus scale="   55.511">  1  5  2 -1</clus>
</clustering>
</event>
<event>
 9    1  0.1610296E-005  0.1185226E+03  0.7546771E-02  0.1247312E+00
          2   -1    0    0  502    0 -0.00000000000E+00  0.00000000000E+00  0.36800334726E+02  0.36800334726E+02  0.00000000000E+00 0. -1.
         21   -1    0    0  501  502  0.00000000000E+00 -0.00000000000E+00 -0.48565767724E+03  0.48565767724E+03  0.00000000000E+00 0.  1.
         23    2    1    2    0    0 -0.58065045503E+02 -0.18361597058E+02 -0.16855773803E+03  0.20276275147E+03  0.94827868157E+02 0.  0.
         23    2    1    2    0    0  0.72426607894E+02  0.43341870778E+02 -0.20579374841E+03  0.23981165054E+03  0.89634979542E+02 0.  0.
        -11    1    4    4    0    0 -0.17012166269E+02  0.24026069048E+02 -0.71349596054E+02  0.77184393838E+02  0.00000000000E+00 0.  1.
         11    1    4    4    0    0  0.89438774163E+02  0.19315801730E+02 -0.13444415235E+03  0.16262725670E+03  0.00000000000E+00 0. -1.
        -13    1    3    3    0    0 -0.81372267838E+02 -0.49316072261E+01 -0.14777572138E+03  0.16877034856E+03  0.00000000000E+00 0.  1.
         13    1    3    3    0    0  0.23307222335E+02 -0.13429989832E+02 -0.20782016647E+02  0.33992402913E+02  0.00000000000E+00 0. -1.
          2    1    1    2  501    0 -0.14361562391E+02 -0.24980273720E+02 -0.74505856081E+02  0.79883609957E+02  0.00000000000E+00 0. -1.
<scales pt_clust_5="13000.00000" pt_clust_6="13000.00000" pt_clust_7="13000.00000" pt_clust_8="13000.00000" pt_clust_9="28.81438"></scales>
<clustering>
<clus scale="   28.814">  2  9  1 -1</clus>
<clus scale="   89.635">  5  6 -1 -1</clus>
<clus scale="   94.828">  7  8 -1 -1</clus>
<clus scale="  114.410">  2  5  1 -1</clus>
<clus scale="   28.814">  2  5  1 -1</clus>
</clustering>
</event>
<event>
 9    1  0.1610296E-005  0.9757420E+02  0.7546771E-02  0.1288679E+00
         21   -1    0    0  501  502  0.00000000000E+00  0.00000000000E+00  0.66763868640E+02  0.66763868640E+02  0.00000000000E+00 0. -1.
          1   -1    0    0  502    0 -0.00000000000E+00 -0.00000000000E+00 -0.44531354000E+03  0.44531354000E+03  0.00000000000E+00 0. -1.
         23    2    1    2    0    0  0.18479723225E+02 -0.24014370381E+02 -0.31789976893E+03  0.33318298747E+03  0.95039201898E+02 0.  0.
         23    2    1    2    0    0  0.46427966979E+02  0.91115509535E+01 -0.44743472401E+02  0.11042459722E+03  0.89179800802E+02 0.  0.
        -11    1    3    3    0    0 -0.26905531829E+02  0.22260913225E+02 -0.10853223688E+03  0.11401185177E+03  0.00000000000E+00 0.  1.
         11    1    3    3    0    0  0.45385255053E+02 -0.46275283605E+02 -0.20936753205E+03  0.21917113570E+03  0.00000000000E+00 0. -1.
        -13    1    4    4    0    0  0.66022059394E+02  0.17606446992E+02 -0.54056145608E+02  0.87126150956E+02  0.00000000000E+00 0. -1.
         13    1    4    4    0    0 -0.19594092415E+02 -0.84948960389E+01  0.93126732072E+01  0.23298446269E+02  0.00000000000E+00 0.  1.
          1    1    1    2  501    0 -0.64907690204E+02  0.14902819427E+02 -0.15906430025E+02  0.68469823942E+02  0.00000000000E+00 0. -1.
<scales pt_clust_5="13000.00000" pt_clust_6="13000.00000" pt_clust_7="13000.00000" pt_clust_8="13000.00000" pt_clust_9="66.59656"></scales>
<clustering>
<clus scale="   66.597">  1  9  2 -1</clus>
<clus scale="   89.180">  7  8 -1 -1</clus>
<clus scale="   91.877">  1  7  2 -1</clus>
<clus scale="   95.039">  5  6 -1 -1</clus>
<clus scale="   66.597">  1  5  2 -1</clus>
</clustering>
</event>
<event>
 9    1  0.1610296E-005  0.2195133E+03  0.7546771E-02  0.1134297E+00
         21   -1    0    0  501  502  0.00000000000E+00  0.00000000000E+00  0.19475325109E+03  0.19475325109E+03  0.00000000000E+00 0. -1.
         -4   -1    0    0    0  501 -0.00000000000E+00 -0.00000000000E+00 -0.10903957353E+04  0.10903957353E+04  0.00000000000E+00 0. -1.
         23    2    1    2    0    0  0.16748438811E+03  0.13034712661E+03 -0.59024276951E+03  0.63411656839E+03  0.93144520326E+02 0.  0.
         23    2    1    2    0    0  0.75001933637E+01 -0.17004623896E+03  0.92405702058E+02  0.21463263239E+03  0.92500685567E+02 0.  0.
        -11    1    3    3    0    0  0.38525008826E+02 -0.11311494878E+02 -0.97266682176E+02  0.10522800807E+03  0.00000000000E+00 0.  1.
         11    1    3    3    0    0  0.12895937928E+03  0.14165862149E+03 -0.49297608734E+03  0.52888856032E+03  0.00000000000E+00 0. -1.
        -13    1    4    4    0    0  0.31462307651E+02 -0.15539678206E+03  0.97441813858E+02  0.18609928470E+03  0.00000000000E+00 0. -1.
         13    1    4    4    0    0 -0.23962114288E+02 -0.14649456899E+02 -0.50361118003E+01  0.28533347694E+02  0.00000000000E+00 0.  1.
         -4    1    1    2    0  502 -0.17498458147E+03  0.39699112350E+02 -0.39780541678E+03  0.43639978562E+03  0.00000000000E+00 0. -1.
<scales pt_clust_5="13000.00000" pt_clust_6="13000.00000" pt_clust_7="13000.00000" pt_clust_8="13000.00000" pt_clust_9="179.43148"></scales>
<clustering>
<clus scale="   92.501">  7  8 -1 -1</clus>
<clus scale="   93.145">  5  6 -1 -1</clus>
<clus scale="  179.431">  1  9  2 -1</clus>
<clus scale="  219.241">  1  7  2 -1</clus>
<clus scale="  179.431">  1  5  2 -1</clus>
</clustering>
</event>
<event>
 9    1  0.1610296E-005  0.1279670E+03  0.7546771E-02  0.1245792E+00
         21   -1    0    0  501  502  0.00000000000E+00  0.00000000000E+00  0.33271148235E+02  0.33271148235E+02  0.00000000000E+00 0. -1.
          1   -1    0    0  502    0 -0.00000000000E+00 -0.00000000000E+00 -0.75802884711E+03  0.75802884711E+03  0.00000000000E+00 0. -1.
         23    2    1    2    0    0  0.22959966393E+02 -0.18016296351E+02 -0.24141807163E+03  0.25897143083E+03  0.89060483316E+02 0.  0.
         23    2    1    2    0    0  0.77897718395E+02  0.10285118097E+02 -0.23607893958E+03  0.26517712551E+03  0.91715887349E+02 0.  0.
        -13    1    4    4    0    0  0.92894685496E+01  0.39227500298E+02 -0.46745287065E+02  0.61726921747E+02  0.00000000000E+00 0.  1.
         13    1    4    4    0    0  0.68608249846E+02 -0.28942382201E+02 -0.18933365252E+03  0.20345020376E+03  0.00000000000E+00 0. -1.
        -13    1    3    3    0    0  0.19774093831E+02  0.34635543872E+02 -0.12383160292E+03  0.13009574001E+03  0.00000000000E+00 0.  1.
         13    1    3    3    0    0  0.31858725622E+01 -0.52651840223E+02 -0.11758646870E+03  0.12887569082E+03  0.00000000000E+00 0. -1.
          1    1    1    2  501    0 -0.10085768479E+03  0.77311782541E+01 -0.24726068767E+03  0.26715143901E+03  0.00000000000E+00 0. -1.
<scales pt_clust_5="13000.00000" pt_clust_6="13000.00000" pt_clust_7="13000.00000" pt_clust_8="13000.00000" pt_clust_9="89.23993"></scales>
<clustering>
<clus scale="   89.060">  7  8 -1 -1</clus>
<clus scale="   91.716">  5  6 -1 -1</clus>
<clus scale="   93.720">  2  7  1 -1</clus>
<clus scale="   89.240">  1  9  2 -1</clus>
<clus scale="   89.240">  1  5  2 -1</clus>
</clustering>
</event>
<event>
 9    1  0.1610296E-005  0.1236635E+03  0.7546771E-02  0.1237526E+00
         21   -1    0    0  501  502  0.00000000000E+00  0.00000000000E+00  0.40811439614E+02  0.40811439614E+02  0.00000000000E+00 0.  1.
          1   -1    0    0  502    0 -0.00000000000E+00 -0.00000000000E+00 -0.49017503769E+03  0.49017503769E+03  0.00000000000E+00 0. -1.
         23    2    1    2    0    0  0.44383472414E+02  0.62011060712E+02 -0.23025922506E+03  0.25806717167E+03  0.88114074334E+02 0.  0.
         23    2    1    2    0    0 -0.64405025046E+02 -0.80115585162E+02 -0.19360826817E+03  0.23578862104E+03  0.86865402053E+02 0.  0.
        -11    1    3    3    0    0  0.61561136138E+02  0.30691991949E+02 -0.19916307953E+03  0.21070762706E+03  0.00000000000E+00 0.  1.
         11    1    3    3    0    0 -0.17177663724E+02  0.31319068763E+02 -0.31096145525E+02  0.47359544611E+02  0.00000000000E+00 0. -1.
        -11    1    4    4    0    0 -0.34544353519E+02 -0.76442404497E+02 -0.72104928021E+02  0.11061588589E+03  0.00000000000E+00 0.  1.
         11    1    4    4    0    0 -0.29860671527E+02 -0.36731806646E+01 -0.12150334014E+03  0.12517273516E+03  0.00000000000E+00 0. -1.
          1    1    1    2  501    0  0.20021552633E+02  0.18104524450E+02 -0.25496104847E+02  0.37130684585E+02  0.00000000000E+00 0. -1.
<scales pt_clust_5="13000.00000" pt_clust_6="13000.00000" pt_clust_7="13000.00000" pt_clust_8="13000.00000" pt_clust_9="26.99327"></scales>
<clustering>
<clus scale="   26.993">  1  9  2 -1</clus>
<clus scale="   86.865">  7  8 -1 -1</clus>
<clus scale="   88.114">  5  6 -1 -1</clus>
<clus scale="  122.777">  1  7  2 -1</clus>
<clus scale="   26.993">  1  5  2 -1</clus>
</clustering>
</event>
<event>
 9    1  0.1610296E-005  0.1457410E+03  0.7546771E-02  0.1224584E+00
          1   -1    0    0  502    0 -0.00000000000E+00  0.00000000000E+00  0.41126995205E+03  0.41126995205E+03  0.00000000000E+00 0. -1.
         21   -1    0    0  501  502  0.00000000000E+00 -0.00000000000E+00 -0.90852245972E+02  0.90852245972E+02  0.00000000000E+00 0. -1.
         23    2    1    2    0    0 -0.36624268648E+02  0.84766638408E+01  0.18179984332E+03  0.20650204489E+03  0.90436279399E+02 0.  0.
         23    2    1    2    0    0  0.24731302720E+02 -0.11199312055E+03  0.10968857474E+03  0.18748133885E+03  0.99817696837E+02 0.  0.
        -11    1    4    4    0    0 -0.26176325008E+02 -0.57708816195E+02  0.90758002216E+02  0.11069111267E+03  0.00000000000E+00 0.  1.
         11    1    4    4    0    0  0.50907627728E+02 -0.54284304358E+02  0.18930572525E+02  0.76790226179E+02  0.00000000000E+00 0. -1.
        -11    1    3    3    0    0  0.21465837508E+02  0.24737314582E+02  0.97412601370E+02  0.10277125969E+03  0.00000000000E+00 0. -1.
         11    1    3    3    0    0 -0.58090106155E+02 -0.16260650741E+02  0.84387241947E+02  0.10373078520E+03  0.00000000000E+00 0.  1.
          1    1    1    2  501    0  0.11892965928E+02  0.10351645671E+03  0.28929288020E+02  0.10813881428E+03  0.00000000000E+00 0. -1.
<scales pt_clust_5="13000.00000" pt_clust_6="13000.00000" pt_clust_7="13000.00000" pt_clust_8="13000.00000" pt_clust_9="106.19265"></scales>
<clustering>
<clus scale="   90.436">  7  8 -1 -1</clus>
<clus scale="   97.938">  1  7  2 -1</clus>
<clus scale="   99.818">  5  6 -1 -1</clus>
<clus scale="  106.193">  2  9  1 -1</clus>
<clus scale="  106.193">  2  5  1 -1</clus>
</clustering>
</event>
<event>
 9    1  0.1610296E-005  0.9962005E+02  0.7546771E-02  0.1283370E+00
         21   -1    0    0  501  502  0.00000000000E+00  0.00000000000E+00  0.13524772292E+03  0.13524772292E+03  0.00000000000E+00 0. -1.
         -3   -1    0    0    0  501 -0.00000000000E+00 -0.00000000000E+00 -0.10681911252E+03  0.10681911252E+03  0.00000000000E+00 0.  1.
         23    2    1    2    0    0 -0.36868278258E+02 -0.41640730663E+02 -0.12799830269E+02  0.10783996900E+03  0.91500835340E+02 0.  0.
         23    2    1    2    0    0  0.87606878151E+01  0.19862181953E+02  0.16937317560E+02  0.91164115868E+02  0.86906658968E+02 0.  0.
        -11    1    4    4    0    0  0.37931385772E+02 -0.15748617666E+02 -0.26076364997E+01  0.41153478019E+02  0.00000000000E+00 0.  1.
         11    1    4    4    0    0 -0.29170697957E+02  0.35610799620E+02  0.19544954060E+02  0.50010637849E+02  0.00000000000E+00 0. -1.
        -11    1    3    3    0    0  0.27002536981E+02 -0.23036371547E+02 -0.20307252980E+02  0.40892492478E+02  0.00000000000E+00 0. -1.
         11    1    3    3    0    0 -0.63870815239E+02 -0.18604359117E+02  0.75074227106E+01  0.66947476526E+02  0.00000000000E+00 0.  1.
         -3    1    1    2    0  502  0.28107590443E+02  0.21778548710E+02  0.24291123111E+02  0.43062750567E+02  0.00000000000E+00 0.  1.
<scales pt_clust_5="13000.00000" pt_clust_6="13000.00000" pt_clust_7="13000.00000" pt_clust_8="13000.00000" pt_clust_9="35.55758"></scales>
<clustering>
<clus scale="   35.558">  1  9  2 -1</clus>
<clus scale="   86.907">  5  6 -1 -1</clus>
<clus scale="   91.501">  7  8 -1 -1</clus>
<clus scale="   95.418">  1  5  2 -1</clus>
<clus scale="   35.558">  1  5  2 -1</clus>
</clustering>
</event>
<event>
 9    1  0.1610296E-005  0.9787164E+02  0.7546771E-02  0.1285977E+00
          1   -1    0    0  502    0 -0.00000000000E+00  0.00000000000E+00  0.12661186940E+03  0.12661186940E+03  0.00000000000E+00 0. -1.
         21   -1    0    0  501  502  0.00000000000E+00 -0.00000000000E+00 -0.12387426602E+03  0.12387426602E+03  0.00000000000E+00 0.  1.
         23    2    1    2    0    0 -0.32768022564E+02 -0.30162361848E+02  0.33937084430E+02  0.10796227039E+03  0.92307176067E+02 0.  0.
         23    2    1    2    0    0  0.22925581115E+02 -0.28517999633E+00  0.63567450015E+01  0.93184260516E+02  0.90095696922E+02 0.  0.
        -13    1    3    3    0    0 -0.63140564108E+02 -0.21365648943E+02  0.36923416126E+02  0.76200790344E+02  0.00000000000E+00 0.  1.
         13    1    3    3    0    0  0.30372541544E+02 -0.87967129051E+01 -0.29863316961E+01  0.31761480047E+02  0.00000000000E+00 0. -1.
        -13    1    4    4    0    0 -0.99944859244E+01  0.31243424406E+02 -0.22003387794E+02  0.39499245460E+02  0.00000000000E+00 0.  1.
         13    1    4    4    0    0  0.32920067039E+02 -0.31528604402E+02  0.28360132796E+02  0.53685015056E+02  0.00000000000E+00 0. -1.
          1    1    1    2  501    0  0.98424414490E+01  0.30447541844E+02 -0.37556226050E+02  0.49339604510E+02  0.00000000000E+00 0. -1.
<scales pt_clust_5="13000.00000" pt_clust_6="13000.00000" pt_clust_7="13000.00000" pt_clust_8="13000.00000" pt_clust_9="31.99885"></scales>
<clustering>
<clus scale="   31.999">  2  9  1 -1</clus>
<clus scale="   90.096">  7  8 -1 -1</clus>
<clus scale="   92.307">  5  6 -1 -1</clus>
<clus scale="   95.789">  2  7  1 -1</clus>
<clus scale="   31.999">  2  5  1 -1</clus>
</clustering>
</event>
<event>
 9    1  0.1610296E-005  0.9862135E+02  0.7546771E-02  0.1288675E+00
         21   -1    0    0  501  502  0.00000000000E+00  0.00000000000E+00  0.32988034708E+03  0.32988034708E+03  0.00000000000E+00 0. -1.
         -1   -1    0    0    0  501 -0.00000000000E+00 -0.00000000000E+00 -0.76756217808E+02  0.76756217808E+02  0.00000000000E+00 0.  1.
         23    2    1    2    0    0 -0.36829616983E+02 -0.14070560559E+00 -0.17063794993E+02  0.89543430477E+02  0.79814863007E+02 0.  0.
         23    2    1    2    0    0  0.58360261682E+02 -0.17144265296E+02  0.26809873289E+03  0.28940372126E+03  0.90430842775E+02 0.  0.
        -11    1    3    3    0    0 -0.37158222017E+02 -0.35800324341E+02 -0.15383156299E+02  0.53842717094E+02  0.00000000000E+00 0. -1.
         11    1    3    3    0    0  0.32860503399E+00  0.35659618735E+02 -0.16806386940E+01  0.35700713383E+02  0.00000000000E+00 0.  1.
        -13    1    4    4    0    0 -0.66226863512E+01  0.28360752280E+02  0.59954628710E+02  0.66653955232E+02  0.00000000000E+00 0.  1.
         13    1    4    4    0    0  0.64982948033E+02 -0.45505017576E+02  0.20814410418E+03  0.22274976603E+03  0.00000000000E+00 0. -1.
         -1    1    1    2    0  502 -0.21530644699E+02  0.17284970902E+02  0.20891913760E+01  0.27689413154E+02  0.00000000000E+00 0.  1.
<scales pt_clust_5="13000.00000" pt_clust_6="13000.00000" pt_clust_7="13000.00000" pt_clust_8="13000.00000" pt_clust_9="27.61050"></scales>
<clustering>
<clus scale="   27.610">  1  9  2 -1</clus>
<clus scale="   79.815">  5  6 -1 -1</clus>
<clus scale="   88.988">  2  5  1 -1</clus>
<clus scale="   90.431">  7  8 -1 -1</clus>
<clus scale="   27.610">  1  5  2 -1</clus>
</clustering>
</event>
<event>
 9    1  0.1610296E-005  0.9396099E+02  0.7546771E-02  0.1298504E+00
         21   -1    0    0  501  502  0.00000000000E+00  0.00000000000E+00  0.24290574682E+02  0.24290574682E+02  0.00000000000E+00 0.  1.
          2   -1    0    0  502    0 -0.00000000000E+00 -0.00000000000E+00 -0.50453091909E+03  0.50453091909E+03  0.00000000000E+00 0. -1.
         23    2    1    2    0    0  0.13059186081E+02 -0.99864383491E+01 -0.21205074504E+03  0.22774520352E+03  0.81437632336E+02 0.  0.
         23    2    1    2    0    0 -0.37460961610E+02  0.11877108085E+02 -0.25496067093E+03  0.27325497058E+03  0.90105193428E+02 0.  0.
        -11    1    3    3    0    0 -0.28888995437E+02  0.12039679985E+02 -0.12247946873E+03  0.12641498413E+03  0.00000000000E+00 0.  1.
         11    1    3    3    0    0  0.41948181518E+02 -0.22026118334E+02 -0.89571276305E+02  0.10133021938E+03  0.00000000000E+00 0. -1.
        -13    1    4    4    0    0  0.15253275636E+02  0.25242728934E+02 -0.31009036599E+02  0.42795071357E+02  0.00000000000E+00 0. -1.
         13    1    4    4    0    0 -0.52714237246E+02 -0.13365620848E+02 -0.22395163433E+03  0.23045989922E+03  0.00000000000E+00 0.  1.
          2    1    1    2  501    0  0.24401775529E+02 -0.18906697361E+01 -0.13228928437E+02  0.27821319678E+02  0.00000000000E+00 0. -1.
<scales pt_clust_5="13000.00000" pt_clust_6="13000.00000" pt_clust_7="13000.00000" pt_clust_8="13000.00000" pt_clust_9="24.47491"></scales>
<clustering>
<clus scale="   24.475">  1  9  2 -1</clus>
<clus scale="   81.438">  5  6 -1 -1</clus>
<clus scale="   85.684">  2  5  1 -1</clus>
<clus scale="   90.105">  7  8 -1 -1</clus>
<clus scale="   24.475">  1  5  2 -1</clus>
</clustering>
</event>
<event>
 9    1  0.1610296E-005  0.1134629E+03  0.7546771E-02  0.1255183E+00
         -4   -1    0    0    0  501 -0.00000000000E+00  0.00000000000E+00  0.12686033608E+03  0.12686033608E+03  0.00000000000E+00 0.  1.
         21   -1    0    0  501  502  0.00000000000E+00 -0.00000000000E+00 -0.27839222973E+03  0.27839222973E+03  0.00000000000E+00 0.  1.
         23    2    1    2    0    0  0.18366237391E+02  0.69400413798E+02  0.51802117773E+02  0.12687502764E+03  0.90884966417E+02 0.  0.
         23    2    1    2    0    0  0.73683623077E+00 -0.50953928150E+02 -0.41117797273E+02  0.11400205220E+03  0.93321749515E+02 0.  0.
        -13    1    4    4    0    0 -0.87718947590E+00 -0.75891526022E+02 -0.14092805621E+02  0.77193913968E+02  0.00000000000E+00 0. -1.
         13    1    4    4    0    0  0.16140257067E+01  0.24937597872E+02 -0.27024991652E+02  0.36808138236E+02  0.00000000000E+00 0.  1.
        -13    1    3    3    0    0 -0.12529962400E+02  0.80854105618E+02  0.44450076303E+02  0.93113885304E+02  0.00000000000E+00 0.  1.
         13    1    3    3    0    0  0.30896199791E+02 -0.11453691820E+02  0.73520414701E+01  0.33761142332E+02  0.00000000000E+00 0. -1.
         -4    1    1    2    0  502 -0.19103073622E+02 -0.18446485648E+02 -0.16221621415E+03  0.16437548597E+03  0.00000000000E+00 0.  1.
<scales pt_clust_5="13000.00000" pt_clust_6="13000.00000" pt_clust_7="13000.00000" pt_clust_8="13000.00000" pt_clust_9="26.55561"></scales>
<clustering>
<clus scale="   26.556">  2  9  1 -1</clus>
<clus scale="   90.885">  7  8 -1 -1</clus>
<clus scale="   93.322">  5  6 -1 -1</clus>
<clus scale="  111.467">  1  7  2 -1</clus>
<clus scale="   26.556">  2  5  1 -1</clus>
</clustering>
</event>
<event>
 9    1  0.1610296E-005  0.9326660E+02  0.7546771E-02  0.1296061E+00
         -2   -1    0    0    0  501 -0.00000000000E+00  0.00000000000E+00  0.18336485869E+03  0.18336485869E+03  0.00000000000E+00 0.  1.
         21   -1    0    0  501  502  0.00000000000E+00 -0.00000000000E+00 -0.25806768380E+03  0.25806768380E+03  0.00000000000E+00 0.  1.
         23    2    1    2    0    0  0.60234385974E+01  0.88808127832E+01  0.69067554505E+02  0.11406108433E+03  0.90135748871E+02 0.  0.
         23    2    1    2    0    0  0.35894203657E+02  0.46605919464E+02  0.51159663656E+02  0.12040868867E+03  0.91762931168E+02 0.  0.
        -11    1    4    4    0    0  0.40883739934E+01  0.36811408528E+02 -0.19825076059E+02  0.42009858848E+02  0.00000000000E+00 0. -1.
         11    1    4    4    0    0  0.31805829663E+02  0.97945109364E+01  0.70984739714E+02  0.78398829821E+02  0.00000000000E+00 0.  1.
        -13    1    3    3    0    0 -0.31505259126E+02  0.20117474146E+02  0.64595851131E+02  0.74631883950E+02  0.00000000000E+00 0.  1.
         13    1    3    3    0    0  0.37528697723E+02 -0.11236661363E+02  0.44717033739E+01  0.39429200378E+02  0.00000000000E+00 0. -1.
         -2    1    1    2    0  502 -0.41917642254E+02 -0.55486732248E+02 -0.19493004327E+03  0.20696276949E+03  0.00000000000E+00 0.  1.
<scales pt_clust_5="13000.00000" pt_clust_6="13000.00000" pt_clust_7="13000.00000" pt_clust_8="13000.00000" pt_clust_9="69.54039"></scales>
<clustering>
<clus scale="   69.540">  2  9  1 -1</clus>
<clus scale="   90.136">  7  8 -1 -1</clus>
<clus scale="   91.666">  1  7  2 -1</clus>
<clus scale="   91.763">  5  6 -1 -1</clus>
<clus scale="   69.540">  2  5  1 -1</clus>
</clustering>
</event>
<event>
 9    1  0.1610296E-005  0.9036947E+02  0.7546771E-02  0.1302176E+00
         -1   -1    0    0    0  501 -0.00000000000E+00  0.00000000000E+00  0.22850146451E+03  0.22850146451E+03  0.00000000000E+00 0.  1.
         21   -1    0    0  501  502  0.00000000000E+00 -0.00000000000E+00 -0.13920095934E+03  0.13920095934E+03  0.00000000000E+00 0.  1.
         23    2    1    2    0    0  0.20115667145E+01  0.12504921301E+02  0.18814292441E+03  0.20869922041E+03  0.89426982155E+02 0.  0.
         23    2    1    2    0    0 -0.15817438366E+02  0.16185033451E+02 -0.70549983338E+02  0.11641004056E+03  0.89787809471E+02 0.  0.
        -13    1    3    3    0    0  0.25653815510E+02  0.19465740720E+02  0.17982808277E+03  0.18268873163E+03  0.00000000000E+00 0.  1.
         13    1    3    3    0    0 -0.23642248796E+02 -0.69608194197E+01  0.83148416391E+01  0.26010488780E+02  0.00000000000E+00 0. -1.
        -13    1    4    4    0    0 -0.51824234839E+02  0.86932856208E+01 -0.56177402810E+02  0.76923501728E+02  0.00000000000E+00 0.  1.
         13    1    4    4    0    0  0.36006796473E+02  0.74917478306E+01 -0.14372580527E+02  0.39486538831E+02  0.00000000000E+00 0. -1.
         -1    1    1    2    0  502  0.13805871652E+02 -0.28689954752E+02 -0.28292435893E+02  0.42593162884E+02  0.00000000000E+00 0.  1.
<scales pt_clust_5="13000.00000" pt_clust_6="13000.00000" pt_clust_7="13000.00000" pt_clust_8="13000.00000" pt_clust_9="31.83890"></scales>
<clustering>
<clus scale="   31.839">  2  9  1 -1</clus>
<clus scale="   89.427">  5  6 -1 -1</clus>
<clus scale="   89.788">  7  8 -1 -1</clus>
<clus scale="   90.011">  1  5  2 -1</clus>
<clus scale="   31.839">  2  5  1 -1</clus>
</clustering>
</event>
<event>
 9    1  0.1610296E-005  0.1037254E+03  0.7546771E-02  0.1280750E+00
         21   -1    0    0  501  502  0.00000000000E+00  0.00000000000E+00  0.14940859572E+03  0.14940859572E+03  0.00000000000E+00 0.  1.
          1   -1    0    0  502    0 -0.00000000000E+00 -0.00000000000E+00 -0.26933395638E+03  0.26933395638E+03  0.00000000000E+00 0. -1.
         23    2    1    2    0    0  0.83384000885E+01  0.44037310017E+02 -0.20460707761E+03  0.22357323052E+03  0.78180046075E+02 0.  0.
         23    2    1    2    0    0 -0.36374872005E+02 -0.19432551040E+02  0.77620707952E+00  0.10334572708E+03  0.94757487591E+02 0.  0.
        -13    1    4    4    0    0 -0.52033717398E+02 -0.44870304329E+02 -0.13843092742E+02  0.70089108809E+02  0.00000000000E+00 0. -1.
         13    1    4    4    0    0  0.15658845394E+02  0.25437753289E+02  0.14619299822E+02  0.33256618270E+02  0.00000000000E+00 0.  1.
        -13    1    3    3    0    0 -0.29480001959E+02 -0.27695678108E+01 -0.76732126526E+02  0.82246946828E+02  0.00000000000E+00 0.  1.
         13    1    3    3    0    0  0.37818402047E+02  0.46806877827E+02 -0.12787495109E+03  0.14132628369E+03  0.00000000000E+00 0. -1.
          1    1    1    2  501    0  0.28036471916E+02 -0.24604758976E+02  0.83905509867E+02  0.91823594505E+02  0.00000000000E+00 0. -1.
<scales pt_clust_5="13000.00000" pt_clust_6="13000.00000" pt_clust_7="13000.00000" pt_clust_8="13000.00000" pt_clust_9="37.30198"></scales>
<clustering>
<clus scale="   37.302">  1  9  2 -1</clus>
<clus scale="   78.180">  7  8 -1 -1</clus>
<clus scale="   88.837">  2  7  1 -1</clus>
<clus scale="   94.757">  5  6 -1 -1</clus>
<clus scale="   37.302">  1  5  2 -1</clus>
</clustering>
</event>
<event>
 9    1  0.1610296E-005  0.1344702E+03  0.7546771E-02  0.1221129E+00
         21   -1    0    0  501  502  0.00000000000E+00  0.00000000000E+00  0.28358065407E+03  0.28358065407E+03  0.00000000000E+00 0.  1.
          2   -1    0    0  502    0 -0.00000000000E+00 -0.00000000000E+00 -0.11929482581E+03  0.11929482581E+03  0.00000000000E+00 0. -1.
         23    2    1    2    0    0  0.52293296773E+02 -0.60829908782E+02  0.19453188059E+02  0.12211727375E+03  0.89996307333E+02 0.  0.
         23    2    1    2    0    0 -0.10213743476E+03  0.10323834582E+03  0.12627482234E+03  0.21273389998E+03  0.90665152157E+02 0.  0.
        -11    1    4    4    0    0  0.10011716899E+02  0.21675766505E+02  0.47714893848E+02  0.53355266130E+02  0.00000000000E+00 0. -1.
         11    1    4    4    0    0 -0.11214915166E+03  0.81562579311E+02  0.78559928494E+02  0.15937863385E+03  0.00000000000E+00 0.  1.
        -13    1    3    3    0    0  0.10510744653E+02 -0.62309641358E+02 -0.18298943250E+02  0.65786157232E+02  0.00000000000E+00 0. -1.
         13    1    3    3    0    0  0.41782552121E+02  0.14797325756E+01  0.37752131309E+02  0.56331116521E+02  0.00000000000E+00 0.  1.
          2    1    1    2  501    0  0.49844137991E+02 -0.42408437034E+02  0.18557817859E+02  0.68024306151E+02  0.00000000000E+00 0. -1.
<scales pt_clust_5="13000.00000" pt_clust_6="13000.00000" pt_clust_7="13000.00000" pt_clust_8="13000.00000" pt_clust_9="65.44401"></scales>
<clustering>
<clus scale="   65.444">  1  9  2 -1</clus>
<clus scale="   89.996">  7  8 -1 -1</clus>
<clus scale="   90.665">  5  6 -1 -1</clus>
<clus scale="  134.020">  2  7  1 -1</clus>
<clus scale="   65.444">  1  5  2 -1</clus>
</clustering>
</event>
<event>
 9    1  0.1610296E-005  0.1191719E+03  0.7546771E-02  0.1246368E+00
          3   -1    0    0  502    0 -0.00000000000E+00  0.00000000000E+00  0.69245414838E+02  0.69245414838E+02  0.00000000000E+00 0. -1.
         21   -1    0    0  501  502  0.00000000000E+00 -0.00000000000E+00 -0.39649949590E+03  0.39649949590E+03  0.00000000000E+00 0.  1.
         23    2    1    2    0    0 -0.83330139421E+02  0.29376453265E+02 -0.40753426448E+02  0.13063229594E+03  0.87161154379E+02 0.  0.
         23    2    1    2    0    0  0.59628892825E+02 -0.41168307097E+02 -0.10297255214E+03  0.14968510523E+03  0.80943497980E+02 0.  0.
        -11    1    3    3    0    0 -0.16430624266E+02  0.51068345166E+02 -0.20690334379E+02  0.57498097608E+02  0.00000000000E+00 0. -1.
         11    1    3    3    0    0 -0.66899515155E+02 -0.21691891901E+02 -0.20063092069E+02  0.73134198332E+02  0.00000000000E+00 0.  1.
        -13    1    4    4    0    0  0.40273713650E+02  0.19611883850E+02 -0.40130944670E+02  0.60142254027E+02  0.00000000000E+00 0. -1.
         13    1    4    4    0    0  0.19355179175E+02 -0.60780190947E+02 -0.62841607473E+02  0.89542851207E+02  0.00000000000E+00 0.  1.
          3    1    1    2  501    0  0.23701246596E+02  0.11791853832E+02 -0.18352810247E+03  0.18542750957E+03  0.00000000000E+00 0. -1.
<scales pt_clust_5="13000.00000" pt_clust_6="13000.00000" pt_clust_7="13000.00000" pt_clust_8="13000.00000" pt_clust_9="26.47257"></scales>
<clustering>
<clus scale="   26.473">  2  9  1 -1</clus>
<clus scale="   80.943">  7  8 -1 -1</clus>
<clus scale="   87.161">  5  6 -1 -1</clus>
<clus scale="  114.703">  2  7  1 -1</clus>
<clus scale="   26.473">  2  5  1 -1</clus>
</clustering>
</event>
<event>
 9    1  0.1610296E-005  0.1032693E+03  0.7546771E-02  0.1274454E+00
          1   -1    0    0  502    0 -0.00000000000E+00  0.00000000000E+00  0.76785678092E+03  0.76785678092E+03  0.00000000000E+00 0. -1.
         21   -1    0    0  501  502  0.00000000000E+00 -0.00000000000E+00 -0.26049478894E+02  0.26049478894E+02  0.00000000000E+00 0. -1.
         23    2    1    2    0    0  0.10099450135E+02 -0.50534826159E+02  0.35253498491E+03  0.36838968310E+03  0.93671102691E+02 0.  0.
         23    2    1    2    0    0  0.46474000747E+02  0.27808571486E+02  0.19912193483E+03  0.22583130966E+03  0.91744678856E+02 0.  0.
        -11    1    4    4    0    0  0.28510061159E+02 -0.18931315140E+02  0.19560248957E+02  0.39418544106E+02  0.00000000000E+00 0. -1.
         11    1    4    4    0    0  0.17963939589E+02  0.46739886626E+02  0.17956168588E+03  0.18641276556E+03  0.00000000000E+00 0.  1.
        -11    1    3    3    0    0 -0.35180165636E+02  0.45299552508E+01  0.12648264990E+03  0.13136219119E+03  0.00000000000E+00 0.  1.
         11    1    3    3    0    0  0.45279615772E+02 -0.55064781410E+02  0.22605233501E+03  0.23702749191E+03  0.00000000000E+00 0. -1.
          1    1    1    2  501    0 -0.56573450883E+02  0.22726254673E+02  0.19015038228E+03  0.19968526705E+03  0.00000000000E+00 0. -1.
<scales pt_clust_5="13000.00000" pt_clust_6="13000.00000" pt_clust_7="13000.00000" pt_clust_8="13000.00000" pt_clust_9="60.96755"></scales>
<clustering>
<clus scale="   60.968">  2  9  1 -1</clus>
<clus scale="   91.745">  5  6 -1 -1</clus>
<clus scale="   93.671">  7  8 -1 -1</clus>
<clus scale="  101.525">  2  5  1 -1</clus>
<clus scale="   60.968">  2  5  1 -1</clus>
</clustering>
</event>
<event>
 9    1  0.1610296E-005  0.9748124E+02  0.7546771E-02  0.1289389E+00
         -2   -1    0    0    0  501 -0.00000000000E+00  0.00000000000E+00  0.23940029643E+03  0.23940029643E+03  0.00000000000E+00 0.  1.
         21   -1    0    0  501  502  0.00000000000E+00 -0.00000000000E+00 -0.12841323060E+03  0.12841323060E+03  0.00000000000E+00 0.  1.
         23    2    1    2    0    0 -0.49082780330E+01 -0.45981226596E+02  0.11622470070E+03  0.15026167276E+03  0.83258782457E+02 0.  0.
         23    2    1    2    0    0 -0.44843702691E+01  0.24840124146E+02  0.83647100293E+02  0.12570598229E+03  0.90377072594E+02 0.  0.
        -13    1    4    4    0    0 -0.10252687719E+02 -0.20884603003E+02  0.75372977688E+02  0.78882000568E+02  0.00000000000E+00 0.  1.
         13    1    4    4    0    0  0.57683174495E+01  0.45724727149E+02  0.82741226053E+01  0.46823981718E+02  0.00000000000E+00 0. -1.
        -13    1    3    3    0    0  0.77658067449E+01 -0.29773832305E+02  0.12438019124E+03  0.12812970311E+03  0.00000000000E+00 0.  1.
         13    1    3    3    0    0 -0.12674084778E+02 -0.16207394291E+02 -0.81554905471E+01  0.22131969653E+02  0.00000000000E+00 0. -1.
         -2    1    1    2    0  502  0.93926483021E+01  0.21141102450E+02 -0.88884735163E+02  0.91845871981E+02  0.00000000000E+00 0.  1.
<scales pt_clust_5="13000.00000" pt_clust_6="13000.00000" pt_clust_7="13000.00000" pt_clust_8="13000.00000" pt_clust_9="23.13370"></scales>
<clustering>
<clus scale="   23.134">  2  9  1 -1</clus>
<clus scale="   83.259">  7  8 -1 -1</clus>
<clus scale="   90.377">  5  6 -1 -1</clus>
<clus scale="   90.921">  1  7  2 -1</clus>
<clus scale="   23.134">  2  5  1 -1</clus>
</clustering>
</event>
<event>
 9    1  0.1610296E-005  0.2070834E+03  0.7546771E-02  0.1143924E+00
         21   -1    0    0  501  502  0.00000000000E+00  0.00000000000E+00  0.39692968619E+02  0.39692968619E+02  0.00000000000E+00 0.  1.
          1   -1    0    0  502    0 -0.00000000000E+00 -0.00000000000E+00 -0.13479186295E+04  0.13479186295E+04  0.00000000000E+00 0. -1.
         23    2    1    2    0    0  0.18357464349E+03 -0.40071104113E+02 -0.64748872862E+03  0.68031782597E+03  0.91023884401E+02 0.  0.
         23    2    1    2    0    0 -0.18571723135E+03  0.17927113371E+01 -0.60675236832E+03  0.64108078868E+03  0.91334754158E+02 0.  0.
        -11    1    4    4    0    0 -0.42499807541E+02 -0.39387215965E+02 -0.17168360834E+03  0.18119836587E+03  0.00000000000E+00 0.  1.
         11    1    4    4    0    0 -0.14321742381E+03  0.41179927302E+02 -0.43506875998E+03  0.45988242281E+03  0.00000000000E+00 0. -1.
        -13    1    3    3    0    0  0.74281251125E+02 -0.18405497136E+02 -0.42108523778E+03  0.42798276142E+03  0.00000000000E+00 0. -1.
         13    1    3    3    0    0  0.10929339237E+03 -0.21665606976E+02 -0.22640349083E+03  0.25233506455E+03  0.00000000000E+00 0.  1.
          1    1    1    2  501    0  0.21425878579E+01  0.38278392775E+02 -0.53984563980E+02  0.66212983502E+02  0.00000000000E+00 0. -1.
<scales pt_clust_5="13000.00000" pt_clust_6="13000.00000" pt_clust_7="13000.00000" pt_clust_8="13000.00000" pt_clust_9="38.33831"></scales>
<clustering>
<clus scale="   38.338">  1  9  2 -1</clus>
<clus scale="   91.024">  7  8 -1 -1</clus>
<clus scale="   91.335">  5  6 -1 -1</clus>
<clus scale="  206.946">  2  7  1 -1</clus>
<clus scale="   38.338">  1  5  2 -1</clus>
</clustering>
</event>
<event>
 9    1  0.1610296E-005  0.1408634E+03  0.7546771E-02  0.1214216E+00
          1   -1    0    0  502    0 -0.00000000000E+00  0.00000000000E+00  0.57472178138E+03  0.57472178138E+03  0.00000000000E+00 0. -1.
         21   -1    0    0  501  502  0.00000000000E+00 -0.00000000000E+00 -0.56532905133E+02  0.56532905133E+02  0.00000000000E+00 0. -1.
         23    2    1    2    0    0 -0.40091453334E+02  0.12405605962E+03  0.31576533975E+03  0.35334283331E+03  0.90256177113E+02 0.  0.
         23    2    1    2    0    0  0.38300398529E+02 -0.51806851328E+02  0.12252130460E+03  0.17017363974E+03  0.98978417907E+02 0.  0.
        -13    1    3    3    0    0  0.23820925589E+02  0.80489899768E+01  0.37297409872E+02  0.44981324111E+02  0.00000000000E+00 0.  1.
         13    1    3    3    0    0 -0.63912378923E+02  0.11600706964E+03  0.27846792987E+03  0.30836150920E+03  0.00000000000E+00 0. -1.
        -13    1    4    4    0    0 -0.22211454978E+02  0.44922780529E+01  0.66682108524E+02  0.70427500961E+02  0.00000000000E+00 0.  1.
         13    1    4    4    0    0  0.60511853507E+02 -0.56299129381E+02  0.55839196071E+02  0.99746138781E+02  0.00000000000E+00 0. -1.
          1    1    1    2  501    0  0.17910548054E+01 -0.72249208292E+02  0.79902231904E+02  0.10773821346E+03  0.00000000000E+00 0. -1.
<scales pt_clust_5="13000.00000" pt_clust_6="13000.00000" pt_clust_7="13000.00000" pt_clust_8="13000.00000" pt_clust_9="72.27140"></scales>
<clustering>
<clus scale="   72.271">  2  9  1 -1</clus>
<clus scale="   90.256">  5  6 -1 -1</clus>
<clus scale="   98.978">  7  8 -1 -1</clus>
<clus scale="  134.878">  1  5  2 -1</clus>
<clus scale="   72.271">  2  5  1 -1</clus>
</clustering>
</event>
<event>
 9    1  0.1610296E-005  0.1126582E+03  0.7546771E-02  0.1256286E+00
         21   -1    0    0  501  502  0.00000000000E+00  0.00000000000E+00  0.17511360739E+03  0.17511360739E+03  0.00000000000E+00 0.  1.
          1   -1    0    0  502    0 -0.00000000000E+00 -0.00000000000E+00 -0.11277834608E+03  0.11277834608E+03  0.00000000000E+00 0. -1.
         23    2    1    2    0    0 -0.65260745649E+02  0.32018193040E+02 -0.32674331857E+02  0.12224171259E+03  0.92689237382E+02 0.  0.
         23    2    1    2    0    0  0.32546867734E+02 -0.31816269637E+02  0.80491417834E+02  0.12985895708E+03  0.91175143416E+02 0.  0.
        -11    1    3    3    0    0 -0.65704326841E+02  0.47090799831E+01  0.14759767524E+02  0.67506182956E+02  0.00000000000E+00 0.  1.
         11    1    3    3    0    0  0.44358119246E+00  0.27309113056E+02 -0.47434099381E+02  0.54735529634E+02  0.00000000000E+00 0. -1.
        -13    1    4    4    0    0  0.19515868850E+02  0.25622197852E+02  0.27493465656E+01  0.32325300715E+02  0.00000000000E+00 0. -1.
         13    1    4    4    0    0  0.13030998883E+02 -0.57438467489E+02  0.77742071268E+02  0.97533656368E+02  0.00000000000E+00 0.  1.
          1    1    1    2  501    0  0.32713877915E+02 -0.20192340270E+00  0.14518175335E+02  0.35791283805E+02  0.00000000000E+00 0. -1.
<scales pt_clust_5="13000.00000" pt_clust_6="13000.00000" pt_clust_7="13000.00000" pt_clust_8="13000.00000" pt_clust_9="32.71450"></scales>
<clustering>
<clus scale="   32.715">  1  9  2 -1</clus>
<clus scale="   91.175">  7  8 -1 -1</clus>
<clus scale="   92.689">  5  6 -1 -1</clus>
<clus scale="  111.416">  1  7  2 -1</clus>
<clus scale="   32.715">  1  5  2 -1</clus>
</clustering>
</event>
<event>
 9    1  0.1610296E-005  0.1327343E+03  0.7546771E-02  0.1224917E+00
         21   -1    0    0  501  502  0.00000000000E+00  0.00000000000E+00  0.10457526179E+03  0.10457526179E+03  0.00000000000E+00 0. -1.
          2   -1    0    0  502    0 -0.00000000000E+00 -0.00000000000E+00 -0.37012139477E+03  0.37012139477E+03  0.00000000000E+00 0. -1.
         23    2    1    2    0    0  0.36778316502E+02 -0.71745570703E+02 -0.16993401707E+03  0.20626325251E+03  0.84657472766E+02 0.  0.
         23    2    1    2    0    0 -0.87272864896E+02  0.10448040756E+03 -0.12068471202E+03  0.20324211600E+03  0.90608219764E+02 0.  0.
        -11    1    3    3    0    0  0.36876198905E+02 -0.29793100833E+02 -0.21573982087E+02  0.52085694831E+02  0.00000000000E+00 0.  1.
         11    1    3    3    0    0 -0.97882403030E-01 -0.41952469870E+02 -0.14836003499E+03  0.15417755768E+03  0.00000000000E+00 0. -1.
        -13    1    4    4    0    0 -0.84970902218E+02  0.55080468460E+02 -0.11536631296E+03  0.15350341493E+03  0.00000000000E+00 0. -1.
         13    1    4    4    0    0 -0.23019626782E+01  0.49399939099E+02 -0.53183990595E+01  0.49738701065E+02  0.00000000000E+00 0.  1.
          2    1    1    2  501    0  0.50494548394E+02 -0.32734836855E+02  0.25072596115E+02  0.65191288049E+02  0.00000000000E+00 0. -1.
<scales pt_clust_5="13000.00000" pt_clust_6="13000.00000" pt_clust_7="13000.00000" pt_clust_8="13000.00000" pt_clust_9="60.17698"></scales>
<clustering>
<clus scale="   60.177">  1  9  2 -1</clus>
<clus scale="   84.657">  5  6 -1 -1</clus>
<clus scale="   90.608">  7  8 -1 -1</clus>
<clus scale="  128.746">  2  5  1 -1</clus>
<clus scale="   60.177">  1  5  2 -1</clus>
</clustering>
</event>
<event>
 9    1  0.1610296E-005  0.1445525E+03  0.7546771E-02  0.1220757E+00
         -1   -1    0    0    0  501 -0.00000000000E+00  0.00000000000E+00  0.54504290620E+03  0.54504290620E+03  0.00000000000E+00 0.  1.
         21   -1    0    0  501  502  0.00000000000E+00 -0.00000000000E+00 -0.16834989396E+03  0.16834989396E+03  0.00000000000E+00 0.  1.
         23    2    1    2    0    0  0.51719450910E+02  0.41765414318E+02  0.38211414538E+03  0.39728335123E+03  0.86044114413E+02 0.  0.
         23    2    1    2    0    0  0.60322254538E+02 -0.81879480041E+02  0.90568623948E+02  0.16321564431E+03  0.89964700067E+02 0.  0.
        -13    1    4    4    0    0  0.44431411772E+02  0.19514367786E+01  0.55110327334E+02  0.70817417606E+02  0.00000000000E+00 0. -1.
         13    1    4    4    0    0  0.15890842766E+02 -0.83830916820E+02  0.35458296614E+02  0.92398226701E+02  0.00000000000E+00 0.  1.
        -13    1    3    3    0    0 -0.16576068363E+02  0.36451882547E+02  0.15238325190E+03  0.15755685083E+03  0.00000000000E+00 0. -1.
         13    1    3    3    0    0  0.68295519273E+02  0.53135317714E+01  0.22973089349E+03  0.23972650040E+03  0.00000000000E+00 0.  1.
         -1    1    1    2    0  502 -0.11204170545E+03  0.40114065723E+02 -0.95989757092E+02  0.15289380463E+03  0.00000000000E+00 0.  1.
<scales pt_clust_5="13000.00000" pt_clust_6="13000.00000" pt_clust_7="13000.00000" pt_clust_8="13000.00000" pt_clust_9="113.14491"></scales>
<clustering>
<clus scale="   86.044">  7  8 -1 -1</clus>
<clus scale="   89.965">  5  6 -1 -1</clus>
<clus scale="  108.733">  1  7  2 -1</clus>
<clus scale="  113.145">  2  9  1 -1</clus>
<clus scale="  113.145">  2  5  1 -1</clus>
</clustering>
</event>
<event>
 9    1  0.1610296E-005  0.1048435E+03  0.7546771E-02  0.1271182E+00
          4   -1    0    0  502    0 -0.00000000000E+00  0.00000000000E+00  0.35429423419E+02  0.35429423419E+02  0.00000000000E+00 0. -1.
         21   -1    0    0  501  502  0.00000000000E+00 -0.00000000000E+00 -0.49063510007E+03  0.49063510007E+03  0.00000000000E+00 0. -1.
         23    2    1    2    0    0 -0.31411163829E+02 -0.34537954493E+02 -0.11702316677E+03  0.15563411379E+03  0.91367523224E+02 0.  0.
         23    2    1    2    0    0  0.10846150955E+02  0.66742885236E+02 -0.26690862371E+03  0.28955987014E+03  0.89623954756E+02 0.  0.
        -13    1    4    4    0    0 -0.15192343503E+02 -0.17357044554E+02 -0.73992593367E+02  0.77504697728E+02  0.00000000000E+00 0.  1.
         13    1    4    4    0    0  0.26038494458E+02  0.84099929790E+02 -0.19291603034E+03  0.21205517241E+03  0.00000000000E+00 0. -1.
        -13    1    3    3    0    0 -0.19511599372E+02 -0.65834407516E+02 -0.85374391866E+02  0.10956120896E+03  0.00000000000E+00 0.  1.
         13    1    3    3    0    0 -0.11899564456E+02  0.31296453023E+02 -0.31648774906E+02  0.46072904826E+02  0.00000000000E+00 0. -1.
          4    1    1    2  501    0  0.20565012874E+02 -0.32204930743E+02 -0.71273886171E+02  0.80870539559E+02  0.00000000000E+00 0. -1.
<scales pt_clust_5="13000.00000" pt_clust_6="13000.00000" pt_clust_7="13000.00000" pt_clust_8="13000.00000" pt_clust_9="38.21096"></scales>
<clustering>
<clus scale="   38.211">  2  9  1 -1</clus>
<clus scale="   89.624">  5  6 -1 -1</clus>
<clus scale="   91.368">  7  8 -1 -1</clus>
<clus scale="  103.328">  2  5  1 -1</clus>
<clus scale="   38.211">  2  5  1 -1</clus>
</clustering>
</event>
<event>
 9    1  0.1610296E-005  0.2806943E+03  0.7546771E-02  0.1095689E+00
          1   -1    0    0  502    0 -0.00000000000E+00  0.00000000000E+00  0.34730186355E+03  0.34730186355E+03  0.00000000000E+00 0. -1.
         21   -1    0    0  501  502  0.00000000000E+00 -0.00000000000E+00 -0.29325204929E+03  0.29325204929E+03  0.00000000000E+00 0.  1.
         23    2    1    2    0    0 -0.23896659660E+03  0.12863023596E+03  0.91744028152E+02  0.30369373926E+03  0.10080748322E+03 0.  0.
         23    2    1    2    0    0  0.22688279527E+03 -0.10809545674E+03  0.25695145270E+02  0.26914085382E+03  0.92823101362E+02 0.  0.
        -11    1    4    4    0    0  0.11236223294E+03 -0.47995341936E+02 -0.33810751107E+02  0.12677535694E+03  0.00000000000E+00 0.  1.
         11    1    4    4    0    0  0.11452056234E+03 -0.60100114802E+02  0.59505896377E+02  0.14236549688E+03  0.00000000000E+00 0. -1.
        -13    1    3    3    0    0 -0.23250091833E+03  0.96277237442E+02  0.98104547084E+02  0.27009347573E+03  0.00000000000E+00 0. -1.
         13    1    3    3    0    0 -0.64656782685E+01  0.32352998513E+02 -0.63605189315E+01  0.33600263531E+02  0.00000000000E+00 0.  1.
          1    1    1    2  501    0  0.12083801327E+02 -0.20534779218E+02 -0.63389359166E+02  0.67719319751E+02  0.00000000000E+00 0. -1.
<scales pt_clust_5="13000.00000" pt_clust_6="13000.00000" pt_clust_7="13000.00000" pt_clust_8="13000.00000" pt_clust_9="23.82636"></scales>
<clustering>
<clus scale="   23.826">  2  9  1 -1</clus>
<clus scale="   92.823">  5  6 -1 -1</clus>
<clus scale="  100.807">  7  8 -1 -1</clus>
<clus scale="  277.927">  2  5  1 -1</clus>
<clus scale="   23.826">  2  5  1 -1</clus>
</clustering>
</event>
<event>
 9    1  0.1610296E-005  0.9628084E+02  0.7546771E-02  0.1289606E+00
          1   -1    0    0  502    0 -0.00000000000E+00  0.00000000000E+00  0.28393682698E+03  0.28393682698E+03  0.00000000000E+00 0. -1.
         21   -1    0    0  501  502  0.00000000000E+00 -0.00000000000E+00 -0.27528387533E+03  0.27528387533E+03  0.00000000000E+00 0. -1.
         23    2    1    2    0    0  0.76618147356E+01  0.11678122018E+02  0.11248529439E+03  0.14416698097E+03  0.89084763066E+02 0.  0.
         23    2    1    2    0    0  0.58761959086E+01 -0.50377172772E+02  0.13608718610E+03  0.17165636191E+03  0.91508443048E+02 0.  0.
        -11    1    4    4    0    0  0.18275226172E+02 -0.66639479505E+02  0.13441729534E+03  0.15113839157E+03  0.00000000000E+00 0. -1.
         11    1    4    4    0    0 -0.12399030264E+02  0.16262306732E+02  0.16698907604E+01  0.20517970340E+02  0.00000000000E+00 0.  1.
        -13    1    3    3    0    0 -0.35329077095E+02 -0.67356464644E+01  0.78524060933E+02  0.86368633005E+02  0.00000000000E+00 0.  1.
         13    1    3    3    0    0  0.42990891831E+02  0.18413768482E+02  0.33961233454E+02  0.57798347968E+02  0.00000000000E+00 0. -1.
          1    1    1    2  501    0 -0.13538010644E+02  0.38699050755E+02 -0.23991952883E+03  0.24339735943E+03  0.00000000000E+00 0. -1.
<scales pt_clust_5="13000.00000" pt_clust_6="13000.00000" pt_clust_7="13000.00000" pt_clust_8="13000.00000" pt_clust_9="40.99871"></scales>
<clustering>
<clus scale="   40.999">  2  9  1 -1</clus>
<clus scale="   89.085">  7  8 -1 -1</clus>
<clus scale="   91.508">  5  6 -1 -1</clus>
<clus scale="   93.980">  1  7  2 -1</clus>
<clus scale="   40.999">  2  5  1 -1</clus>
</clustering>
</event>
<event>
 9    1  0.1610296E-005  0.1036999E+03  0.7546771E-02  0.1273362E+00
         21   -1    0    0  501  502  0.00000000000E+00  0.00000000000E+00  0.76551017273E+02  0.76551017273E+02  0.00000000000E+00 0.  1.
          2   -1    0    0  502    0 -0.00000000000E+00 -0.00000000000E+00 -0.19857313798E+03  0.19857313798E+03  0.00000000000E+00 0. -1.
         23    2    1    2    0    0  0.84339049160E+01  0.37795692571E+02 -0.82942193326E+02  0.12999975968E+03  0.92308639645E+02 0.  0.
         23    2    1    2    0    0 -0.25357917538E+02 -0.59030873377E+02 -0.23156702003E+02  0.11364576452E+03  0.90837541529E+02 0.  0.
        -11    1    3    3    0    0  0.40492959036E+02  0.15521683122E+02 -0.60769009187E+01  0.43789623237E+02  0.00000000000E+00 0.  1.
         11    1    3    3    0    0 -0.32059054120E+02  0.22274009448E+02 -0.76865292407E+02  0.86210136439E+02  0.00000000000E+00 0. -1.
        -13    1    4    4    0    0  0.23136374198E+02 -0.43707413110E+02  0.13133913245E+02  0.51167660186E+02  0.00000000000E+00 0.  1.
         13    1    4    4    0    0 -0.48494291736E+02 -0.15323460268E+02 -0.36290615248E+02  0.62478104330E+02  0.00000000000E+00 0. -1.
          2    1    1    2  501    0  0.16924012622E+02  0.21235180806E+02 -0.15923225380E+02  0.31478631063E+02  0.00000000000E+00 0. -1.
<scales pt_clust_5="13000.00000" pt_clust_6="13000.00000" pt_clust_7="13000.00000" pt_clust_8="13000.00000" pt_clust_9="27.15430"></scales>
<clustering>
<clus scale="   27.154">  1  9  2 -1</clus>
<clus scale="   90.838">  7  8 -1 -1</clus>
<clus scale="   92.309">  5  6 -1 -1</clus>
<clus scale="  102.393">  1  7  2 -1</clus>
<clus scale="   27.154">  1  5  2 -1</clus>
</clustering>
</event>
<event>
 9    1  0.1610296E-005  0.9759701E+02  0.7546771E-02  0.1286179E+00
         21   -1    0    0  501  502  0.00000000000E+00  0.00000000000E+00  0.96434313508E+02  0.96434313508E+02  0.00000000000E+00 0.  1.
         -3   -1    0    0    0  501 -0.00000000000E+00 -0.00000000000E+00 -0.21074663038E+03  0.21074663038E+03  0.00000000000E+00 0.  1.
         23    2    1    2    0    0 -0.13881538049E+02  0.39802423127E+01 -0.95592689961E+02  0.13330399390E+03  0.91779371256E+02 0.  0.
         23    2    1    2    0    0  0.66537502273E+02  0.14784059264E+02 -0.23263310190E+02  0.11779313200E+03  0.93210689992E+02 0.  0.
        -11    1    4    4    0    0 -0.19304193746E+02  0.21193572271E+02 -0.16716539050E+00  0.28667880042E+02  0.00000000000E+00 0. -1.
         11    1    4    4    0    0  0.85841696019E+02 -0.64095130072E+01 -0.23096144799E+02  0.89125251960E+02  0.00000000000E+00 0.  1.
        -13    1    3    3    0    0 -0.32171561899E+02 -0.22869257494E+02 -0.92621161917E+02  0.10068114008E+03  0.00000000000E+00 0.  1.
         13    1    3    3    0    0  0.18290023850E+02  0.26849499807E+02 -0.29715280439E+01  0.32622853818E+02  0.00000000000E+00 0. -1.
         -3    1    1    2    0  502 -0.52655964224E+02 -0.18764301577E+02  0.45436832805E+01  0.56083817985E+02  0.00000000000E+00 0.  1.
<scales pt_clust_5="13000.00000" pt_clust_6="13000.00000" pt_clust_7="13000.00000" pt_clust_8="13000.00000" pt_clust_9="55.89946"></scales>
<clustering>
<clus scale="   55.899">  1  9  2 -1</clus>
<clus scale="   91.779">  7  8 -1 -1</clus>
<clus scale="   93.211">  5  6 -1 -1</clus>
<clus scale="   96.231">  2  7  1 -1</clus>
<clus scale="   55.899">  1  5  2 -1</clus>
</clustering>
</event>
<event>
 9    1  0.1610296E-005  0.2445534E+03  0.7546771E-02  0.1117237E+00
         21   -1    0    0  501  502  0.00000000000E+00  0.00000000000E+00  0.41558231995E+02  0.41558231995E+02  0.00000000000E+00 0.  1.
          2   -1    0    0  502    0 -0.00000000000E+00 -0.00000000000E+00 -0.16486949013E+04  0.16486949013E+04  0.00000000000E+00 0. -1.
         23    2    1    2    0    0  0.21740295263E+03  0.55103823409E+02 -0.79355410398E+03  0.82872418137E+03  0.82189887888E+02 0.  0.
         23    2    1    2    0    0 -0.21577074949E+03 -0.85372207991E+02 -0.76313889167E+03  0.80267826456E+03  0.89810902366E+02 0.  0.
        -11    1    4    4    0    0 -0.77427868274E+02 -0.27559076148E+02 -0.42372368602E+03  0.43162059677E+03  0.00000000000E+00 0. -1.
         11    1    4    4    0    0 -0.13834288122E+03 -0.57813131843E+02 -0.33941520564E+03  0.37105766778E+03  0.00000000000E+00 0.  1.
        -13    1    3    3    0    0  0.27189999540E+02 -0.20514625848E+02 -0.12225253253E+03  0.12690873752E+03  0.00000000000E+00 0.  1.
         13    1    3    3    0    0  0.19021295309E+03  0.75618449257E+02 -0.67130157146E+03  0.70181544385E+03  0.00000000000E+00 0. -1.
          2    1    1    2  501    0 -0.16322031380E+01  0.30268384581E+02 -0.50443673673E+02  0.58850687387E+02  0.00000000000E+00 0. -1.
<scales pt_clust_5="13000.00000" pt_clust_6="13000.00000" pt_clust_7="13000.00000" pt_clust_8="13000.00000" pt_clust_9="30.31236"></scales>
<clustering>
<clus scale="   30.312">  1  9  2 -1</clus>
<clus scale="   82.190">  7  8 -1 -1</clus>
<clus scale="   89.811">  5  6 -1 -1</clus>
<clus scale="  241.859">  2  7  1 -1</clus>
<clus scale="   30.312">  1  5  2 -1</clus>
</clustering>
</event>
<event>
 9    1  0.1610296E-005  0.1297463E+03  0.7546771E-02  0.1229323E+00
          2   -1    0    0  502    0 -0.00000000000E+00  0.00000000000E+00  0.89866378815E+03  0.89866378815E+03  0.00000000000E+00 0. -1.
         21   -1    0    0  501  502  0.00000000000E+00 -0.00000000000E+00 -0.27105573568E+02  0.27105573568E+02  0.00000000000E+00 0. -1.
         23    2    1    2    0    0 -0.75445606922E+02 -0.58374212012E+02  0.54789460583E+03  0.56336705150E+03  0.89968591108E+02 0.  0.
         23    2    1    2    0    0  0.52541715769E+02  0.77005235782E+02  0.29758976462E+03  0.32301260821E+03  0.84184552150E+02 0.  0.
        -11    1    4    4    0    0  0.64907966171E+02  0.31322788101E+02  0.12748077446E+03  0.14644285228E+03  0.00000000000E+00 0.  1.
         11    1    4    4    0    0 -0.12366250402E+02  0.45682447681E+02  0.17010899016E+03  0.17656975593E+03  0.00000000000E+00 0. -1.
        -13    1    3    3    0    0 -0.90906680009E+01  0.18175781201E+02  0.34232580303E+02  0.39810410965E+02  0.00000000000E+00 0.  1.
         13    1    3    3    0    0 -0.66354938921E+02 -0.76549993213E+02  0.51366202552E+03  0.52355664053E+03  0.00000000000E+00 0. -1.
          2    1    1    2  501    0  0.22903891153E+02 -0.18631023770E+02  0.26073844130E+02  0.39389702010E+02  0.00000000000E+00 0. -1.
<scales pt_clust_5="13000.00000" pt_clust_6="13000.00000" pt_clust_7="13000.00000" pt_clust_8="13000.00000" pt_clust_9="29.52462"></scales>
<clustering>
<clus scale="   29.525">  2  9  1 -1</clus>
<clus scale="   84.185">  5  6 -1 -1</clus>
<clus scale="   89.969">  7  8 -1 -1</clus>
<clus scale="  125.805">  2  5  1 -1</clus>
<clus scale="   29.525">  2  5  1 -1</clus>
</clustering>
</event>
<event>
 9    1  0.1610296E-005  0.1208935E+03  0.7546771E-02  0.1249886E+00
         21   -1    0    0  501  502  0.00000000000E+00  0.00000000000E+00  0.11593988280E+03  0.11593988280E+03  0.00000000000E+00 0.  1.
          3   -1    0    0  502    0 -0.00000000000E+00 -0.00000000000E+00 -0.42961258714E+03  0.42961258714E+03  0.00000000000E+00 0. -1.
         23    2    1    2    0    0  0.27612955751E+02 -0.42097737703E+02 -0.13292384475E+03  0.16778858353E+03  0.89160335422E+02 0.  0.
         23    2    1    2    0    0  0.78325143758E+02  0.26241172365E+01  0.44090010289E+02  0.12610227820E+03  0.88408944250E+02 0.  0.
        -13    1    4    4    0    0  0.19571522203E+02  0.42730227637E+02  0.18220053562E+02  0.50407213641E+02  0.00000000000E+00 0. -1.
         13    1    4    4    0    0  0.58753621554E+02 -0.40106110400E+02  0.25869956728E+02  0.75695064557E+02  0.00000000000E+00 0.  1.
        -13    1    3    3    0    0  0.58789734750E+02 -0.38239070829E+02 -0.10134982926E+03  0.12324872146E+03  0.00000000000E+00 0.  1.
         13    1    3    3    0    0 -0.31176778998E+02 -0.38586668741E+01 -0.31574015496E+02  0.44539862071E+02  0.00000000000E+00 0. -1.
          3    1    1    2  501    0 -0.10593809951E+03  0.39473620467E+02 -0.22483886988E+03  0.25166160821E+03  0.00000000000E+00 0. -1.
<scales pt_clust_5="13000.00000" pt_clust_6="13000.00000" pt_clust_7="13000.00000" pt_clust_8="13000.00000" pt_clust_9="82.45666"></scales>
<clustering>
<clus scale="   88.409">  5  6 -1 -1</clus>
<clus scale="   89.160">  7  8 -1 -1</clus>
<clus scale="  102.393">  2  7  1 -1</clus>
<clus scale="   82.457">  1  9  2 -1</clus>
<clus scale="   82.457">  1  5  2 -1</clus>
</clustering>
</event>
<event>
 9    1  0.1610296E-005  0.1189944E+03  0.7546771E-02  0.1256333E+00
         -3   -1    0    0    0  501 -0.00000000000E+00  0.00000000000E+00  0.31760778768E+03  0.31760778768E+03  0.00000000000E+00 0.  1.
         21   -1    0    0  501  502  0.00000000000E+00 -0.00000000000E+00 -0.59247192652E+02  0.59247192652E+02  0.00000000000E+00 0. -1.
         23    2    1    2    0    0  0.46821298274E+01 -0.45036946852E+02  0.15999030684E+03  0.18858636530E+03  0.88981290012E+02 0.  0.
         23    2    1    2    0    0 -0.10316196633E+02  0.10376899969E+00  0.73307886823E+02  0.13651093790E+03  0.11469418126E+03 0.  0.
        -11    1    4    4    0    0  0.15899481052E+02  0.25011968060E+02 -0.20458510182E+02  0.36013090437E+02  0.00000000000E+00 0.  1.
         11    1    4    4    0    0 -0.26215677685E+02 -0.24908199061E+02  0.93766397005E+02  0.10049784746E+03  0.00000000000E+00 0. -1.
        -13    1    3    3    0    0  0.27157863506E+02  0.15141498462E+02  0.81060005022E+02  0.86819001031E+02  0.00000000000E+00 0.  1.
         13    1    3    3    0    0 -0.22475733679E+02 -0.60178445314E+02  0.78930301817E+02  0.10176736427E+03  0.00000000000E+00 0. -1.
         -3    1    1    2    0  502  0.56340668056E+01  0.44933177852E+02  0.25062401370E+02  0.51757677142E+02  0.00000000000E+00 0.  1.
<scales pt_clust_5="13000.00000" pt_clust_6="13000.00000" pt_clust_7="13000.00000" pt_clust_8="13000.00000" pt_clust_9="45.28502"></scales>
<clustering>
<clus scale="   45.285">  2  9  1 -1</clus>
<clus scale="   88.981">  7  8 -1 -1</clus>
<clus scale="   94.459">  1  7  2 -1</clus>
<clus scale="  114.694">  5  6 -1 -1</clus>
<clus scale="   45.285">  2  5  1 -1</clus>
</clustering>
</event>
<event>
 9    1  0.1610296E-005  0.1049763E+03  0.7546771E-02  0.1274755E+00
         21   -1    0    0  501  502  0.00000000000E+00  0.00000000000E+00  0.10438708306E+03  0.10438708306E+03  0.00000000000E+00 0.  1.
          1   -1    0    0  502    0 -0.00000000000E+00 -0.00000000000E+00 -0.18844748598E+03  0.18844748598E+03  0.00000000000E+00 0. -1.
         23    2    1    2    0    0 -0.12762542869E+02  0.38024577353E+02 -0.65140227877E+02  0.11763634229E+03  0.89366149949E+02 0.  0.
         23    2    1    2    0    0 -0.11057361482E+02 -0.32273647059E+02 -0.64913847480E+02  0.12308413127E+03  0.98853640493E+02 0.  0.
        -13    1    4    4    0    0 -0.12995745615E+02  0.19175880325E+02  0.15305106547E+02  0.27764186945E+02  0.00000000000E+00 0.  1.
         13    1    4    4    0    0  0.19383841335E+01 -0.51449527384E+02 -0.80218954026E+02  0.95319944325E+02  0.00000000000E+00 0. -1.
        -13    1    3    3    0    0 -0.30211037622E+01  0.58912334829E+02 -0.12680903843E+02  0.60337348179E+02  0.00000000000E+00 0.  1.
         13    1    3    3    0    0 -0.97414391073E+01 -0.20887757476E+02 -0.52459324035E+02  0.57298994114E+02  0.00000000000E+00 0. -1.
          1    1    1    2  501    0  0.23819904351E+02 -0.57509302937E+01  0.45993672436E+02  0.52114095471E+02  0.00000000000E+00 0. -1.
<scales pt_clust_5="13000.00000" pt_clust_6="13000.00000" pt_clust_7="13000.00000" pt_clust_8="13000.00000" pt_clust_9="24.50431"></scales>
<clustering>
<clus scale="   24.504">  1  9  2 -1</clus>
<clus scale="   89.366">  7  8 -1 -1</clus>
<clus scale="   96.095">  2  7  1 -1</clus>
<clus scale="   98.854">  5  6 -1 -1</clus>
<clus scale="   24.504">  1  5  2 -1</clus>
</clustering>
</event>
<event>
 9    1  0.1610296E-005  0.1031054E+03  0.7546771E-02  0.1274536E+00
          3   -1    0    0  502    0 -0.00000000000E+00  0.00000000000E+00  0.20459005885E+03  0.20459005885E+03  0.00000000000E+00 0. -1.
         21   -1    0    0  501  502  0.00000000000E+00 -0.00000000000E+00 -0.84617464557E+02  0.84617464557E+02  0.00000000000E+00 0. -1.
         23    2    1    2    0    0  0.55672768693E+02  0.45010247592E+00  0.11827248309E+03  0.15993268735E+03  0.92143499278E+02 0.  0.
         23    2    1    2    0    0 -0.24423870689E+02 -0.14349728026E+02  0.18758950979E+01  0.95073606304E+02  0.90736053912E+02 0.  0.
        -11    1    3    3    0    0  0.77645735798E+02  0.16203696258E+02  0.98346170957E+02  0.12634630743E+03  0.00000000000E+00 0. -1.
         11    1    3    3    0    0 -0.21972967105E+02 -0.15753593782E+02  0.19926312134E+02  0.33586379913E+02  0.00000000000E+00 0.  1.
        -13    1    4    4    0    0  0.70091712305E+01 -0.33005903020E+02 -0.31067599899E+02  0.45866260792E+02  0.00000000000E+00 0. -1.
         13    1    4    4    0    0 -0.31433041919E+02  0.18656174995E+02  0.32943494997E+02  0.49207345512E+02  0.00000000000E+00 0.  1.
          3    1    1    2  501    0 -0.31248898005E+02  0.13899625550E+02 -0.17578389489E+00  0.34201229757E+02  0.00000000000E+00 0. -1.
<scales pt_clust_5="13000.00000" pt_clust_6="13000.00000" pt_clust_7="13000.00000" pt_clust_8="13000.00000" pt_clust_9="34.20078"></scales>
<clustering>
<clus scale="   34.201">  2  9  1 -1</clus>
<clus scale="   90.736">  7  8 -1 -1</clus>
<clus scale="   92.143">  5  6 -1 -1</clus>
<clus scale="  101.849">  2  7  1 -1</clus>
<clus scale="   34.201">  2  5  1 -1</clus>
</clustering>
</event>
<event>
 9    1  0.1610296E-005  0.1154387E+03  0.7546771E-02  0.1252144E+00
         21   -1    0    0  501  502  0.00000000000E+00  0.00000000000E+00  0.34294341575E+03  0.34294341575E+03  0.00000000000E+00 0. -1.
          1   -1    0    0  502    0 -0.00000000000E+00 -0.00000000000E+00 -0.95663595191E+02  0.95663595191E+02  0.00000000000E+00 0. -1.
         23    2    1    2    0    0 -0.88672768914E+02  0.22014292990E+02  0.71955688698E+01  0.12994960210E+03  0.92128355206E+02 0.  0.
         23    2    1    2    0    0  0.23404537951E+02 -0.47084763905E+02  0.68905685513E+02  0.12375048089E+03  0.88325764280E+02 0.  0.
        -11    1    4    4    0    0 -0.16610977587E+02  0.14976617282E+02 -0.55387783883E+00  0.22372537234E+02  0.00000000000E+00 0.  1.
         11    1    4    4    0    0  0.40015515538E+02 -0.62061381188E+02  0.69459563352E+02  0.10137794366E+03  0.00000000000E+00 0. -1.
        -11    1    3    3    0    0  0.10073607707E+02  0.27938986144E+02 -0.55315310906E+01  0.30210302137E+02  0.00000000000E+00 0.  1.
         11    1    3    3    0    0 -0.98746376621E+02 -0.59246931535E+01  0.12727099960E+02  0.99739299968E+02  0.00000000000E+00 0. -1.
          1    1    1    2  501    0  0.65268230964E+02  0.25070470915E+02  0.17117856618E+03  0.18490692795E+03  0.00000000000E+00 0. -1.
<scales pt_clust_5="13000.00000" pt_clust_6="13000.00000" pt_clust_7="13000.00000" pt_clust_8="13000.00000" pt_clust_9="69.91760"></scales>
<clustering>
<clus scale="   69.918">  1  9  2 -1</clus>
<clus scale="   88.326">  5  6 -1 -1</clus>
<clus scale="   92.128">  7  8 -1 -1</clus>
<clus scale="  112.427">  1  5  2 -1</clus>
<clus scale="   69.918">  1  5  2 -1</clus>
</clustering>
</event>
<event>
 9    1  0.1610296E-005  0.1009318E+03  0.7546771E-02  0.1279756E+00
         21   -1    0    0  501  502  0.00000000000E+00  0.00000000000E+00  0.22241219272E+03  0.22241219272E+03  0.00000000000E+00 0. -1.
          3   -1    0    0  502    0 -0.00000000000E+00 -0.00000000000E+00 -0.59997664483E+02  0.59997664483E+02  0.00000000000E+00 0. -1.
         23    2    1    2    0    0 -0.17334721040E+02  0.40030554918E+02  0.41837321690E+02  0.10951105309E+03  0.91320158681E+02 0.  0.
         23    2    1    2    0    0  0.62231689888E+00 -0.27833834904E+02  0.77499849191E+02  0.12511048809E+03  0.94187567985E+02 0.  0.
        -13    1    3    3    0    0  0.85507581255E+00  0.57547417615E+02  0.56214825453E+02  0.80452116377E+02  0.00000000000E+00 0. -1.
         13    1    3    3    0    0 -0.18189796853E+02 -0.17516862697E+02 -0.14377503763E+02  0.29058936711E+02  0.00000000000E+00 0.  1.
        -13    1    4    4    0    0  0.43235569593E+02  0.61920530455E+01  0.33663511931E+02  0.55144247520E+02  0.00000000000E+00 0. -1.
         13    1    4    4    0    0 -0.42613252694E+02 -0.34025887949E+02  0.43836337259E+02  0.69966240575E+02  0.00000000000E+00 0.  1.
          3    1    1    2  501    0  0.16712404141E+02 -0.12196720014E+02  0.43077357355E+02  0.47788316020E+02  0.00000000000E+00 0. -1.
<scales pt_clust_5="13000.00000" pt_clust_6="13000.00000" pt_clust_7="13000.00000" pt_clust_8="13000.00000" pt_clust_9="20.68972"></scales>
<clustering>
<clus scale="   20.690">  1  9  2 -1</clus>
<clus scale="   91.320">  5  6 -1 -1</clus>
<clus scale="   94.188">  7  8 -1 -1</clus>
<clus scale="   98.261">  2  5  1 -1</clus>
<clus scale="   20.690">  1  5  2 -1</clus>
</clustering>
</event>
<event>
 9    1  0.1610296E-005  0.1722498E+03  0.7546771E-02  0.1175776E+00
          2   -1    0    0  502    0 -0.00000000000E+00  0.00000000000E+00  0.48605761468E+03  0.48605761468E+03  0.00000000000E+00 0. -1.
         21   -1    0    0  501  502  0.00000000000E+00 -0.00000000000E+00 -0.79339698880E+02  0.79339698880E+02  0.00000000000E+00 0. -1.
         23    2    1    2    0    0 -0.12317677219E+03 -0.59750002878E+02  0.20622582138E+03  0.26390463858E+03  0.91509501186E+02 0.  0.
         23    2    1    2    0    0  0.12569376458E+03  0.10057149833E+03  0.16566409640E+03  0.24777378456E+03  0.89630947493E+02 0.  0.
        -11    1    3    3    0    0 -0.10656032020E+03 -0.20787275351E+02  0.92791365811E+02  0.14281964230E+03  0.00000000000E+00 0. -1.
         11    1    3    3    0    0 -0.16616451989E+02 -0.38962727528E+02  0.11343445557E+03  0.12108499628E+03  0.00000000000E+00 0.  1.
        -13    1    4    4    0    0  0.17613130721E+02  0.58560511039E+02  0.91749548465E+02  0.11026121472E+03  0.00000000000E+00 0.  1.
         13    1    4    4    0    0  0.10808063386E+03  0.42010987296E+02  0.73914547931E+02  0.13751256985E+03  0.00000000000E+00 0. -1.
          2    1    1    2  501    0 -0.25169923988E+01 -0.40821495456E+02  0.34827998017E+02  0.53718890419E+02  0.00000000000E+00 0. -1.
<scales pt_clust_5="13000.00000" pt_clust_6="13000.00000" pt_clust_7="13000.00000" pt_clust_8="13000.00000" pt_clust_9="40.89902"></scales>
<clustering>
<clus scale="   40.899">  2  9  1 -1</clus>
<clus scale="   89.631">  7  8 -1 -1</clus>
<clus scale="   91.510">  5  6 -1 -1</clus>
<clus scale="  171.259">  2  7  1 -1</clus>
<clus scale="   40.899">  2  5  1 -1</clus>
</clustering>
</event>
<event>
 9    1  0.1610296E-005  0.1048230E+03  0.7546771E-02  0.1271613E+00
          2   -1    0    0  502    0 -0.00000000000E+00  0.00000000000E+00  0.37677747155E+03  0.37677747155E+03  0.00000000000E+00 0. -1.
         21   -1    0    0  501  502  0.00000000000E+00 -0.00000000000E+00 -0.49044683075E+02  0.49044683075E+02  0.00000000000E+00 0. -1.
         23    2    1    2    0    0 -0.96705127210E+00 -0.57966813425E+02  0.19878557307E+03  0.22727208053E+03  0.93679282013E+02 0.  0.
         23    2    1    2    0    0  0.15779307740E+01  0.35336844513E+02  0.14202649087E+03  0.17240516803E+03  0.91108920577E+02 0.  0.
        -11    1    3    3    0    0  0.33231151564E+02 -0.61386431097E+02  0.16463229888E+03  0.17881945418E+03  0.00000000000E+00 0.  1.
         11    1    3    3    0    0 -0.34198202836E+02  0.34196176721E+01  0.34153274191E+02  0.48452626350E+02  0.00000000000E+00 0. -1.
        -13    1    4    4    0    0 -0.38071863373E+02 -0.63626201648E+01  0.72685019305E+02  0.82298613278E+02  0.00000000000E+00 0. -1.
         13    1    4    4    0    0  0.39649794147E+02  0.41699464678E+02  0.69341471565E+02  0.90106554751E+02  0.00000000000E+00 0.  1.
          2    1    1    2  501    0 -0.61087950191E+00  0.22629968912E+02 -0.13079275465E+02  0.26144906070E+02  0.00000000000E+00 0. -1.
<scales pt_clust_5="13000.00000" pt_clust_6="13000.00000" pt_clust_7="13000.00000" pt_clust_8="13000.00000" pt_clust_9="22.63821"></scales>
<clustering>
<clus scale="   22.638">  2  9  1 -1</clus>
<clus scale="   91.109">  7  8 -1 -1</clus>
<clus scale="   93.679">  5  6 -1 -1</clus>
<clus scale="  102.532">  2  7  1 -1</clus>
<clus scale="   22.638">  2  5  1 -1</clus>
</clustering>
</event>
<event>
 9    1  0.1610296E-005  0.9976493E+02  0.7546771E-02  0.1281466E+00
          2   -1    0    0  502    0 -0.00000000000E+00  0.00000000000E+00  0.28335229997E+03  0.28335229997E+03  0.00000000000E+00 0. -1.
         21   -1    0    0  501  502  0.00000000000E+00 -0.00000000000E+00 -0.56446626038E+02  0.56446626038E+02  0.00000000000E+00 0. -1.
         23    2    1    2    0    0 -0.27855659014E+02  0.10588540790E+02  0.14048999402E+03  0.17046806133E+03  0.91836085378E+02 0.  0.
         23    2    1    2    0    0  0.55884037377E+02  0.34168876537E+00  0.89645706510E+02  0.13907375009E+03  0.90454479622E+02 0.  0.
        -11    1    4    4    0    0  0.20296131618E+02  0.25180723292E+01 -0.17019635949E+02  0.26607172994E+02  0.00000000000E+00 0.  1.
         11    1    4    4    0    0  0.35587905759E+02 -0.21763835638E+01  0.10666534246E+03  0.11246657710E+03  0.00000000000E+00 0. -1.
        -11    1    3    3    0    0 -0.50205753596E+02  0.35665028881E+02  0.76604155941E+02  0.98289412892E+02  0.00000000000E+00 0. -1.
         11    1    3    3    0    0  0.22350094583E+02 -0.25076488091E+02  0.63885838079E+02  0.72178648435E+02  0.00000000000E+00 0.  1.
          2    1    1    2  501    0 -0.28028378363E+02 -0.10930229555E+02 -0.32300265941E+01  0.30257114595E+02  0.00000000000E+00 0. -1.
<scales pt_clust_5="13000.00000" pt_clust_6="13000.00000" pt_clust_7="13000.00000" pt_clust_8="13000.00000" pt_clust_9="30.08421"></scales>
<clustering>
<clus scale="   30.084">  2  9  1 -1</clus>
<clus scale="   90.454">  5  6 -1 -1</clus>
<clus scale="   91.836">  7  8 -1 -1</clus>
<clus scale="   98.495">  2  5  1 -1</clus>
<clus scale="   30.084">  2  5  1 -1</clus>
</clustering>
</event>
<event>
 9    1  0.1610296E-005  0.1028056E+03  0.7546771E-02  0.1275781E+00
         21   -1    0    0  501  502  0.00000000000E+00  0.00000000000E+00  0.78595534947E+02  0.78595534947E+02  0.00000000000E+00 0.  1.
          1   -1    0    0  502    0 -0.00000000000E+00 -0.00000000000E+00 -0.33642281626E+03  0.33642281626E+03  0.00000000000E+00 0. -1.
         23    2    1    2    0    0  0.38287712159E+02  0.19792020929E+02 -0.26728655076E+03  0.28666150341E+03  0.94207453665E+02 0.  0.
         23    2    1    2    0    0 -0.17583093473E+02 -0.33227149871E+02 -0.62374748305E+01  0.99106690436E+02  0.91487820677E+02 0.  0.
        -13    1    4    4    0    0  0.37686067633E+01 -0.26229418927E+02  0.39837062094E+02  0.47845337604E+02  0.00000000000E+00 0.  1.
         13    1    4    4    0    0 -0.21351700237E+02 -0.69977309447E+01 -0.46074536924E+02  0.51261352832E+02  0.00000000000E+00 0. -1.
        -13    1    3    3    0    0  0.62615614294E+02  0.99627168674E+01 -0.24219517943E+03  0.25035669717E+03  0.00000000000E+00 0.  1.
         13    1    3    3    0    0 -0.24327902136E+02  0.98293040614E+01 -0.25091371327E+02  0.36304806235E+02  0.00000000000E+00 0. -1.
          1    1    1    2  501    0 -0.20704618685E+02  0.13435128942E+02  0.15696744278E+02  0.29250157359E+02  0.00000000000E+00 0. -1.
<scales pt_clust_5="13000.00000" pt_clust_6="13000.00000" pt_clust_7="13000.00000" pt_clust_8="13000.00000" pt_clust_9="24.68165"></scales>
<clustering>
<clus scale="   24.682">  1  9  2 -1</clus>
<clus scale="   91.488">  5  6 -1 -1</clus>
<clus scale="   94.207">  7  8 -1 -1</clus>
<clus scale="  100.319">  1  5  2 -1</clus>
<clus scale="   24.682">  1  5  2 -1</clus>
</clustering>
</event>
<event>
 9    1  0.1610296E-005  0.1313486E+03  0.7546771E-02  0.1227630E+00
         -1   -1    0    0    0  501 -0.00000000000E+00  0.00000000000E+00  0.59213123213E+03  0.59213123213E+03  0.00000000000E+00 0.  1.
         21   -1    0    0  501  502  0.00000000000E+00 -0.00000000000E+00 -0.53955616674E+02  0.53955616674E+02  0.00000000000E+00 0.  1.
         23    2    1    2    0    0 -0.64775173080E+02  0.91650584856E+02  0.37643592248E+03  0.40495001286E+03  0.98411668147E+02 0.  0.
         23    2    1    2    0    0  0.49747011287E+02 -0.27924349913E+02  0.12993332123E+03  0.16834587530E+03  0.90571139533E+02 0.  0.
        -11    1    4    4    0    0  0.69304062519E+02 -0.41939713578E+02  0.11251579868E+03  0.13864269764E+03  0.00000000000E+00 0. -1.
         11    1    4    4    0    0 -0.19557051232E+02  0.14015363665E+02  0.17417522547E+02  0.29703177662E+02  0.00000000000E+00 0.  1.
        -13    1    3    3    0    0 -0.87798582323E+02  0.77884266082E+02  0.34012572882E+03  0.35980558829E+03  0.00000000000E+00 0.  1.
         13    1    3    3    0    0  0.23023409242E+02  0.13766318774E+02  0.36310193665E+02  0.45144424570E+02  0.00000000000E+00 0. -1.
         -1    1    1    2    0  502  0.15028161793E+02 -0.63726234943E+02  0.31806371740E+02  0.72790960635E+02  0.00000000000E+00 0.  1.
<scales pt_clust_5="13000.00000" pt_clust_6="13000.00000" pt_clust_7="13000.00000" pt_clust_8="13000.00000" pt_clust_9="65.47426"></scales>
<clustering>
<clus scale="   65.474">  2  9  1 -1</clus>
<clus scale="   90.571">  5  6 -1 -1</clus>
<clus scale="   98.412">  7  8 -1 -1</clus>
<clus scale="  125.582">  2  5  1 -1</clus>
<clus scale="   65.474">  2  5  1 -1</clus>
</clustering>
</event>
<event>
 9    1  0.1610296E-005  0.1198127E+03  0.7546771E-02  0.1244132E+00
         21   -1    0    0  501  502  0.00000000000E+00  0.00000000000E+00  0.15804030956E+03  0.15804030956E+03  0.00000000000E+00 0. -1.
          2   -1    0    0  502    0 -0.00000000000E+00 -0.00000000000E+00 -0.29808202111E+03  0.29808202111E+03  0.00000000000E+00 0. -1.
         23    2    1    2    0    0  0.80106142923E+02 -0.77066050425E+01 -0.21932430555E+03  0.25026632053E+03  0.89742377348E+02 0.  0.
         23    2    1    2    0    0 -0.50489204360E+02 -0.42573797508E+02  0.92245696577E+02  0.14607872382E+03  0.92021937735E+02 0.  0.
        -13    1    3    3    0    0  0.67144686111E+02 -0.24978510738E+02 -0.21703238979E+03  0.22855063572E+03  0.00000000000E+00 0. -1.
         13    1    3    3    0    0  0.12961456813E+02  0.17271905695E+02 -0.22919157657E+01  0.21715684814E+02  0.00000000000E+00 0.  1.
        -13    1    4    4    0    0 -0.32459198866E+02 -0.15980457314E+02 -0.11107731238E+02  0.37846483328E+02  0.00000000000E+00 0. -1.
         13    1    4    4    0    0 -0.18030005494E+02 -0.26593340194E+02  0.10335342782E+03  0.10823224049E+03  0.00000000000E+00 0.  1.
          2    1    1    2  501    0 -0.29616938563E+02  0.50280402550E+02 -0.12963102574E+02  0.59777286312E+02  0.00000000000E+00 0. -1.
<scales pt_clust_5="13000.00000" pt_clust_6="13000.00000" pt_clust_7="13000.00000" pt_clust_8="13000.00000" pt_clust_9="58.35479"></scales>
<clustering>
<clus scale="   58.355">  1  9  2 -1</clus>
<clus scale="   89.742">  5  6 -1 -1</clus>
<clus scale="   92.022">  7  8 -1 -1</clus>
<clus scale="  118.071">  2  5  1 -1</clus>
<clus scale="   58.355">  1  5  2 -1</clus>
</clustering>
</event>
<event>
 9    1  0.1610296E-005  0.1794696E+03  0.7546771E-02  0.1175736E+00
         -2   -1    0    0    0  501 -0.00000000000E+00  0.00000000000E+00  0.19260447989E+03  0.19260447989E+03  0.00000000000E+00 0.  1.
         21   -1    0    0  501  502  0.00000000000E+00 -0.00000000000E+00 -0.37222967957E+03  0.37222967957E+03  0.00000000000E+00 0.  1.
         23    2    1    2    0    0  0.50900372361E+02 -0.10961399696E+03 -0.42242054996E+01  0.15160734294E+03  0.91437772750E+02 0.  0.
         23    2    1    2    0    0 -0.13178802732E+03 -0.45606129402E+02 -0.71097728255E+00  0.16593609216E+03  0.89923734393E+02 0.  0.
        -11    1    4    4    0    0 -0.78078082503E+01 -0.28290067059E+02  0.24510689373E+02  0.38236941005E+02  0.00000000000E+00 0. -1.
         11    1    4    4    0    0 -0.12398021907E+03 -0.17316062343E+02 -0.25221666656E+02  0.12769915115E+03  0.00000000000E+00 0.  1.
        -13    1    3    3    0    0  0.72744539916E+02 -0.63944346132E+02 -0.19356816957E+02  0.98769093610E+02  0.00000000000E+00 0.  1.
         13    1    3    3    0    0 -0.21844167555E+02 -0.45669650827E+02  0.15132611457E+02  0.52838249330E+02  0.00000000000E+00 0. -1.
         -2    1    1    2    0  502  0.80887654958E+02  0.15522012636E+03 -0.17469001689E+03  0.24729072436E+03  0.00000000000E+00 0.  1.
<scales pt_clust_5="13000.00000" pt_clust_6="13000.00000" pt_clust_7="13000.00000" pt_clust_8="13000.00000" pt_clust_9="155.31606"></scales>
<clustering>
<clus scale="   89.924">  5  6 -1 -1</clus>
<clus scale="   91.438">  7  8 -1 -1</clus>
<clus scale="  151.548">  1  7  2 -1</clus>
<clus scale="  155.316">  2  9  1 -1</clus>
<clus scale="  155.316">  2  5  1 -1</clus>
</clustering>
</event>
<event>
 9    1  0.1610296E-005  0.2911397E+03  0.7546771E-02  0.1121661E+00
         21   -1    0    0  501  502  0.00000000000E+00  0.00000000000E+00  0.23002635380E+03  0.23002635380E+03  0.00000000000E+00 0. -1.
          2   -1    0    0  502    0 -0.00000000000E+00 -0.00000000000E+00 -0.10832080280E+04  0.10832080280E+04  0.00000000000E+00 0. -1.
         23    2    1    2    0    0  0.86610303975E+02 -0.49777428010E+00 -0.37597111282E+03  0.39726388035E+03  0.94671645307E+02 0.  0.
         23    2    1    2    0    0 -0.26782570070E+03 -0.19620593283E+03 -0.54075778083E+03  0.64107121531E+03  0.91246652171E+02 0.  0.
        -11    1    4    4    0    0 -0.14727965233E+03 -0.53978465481E+02 -0.22270781205E+03  0.27240363484E+03  0.00000000000E+00 0.  1.
         11    1    4    4    0    0 -0.12054604838E+03 -0.14222746735E+03 -0.31804996878E+03  0.36866758047E+03  0.00000000000E+00 0. -1.
        -11    1    3    3    0    0  0.10589518543E+03  0.92953226295E+01 -0.30015918093E+03  0.31842695743E+03  0.00000000000E+00 0.  1.
         11    1    3    3    0    0 -0.19284881453E+02 -0.97930969096E+01 -0.75811931882E+02  0.78836922920E+02  0.00000000000E+00 0. -1.
          2    1    1    2  501    0  0.18121539673E+03  0.19670370711E+03  0.63547219481E+02  0.27489928611E+03  0.00000000000E+00 0. -1.
<scales pt_clust_5="13000.00000" pt_clust_6="13000.00000" pt_clust_7="13000.00000" pt_clust_8="13000.00000" pt_clust_9="276.47125"></scales>
<clustering>
<clus scale="   91.247">  5  6 -1 -1</clus>
<clus scale="   94.672">  7  8 -1 -1</clus>
<clus scale="  128.313">  2  7  1 -1</clus>
<clus scale="  276.471">  1  9  2 -1</clus>
<clus scale="  276.471">  1  5  2 -1</clus>
</clustering>
</event>
<event>
 9    1  0.1610296E-005  0.1168337E+03  0.7546771E-02  0.1248553E+00
          3   -1    0    0  502    0 -0.00000000000E+00  0.00000000000E+00  0.13495761388E+03  0.13495761388E+03  0.00000000000E+00 0. -1.
         21   -1    0    0  501  502  0.00000000000E+00 -0.00000000000E+00 -0.32040625654E+03  0.32040625654E+03  0.00000000000E+00 0. -1.
         23    2    1    2    0    0 -0.72946859915E+01  0.77494939935E+02  0.27330656545E+02  0.12313527343E+03  0.91414728659E+02 0.  0.
         23    2    1    2    0    0  0.47340810746E+02 -0.56784993243E+02 -0.26058571499E+01  0.11727402099E+03  0.90998448818E+02 0.  0.
        -11    1    4    4    0    0  0.22871375358E+02 -0.22829927402E+02 -0.46498568396E+02  0.56625279327E+02  0.00000000000E+00 0.  1.
         11    1    4    4    0    0  0.24469435388E+02 -0.33955065841E+02  0.43892711246E+02  0.60648741661E+02  0.00000000000E+00 0. -1.
        -13    1    3    3    0    0  0.23779080452E+02  0.10197373157E+02  0.40293428976E+02  0.47885190875E+02  0.00000000000E+00 0. -1.
         13    1    3    3    0    0 -0.31073766443E+02  0.67297566778E+02 -0.12962772431E+02  0.75250082554E+02  0.00000000000E+00 0.  1.
          3    1    1    2  501    0 -0.40046124755E+02 -0.20709946691E+02 -0.21017344206E+03  0.21495457601E+03  0.00000000000E+00 0. -1.
<scales pt_clust_5="13000.00000" pt_clust_6="13000.00000" pt_clust_7="13000.00000" pt_clust_8="13000.00000" pt_clust_9="45.08430"></scales>
<clustering>
<clus scale="   45.084">  2  9  1 -1</clus>
<clus scale="   90.998">  5  6 -1 -1</clus>
<clus scale="   91.415">  7  8 -1 -1</clus>
<clus scale="  116.508">  2  5  1 -1</clus>
<clus scale="   45.084">  2  5  1 -1</clus>
</clustering>
</event>
<event>
 9    1  0.1610296E-005  0.1020403E+03  0.7546771E-02  0.1277375E+00
         21   -1    0    0  501  502  0.00000000000E+00  0.00000000000E+00  0.60928178035E+02  0.60928178035E+02  0.00000000000E+00 0.  1.
          1   -1    0    0  502    0 -0.00000000000E+00 -0.00000000000E+00 -0.46133381621E+03  0.46133381621E+03  0.00000000000E+00 0. -1.
         23    2    1    2    0    0 -0.57460605082E+02 -0.13343164609E+02 -0.29087109637E+03  0.30955456314E+03  0.87967446672E+02 0.  0.
         23    2    1    2    0    0  0.13768086200E+02  0.33572415690E+02 -0.12804658907E+03  0.16112298869E+03  0.90818617136E+02 0.  0.
        -13    1    3    3    0    0 -0.74600317540E+02 -0.27137927797E+02 -0.25850025937E+03  0.27041460500E+03  0.00000000000E+00 0. -1.
         13    1    3    3    0    0  0.17139712458E+02  0.13794763188E+02 -0.32370836999E+02  0.39139958132E+02  0.00000000000E+00 0.  1.
        -13    1    4    4    0    0  0.28473785639E+02  0.60436442689E+02 -0.94085417166E+02  0.11539231255E+03  0.00000000000E+00 0.  1.
         13    1    4    4    0    0 -0.14705699439E+02 -0.26864026998E+02 -0.33961171907E+02  0.45730676136E+02  0.00000000000E+00 0. -1.
          1    1    1    2  501    0  0.43692518882E+02 -0.20229251081E+02  0.18512047271E+02  0.51584442419E+02  0.00000000000E+00 0. -1.
<scales pt_clust_5="13000.00000" pt_clust_6="13000.00000" pt_clust_7="13000.00000" pt_clust_8="13000.00000" pt_clust_9="48.14830"></scales>
<clustering>
<clus scale="   48.148">  1  9  2 -1</clus>
<clus scale="   87.967">  5  6 -1 -1</clus>
<clus scale="   90.819">  7  8 -1 -1</clus>
<clus scale="   99.511">  2  5  1 -1</clus>
<clus scale="   48.148">  1  5  2 -1</clus>
</clustering>
</event>
<event>
 9    1  0.1610296E-005  0.9930814E+02  0.7546771E-02  0.1281949E+00
         -1   -1    0    0    0  501 -0.00000000000E+00  0.00000000000E+00  0.22759663876E+03  0.22759663876E+03  0.00000000000E+00 0.  1.
         21   -1    0    0  501  502  0.00000000000E+00 -0.00000000000E+00 -0.71162375749E+02  0.71162375749E+02  0.00000000000E+00 0. -1.
         23    2    1    2    0    0  0.32677659235E+02 -0.12366115353E+02  0.10882485188E+03  0.14558983683E+03  0.90182049088E+02 0.  0.
         23    2    1    2    0    0 -0.39616747974E+02  0.31849267404E+02  0.67984045127E+02  0.12413695633E+03  0.90577541257E+02 0.  0.
        -11    1    3    3    0    0  0.21290430221E+02  0.34410850764E+02  0.79535394945E+02  0.89237145396E+02  0.00000000000E+00 0.  1.
         11    1    3    3    0    0  0.11387229014E+02 -0.46776966117E+02  0.29289456937E+02  0.56352691430E+02  0.00000000000E+00 0. -1.
        -13    1    4    4    0    0  0.20815544759E+02 -0.10317433863E+02  0.38087910584E+02  0.44614182474E+02  0.00000000000E+00 0. -1.
         13    1    4    4    0    0 -0.60432292733E+02  0.42166701267E+02  0.29896134542E+02  0.79522773853E+02  0.00000000000E+00 0.  1.
         -1    1    1    2    0  502  0.69390887392E+01 -0.19483152051E+02 -0.20374633998E+02  0.29032221357E+02  0.00000000000E+00 0.  1.
<scales pt_clust_5="13000.00000" pt_clust_6="13000.00000" pt_clust_7="13000.00000" pt_clust_8="13000.00000" pt_clust_9="20.68198"></scales>
<clustering>
<clus scale="   20.682">  2  9  1 -1</clus>
<clus scale="   90.182">  5  6 -1 -1</clus>
<clus scale="   90.578">  7  8 -1 -1</clus>
<clus scale="   98.948">  1  5  2 -1</clus>
<clus scale="   20.682">  2  5  1 -1</clus>
</clustering>
</event>
<event>
 9    1  0.1610296E-005  0.1119331E+03  0.7546771E-02  0.1258124E+00
          1   -1    0    0  502    0 -0.00000000000E+00  0.00000000000E+00  0.89989458080E+02  0.89989458080E+02  0.00000000000E+00 0. -1.
         21   -1    0    0  501  502  0.00000000000E+00 -0.00000000000E+00 -0.27940696164E+03  0.27940696164E+03  0.00000000000E+00 0. -1.
         23    2    1    2    0    0  0.52273913668E+02  0.30551459989E+01 -0.73097196129E+02  0.12732601023E+03  0.90148859290E+02 0.  0.
         23    2    1    2    0    0 -0.38960495667E+02 -0.83114996991E+02 -0.64171668211E+02  0.14560120502E+03  0.93035933672E+02 0.  0.
        -13    1    4    4    0    0  0.19114429495E+02 -0.43624841446E+02  0.39098001385E+01  0.47788855848E+02  0.00000000000E+00 0. -1.
         13    1    4    4    0    0 -0.58074925161E+02 -0.39490155545E+02 -0.68081468350E+02  0.97812349170E+02  0.00000000000E+00 0.  1.
        -13    1    3    3    0    0  0.64610029217E+02 -0.26275159689E+02 -0.62876626236E+02  0.93905857213E+02  0.00000000000E+00 0. -1.
         13    1    3    3    0    0 -0.12336115549E+02  0.29330305688E+02 -0.10220569894E+02  0.33420153015E+02  0.00000000000E+00 0.  1.
          1    1    1    2  501    0 -0.13313418002E+02  0.80059850992E+02 -0.52148639223E+02  0.96469204478E+02  0.00000000000E+00 0. -1.
<scales pt_clust_5="13000.00000" pt_clust_6="13000.00000" pt_clust_7="13000.00000" pt_clust_8="13000.00000" pt_clust_9="81.15927"></scales>
<clustering>
<clus scale="   81.159">  2  9  1 -1</clus>
<clus scale="   90.149">  7  8 -1 -1</clus>
<clus scale="   93.036">  5  6 -1 -1</clus>
<clus scale="  109.545">  1  7  2 -1</clus>
<clus scale="   81.159">  2  5  1 -1</clus>
</clustering>
</event>
<event>
 9    1  0.2763370E-005  0.1092322E+03  0.7546771E-02  0.1270149E+00
         21   -1    0    0  501  502  0.00000000000E+00  0.00000000000E+00  0.15260556089E+03  0.15260556089E+03  0.00000000000E+00 0. -1.
         -1   -1    0    0    0  501 -0.00000000000E+00 -0.00000000000E+00 -0.43132588341E+03  0.43132588341E+03  0.00000000000E+00 0.  1.
         23    2    1    2    0    0  0.65989876911E+01  0.62801019868E+01 -0.34679906098E+03  0.36346187711E+03  0.10840646243E+03 0.  0.
         23    2    1    2    0    0 -0.23765284601E+01 -0.35068996679E+02 -0.41510346697E+02  0.10708351335E+03  0.92240379082E+02 0.  0.
        -11    1    3    3    0    0  0.22497192035E+02 -0.47558677662E+02 -0.17271816732E+03  0.18055336273E+03  0.00000000000E+00 0. -1.
         11    1    3    3    0    0 -0.15898204344E+02  0.53838779649E+02 -0.17408089366E+03  0.18290851438E+03  0.00000000000E+00 0.  1.
        -13    1    4    4    0    0 -0.13215013213E+02 -0.65187907448E+02 -0.31082053248E+02  0.73417939809E+02  0.00000000000E+00 0. -1.
         13    1    4    4    0    0  0.10838484752E+02  0.30118910769E+02 -0.10428293449E+02  0.33665573542E+02  0.00000000000E+00 0.  1.
         -1    1    1    2    0  502 -0.42224592310E+01  0.28788894692E+02  0.10958908516E+03  0.11338605384E+03  0.00000000000E+00 0.  1.
<scales pt_clust_5="13000.00000" pt_clust_6="13000.00000" pt_clust_7="13000.00000" pt_clust_8="13000.00000" pt_clust_9="29.09690"></scales>
<clustering>
<clus scale="   29.097">  1  9  2 -1</clus>
<clus scale="   92.240">  7  8 -1 -1</clus>
<clus scale="   93.209">  1  7  2 -1</clus>
<clus scale="  108.406">  5  6 -1 -1</clus>
<clus scale="   29.097">  1  5  2 -1</clus>
</clustering>
</event>
<event>
 9    1  0.1610296E-005  0.1039328E+03  0.7546771E-02  0.1274705E+00
         21   -1    0    0  501  502  0.00000000000E+00  0.00000000000E+00  0.27132494586E+02  0.27132494586E+02  0.00000000000E+00 0. -1.
         -1   -1    0    0    0  501 -0.00000000000E+00 -0.00000000000E+00 -0.61401305349E+03  0.61401305349E+03  0.00000000000E+00 0.  1.
         23    2    1    2    0    0 -0.43481508172E+02  0.23825258916E+02 -0.26283373324E+03  0.28092206428E+03  0.85891503394E+02 0.  0.
         23    2    1    2    0    0  0.18801108642E+02 -0.53345298165E+02 -0.28835902110E+03  0.30774325673E+03  0.91409980264E+02 0.  0.
        -13    1    3    3    0    0 -0.24668657744E+02 -0.31260256365E+02 -0.86428621494E+02  0.95161194382E+02  0.00000000000E+00 0. -1.
         13    1    3    3    0    0 -0.18812850428E+02  0.55085515282E+02 -0.17640511175E+03  0.18576086990E+03  0.00000000000E+00 0.  1.
        -13    1    4    4    0    0  0.17139402465E+02  0.24249279353E+02 -0.88138603922E+02  0.93006452289E+02  0.00000000000E+00 0.  1.
         13    1    4    4    0    0  0.16617061764E+01 -0.77594577518E+02 -0.20022041717E+03  0.21473680444E+03  0.00000000000E+00 0. -1.
         -1    1    1    2    0  502  0.24680399530E+02  0.29520039249E+02 -0.35687804569E+02  0.52480227069E+02  0.00000000000E+00 0.  1.
<scales pt_clust_5="13000.00000" pt_clust_6="13000.00000" pt_clust_7="13000.00000" pt_clust_8="13000.00000" pt_clust_9="38.47798"></scales>
<clustering>
<clus scale="   38.478">  1  9  2 -1</clus>
<clus scale="   85.892">  5  6 -1 -1</clus>
<clus scale="   91.410">  7  8 -1 -1</clus>
<clus scale="   99.114">  2  5  1 -1</clus>
<clus scale="   38.478">  1  5  2 -1</clus>
</clustering>
</event>
<event>
 9    1  0.1610296E-005  0.9245735E+02  0.7546771E-02  0.1297367E+00
         21   -1    0    0  501  502  0.00000000000E+00  0.00000000000E+00  0.43707244186E+03  0.43707244186E+03  0.00000000000E+00 0. -1.
          1   -1    0    0  502    0 -0.00000000000E+00 -0.00000000000E+00 -0.33050861414E+02  0.33050861414E+02  0.00000000000E+00 0. -1.
         23    2    1    2    0    0 -0.11842002393E+02  0.22455647728E+02  0.91178568310E+02  0.13121126877E+03  0.90875610583E+02 0.  0.
         23    2    1    2    0    0 -0.20872637744E+02 -0.48610290018E+01  0.23552120699E+03  0.25313045233E+03  0.90252370322E+02 0.  0.
        -11    1    3    3    0    0  0.38399541551E+02  0.85254672404E+01  0.55538652111E+02  0.68056963356E+02  0.00000000000E+00 0.  1.
         11    1    3    3    0    0 -0.50241543943E+02  0.13930180487E+02  0.35639916199E+02  0.63154305418E+02  0.00000000000E+00 0. -1.
        -13    1    4    4    0    0  0.18151580195E+02  0.25840927956E+02  0.37728048812E+02  0.49199990735E+02  0.00000000000E+00 0.  1.
         13    1    4    4    0    0 -0.39024217939E+02 -0.30701956958E+02  0.19779315817E+03  0.20393046160E+03  0.00000000000E+00 0. -1.
          1    1    1    2  501    0  0.32714640137E+02 -0.17594618726E+02  0.77321805155E+02  0.85781582171E+02  0.00000000000E+00 0. -1.
<scales pt_clust_5="13000.00000" pt_clust_6="13000.00000" pt_clust_7="13000.00000" pt_clust_8="13000.00000" pt_clust_9="37.14591"></scales>
<clustering>
<clus scale="   37.146">  1  9  2 -1</clus>
<clus scale="   90.252">  7  8 -1 -1</clus>
<clus scale="   90.876">  5  6 -1 -1</clus>
<clus scale="   91.845">  1  7  2 -1</clus>
<clus scale="   37.146">  1  5  2 -1</clus>
</clustering>
</event>
<event>
 9    1  0.1610296E-005  0.9043997E+02  0.7546771E-02  0.1302110E+00
          2   -1    0    0  502    0 -0.00000000000E+00  0.00000000000E+00  0.33416780664E+03  0.33416780664E+03  0.00000000000E+00 0. -1.
         21   -1    0    0  501  502  0.00000000000E+00 -0.00000000000E+00 -0.34882473602E+02  0.34882473602E+02  0.00000000000E+00 0.  1.
         23    2    1    2    0    0 -0.78299749485E+01 -0.93581166602E+01  0.17998280934E+03  0.20142372569E+03  0.89603698347E+02 0.  0.
         23    2    1    2    0    0  0.66869678709E+01 -0.15947449623E+02  0.10033686663E+03  0.13598205585E+03  0.90136540980E+02 0.  0.
        -13    1    3    3    0    0  0.36155688426E+02 -0.19869749797E+02  0.11562887548E+03  0.12276839010E+03  0.00000000000E+00 0.  1.
         13    1    3    3    0    0 -0.43985663374E+02  0.10511633137E+02  0.64353933858E+02  0.78655335589E+02  0.00000000000E+00 0. -1.
        -13    1    4    4    0    0 -0.33964328575E+02  0.17155667624E+02  0.31141644779E+02  0.49170057827E+02  0.00000000000E+00 0. -1.
         13    1    4    4    0    0  0.40651296445E+02 -0.33103117247E+02  0.69195221849E+02  0.86811998023E+02  0.00000000000E+00 0.  1.
          2    1    1    2  501    0  0.11430070776E+01  0.25305566283E+02  0.18965657072E+02  0.31644498704E+02  0.00000000000E+00 0. -1.
<scales pt_clust_5="13000.00000" pt_clust_6="13000.00000" pt_clust_7="13000.00000" pt_clust_8="13000.00000" pt_clust_9="25.33137"></scales>
<clustering>
<clus scale="   25.331">  2  9  1 -1</clus>
<clus scale="   89.604">  5  6 -1 -1</clus>
<clus scale="   89.909">  1  5  2 -1</clus>
<clus scale="   90.137">  7  8 -1 -1</clus>
<clus scale="   25.331">  2  5  1 -1</clus>
</clustering>
</event>
<event>
 9    1  0.1610296E-005  0.9451420E+02  0.7546771E-02  0.1293909E+00
         21   -1    0    0  501  502  0.00000000000E+00  0.00000000000E+00  0.13595593997E+03  0.13595593997E+03  0.00000000000E+00 0. -1.
         -1   -1    0    0    0  501 -0.00000000000E+00 -0.00000000000E+00 -0.10688999034E+03  0.10688999034E+03  0.00000000000E+00 0.  1.
         23    2    1    2    0    0 -0.33640878417E+01 -0.12032337915E+02  0.75258019825E+01  0.93832692223E+02  0.92692190565E+02 0.  0.
         23    2    1    2    0    0 -0.40876326766E+02 -0.61909025217E+01  0.74665451282E+01  0.99139727430E+02  0.89798301180E+02 0.  0.
        -11    1    3    3    0    0 -0.35767275668E+02 -0.32708684381E+02  0.21380063970E+02  0.52974174633E+02  0.00000000000E+00 0. -1.
         11    1    3    3    0    0  0.32403187826E+02  0.20676346466E+02 -0.13854261987E+02  0.40858517591E+02  0.00000000000E+00 0.  1.
        -13    1    4    4    0    0 -0.52523435880E+02 -0.25923605509E+02 -0.21333334297E+02  0.62336632821E+02  0.00000000000E+00 0. -1.
         13    1    4    4    0    0  0.11647109114E+02  0.19732702987E+02  0.28799879425E+02  0.36803094609E+02  0.00000000000E+00 0.  1.
         -1    1    1    2    0  502  0.44240414608E+02  0.18223240437E+02  0.14073602520E+02  0.49873510650E+02  0.00000000000E+00 0.  1.
<scales pt_clust_5="13000.00000" pt_clust_6="13000.00000" pt_clust_7="13000.00000" pt_clust_8="13000.00000" pt_clust_9="47.84664"></scales>
<clustering>
<clus scale="   47.847">  1  9  2 -1</clus>
<clus scale="   89.798">  7  8 -1 -1</clus>
<clus scale="   91.678">  1  7  2 -1</clus>
<clus scale="   92.692">  5  6 -1 -1</clus>
<clus scale="   47.847">  1  5  2 -1</clus>
</clustering>
</event>
<event>
 9    1  0.1610296E-005  0.1165469E+03  0.7546771E-02  0.1254742E+00
         21   -1    0    0  501  502  0.00000000000E+00  0.00000000000E+00  0.23120796232E+03  0.23120796232E+03  0.00000000000E+00 0.  1.
          1   -1    0    0  502    0 -0.00000000000E+00 -0.00000000000E+00 -0.15836594035E+03  0.15836594035E+03  0.00000000000E+00 0. -1.
         23    2    1    2    0    0 -0.42355225852E+02  0.29625229666E+02 -0.87674996214E+02  0.14619473040E+03  0.10494939183E+03 0.  0.
         23    2    1    2    0    0  0.63499145749E+02  0.19536086483E+02  0.54940678921E+02  0.12501421223E+03  0.90533280474E+02 0.  0.
        -11    1    3    3    0    0  0.83991574864E+01  0.32351339095E+02  0.11009099075E+02  0.35190272096E+02  0.00000000000E+00 0.  1.
         11    1    3    3    0    0 -0.50754383338E+02 -0.27261094285E+01 -0.98684095289E+02  0.11100445831E+03  0.00000000000E+00 0. -1.
        -13    1    4    4    0    0  0.77944734657E+02 -0.90969981881E+01  0.28634763278E+02  0.83534943016E+02  0.00000000000E+00 0.  1.
         13    1    4    4    0    0 -0.14445588908E+02  0.28633084672E+02  0.26305915643E+02  0.41479269214E+02  0.00000000000E+00 0. -1.
          1    1    1    2  501    0 -0.21143919897E+02 -0.49161316150E+02  0.10557633926E+03  0.11836496004E+03  0.00000000000E+00 0. -1.
<scales pt_clust_5="13000.00000" pt_clust_6="13000.00000" pt_clust_7="13000.00000" pt_clust_8="13000.00000" pt_clust_9="53.51542"></scales>
<clustering>
<clus scale="   53.515">  1  9  2 -1</clus>
<clus scale="   90.533">  7  8 -1 -1</clus>
<clus scale="  103.755">  1  7  2 -1</clus>
<clus scale="  104.949">  5  6 -1 -1</clus>
<clus scale="   53.515">  1  5  2 -1</clus>
</clustering>
</event>
<event>
 9    1  0.1610296E-005  0.1290246E+03  0.7546771E-02  0.1230927E+00
         21   -1    0    0  501  502  0.00000000000E+00  0.00000000000E+00  0.94995764001E+03  0.94995764001E+03  0.00000000000E+00 0. -1.
          2   -1    0    0  502    0 -0.00000000000E+00 -0.00000000000E+00 -0.44258620317E+02  0.44258620317E+02  0.00000000000E+00 0. -1.
         23    2    1    2    0    0 -0.71159905626E+02 -0.67720081885E+02  0.11941187459E+03  0.18361352392E+03  0.99020142979E+02 0.  0.
         23    2    1    2    0    0  0.63644481335E+02 -0.40288591735E+00  0.31357997782E+03  0.33295298361E+03  0.92057071877E+02 0.  0.
        -11    1    4    4    0    0 -0.19869279037E+02  0.14570672478E+02  0.45181471491E+02  0.51463172385E+02  0.00000000000E+00 0.  1.
         11    1    4    4    0    0  0.83513760372E+02 -0.14973558395E+02  0.26839850633E+03  0.28148981122E+03  0.00000000000E+00 0. -1.
        -13    1    3    3    0    0  0.19407443177E+02 -0.40433260831E+02  0.40521522953E+02  0.60444116790E+02  0.00000000000E+00 0.  1.
         13    1    3    3    0    0 -0.90567348803E+02 -0.27286821054E+02  0.78890351638E+02  0.12316940713E+03  0.00000000000E+00 0. -1.
          2    1    1    2  501    0  0.75154242906E+01  0.68122967802E+02  0.47270716729E+03  0.47764975280E+03  0.00000000000E+00 0. -1.
<scales pt_clust_5="13000.00000" pt_clust_6="13000.00000" pt_clust_7="13000.00000" pt_clust_8="13000.00000" pt_clust_9="68.53627"></scales>
<clustering>
<clus scale="   68.536">  1  9  2 -1</clus>
<clus scale="   92.057">  5  6 -1 -1</clus>
<clus scale="   99.020">  7  8 -1 -1</clus>
<clus scale="  123.761">  1  5  2 -1</clus>
<clus scale="   68.536">  1  5  2 -1</clus>
</clustering>
</event>
<event>
 9    1  0.1610296E-005  0.9215628E+02  0.7546771E-02  0.1298463E+00
         21   -1    0    0  501  502  0.00000000000E+00  0.00000000000E+00  0.50987050152E+03  0.50987050152E+03  0.00000000000E+00 0.  1.
          1   -1    0    0  502    0 -0.00000000000E+00 -0.00000000000E+00 -0.44133753976E+02  0.44133753976E+02  0.00000000000E+00 0. -1.
         23    2    1    2    0    0 -0.71320609396E+01 -0.13829051617E+02  0.33314952744E+02  0.97803420521E+02  0.90628439396E+02 0.  0.
         23    2    1    2    0    0  0.44513443741E+02 -0.10993965462E+02  0.29198113701E+03  0.30876566848E+03  0.89336105329E+02 0.  0.
        -11    1    3    3    0    0 -0.28958574675E+02 -0.18596598725E+02 -0.20134502873E+02  0.39872681591E+02  0.00000000000E+00 0. -1.
         11    1    3    3    0    0  0.21826513735E+02  0.47675471083E+01  0.53449455617E+02  0.57930738930E+02  0.00000000000E+00 0.  1.
        -11    1    4    4    0    0  0.47704612735E+02  0.11197761773E+02  0.27812683904E+03  0.28241044340E+03  0.00000000000E+00 0.  1.
         11    1    4    4    0    0 -0.31911689938E+01 -0.22191727235E+02  0.13854297969E+02  0.26355225088E+02  0.00000000000E+00 0. -1.
          1    1    1    2  501    0 -0.37381382802E+02  0.24823017079E+02  0.14044065779E+03  0.14743516649E+03  0.00000000000E+00 0. -1.
<scales pt_clust_5="13000.00000" pt_clust_6="13000.00000" pt_clust_7="13000.00000" pt_clust_8="13000.00000" pt_clust_9="44.87260"></scales>
<clustering>
<clus scale="   44.873">  1  9  2 -1</clus>
<clus scale="   89.336">  7  8 -1 -1</clus>
<clus scale="   90.628">  5  6 -1 -1</clus>
<clus scale="   90.886">  1  7  2 -1</clus>
<clus scale="   44.873">  1  5  2 -1</clus>
</clustering>
</event>
<event>
 9    1  0.1610296E-005  0.1044807E+03  0.7546771E-02  0.1273684E+00
         21   -1    0    0  501  502  0.00000000000E+00  0.00000000000E+00  0.37792795235E+03  0.37792795235E+03  0.00000000000E+00 0.  1.
          1   -1    0    0  502    0 -0.00000000000E+00 -0.00000000000E+00 -0.46182781352E+02  0.46182781352E+02  0.00000000000E+00 0. -1.
         23    2    1    2    0    0 -0.14281432712E+02  0.27653395599E+02  0.10751162081E+03  0.14633690826E+03  0.94271270806E+02 0.  0.
         23    2    1    2    0    0  0.49852641484E+02  0.52986236310E+01  0.18234108000E+03  0.21369476862E+03  0.99517955202E+02 0.  0.
        -13    1    3    3    0    0 -0.35503410086E+02 -0.52510025465E+01  0.45440436008E+01  0.36176145286E+02  0.00000000000E+00 0. -1.
         13    1    3    3    0    0  0.21221977375E+02  0.32904398146E+02  0.10296757721E+03  0.11016076297E+03  0.00000000000E+00 0.  1.
        -13    1    4    4    0    0 -0.30248087377E+02  0.43240080974E+01  0.62142088204E+02  0.69247981648E+02  0.00000000000E+00 0. -1.
         13    1    4    4    0    0  0.80100728862E+02  0.97461553358E+00  0.12019899179E+03  0.14444678698E+03  0.00000000000E+00 0.  1.
          1    1    1    2  501    0 -0.35571208773E+02 -0.32952019230E+02  0.41892470191E+02  0.64079056825E+02  0.00000000000E+00 0. -1.
<scales pt_clust_5="13000.00000" pt_clust_6="13000.00000" pt_clust_7="13000.00000" pt_clust_8="13000.00000" pt_clust_9="48.48865"></scales>
<clustering>
<clus scale="   48.489">  1  9  2 -1</clus>
<clus scale="   94.271">  5  6 -1 -1</clus>
<clus scale="   99.496">  2  5  1 -1</clus>
<clus scale="   99.518">  7  8 -1 -1</clus>
<clus scale="   48.489">  1  5  2 -1</clus>
</clustering>
</event>
<event>
 9    1  0.1610296E-005  0.9449782E+02  0.7546771E-02  0.1292560E+00
         21   -1    0    0  501  502  0.00000000000E+00  0.00000000000E+00  0.51036842440E+02  0.51036842440E+02  0.00000000000E+00 0. -1.
          1   -1    0    0  502    0 -0.00000000000E+00 -0.00000000000E+00 -0.30931925111E+03  0.30931925111E+03  0.00000000000E+00 0. -1.
         23    2    1    2    0    0 -0.24864444996E+02  0.15483231721E+02 -0.16891013257E+03  0.19447073553E+03  0.91816463698E+02 0.  0.
         23    2    1    2    0    0  0.12587533260E+02  0.11970930742E+02 -0.96858838704E+02  0.13489338780E+03  0.92265065227E+02 0.  0.
        -13    1    4    4    0    0  0.83090115613E+01  0.45545322759E+02 -0.88734429548E+02  0.10008603841E+03  0.00000000000E+00 0. -1.
         13    1    4    4    0    0  0.42785216990E+01 -0.33574392017E+02 -0.81244091567E+01  0.34807349388E+02  0.00000000000E+00 0.  1.
        -13    1    3    3    0    0 -0.14777316568E+02 -0.33081663316E+02 -0.30229962314E+02  0.47187033751E+02  0.00000000000E+00 0.  1.
         13    1    3    3    0    0 -0.10087128428E+02  0.48564895037E+02 -0.13868017025E+03  0.14728370178E+03  0.00000000000E+00 0. -1.
          1    1    1    2  501    0  0.12276911735E+02 -0.27454162463E+02  0.74865625982E+01  0.30991970215E+02  0.00000000000E+00 0. -1.
<scales pt_clust_5="13000.00000" pt_clust_6="13000.00000" pt_clust_7="13000.00000" pt_clust_8="13000.00000" pt_clust_9="30.07414"></scales>
<clustering>
<clus scale="   30.074">  1  9  2 -1</clus>
<clus scale="   91.816">  7  8 -1 -1</clus>
<clus scale="   92.265">  5  6 -1 -1</clus>
<clus scale="   94.060">  2  7  1 -1</clus>
<clus scale="   30.074">  1  5  2 -1</clus>
</clustering>
</event>
<event>
 9    1  0.1610296E-005  0.1536239E+03  0.7546771E-02  0.1196305E+00
          2   -1    0    0  502    0 -0.00000000000E+00  0.00000000000E+00  0.15141078412E+03  0.15141078412E+03  0.00000000000E+00 0. -1.
         21   -1    0    0  501  502  0.00000000000E+00 -0.00000000000E+00 -0.22035944923E+03  0.22035944923E+03  0.00000000000E+00 0.  1.
         23    2    1    2    0    0 -0.11630316126E+03  0.37568669750E+02  0.72338062043E+01  0.15271903917E+03  0.91284975267E+02 0.  0.
         23    2    1    2    0    0  0.10898637089E+03 -0.59996653276E+02 -0.17749927164E+02  0.15603602075E+03  0.92490823396E+02 0.  0.
        -13    1    3    3    0    0 -0.13111856820E+02 -0.19237135734E+02  0.24349882185E+02  0.33688350255E+02  0.00000000000E+00 0. -1.
         13    1    3    3    0    0 -0.10319130444E+03  0.56805805484E+02 -0.17116075980E+02  0.11903068892E+03  0.00000000000E+00 0.  1.
        -13    1    4    4    0    0  0.64981794019E+02 -0.72629341005E+02  0.16523007609E+02  0.98846671715E+02  0.00000000000E+00 0. -1.
         13    1    4    4    0    0  0.44004576876E+02  0.12632687729E+02 -0.34272934772E+02  0.57189349036E+02  0.00000000000E+00 0.  1.
          2    1    1    2  501    0  0.73167903608E+01  0.22427983526E+02 -0.58432544153E+02  0.63015173430E+02  0.00000000000E+00 0. -1.
<scales pt_clust_5="13000.00000" pt_clust_6="13000.00000" pt_clust_7="13000.00000" pt_clust_8="13000.00000" pt_clust_9="23.59131"></scales>
<clustering>
<clus scale="   23.591">  2  9  1 -1</clus>
<clus scale="   91.285">  5  6 -1 -1</clus>
<clus scale="   92.491">  7  8 -1 -1</clus>
<clus scale="  152.901">  1  5  2 -1</clus>
<clus scale="   23.591">  2  5  1 -1</clus>
</clustering>
</event>
<event>
 9    1  0.1610296E-005  0.1351475E+03  0.7546771E-02  0.1225965E+00
         21   -1    0    0  501  502  0.00000000000E+00  0.00000000000E+00  0.12765684461E+04  0.12765684461E+04  0.00000000000E+00 0. -1.
          1   -1    0    0  502    0 -0.00000000000E+00 -0.00000000000E+00 -0.30833951395E+02  0.30833951395E+02  0.00000000000E+00 0. -1.
         23    2    1    2    0    0  0.12928270067E+02 -0.74758347393E+02  0.22857783895E+03  0.25625187481E+03  0.87528533713E+02 0.  0.
         23    2    1    2    0    0  0.83113866763E+02  0.90191794186E+02  0.54109256828E+03  0.56525001979E+03  0.10809228853E+03 0.  0.
        -11    1    4    4    0    0  0.58343000624E+02  0.68424172532E+02  0.51609496459E+03  0.52387000828E+03  0.00000000000E+00 0. -1.
         11    1    4    4    0    0  0.24770866139E+02  0.21767621654E+02  0.24997603691E+02  0.41380011504E+02  0.00000000000E+00 0.  1.
        -13    1    3    3    0    0 -0.35473676062E+02 -0.42108615894E+02  0.85199234141E+02  0.10144174054E+03  0.00000000000E+00 0.  1.
         13    1    3    3    0    0  0.48401946129E+02 -0.32649731498E+02  0.14337860481E+03  0.15481013427E+03  0.00000000000E+00 0. -1.
          1    1    1    2  501    0 -0.96042136830E+02 -0.15433446793E+02  0.47606408750E+03  0.48590050291E+03  0.00000000000E+00 0. -1.
<scales pt_clust_5="13000.00000" pt_clust_6="13000.00000" pt_clust_7="13000.00000" pt_clust_8="13000.00000" pt_clust_9="97.27427"></scales>
<clustering>
<clus scale="   87.529">  7  8 -1 -1</clus>
<clus scale="   97.274">  1  9  2 -1</clus>
<clus scale="  108.092">  5  6 -1 -1</clus>
<clus scale="  119.340">  2  7  1 -1</clus>
<clus scale="   97.274">  1  5  2 -1</clus>
</clustering>
</event>
<event>
 9    1  0.1610296E-005  0.9944102E+02  0.7546771E-02  0.1282005E+00
         -1   -1    0    0    0  501 -0.00000000000E+00  0.00000000000E+00  0.26349751210E+03  0.26349751210E+03  0.00000000000E+00 0.  1.
         21   -1    0    0  501  502  0.00000000000E+00 -0.00000000000E+00 -0.16346330156E+03  0.16346330156E+03  0.00000000000E+00 0.  1.
         23    2    1    2    0    0  0.16804599893E+02  0.90365691050E+01  0.13035737048E+03  0.15986850227E+03  0.90558488405E+02 0.  0.
         23    2    1    2    0    0 -0.70148335420E+02 -0.59328391151E+02  0.66368465446E+02  0.14574944219E+03  0.91637763693E+02 0.  0.
        -11    1    3    3    0    0 -0.27517448228E+02 -0.21858453604E+02  0.73309329773E+02  0.81297354094E+02  0.00000000000E+00 0.  1.
         11    1    3    3    0    0  0.44322048121E+02  0.30895022709E+02  0.57048040703E+02  0.78571148177E+02  0.00000000000E+00 0. -1.
        -11    1    4    4    0    0 -0.81998125500E+02 -0.15978243988E+02  0.52709655522E+02  0.98779069907E+02  0.00000000000E+00 0.  1.
         11    1    4    4    0    0  0.11849790080E+02 -0.43350147163E+02  0.13658809925E+02  0.46970372285E+02  0.00000000000E+00 0. -1.
         -1    1    1    2    0  502  0.53343735527E+02  0.50291822046E+02 -0.96691625388E+02  0.12134286920E+03  0.00000000000E+00 0.  1.
<scales pt_clust_5="13000.00000" pt_clust_6="13000.00000" pt_clust_7="13000.00000" pt_clust_8="13000.00000" pt_clust_9="73.31317"></scales>
<clustering>
<clus scale="   73.313">  2  9  1 -1</clus>
<clus scale="   90.558">  5  6 -1 -1</clus>
<clus scale="   91.638">  7  8 -1 -1</clus>
<clus scale="   98.447">  1  5  2 -1</clus>
<clus scale="   73.313">  2  5  1 -1</clus>
</clustering>
</event>
<event>
 9    1  0.1610296E-005  0.9351884E+02  0.7546771E-02  0.1297965E+00
         21   -1    0    0  501  502  0.00000000000E+00  0.00000000000E+00  0.63605204933E+02  0.63605204933E+02  0.00000000000E+00 0.  1.
          2   -1    0    0  502    0 -0.00000000000E+00 -0.00000000000E+00 -0.23515343977E+03  0.23515343977E+03  0.00000000000E+00 0. -1.
         23    2    1    2    0    0 -0.24281686758E+01  0.17683888960E+02 -0.12362866243E+03  0.15523371720E+03  0.92167482613E+02 0.  0.
         23    2    1    2    0    0 -0.28843708639E+02 -0.43919131989E+01 -0.58071801333E+02  0.10806121813E+03  0.86334490928E+02 0.  0.
        -11    1    3    3    0    0 -0.23705712643E+02 -0.29992269215E+02 -0.73538936550E+02  0.82882279249E+02  0.00000000000E+00 0. -1.
         11    1    3    3    0    0  0.21277543967E+02  0.47676158175E+02 -0.50089725877E+02  0.72351437954E+02  0.00000000000E+00 0.  1.
        -13    1    4    4    0    0 -0.56457917879E+02 -0.16852678242E+02 -0.27500361851E+02  0.65021374618E+02  0.00000000000E+00 0. -1.
         13    1    4    4    0    0  0.27614209241E+02  0.12460765043E+02 -0.30571439482E+02  0.43039843511E+02  0.00000000000E+00 0.  1.
          2    1    1    2  501    0  0.31271877315E+02 -0.13291975761E+02  0.10152228921E+02  0.35463709373E+02  0.00000000000E+00 0. -1.
<scales pt_clust_5="13000.00000" pt_clust_6="13000.00000" pt_clust_7="13000.00000" pt_clust_8="13000.00000" pt_clust_9="33.97951"></scales>
<clustering>
<clus scale="   33.980">  1  9  2 -1</clus>
<clus scale="   86.334">  7  8 -1 -1</clus>
<clus scale="   87.776">  1  7  2 -1</clus>
<clus scale="   92.167">  5  6 -1 -1</clus>
<clus scale="   33.980">  1  5  2 -1</clus>
</clustering>
</event>
<event>
 9    1  0.1610296E-005  0.9400964E+02  0.7546771E-02  0.1294388E+00
         21   -1    0    0  501  502  0.00000000000E+00  0.00000000000E+00  0.19116026056E+03  0.19116026056E+03  0.00000000000E+00 0.  1.
         -3   -1    0    0    0  501 -0.00000000000E+00 -0.00000000000E+00 -0.14617820106E+03  0.14617820106E+03  0.00000000000E+00 0.  1.
         23    2    1    2    0    0  0.33511989241E+01  0.48736345434E+01 -0.42238101589E+02  0.10181491655E+03  0.92451269104E+02 0.  0.
         23    2    1    2    0    0 -0.31758022094E+02  0.76026869861E+01 -0.40121215151E+02  0.10445702645E+03  0.90747923681E+02 0.  0.
        -13    1    3    3    0    0 -0.43709504791E+02 -0.63621579110E+01 -0.22360073492E+02  0.49507279757E+02  0.00000000000E+00 0.  1.
         13    1    3    3    0    0  0.47060703715E+02  0.11235792454E+02 -0.19878028097E+02  0.52307636796E+02  0.00000000000E+00 0. -1.
        -13    1    4    4    0    0  0.10947189291E+02 -0.19570159432E+02  0.16997245034E+02  0.28137846973E+02  0.00000000000E+00 0. -1.
         13    1    4    4    0    0 -0.42705211384E+02  0.27172846418E+02 -0.57118460184E+02  0.76319179474E+02  0.00000000000E+00 0.  1.
         -3    1    1    2    0  502  0.28406823170E+02 -0.12476321530E+02  0.12734137623E+03  0.13106651862E+03  0.00000000000E+00 0.  1.
<scales pt_clust_5="13000.00000" pt_clust_6="13000.00000" pt_clust_7="13000.00000" pt_clust_8="13000.00000" pt_clust_9="31.02590"></scales>
<clustering>
<clus scale="   31.026">  1  9  2 -1</clus>
<clus scale="   90.748">  7  8 -1 -1</clus>
<clus scale="   92.335">  1  7  2 -1</clus>
<clus scale="   92.451">  5  6 -1 -1</clus>
<clus scale="   31.026">  1  5  2 -1</clus>
</clustering>
</event>
<event>
 9    1  0.1610296E-005  0.3400547E+03  0.7546771E-02  0.1067085E+00
          1   -1    0    0  502    0 -0.00000000000E+00  0.00000000000E+00  0.22047952719E+04  0.22047952719E+04  0.00000000000E+00 0. -1.
         21   -1    0    0  501  502  0.00000000000E+00 -0.00000000000E+00 -0.93724143332E+02  0.93724143332E+02  0.00000000000E+00 0. -1.
         23    2    1    2    0    0  0.13535965166E+03 -0.29259838864E+03  0.17230796875E+04  0.17553405567E+04  0.90998945544E+02 0.  0.
         23    2    1    2    0    0 -0.11864118205E+03  0.31303938238E+03  0.37788698915E+03  0.51490446375E+03  0.10128497035E+03 0.  0.
        -11    1    3    3    0    0  0.10179478073E+01 -0.23717996676E+02  0.48487814748E+02  0.53987477836E+02  0.00000000000E+00 0.  1.
         11    1    3    3    0    0  0.13434170385E+03 -0.26888039196E+03  0.16745918728E+04  0.17013530789E+04  0.00000000000E+00 0. -1.
        -13    1    4    4    0    0 -0.12859781364E+03  0.26943947152E+03  0.35745736451E+03  0.46573682904E+03  0.00000000000E+00 0. -1.
         13    1    4    4    0    0  0.99566315874E+01  0.43599910860E+02  0.20429624648E+02  0.49167634708E+02  0.00000000000E+00 0.  1.
          1    1    1    2  501    0 -0.16718469610E+02 -0.20440993737E+02  0.10104451844E+02  0.28274394744E+02  0.00000000000E+00 0. -1.
<scales pt_clust_5="13000.00000" pt_clust_6="13000.00000" pt_clust_7="13000.00000" pt_clust_8="13000.00000" pt_clust_9="26.40722"></scales>
<clustering>
<clus scale="   26.407">  2  9  1 -1</clus>
<clus scale="   90.999">  5  6 -1 -1</clus>
<clus scale="  101.285">  7  8 -1 -1</clus>
<clus scale="  337.134">  1  5  2 -1</clus>
<clus scale="   26.407">  2  5  1 -1</clus>
</clustering>
</event>
<event>
 9    1  0.1610296E-005  0.1020100E+03  0.7546771E-02  0.1276256E+00
          3   -1    0    0  502    0 -0.00000000000E+00  0.00000000000E+00  0.98228336349E+02  0.98228336349E+02  0.00000000000E+00 0. -1.
         21   -1    0    0  501  502  0.00000000000E+00 -0.00000000000E+00 -0.32968573598E+03  0.32968573598E+03  0.00000000000E+00 0. -1.
         23    2    1    2    0    0 -0.23917442925E+02  0.44567734540E+02  0.46795132925E+02  0.11405943043E+03  0.90892475846E+02 0.  0.
         23    2    1    2    0    0  0.60252697153E+01 -0.29747978490E+02 -0.11758339770E+03  0.15151448690E+03  0.90606502120E+02 0.  0.
        -11    1    4    4    0    0  0.45007702130E+02 -0.24044063460E+02 -0.41256465506E+02  0.65619404027E+02  0.00000000000E+00 0.  1.
         11    1    4    4    0    0 -0.38982432415E+02 -0.57039150298E+01 -0.76326932196E+02  0.85895082875E+02  0.00000000000E+00 0. -1.
        -13    1    3    3    0    0  0.17884365089E+02 -0.13239767197E+02  0.35406453934E+02  0.41818165075E+02  0.00000000000E+00 0. -1.
         13    1    3    3    0    0 -0.41801808014E+02  0.57807501737E+02  0.11388678991E+02  0.72241265351E+02  0.00000000000E+00 0.  1.
          3    1    1    2  501    0  0.17892173210E+02 -0.14819756050E+02 -0.16066913485E+03  0.16234015500E+03  0.00000000000E+00 0. -1.
<scales pt_clust_5="13000.00000" pt_clust_6="13000.00000" pt_clust_7="13000.00000" pt_clust_8="13000.00000" pt_clust_9="23.23263"></scales>
<clustering>
<clus scale="   23.233">  2  9  1 -1</clus>
<clus scale="   90.607">  5  6 -1 -1</clus>
<clus scale="   90.892">  7  8 -1 -1</clus>
<clus scale="  101.755">  2  5  1 -1</clus>
<clus scale="   23.233">  2  5  1 -1</clus>
</clustering>
</event>
<event>
 9    1  0.1610296E-005  0.9697715E+02  0.7546771E-02  0.1288207E+00
         21   -1    0    0  501  502  0.00000000000E+00  0.00000000000E+00  0.93779906510E+02  0.93779906510E+02  0.00000000000E+00 0.  1.
          1   -1    0    0  502    0 -0.00000000000E+00 -0.00000000000E+00 -0.48908257895E+03  0.48908257895E+03  0.00000000000E+00 0. -1.
         23    2    1    2    0    0  0.17300352284E+02  0.18007004528E+02 -0.27472549359E+03  0.29131283573E+03  0.93624339954E+02 0.  0.
         23    2    1    2    0    0 -0.39137145854E+02  0.40711565671E+02 -0.17724461702E+03  0.20707530694E+03  0.90969119577E+02 0.  0.
        -13    1    4    4    0    0 -0.52423615699E+02 -0.67678028455E+01 -0.60451485128E+02  0.80302059080E+02  0.00000000000E+00 0.  1.
         13    1    4    4    0    0  0.13286469845E+02  0.47479368517E+02 -0.11679313190E+03  0.12677324786E+03  0.00000000000E+00 0. -1.
        -13    1    3    3    0    0  0.48602709685E+02 -0.91904491527E+01 -0.97853078753E+02  0.10964448352E+03  0.00000000000E+00 0. -1.
         13    1    3    3    0    0 -0.31302357401E+02  0.27197453681E+02 -0.17687241484E+03  0.18166835221E+03  0.00000000000E+00 0.  1.
          1    1    1    2  501    0  0.21836793570E+02 -0.58718570199E+02  0.56667438175E+02  0.84474342785E+02  0.00000000000E+00 0. -1.
<scales pt_clust_5="13000.00000" pt_clust_6="13000.00000" pt_clust_7="13000.00000" pt_clust_8="13000.00000" pt_clust_9="62.64755"></scales>
<clustering>
<clus scale="   62.648">  1  9  2 -1</clus>
<clus scale="   90.969">  5  6 -1 -1</clus>
<clus scale="   93.624">  7  8 -1 -1</clus>
<clus scale="   94.416">  1  5  2 -1</clus>
<clus scale="   62.648">  1  5  2 -1</clus>
</clustering>
</event>
<event>
 9    1  0.1610296E-005  0.9379512E+02  0.7546771E-02  0.1297112E+00
          4   -1    0    0  502    0 -0.00000000000E+00  0.00000000000E+00  0.55030219838E+02  0.55030219838E+02  0.00000000000E+00 0. -1.
         21   -1    0    0  501  502  0.00000000000E+00 -0.00000000000E+00 -0.50967817548E+03  0.50967817548E+03  0.00000000000E+00 0. -1.
         23    2    1    2    0    0  0.97677728558E+01  0.66016132155E+01 -0.20419198947E+02  0.89559389299E+02  0.86399941217E+02 0.  0.
         23    2    1    2    0    0 -0.41863836742E+02  0.31135987677E+02 -0.13306009061E+03  0.16993293621E+03  0.91924885319E+02 0.  0.
        -11    1    4    4    0    0 -0.62524572759E+02  0.25228645083E+02 -0.49469253227E+02  0.83624241379E+02  0.00000000000E+00 0. -1.
         11    1    4    4    0    0  0.20660736016E+02  0.59073425942E+01 -0.83590837386E+02  0.86308694835E+02  0.00000000000E+00 0.  1.
        -13    1    3    3    0    0  0.46197181851E+02 -0.23796190820E+00 -0.24460497855E+02  0.52273819376E+02  0.00000000000E+00 0.  1.
         13    1    3    3    0    0 -0.36429408995E+02  0.68395751237E+01  0.40412989082E+01  0.37285569923E+02  0.00000000000E+00 0. -1.
          4    1    1    2  501    0  0.32096063886E+02 -0.37737600893E+02 -0.30116866608E+03  0.30521606980E+03  0.00000000000E+00 0. -1.
<scales pt_clust_5="13000.00000" pt_clust_6="13000.00000" pt_clust_7="13000.00000" pt_clust_8="13000.00000" pt_clust_9="49.54073"></scales>
<clustering>
<clus scale="   49.541">  2  9  1 -1</clus>
<clus scale="   86.400">  7  8 -1 -1</clus>
<clus scale="   88.387">  1  7  2 -1</clus>
<clus scale="   91.925">  5  6 -1 -1</clus>
<clus scale="   49.541">  2  5  1 -1</clus>
</clustering>
</event>
<event>
 9    1  0.1610296E-005  0.1037629E+03  0.7546771E-02  0.1276338E+00
         -1   -1    0    0    0  501 -0.00000000000E+00  0.00000000000E+00  0.13691692889E+03  0.13691692889E+03  0.00000000000E+00 0.  1.
         21   -1    0    0  501  502  0.00000000000E+00 -0.00000000000E+00 -0.29460678560E+03  0.29460678560E+03  0.00000000000E+00 0.  1.
         23    2    1    2    0    0  0.32167176540E+02 -0.15604687566E+02  0.73967907028E+02  0.12374912381E+03  0.92543832059E+02 0.  0.
         23    2    1    2    0    0 -0.94844257163E+00  0.81375945522E+01 -0.31739210371E+02  0.10529546877E+03  0.10006317145E+03 0.  0.
        -11    1    4    4    0    0 -0.24506688352E+02 -0.11409403487E+02  0.27532942756E+02  0.38585168118E+02  0.00000000000E+00 0.  1.
         11    1    4    4    0    0  0.23558245780E+02  0.19546998039E+02 -0.59272153127E+02  0.66710300651E+02  0.00000000000E+00 0. -1.
        -13    1    3    3    0    0  0.30400243801E+02  0.33998305091E+02  0.18233688186E+02  0.49117481176E+02  0.00000000000E+00 0. -1.
         13    1    3    3    0    0  0.17669327398E+01 -0.49602992657E+02  0.55734218842E+02  0.74631642631E+02  0.00000000000E+00 0.  1.
         -1    1    1    2    0  502 -0.31218733969E+02  0.74670930137E+01 -0.19991855337E+03  0.20247912191E+03  0.00000000000E+00 0.  1.
<scales pt_clust_5="13000.00000" pt_clust_6="13000.00000" pt_clust_7="13000.00000" pt_clust_8="13000.00000" pt_clust_9="32.09933"></scales>
<clustering>
<clus scale="   32.099">  2  9  1 -1</clus>
<clus scale="   92.544">  7  8 -1 -1</clus>
<clus scale="   96.532">  1  7  2 -1</clus>
<clus scale="  100.063">  5  6 -1 -1</clus>
<clus scale="   32.099">  2  5  1 -1</clus>
</clustering>
</event>
<event>
 9    1  0.1610296E-005  0.9769265E+02  0.7546771E-02  0.1285303E+00
         21   -1    0    0  501  502  0.00000000000E+00  0.00000000000E+00  0.28249424417E+03  0.28249424417E+03  0.00000000000E+00 0.  1.
         -1   -1    0    0    0  501 -0.00000000000E+00 -0.00000000000E+00 -0.38583265248E+03  0.38583265248E+03  0.00000000000E+00 0.  1.
         23    2    1    2    0    0 -0.32436159992E+02  0.11129227536E+02 -0.23174953132E+03  0.25144371727E+03  0.91324331409E+02 0.  0.
         23    2    1    2    0    0  0.40226284357E+01 -0.54280304108E+02 -0.12158820507E+03  0.16160096647E+03  0.91480313717E+02 0.  0.
        -11    1    4    4    0    0 -0.22363059282E+02 -0.35991338806E+02 -0.12235805910E+03  0.12948736431E+03  0.00000000000E+00 0.  1.
         11    1    4    4    0    0  0.26385687718E+02 -0.18288965303E+02  0.76985403262E+00  0.32113602156E+02  0.00000000000E+00 0. -1.
        -13    1    3    3    0    0  0.18675102221E+02 -0.26447339099E+02 -0.10202143373E+03  0.10703548070E+03  0.00000000000E+00 0.  1.
         13    1    3    3    0    0 -0.51111262213E+02  0.37576566635E+02 -0.12972809759E+03  0.14440823657E+03  0.00000000000E+00 0. -1.
         -1    1    1    2    0  502  0.28413531557E+02  0.43151076572E+02  0.24999932808E+03  0.25528221291E+03  0.00000000000E+00 0.  1.
<scales pt_clust_5="13000.00000" pt_clust_6="13000.00000" pt_clust_7="13000.00000" pt_clust_8="13000.00000" pt_clust_9="51.66570"></scales>
<clustering>
<clus scale="   51.666">  1  9  2 -1</clus>
<clus scale="   91.324">  7  8 -1 -1</clus>
<clus scale="   91.480">  5  6 -1 -1</clus>
<clus scale="   97.547">  2  7  1 -1</clus>
<clus scale="   51.666">  1  5  2 -1</clus>
</clustering>
</event>
<event>
 9    1  0.1610296E-005  0.1084430E+03  0.7546771E-02  0.1267083E+00
         21   -1    0    0  501  502  0.00000000000E+00  0.00000000000E+00  0.33623389411E+02  0.33623389411E+02  0.00000000000E+00 0.  1.
          3   -1    0    0  502    0 -0.00000000000E+00 -0.00000000000E+00 -0.76811747817E+03  0.76811747817E+03  0.00000000000E+00 0. -1.
         23    2    1    2    0    0 -0.10959818483E+02 -0.36353247049E+02 -0.42304060752E+03  0.43583261393E+03  0.97698697882E+02 0.  0.
         23    2    1    2    0    0  0.54725464594E+02  0.40461996549E+02 -0.30016494252E+03  0.32052384324E+03  0.89467825091E+02 0.  0.
        -13    1    4    4    0    0  0.60453890191E+02 -0.29670120576E+01 -0.22980255029E+03  0.23763982856E+03  0.00000000000E+00 0.  1.
         13    1    4    4    0    0 -0.57284255973E+01  0.43429008606E+02 -0.70362392232E+02  0.82884014677E+02  0.00000000000E+00 0. -1.
        -13    1    3    3    0    0  0.26549318990E+02 -0.53180067735E+02 -0.30760342674E+03  0.31329355896E+03  0.00000000000E+00 0.  1.
         13    1    3    3    0    0 -0.37509137473E+02  0.16826820686E+02 -0.11543718078E+03  0.12253905498E+03  0.00000000000E+00 0. -1.
          3    1    1    2  501    0 -0.43765646111E+02 -0.41087494998E+01 -0.11288538727E+02  0.45384410413E+02  0.00000000000E+00 0. -1.
<scales pt_clust_5="13000.00000" pt_clust_6="13000.00000" pt_clust_7="13000.00000" pt_clust_8="13000.00000" pt_clust_9="43.95809"></scales>
<clustering>
<clus scale="   43.958">  1  9  2 -1</clus>
<clus scale="   89.468">  5  6 -1 -1</clus>
<clus scale="   97.699">  7  8 -1 -1</clus>
<clus scale="  101.091">  1  5  2 -1</clus>
<clus scale="   43.958">  1  5  2 -1</clus>
</clustering>
</event>
<event>
 9    1  0.1610296E-005  0.1088998E+03  0.7546771E-02  0.1263652E+00
          3   -1    0    0  502    0 -0.00000000000E+00  0.00000000000E+00  0.56901378437E+03  0.56901378437E+03  0.00000000000E+00 0. -1.
         21   -1    0    0  501  502  0.00000000000E+00 -0.00000000000E+00 -0.25754348197E+02  0.25754348197E+02  0.00000000000E+00 0.  1.
         23    2    1    2    0    0 -0.13303367677E+02 -0.58125431971E+02  0.29189305878E+03  0.31151770142E+03  0.91028430178E+02 0.  0.
         23    2    1    2    0    0  0.34368606234E+02  0.51836090459E+02  0.21736116616E+03  0.24275778387E+03  0.88415404250E+02 0.  0.
        -11    1    3    3    0    0  0.10757611357E+02 -0.76853522870E+02  0.19251507168E+03  0.20756744206E+03  0.00000000000E+00 0.  1.
         11    1    3    3    0    0 -0.24060979034E+02  0.18728090899E+02  0.99377987101E+02  0.10395025936E+03  0.00000000000E+00 0. -1.
        -13    1    4    4    0    0  0.41428210960E+02  0.13738780345E+02  0.33942664630E+02  0.55291547554E+02  0.00000000000E+00 0.  1.
         13    1    4    4    0    0 -0.70596047261E+01  0.38097310114E+02  0.18341850153E+03  0.18746623632E+03  0.00000000000E+00 0. -1.
          3    1    1    2  501    0 -0.21065238557E+02  0.62893415125E+01  0.34005211235E+02  0.40492647274E+02  0.00000000000E+00 0. -1.
<scales pt_clust_5="13000.00000" pt_clust_6="13000.00000" pt_clust_7="13000.00000" pt_clust_8="13000.00000" pt_clust_9="21.98409"></scales>
<clustering>
<clus scale="   21.984">  2  9  1 -1</clus>
<clus scale="   88.415">  7  8 -1 -1</clus>
<clus scale="   91.028">  5  6 -1 -1</clus>
<clus scale="  106.725">  2  7  1 -1</clus>
<clus scale="   21.984">  2  5  1 -1</clus>
</clustering>
</event>
<event>
 9    1  0.1610296E-005  0.1066995E+03  0.7546771E-02  0.1268518E+00
         21   -1    0    0  501  502  0.00000000000E+00  0.00000000000E+00  0.77610860146E+02  0.77610860146E+02  0.00000000000E+00 0.  1.
          1   -1    0    0  502    0 -0.00000000000E+00 -0.00000000000E+00 -0.31756104377E+03  0.31756104377E+03  0.00000000000E+00 0. -1.
         23    2    1    2    0    0  0.55261430609E+02  0.26614144429E+02 -0.22361247059E+03  0.24816939787E+03  0.88449842498E+02 0.  0.
         23    2    1    2    0    0 -0.29843403664E+02 -0.11910675368E+02 -0.43368736065E+02  0.10709079972E+03  0.92493779174E+02 0.  0.
        -11    1    3    3    0    0  0.28742856746E+02  0.52894438370E+02 -0.18461262950E+03  0.19417980429E+03  0.00000000000E+00 0. -1.
         11    1    3    3    0    0  0.26518573863E+02 -0.26280293941E+02 -0.38999841092E+02  0.53989593576E+02  0.00000000000E+00 0.  1.
        -13    1    4    4    0    0  0.26316559387E+02 -0.19336551234E+02  0.44489093298E+01  0.32958402659E+02  0.00000000000E+00 0. -1.
         13    1    4    4    0    0 -0.56159963051E+02  0.74258758667E+01 -0.47817645395E+02  0.74132397057E+02  0.00000000000E+00 0.  1.
          1    1    1    2  501    0 -0.25418026945E+02 -0.14703469061E+02  0.27031023031E+02  0.39911706332E+02  0.00000000000E+00 0. -1.
<scales pt_clust_5="13000.00000" pt_clust_6="13000.00000" pt_clust_7="13000.00000" pt_clust_8="13000.00000" pt_clust_9="29.36440"></scales>
<clustering>
<clus scale="   29.364">  1  9  2 -1</clus>
<clus scale="   88.450">  5  6 -1 -1</clus>
<clus scale="   92.494">  7  8 -1 -1</clus>
<clus scale="  103.214">  2  5  1 -1</clus>
<clus scale="   29.364">  1  5  2 -1</clus>
</clustering>
</event>
<event>
 9    1  0.1610296E-005  0.1003147E+03  0.7546771E-02  0.1280535E+00
         -2   -1    0    0    0  501 -0.00000000000E+00  0.00000000000E+00  0.10575272541E+03  0.10575272541E+03  0.00000000000E+00 0. -1.
         21   -1    0    0  501  502  0.00000000000E+00 -0.00000000000E+00 -0.24885457134E+03  0.24885457134E+03  0.00000000000E+00 0. -1.
         23    2    1    2    0    0  0.27996399674E+02 -0.38945784352E+02  0.45363306656E+02  0.11271203012E+03  0.91354253480E+02 0.  0.
         23    2    1    2    0    0 -0.15967263953E+02  0.19510797540E+02 -0.58289104240E+02  0.10972786375E+03  0.89481616391E+02 0.  0.
        -11    1    4    4    0    0  0.51245415247E+01  0.45738231825E+02 -0.44558840449E+01  0.46239611579E+02  0.00000000000E+00 0.  1.
         11    1    4    4    0    0 -0.21091805478E+02 -0.26227434286E+02 -0.53833220195E+02  0.63488252174E+02  0.00000000000E+00 0. -1.
        -11    1    3    3    0    0  0.30615007714E+02  0.23468194207E+02  0.64394280671E+01  0.39108836220E+02  0.00000000000E+00 0.  1.
         11    1    3    3    0    0 -0.26186080399E+01 -0.62413978558E+02  0.38923878589E+02  0.73603193898E+02  0.00000000000E+00 0. -1.
         -2    1    1    2    0  502 -0.12029135720E+02  0.19434986812E+02 -0.13017604835E+03  0.13216740288E+03  0.00000000000E+00 0. -1.
<scales pt_clust_5="13000.00000" pt_clust_6="13000.00000" pt_clust_7="13000.00000" pt_clust_8="13000.00000" pt_clust_9="22.85648"></scales>
<clustering>
<clus scale="   22.856">  2  9  1 -1</clus>
<clus scale="   89.482">  5  6 -1 -1</clus>
<clus scale="   91.354">  7  8 -1 -1</clus>
<clus scale="   98.612">  2  5  1 -1</clus>
<clus scale="   22.856">  2  5  1 -1</clus>
</clustering>
</event>
<event>
 9    1  0.1610296E-005  0.1021615E+03  0.7546771E-02  0.1280674E+00
          4   -1    0    0  502    0 -0.00000000000E+00  0.00000000000E+00  0.45212679634E+02  0.45212679634E+02  0.00000000000E+00 0. -1.
         21   -1    0    0  501  502  0.00000000000E+00 -0.00000000000E+00 -0.27203558903E+03  0.27203558903E+03  0.00000000000E+00 0.  1.
         23    2    1    2    0    0 -0.42382040025E+00  0.50362546414E+02 -0.74594987095E+02  0.12105702557E+03  0.80955701677E+02 0.  0.
         23    2    1    2    0    0 -0.18749829652E+02 -0.38430995844E+02 -0.11760378204E+03  0.15485334469E+03  0.91216288349E+02 0.  0.
        -11    1    4    4    0    0 -0.27536708154E+02 -0.61252974006E+02 -0.11063801479E+03  0.12942552854E+03  0.00000000000E+00 0.  1.
         11    1    4    4    0    0  0.87868785023E+01  0.22821978162E+02 -0.69657672427E+01  0.25427816153E+02  0.00000000000E+00 0. -1.
        -11    1    3    3    0    0  0.33417326337E+02  0.41417340068E+01 -0.10904750910E+02  0.35394706560E+02  0.00000000000E+00 0. -1.
         11    1    3    3    0    0 -0.33841146737E+02  0.46220812407E+02 -0.63690236185E+02  0.85662319005E+02  0.00000000000E+00 0.  1.
          4    1    1    2  501    0  0.19173650052E+02 -0.11931550570E+02 -0.34624140264E+02  0.41337898403E+02  0.00000000000E+00 0. -1.
<scales pt_clust_5="13000.00000" pt_clust_6="13000.00000" pt_clust_7="13000.00000" pt_clust_8="13000.00000" pt_clust_9="22.58297"></scales>
<clustering>
<clus scale="   22.583">  2  9  1 -1</clus>
<clus scale="   80.956">  7  8 -1 -1</clus>
<clus scale="   91.216">  5  6 -1 -1</clus>
<clus scale="   93.115">  1  7  2 -1</clus>
<clus scale="   22.583">  2  5  1 -1</clus>
</clustering>
</event>
<event>
 9    1  0.1610296E-005  0.1149075E+03  0.7546771E-02  0.1260748E+00
         -4   -1    0    0    0  501 -0.00000000000E+00  0.00000000000E+00  0.42230628032E+02  0.42230628032E+02  0.00000000000E+00 0.  1.
         21   -1    0    0  501  502  0.00000000000E+00 -0.00000000000E+00 -0.10325363805E+04  0.10325363805E+04  0.00000000000E+00 0. -1.
         23    2    1    2    0    0 -0.34392696116E+02  0.12369600945E+02 -0.51431681745E+02  0.11132213804E+03  0.91714426106E+02 0.  0.
         23    2    1    2    0    0  0.35886765741E+01  0.52115468743E+02 -0.36472137282E+03  0.38486165924E+03  0.11121113381E+03 0.  0.
        -11    1    4    4    0    0 -0.60246656787E+01 -0.30032166464E+02 -0.17836593410E+03  0.18097688821E+03  0.00000000000E+00 0.  1.
         11    1    4    4    0    0  0.96133422528E+01  0.82147635207E+02 -0.18635543872E+03  0.20388477103E+03  0.00000000000E+00 0. -1.
        -13    1    3    3    0    0  0.98130952567E+01 -0.19582196080E+02 -0.52374144165E+02  0.56769800236E+02  0.00000000000E+00 0.  1.
         13    1    3    3    0    0 -0.44205791372E+02  0.31951797025E+02  0.94246241948E+00  0.54552337799E+02  0.00000000000E+00 0. -1.
         -4    1    1    2    0  502  0.30804019542E+02 -0.64485069687E+02 -0.57415269790E+03  0.57858321125E+03  0.00000000000E+00 0.  1.
<scales pt_clust_5="13000.00000" pt_clust_6="13000.00000" pt_clust_7="13000.00000" pt_clust_8="13000.00000" pt_clust_9="71.46476"></scales>
<clustering>
<clus scale="   71.465">  2  9  1 -1</clus>
<clus scale="   91.714">  7  8 -1 -1</clus>
<clus scale="   96.163">  1  7  2 -1</clus>
<clus scale="  111.211">  5  6 -1 -1</clus>
<clus scale="   71.465">  2  5  1 -1</clus>
</clustering>
</event>
<event>
 9    1  0.1610296E-005  0.9955914E+02  0.7546771E-02  0.1286018E+00
          1   -1    0    0  502    0 -0.00000000000E+00  0.00000000000E+00  0.17722657446E+03  0.17722657446E+03  0.00000000000E+00 0. -1.
         21   -1    0    0  501  502  0.00000000000E+00 -0.00000000000E+00 -0.12295190076E+03  0.12295190076E+03  0.00000000000E+00 0.  1.
         23    2    1    2    0    0  0.39324469595E+02 -0.98614842850E+01  0.13036329793E+03  0.16455897387E+03  0.91877111684E+02 0.  0.
         23    2    1    2    0    0 -0.29042273779E+02 -0.91996305826E+01 -0.71908689381E+02  0.11356226884E+03  0.82446603490E+02 0.  0.
        -11    1    3    3    0    0  0.28344687151E+02  0.23899762163E+02  0.90593549524E+01  0.38166632460E+02  0.00000000000E+00 0.  1.
         11    1    3    3    0    0  0.10979782444E+02 -0.33761246448E+02  0.12130394298E+03  0.12639234141E+03  0.00000000000E+00 0. -1.
        -11    1    4    4    0    0  0.20889076967E+02  0.20007468607E+02 -0.15728384944E+02  0.32924678123E+02  0.00000000000E+00 0. -1.
         11    1    4    4    0    0 -0.49931350745E+02 -0.29207099189E+02 -0.56180304437E+02  0.80637590719E+02  0.00000000000E+00 0.  1.
          1    1    1    2  501    0 -0.10282195817E+02  0.19061114868E+02 -0.41799348467E+01  0.22057232513E+02  0.00000000000E+00 0. -1.
<scales pt_clust_5="13000.00000" pt_clust_6="13000.00000" pt_clust_7="13000.00000" pt_clust_8="13000.00000" pt_clust_9="21.65755"></scales>
<clustering>
<clus scale="   21.658">  2  9  1 -1</clus>
<clus scale="   82.447">  7  8 -1 -1</clus>
<clus scale="   90.929">  2  7  1 -1</clus>
<clus scale="   91.877">  5  6 -1 -1</clus>
<clus scale="   21.658">  2  5  1 -1</clus>
</clustering>
</event>
<event>
 9    1  0.1610296E-005  0.1427569E+03  0.7546771E-02  0.1210126E+00
         21   -1    0    0  501  502  0.00000000000E+00  0.00000000000E+00  0.13566857899E+03  0.13566857899E+03  0.00000000000E+00 0. -1.
          1   -1    0    0  502    0 -0.00000000000E+00 -0.00000000000E+00 -0.18656484815E+03  0.18656484815E+03  0.00000000000E+00 0. -1.
         23    2    1    2    0    0  0.41000870675E+01 -0.11829587612E+03 -0.64761284429E+02  0.16296892176E+03  0.91400877878E+02 0.  0.
         23    2    1    2    0    0 -0.41608322647E+01  0.95434256305E+02  0.26178149835E+02  0.13329778373E+03  0.89207588339E+02 0.  0.
        -11    1    4    4    0    0  0.29388658066E+02  0.39208938539E+02  0.43552119416E+02  0.65557769867E+02  0.00000000000E+00 0. -1.
         11    1    4    4    0    0 -0.33549490331E+02  0.56225317766E+02 -0.17373969581E+02  0.67740013864E+02  0.00000000000E+00 0.  1.
        -11    1    3    3    0    0 -0.36788766644E+02 -0.23686052463E+02 -0.33991619282E+02  0.55406431160E+02  0.00000000000E+00 0.  1.
         11    1    3    3    0    0  0.40888853711E+02 -0.94609823658E+02 -0.30769665147E+02  0.10756249060E+03  0.00000000000E+00 0. -1.
          1    1    1    2  501    0  0.60745197251E-01  0.22861619816E+02 -0.12313134560E+02  0.25966721651E+02  0.00000000000E+00 0. -1.
<scales pt_clust_5="13000.00000" pt_clust_6="13000.00000" pt_clust_7="13000.00000" pt_clust_8="13000.00000" pt_clust_9="22.86171"></scales>
<clustering>
<clus scale="   22.862">  1  9  2 -1</clus>
<clus scale="   89.208">  5  6 -1 -1</clus>
<clus scale="   91.401">  7  8 -1 -1</clus>
<clus scale="  141.363">  1  5  2 -1</clus>
<clus scale="   22.862">  1  5  2 -1</clus>
</clustering>
</event>
<event>
 9    1  0.1610296E-005  0.9579925E+02  0.7546771E-02  0.1290149E+00
          1   -1    0    0  502    0 -0.00000000000E+00  0.00000000000E+00  0.53265007581E+03  0.53265007581E+03  0.00000000000E+00 0. -1.
         21   -1    0    0  501  502  0.00000000000E+00 -0.00000000000E+00 -0.52217655886E+02  0.52217655886E+02  0.00000000000E+00 0. -1.
         23    2    1    2    0    0 -0.24970866420E+02 -0.55457020444E+01  0.42409152706E+03  0.43463350632E+03  0.91642580268E+02 0.  0.
         23    2    1    2    0    0  0.40872052650E+02 -0.79944027598E+01  0.73178917260E+02  0.12340697752E+03  0.90220247211E+02 0.  0.
        -11    1    4    4    0    0 -0.69628195425E+01 -0.40712458019E+02  0.33343040829E+02  0.53082421438E+02  0.00000000000E+00 0. -1.
         11    1    4    4    0    0  0.47834872193E+02  0.32718055259E+02  0.39835876430E+02  0.70324556086E+02  0.00000000000E+00 0.  1.
        -11    1    3    3    0    0 -0.56012367373E+02  0.10289370990E+02  0.31515493415E+03  0.32025909662E+03  0.00000000000E+00 0. -1.
         11    1    3    3    0    0  0.31041500952E+02 -0.15835073035E+02  0.10893659291E+03  0.11437440970E+03  0.00000000000E+00 0.  1.
          1    1    1    2  501    0 -0.15901186230E+02  0.13540104804E+02 -0.16838024393E+02  0.26827247847E+02  0.00000000000E+00 0. -1.
<scales pt_clust_5="13000.00000" pt_clust_6="13000.00000" pt_clust_7="13000.00000" pt_clust_8="13000.00000" pt_clust_9="20.88497"></scales>
<clustering>
<clus scale="   20.885">  2  9  1 -1</clus>
<clus scale="   90.220">  5  6 -1 -1</clus>
<clus scale="   91.643">  7  8 -1 -1</clus>
<clus scale="   94.440">  2  5  1 -1</clus>
<clus scale="   20.885">  2  5  1 -1</clus>
</clustering>
</event>
<event>
 9    1  0.1610296E-005  0.1463922E+03  0.7546771E-02  0.1217155E+00
         -4   -1    0    0    0  501 -0.00000000000E+00  0.00000000000E+00  0.12667242289E+03  0.12667242289E+03  0.00000000000E+00 0.  1.
         21   -1    0    0  501  502  0.00000000000E+00 -0.00000000000E+00 -0.29679387490E+03  0.29679387490E+03  0.00000000000E+00 0.  1.
         23    2    1    2    0    0 -0.38649601420E+02 -0.53060949024E+02 -0.16657753772E+02  0.11414791895E+03  0.91885856574E+02 0.  0.
         23    2    1    2    0    0 -0.85460458476E+02 -0.26269463564E+01 -0.39679593375E+02  0.13197331638E+03  0.92369341759E+02 0.  0.
        -11    1    4    4    0    0 -0.42027277154E+02 -0.16119806239E+02  0.26076988587E+02  0.52020664278E+02  0.00000000000E+00 0.  1.
         11    1    4    4    0    0 -0.43433181323E+02  0.13492859883E+02 -0.65756581962E+02  0.79952652107E+02  0.00000000000E+00 0. -1.
        -13    1    3    3    0    0 -0.16923192727E+02  0.25910346102E+02 -0.27405057475E+01  0.31068486589E+02  0.00000000000E+00 0.  1.
         13    1    3    3    0    0 -0.21726408693E+02 -0.78971295126E+02 -0.13917248025E+02  0.83079432359E+02  0.00000000000E+00 0. -1.
         -4    1    1    2    0  502  0.12411005990E+03  0.55687895380E+02 -0.11378410486E+03  0.17734506246E+03  0.00000000000E+00 0.  1.
<scales pt_clust_5="13000.00000" pt_clust_6="13000.00000" pt_clust_7="13000.00000" pt_clust_8="13000.00000" pt_clust_9="113.57186"></scales>
<clustering>
<clus scale="   91.886">  7  8 -1 -1</clus>
<clus scale="   92.369">  5  6 -1 -1</clus>
<clus scale="  112.926">  1  7  2 -1</clus>
<clus scale="  113.572">  2  9  1 -1</clus>
<clus scale="  113.572">  2  5  1 -1</clus>
</clustering>
</event>
<event>
 9    1  0.1610296E-005  0.1082237E+03  0.7546771E-02  0.1265849E+00
         -1   -1    0    0    0  501 -0.00000000000E+00  0.00000000000E+00  0.16419283935E+03  0.16419283935E+03  0.00000000000E+00 0.  1.
         21   -1    0    0  501  502  0.00000000000E+00 -0.00000000000E+00 -0.11481834945E+03  0.11481834945E+03  0.00000000000E+00 0. -1.
         23    2    1    2    0    0  0.63133946375E+01  0.51155193745E+02  0.66790509995E+02  0.12696628678E+03  0.94882838037E+02 0.  0.
         23    2    1    2    0    0 -0.41603356796E+02 -0.43463530194E+02  0.66183394262E+01  0.10866064734E+03  0.90240878262E+02 0.  0.
        -11    1    4    4    0    0  0.27179686845E+02 -0.23735582566E+02 -0.40581367367E+01  0.36312280712E+02  0.00000000000E+00 0.  1.
         11    1    4    4    0    0 -0.68783043641E+02 -0.19727947628E+02  0.10676476163E+02  0.72348366625E+02  0.00000000000E+00 0. -1.
        -13    1    3    3    0    0 -0.14991263773E+02  0.74030674085E+02  0.38379763223E+02  0.84724759782E+02  0.00000000000E+00 0. -1.
         13    1    3    3    0    0  0.21304658411E+02 -0.22875480341E+02  0.28410746772E+02  0.42241526996E+02  0.00000000000E+00 0.  1.
         -1    1    1    2    0  502  0.35289962158E+02 -0.76916635510E+01 -0.24034359515E+02  0.43384254685E+02  0.00000000000E+00 0.  1.
<scales pt_clust_5="13000.00000" pt_clust_6="13000.00000" pt_clust_7="13000.00000" pt_clust_8="13000.00000" pt_clust_9="36.11846"></scales>
<clustering>
<clus scale="   36.118">  2  9  1 -1</clus>
<clus scale="   90.241">  5  6 -1 -1</clus>
<clus scale="   94.883">  7  8 -1 -1</clus>
<clus scale="  104.178">  2  5  1 -1</clus>
<clus scale="   36.118">  2  5  1 -1</clus>
</clustering>
</event>
<event>
 9    1  0.1610296E-005  0.1046611E+03  0.7546771E-02  0.1275058E+00
         21   -1    0    0  501  502  0.00000000000E+00  0.00000000000E+00  0.31394323103E+03  0.31394323103E+03  0.00000000000E+00 0. -1.
          2   -1    0    0  502    0 -0.00000000000E+00 -0.00000000000E+00 -0.48868916219E+03  0.48868916219E+03  0.00000000000E+00 0. -1.
         23    2    1    2    0    0 -0.25546423707E+01 -0.49092165564E+02 -0.45612286936E+03  0.46608849956E+03  0.82303405463E+02 0.  0.
         23    2    1    2    0    0 -0.21872356768E+02  0.88529977940E+02  0.15503821329E+03  0.20195751714E+03  0.91836997801E+02 0.  0.
        -13    1    3    3    0    0 -0.22303574854E+01  0.23250697830E+02 -0.99956398160E+02  0.10264916452E+03  0.00000000000E+00 0.  1.
         13    1    3    3    0    0 -0.32428488532E+00 -0.72342863394E+02 -0.35616647120E+03  0.36343933504E+03  0.00000000000E+00 0. -1.
        -13    1    4    4    0    0 -0.58038199022E+01  0.56628035158E+02  0.17053389003E+02  0.59424210284E+02  0.00000000000E+00 0. -1.
         13    1    4    4    0    0 -0.16068536866E+02  0.31901942782E+02  0.13798482429E+03  0.14253330686E+03  0.00000000000E+00 0.  1.
          2    1    1    2  501    0  0.24426999139E+02 -0.39437812377E+02  0.12633872491E+03  0.13458637652E+03  0.00000000000E+00 0. -1.
<scales pt_clust_5="13000.00000" pt_clust_6="13000.00000" pt_clust_7="13000.00000" pt_clust_8="13000.00000" pt_clust_9="46.38986"></scales>
<clustering>
<clus scale="   46.390">  1  9  2 -1</clus>
<clus scale="   82.303">  5  6 -1 -1</clus>
<clus scale="   91.837">  7  8 -1 -1</clus>
<clus scale="   96.404">  2  5  1 -1</clus>
<clus scale="   46.390">  1  5  2 -1</clus>
</clustering>
</event>
<event>
 9    1  0.1610296E-005  0.1115163E+03  0.7546771E-02  0.1261630E+00
         21   -1    0    0  501  502  0.00000000000E+00  0.00000000000E+00  0.52620461235E+02  0.52620461235E+02  0.00000000000E+00 0. -1.
          2   -1    0    0  502    0 -0.00000000000E+00 -0.00000000000E+00 -0.84105382785E+03  0.84105382785E+03  0.00000000000E+00 0. -1.
         23    2    1    2    0    0 -0.55392523239E+02  0.54662338366E+02 -0.43573718510E+03  0.45142452453E+03  0.88661739231E+02 0.  0.
         23    2    1    2    0    0  0.46757145693E+02  0.49936750187E+02 -0.30379703120E+03  0.32646260649E+03  0.98006569050E+02 0.  0.
        -11    1    4    4    0    0  0.36065012951E+02  0.76511828181E+02 -0.26542891419E+03  0.27858078451E+03  0.00000000000E+00 0.  1.
         11    1    4    4    0    0  0.10692132742E+02 -0.26575077995E+02 -0.38368117012E+02  0.47881821979E+02  0.00000000000E+00 0. -1.
        -13    1    3    3    0    0  0.20296246265E+02  0.75243992111E+01 -0.37247182072E+02  0.43080236400E+02  0.00000000000E+00 0.  1.
         13    1    3    3    0    0 -0.75688769504E+02  0.47137939155E+02 -0.39849000303E+03  0.40834428813E+03  0.00000000000E+00 0. -1.
          2    1    1    2  501    0  0.86353775462E+01 -0.10459908855E+03 -0.48899150316E+02  0.11578715807E+03  0.00000000000E+00 0. -1.
<scales pt_clust_5="13000.00000" pt_clust_6="13000.00000" pt_clust_7="13000.00000" pt_clust_8="13000.00000" pt_clust_9="104.95494"></scales>
<clustering>
<clus scale="   88.662">  7  8 -1 -1</clus>
<clus scale="   98.007">  5  6 -1 -1</clus>
<clus scale="  104.955">  1  9  2 -1</clus>
<clus scale="  103.400">  2  7  1 -1</clus>
<clus scale="  104.955">  1  5  2 -1</clus>
</clustering>
</event>
<event>
 9    1  0.1610296E-005  0.9449390E+02  0.7546771E-02  0.1292351E+00
          1   -1    0    0  502    0 -0.00000000000E+00  0.00000000000E+00  0.21950803538E+03  0.21950803538E+03  0.00000000000E+00 0. -1.
         21   -1    0    0  501  502  0.00000000000E+00 -0.00000000000E+00 -0.29647046035E+03  0.29647046035E+03  0.00000000000E+00 0. -1.
         23    2    1    2    0    0 -0.79843816932E+01  0.36125400842E+02  0.13779804652E+03  0.16965886301E+03  0.91798873826E+02 0.  0.
         23    2    1    2    0    0 -0.55086711448E+01  0.72337928538E+01  0.30334289604E+02  0.97053662191E+02  0.91741871586E+02 0.  0.
        -11    1    3    3    0    0  0.39129522607E+02  0.88570019535E-02  0.63049466159E+02  0.74204816560E+02  0.00000000000E+00 0.  1.
         11    1    3    3    0    0 -0.47113904300E+02  0.36116543840E+02  0.74748580359E+02  0.95454046447E+02  0.00000000000E+00 0. -1.
        -11    1    4    4    0    0  0.20265375062E+02 -0.35645628851E+02  0.60695861381E+01  0.41450406011E+02  0.00000000000E+00 0. -1.
         11    1    4    4    0    0 -0.25774046207E+02  0.42879421704E+02  0.24264703466E+02  0.55603256180E+02  0.00000000000E+00 0.  1.
          1    1    1    2  501    0  0.13493052838E+02 -0.43359193696E+02 -0.24509476109E+03  0.24926597053E+03  0.00000000000E+00 0. -1.
<scales pt_clust_5="13000.00000" pt_clust_6="13000.00000" pt_clust_7="13000.00000" pt_clust_8="13000.00000" pt_clust_9="45.41015"></scales>
<clustering>
<clus scale="   45.410">  2  9  1 -1</clus>
<clus scale="   91.742">  7  8 -1 -1</clus>
<clus scale="   91.799">  5  6 -1 -1</clus>
<clus scale="   94.439">  2  7  1 -1</clus>
<clus scale="   45.410">  2  5  1 -1</clus>
</clustering>
</event>
<event>
 9    1  0.1610296E-005  0.9708285E+02  0.7546771E-02  0.1287227E+00
         21   -1    0    0  501  502  0.00000000000E+00  0.00000000000E+00  0.60084749300E+02  0.60084749300E+02  0.00000000000E+00 0.  1.
          2   -1    0    0  502    0 -0.00000000000E+00 -0.00000000000E+00 -0.37935575131E+03  0.37935575131E+03  0.00000000000E+00 0. -1.
         23    2    1    2    0    0 -0.28987389706E+01  0.34736564671E+02 -0.27741698279E+03  0.29413949396E+03  0.91339082272E+02 0.  0.
         23    2    1    2    0    0  0.33330769279E+02 -0.19844715177E+02 -0.50577882216E+02  0.11031556060E+03  0.90036924872E+02 0.  0.
        -11    1    4    4    0    0  0.47584707291E+02  0.23792126897E+01 -0.64718925788E+02  0.80364820513E+02  0.00000000000E+00 0.  1.
         11    1    4    4    0    0 -0.14253938012E+02 -0.22223927867E+02  0.14141043571E+02  0.29950740090E+02  0.00000000000E+00 0. -1.
        -11    1    3    3    0    0  0.16058051667E+02 -0.26918968027E+02 -0.65330215134E+02  0.72460533205E+02  0.00000000000E+00 0.  1.
         11    1    3    3    0    0 -0.18956790637E+02  0.61655532698E+02 -0.21208676766E+03  0.22167896075E+03  0.00000000000E+00 0. -1.
          2    1    1    2  501    0 -0.30432030308E+02 -0.14891849494E+02  0.87238629957E+01  0.34985446054E+02  0.00000000000E+00 0. -1.
<scales pt_clust_5="13000.00000" pt_clust_6="13000.00000" pt_clust_7="13000.00000" pt_clust_8="13000.00000" pt_clust_9="33.88031"></scales>
<clustering>
<clus scale="   33.880">  1  9  2 -1</clus>
<clus scale="   90.037">  5  6 -1 -1</clus>
<clus scale="   91.339">  7  8 -1 -1</clus>
<clus scale="   95.859">  1  5  2 -1</clus>
<clus scale="   33.880">  1  5  2 -1</clus>
</clustering>
</event>
<event>
 9    1  0.1610296E-005  0.1273613E+03  0.7546771E-02  0.1232835E+00
         21   -1    0    0  501  502  0.00000000000E+00  0.00000000000E+00  0.96592969596E+02  0.96592969596E+02  0.00000000000E+00 0. -1.
          1   -1    0    0  502    0 -0.00000000000E+00 -0.00000000000E+00 -0.52931105194E+03  0.52931105194E+03  0.00000000000E+00 0. -1.
         23    2    1    2    0    0 -0.67192569910E+02  0.43327601637E+02 -0.31355492964E+03  0.33732973985E+03  0.95302345034E+02 0.  0.
         23    2    1    2    0    0  0.13378339034E+03  0.23534299780E+02 -0.47035263207E+02  0.16980019499E+03  0.90376608897E+02 0.  0.
        -11    1    4    4    0    0  0.33147187912E+02  0.46225850026E+02 -0.32796250710E+02  0.65659419261E+02  0.00000000000E+00 0.  1.
         11    1    4    4    0    0  0.10063620243E+03 -0.22691550246E+02 -0.14239012497E+02  0.10414077573E+03  0.00000000000E+00 0. -1.
        -13    1    3    3    0    0 -0.23465668424E+02  0.72263269604E+01 -0.69393182460E+01  0.25514927663E+02  0.00000000000E+00 0.  1.
         13    1    3    3    0    0 -0.43726901486E+02  0.36101274677E+02 -0.30661561140E+03  0.31181481219E+03  0.00000000000E+00 0. -1.
          1    1    1    2  501    0 -0.66590820434E+02 -0.66861901417E+02 -0.72127889488E+02  0.11877408669E+03  0.00000000000E+00 0. -1.
<scales pt_clust_5="13000.00000" pt_clust_6="13000.00000" pt_clust_7="13000.00000" pt_clust_8="13000.00000" pt_clust_9="94.36552"></scales>
<clustering>
<clus scale="   90.377">  5  6 -1 -1</clus>
<clus scale="   94.366">  1  9  2 -1</clus>
<clus scale="   95.302">  7  8 -1 -1</clus>
<clus scale="  123.719">  1  5  2 -1</clus>
<clus scale="   94.366">  1  5  2 -1</clus>
</clustering>
</event>
<event>
 9    1  0.1610296E-005  0.1029261E+03  0.7546771E-02  0.1275634E+00
          2   -1    0    0  502    0 -0.00000000000E+00  0.00000000000E+00  0.55868275269E+03  0.55868275269E+03  0.00000000000E+00 0. -1.
         21   -1    0    0  501  502  0.00000000000E+00 -0.00000000000E+00 -0.38198032929E+02  0.38198032929E+02  0.00000000000E+00 0. -1.
         23    2    1    2    0    0  0.34277084055E+02  0.58426961071E+02  0.33481980820E+03  0.35420837018E+03  0.93651680556E+02 0.  0.
         23    2    1    2    0    0 -0.63938591408E+01 -0.43688084457E+00  0.12196865644E+03  0.15213216719E+03  0.90701548172E+02 0.  0.
        -13    1    4    4    0    0 -0.36909109763E+02  0.29822200519E+02  0.55999515685E+02  0.73400216513E+02  0.00000000000E+00 0. -1.
         13    1    4    4    0    0  0.30515250623E+02 -0.30259081363E+02  0.65969140754E+02  0.78731950677E+02  0.00000000000E+00 0.  1.
        -13    1    3    3    0    0  0.37136798424E+02  0.80969571742E+02  0.22360062014E+03  0.24069160906E+03  0.00000000000E+00 0. -1.
         13    1    3    3    0    0 -0.28597143694E+01 -0.22542610671E+02  0.11121918806E+03  0.11351676112E+03  0.00000000000E+00 0.  1.
          2    1    1    2  501    0 -0.27883224914E+02 -0.57990080226E+02  0.63696255122E+02  0.90540248248E+02  0.00000000000E+00 0. -1.
<scales pt_clust_5="13000.00000" pt_clust_6="13000.00000" pt_clust_7="13000.00000" pt_clust_8="13000.00000" pt_clust_9="64.34535"></scales>
<clustering>
<clus scale="   64.345">  2  9  1 -1</clus>
<clus scale="   90.702">  5  6 -1 -1</clus>
<clus scale="   93.652">  7  8 -1 -1</clus>
<clus scale="  100.249">  2  5  1 -1</clus>
<clus scale="   64.345">  2  5  1 -1</clus>
</clustering>
</event>
<event>
 9    1  0.1610296E-005  0.2146513E+03  0.7546771E-02  0.1138202E+00
         21   -1    0    0  501  502  0.00000000000E+00  0.00000000000E+00  0.24023101553E+03  0.24023101553E+03  0.00000000000E+00 0. -1.
          1   -1    0    0  502    0 -0.00000000000E+00 -0.00000000000E+00 -0.47918066344E+03  0.47918066344E+03  0.00000000000E+00 0. -1.
         23    2    1    2    0    0 -0.19031306817E+03  0.54249598182E+02 -0.14440845866E+03  0.26246671486E+03  0.94196022512E+02 0.  0.
         23    2    1    2    0    0  0.19312910916E+03  0.10028170627E+03 -0.16421822009E+03  0.28740811629E+03  0.90997406997E+02 0.  0.
        -11    1    4    4    0    0  0.21358907665E+02 -0.17851254688E+01  0.87341778339E+01  0.23144664007E+02  0.00000000000E+00 0.  1.
         11    1    4    4    0    0  0.17177020150E+03  0.10206683174E+03 -0.17295239792E+03  0.26426345228E+03  0.00000000000E+00 0. -1.
        -13    1    3    3    0    0 -0.96709592377E+02 -0.27076313619E+01 -0.24026957171E+02  0.99686364144E+02  0.00000000000E+00 0.  1.
         13    1    3    3    0    0 -0.93603475792E+02  0.56957229544E+02 -0.12038150149E+03  0.16278035072E+03  0.00000000000E+00 0. -1.
          1    1    1    2  501    0 -0.28160409948E+01 -0.15453130445E+03  0.69677030841E+02  0.16953684782E+03  0.00000000000E+00 0. -1.
<scales pt_clust_5="13000.00000" pt_clust_6="13000.00000" pt_clust_7="13000.00000" pt_clust_8="13000.00000" pt_clust_9="154.55696"></scales>
<clustering>
<clus scale="   90.997">  5  6 -1 -1</clus>
<clus scale="   94.196">  7  8 -1 -1</clus>
<clus scale="  154.557">  1  9  2 -1</clus>
<clus scale="  213.267">  1  5  2 -1</clus>
<clus scale="  154.557">  1  5  2 -1</clus>
</clustering>
</event>
<event>
 9    1  0.1610296E-005  0.9595111E+02  0.7546771E-02  0.1293477E+00
         21   -1    0    0  501  502  0.00000000000E+00  0.00000000000E+00  0.24963762293E+03  0.24963762293E+03  0.00000000000E+00 0. -1.
          2   -1    0    0  502    0 -0.00000000000E+00 -0.00000000000E+00 -0.85140574711E+02  0.85140574711E+02  0.00000000000E+00 0. -1.
         23    2    1    2    0    0  0.18007897422E+02  0.19352005359E+01 -0.56780667912E+01  0.97716529165E+02  0.95855361138E+02 0.  0.
         23    2    1    2    0    0  0.32195510838E+02  0.15350255343E+02  0.54208194564E+02  0.10951757483E+03  0.88223520571E+02 0.  0.
        -11    1    4    4    0    0 -0.12446414937E+02  0.38964137597E+02  0.93262797506E+01  0.41953507094E+02  0.00000000000E+00 0.  1.
         11    1    4    4    0    0  0.44641925775E+02 -0.23613882254E+02  0.44881914813E+02  0.67564067738E+02  0.00000000000E+00 0. -1.
        -11    1    3    3    0    0 -0.39539273790E+02  0.13819345651E+01  0.22283986252E+01  0.39626123648E+02  0.00000000000E+00 0.  1.
         11    1    3    3    0    0  0.57547171212E+02  0.55326597085E+00 -0.79064654164E+01  0.58090405517E+02  0.00000000000E+00 0. -1.
          2    1    1    2  501    0 -0.50203408260E+02 -0.17285455879E+02  0.11596692044E+03  0.12754409364E+03  0.00000000000E+00 0. -1.
<scales pt_clust_5="13000.00000" pt_clust_6="13000.00000" pt_clust_7="13000.00000" pt_clust_8="13000.00000" pt_clust_9="53.09585"></scales>
<clustering>
<clus scale="   53.096">  1  9  2 -1</clus>
<clus scale="   88.224">  5  6 -1 -1</clus>
<clus scale="   88.328">  1  5  2 -1</clus>
<clus scale="   95.855">  7  8 -1 -1</clus>
<clus scale="   53.096">  1  5  2 -1</clus>
</clustering>
</event>
<event>
 9    1  0.1610296E-005  0.2248799E+03  0.7546771E-02  0.1147918E+00
          2   -1    0    0  502    0 -0.00000000000E+00  0.00000000000E+00  0.73971498056E+03  0.73971498056E+03  0.00000000000E+00 0. -1.
         21   -1    0    0  501  502  0.00000000000E+00 -0.00000000000E+00 -0.19790792780E+03  0.19790792780E+03  0.00000000000E+00 0. -1.
         23    2    1    2    0    0  0.58787830241E+02  0.98529482535E+02  0.45915833675E+03  0.48208715281E+03  0.91747353040E+02 0.  0.
         23    2    1    2    0    0 -0.38598536857E+02  0.15921289872E+03  0.57729862868E+02  0.19580571897E+03  0.90380021841E+02 0.  0.
        -11    1    4    4    0    0 -0.31098901321E+02  0.66413885704E+02 -0.18323712882E+02  0.75589049018E+02  0.00000000000E+00 0.  1.
         11    1    4    4    0    0 -0.74996355366E+01  0.92799013014E+02  0.76053575749E+02  0.12021666995E+03  0.00000000000E+00 0. -1.
        -13    1    3    3    0    0  0.82653686734E+02  0.74138083149E+02  0.31672894773E+03  0.33562674749E+03  0.00000000000E+00 0.  1.
         13    1    3    3    0    0 -0.23865856493E+02  0.24391399386E+02  0.14242938902E+03  0.14646040532E+03  0.00000000000E+00 0. -1.
          2    1    1    2  501    0 -0.20189293384E+02 -0.25774238125E+03  0.24918853144E+02  0.25973003658E+03  0.00000000000E+00 0. -1.
<scales pt_clust_5="13000.00000" pt_clust_6="13000.00000" pt_clust_7="13000.00000" pt_clust_8="13000.00000" pt_clust_9="205.91857"></scales>
<clustering>
<clus scale="   90.380">  5  6 -1 -1</clus>
<clus scale="   91.747">  7  8 -1 -1</clus>
<clus scale="  146.907">  1  7  2 -1</clus>
<clus scale="  205.919">  2  9  1 -1</clus>
<clus scale="  205.919">  2  5  1 -1</clus>
</clustering>
</event>
<event>
 9    1  0.1610296E-005  0.1012410E+03  0.7546771E-02  0.1277765E+00
          2   -1    0    0  502    0 -0.00000000000E+00  0.00000000000E+00  0.55434489898E+03  0.55434489898E+03  0.00000000000E+00 0. -1.
         21   -1    0    0  501  502  0.00000000000E+00 -0.00000000000E+00 -0.44861682357E+02  0.44861682357E+02  0.00000000000E+00 0.  1.
         23    2    1    2    0    0 -0.18525161979E+02  0.30741410605E+02  0.32885694043E+03  0.34306499255E+03  0.90876211906E+02 0.  0.
         23    2    1    2    0    0  0.46576137651E+02 -0.44103850069E+02  0.19298990975E+03  0.22270102272E+03  0.90753259258E+02 0.  0.
        -11    1    3    3    0    0 -0.73684689086E+01  0.55302053048E+02  0.29261216953E+03  0.29788335496E+03  0.00000000000E+00 0.  1.
         11    1    3    3    0    0 -0.11156693071E+02 -0.24560642444E+02  0.36244770904E+02  0.45181637591E+02  0.00000000000E+00 0. -1.
        -13    1    4    4    0    0  0.53662792236E+02  0.11537046650E+02  0.89591852678E+02  0.10506901914E+03  0.00000000000E+00 0.  1.
         13    1    4    4    0    0 -0.70866545854E+01 -0.55640896719E+02  0.10339805707E+03  0.11763200358E+03  0.00000000000E+00 0. -1.
          2    1    1    2  501    0 -0.28050975672E+02  0.13362439464E+02 -0.12363633555E+02  0.33440566072E+02  0.00000000000E+00 0. -1.
<scales pt_clust_5="13000.00000" pt_clust_6="13000.00000" pt_clust_7="13000.00000" pt_clust_8="13000.00000" pt_clust_9="31.07108"></scales>
<clustering>
<clus scale="   31.071">  2  9  1 -1</clus>
<clus scale="   90.753">  7  8 -1 -1</clus>
<clus scale="   90.876">  5  6 -1 -1</clus>
<clus scale="  101.131">  2  7  1 -1</clus>
<clus scale="   31.071">  2  5  1 -1</clus>
</clustering>
</event>
<event>
 9    1  0.1610296E-005  0.9155739E+02  0.7546771E-02  0.1299262E+00
         21   -1    0    0  501  502  0.00000000000E+00  0.00000000000E+00  0.32799590774E+02  0.32799590774E+02  0.00000000000E+00 0.  1.
         -2   -1    0    0    0  501 -0.00000000000E+00 -0.00000000000E+00 -0.60550061329E+03  0.60550061329E+03  0.00000000000E+00 0.  1.
         23    2    1    2    0    0 -0.18036721705E+02  0.10741977214E+02 -0.46684329884E+03  0.47588587944E+03  0.89911018069E+02 0.  0.
         23    2    1    2    0    0 -0.11894715961E+02 -0.82575073676E+01 -0.90988973389E+02  0.12890099465E+03  0.90148779510E+02 0.  0.
        -11    1    4    4    0    0 -0.35963760527E+02  0.17500545360E+02 -0.83894990620E+02  0.92941006075E+02  0.00000000000E+00 0.  1.
         11    1    4    4    0    0  0.24069044566E+02 -0.25758052727E+02 -0.70939827689E+01  0.35959988573E+02  0.00000000000E+00 0. -1.
        -13    1    3    3    0    0 -0.44558030532E+02  0.34596569692E+02 -0.30263530781E+03  0.30784812855E+03  0.00000000000E+00 0.  1.
         13    1    3    3    0    0  0.26521308827E+02 -0.23854592478E+02 -0.16420799104E+03  0.16803775089E+03  0.00000000000E+00 0. -1.
         -2    1    1    2    0  502  0.29931437665E+02 -0.24844698468E+01 -0.14868750284E+02  0.33513329977E+02  0.00000000000E+00 0.  1.
<scales pt_clust_5="13000.00000" pt_clust_6="13000.00000" pt_clust_7="13000.00000" pt_clust_8="13000.00000" pt_clust_9="30.03437"></scales>
<clustering>
<clus scale="   30.034">  1  9  2 -1</clus>
<clus scale="   89.911">  7  8 -1 -1</clus>
<clus scale="   90.149">  5  6 -1 -1</clus>
<clus scale="   91.323">  2  7  1 -1</clus>
<clus scale="   30.034">  1  5  2 -1</clus>
</clustering>
</event>
<event>
 9    1  0.1610296E-005  0.1001367E+03  0.7546771E-02  0.1280355E+00
         21   -1    0    0  501  502  0.00000000000E+00  0.00000000000E+00  0.33691972024E+03  0.33691972024E+03  0.00000000000E+00 0. -1.
          1   -1    0    0  502    0 -0.00000000000E+00 -0.00000000000E+00 -0.84004216019E+02  0.84004216019E+02  0.00000000000E+00 0. -1.
         23    2    1    2    0    0  0.37940380066E+02 -0.75521380315E+01 -0.33520895698E+02  0.10508817977E+03  0.91778907437E+02 0.  0.
         23    2    1    2    0    0 -0.42039623058E+02  0.29685160394E+02  0.19083761958E+03  0.21762271624E+03  0.91061028569E+02 0.  0.
        -11    1    4    4    0    0 -0.22963897480E+02 -0.14354853852E+02  0.74906430861E+01  0.28098258850E+02  0.00000000000E+00 0. -1.
         11    1    4    4    0    0 -0.19075725578E+02  0.44040014246E+02  0.18334697649E+03  0.18952445739E+03  0.00000000000E+00 0.  1.
        -11    1    3    3    0    0  0.89658495881E+01 -0.36562312736E+02 -0.48535757990E+02  0.61424009761E+02  0.00000000000E+00 0.  1.
         11    1    3    3    0    0  0.28974530478E+02  0.29010174705E+02  0.15014862292E+02  0.43664170008E+02  0.00000000000E+00 0. -1.
          1    1    1    2  501    0  0.40992429911E+01 -0.22133022363E+02  0.95598780344E+02  0.98213040251E+02  0.00000000000E+00 0. -1.
<scales pt_clust_5="13000.00000" pt_clust_6="13000.00000" pt_clust_7="13000.00000" pt_clust_8="13000.00000" pt_clust_9="22.50943"></scales>
<clustering>
<clus scale="   22.509">  1  9  2 -1</clus>
<clus scale="   91.061">  5  6 -1 -1</clus>
<clus scale="   91.779">  7  8 -1 -1</clus>
<clus scale="   99.479">  1  5  2 -1</clus>
<clus scale="   22.509">  1  5  2 -1</clus>
</clustering>
</event>
<event>
 9    1  0.1610296E-005  0.1143172E+03  0.7546771E-02  0.1253611E+00
         -2   -1    0    0    0  501 -0.00000000000E+00  0.00000000000E+00  0.21915820163E+03  0.21915820163E+03  0.00000000000E+00 0.  1.
         21   -1    0    0  501  502  0.00000000000E+00 -0.00000000000E+00 -0.18634306751E+03  0.18634306751E+03  0.00000000000E+00 0.  1.
         23    2    1    2    0    0 -0.63055569257E+02  0.27650673646E+02  0.16475913139E+03  0.20104811543E+03  0.92380781425E+02 0.  0.
         23    2    1    2    0    0  0.62692495735E+02 -0.53199974406E+01 -0.52164722226E+02  0.12160676786E+03  0.90046634303E+02 0.  0.
        -11    1    4    4    0    0 -0.29576822801E+01 -0.36360421871E+02 -0.24263419359E+02  0.43812574475E+02  0.00000000000E+00 0. -1.
         11    1    4    4    0    0  0.65650178015E+02  0.31040424431E+02 -0.27901302867E+02  0.77794193381E+02  0.00000000000E+00 0.  1.
        -11    1    3    3    0    0 -0.46389769772E+02  0.53857908972E+02  0.15136683288E+03  0.16722620367E+03  0.00000000000E+00 0.  1.
         11    1    3    3    0    0 -0.16665799485E+02 -0.26207235325E+02  0.13392298505E+02  0.33821911760E+02  0.00000000000E+00 0. -1.
         -2    1    1    2    0  502  0.36307352213E+00 -0.22330676206E+02 -0.79779275042E+02  0.82846385850E+02  0.00000000000E+00 0.  1.
<scales pt_clust_5="13000.00000" pt_clust_6="13000.00000" pt_clust_7="13000.00000" pt_clust_8="13000.00000" pt_clust_9="22.33363"></scales>
<clustering>
<clus scale="   22.334">  2  9  1 -1</clus>
<clus scale="   90.047">  5  6 -1 -1</clus>
<clus scale="   92.381">  7  8 -1 -1</clus>
<clus scale="  112.439">  2  5  1 -1</clus>
<clus scale="   22.334">  2  5  1 -1</clus>
</clustering>
</event>
<event>
 9    1  0.1610296E-005  0.1027833E+03  0.7546771E-02  0.1276594E+00
         -2   -1    0    0    0  501 -0.00000000000E+00  0.00000000000E+00  0.82216552797E+02  0.82216552797E+02  0.00000000000E+00 0.  1.
         21   -1    0    0  501  502  0.00000000000E+00 -0.00000000000E+00 -0.37098160111E+03  0.37098160111E+03  0.00000000000E+00 0.  1.
         23    2    1    2    0    0  0.49464613750E+02  0.36358380664E+02 -0.78706776138E+01  0.10649056364E+03  0.86658021675E+02 0.  0.
         23    2    1    2    0    0 -0.28634986207E+02 -0.10989370796E+02 -0.40930213604E+02  0.10450879436E+03  0.91137681604E+02 0.  0.
        -11    1    3    3    0    0  0.28053682942E+02 -0.18120407399E+02  0.22770091279E+02  0.40420729184E+02  0.00000000000E+00 0.  1.
         11    1    3    3    0    0  0.21410930808E+02  0.54478788063E+02 -0.30640768893E+02  0.66069834458E+02  0.00000000000E+00 0. -1.
        -13    1    4    4    0    0  0.12570144776E+02  0.16907574086E+02 -0.49700283012E+02  0.53981410991E+02  0.00000000000E+00 0. -1.
         13    1    4    4    0    0 -0.41205130983E+02 -0.27896944882E+02  0.87700694077E+01  0.50527383373E+02  0.00000000000E+00 0.  1.
         -2    1    1    2    0  502 -0.20829627543E+02 -0.25369009869E+02 -0.23996415710E+03  0.24219879590E+03  0.00000000000E+00 0.  1.
<scales pt_clust_5="13000.00000" pt_clust_6="13000.00000" pt_clust_7="13000.00000" pt_clust_8="13000.00000" pt_clust_9="32.82469"></scales>
<clustering>
<clus scale="   32.825">  2  9  1 -1</clus>
<clus scale="   86.658">  5  6 -1 -1</clus>
<clus scale="   91.138">  7  8 -1 -1</clus>
<clus scale="   98.833">  1  5  2 -1</clus>
<clus scale="   32.825">  2  5  1 -1</clus>
</clustering>
</event>
<event>
 9    1  0.1610296E-005  0.1060495E+03  0.7546771E-02  0.1268547E+00
         21   -1    0    0  501  502  0.00000000000E+00  0.00000000000E+00  0.10921515243E+03  0.10921515243E+03  0.00000000000E+00 0. -1.
          1   -1    0    0  502    0 -0.00000000000E+00 -0.00000000000E+00 -0.27377258978E+03  0.27377258978E+03  0.00000000000E+00 0. -1.
         23    2    1    2    0    0 -0.58048173456E+02  0.58150832338E+01 -0.20232554609E+03  0.23069207421E+03  0.94232695305E+02 0.  0.
         23    2    1    2    0    0  0.12197736052E+02 -0.15715663323E+02  0.55394316812E+01  0.95383703339E+02  0.93121419238E+02 0.  0.
        -11    1    4    4    0    0  0.44156728685E+02  0.18247769562E+02 -0.33979048098E+01  0.47899306250E+02  0.00000000000E+00 0.  1.
         11    1    4    4    0    0 -0.31958992632E+02 -0.33963432885E+02  0.89373364910E+01  0.47484397089E+02  0.00000000000E+00 0. -1.
        -11    1    3    3    0    0 -0.77812899593E-01  0.25469027078E+02 -0.76098537293E+01  0.26581709293E+02  0.00000000000E+00 0.  1.
         11    1    3    3    0    0 -0.57970360556E+02 -0.19653943844E+02 -0.19471569236E+03  0.20411036491E+03  0.00000000000E+00 0. -1.
          1    1    1    2  501    0  0.45850437403E+02  0.99005800889E+01  0.32228677069E+02  0.56911964663E+02  0.00000000000E+00 0. -1.
<scales pt_clust_5="13000.00000" pt_clust_6="13000.00000" pt_clust_7="13000.00000" pt_clust_8="13000.00000" pt_clust_9="46.90719"></scales>
<clustering>
<clus scale="   46.907">  1  9  2 -1</clus>
<clus scale="   93.121">  5  6 -1 -1</clus>
<clus scale="   94.233">  7  8 -1 -1</clus>
<clus scale="  105.063">  1  5  2 -1</clus>
<clus scale="   46.907">  1  5  2 -1</clus>
</clustering>
</event>
<event>
 9    1  0.1610296E-005  0.1232842E+03  0.7546771E-02  0.1249780E+00
         -3   -1    0    0    0  501 -0.00000000000E+00  0.00000000000E+00  0.21057123155E+03  0.21057123155E+03  0.00000000000E+00 0.  1.
         21   -1    0    0  501  502  0.00000000000E+00 -0.00000000000E+00 -0.92259906248E+02  0.92259906248E+02  0.00000000000E+00 0.  1.
         23    2    1    2    0    0  0.37028311796E+02 -0.30543594950E+00  0.10210034216E+03  0.16144630681E+03  0.11945392814E+03 0.  0.
         23    2    1    2    0    0 -0.18138003634E+02  0.24700087346E+02  0.37591027510E+02  0.10384752879E+03  0.91826697615E+02 0.  0.
        -11    1    3    3    0    0  0.71486144828E+02  0.19959623353E+02  0.95467880573E+02  0.12092465294E+03  0.00000000000E+00 0.  1.
         11    1    3    3    0    0 -0.34457833032E+02 -0.20265059303E+02  0.66324615882E+01  0.40521653872E+02  0.00000000000E+00 0. -1.
        -11    1    4    4    0    0 -0.26435968081E+02  0.57331998733E+02  0.24773510424E+02  0.67819947699E+02  0.00000000000E+00 0.  1.
         11    1    4    4    0    0  0.82979644466E+01 -0.32631911387E+02  0.12817517085E+02  0.36027581087E+02  0.00000000000E+00 0. -1.
         -3    1    1    2    0  502 -0.18890308162E+02 -0.24394651396E+02 -0.21380044372E+02  0.37537302201E+02  0.00000000000E+00 0.  1.
<scales pt_clust_5="13000.00000" pt_clust_6="13000.00000" pt_clust_7="13000.00000" pt_clust_8="13000.00000" pt_clust_9="30.85357"></scales>
<clustering>
<clus scale="   30.854">  2  9  1 -1</clus>
<clus scale="   91.827">  7  8 -1 -1</clus>
<clus scale="   96.757">  2  7  1 -1</clus>
<clus scale="  119.454">  5  6 -1 -1</clus>
<clus scale="   30.854">  2  5  1 -1</clus>
</clustering>
</event>
<event>
 9    1  0.1610296E-005  0.2270704E+03  0.7546771E-02  0.1128912E+00
         21   -1    0    0  501  502  0.00000000000E+00  0.00000000000E+00  0.10836031162E+04  0.10836031162E+04  0.00000000000E+00 0.  1.
          1   -1    0    0  502    0 -0.00000000000E+00 -0.00000000000E+00 -0.63249459046E+02  0.63249459046E+02  0.00000000000E+00 0. -1.
         23    2    1    2    0    0  0.82307780108E+02 -0.18275434438E+03  0.26232285954E+03  0.34229701314E+03  0.90444687574E+02 0.  0.
         23    2    1    2    0    0 -0.86400498859E+02  0.20375564023E+03  0.61985195596E+03  0.66472996698E+03  0.93102494899E+02 0.  0.
        -11    1    4    4    0    0 -0.98044822213E+02  0.12239832567E+03  0.43591908160E+03  0.46327052895E+03  0.00000000000E+00 0.  1.
         11    1    4    4    0    0  0.11644323354E+02  0.81357314560E+02  0.18393287436E+03  0.20145943802E+03  0.00000000000E+00 0. -1.
        -11    1    3    3    0    0  0.49346824554E+02 -0.75834467565E+02  0.52757546740E+02  0.10473458981E+03  0.00000000000E+00 0. -1.
         11    1    3    3    0    0  0.32960955554E+02 -0.10691987682E+03  0.20956531280E+03  0.23756242333E+03  0.00000000000E+00 0.  1.
          1    1    1    2  501    0  0.40927187506E+01 -0.21001295846E+02  0.13817884164E+03  0.13982559512E+03  0.00000000000E+00 0. -1.
<scales pt_clust_5="13000.00000" pt_clust_6="13000.00000" pt_clust_7="13000.00000" pt_clust_8="13000.00000" pt_clust_9="21.39637"></scales>
<clustering>
<clus scale="   21.396">  1  9  2 -1</clus>
<clus scale="   90.445">  7  8 -1 -1</clus>
<clus scale="   93.102">  5  6 -1 -1</clus>
<clus scale="  225.994">  2  7  1 -1</clus>
<clus scale="   21.396">  1  5  2 -1</clus>
</clustering>
</event>
<event>
 9    1  0.1610296E-005  0.1168593E+03  0.7546771E-02  0.1250398E+00
         21   -1    0    0  501  502  0.00000000000E+00  0.00000000000E+00  0.95224118300E+02  0.95224118300E+02  0.00000000000E+00 0. -1.
          2   -1    0    0  502    0 -0.00000000000E+00 -0.00000000000E+00 -0.62602016670E+03  0.62602016670E+03  0.00000000000E+00 0. -1.
         23    2    1    2    0    0  0.55075958368E+02  0.78483927368E+01 -0.25533598195E+03  0.27740401846E+03  0.93067541708E+02 0.  0.
         23    2    1    2    0    0 -0.81248459155E+02  0.54521086828E+02 -0.33120825862E+03  0.35618861107E+03  0.87163955022E+02 0.  0.
        -11    1    3    3    0    0  0.80813910746E+02  0.13289026788E+02 -0.18538271422E+03  0.20266779994E+03  0.00000000000E+00 0. -1.
         11    1    3    3    0    0 -0.25737952378E+02 -0.54406340510E+01 -0.69953267728E+02  0.74736218511E+02  0.00000000000E+00 0.  1.
        -11    1    4    4    0    0 -0.89082487128E+01  0.40117667495E+02 -0.21245295561E+03  0.21639094826E+03  0.00000000000E+00 0.  1.
         11    1    4    4    0    0 -0.72340210442E+02  0.14403419332E+02 -0.11875530301E+03  0.13979766281E+03  0.00000000000E+00 0. -1.
          2    1    1    2  501    0  0.26172500787E+02 -0.62369479565E+02  0.55748192162E+02  0.87651655477E+02  0.00000000000E+00 0. -1.
<scales pt_clust_5="13000.00000" pt_clust_6="13000.00000" pt_clust_7="13000.00000" pt_clust_8="13000.00000" pt_clust_9="67.63839"></scales>
<clustering>
<clus scale="   67.638">  1  9  2 -1</clus>
<clus scale="   87.164">  7  8 -1 -1</clus>
<clus scale="   93.068">  5  6 -1 -1</clus>
<clus scale="  112.214">  1  7  2 -1</clus>
<clus scale="   67.638">  1  5  2 -1</clus>
</clustering>
</event>
<event>
 9    1  0.1610296E-005  0.9481735E+02  0.7546771E-02  0.1293188E+00
         21   -1    0    0  501  502  0.00000000000E+00  0.00000000000E+00  0.11508617250E+03  0.11508617250E+03  0.00000000000E+00 0.  1.
         -1   -1    0    0    0  501 -0.00000000000E+00 -0.00000000000E+00 -0.26332393773E+03  0.26332393773E+03  0.00000000000E+00 0.  1.
         23    2    1    2    0    0  0.16288579490E+02  0.28129497074E+02 -0.16072487813E+03  0.18634762613E+03  0.88523244912E+02 0.  0.
         23    2    1    2    0    0  0.47842669087E+01 -0.14571757909E+02 -0.63294787100E+02  0.11224535866E+03  0.91419719577E+02 0.  0.
        -11    1    3    3    0    0  0.29646739930E+02 -0.23364801628E+02 -0.91968323112E+02  0.99413357249E+02  0.00000000000E+00 0.  1.
         11    1    3    3    0    0 -0.13358160439E+02  0.51494298702E+02 -0.68756555015E+02  0.86934268886E+02  0.00000000000E+00 0. -1.
        -11    1    4    4    0    0  0.26736789123E+02 -0.41769546975E+02 -0.58930952631E+02  0.77022127503E+02  0.00000000000E+00 0.  1.
         11    1    4    4    0    0 -0.21952522215E+02  0.27197789066E+02 -0.43638344690E+01  0.35223231154E+02  0.00000000000E+00 0. -1.
         -1    1    1    2    0  502 -0.21072846399E+02 -0.13557739165E+02  0.75781899993E+02  0.79817125438E+02  0.00000000000E+00 0.  1.
<scales pt_clust_5="13000.00000" pt_clust_6="13000.00000" pt_clust_7="13000.00000" pt_clust_8="13000.00000" pt_clust_9="25.05748"></scales>
<clustering>
<clus scale="   25.057">  1  9  2 -1</clus>
<clus scale="   88.523">  5  6 -1 -1</clus>
<clus scale="   91.420">  7  8 -1 -1</clus>
<clus scale="   92.028">  2  5  1 -1</clus>
<clus scale="   25.057">  1  5  2 -1</clus>
</clustering>
</event>
<event>
 9    1  0.1610296E-005  0.1021824E+03  0.7546771E-02  0.1275828E+00
         21   -1    0    0  501  502  0.00000000000E+00  0.00000000000E+00  0.21354639022E+03  0.21354639022E+03  0.00000000000E+00 0. -1.
         -2   -1    0    0    0  501 -0.00000000000E+00 -0.00000000000E+00 -0.11175100529E+03  0.11175100529E+03  0.00000000000E+00 0.  1.
         23    2    1    2    0    0 -0.44396354508E+02  0.20031704206E+02 -0.43163505762E+02  0.11218644192E+03  0.91380545275E+02 0.  0.
         23    2    1    2    0    0  0.44962424415E+02  0.19454106289E+02  0.61152007754E+02  0.12046623818E+03  0.91501172826E+02 0.  0.
        -11    1    4    4    0    0  0.13449330875E+02  0.48840627814E+02  0.68099952804E+01  0.51114258891E+02  0.00000000000E+00 0.  1.
         11    1    4    4    0    0  0.31513093540E+02 -0.29386521525E+02  0.54342012474E+02  0.69351979291E+02  0.00000000000E+00 0. -1.
        -11    1    3    3    0    0  0.59788424814E+01  0.40889526185E+02 -0.40093260940E+02  0.57577508472E+02  0.00000000000E+00 0.  1.
         11    1    3    3    0    0 -0.50375196989E+02 -0.20857821979E+02 -0.30702448221E+01  0.54608933451E+02  0.00000000000E+00 0. -1.
         -2    1    1    2    0  502 -0.56606990672E+00 -0.39485810495E+02  0.83806882937E+02  0.92644715409E+02  0.00000000000E+00 0.  1.
<scales pt_clust_5="13000.00000" pt_clust_6="13000.00000" pt_clust_7="13000.00000" pt_clust_8="13000.00000" pt_clust_9="39.48987"></scales>
<clustering>
<clus scale="   39.490">  1  9  2 -1</clus>
<clus scale="   91.381">  7  8 -1 -1</clus>
<clus scale="   91.501">  5  6 -1 -1</clus>
<clus scale="  102.074">  2  7  1 -1</clus>
<clus scale="   39.490">  1  5  2 -1</clus>
</clustering>
</event>
<event>
 9    1  0.1610296E-005  0.1201526E+03  0.7546771E-02  0.1245839E+00
          1   -1    0    0  502    0 -0.00000000000E+00  0.00000000000E+00  0.94929707800E+02  0.94929707800E+02  0.00000000000E+00 0. -1.
         21   -1    0    0  501  502  0.00000000000E+00 -0.00000000000E+00 -0.27820015765E+03  0.27820015765E+03  0.00000000000E+00 0. -1.
         23    2    1    2    0    0  0.59381639984E+02  0.20131254172E+01 -0.18517079734E+02  0.11662020785E+03  0.98626359534E+02 0.  0.
         23    2    1    2    0    0 -0.78923796273E+02  0.21525047778E+02 -0.39872779606E+02  0.12793631917E+03  0.89919797093E+02 0.  0.
        -11    1    3    3    0    0  0.71514521557E+02  0.32091486454E+02 -0.27326931279E+02  0.83011755008E+02  0.00000000000E+00 0. -1.
         11    1    3    3    0    0 -0.12132881573E+02 -0.30078361037E+02  0.88098515448E+01  0.33608452838E+02  0.00000000000E+00 0.  1.
        -13    1    4    4    0    0 -0.35919726604E+02  0.82647971766E+01 -0.66221555926E+02  0.75788047217E+02  0.00000000000E+00 0.  1.
         13    1    4    4    0    0 -0.43004069670E+02  0.13260250601E+02  0.26348776320E+02  0.52148271953E+02  0.00000000000E+00 0. -1.
          1    1    1    2  501    0  0.19542156290E+02 -0.23538173195E+02 -0.12488059051E+03  0.12857333844E+03  0.00000000000E+00 0. -1.
<scales pt_clust_5="13000.00000" pt_clust_6="13000.00000" pt_clust_7="13000.00000" pt_clust_8="13000.00000" pt_clust_9="30.59316"></scales>
<clustering>
<clus scale="   30.593">  2  9  1 -1</clus>
<clus scale="   89.920">  7  8 -1 -1</clus>
<clus scale="   98.626">  5  6 -1 -1</clus>
<clus scale="  113.115">  2  7  1 -1</clus>
<clus scale="   30.593">  2  5  1 -1</clus>
</clustering>
</event>
<event>
 9    1  0.1730105E-005  0.9560764E+02  0.7546771E-02  0.1290108E+00
         21   -1    0    0  501  502  0.00000000000E+00  0.00000000000E+00  0.27946812287E+03  0.27946812287E+03  0.00000000000E+00 0. -1.
          4   -1    0    0  502    0 -0.00000000000E+00 -0.00000000000E+00 -0.11480422220E+03  0.11480422220E+03  0.00000000000E+00 0. -1.
         23    2    1    2    0    0 -0.23694837013E+02 -0.23109917310E+02 -0.51590141001E+02  0.10993520989E+03  0.91261679508E+02 0.  0.
         23    2    1    2    0    0 -0.11338947660E+02  0.29867341112E+02  0.39416801563E+02  0.10393636375E+03  0.90710824411E+02 0.  0.
        -11    1    4    4    0    0  0.25702102325E+02  0.39702091146E+01  0.51027358349E+02  0.57272610596E+02  0.00000000000E+00 0.  1.
         11    1    4    4    0    0 -0.37041049985E+02  0.25897131997E+02 -0.11610556787E+02  0.46663753156E+02  0.00000000000E+00 0. -1.
        -13    1    3    3    0    0  0.34743648532E+02 -0.16073154251E+01 -0.17213000040E+02  0.38807112061E+02  0.00000000000E+00 0.  1.
         13    1    3    3    0    0 -0.58438485544E+02 -0.21502601885E+02 -0.34377140961E+02  0.71128097832E+02  0.00000000000E+00 0. -1.
          4    1    1    2  501    0  0.35033784673E+02 -0.67574238016E+01  0.17683724010E+03  0.18040077143E+03  0.00000000000E+00 0. -1.
<scales pt_clust_5="13000.00000" pt_clust_6="13000.00000" pt_clust_7="13000.00000" pt_clust_8="13000.00000" pt_clust_9="35.67953"></scales>
<clustering>
<clus scale="   35.680">  1  9  2 -1</clus>
<clus scale="   90.711">  5  6 -1 -1</clus>
<clus scale="   91.262">  7  8 -1 -1</clus>
<clus scale="   95.082">  1  5  2 -1</clus>
<clus scale="   35.680">  1  5  2 -1</clus>
</clustering>
</event>
<event>
 9    1  0.1610296E-005  0.1001520E+03  0.7546771E-02  0.1282814E+00
         21   -1    0    0  501  502  0.00000000000E+00  0.00000000000E+00  0.21872220553E+02  0.21872220553E+02  0.00000000000E+00 0.  1.
          1   -1    0    0  502    0 -0.00000000000E+00 -0.00000000000E+00 -0.66383924862E+03  0.66383924862E+03  0.00000000000E+00 0. -1.
         23    2    1    2    0    0  0.19150930769E+02 -0.18379521865E+02 -0.36132824697E+03  0.37324654754E+03  0.89723565570E+02 0.  0.
         23    2    1    2    0    0 -0.42921421817E+02  0.12262948839E+02 -0.17651459618E+03  0.20548691177E+03  0.95261953991E+02 0.  0.
        -11    1    3    3    0    0 -0.32435584119E+02 -0.25624872384E+02 -0.17000015371E+03  0.17495357517E+03  0.00000000000E+00 0.  1.
         11    1    3    3    0    0  0.51586514888E+02  0.72453505199E+01 -0.19132809326E+03  0.19829297237E+03  0.00000000000E+00 0. -1.
        -11    1    4    4    0    0 -0.58586910271E+02 -0.10451395674E+02 -0.55529450797E+02  0.81395194161E+02  0.00000000000E+00 0.  1.
         11    1    4    4    0    0  0.15665488455E+02  0.22714344513E+02 -0.12098514538E+03  0.12409171761E+03  0.00000000000E+00 0. -1.
          1    1    1    2  501    0  0.23770491047E+02  0.61165730256E+01 -0.10412418492E+03  0.10697800987E+03  0.00000000000E+00 0. -1.
<scales pt_clust_5="13000.00000" pt_clust_6="13000.00000" pt_clust_7="13000.00000" pt_clust_8="13000.00000" pt_clust_9="24.54484"></scales>
<clustering>
<clus scale="   24.545">  1  9  2 -1</clus>
<clus scale="   89.724">  5  6 -1 -1</clus>
<clus scale="   94.899">  2  5  1 -1</clus>
<clus scale="   95.262">  7  8 -1 -1</clus>
<clus scale="   24.545">  1  5  2 -1</clus>
</clustering>
</event>
<event>
 9    1  0.1610296E-005  0.9770899E+02  0.7546771E-02  0.1286396E+00
         21   -1    0    0  501  502  0.00000000000E+00  0.00000000000E+00  0.22663539980E+03  0.22663539980E+03  0.00000000000E+00 0. -1.
         -4   -1    0    0    0  501 -0.00000000000E+00 -0.00000000000E+00 -0.90338831751E+02  0.90338831751E+02  0.00000000000E+00 0.  1.
         23    2    1    2    0    0 -0.41596938174E+02 -0.22014836933E+02 -0.28061673151E+02  0.10503758562E+03  0.89612937589E+02 0.  0.
         23    2    1    2    0    0  0.19419318200E+02  0.48548989106E+01  0.70309534710E+02  0.11379659552E+03  0.87209830402E+02 0.  0.
        -11    1    3    3    0    0 -0.56892766430E+02  0.45676259189E+01 -0.42479260271E+02  0.71148700844E+02  0.00000000000E+00 0.  1.
         11    1    3    3    0    0  0.15295828257E+02 -0.26582462852E+02  0.14417587120E+02  0.33888884781E+02  0.00000000000E+00 0. -1.
        -13    1    4    4    0    0 -0.64956363181E+01  0.38167237533E+02  0.96529244103E+01  0.39901256393E+02  0.00000000000E+00 0.  1.
         13    1    4    4    0    0  0.25914954518E+02 -0.33312338622E+02  0.60656610300E+02  0.73895339131E+02  0.00000000000E+00 0. -1.
         -4    1    1    2    0  502  0.22177619974E+02  0.17159938022E+02  0.94048706488E+02  0.98140050401E+02  0.00000000000E+00 0.  1.
<scales pt_clust_5="13000.00000" pt_clust_6="13000.00000" pt_clust_7="13000.00000" pt_clust_8="13000.00000" pt_clust_9="28.04123"></scales>
<clustering>
<clus scale="   28.041">  1  9  2 -1</clus>
<clus scale="   87.210">  7  8 -1 -1</clus>
<clus scale="   89.613">  5  6 -1 -1</clus>
<clus scale="   95.510">  1  7  2 -1</clus>
<clus scale="   28.041">  1  5  2 -1</clus>
</clustering>
</event>
<event>
 9    1  0.1610296E-005  0.1065482E+03  0.7546771E-02  0.1273551E+00
          2   -1    0    0  502    0 -0.00000000000E+00  0.00000000000E+00  0.40428003020E+03  0.40428003020E+03  0.00000000000E+00 0. -1.
         21   -1    0    0  501  502  0.00000000000E+00 -0.00000000000E+00 -0.34545071503E+02  0.34545071503E+02  0.00000000000E+00 0.  1.
         23    2    1    2    0    0  0.78477242348E+01  0.10560523006E+02  0.15728012153E+03  0.18267869414E+03  0.91985636066E+02 0.  0.
         23    2    1    2    0    0 -0.35164975605E+02  0.32311732139E+01  0.14719229446E+03  0.18406560161E+03  0.10472611019E+03 0.  0.
        -11    1    4    4    0    0 -0.60908194000E+02  0.19785195291E+01  0.14606437513E+03  0.15826725599E+03  0.00000000000E+00 0. -1.
         11    1    4    4    0    0  0.25743218395E+02  0.12526536848E+01  0.11279193308E+01  0.25798345618E+02  0.00000000000E+00 0.  1.
        -11    1    3    3    0    0 -0.28291955437E+02 -0.18549660006E+02  0.11509659843E+03  0.11996562674E+03  0.00000000000E+00 0. -1.
         11    1    3    3    0    0  0.36139679672E+02  0.29110183012E+02  0.42183523102E+02  0.62713067403E+02  0.00000000000E+00 0.  1.
          2    1    1    2  501    0  0.27317251371E+02 -0.13791696220E+02  0.65262542702E+02  0.72080805954E+02  0.00000000000E+00 0. -1.
<scales pt_clust_5="13000.00000" pt_clust_6="13000.00000" pt_clust_7="13000.00000" pt_clust_8="13000.00000" pt_clust_9="30.60137"></scales>
<clustering>
<clus scale="   30.601">  2  9  1 -1</clus>
<clus scale="   91.986">  7  8 -1 -1</clus>
<clus scale="   94.055">  1  7  2 -1</clus>
<clus scale="  104.726">  5  6 -1 -1</clus>
<clus scale="   30.601">  2  5  1 -1</clus>
</clustering>
</event>
<event>
 9    1  0.1610296E-005  0.1012927E+03  0.7546771E-02  0.1278062E+00
          4   -1    0    0  502    0 -0.00000000000E+00  0.00000000000E+00  0.68588972645E+03  0.68588972645E+03  0.00000000000E+00 0. -1.
         21   -1    0    0  501  502  0.00000000000E+00 -0.00000000000E+00 -0.16270844555E+03  0.16270844555E+03  0.00000000000E+00 0. -1.
         23    2    1    2    0    0 -0.36430990180E+02 -0.78385250034E+01  0.33185419652E+03  0.34604208626E+03  0.90715258897E+02 0.  0.
         23    2    1    2    0    0  0.54741202583E+02 -0.53464906410E+01  0.33807873134E+03  0.35407997857E+03  0.89723009405E+02 0.  0.
        -11    1    3    3    0    0 -0.24918414314E+01  0.33105309588E+02  0.55942143502E+02  0.65051473591E+02  0.00000000000E+00 0.  1.
         11    1    3    3    0    0 -0.33939148749E+02 -0.40943834592E+02  0.27591205302E+03  0.28099061267E+03  0.00000000000E+00 0. -1.
        -13    1    4    4    0    0  0.35286258308E+02  0.38253345381E+02  0.11938203259E+03  0.13023251576E+03  0.00000000000E+00 0.  1.
         13    1    4    4    0    0  0.19454944275E+02 -0.43599836022E+02  0.21869669875E+03  0.22384746280E+03  0.00000000000E+00 0. -1.
          4    1    1    2  501    0 -0.18310212403E+02  0.13185015644E+02 -0.14675164696E+03  0.14847610717E+03  0.00000000000E+00 0. -1.
<scales pt_clust_5="13000.00000" pt_clust_6="13000.00000" pt_clust_7="13000.00000" pt_clust_8="13000.00000" pt_clust_9="22.56343"></scales>
<clustering>
<clus scale="   22.563">  2  9  1 -1</clus>
<clus scale="   89.723">  7  8 -1 -1</clus>
<clus scale="   90.715">  5  6 -1 -1</clus>
<clus scale="  100.405">  2  7  1 -1</clus>
<clus scale="   22.563">  2  5  1 -1</clus>
</clustering>
</event>
<event>
 9    1  0.1610296E-005  0.1151877E+03  0.7546771E-02  0.1251355E+00
         21   -1    0    0  501  502  0.00000000000E+00  0.00000000000E+00  0.47013396078E+03  0.47013396078E+03  0.00000000000E+00 0.  1.
          3   -1    0    0  502    0 -0.00000000000E+00 -0.00000000000E+00 -0.59901590984E+02  0.59901590984E+02  0.00000000000E+00 0. -1.
         23    2    1    2    0    0 -0.39679732055E+02 -0.75714823177E+02  0.82431011406E+02  0.14993096011E+03  0.91527075637E+02 0.  0.
         23    2    1    2    0    0  0.21974094916E+01  0.57312680409E+02  0.95223151389E+02  0.14380777463E+03  0.91234070054E+02 0.  0.
        -11    1    3    3    0    0 -0.19757964086E+02 -0.24507316953E+02 -0.17406728945E+02  0.35971932692E+02  0.00000000000E+00 0. -1.
         11    1    3    3    0    0 -0.19921767969E+02 -0.51207506224E+02  0.99837740350E+02  0.11395902742E+03  0.00000000000E+00 0.  1.
        -11    1    4    4    0    0 -0.28088936605E+02  0.30678027086E+02  0.94744527394E+02  0.10347296834E+03  0.00000000000E+00 0.  1.
         11    1    4    4    0    0  0.30286346096E+02  0.26634653323E+02  0.47862399521E+00  0.40334806290E+02  0.00000000000E+00 0. -1.
          3    1    1    2  501    0  0.37482322563E+02  0.18402142768E+02  0.23257820701E+03  0.23629681703E+03  0.00000000000E+00 0. -1.
<scales pt_clust_5="13000.00000" pt_clust_6="13000.00000" pt_clust_7="13000.00000" pt_clust_8="13000.00000" pt_clust_9="41.75600"></scales>
<clustering>
<clus scale="   41.756">  1  9  2 -1</clus>
<clus scale="   91.234">  7  8 -1 -1</clus>
<clus scale="   91.527">  5  6 -1 -1</clus>
<clus scale="  114.955">  1  7  2 -1</clus>
<clus scale="   41.756">  1  5  2 -1</clus>
</clustering>
</event>
<event>
 9    1  0.1610296E-005  0.2742480E+03  0.7546771E-02  0.1098951E+00
         21   -1    0    0  501  502  0.00000000000E+00  0.00000000000E+00  0.60183208183E+02  0.60183208183E+02  0.00000000000E+00 0.  1.
          2   -1    0    0  502    0 -0.00000000000E+00 -0.00000000000E+00 -0.24052647798E+04  0.24052647798E+04  0.00000000000E+00 0. -1.
         23    2    1    2    0    0  0.24434919325E+03  0.25174205984E+02 -0.13456262955E+04  0.13709643712E+04  0.92156992318E+02 0.  0.
         23    2    1    2    0    0 -0.29681853698E+03  0.86713380741E+02 -0.70400163471E+03  0.77422634778E+03  0.90485808940E+02 0.  0.
        -11    1    4    4    0    0 -0.27615224201E+02  0.75055506552E+01 -0.15549479511E+03  0.15810618332E+03  0.00000000000E+00 0. -1.
         11    1    4    4    0    0 -0.26920331277E+03  0.79207830086E+02 -0.54850683961E+03  0.61612016446E+03  0.00000000000E+00 0.  1.
        -13    1    3    3    0    0  0.18486285767E+03 -0.22089351584E+02 -0.93054405103E+03  0.94898600965E+03  0.00000000000E+00 0. -1.
         13    1    3    3    0    0  0.59486335584E+02  0.47263557569E+02 -0.41508224444E+03  0.42197836159E+03  0.00000000000E+00 0.  1.
          2    1    1    2  501    0  0.52469343726E+02 -0.11188758673E+03 -0.29545364139E+03  0.32025726894E+03  0.00000000000E+00 0. -1.
<scales pt_clust_5="13000.00000" pt_clust_6="13000.00000" pt_clust_7="13000.00000" pt_clust_8="13000.00000" pt_clust_9="123.57938"></scales>
<clustering>
<clus scale="   90.486">  5  6 -1 -1</clus>
<clus scale="   92.157">  7  8 -1 -1</clus>
<clus scale="  123.579">  1  9  2 -1</clus>
<clus scale="  273.691">  1  5  2 -1</clus>
<clus scale="  123.579">  1  5  2 -1</clus>
</clustering>
</event>
<event>
 9    1  0.1610296E-005  0.1740851E+03  0.7546771E-02  0.1184822E+00
          1   -1    0    0  502    0 -0.00000000000E+00  0.00000000000E+00  0.26672239913E+03  0.26672239913E+03  0.00000000000E+00 0. -1.
         21   -1    0    0  501  502  0.00000000000E+00 -0.00000000000E+00 -0.37120253335E+03  0.37120253335E+03  0.00000000000E+00 0. -1.
         23    2    1    2    0    0 -0.70166087858E+02 -0.71631950004E+02  0.28280369440E+02  0.13831137904E+03  0.90971655635E+02 0.  0.
         23    2    1    2    0    0  0.12761582901E+03 -0.81394494612E+02 -0.24469227810E+03  0.30150679526E+03  0.90117551341E+02 0.  0.
        -11    1    4    4    0    0  0.18237181492E+02  0.18879615932E+02 -0.23998377285E+02  0.35566231159E+02  0.00000000000E+00 0.  1.
         11    1    4    4    0    0  0.10937864752E+03 -0.10027411054E+03 -0.22069390081E+03  0.26594056410E+03  0.00000000000E+00 0. -1.
        -13    1    3    3    0    0 -0.43466483118E+02 -0.24806708895E+02  0.58121864027E+02  0.76699798167E+02  0.00000000000E+00 0.  1.
         13    1    3    3    0    0 -0.26699604740E+02 -0.46825241108E+02 -0.29841494588E+02  0.61611580870E+02  0.00000000000E+00 0. -1.
          1    1    1    2  501    0 -0.57449741156E+02  0.15302644462E+03  0.11193177443E+03  0.19810675819E+03  0.00000000000E+00 0. -1.
<scales pt_clust_5="13000.00000" pt_clust_6="13000.00000" pt_clust_7="13000.00000" pt_clust_8="13000.00000" pt_clust_9="148.94447"></scales>
<clustering>
<clus scale="   90.118">  5  6 -1 -1</clus>
<clus scale="   90.972">  7  8 -1 -1</clus>
<clus scale="  135.389">  1  7  2 -1</clus>
<clus scale="  148.944">  2  9  1 -1</clus>
<clus scale="  148.944">  2  5  1 -1</clus>
</clustering>
</event>
<event>
 9    1  0.1610296E-005  0.1128019E+03  0.7546771E-02  0.1261917E+00
         21   -1    0    0  501  502  0.00000000000E+00  0.00000000000E+00  0.98720801555E+02  0.98720801555E+02  0.00000000000E+00 0. -1.
          2   -1    0    0  502    0 -0.00000000000E+00 -0.00000000000E+00 -0.23811107054E+03  0.23811107054E+03  0.00000000000E+00 0. -1.
         23    2    1    2    0    0 -0.36826714111E+02 -0.39185716462E+02 -0.12261074224E+03  0.16485045736E+03  0.96179789625E+02 0.  0.
         23    2    1    2    0    0  0.25077074083E+02  0.64525324606E+02 -0.59183098675E+02  0.12120531117E+03  0.79973190052E+02 0.  0.
        -11    1    3    3    0    0  0.26169112806E+01 -0.45057539538E+02 -0.11178062025E+02  0.46497087700E+02  0.00000000000E+00 0.  1.
         11    1    3    3    0    0 -0.39443625391E+02  0.58718230765E+01 -0.11143268021E+03  0.11835336966E+03  0.00000000000E+00 0. -1.
        -13    1    4    4    0    0 -0.25845396207E+02  0.36669476250E+01 -0.10688981479E+02  0.28207894906E+02  0.00000000000E+00 0. -1.
         13    1    4    4    0    0  0.50922470290E+02  0.60858376981E+02 -0.48494117196E+02  0.92997416264E+02  0.00000000000E+00 0.  1.
          2    1    1    2  501    0  0.11749640028E+02 -0.25339608144E+02  0.42403571925E+02  0.50776103569E+02  0.00000000000E+00 0. -1.
<scales pt_clust_5="13000.00000" pt_clust_6="13000.00000" pt_clust_7="13000.00000" pt_clust_8="13000.00000" pt_clust_9="27.93116"></scales>
<clustering>
<clus scale="   27.931">  1  9  2 -1</clus>
<clus scale="   79.973">  7  8 -1 -1</clus>
<clus scale="   96.180">  5  6 -1 -1</clus>
<clus scale="   99.345">  1  7  2 -1</clus>
<clus scale="   27.931">  1  5  2 -1</clus>
</clustering>
</event>
<event>
 9    1  0.1610296E-005  0.1028294E+03  0.7546771E-02  0.1277073E+00
          1   -1    0    0  502    0 -0.00000000000E+00  0.00000000000E+00  0.28545526391E+03  0.28545526391E+03  0.00000000000E+00 0. -1.
         21   -1    0    0  501  502  0.00000000000E+00 -0.00000000000E+00 -0.11247774553E+03  0.11247774553E+03  0.00000000000E+00 0.  1.
         23    2    1    2    0    0 -0.18622795147E+02  0.28346888957E+02  0.20399206888E+03  0.22815674826E+03  0.96397007191E+02 0.  0.
         23    2    1    2    0    0 -0.21716213681E+02 -0.59919609472E+02 -0.24753800052E+01  0.11113705444E+03  0.91012987136E+02 0.  0.
        -11    1    4    4    0    0 -0.26725600763E+02 -0.37466723797E+02 -0.43996593550E+02  0.63668778630E+02  0.00000000000E+00 0.  1.
         11    1    4    4    0    0  0.50093870823E+01 -0.22452885675E+02  0.41521213545E+02  0.47468275810E+02  0.00000000000E+00 0. -1.
        -13    1    3    3    0    0  0.30910085902E+01  0.48141812711E+02  0.18921483601E+03  0.19526761798E+03  0.00000000000E+00 0.  1.
         13    1    3    3    0    0 -0.21713803737E+02 -0.19794923754E+02  0.14777232877E+02  0.32889130281E+02  0.00000000000E+00 0. -1.
          1    1    1    2  501    0  0.40339008828E+02  0.31572720515E+02 -0.28539170507E+02  0.58639206741E+02  0.00000000000E+00 0. -1.
<scales pt_clust_5="13000.00000" pt_clust_6="13000.00000" pt_clust_7="13000.00000" pt_clust_8="13000.00000" pt_clust_9="51.22570"></scales>
<clustering>
<clus scale="   51.226">  2  9  1 -1</clus>
<clus scale="   91.013">  5  6 -1 -1</clus>
<clus scale="   96.397">  7  8 -1 -1</clus>
<clus scale="   97.800">  2  5  1 -1</clus>
<clus scale="   51.226">  2  5  1 -1</clus>
</clustering>
</event>
<event>
 9    1  0.1610296E-005  0.1183120E+03  0.7546771E-02  0.1252033E+00
         21   -1    0    0  501  502  0.00000000000E+00  0.00000000000E+00  0.42836741219E+02  0.42836741219E+02  0.00000000000E+00 0.  1.
          1   -1    0    0  502    0 -0.00000000000E+00 -0.00000000000E+00 -0.40463394052E+03  0.40463394052E+03  0.00000000000E+00 0. -1.
         23    2    1    2    0    0  0.42858781127E+02  0.37584256932E+02 -0.20083074332E+03  0.22751841634E+03  0.90455463190E+02 0.  0.
         23    2    1    2    0    0 -0.12887695904E+02 -0.49444082866E+02 -0.12832366651E+03  0.17407772862E+03  0.10594943218E+03 0.  0.
        -11    1    4    4    0    0 -0.18854461166E+02  0.31339968157E+02 -0.42249562561E+02  0.55881211928E+02  0.00000000000E+00 0.  1.
         11    1    4    4    0    0  0.59667652622E+01 -0.80784051023E+02 -0.86074103954E+02  0.11819651670E+03  0.00000000000E+00 0. -1.
        -11    1    3    3    0    0  0.64665096135E+02  0.49376142144E+02 -0.14161646483E+03  0.16332422105E+03  0.00000000000E+00 0. -1.
         11    1    3    3    0    0 -0.21806315009E+02 -0.11791885212E+02 -0.59214278494E+02  0.64194195288E+02  0.00000000000E+00 0.  1.
          1    1    1    2  501    0 -0.29971085223E+02  0.11859825935E+02 -0.32642789464E+02  0.45874536778E+02  0.00000000000E+00 0. -1.
<scales pt_clust_5="13000.00000" pt_clust_6="13000.00000" pt_clust_7="13000.00000" pt_clust_8="13000.00000" pt_clust_9="32.23230"></scales>
<clustering>
<clus scale="   32.232">  1  9  2 -1</clus>
<clus scale="   90.455">  7  8 -1 -1</clus>
<clus scale="  104.664">  2  7  1 -1</clus>
<clus scale="  105.949">  5  6 -1 -1</clus>
<clus scale="   32.232">  1  5  2 -1</clus>
</clustering>
</event>
<event>
 9    1  0.1610296E-005  0.9315342E+02  0.7546771E-02  0.1296242E+00
          2   -1    0    0  502    0 -0.00000000000E+00  0.00000000000E+00  0.22005689479E+03  0.22005689479E+03  0.00000000000E+00 0.  1.
         21   -1    0    0  501  502  0.00000000000E+00 -0.00000000000E+00 -0.12835219804E+03  0.12835219804E+03  0.00000000000E+00 0.  1.
         23    2    1    2    0    0 -0.22497691712E+02  0.13561426972E+02  0.15093496104E+03  0.17756423017E+03  0.89764329996E+02 0.  0.
         23    2    1    2    0    0  0.24270208770E+01  0.30134898860E+02 -0.20796315468E+01  0.96156205266E+02  0.91256169020E+02 0.  0.
        -11    1    4    4    0    0  0.30743122683E+02  0.43980689788E+02  0.20436312618E+02  0.57420236328E+02  0.00000000000E+00 0. -1.
         11    1    4    4    0    0 -0.28316101806E+02 -0.13845790928E+02 -0.22515944165E+02  0.38735968938E+02  0.00000000000E+00 0.  1.
        -13    1    3    3    0    0  0.34073383728E+02  0.10926683824E+02  0.45525041652E+02  0.57904380797E+02  0.00000000000E+00 0. -1.
         13    1    3    3    0    0 -0.56571075440E+02  0.26347431480E+01  0.10540991938E+03  0.11965984938E+03  0.00000000000E+00 0.  1.
          2    1    1    2  501    0  0.20070670835E+02 -0.43696325832E+02 -0.57150632740E+02  0.74688657382E+02  0.00000000000E+00 0.  1.
<scales pt_clust_5="13000.00000" pt_clust_6="13000.00000" pt_clust_7="13000.00000" pt_clust_8="13000.00000" pt_clust_9="48.08535"></scales>
<clustering>
<clus scale="   48.085">  2  9  1 -1</clus>
<clus scale="   89.764">  7  8 -1 -1</clus>
<clus scale="   91.256">  5  6 -1 -1</clus>
<clus scale="   91.692">  1  7  2 -1</clus>
<clus scale="   48.085">  2  5  1 -1</clus>
</clustering>
</event>
<event>
 9    1  0.1610296E-005  0.1352300E+03  0.7546771E-02  0.1220217E+00
          1   -1    0    0  502    0 -0.00000000000E+00  0.00000000000E+00  0.87252115795E+03  0.87252115795E+03  0.00000000000E+00 0. -1.
         21   -1    0    0  501  502  0.00000000000E+00 -0.00000000000E+00 -0.43371465716E+02  0.43371465716E+02  0.00000000000E+00 0. -1.
         23    2    1    2    0    0 -0.89366759504E+02  0.26257536248E+02  0.65467744537E+03  0.66792090755E+03  0.94020770847E+02 0.  0.
         23    2    1    2    0    0  0.11314058206E+03 -0.20256099418E+02  0.16564887429E+03  0.22191286374E+03  0.92707435895E+02 0.  0.
        -13    1    3    3    0    0 -0.42659820021E+02  0.59646040366E+02  0.31480384920E+03  0.32323207429E+03  0.00000000000E+00 0. -1.
         13    1    3    3    0    0 -0.46706939483E+02 -0.33388504119E+02  0.33987359617E+03  0.34468883327E+03  0.00000000000E+00 0.  1.
        -13    1    4    4    0    0  0.72590494739E+01  0.18838221480E+02  0.73449230253E+02  0.76173235540E+02  0.00000000000E+00 0.  1.
         13    1    4    4    0    0  0.10588153259E+03 -0.39094320898E+02  0.92199644033E+02  0.14573962820E+03  0.00000000000E+00 0. -1.
          1    1    1    2  501    0 -0.23773822557E+02 -0.60014368298E+01  0.88233725695E+01  0.26058852363E+02  0.00000000000E+00 0. -1.
<scales pt_clust_5="13000.00000" pt_clust_6="13000.00000" pt_clust_7="13000.00000" pt_clust_8="13000.00000" pt_clust_9="24.51962"></scales>
<clustering>
<clus scale="   24.520">  2  9  1 -1</clus>
<clus scale="   92.707">  7  8 -1 -1</clus>
<clus scale="   94.021">  5  6 -1 -1</clus>
<clus scale="  134.320">  2  7  1 -1</clus>
<clus scale="   24.520">  2  5  1 -1</clus>
</clustering>
</event>
<event>
 9    1  0.1610296E-005  0.1510578E+03  0.7546771E-02  0.1215779E+00
         21   -1    0    0  501  502  0.00000000000E+00  0.00000000000E+00  0.14926777643E+03  0.14926777643E+03  0.00000000000E+00 0. -1.
          2   -1    0    0  502    0 -0.00000000000E+00 -0.00000000000E+00 -0.37366649166E+03  0.37366649166E+03  0.00000000000E+00 0. -1.
         23    2    1    2    0    0  0.26468277708E+02 -0.54170484132E+02 -0.10441395337E+01  0.10581725232E+03  0.86955100973E+02 0.  0.
         23    2    1    2    0    0  0.13115202432E+02  0.16023138652E+03 -0.23947156670E+03  0.30276875687E+03  0.92066188797E+02 0.  0.
        -13    1    4    4    0    0  0.12383788980E+02  0.16559757221E+02  0.30326912430E+01  0.20899306326E+02  0.00000000000E+00 0.  1.
         13    1    4    4    0    0  0.73141345198E+00  0.14367162930E+03 -0.24250425794E+03  0.28186945054E+03  0.00000000000E+00 0. -1.
        -13    1    3    3    0    0  0.57594011425E+02 -0.24901503992E+02 -0.47799228687E+01  0.62928552468E+02  0.00000000000E+00 0.  1.
         13    1    3    3    0    0 -0.31125733717E+02 -0.29268980140E+02  0.37357833349E+01  0.42888699852E+02  0.00000000000E+00 0. -1.
          2    1    1    2  501    0 -0.39583480140E+02 -0.10606090238E+03  0.16116990995E+02  0.11434825890E+03  0.00000000000E+00 0. -1.
<scales pt_clust_5="13000.00000" pt_clust_6="13000.00000" pt_clust_7="13000.00000" pt_clust_8="13000.00000" pt_clust_9="119.75921"></scales>
<clustering>
<clus scale="   86.955">  7  8 -1 -1</clus>
<clus scale="   92.066">  5  6 -1 -1</clus>
<clus scale="  105.812">  2  7  1 -1</clus>
<clus scale="  119.759">  1  9  2 -1</clus>
<clus scale="  119.759">  1  5  2 -1</clus>
</clustering>
</event>
<event>
 9    1  0.1610296E-005  0.1109881E+03  0.7546771E-02  0.1260703E+00
         -1   -1    0    0    0  501 -0.00000000000E+00  0.00000000000E+00  0.21370611048E+03  0.21370611048E+03  0.00000000000E+00 0.  1.
         21   -1    0    0  501  502  0.00000000000E+00 -0.00000000000E+00 -0.77875255592E+02  0.77875255592E+02  0.00000000000E+00 0. -1.
         23    2    1    2    0    0  0.34337347215E+02  0.32552628514E+02  0.82345725496E+02  0.13121010160E+03  0.90534773520E+02 0.  0.
         23    2    1    2    0    0 -0.49426285831E+02 -0.49783015277E+02  0.64602287781E+02  0.13491240537E+03  0.95428482094E+02 0.  0.
        -11    1    3    3    0    0  0.18013007197E+02  0.57595139137E+02  0.81364339787E+02  0.10130066273E+03  0.00000000000E+00 0.  1.
         11    1    3    3    0    0  0.16324340018E+02 -0.25042510623E+02  0.98138570827E+00  0.29909438865E+02  0.00000000000E+00 0. -1.
        -13    1    4    4    0    0 -0.67639891204E+02 -0.34732013428E+01  0.28744123718E+02  0.73576101133E+02  0.00000000000E+00 0.  1.
         13    1    4    4    0    0  0.18213605373E+02 -0.46309813934E+02  0.35858164063E+02  0.61336304235E+02  0.00000000000E+00 0. -1.
         -1    1    1    2    0  502  0.15088938616E+02  0.17230386763E+02 -0.11117158388E+02  0.25458859110E+02  0.00000000000E+00 0.  1.
<scales pt_clust_5="13000.00000" pt_clust_6="13000.00000" pt_clust_7="13000.00000" pt_clust_8="13000.00000" pt_clust_9="22.90333"></scales>
<clustering>
<clus scale="   22.903">  2  9  1 -1</clus>
<clus scale="   90.535">  5  6 -1 -1</clus>
<clus scale="   95.428">  7  8 -1 -1</clus>
<clus scale="  106.810">  1  5  2 -1</clus>
<clus scale="   22.903">  2  5  1 -1</clus>
</clustering>
</event>
<event>
 9    1  0.1610296E-005  0.9365193E+02  0.7546771E-02  0.1295817E+00
         -3   -1    0    0    0  501 -0.00000000000E+00  0.00000000000E+00  0.36426303783E+03  0.36426303783E+03  0.00000000000E+00 0.  1.
         21   -1    0    0  501  502  0.00000000000E+00 -0.00000000000E+00 -0.56167188340E+02  0.56167188340E+02  0.00000000000E+00 0. -1.
         23    2    1    2    0    0  0.21410539679E+02  0.15686462576E+02  0.22238477206E+03  0.24237233102E+03  0.92654647392E+02 0.  0.
         23    2    1    2    0    0  0.23642934342E+01  0.26719872567E+02  0.88998548315E+02  0.12933061926E+03  0.89922889208E+02 0.  0.
        -11    1    3    3    0    0  0.20061883987E+02  0.46990369282E+02  0.19216251031E+03  0.19883914193E+03  0.00000000000E+00 0. -1.
         11    1    3    3    0    0  0.13486556925E+01 -0.31303906706E+02  0.30222261747E+02  0.43533189090E+02  0.00000000000E+00 0.  1.
        -11    1    4    4    0    0 -0.35592523921E+02  0.16525530415E+02  0.90913710660E+01  0.40281185961E+02  0.00000000000E+00 0.  1.
         11    1    4    4    0    0  0.37956817355E+02  0.10194342152E+02  0.79907177249E+02  0.89049433303E+02  0.00000000000E+00 0. -1.
         -3    1    1    2    0  502 -0.23774833113E+02 -0.42406335144E+02 -0.32874708881E+01  0.48727275880E+02  0.00000000000E+00 0.  1.
<scales pt_clust_5="13000.00000" pt_clust_6="13000.00000" pt_clust_7="13000.00000" pt_clust_8="13000.00000" pt_clust_9="48.61625"></scales>
<clustering>
<clus scale="   48.616">  2  9  1 -1</clus>
<clus scale="   89.923">  7  8 -1 -1</clus>
<clus scale="   90.950">  2  7  1 -1</clus>
<clus scale="   92.655">  5  6 -1 -1</clus>
<clus scale="   48.616">  2  5  1 -1</clus>
</clustering>
</event>
<event>
 9    1  0.1610296E-005  0.1003319E+03  0.7546771E-02  0.1281210E+00
          3   -1    0    0  502    0 -0.00000000000E+00  0.00000000000E+00  0.38186605730E+03  0.38186605730E+03  0.00000000000E+00 0. -1.
         21   -1    0    0  501  502  0.00000000000E+00 -0.00000000000E+00 -0.19437752659E+03  0.19437752659E+03  0.00000000000E+00 0. -1.
         23    2    1    2    0    0  0.85413425924E+01 -0.28878218837E+02  0.21992748613E+03  0.23924077506E+03  0.89225238802E+02 0.  0.
         23    2    1    2    0    0  0.35349659978E+01  0.58465102223E+02  0.13084690729E+03  0.17061923434E+03  0.92516732633E+02 0.  0.
        -11    1    3    3    0    0  0.43370024527E+02 -0.11669890923E+02  0.61707786975E+02  0.76321663733E+02  0.00000000000E+00 0.  1.
         11    1    3    3    0    0 -0.34828681934E+02 -0.17208327915E+02  0.15821969916E+03  0.16291911133E+03  0.00000000000E+00 0. -1.
        -11    1    4    4    0    0 -0.34087787483E+02  0.40523164717E+02  0.11393034316E+03  0.12563529451E+03  0.00000000000E+00 0. -1.
         11    1    4    4    0    0  0.37622753481E+02  0.17941937506E+02  0.16916564136E+02  0.44983939835E+02  0.00000000000E+00 0.  1.
          3    1    1    2  501    0 -0.12076308590E+02 -0.29586883386E+02 -0.16328586272E+03  0.16638357449E+03  0.00000000000E+00 0. -1.
<scales pt_clust_5="13000.00000" pt_clust_6="13000.00000" pt_clust_7="13000.00000" pt_clust_8="13000.00000" pt_clust_9="31.95655"></scales>
<clustering>
<clus scale="   31.957">  2  9  1 -1</clus>
<clus scale="   89.225">  5  6 -1 -1</clus>
<clus scale="   92.517">  7  8 -1 -1</clus>
<clus scale="   97.305">  1  5  2 -1</clus>
<clus scale="   31.957">  2  5  1 -1</clus>
</clustering>
</event>
<event>
 9    1  0.1610296E-005  0.1087267E+03  0.7546771E-02  0.1263839E+00
         21   -1    0    0  501  502  0.00000000000E+00  0.00000000000E+00  0.29565395916E+02  0.29565395916E+02  0.00000000000E+00 0. -1.
         -2   -1    0    0    0  501 -0.00000000000E+00 -0.00000000000E+00 -0.54760695914E+03  0.54760695914E+03  0.00000000000E+00 0.  1.
         23    2    1    2    0    0 -0.49135092086E+02 -0.74477564486E+01 -0.31964667980E+03  0.33690486278E+03  0.94133736284E+02 0.  0.
         23    2    1    2    0    0  0.65352657074E+02 -0.71012793113E+01 -0.15658245183E+03  0.19311918063E+03  0.91954095886E+02 0.  0.
        -11    1    3    3    0    0 -0.52448338281E+02 -0.43042603104E+02 -0.24363928839E+03  0.25291025428E+03  0.00000000000E+00 0.  1.
         11    1    3    3    0    0  0.33132461958E+01  0.35594846655E+02 -0.76007391409E+02  0.83994608503E+02  0.00000000000E+00 0. -1.
        -13    1    4    4    0    0  0.64266906187E+02  0.18986866583E+02 -0.50608490582E+02  0.83975923052E+02  0.00000000000E+00 0. -1.
         13    1    4    4    0    0  0.10857508872E+01 -0.26088145894E+02 -0.10597396125E+03  0.10914325758E+03  0.00000000000E+00 0.  1.
         -2    1    1    2    0  502 -0.16217564989E+02  0.14549035760E+02 -0.41812431587E+02  0.47148311644E+02  0.00000000000E+00 0.  1.
<scales pt_clust_5="13000.00000" pt_clust_6="13000.00000" pt_clust_7="13000.00000" pt_clust_8="13000.00000" pt_clust_9="21.78724"></scales>
<clustering>
<clus scale="   21.787">  1  9  2 -1</clus>
<clus scale="   91.954">  7  8 -1 -1</clus>
<clus scale="   94.134">  5  6 -1 -1</clus>
<clus scale="  106.845">  1  7  2 -1</clus>
<clus scale="   21.787">  1  5  2 -1</clus>
</clustering>
</event>
<event>
 9    1  0.1610296E-005  0.1440392E+03  0.7546771E-02  0.1208373E+00
          3   -1    0    0  502    0 -0.00000000000E+00  0.00000000000E+00  0.86144001475E+03  0.86144001475E+03  0.00000000000E+00 0. -1.
         21   -1    0    0  501  502  0.00000000000E+00 -0.00000000000E+00 -0.34321794171E+02  0.34321794171E+02  0.00000000000E+00 0.  1.
         23    2    1    2    0    0 -0.62968243151E+02  0.62927404994E+02  0.31588511149E+03  0.34053754593E+03  0.90871109695E+02 0.  0.
         23    2    1    2    0    0  0.96830159601E+02 -0.94851948500E+02  0.44454675789E+03  0.47390467557E+03  0.92686836343E+02 0.  0.
        -11    1    4    4    0    0  0.93501465247E+02 -0.28495807459E+02  0.26825565621E+03  0.28550942565E+03  0.00000000000E+00 0.  1.
         11    1    4    4    0    0  0.33286943541E+01 -0.66356141041E+02  0.17629110168E+03  0.18839524992E+03  0.00000000000E+00 0. -1.
        -11    1    3    3    0    0 -0.38599400292E+02 -0.81470865091E+01  0.47051032209E+02  0.61401045214E+02  0.00000000000E+00 0.  1.
         11    1    3    3    0    0 -0.24368842859E+02  0.71074491503E+02  0.26883407928E+03  0.27913650071E+03  0.00000000000E+00 0. -1.
          3    1    1    2  501    0 -0.33861916450E+02  0.31924543506E+02  0.66686351193E+02  0.81319587427E+02  0.00000000000E+00 0. -1.
<scales pt_clust_5="13000.00000" pt_clust_6="13000.00000" pt_clust_7="13000.00000" pt_clust_8="13000.00000" pt_clust_9="46.53822"></scales>
<clustering>
<clus scale="   46.538">  2  9  1 -1</clus>
<clus scale="   90.871">  7  8 -1 -1</clus>
<clus scale="   92.687">  5  6 -1 -1</clus>
<clus scale="  142.878">  1  7  2 -1</clus>
<clus scale="   46.538">  2  5  1 -1</clus>
</clustering>
</event>
<event>
 9    1  0.1610296E-005  0.1092866E+03  0.7546771E-02  0.1263347E+00
         21   -1    0    0  501  502  0.00000000000E+00  0.00000000000E+00  0.10794632742E+03  0.10794632742E+03  0.00000000000E+00 0. -1.
          1   -1    0    0  502    0 -0.00000000000E+00 -0.00000000000E+00 -0.27696504210E+03  0.27696504210E+03  0.00000000000E+00 0. -1.
         23    2    1    2    0    0  0.46316174153E+01 -0.61209632899E+02 -0.22215892721E+03  0.24871317130E+03  0.93464333321E+02 0.  0.
         23    2    1    2    0    0 -0.19232379655E+01  0.32541957683E+02  0.33308176866E+02  0.10123420874E+03  0.89867972706E+02 0.  0.
        -11    1    3    3    0    0  0.41831758934E+02 -0.34401547778E+02 -0.62998397470E+02  0.83079243069E+02  0.00000000000E+00 0.  1.
         11    1    3    3    0    0 -0.37200141519E+02 -0.26808085121E+02 -0.15916052974E+03  0.16563392824E+03  0.00000000000E+00 0. -1.
        -13    1    4    4    0    0 -0.20440958643E+02 -0.24258536334E+02 -0.20913113838E+01  0.31791240281E+02  0.00000000000E+00 0. -1.
         13    1    4    4    0    0  0.18517720677E+02  0.56800494017E+02  0.35399488250E+02  0.69442968456E+02  0.00000000000E+00 0.  1.
          1    1    1    2  501    0 -0.27083794498E+01  0.28667675217E+02  0.19832035665E+02  0.34963989477E+02  0.00000000000E+00 0. -1.
<scales pt_clust_5="13000.00000" pt_clust_6="13000.00000" pt_clust_7="13000.00000" pt_clust_8="13000.00000" pt_clust_9="28.79533"></scales>
<clustering>
<clus scale="   28.795">  1  9  2 -1</clus>
<clus scale="   89.868">  7  8 -1 -1</clus>
<clus scale="   93.464">  5  6 -1 -1</clus>
<clus scale="  106.227">  1  7  2 -1</clus>
<clus scale="   28.795">  1  5  2 -1</clus>
</clustering>
</event>
<event>
 9    1  0.1610296E-005  0.1775067E+03  0.7546771E-02  0.1170703E+00
          2   -1    0    0  502    0 -0.00000000000E+00  0.00000000000E+00  0.62531262631E+03  0.62531262631E+03  0.00000000000E+00 0. -1.
         21   -1    0    0  501  502  0.00000000000E+00 -0.00000000000E+00 -0.17130991864E+03  0.17130991864E+03  0.00000000000E+00 0. -1.
         23    2    1    2    0    0 -0.15680583619E+03  0.84724830492E+02  0.44657154226E+03  0.48886829895E+03  0.88315934016E+02 0.  0.
         23    2    1    2    0    0  0.47458836915E+02 -0.10677432086E+03  0.85556247132E+02  0.17156880378E+03  0.91993946603E+02 0.  0.
        -11    1    3    3    0    0 -0.15983002726E+03  0.62853659822E+02  0.42317651049E+03  0.45669965973E+03  0.00000000000E+00 0. -1.
         11    1    3    3    0    0  0.30241910649E+01  0.21871170670E+02  0.23395031765E+02  0.32168639222E+02  0.00000000000E+00 0.  1.
        -11    1    4    4    0    0 -0.76746585923E+01 -0.76715602819E+02  0.75618230219E+02  0.10799213324E+03  0.00000000000E+00 0.  1.
         11    1    4    4    0    0  0.55133495507E+02 -0.30058718044E+02  0.99380169132E+01  0.63576670544E+02  0.00000000000E+00 0. -1.
          2    1    1    2  501    0  0.10934699928E+03  0.22049490371E+02 -0.78125081725E+02  0.13618544222E+03  0.00000000000E+00 0. -1.
<scales pt_clust_5="13000.00000" pt_clust_6="13000.00000" pt_clust_7="13000.00000" pt_clust_8="13000.00000" pt_clust_9="111.54796"></scales>
<clustering>
<clus scale="   88.316">  5  6 -1 -1</clus>
<clus scale="   91.994">  7  8 -1 -1</clus>
<clus scale="  111.548">  2  9  1 -1</clus>
<clus scale="  175.629">  1  5  2 -1</clus>
<clus scale="  111.548">  2  5  1 -1</clus>
</clustering>
</event>
<event>
 9    1  0.1610296E-005  0.1899129E+03  0.7546771E-02  0.1158864E+00
          1   -1    0    0  502    0 -0.00000000000E+00  0.00000000000E+00  0.75690079960E+03  0.75690079960E+03  0.00000000000E+00 0. -1.
         21   -1    0    0  501  502  0.00000000000E+00 -0.00000000000E+00 -0.78311576291E+02  0.78311576291E+02  0.00000000000E+00 0.  1.
         23    2    1    2    0    0  0.13314985313E+03 -0.95201153159E+02  0.39453553269E+03  0.43694274006E+03  0.92024608555E+02 0.  0.
         23    2    1    2    0    0 -0.15904824026E+03  0.65455697302E+02  0.29887302124E+03  0.35613733041E+03  0.89038891777E+02 0.  0.
        -11    1    4    4    0    0 -0.84546191010E+01 -0.18414118686E+02  0.44081095176E+02  0.48514980192E+02  0.00000000000E+00 0. -1.
         11    1    4    4    0    0 -0.15059362116E+03  0.83869815987E+02  0.25479192606E+03  0.30762235022E+03  0.00000000000E+00 0.  1.
        -11    1    3    3    0    0  0.80169037750E+02 -0.33132689595E+01  0.19739730628E+03  0.21308155456E+03  0.00000000000E+00 0. -1.
         11    1    3    3    0    0  0.52980815379E+02 -0.91887884199E+02  0.19713822641E+03  0.22386118550E+03  0.00000000000E+00 0.  1.
          1    1    1    2  501    0  0.25898387133E+02  0.29745455857E+02 -0.14819330622E+02  0.42132305424E+02  0.00000000000E+00 0. -1.
<scales pt_clust_5="13000.00000" pt_clust_6="13000.00000" pt_clust_7="13000.00000" pt_clust_8="13000.00000" pt_clust_9="39.44006"></scales>
<clustering>
<clus scale="   39.440">  2  9  1 -1</clus>
<clus scale="   89.039">  5  6 -1 -1</clus>
<clus scale="   92.025">  7  8 -1 -1</clus>
<clus scale="  188.484">  2  5  1 -1</clus>
<clus scale="   39.440">  2  5  1 -1</clus>
</clustering>
</event>
<event>
 9    1  0.2800592E-005  0.1752428E+03  0.7546771E-02  0.1173043E+00
         21   -1    0    0  501  502  0.00000000000E+00  0.00000000000E+00  0.92977616438E+02  0.92977616438E+02  0.00000000000E+00 0.  1.
          1   -1    0    0  502    0 -0.00000000000E+00 -0.00000000000E+00 -0.14739844835E+04  0.14739844835E+04  0.00000000000E+00 0. -1.
         23    2    1    2    0    0 -0.12248452541E+03  0.81499952502E+02 -0.90359403259E+03  0.91916975240E+03  0.82134991133E+02 0.  0.
         23    2    1    2    0    0  0.16263090174E+03 -0.12989034906E+03 -0.70754414077E+02  0.23630184596E+03  0.86672154188E+02 0.  0.
        -11    1    3    3    0    0 -0.19759936571E+02  0.60021999042E+02 -0.31102548792E+03  0.31737981914E+03  0.00000000000E+00 0. -1.
         11    1    3    3    0    0 -0.10272458884E+03  0.21477953460E+02 -0.59256854467E+03  0.60178993326E+03  0.00000000000E+00 0.  1.
        -13    1    4    4    0    0  0.13777017868E+03 -0.13894046415E+03 -0.74920918544E+02  0.20951901762E+03  0.00000000000E+00 0.  1.
         13    1    4    4    0    0  0.24860723061E+02  0.90501150836E+01  0.41665044676E+01  0.26782828335E+02  0.00000000000E+00 0. -1.
          1    1    1    2  501    0 -0.40146376335E+02  0.48390396560E+02 -0.40665842040E+03  0.41149050159E+03  0.00000000000E+00 0. -1.
<scales pt_clust_5="13000.00000" pt_clust_6="13000.00000" pt_clust_7="13000.00000" pt_clust_8="13000.00000" pt_clust_9="62.87580"></scales>
<clustering>
<clus scale="   62.876">  1  9  2 -1</clus>
<clus scale="   82.135">  5  6 -1 -1</clus>
<clus scale="   86.672">  7  8 -1 -1</clus>
<clus scale="  173.044">  2  5  1 -1</clus>
<clus scale="   62.876">  1  5  2 -1</clus>
</clustering>
</event>
<event>
 9    1  0.1610296E-005  0.1455523E+03  0.7546771E-02  0.1216873E+00
         -3   -1    0    0    0  501 -0.00000000000E+00  0.00000000000E+00  0.39052817368E+02  0.39052817368E+02  0.00000000000E+00 0.  1.
         21   -1    0    0  501  502  0.00000000000E+00 -0.00000000000E+00 -0.13945019240E+04  0.13945019240E+04  0.00000000000E+00 0.  1.
         23    2    1    2    0    0  0.67855255117E+02  0.25047548826E+02 -0.25686923783E+03  0.28167331062E+03  0.90146176970E+02 0.  0.
         23    2    1    2    0    0  0.47178489123E+02 -0.65810035368E+02 -0.13853597151E+03  0.18411150595E+03  0.90266608604E+02 0.  0.
        -11    1    3    3    0    0  0.88359460000E+02  0.19052120078E+02 -0.17378625721E+03  0.19588782669E+03  0.00000000000E+00 0.  1.
         11    1    3    3    0    0 -0.20504204883E+02  0.59954287487E+01 -0.83082980627E+02  0.85785483934E+02  0.00000000000E+00 0. -1.
        -13    1    4    4    0    0  0.17641675094E+02 -0.74444405965E+02 -0.13212650687E+03  0.15267813235E+03  0.00000000000E+00 0.  1.
         13    1    4    4    0    0  0.29536814030E+02  0.86343705973E+01 -0.64094646345E+01  0.31433373595E+02  0.00000000000E+00 0. -1.
         -3    1    1    2    0  502 -0.11503374424E+03  0.40762486541E+02 -0.96004389724E+03  0.96776992475E+03  0.00000000000E+00 0.  1.
<scales pt_clust_5="13000.00000" pt_clust_6="13000.00000" pt_clust_7="13000.00000" pt_clust_8="13000.00000" pt_clust_9="114.18145"></scales>
<clustering>
<clus scale="   90.146">  5  6 -1 -1</clus>
<clus scale="   90.267">  7  8 -1 -1</clus>
<clus scale="  115.577">  1  5  2 -1</clus>
<clus scale="  114.181">  2  9  1 -1</clus>
<clus scale="  114.181">  2  5  1 -1</clus>
</clustering>
</event>
<event>
 9    1  0.1610296E-005  0.1361603E+03  0.7546771E-02  0.1218792E+00
         21   -1    0    0  501  502  0.00000000000E+00  0.00000000000E+00  0.10675805559E+03  0.10675805559E+03  0.00000000000E+00 0.  1.
          2   -1    0    0  502    0 -0.00000000000E+00 -0.00000000000E+00 -0.23494027245E+03  0.23494027245E+03  0.00000000000E+00 0. -1.
         23    2    1    2    0    0  0.74297867257E+02  0.53288126196E+02 -0.91050500028E+02  0.15778749130E+03  0.90812451689E+02 0.  0.
         23    2    1    2    0    0 -0.91555729960E+02 -0.69892599116E+02 -0.51530314162E+02  0.15596692953E+03  0.91667239122E+02 0.  0.
        -13    1    3    3    0    0  0.35829757864E+02  0.64595119882E+02 -0.20532056617E+02  0.76667244701E+02  0.00000000000E+00 0.  1.
         13    1    3    3    0    0  0.38468109394E+02 -0.11306993686E+02 -0.70518443411E+02  0.81120246595E+02  0.00000000000E+00 0. -1.
        -13    1    4    4    0    0 -0.10958529610E+03 -0.58226018621E+02 -0.35203482662E+02  0.12899027698E+03  0.00000000000E+00 0.  1.
         13    1    4    4    0    0  0.18029566136E+02 -0.11666580495E+02 -0.16326831499E+02  0.26976652541E+02  0.00000000000E+00 0. -1.
          2    1    1    2  501    0  0.17257862702E+02  0.16604472920E+02  0.14398597330E+02  0.27943907227E+02  0.00000000000E+00 0. -1.
<scales pt_clust_5="13000.00000" pt_clust_6="13000.00000" pt_clust_7="13000.00000" pt_clust_8="13000.00000" pt_clust_9="23.94874"></scales>
<clustering>
<clus scale="   23.949">  1  9  2 -1</clus>
<clus scale="   90.812">  5  6 -1 -1</clus>
<clus scale="   91.667">  7  8 -1 -1</clus>
<clus scale="  135.586">  2  5  1 -1</clus>
<clus scale="   23.949">  1  5  2 -1</clus>
</clustering>
</event>
<event>
 9    1  0.1610296E-005  0.1002934E+03  0.7546771E-02  0.1280150E+00
         -1   -1    0    0    0  501 -0.00000000000E+00  0.00000000000E+00  0.78628712027E+02  0.78628712027E+02  0.00000000000E+00 0.  1.
         21   -1    0    0  501  502  0.00000000000E+00 -0.00000000000E+00 -0.20570210347E+03  0.20570210347E+03  0.00000000000E+00 0. -1.
         23    2    1    2    0    0  0.36157078737E+02 -0.37941242898E+01  0.57010261865E+01  0.98191989312E+02  0.91035352164E+02 0.  0.
         23    2    1    2    0    0 -0.55753286899E+02  0.10991784852E+02 -0.93706662080E+02  0.14184314676E+03  0.90051604263E+02 0.  0.
        -11    1    4    4    0    0  0.14795944758E+02  0.29956925714E+02 -0.30591235209E+02  0.45300784222E+02  0.00000000000E+00 0.  1.
         11    1    4    4    0    0 -0.70549231657E+02 -0.18965140862E+02 -0.63115426871E+02  0.96542362538E+02  0.00000000000E+00 0. -1.
        -13    1    3    3    0    0  0.60866632084E+02 -0.19911316790E+02  0.17547205310E+02  0.66401143452E+02  0.00000000000E+00 0.  1.
         13    1    3    3    0    0 -0.24709553347E+02  0.16117192500E+02 -0.11846179124E+02  0.31790845860E+02  0.00000000000E+00 0. -1.
         -1    1    1    2    0  502  0.19596208162E+02 -0.71976605619E+01 -0.39067755547E+02  0.44295679421E+02  0.00000000000E+00 0.  1.
<scales pt_clust_5="13000.00000" pt_clust_6="13000.00000" pt_clust_7="13000.00000" pt_clust_8="13000.00000" pt_clust_9="20.87625"></scales>
<clustering>
<clus scale="   20.876">  2  9  1 -1</clus>
<clus scale="   90.052">  5  6 -1 -1</clus>
<clus scale="   91.035">  7  8 -1 -1</clus>
<clus scale="   99.401">  2  5  1 -1</clus>
<clus scale="   20.876">  2  5  1 -1</clus>
</clustering>
</event>
<event>
 9    1  0.1610296E-005  0.1015301E+03  0.7546771E-02  0.1282784E+00
         21   -1    0    0  501  502  0.00000000000E+00  0.00000000000E+00  0.13332401124E+03  0.13332401124E+03  0.00000000000E+00 0.  1.
         -2   -1    0    0    0  501 -0.00000000000E+00 -0.00000000000E+00 -0.38698886902E+03  0.38698886902E+03  0.00000000000E+00 0.  1.
         23    2    1    2    0    0 -0.22401518491E+02 -0.51133119730E+02 -0.23827909835E+03  0.26124591568E+03  0.91411573561E+02 0.  0.
         23    2    1    2    0    0  0.72250877392E+01  0.30005486349E+02 -0.12220108091E+03  0.14912964677E+03  0.79712083564E+02 0.  0.
        -11    1    4    4    0    0  0.16557316484E+02  0.52615285470E+02 -0.10686141062E+03  0.12025753229E+03  0.00000000000E+00 0. -1.
         11    1    4    4    0    0 -0.93322287453E+01 -0.22609799121E+02 -0.15339670293E+02  0.28872114476E+02  0.00000000000E+00 0.  1.
        -13    1    3    3    0    0  0.23510987875E+02 -0.55717568115E+02 -0.12259142856E+03  0.13669627758E+03  0.00000000000E+00 0.  1.
         13    1    3    3    0    0 -0.45912506366E+02  0.45844483844E+01 -0.11568766979E+03  0.12454963810E+03  0.00000000000E+00 0. -1.
         -2    1    1    2    0  502  0.15176430752E+02  0.21127633381E+02  0.10681532149E+03  0.10993731781E+03  0.00000000000E+00 0.  1.
<scales pt_clust_5="13000.00000" pt_clust_6="13000.00000" pt_clust_7="13000.00000" pt_clust_8="13000.00000" pt_clust_9="26.01348"></scales>
<clustering>
<clus scale="   26.013">  1  9  2 -1</clus>
<clus scale="   79.712">  5  6 -1 -1</clus>
<clus scale="   91.139">  1  5  2 -1</clus>
<clus scale="   91.412">  7  8 -1 -1</clus>
<clus scale="   26.013">  1  5  2 -1</clus>
</clustering>
</event>
<event>
 9    1  0.1610296E-005  0.1109532E+03  0.7546771E-02  0.1260833E+00
         21   -1    0    0  501  502  0.00000000000E+00  0.00000000000E+00  0.63970280216E+02  0.63970280216E+02  0.00000000000E+00 0.  1.
          1   -1    0    0  502    0 -0.00000000000E+00 -0.00000000000E+00 -0.38119657122E+03  0.38119657122E+03  0.00000000000E+00 0. -1.
         23    2    1    2    0    0 -0.20525425499E+02 -0.61693045720E+02 -0.25085966917E+03  0.27323693999E+03  0.86605581660E+02 0.  0.
         23    2    1    2    0    0  0.47537254649E+02  0.39615924276E+02 -0.77641224076E+02  0.13526719386E+03  0.91868612833E+02 0.  0.
        -13    1    3    3    0    0  0.22829836490E+02 -0.14004783740E+02 -0.19665867483E+02  0.33227725556E+02  0.00000000000E+00 0.  1.
         13    1    3    3    0    0 -0.43355261989E+02 -0.47688261980E+02 -0.23119380169E+03  0.24000921443E+03  0.00000000000E+00 0. -1.
        -13    1    4    4    0    0  0.73585169806E+02  0.25286299467E+02 -0.69782192676E+02  0.10451664255E+03  0.00000000000E+00 0.  1.
         13    1    4    4    0    0 -0.26047915158E+02  0.14329624809E+02 -0.78590313996E+01  0.30750551308E+02  0.00000000000E+00 0. -1.
          1    1    1    2  501    0 -0.27011829149E+02  0.22077121445E+02  0.11274602240E+02  0.36662717588E+02  0.00000000000E+00 0. -1.
<scales pt_clust_5="13000.00000" pt_clust_6="13000.00000" pt_clust_7="13000.00000" pt_clust_8="13000.00000" pt_clust_9="34.88607"></scales>
<clustering>
<clus scale="   34.886">  1  9  2 -1</clus>
<clus scale="   86.606">  5  6 -1 -1</clus>
<clus scale="   91.869">  7  8 -1 -1</clus>
<clus scale="  106.636">  2  5  1 -1</clus>
<clus scale="   34.886">  1  5  2 -1</clus>
</clustering>
</event>
<event>
 9    1  0.1610296E-005  0.1288262E+03  0.7546771E-02  0.1244058E+00
          2   -1    0    0  502    0 -0.00000000000E+00  0.00000000000E+00  0.88666117847E+02  0.88666117847E+02  0.00000000000E+00 0. -1.
         21   -1    0    0  501  502  0.00000000000E+00 -0.00000000000E+00 -0.40743086156E+03  0.40743086156E+03  0.00000000000E+00 0. -1.
         23    2    1    2    0    0 -0.22000929038E+02  0.12422878711E+02  0.35875349526E+02  0.10177960035E+03  0.91835056210E+02 0.  0.
         23    2    1    2    0    0 -0.34176921495E+01 -0.41993133486E+02 -0.26759144596E+03  0.29893408250E+03  0.12641716595E+03 0.  0.
        -11    1    4    4    0    0 -0.48585793978E+02 -0.65411697609E+02 -0.18113386837E+03  0.19861708846E+03  0.00000000000E+00 0. -1.
         11    1    4    4    0    0  0.45168101829E+02  0.23418564123E+02 -0.86457577596E+02  0.10031699403E+03  0.00000000000E+00 0.  1.
        -13    1    3    3    0    0 -0.26752801034E+02  0.45690814390E+02  0.44764228382E+00  0.52948685218E+02  0.00000000000E+00 0.  1.
         13    1    3    3    0    0  0.47518719961E+01 -0.33267935678E+02  0.35427707242E+02  0.48830915128E+02  0.00000000000E+00 0. -1.
          2    1    1    2  501    0  0.25418621187E+02  0.29570254775E+02 -0.87048647281E+02  0.95383296567E+02  0.00000000000E+00 0. -1.
<scales pt_clust_5="13000.00000" pt_clust_6="13000.00000" pt_clust_7="13000.00000" pt_clust_8="13000.00000" pt_clust_9="38.99367"></scales>
<clustering>
<clus scale="   38.994">  2  9  1 -1</clus>
<clus scale="   91.835">  7  8 -1 -1</clus>
<clus scale="   95.124">  1  7  2 -1</clus>
<clus scale="  126.417">  5  6 -1 -1</clus>
<clus scale="   38.994">  2  5  1 -1</clus>
</clustering>
</event>
<event>
 9    1  0.1610296E-005  0.1658314E+03  0.7546771E-02  0.1182454E+00
          1   -1    0    0  502    0 -0.00000000000E+00  0.00000000000E+00  0.50509248343E+03  0.50509248343E+03  0.00000000000E+00 0. -1.
         21   -1    0    0  501  502  0.00000000000E+00 -0.00000000000E+00 -0.90781078003E+02  0.90781078003E+02  0.00000000000E+00 0.  1.
         23    2    1    2    0    0 -0.19508278371E+02 -0.12613412311E+03  0.26927566425E+03  0.31145787892E+03  0.90588283147E+02 0.  0.
         23    2    1    2    0    0  0.54133409808E+02  0.15227092788E+03  0.15244868089E+03  0.24040450251E+03  0.91852397843E+02 0.  0.
        -11    1    3    3    0    0  0.28386269868E+02 -0.88961788288E+01  0.56191096672E+02  0.63579569517E+02  0.00000000000E+00 0. -1.
         11    1    3    3    0    0 -0.47894548239E+02 -0.11723794428E+03  0.21308456758E+03  0.24787830940E+03  0.00000000000E+00 0.  1.
        -13    1    4    4    0    0  0.82458753592E+01  0.13516804974E+03  0.97915374350E+02  0.16711019318E+03  0.00000000000E+00 0.  1.
         13    1    4    4    0    0  0.45887534449E+02  0.17102878138E+02  0.54533306540E+02  0.73294309333E+02  0.00000000000E+00 0. -1.
          1    1    1    2  501    0 -0.34625131437E+02 -0.26136804763E+02 -0.74129397127E+01  0.44011180005E+02  0.00000000000E+00 0. -1.
<scales pt_clust_5="13000.00000" pt_clust_6="13000.00000" pt_clust_7="13000.00000" pt_clust_8="13000.00000" pt_clust_9="43.38240"></scales>
<clustering>
<clus scale="   43.382">  2  9  1 -1</clus>
<clus scale="   90.588">  5  6 -1 -1</clus>
<clus scale="   91.852">  7  8 -1 -1</clus>
<clus scale="  165.135">  1  5  2 -1</clus>
<clus scale="   43.382">  2  5  1 -1</clus>
</clustering>
</event>
<event>
 9    1  0.1610296E-005  0.1096824E+03  0.7546771E-02  0.1263397E+00
          3   -1    0    0  502    0 -0.00000000000E+00  0.00000000000E+00  0.17911332326E+03  0.17911332326E+03  0.00000000000E+00 0. -1.
         21   -1    0    0  501  502  0.00000000000E+00 -0.00000000000E+00 -0.69704469294E+03  0.69704469294E+03  0.00000000000E+00 0. -1.
         23    2    1    2    0    0 -0.27063668523E+02 -0.37212854623E+02  0.14667890779E+03  0.18255688197E+03  0.98463569205E+02 0.  0.
         23    2    1    2    0    0  0.43742167162E+02  0.79515954769E+02 -0.31144184038E+03  0.33751733853E+03  0.93197476465E+02 0.  0.
        -11    1    3    3    0    0  0.37317313336E+02 -0.16454748462E+02  0.61319758678E+02  0.73644099736E+02  0.00000000000E+00 0.  1.
         11    1    3    3    0    0 -0.64380981859E+02 -0.20758106161E+02  0.85359149111E+02  0.10891278223E+03  0.00000000000E+00 0. -1.
        -13    1    4    4    0    0  0.68430921949E+02  0.79622188722E+02 -0.24104536981E+03  0.26291701033E+03  0.00000000000E+00 0. -1.
         13    1    4    4    0    0 -0.24688754788E+02 -0.10623395290E+00 -0.70396470571E+02  0.74600328199E+02  0.00000000000E+00 0.  1.
          3    1    1    2  501    0 -0.16678498639E+02 -0.42303100146E+02 -0.35316843709E+03  0.35608379570E+03  0.00000000000E+00 0. -1.
<scales pt_clust_5="13000.00000" pt_clust_6="13000.00000" pt_clust_7="13000.00000" pt_clust_8="13000.00000" pt_clust_9="45.47224"></scales>
<clustering>
<clus scale="   45.472">  2  9  1 -1</clus>
<clus scale="   93.197">  7  8 -1 -1</clus>
<clus scale="   98.464">  5  6 -1 -1</clus>
<clus scale="  104.981">  2  7  1 -1</clus>
<clus scale="   45.472">  2  5  1 -1</clus>
</clustering>
</event>
<event>
 9    1  0.1610296E-005  0.9900814E+02  0.7546771E-02  0.1291253E+00
          4   -1    0    0  502    0 -0.00000000000E+00  0.00000000000E+00  0.39080576392E+03  0.39080576392E+03  0.00000000000E+00 0. -1.
         21   -1    0    0  501  502  0.00000000000E+00 -0.00000000000E+00 -0.10002265205E+03  0.10002265205E+03  0.00000000000E+00 0. -1.
         23    2    1    2    0    0  0.38912376114E+01  0.38677392205E+02  0.28743448585E+03  0.30407338467E+03  0.91274077446E+02 0.  0.
         23    2    1    2    0    0 -0.33813718517E+02 -0.30315906498E+02  0.70881584143E+02  0.11241816467E+03  0.74506530117E+02 0.  0.
        -11    1    3    3    0    0 -0.13059855493E+01  0.66452952905E+02  0.15486201880E+03  0.16852283351E+03  0.00000000000E+00 0. -1.
         11    1    3    3    0    0  0.51972231607E+01 -0.27775560700E+02  0.13257246705E+03  0.13555055116E+03  0.00000000000E+00 0.  1.
        -13    1    4    4    0    0 -0.18548084925E+02 -0.44729723938E+02  0.76632643672E+02  0.90649554518E+02  0.00000000000E+00 0. -1.
         13    1    4    4    0    0 -0.15265633592E+02  0.14413817441E+02 -0.57510595298E+01  0.21768610151E+02  0.00000000000E+00 0.  1.
          4    1    1    2  501    0  0.29922480906E+02 -0.83614857068E+01 -0.67532958119E+02  0.74336866622E+02  0.00000000000E+00 0. -1.
<scales pt_clust_5="13000.00000" pt_clust_6="13000.00000" pt_clust_7="13000.00000" pt_clust_8="13000.00000" pt_clust_9="31.06878"></scales>
<clustering>
<clus scale="   31.069">  2  9  1 -1</clus>
<clus scale="   74.507">  7  8 -1 -1</clus>
<clus scale="   83.803">  2  7  1 -1</clus>
<clus scale="   91.274">  5  6 -1 -1</clus>
<clus scale="   31.069">  2  5  1 -1</clus>
</clustering>
</event>
<event>
 9    1  0.1610296E-005  0.1298049E+03  0.7546771E-02  0.1228442E+00
         21   -1    0    0  501  502  0.00000000000E+00  0.00000000000E+00  0.66699712649E+02  0.66699712649E+02  0.00000000000E+00 0. -1.
          1   -1    0    0  502    0 -0.00000000000E+00 -0.00000000000E+00 -0.44053765554E+03  0.44053765554E+03  0.00000000000E+00 0. -1.
         23    2    1    2    0    0  0.71810425735E+02 -0.68934931442E+02 -0.24070661471E+03  0.27511370482E+03  0.88538772310E+02 0.  0.
         23    2    1    2    0    0 -0.27454165041E+02  0.84040719195E+02 -0.13482180911E+03  0.18523528087E+03  0.91206443893E+02 0.  0.
        -13    1    3    3    0    0 -0.14847737706E+02 -0.26445283367E+02 -0.26926065576E+02  0.40556396965E+02  0.00000000000E+00 0.  1.
         13    1    3    3    0    0  0.86658163441E+02 -0.42489648075E+02 -0.21378054913E+03  0.23455730786E+03  0.00000000000E+00 0. -1.
        -13    1    4    4    0    0 -0.56231175769E+02  0.80190588024E+02 -0.10178796550E+03  0.14125602804E+03  0.00000000000E+00 0.  1.
         13    1    4    4    0    0  0.28777010728E+02  0.38501311712E+01 -0.33033843606E+02  0.43979252834E+02  0.00000000000E+00 0. -1.
          1    1    1    2  501    0 -0.44356260695E+02 -0.15105787753E+02  0.16904809281E+01  0.46888382487E+02  0.00000000000E+00 0. -1.
<scales pt_clust_5="13000.00000" pt_clust_6="13000.00000" pt_clust_7="13000.00000" pt_clust_8="13000.00000" pt_clust_9="46.85790"></scales>
<clustering>
<clus scale="   46.858">  1  9  2 -1</clus>
<clus scale="   88.539">  5  6 -1 -1</clus>
<clus scale="   91.206">  7  8 -1 -1</clus>
<clus scale="  127.945">  2  5  1 -1</clus>
<clus scale="   46.858">  1  5  2 -1</clus>
</clustering>
</event>
<event>
 9    1  0.1610296E-005  0.9622789E+02  0.7546771E-02  0.1291334E+00
          1   -1    0    0  502    0 -0.00000000000E+00  0.00000000000E+00  0.57438625171E+02  0.57438625171E+02  0.00000000000E+00 0. -1.
         21   -1    0    0  501  502  0.00000000000E+00 -0.00000000000E+00 -0.48769427007E+03  0.48769427007E+03  0.00000000000E+00 0. -1.
         23    2    1    2    0    0  0.25948796172E+02 -0.24992299623E+02 -0.59011477545E+02  0.11393664335E+03  0.90560748416E+02 0.  0.
         23    2    1    2    0    0  0.37727998277E+02 -0.84010503618E+01 -0.78239749245E+02  0.12949865659E+03  0.95678964231E+02 0.  0.
        -11    1    4    4    0    0  0.65225719181E+02 -0.21930193622E+02 -0.69097825594E+02  0.97518394863E+02  0.00000000000E+00 0. -1.
         11    1    4    4    0    0 -0.27497720904E+02  0.13529143260E+02 -0.91419236512E+01  0.31980261729E+02  0.00000000000E+00 0.  1.
        -11    1    3    3    0    0  0.55783443840E+02  0.39052117703E+01 -0.33107536130E+02  0.64985784863E+02  0.00000000000E+00 0. -1.
         11    1    3    3    0    0 -0.29834647668E+02 -0.28897511394E+02 -0.25903941415E+02  0.48950858492E+02  0.00000000000E+00 0.  1.
          1    1    1    2  501    0 -0.63676794449E+02  0.33393349985E+02 -0.29300441811E+03  0.30169759530E+03  0.00000000000E+00 0. -1.
<scales pt_clust_5="13000.00000" pt_clust_6="13000.00000" pt_clust_7="13000.00000" pt_clust_8="13000.00000" pt_clust_9="71.90167"></scales>
<clustering>
<clus scale="   71.902">  2  9  1 -1</clus>
<clus scale="   90.561">  7  8 -1 -1</clus>
<clus scale="   91.141">  1  7  2 -1</clus>
<clus scale="   95.679">  5  6 -1 -1</clus>
<clus scale="   71.902">  2  5  1 -1</clus>
</clustering>
</event>
<event>
 9    1  0.1610296E-005  0.9541744E+02  0.7546771E-02  0.1290858E+00
         -1   -1    0    0    0  501 -0.00000000000E+00  0.00000000000E+00  0.18281701698E+03  0.18281701698E+03  0.00000000000E+00 0.  1.
         21   -1    0    0  501  502  0.00000000000E+00 -0.00000000000E+00 -0.26435512406E+03  0.26435512406E+03  0.00000000000E+00 0.  1.
         23    2    1    2    0    0  0.27960501962E+02 -0.56160551180E+01  0.13732061190E+03  0.16721709160E+03  0.91056441418E+02 0.  0.
         23    2    1    2    0    0 -0.16436978164E+02  0.43362595599E+02 -0.62988657772E+02  0.11916615399E+03  0.89902793623E+02 0.  0.
        -11    1    3    3    0    0  0.61009470465E+02  0.15439808227E+01  0.96896471097E+02  0.11451404051E+03  0.00000000000E+00 0.  1.
         11    1    3    3    0    0 -0.33048968503E+02 -0.71600359408E+01  0.40424140805E+02  0.52703051085E+02  0.00000000000E+00 0. -1.
        -13    1    4    4    0    0  0.24416459748E+02  0.53079304798E+02 -0.29477635448E+02  0.65440867171E+02  0.00000000000E+00 0.  1.
         13    1    4    4    0    0 -0.40853437912E+02 -0.97167091987E+01 -0.33511022324E+02  0.53725286822E+02  0.00000000000E+00 0. -1.
         -1    1    1    2    0  502 -0.11523523798E+02 -0.37746540481E+02 -0.15587006121E+03  0.16078889545E+03  0.00000000000E+00 0.  1.
<scales pt_clust_5="13000.00000" pt_clust_6="13000.00000" pt_clust_7="13000.00000" pt_clust_8="13000.00000" pt_clust_9="39.46635"></scales>
<clustering>
<clus scale="   39.466">  2  9  1 -1</clus>
<clus scale="   89.903">  7  8 -1 -1</clus>
<clus scale="   91.056">  5  6 -1 -1</clus>
<clus scale="   94.317">  2  7  1 -1</clus>
<clus scale="   39.466">  2  5  1 -1</clus>
</clustering>
</event>
<event>
 9    1  0.1610296E-005  0.9374093E+02  0.7546771E-02  0.1294604E+00
         21   -1    0    0  501  502  0.00000000000E+00  0.00000000000E+00  0.21356083657E+03  0.21356083657E+03  0.00000000000E+00 0. -1.
          1   -1    0    0  502    0 -0.00000000000E+00 -0.00000000000E+00 -0.23411419843E+03  0.23411419843E+03  0.00000000000E+00 0. -1.
         23    2    1    2    0    0 -0.27018049574E+02  0.10043288189E+02 -0.15970714327E+03  0.18529016950E+03  0.89416064892E+02 0.  0.
         23    2    1    2    0    0  0.32817422224E+02  0.61022457546E+02  0.73682637852E+01  0.11254696778E+03  0.88384416721E+02 0.  0.
        -11    1    4    4    0    0  0.45690900681E+02 -0.37414150155E+01 -0.18192657213E+01  0.45879911935E+02  0.00000000000E+00 0.  1.
         11    1    4    4    0    0 -0.12873478458E+02  0.64763872561E+02  0.91875295065E+01  0.66667055846E+02  0.00000000000E+00 0. -1.
        -13    1    3    3    0    0  0.27314797274E+02 -0.79410438973E+00 -0.16943107012E+02  0.32152723479E+02  0.00000000000E+00 0.  1.
         13    1    3    3    0    0 -0.54332846848E+02  0.10837392578E+02 -0.14276403626E+03  0.15313744602E+03  0.00000000000E+00 0. -1.
          1    1    1    2  501    0 -0.57993726496E+01 -0.71065745734E+02  0.13178551762E+03  0.14983789772E+03  0.00000000000E+00 0. -1.
<scales pt_clust_5="13000.00000" pt_clust_6="13000.00000" pt_clust_7="13000.00000" pt_clust_8="13000.00000" pt_clust_9="71.30198"></scales>
<clustering>
<clus scale="   71.302">  1  9  2 -1</clus>
<clus scale="   88.384">  5  6 -1 -1</clus>
<clus scale="   89.416">  7  8 -1 -1</clus>
<clus scale="   92.757">  1  5  2 -1</clus>
<clus scale="   71.302">  1  5  2 -1</clus>
</clustering>
</event>
<event>
 9    1  0.1610296E-005  0.1516484E+03  0.7546771E-02  0.1198823E+00
          4   -1    0    0  502    0 -0.00000000000E+00  0.00000000000E+00  0.86467927562E+02  0.86467927562E+02  0.00000000000E+00 0. -1.
         21   -1    0    0  501  502  0.00000000000E+00 -0.00000000000E+00 -0.53006077526E+03  0.53006077526E+03  0.00000000000E+00 0.  1.
         23    2    1    2    0    0  0.12068152557E+03  0.13647397588E+02 -0.42178301591E+02  0.15696744638E+03  0.90052695806E+02 0.  0.
         23    2    1    2    0    0 -0.11989280070E+03  0.40230956005E+02 -0.35691325927E+03  0.38967661147E+03  0.92021592050E+02 0.  0.
        -11    1    4    4    0    0 -0.87809350473E+02  0.64452306290E-02 -0.12914742903E+03  0.15617150988E+03  0.00000000000E+00 0. -1.
         11    1    4    4    0    0 -0.32083450227E+02  0.40224510774E+02 -0.22776583024E+03  0.23350510159E+03  0.00000000000E+00 0.  1.
        -13    1    3    3    0    0  0.81194506237E+02  0.44818027261E+02 -0.51079296671E+02  0.10587869455E+03  0.00000000000E+00 0.  1.
         13    1    3    3    0    0  0.39487019338E+02 -0.31170629673E+02  0.89009950798E+01  0.51088751833E+02  0.00000000000E+00 0. -1.
          4    1    1    2  501    0 -0.78872487469E+00 -0.53878353592E+02 -0.44501286838E+02  0.69884644973E+02  0.00000000000E+00 0. -1.
<scales pt_clust_5="13000.00000" pt_clust_6="13000.00000" pt_clust_7="13000.00000" pt_clust_8="13000.00000" pt_clust_9="53.88415"></scales>
<clustering>
<clus scale="   53.884">  2  9  1 -1</clus>
<clus scale="   90.053">  7  8 -1 -1</clus>
<clus scale="   92.022">  5  6 -1 -1</clus>
<clus scale="  150.462">  1  7  2 -1</clus>
<clus scale="   53.884">  2  5  1 -1</clus>
</clustering>
</event>
<event>
 9    1  0.1610296E-005  0.1467789E+03  0.7546771E-02  0.1204746E+00
         21   -1    0    0  501  502  0.00000000000E+00  0.00000000000E+00  0.93641450126E+03  0.93641450126E+03  0.00000000000E+00 0. -1.
         -1   -1    0    0    0  501 -0.00000000000E+00 -0.00000000000E+00 -0.48620761650E+02  0.48620761650E+02  0.00000000000E+00 0.  1.
         23    2    1    2    0    0 -0.59639352578E-01 -0.12106913521E+03  0.10819375074E+03  0.18649617583E+03  0.91745282396E+02 0.  0.
         23    2    1    2    0    0  0.22319078271E+02  0.85126085240E+02  0.65256889138E+03  0.66465747822E+03  0.90436794004E+02 0.  0.
        -13    1    3    3    0    0 -0.40172997515E+02 -0.26135664026E+02  0.44116584660E+02  0.65139970106E+02  0.00000000000E+00 0. -1.
         13    1    3    3    0    0  0.40113358163E+02 -0.94933471187E+02  0.64077166081E+02  0.12135620572E+03  0.00000000000E+00 0.  1.
        -13    1    4    4    0    0  0.35504523239E+02 -0.30852717020E+01  0.14526995552E+03  0.14957757201E+03  0.00000000000E+00 0.  1.
         13    1    4    4    0    0 -0.13185444969E+02  0.88211356942E+02  0.50729893586E+03  0.51507990621E+03  0.00000000000E+00 0. -1.
         -1    1    1    2    0  502 -0.22259438918E+02  0.35943049974E+02  0.12703109748E+03  0.13388160886E+03  0.00000000000E+00 0.  1.
<scales pt_clust_5="13000.00000" pt_clust_6="13000.00000" pt_clust_7="13000.00000" pt_clust_8="13000.00000" pt_clust_9="42.27748"></scales>
<clustering>
<clus scale="   42.277">  1  9  2 -1</clus>
<clus scale="   90.437">  7  8 -1 -1</clus>
<clus scale="   91.745">  5  6 -1 -1</clus>
<clus scale="  145.965">  1  7  2 -1</clus>
<clus scale="   42.277">  1  5  2 -1</clus>
</clustering>
</event>
<event>
 9    1  0.1610296E-005  0.1971808E+03  0.7546771E-02  0.1170305E+00
         21   -1    0    0  501  502  0.00000000000E+00  0.00000000000E+00  0.13106882438E+03  0.13106882438E+03  0.00000000000E+00 0.  1.
         -3   -1    0    0    0  501 -0.00000000000E+00 -0.00000000000E+00 -0.51438173821E+03  0.51438173821E+03  0.00000000000E+00 0.  1.
         23    2    1    2    0    0 -0.28898986070E+02 -0.87278969207E+02 -0.11854708689E+03  0.17541879535E+03  0.90915191747E+02 0.  0.
         23    2    1    2    0    0 -0.37784849678E+02 -0.11486894265E+03 -0.19508415743E+03  0.24605398423E+03  0.88668854861E+02 0.  0.
        -11    1    3    3    0    0 -0.61512661288E+02 -0.66694501320E+02 -0.83713386094E+02  0.12344996969E+03  0.00000000000E+00 0.  1.
         11    1    3    3    0    0  0.32613675218E+02 -0.20584467887E+02 -0.34833700798E+02  0.51968825662E+02  0.00000000000E+00 0. -1.
        -11    1    4    4    0    0 -0.21433982806E+02  0.92565611715E+01 -0.44235272397E+02  0.50018585223E+02  0.00000000000E+00 0. -1.
         11    1    4    4    0    0 -0.16350866871E+02 -0.12412550382E+03 -0.15084888504E+03  0.19603539901E+03  0.00000000000E+00 0.  1.
         -3    1    1    2    0  502  0.66683835748E+02  0.20214791186E+03 -0.69681669507E+02  0.22397778301E+03  0.00000000000E+00 0.  1.
<scales pt_clust_5="13000.00000" pt_clust_6="13000.00000" pt_clust_7="13000.00000" pt_clust_8="13000.00000" pt_clust_9="176.11959"></scales>
<clustering>
<clus scale="   88.669">  7  8 -1 -1</clus>
<clus scale="   90.915">  5  6 -1 -1</clus>
<clus scale="  129.299">  2  5  1 -1</clus>
<clus scale="  176.120">  1  9  2 -1</clus>
<clus scale="  176.120">  1  5  2 -1</clus>
</clustering>
</event>
<event>
 9    1  0.1610296E-005  0.1403401E+03  0.7546771E-02  0.1232551E+00
          3   -1    0    0  502    0 -0.00000000000E+00  0.00000000000E+00  0.57449594492E+03  0.57449594492E+03  0.00000000000E+00 0. -1.
         21   -1    0    0  501  502  0.00000000000E+00 -0.00000000000E+00 -0.90329296534E+02  0.90329296534E+02  0.00000000000E+00 0. -1.
         23    2    1    2    0    0  0.73965875551E+01 -0.37772655082E+02 -0.12584229012E+02  0.93858692118E+02  0.84673539472E+02 0.  0.
         23    2    1    2    0    0 -0.71143831591E+02 -0.51166372292E+02  0.41479162364E+03  0.43425085533E+03  0.94033355154E+02 0.  0.
        -11    1    3    3    0    0 -0.21607952768E+02 -0.47880370286E+02 -0.27962070004E+02  0.59508913958E+02  0.00000000000E+00 0. -1.
         11    1    3    3    0    0  0.29004540323E+02  0.10107715204E+02  0.15377840992E+02  0.34349778159E+02  0.00000000000E+00 0.  1.
        -13    1    4    4    0    0 -0.84378709997E+02 -0.99521377482E+01  0.26079502724E+03  0.27428608783E+03  0.00000000000E+00 0. -1.
         13    1    4    4    0    0  0.13234878406E+02 -0.41214234544E+02  0.15399659640E+03  0.15996476749E+03  0.00000000000E+00 0.  1.
          3    1    1    2  501    0  0.63747244036E+02  0.88939027374E+02  0.81959253760E+02  0.13671569401E+03  0.00000000000E+00 0. -1.
<scales pt_clust_5="13000.00000" pt_clust_6="13000.00000" pt_clust_7="13000.00000" pt_clust_8="13000.00000" pt_clust_9="104.17804"></scales>
<clustering>
<clus scale="   84.674">  5  6 -1 -1</clus>
<clus scale="   93.011">  1  5  2 -1</clus>
<clus scale="   94.033">  7  8 -1 -1</clus>
<clus scale="  104.178">  2  9  1 -1</clus>
<clus scale="  104.178">  2  5  1 -1</clus>
</clustering>
</event>
<event>
 9    1  0.1610296E-005  0.1582969E+03  0.7546771E-02  0.1191889E+00
          1   -1    0    0  502    0 -0.00000000000E+00  0.00000000000E+00  0.51126733809E+03  0.51126733809E+03  0.00000000000E+00 0. -1.
         21   -1    0    0  501  502  0.00000000000E+00 -0.00000000000E+00 -0.84656031251E+02  0.84656031251E+02  0.00000000000E+00 0. -1.
         23    2    1    2    0    0  0.10502414398E+03 -0.64928039890E+02  0.22858576914E+03  0.27748252878E+03  0.97464756392E+02 0.  0.
         23    2    1    2    0    0 -0.13937501487E+03 -0.37821554455E+01  0.16716444979E+03  0.23565509287E+03  0.90275523006E+02 0.  0.
        -11    1    4    4    0    0 -0.10916529322E+03  0.16890291159E+02  0.67438158309E+02  0.12942275061E+03  0.00000000000E+00 0. -1.
         11    1    4    4    0    0 -0.30209721652E+02 -0.20672446604E+02  0.99726291481E+02  0.10623234227E+03  0.00000000000E+00 0.  1.
        -13    1    3    3    0    0  0.84234641179E+02 -0.90797860178E+02  0.18662248805E+03  0.22398142609E+03  0.00000000000E+00 0. -1.
         13    1    3    3    0    0  0.20789502803E+02  0.25869820289E+02  0.41963281096E+02  0.53501102689E+02  0.00000000000E+00 0.  1.
          1    1    1    2  501    0  0.34350870887E+02  0.68710195335E+02  0.30861087901E+02  0.82785747687E+02  0.00000000000E+00 0. -1.
<scales pt_clust_5="13000.00000" pt_clust_6="13000.00000" pt_clust_7="13000.00000" pt_clust_8="13000.00000" pt_clust_9="76.81844"></scales>
<clustering>
<clus scale="   76.818">  2  9  1 -1</clus>
<clus scale="   90.276">  5  6 -1 -1</clus>
<clus scale="   97.465">  7  8 -1 -1</clus>
<clus scale="  153.975">  2  5  1 -1</clus>
<clus scale="   76.818">  2  5  1 -1</clus>
</clustering>
</event>
<event>
 9    1  0.1610296E-005  0.1310348E+03  0.7546771E-02  0.1227250E+00
         21   -1    0    0  501  502  0.00000000000E+00  0.00000000000E+00  0.67694944490E+02  0.67694944490E+02  0.00000000000E+00 0.  1.
          2   -1    0    0  502    0 -0.00000000000E+00 -0.00000000000E+00 -0.81950034189E+03  0.81950034189E+03  0.00000000000E+00 0. -1.
         23    2    1    2    0    0 -0.86209509618E+02  0.42855606806E+02 -0.59175169354E+03  0.60633744255E+03  0.90588878172E+02 0.  0.
         23    2    1    2    0    0  0.81731748960E+02  0.51695249312E+02 -0.88459407887E+02  0.16217482925E+03  0.95515081584E+02 0.  0.
        -13    1    3    3    0    0 -0.73204768983E+02  0.67049427015E+02 -0.52232468642E+03  0.53167437582E+03  0.00000000000E+00 0. -1.
         13    1    3    3    0    0 -0.13004740635E+02 -0.24193820209E+02 -0.69427007117E+02  0.74663066723E+02  0.00000000000E+00 0.  1.
        -13    1    4    4    0    0  0.54948547603E+02 -0.12164525731E+02 -0.93706178126E+01  0.57053720721E+02  0.00000000000E+00 0.  1.
         13    1    4    4    0    0  0.26783201357E+02  0.63859775043E+02 -0.79088790074E+02  0.10512110853E+03  0.00000000000E+00 0. -1.
          2    1    1    2  501    0  0.44777606575E+01 -0.94550856118E+02 -0.71594295976E+02  0.11868301458E+03  0.00000000000E+00 0. -1.
<scales pt_clust_5="13000.00000" pt_clust_6="13000.00000" pt_clust_7="13000.00000" pt_clust_8="13000.00000" pt_clust_9="94.65683"></scales>
<clustering>
<clus scale="   90.589">  5  6 -1 -1</clus>
<clus scale="   94.657">  1  9  2 -1</clus>
<clus scale="   95.515">  7  8 -1 -1</clus>
<clus scale="  127.489">  2  5  1 -1</clus>
<clus scale="   94.657">  1  5  2 -1</clus>
</clustering>
</event>
<event>
 9    1  0.1610296E-005  0.1463278E+03  0.7546771E-02  0.1205309E+00
         21   -1    0    0  501  502  0.00000000000E+00  0.00000000000E+00  0.12001614985E+03  0.12001614985E+03  0.00000000000E+00 0.  1.
          1   -1    0    0  502    0 -0.00000000000E+00 -0.00000000000E+00 -0.49532064914E+03  0.49532064914E+03  0.00000000000E+00 0. -1.
         23    2    1    2    0    0 -0.77399223314E+02 -0.66188600492E+02 -0.26876830046E+03  0.30126530907E+03  0.90292948287E+02 0.  0.
         23    2    1    2    0    0  0.69240557292E+02  0.13729369912E+03 -0.14723261758E+03  0.23173864484E+03  0.91550757722E+02 0.  0.
        -13    1    4    4    0    0 -0.15859604319E+02  0.63027578566E+02 -0.65872379700E+02  0.92537414684E+02  0.00000000000E+00 0. -1.
         13    1    4    4    0    0  0.85100161611E+02  0.74266120557E+02 -0.81360237875E+02  0.13920123015E+03  0.00000000000E+00 0.  1.
        -13    1    3    3    0    0 -0.97906673100E+02 -0.50290532944E+02 -0.22166131502E+03  0.24748453066E+03  0.00000000000E+00 0. -1.
         13    1    3    3    0    0  0.20507449786E+02 -0.15898067548E+02 -0.47106985442E+02  0.53780778405E+02  0.00000000000E+00 0.  1.
          1    1    1    2  501    0  0.81586660226E+01 -0.71105098631E+02  0.40696418737E+02  0.82332845090E+02  0.00000000000E+00 0. -1.
<scales pt_clust_5="13000.00000" pt_clust_6="13000.00000" pt_clust_7="13000.00000" pt_clust_8="13000.00000" pt_clust_9="71.57163"></scales>
<clustering>
<clus scale="   71.572">  1  9  2 -1</clus>
<clus scale="   90.293">  7  8 -1 -1</clus>
<clus scale="   91.551">  5  6 -1 -1</clus>
<clus scale="  145.544">  2  7  1 -1</clus>
<clus scale="   71.572">  1  5  2 -1</clus>
</clustering>
</event>
<event>
 9    1  0.1610296E-005  0.9298261E+02  0.7546771E-02  0.1296592E+00
          3   -1    0    0  502    0 -0.00000000000E+00  0.00000000000E+00  0.37360000891E+03  0.37360000891E+03  0.00000000000E+00 0. -1.
         21   -1    0    0  501  502  0.00000000000E+00 -0.00000000000E+00 -0.10653007113E+03  0.10653007113E+03  0.00000000000E+00 0. -1.
         23    2    1    2    0    0  0.76939061309E+01  0.17236096109E+01  0.21055433279E+03  0.22907553534E+03  0.89890526833E+02 0.  0.
         23    2    1    2    0    0 -0.33705002819E+01  0.55725271998E+02  0.12302999400E+03  0.16305892105E+03  0.91297130831E+02 0.  0.
        -11    1    4    4    0    0  0.36077106426E+01 -0.22671628698E+02  0.93422002711E+01  0.24784975889E+02  0.00000000000E+00 0.  1.
         11    1    4    4    0    0 -0.69782109245E+01  0.78396900696E+02  0.11368779373E+03  0.13827394516E+03  0.00000000000E+00 0. -1.
        -13    1    3    3    0    0 -0.33888530154E+02  0.16555285446E+02  0.14652488847E+03  0.15130119924E+03  0.00000000000E+00 0.  1.
         13    1    3    3    0    0  0.41582436284E+02 -0.14831675835E+02  0.64029444323E+02  0.77774336100E+02  0.00000000000E+00 0. -1.
          3    1    1    2  501    0 -0.43234058491E+01 -0.57448881609E+02 -0.66514389013E+02  0.87995623652E+02  0.00000000000E+00 0. -1.
<scales pt_clust_5="13000.00000" pt_clust_6="13000.00000" pt_clust_7="13000.00000" pt_clust_8="13000.00000" pt_clust_9="57.61133"></scales>
<clustering>
<clus scale="   57.611">  2  9  1 -1</clus>
<clus scale="   89.891">  7  8 -1 -1</clus>
<clus scale="   91.297">  5  6 -1 -1</clus>
<clus scale="   91.602">  1  7  2 -1</clus>
<clus scale="   57.611">  2  5  1 -1</clus>
</clustering>
</event>
<event>
 9    1  0.1610296E-005  0.2820722E+03  0.7546771E-02  0.1094570E+00
          2   -1    0    0  502    0 -0.00000000000E+00  0.00000000000E+00  0.10463332513E+04  0.10463332513E+04  0.00000000000E+00 0. -1.
         21   -1    0    0  501  502  0.00000000000E+00 -0.00000000000E+00 -0.10954719697E+03  0.10954719697E+03  0.00000000000E+00 0.  1.
         23    2    1    2    0    0 -0.18514156910E+01  0.26476947513E+03  0.71066298850E+03  0.76377132521E+03  0.90545299707E+02 0.  0.
         23    2    1    2    0    0 -0.18418564019E+02 -0.27324091270E+03  0.23112645417E+03  0.36957756242E+03  0.90378631065E+02 0.  0.
        -13    1    4    4    0    0 -0.29228389332E+02 -0.39487149096E+02  0.15873075811E+02  0.51628366450E+02  0.00000000000E+00 0.  1.
         13    1    4    4    0    0  0.10809825312E+02 -0.23375376361E+03  0.21525337836E+03  0.31794919597E+03  0.00000000000E+00 0. -1.
        -13    1    3    3    0    0  0.28582392026E+02  0.60064711346E+02  0.25105854797E+03  0.25972122977E+03  0.00000000000E+00 0.  1.
         13    1    3    3    0    0 -0.30433807717E+02  0.20470476378E+03  0.45960444053E+03  0.50405009545E+03  0.00000000000E+00 0. -1.
          2    1    1    2  501    0  0.20269979710E+02  0.84714375715E+01 -0.50033882899E+01  0.22531560673E+02  0.00000000000E+00 0. -1.
<scales pt_clust_5="13000.00000" pt_clust_6="13000.00000" pt_clust_7="13000.00000" pt_clust_8="13000.00000" pt_clust_9="21.96901"></scales>
<clustering>
<clus scale="   21.969">  2  9  1 -1</clus>
<clus scale="   90.379">  5  6 -1 -1</clus>
<clus scale="   90.545">  7  8 -1 -1</clus>
<clus scale="  282.019">  2  5  1 -1</clus>
<clus scale="   21.969">  2  5  1 -1</clus>
</clustering>
</event>
<event>
 9    1  0.1610296E-005  0.1376733E+03  0.7546771E-02  0.1236355E+00
         21   -1    0    0  501  502  0.00000000000E+00  0.00000000000E+00  0.66897797791E+03  0.66897797791E+03  0.00000000000E+00 0. -1.
          1   -1    0    0  502    0 -0.00000000000E+00 -0.00000000000E+00 -0.18313598483E+03  0.18313598483E+03  0.00000000000E+00 0. -1.
         23    2    1    2    0    0  0.15219818994E+02  0.12771279643E+02 -0.14258405100E+03  0.16921941499E+03  0.88939588136E+02 0.  0.
         23    2    1    2    0    0  0.73902142929E+01 -0.10493694580E+03  0.52070599624E+03  0.53933503977E+03  0.93172811141E+02 0.  0.
        -11    1    4    4    0    0  0.29467407158E+02 -0.72040170734E+02  0.46200526757E+03  0.46851572177E+03  0.00000000000E+00 0. -1.
         11    1    4    4    0    0 -0.22077192865E+02 -0.32896775070E+02  0.58700728673E+02  0.70819317997E+02  0.00000000000E+00 0.  1.
        -13    1    3    3    0    0 -0.21499167159E+02  0.22106861370E+02 -0.11733098454E+02  0.32993834386E+02  0.00000000000E+00 0.  1.
         13    1    3    3    0    0  0.36718986153E+02 -0.93355817270E+01 -0.13085095254E+03  0.13622558061E+03  0.00000000000E+00 0. -1.
          1    1    1    2  501    0 -0.22610033287E+02  0.92165666161E+02  0.10772004784E+03  0.14355950798E+03  0.00000000000E+00 0. -1.
<scales pt_clust_5="13000.00000" pt_clust_6="13000.00000" pt_clust_7="13000.00000" pt_clust_8="13000.00000" pt_clust_9="101.35472"></scales>
<clustering>
<clus scale="   88.940">  7  8 -1 -1</clus>
<clus scale="   91.132">  2  7  1 -1</clus>
<clus scale="   93.173">  5  6 -1 -1</clus>
<clus scale="  101.355">  1  9  2 -1</clus>
<clus scale="  101.355">  1  5  2 -1</clus>
</clustering>
</event>
<event>
 9    1  0.1610296E-005  0.1340843E+03  0.7546771E-02  0.1222215E+00
          2   -1    0    0  502    0 -0.00000000000E+00  0.00000000000E+00  0.22778856798E+03  0.22778856798E+03  0.00000000000E+00 0. -1.
         21   -1    0    0  501  502  0.00000000000E+00 -0.00000000000E+00 -0.21607925304E+03  0.21607925304E+03  0.00000000000E+00 0. -1.
         23    2    1    2    0    0 -0.68820609508E+02 -0.77987569543E+02  0.50562648800E+02  0.14773645254E+03  0.91930085709E+02 0.  0.
         23    2    1    2    0    0 -0.54056856310E+02  0.12383770834E+03 -0.12208236017E+02  0.16229912995E+03  0.89073255448E+02 0.  0.
        -13    1    3    3    0    0 -0.40767853459E+02 -0.85489764257E+02  0.65427627775E+02  0.11511425691E+03  0.00000000000E+00 0.  1.
         13    1    3    3    0    0 -0.28052756049E+02  0.75021947135E+01 -0.14864978975E+02  0.32622195625E+02  0.00000000000E+00 0. -1.
        -13    1    4    4    0    0 -0.28153295736E+02 -0.30920412984E+01  0.11559839339E+02  0.30590826497E+02  0.00000000000E+00 0.  1.
         13    1    4    4    0    0 -0.25903560573E+02  0.12692974963E+03 -0.23768075357E+02  0.13170830345E+03  0.00000000000E+00 0. -1.
          2    1    1    2  501    0  0.12287746582E+03 -0.45850138792E+02 -0.26645097845E+02  0.13383223854E+03  0.00000000000E+00 0. -1.
<scales pt_clust_5="13000.00000" pt_clust_6="13000.00000" pt_clust_7="13000.00000" pt_clust_8="13000.00000" pt_clust_9="131.15299"></scales>
<clustering>
<clus scale="   89.073">  7  8 -1 -1</clus>
<clus scale="   91.930">  5  6 -1 -1</clus>
<clus scale="  131.153">  2  9  1 -1</clus>
<clus scale="  132.142">  2  7  1 -1</clus>
<clus scale="  131.153">  2  5  1 -1</clus>
</clustering>
</event>
<event>
 9    1  0.1610296E-005  0.9512102E+02  0.7546771E-02  0.1294802E+00
         21   -1    0    0  501  502  0.00000000000E+00  0.00000000000E+00  0.10646739085E+03  0.10646739085E+03  0.00000000000E+00 0.  1.
          3   -1    0    0  502    0 -0.00000000000E+00 -0.00000000000E+00 -0.18574133446E+03  0.18574133446E+03  0.00000000000E+00 0. -1.
         23    2    1    2    0    0  0.23380506231E+02  0.99840435076E+01 -0.54113963514E+02  0.10427948785E+03  0.85437470367E+02 0.  0.
         23    2    1    2    0    0 -0.68486024563E+01  0.49282464087E+02 -0.56229433063E+02  0.11900076966E+03  0.92324262336E+02 0.  0.
        -11    1    3    3    0    0  0.23858224623E+02  0.45489059644E+02 -0.20254174041E+02  0.55215043200E+02  0.00000000000E+00 0.  1.
         11    1    3    3    0    0 -0.47771839167E+00 -0.35505016136E+02 -0.33859789472E+02  0.49064444650E+02  0.00000000000E+00 0. -1.
        -13    1    4    4    0    0 -0.49577579209E+02  0.27447072771E+02 -0.26554093412E+02  0.62581131668E+02  0.00000000000E+00 0.  1.
         13    1    4    4    0    0  0.42728976752E+02  0.21835391316E+02 -0.29675339651E+02  0.56419637996E+02  0.00000000000E+00 0. -1.
          3    1    1    2  501    0 -0.16531903775E+02 -0.59266507595E+02  0.31069452963E+02  0.68928467793E+02  0.00000000000E+00 0. -1.
<scales pt_clust_5="13000.00000" pt_clust_6="13000.00000" pt_clust_7="13000.00000" pt_clust_8="13000.00000" pt_clust_9="61.52904"></scales>
<clustering>
<clus scale="   61.529">  1  9  2 -1</clus>
<clus scale="   85.437">  5  6 -1 -1</clus>
<clus scale="   88.452">  2  5  1 -1</clus>
<clus scale="   92.324">  7  8 -1 -1</clus>
<clus scale="   61.529">  1  5  2 -1</clus>
</clustering>
</event>
<event>
 9    1  0.1610296E-005  0.1257770E+03  0.7546771E-02  0.1233879E+00
          3   -1    0    0  502    0 -0.00000000000E+00  0.00000000000E+00  0.13303044345E+03  0.13303044345E+03  0.00000000000E+00 0. -1.
         21   -1    0    0  501  502  0.00000000000E+00 -0.00000000000E+00 -0.23160728859E+03  0.23160728859E+03  0.00000000000E+00 0.  1.
         23    2    1    2    0    0  0.67290431440E+02 -0.78847490497E+02  0.35706574069E+02  0.14267650740E+03  0.91305516878E+02 0.  0.
         23    2    1    2    0    0 -0.16441060139E+02  0.40723330949E+02 -0.11950206960E+03  0.15671094955E+03  0.91372199964E+02 0.  0.
        -11    1    4    4    0    0  0.21404415615E+02  0.66941780197E+01 -0.99550413208E+02  0.10204531247E+03  0.00000000000E+00 0.  1.
         11    1    4    4    0    0 -0.37845475753E+02  0.34029152930E+02 -0.19951656396E+02  0.54665637077E+02  0.00000000000E+00 0. -1.
        -13    1    3    3    0    0  0.53442453820E+01 -0.39332720513E+02  0.53940518514E+02  0.66971661166E+02  0.00000000000E+00 0. -1.
         13    1    3    3    0    0  0.61946186058E+02 -0.39514769984E+02 -0.18233944445E+02  0.75704846239E+02  0.00000000000E+00 0.  1.
          3    1    1    2  501    0 -0.50849371302E+02  0.38124159548E+02 -0.14781349604E+02  0.65250275088E+02  0.00000000000E+00 0. -1.
<scales pt_clust_5="13000.00000" pt_clust_6="13000.00000" pt_clust_7="13000.00000" pt_clust_8="13000.00000" pt_clust_9="63.55403"></scales>
<clustering>
<clus scale="   63.554">  2  9  1 -1</clus>
<clus scale="   91.306">  7  8 -1 -1</clus>
<clus scale="   91.372">  5  6 -1 -1</clus>
<clus scale="  125.729">  1  7  2 -1</clus>
<clus scale="   63.554">  2  5  1 -1</clus>
</clustering>
</event>
<event>
 9    1  0.1610296E-005  0.1065936E+03  0.7546771E-02  0.1267143E+00
         21   -1    0    0  501  502  0.00000000000E+00  0.00000000000E+00  0.88505187931E+02  0.88505187931E+02  0.00000000000E+00 0.  1.
          2   -1    0    0  502    0 -0.00000000000E+00 -0.00000000000E+00 -0.27577245675E+03  0.27577245675E+03  0.00000000000E+00 0. -1.
         23    2    1    2    0    0 -0.24219237003E+02 -0.51167887861E+02 -0.18684858100E+03  0.21556284796E+03  0.91379565615E+02 0.  0.
         23    2    1    2    0    0 -0.21384761436E+00  0.54042720765E+02 -0.30173336305E+02  0.11010677431E+03  0.91062671423E+02 0.  0.
        -11    1    3    3    0    0  0.49666930419E+01 -0.71649997036E+02 -0.12661550641E+03  0.14556742966E+03  0.00000000000E+00 0.  1.
         11    1    3    3    0    0 -0.29185930045E+02  0.20482109175E+02 -0.60233074586E+02  0.69995418300E+02  0.00000000000E+00 0. -1.
        -13    1    4    4    0    0 -0.37588200418E+02  0.48835363509E+02 -0.36824036240E+02  0.71789798612E+02  0.00000000000E+00 0. -1.
         13    1    4    4    0    0  0.37374352803E+02  0.52073572560E+01  0.66506999350E+01  0.38316975699E+02  0.00000000000E+00 0.  1.
          2    1    1    2  501    0  0.24433084617E+02 -0.28748329039E+01  0.29754648481E+02  0.38608022410E+02  0.00000000000E+00 0. -1.
<scales pt_clust_5="13000.00000" pt_clust_6="13000.00000" pt_clust_7="13000.00000" pt_clust_8="13000.00000" pt_clust_9="24.60163"></scales>
<clustering>
<clus scale="   24.602">  1  9  2 -1</clus>
<clus scale="   91.063">  7  8 -1 -1</clus>
<clus scale="   91.380">  5  6 -1 -1</clus>
<clus scale="  106.322">  1  7  2 -1</clus>
<clus scale="   24.602">  1  5  2 -1</clus>
</clustering>
</event>
<event>
 9    1  0.1610296E-005  0.9889657E+02  0.7546771E-02  0.1284068E+00
          2   -1    0    0  502    0 -0.00000000000E+00  0.00000000000E+00  0.78851845359E+03  0.78851845359E+03  0.00000000000E+00 0. -1.
         21   -1    0    0  501  502  0.00000000000E+00 -0.00000000000E+00 -0.26728591897E+02  0.26728591897E+02  0.00000000000E+00 0. -1.
         23    2    1    2    0    0 -0.45430369682E+02  0.13586216212E+02  0.42995612027E+03  0.44279536950E+03  0.94641270802E+02 0.  0.
         23    2    1    2    0    0 -0.13797777582E+02 -0.29251667501E+02  0.26219304120E+03  0.27969820208E+03  0.91868681699E+02 0.  0.
        -11    1    3    3    0    0 -0.71150601095E+02  0.21558831575E+02  0.36472149484E+03  0.37222165447E+03  0.00000000000E+00 0. -1.
         11    1    3    3    0    0  0.25720231413E+02 -0.79726153630E+01  0.65234625422E+02  0.70573715033E+02  0.00000000000E+00 0.  1.
        -13    1    4    4    0    0 -0.39826663192E+02 -0.43173465553E+02  0.11031271914E+03  0.12497602663E+03  0.00000000000E+00 0. -1.
         13    1    4    4    0    0  0.26028885611E+02  0.13921798051E+02  0.15188032206E+03  0.15472217545E+03  0.00000000000E+00 0.  1.
          2    1    1    2  501    0  0.59228147264E+02  0.15665451289E+02  0.69640700224E+02  0.92753473898E+02  0.00000000000E+00 0. -1.
<scales pt_clust_5="13000.00000" pt_clust_6="13000.00000" pt_clust_7="13000.00000" pt_clust_8="13000.00000" pt_clust_9="61.26483"></scales>
<clustering>
<clus scale="   61.265">  2  9  1 -1</clus>
<clus scale="   91.869">  7  8 -1 -1</clus>
<clus scale="   94.641">  5  6 -1 -1</clus>
<clus scale="   96.247">  2  7  1 -1</clus>
<clus scale="   61.265">  2  5  1 -1</clus>
</clustering>
</event>
<event>
 9    1  0.1610296E-005  0.1503976E+03  0.7546771E-02  0.1200321E+00
         21   -1    0    0  501  502  0.00000000000E+00  0.00000000000E+00  0.61935749949E+02  0.61935749949E+02  0.00000000000E+00 0. -1.
          1   -1    0    0  502    0 -0.00000000000E+00 -0.00000000000E+00 -0.79495160209E+03  0.79495160209E+03  0.00000000000E+00 0. -1.
         23    2    1    2    0    0 -0.52639485020E+02 -0.75721060823E+02 -0.14502018125E+03  0.19458585910E+03  0.91259022332E+02 0.  0.
         23    2    1    2    0    0  0.15776012462E+03  0.37625168861E+02 -0.30161749393E+03  0.35487002726E+03  0.93036086269E+02 0.  0.
        -11    1    3    3    0    0 -0.27104156461E+02 -0.13101389007E+02  0.45420771475E+01  0.30445232076E+02  0.00000000000E+00 0.  1.
         11    1    3    3    0    0 -0.25535328559E+02 -0.62619671816E+02 -0.14956225840E+03  0.16414062703E+03  0.00000000000E+00 0. -1.
        -11    1    4    4    0    0  0.17936884873E+02  0.37076098558E+02 -0.11155445220E+03  0.11891494745E+03  0.00000000000E+00 0. -1.
         11    1    4    4    0    0  0.13982323974E+03  0.54907030285E+00 -0.19006304174E+03  0.23595507980E+03  0.00000000000E+00 0.  1.
          1    1    1    2  501    0 -0.10512063960E+03  0.38095891962E+02 -0.28637817695E+03  0.30743146568E+03  0.00000000000E+00 0. -1.
<scales pt_clust_5="13000.00000" pt_clust_6="13000.00000" pt_clust_7="13000.00000" pt_clust_8="13000.00000" pt_clust_9="111.81082"></scales>
<clustering>
<clus scale="   91.259">  5  6 -1 -1</clus>
<clus scale="   93.036">  7  8 -1 -1</clus>
<clus scale="  111.811">  1  9  2 -1</clus>
<clus scale="  149.305">  2  5  1 -1</clus>
<clus scale="  111.811">  1  5  2 -1</clus>
</clustering>
</event>
<event>
 9    1  0.1610296E-005  0.1141628E+03  0.7546771E-02  0.1262215E+00
         21   -1    0    0  501  502  0.00000000000E+00  0.00000000000E+00  0.34144135625E+03  0.34144135625E+03  0.00000000000E+00 0. -1.
          1   -1    0    0  502    0 -0.00000000000E+00 -0.00000000000E+00 -0.10461920241E+03  0.10461920241E+03  0.00000000000E+00 0. -1.
         23    2    1    2    0    0  0.21834600934E+02  0.28392978794E+02 -0.35113972307E+02  0.10172776299E+03  0.88502178890E+02 0.  0.
         23    2    1    2    0    0 -0.41103983020E+02 -0.72770358967E+01  0.60766684184E+02  0.13123721770E+03  0.10857313080E+03 0.  0.
        -11    1    4    4    0    0 -0.74858808024E+01 -0.53780601456E+02  0.47951038481E+02  0.72440966282E+02  0.00000000000E+00 0.  1.
         11    1    4    4    0    0 -0.33618102218E+02  0.46503565560E+02  0.12815645702E+02  0.58796251422E+02  0.00000000000E+00 0. -1.
        -13    1    3    3    0    0  0.30037808167E+02  0.20578923023E+01  0.22676189246E+02  0.37692365261E+02  0.00000000000E+00 0.  1.
         13    1    3    3    0    0 -0.82032072337E+01  0.26335086492E+02 -0.57790161553E+02  0.64035397725E+02  0.00000000000E+00 0. -1.
          1    1    1    2  501    0  0.19269382087E+02 -0.21115942898E+02  0.21116944196E+03  0.21309557797E+03  0.00000000000E+00 0. -1.
<scales pt_clust_5="13000.00000" pt_clust_6="13000.00000" pt_clust_7="13000.00000" pt_clust_8="13000.00000" pt_clust_9="28.58657"></scales>
<clustering>
<clus scale="   28.587">  1  9  2 -1</clus>
<clus scale="   88.502">  7  8 -1 -1</clus>
<clus scale="   95.277">  2  7  1 -1</clus>
<clus scale="  108.573">  5  6 -1 -1</clus>
<clus scale="   28.587">  1  5  2 -1</clus>
</clustering>
</event>
<event>
 9    1  0.1610296E-005  0.1116510E+03  0.7546771E-02  0.1264440E+00
         21   -1    0    0  501  502  0.00000000000E+00  0.00000000000E+00  0.65862871479E+02  0.65862871479E+02  0.00000000000E+00 0. -1.
         -4   -1    0    0    0  501 -0.00000000000E+00 -0.00000000000E+00 -0.28502523131E+03  0.28502523131E+03  0.00000000000E+00 0.  1.
         23    2    1    2    0    0  0.49075122501E+02  0.41609782648E+02 -0.17850927842E+03  0.20440446892E+03  0.75999228778E+02 0.  0.
         23    2    1    2    0    0 -0.52237751364E+02 -0.13414919339E+02 -0.16347336848E+02  0.10912427416E+03  0.93445861660E+02 0.  0.
        -11    1    4    4    0    0 -0.16974850758E+02 -0.32012151875E+02  0.30676146583E+02  0.47475776930E+02  0.00000000000E+00 0.  1.
         11    1    4    4    0    0 -0.35262900606E+02  0.18597232536E+02 -0.47023483431E+02  0.61648497234E+02  0.00000000000E+00 0. -1.
        -13    1    3    3    0    0  0.40725254427E+02  0.60338664604E+02 -0.10278336173E+03  0.12595126138E+03  0.00000000000E+00 0.  1.
         13    1    3    3    0    0  0.83498680735E+01 -0.18728881956E+02 -0.75725916686E+02  0.78453207545E+02  0.00000000000E+00 0. -1.
         -4    1    1    2    0  502  0.31626288635E+01 -0.28194863309E+02 -0.24305744565E+02  0.37359359700E+02  0.00000000000E+00 0.  1.
<scales pt_clust_5="13000.00000" pt_clust_6="13000.00000" pt_clust_7="13000.00000" pt_clust_8="13000.00000" pt_clust_9="28.37170"></scales>
<clustering>
<clus scale="   28.372">  1  9  2 -1</clus>
<clus scale="   75.999">  7  8 -1 -1</clus>
<clus scale="   93.446">  5  6 -1 -1</clus>
<clus scale="   97.518">  2  7  1 -1</clus>
<clus scale="   28.372">  1  5  2 -1</clus>
</clustering>
</event>
<event>
 9    1  0.1610296E-005  0.1216932E+03  0.7546771E-02  0.1241143E+00
         -1   -1    0    0    0  501 -0.00000000000E+00  0.00000000000E+00  0.40076113314E+03  0.40076113314E+03  0.00000000000E+00 0.  1.
         21   -1    0    0  501  502  0.00000000000E+00 -0.00000000000E+00 -0.63248677451E+02  0.63248677451E+02  0.00000000000E+00 0. -1.
         23    2    1    2    0    0 -0.69569074466E+02 -0.15148804417E+02  0.25706952517E+03  0.28288379527E+03  0.94176209627E+02 0.  0.
         23    2    1    2    0    0  0.91175454601E+02  0.17092583120E+02  0.88959739423E+02  0.15782043719E+03  0.91587855292E+02 0.  0.
        -11    1    4    4    0    0  0.10539542894E+03  0.20429959623E+01  0.87614485864E+02  0.13707176371E+03  0.00000000000E+00 0. -1.
         11    1    4    4    0    0 -0.14219974340E+02  0.15049587157E+02  0.13452535584E+01  0.20748673475E+02  0.00000000000E+00 0.  1.
        -13    1    3    3    0    0  0.42843676898E+01 -0.22690555946E+02  0.10473809637E+02  0.25355824261E+02  0.00000000000E+00 0. -1.
         13    1    3    3    0    0 -0.73853442156E+02  0.75417515293E+01  0.24659571553E+03  0.25752797101E+03  0.00000000000E+00 0.  1.
         -1    1    1    2    0  502 -0.21606380134E+02 -0.19437787030E+01 -0.85168089026E+01  0.23305578131E+02  0.00000000000E+00 0.  1.
<scales pt_clust_5="13000.00000" pt_clust_6="13000.00000" pt_clust_7="13000.00000" pt_clust_8="13000.00000" pt_clust_9="21.69364"></scales>
<clustering>
<clus scale="   21.694">  2  9  1 -1</clus>
<clus scale="   91.588">  5  6 -1 -1</clus>
<clus scale="   94.176">  7  8 -1 -1</clus>
<clus scale="  119.701">  2  5  1 -1</clus>
<clus scale="   21.694">  2  5  1 -1</clus>
</clustering>
</event>
<event>
 9    1  0.1610296E-005  0.9505393E+02  0.7546771E-02  0.1293221E+00
          1   -1    0    0  502    0 -0.00000000000E+00  0.00000000000E+00  0.41375884295E+03  0.41375884295E+03  0.00000000000E+00 0. -1.
         21   -1    0    0  501  502  0.00000000000E+00 -0.00000000000E+00 -0.41974324902E+02  0.41974324902E+02  0.00000000000E+00 0.  1.
         23    2    1    2    0    0 -0.25937976110E+02 -0.32638532822E+02  0.22596310491E+03  0.24744081182E+03  0.91812734117E+02 0.  0.
         23    2    1    2    0    0 -0.23709473233E+02  0.45330160893E+01  0.81082141754E+02  0.12200236497E+03  0.87906632240E+02 0.  0.
        -11    1    4    4    0    0 -0.24031901859E+02 -0.17418312085E+02 -0.76042729896E+01  0.30639106883E+02  0.00000000000E+00 0.  1.
         11    1    4    4    0    0  0.32242862609E+00  0.21951328175E+02  0.88686414744E+02  0.91363258091E+02  0.00000000000E+00 0. -1.
        -11    1    3    3    0    0  0.14765820495E+02  0.20590341615E+02  0.24976633519E+02  0.35578418243E+02  0.00000000000E+00 0. -1.
         11    1    3    3    0    0 -0.40703796606E+02 -0.53228874437E+02  0.20098647139E+03  0.21186239358E+03  0.00000000000E+00 0.  1.
          1    1    1    2  501    0  0.49647449343E+02  0.28105516733E+02  0.64739271388E+02  0.86289991059E+02  0.00000000000E+00 0. -1.
<scales pt_clust_5="13000.00000" pt_clust_6="13000.00000" pt_clust_7="13000.00000" pt_clust_8="13000.00000" pt_clust_9="57.05076"></scales>
<clustering>
<clus scale="   57.051">  2  9  1 -1</clus>
<clus scale="   87.907">  5  6 -1 -1</clus>
<clus scale="   91.287">  2  5  1 -1</clus>
<clus scale="   91.813">  7  8 -1 -1</clus>
<clus scale="   57.051">  2  5  1 -1</clus>
</clustering>
</event>
<event>
 9    1  0.1610296E-005  0.9240919E+02  0.7546771E-02  0.1297965E+00
         -3   -1    0    0    0  501 -0.00000000000E+00  0.00000000000E+00  0.11386206591E+03  0.11386206591E+03  0.00000000000E+00 0.  1.
         21   -1    0    0  501  502  0.00000000000E+00 -0.00000000000E+00 -0.13950947307E+03  0.13950947307E+03  0.00000000000E+00 0.  1.
         23    2    1    2    0    0  0.82937034051E+01  0.27861458087E+02 -0.20574863458E+02  0.97693605973E+02  0.90970705607E+02 0.  0.
         23    2    1    2    0    0  0.32329922190E+02  0.57644994049E+01 -0.26178364033E+02  0.98876175770E+02  0.89513898749E+02 0.  0.
        -11    1    3    3    0    0 -0.18149495658E+02 -0.26356513324E+02  0.45970095729E+01  0.32329591465E+02  0.00000000000E+00 0. -1.
         11    1    3    3    0    0  0.26443199063E+02  0.54217971412E+02 -0.25171873031E+02  0.65364014508E+02  0.00000000000E+00 0.  1.
        -13    1    4    4    0    0 -0.26449054432E+02  0.16683254500E+02 -0.23346028514E+02  0.39024614136E+02  0.00000000000E+00 0. -1.
         13    1    4    4    0    0  0.58778976622E+02 -0.10918755095E+02 -0.28323355189E+01  0.59851561634E+02  0.00000000000E+00 0.  1.
         -3    1    1    2    0  502 -0.40623625595E+02 -0.33625957492E+02  0.21105820324E+02  0.56801757238E+02  0.00000000000E+00 0.  1.
<scales pt_clust_5="13000.00000" pt_clust_6="13000.00000" pt_clust_7="13000.00000" pt_clust_8="13000.00000" pt_clust_9="52.73506"></scales>
<clustering>
<clus scale="   52.735">  2  9  1 -1</clus>
<clus scale="   89.514">  7  8 -1 -1</clus>
<clus scale="   90.971">  5  6 -1 -1</clus>
<clus scale="   90.975">  2  7  1 -1</clus>
<clus scale="   52.735">  2  5  1 -1</clus>
</clustering>
</event>
<event>
 9    1  0.1610296E-005  0.1061642E+03  0.7546771E-02  0.1269977E+00
         -2   -1    0    0    0  501 -0.00000000000E+00  0.00000000000E+00  0.18964855790E+03  0.18964855790E+03  0.00000000000E+00 0.  1.
         21   -1    0    0  501  502  0.00000000000E+00 -0.00000000000E+00 -0.31569403948E+03  0.31569403948E+03  0.00000000000E+00 0.  1.
         23    2    1    2    0    0 -0.54820654073E+02 -0.34798589258E+01  0.81445031843E+02  0.13812635905E+03  0.97098837896E+02 0.  0.
         23    2    1    2    0    0  0.12757190540E+02  0.47626432597E+02  0.40175534991E+02  0.11215403715E+03  0.92376574112E+02 0.  0.
        -11    1    4    4    0    0 -0.16719081786E+02  0.66565009026E+02  0.18991893917E+02  0.71211797877E+02  0.00000000000E+00 0. -1.
         11    1    4    4    0    0  0.29476272327E+02 -0.18938576429E+02  0.21183641074E+02  0.40942239272E+02  0.00000000000E+00 0.  1.
        -13    1    3    3    0    0 -0.62051678678E+00 -0.38192091767E+02  0.58359454767E+02  0.69748454287E+02  0.00000000000E+00 0.  1.
         13    1    3    3    0    0 -0.54200137286E+02  0.34712232841E+02  0.23085577076E+02  0.68377904761E+02  0.00000000000E+00 0. -1.
         -2    1    1    2    0  502  0.42063463532E+02 -0.44146573671E+02 -0.24766604842E+03  0.25506220118E+03  0.00000000000E+00 0.  1.
<scales pt_clust_5="13000.00000" pt_clust_6="13000.00000" pt_clust_7="13000.00000" pt_clust_8="13000.00000" pt_clust_9="60.97750"></scales>
<clustering>
<clus scale="   60.977">  2  9  1 -1</clus>
<clus scale="   92.377">  5  6 -1 -1</clus>
<clus scale="   97.099">  7  8 -1 -1</clus>
<clus scale="  101.863">  2  5  1 -1</clus>
<clus scale="   60.977">  2  5  1 -1</clus>
</clustering>
</event>
<event>
 9    1  0.1610296E-005  0.9295432E+02  0.7546771E-02  0.1312584E+00
          1   -1    0    0  502    0 -0.00000000000E+00  0.00000000000E+00  0.36672875218E+03  0.36672875218E+03  0.00000000000E+00 0. -1.
         21   -1    0    0  501  502  0.00000000000E+00 -0.00000000000E+00 -0.33764982164E+02  0.33764982164E+02  0.00000000000E+00 0. -1.
         23    2    1    2    0    0 -0.35710411344E+01 -0.10214799391E+02  0.25647735538E+03  0.27245273805E+03  0.91283986465E+02 0.  0.
         23    2    1    2    0    0 -0.62916160475E+01  0.31359318619E+02  0.74498248381E+02  0.10462485858E+03  0.66131541076E+02 0.  0.
        -11    1    3    3    0    0  0.38953686518E+02  0.10170673061E+02  0.16109109316E+03  0.16604569425E+03  0.00000000000E+00 0.  1.
         11    1    3    3    0    0 -0.42524727653E+02 -0.20385472452E+02  0.95386262221E+02  0.10640704380E+03  0.00000000000E+00 0. -1.
        -11    1    4    4    0    0 -0.32216011128E+02  0.58913467374E+01  0.53285856956E+02  0.62545678435E+02  0.00000000000E+00 0.  1.
         11    1    4    4    0    0  0.25924395080E+02  0.25467971882E+02  0.21212391426E+02  0.42079180150E+02  0.00000000000E+00 0. -1.
          1    1    1    2  501    0  0.98626571819E+01 -0.21144519228E+02  0.19881662487E+01  0.23416137707E+02  0.00000000000E+00 0. -1.
<scales pt_clust_5="13000.00000" pt_clust_6="13000.00000" pt_clust_7="13000.00000" pt_clust_8="13000.00000" pt_clust_9="23.33158"></scales>
<clustering>
<clus scale="   23.332">  2  9  1 -1</clus>
<clus scale="   66.132">  7  8 -1 -1</clus>
<clus scale="   68.419">  2  7  1 -1</clus>
<clus scale="   91.284">  5  6 -1 -1</clus>
<clus scale="   23.332">  2  5  1 -1</clus>
</clustering>
</event>
<event>
 9    1  0.1610296E-005  0.3213350E+03  0.7546771E-02  0.1075093E+00
         21   -1    0    0  501  502  0.00000000000E+00  0.00000000000E+00  0.96113431872E+02  0.96113431872E+02  0.00000000000E+00 0.  1.
          1   -1    0    0  502    0 -0.00000000000E+00 -0.00000000000E+00 -0.14757645609E+04  0.14757645609E+04  0.00000000000E+00 0. -1.
         23    2    1    2    0    0 -0.13079888176E+03 -0.25495620593E+03 -0.63693503059E+03  0.70431199063E+03  0.90874267745E+02 0.  0.
         23    2    1    2    0    0  0.13736256276E+03  0.30189884570E+03 -0.74433939315E+03  0.82013891678E+03  0.92603044963E+02 0.  0.
        -11    1    4    4    0    0  0.18949108841E+02  0.14677387094E+03 -0.35550056616E+03  0.38507439600E+03  0.00000000000E+00 0.  1.
         11    1    4    4    0    0  0.11841345392E+03  0.15512497476E+03 -0.38883882700E+03  0.43506452078E+03  0.00000000000E+00 0. -1.
        -13    1    3    3    0    0 -0.54991590880E+02 -0.11425778920E+03 -0.39065642511E+03  0.41072053752E+03  0.00000000000E+00 0. -1.
         13    1    3    3    0    0 -0.75807290883E+02 -0.14069841673E+03 -0.24627860548E+03  0.29359145311E+03  0.00000000000E+00 0.  1.
          1    1    1    2  501    0 -0.65636809954E+01 -0.46942639771E+02  0.16232947493E+01  0.47427085328E+02  0.00000000000E+00 0. -1.
<scales pt_clust_5="13000.00000" pt_clust_6="13000.00000" pt_clust_7="13000.00000" pt_clust_8="13000.00000" pt_clust_9="47.39930"></scales>
<clustering>
<clus scale="   47.399">  1  9  2 -1</clus>
<clus scale="   90.874">  7  8 -1 -1</clus>
<clus scale="   92.603">  5  6 -1 -1</clus>
<clus scale="  320.841">  2  7  1 -1</clus>
<clus scale="   47.399">  1  5  2 -1</clus>
</clustering>
</event>
<event>
 9    1  0.1610296E-005  0.1235953E+03  0.7546771E-02  0.1248432E+00
         21   -1    0    0  501  502  0.00000000000E+00  0.00000000000E+00  0.35627557340E+02  0.35627557340E+02  0.00000000000E+00 0. -1.
          1   -1    0    0  502    0 -0.00000000000E+00 -0.00000000000E+00 -0.48608392770E+03  0.48608392770E+03  0.00000000000E+00 0. -1.
         23    2    1    2    0    0  0.38330433151E+02  0.43036717487E+02 -0.26289625666E+03  0.29289091523E+03  0.11553902069E+03 0.  0.
         23    2    1    2    0    0 -0.31644133981E+01 -0.34387978107E+02 -0.13579615454E+03  0.16564654741E+03  0.88349513468E+02 0.  0.
        -11    1    3    3    0    0 -0.31294786046E+02  0.23118620699E+01 -0.15518173040E+03  0.15832270144E+03  0.00000000000E+00 0.  1.
         11    1    3    3    0    0  0.69625219197E+02  0.40724855417E+02 -0.10771452626E+03  0.13456821379E+03  0.00000000000E+00 0. -1.
        -13    1    4    4    0    0 -0.94682253554E+01 -0.60279242519E+02 -0.61147955759E+02  0.86384644837E+02  0.00000000000E+00 0.  1.
         13    1    4    4    0    0  0.63038119572E+01  0.25891264412E+02 -0.74648198779E+02  0.79261902570E+02  0.00000000000E+00 0. -1.
          1    1    1    2  501    0 -0.35166019753E+02 -0.86487393795E+01 -0.51763959163E+02  0.63174022401E+02  0.00000000000E+00 0. -1.
<scales pt_clust_5="13000.00000" pt_clust_6="13000.00000" pt_clust_7="13000.00000" pt_clust_8="13000.00000" pt_clust_9="36.21394"></scales>
<clustering>
<clus scale="   36.214">  1  9  2 -1</clus>
<clus scale="   88.350">  7  8 -1 -1</clus>
<clus scale="   98.652">  1  7  2 -1</clus>
<clus scale="  115.539">  5  6 -1 -1</clus>
<clus scale="   36.214">  1  5  2 -1</clus>
</clustering>
</event>
<event>
 9    1  0.1610296E-005  0.1633506E+03  0.7546771E-02  0.1186783E+00
          2   -1    0    0  502    0 -0.00000000000E+00  0.00000000000E+00  0.43864992543E+03  0.43864992543E+03  0.00000000000E+00 0. -1.
         21   -1    0    0  501  502  0.00000000000E+00 -0.00000000000E+00 -0.16093040865E+03  0.16093040865E+03  0.00000000000E+00 0. -1.
         23    2    1    2    0    0 -0.13797528461E+03  0.48461382967E+02  0.30647534185E+03  0.35427444253E+03  0.10098297217E+03 0.  0.
         23    2    1    2    0    0  0.99370631759E+02  0.17958897053E+02  0.41113743750E+02  0.14146115423E+03  0.90132534595E+02 0.  0.
        -11    1    3    3    0    0 -0.11903740891E+03  0.76643092941E+02  0.22285396389E+03  0.26402264607E+03  0.00000000000E+00 0. -1.
         11    1    3    3    0    0 -0.18937875698E+02 -0.28181709974E+02  0.83621377963E+02  0.90251796466E+02  0.00000000000E+00 0.  1.
        -13    1    4    4    0    0  0.38628893027E+02 -0.31363086699E+02  0.38944826508E+02  0.63186502479E+02  0.00000000000E+00 0.  1.
         13    1    4    4    0    0  0.60741738732E+02  0.49321983752E+02  0.21689172417E+01  0.78274651755E+02  0.00000000000E+00 0. -1.
          2    1    1    2  501    0  0.38604652848E+02 -0.66420280020E+02 -0.69869568823E+02  0.10384473731E+03  0.00000000000E+00 0. -1.
<scales pt_clust_5="13000.00000" pt_clust_6="13000.00000" pt_clust_7="13000.00000" pt_clust_8="13000.00000" pt_clust_9="76.82430"></scales>
<clustering>
<clus scale="   76.824">  2  9  1 -1</clus>
<clus scale="   90.133">  7  8 -1 -1</clus>
<clus scale="  100.983">  5  6 -1 -1</clus>
<clus scale="  156.875">  2  7  1 -1</clus>
<clus scale="   76.824">  2  5  1 -1</clus>
</clustering>
</event>
<event>
 9    1  0.1610296E-005  0.1325643E+03  0.7546771E-02  0.1225630E+00
         21   -1    0    0  501  502  0.00000000000E+00  0.00000000000E+00  0.94419813500E+02  0.94419813500E+02  0.00000000000E+00 0.  1.
          4   -1    0    0  502    0 -0.00000000000E+00 -0.00000000000E+00 -0.22090930814E+03  0.22090930814E+03  0.00000000000E+00 0. -1.
         23    2    1    2    0    0  0.21947804288E+02  0.84838580189E+02 -0.72987376295E+02  0.14535677878E+03  0.90122945116E+02 0.  0.
         23    2    1    2    0    0 -0.43990286725E+02 -0.83298734779E+02 -0.58089273921E+02  0.14740501799E+03  0.97365553670E+02 0.  0.
        -11    1    3    3    0    0 -0.21976945529E+02  0.65919050350E+02 -0.16643127859E+02  0.71451389341E+02  0.00000000000E+00 0.  1.
         11    1    3    3    0    0  0.43924749817E+02  0.18919529839E+02 -0.56344248436E+02  0.73905389435E+02  0.00000000000E+00 0. -1.
        -11    1    4    4    0    0 -0.21462529278E+02  0.19091290676E+02 -0.23165918722E+02  0.36902267314E+02  0.00000000000E+00 0.  1.
         11    1    4    4    0    0 -0.22527757448E+02 -0.10239002545E+03 -0.34923355199E+02  0.11050275067E+03  0.00000000000E+00 0. -1.
          4    1    1    2  501    0  0.22042482437E+02 -0.15398454106E+01  0.45871555729E+01  0.22567324878E+02  0.00000000000E+00 0. -1.
<scales pt_clust_5="13000.00000" pt_clust_6="13000.00000" pt_clust_7="13000.00000" pt_clust_8="13000.00000" pt_clust_9="22.09620"></scales>
<clustering>
<clus scale="   22.096">  1  9  2 -1</clus>
<clus scale="   90.123">  5  6 -1 -1</clus>
<clus scale="   97.366">  7  8 -1 -1</clus>
<clus scale="  127.340">  2  5  1 -1</clus>
<clus scale="   22.096">  1  5  2 -1</clus>
</clustering>
</event>
<event>
 9    1  0.1610296E-005  0.1334931E+03  0.7546771E-02  0.1222735E+00
         21   -1    0    0  501  502  0.00000000000E+00  0.00000000000E+00  0.20345098891E+03  0.20345098891E+03  0.00000000000E+00 0.  1.
          1   -1    0    0  502    0 -0.00000000000E+00 -0.00000000000E+00 -0.17600040371E+03  0.17600040371E+03  0.00000000000E+00 0. -1.
         23    2    1    2    0    0 -0.86255413093E+02 -0.81417301979E+02 -0.37259473103E+02  0.15387325074E+03  0.90663860532E+02 0.  0.
         23    2    1    2    0    0  0.83812512316E+02  0.90354845729E+01 -0.50704681827E+01  0.12500768334E+03  0.92168508957E+02 0.  0.
        -11    1    3    3    0    0 -0.43897201549E+00 -0.56445163080E+02  0.14715704651E+01  0.56466048659E+02  0.00000000000E+00 0.  1.
         11    1    3    3    0    0 -0.85816441078E+02 -0.24972138899E+02 -0.38731043568E+02  0.97407202076E+02  0.00000000000E+00 0. -1.
        -11    1    4    4    0    0  0.33753939372E+02  0.45514006676E+02 -0.22016940271E+02  0.60791437602E+02  0.00000000000E+00 0. -1.
         11    1    4    4    0    0  0.50058572944E+02 -0.36478522103E+02  0.16946472088E+02  0.64216245734E+02  0.00000000000E+00 0.  1.
          1    1    1    2  501    0  0.24429007772E+01  0.72381817406E+02  0.69780526482E+02  0.10057045854E+03  0.00000000000E+00 0. -1.
<scales pt_clust_5="13000.00000" pt_clust_6="13000.00000" pt_clust_7="13000.00000" pt_clust_8="13000.00000" pt_clust_9="72.42303"></scales>
<clustering>
<clus scale="   72.423">  1  9  2 -1</clus>
<clus scale="   90.664">  5  6 -1 -1</clus>
<clus scale="   92.169">  7  8 -1 -1</clus>
<clus scale="  132.459">  2  5  1 -1</clus>
<clus scale="   72.423">  1  5  2 -1</clus>
</clustering>
</event>
<event>
 9    1  0.1610296E-005  0.1413598E+03  0.7546771E-02  0.1212725E+00
         21   -1    0    0  501  502  0.00000000000E+00  0.00000000000E+00  0.17981912017E+03  0.17981912017E+03  0.00000000000E+00 0.  1.
          2   -1    0    0  502    0 -0.00000000000E+00 -0.00000000000E+00 -0.22541731750E+03  0.22541731750E+03  0.00000000000E+00 0. -1.
         23    2    1    2    0    0  0.11061429681E+02  0.10017864157E+03 -0.13232965449E+03  0.18901338024E+03  0.89759706991E+02 0.  0.
         23    2    1    2    0    0 -0.71475985665E+01 -0.12344849562E+03  0.10351382338E+03  0.18726702183E+03  0.95200874990E+02 0.  0.
        -11    1    4    4    0    0 -0.36799681932E+02 -0.12078292222E+03  0.84960400673E+02  0.15218738638E+03  0.00000000000E+00 0.  1.
         11    1    4    4    0    0  0.29652083366E+02 -0.26655734023E+01  0.18553422710E+02  0.35079635456E+02  0.00000000000E+00 0. -1.
        -13    1    3    3    0    0  0.27654592864E+02 -0.93146647672E+00 -0.51667159296E+02  0.58610063009E+02  0.00000000000E+00 0.  1.
         13    1    3    3    0    0 -0.16593163183E+02  0.10111010805E+03 -0.80662495195E+02  0.13040331723E+03  0.00000000000E+00 0. -1.
          2    1    1    2  501    0 -0.39138311148E+01  0.23269854044E+02 -0.16782366225E+02  0.28956035594E+02  0.00000000000E+00 0. -1.
<scales pt_clust_5="13000.00000" pt_clust_6="13000.00000" pt_clust_7="13000.00000" pt_clust_8="13000.00000" pt_clust_9="23.59671"></scales>
<clustering>
<clus scale="   23.597">  1  9  2 -1</clus>
<clus scale="   89.760">  7  8 -1 -1</clus>
<clus scale="   95.201">  5  6 -1 -1</clus>
<clus scale="  137.754">  2  7  1 -1</clus>
<clus scale="   23.597">  1  5  2 -1</clus>
</clustering>
</event>
<event>
 9    1  0.1610296E-005  0.9929421E+02  0.7546771E-02  0.1285409E+00
          2   -1    0    0  502    0 -0.00000000000E+00  0.00000000000E+00  0.50664127639E+02  0.50664127639E+02  0.00000000000E+00 0. -1.
         21   -1    0    0  501  502  0.00000000000E+00 -0.00000000000E+00 -0.26397258950E+03  0.26397258950E+03  0.00000000000E+00 0. -1.
         23    2    1    2    0    0  0.64880632800E+00 -0.16382591567E+02 -0.43111491698E+02  0.10317713414E+03  0.92293607780E+02 0.  0.
         23    2    1    2    0    0  0.24841548562E+01 -0.80203984798E+01 -0.14873165207E+03  0.17880868331E+03  0.98898650576E+02 0.  0.
        -13    1    4    4    0    0  0.44316182660E+02 -0.27378834924E+02 -0.91872096681E+02  0.10561253143E+03  0.00000000000E+00 0.  1.
         13    1    4    4    0    0 -0.41832027803E+02  0.19358436444E+02 -0.56859555384E+02  0.73196151881E+02  0.00000000000E+00 0. -1.
        -13    1    3    3    0    0  0.16001249178E+02  0.34879583725E+02 -0.28213893049E+02  0.47630337990E+02  0.00000000000E+00 0.  1.
         13    1    3    3    0    0 -0.15352442850E+02 -0.51262175293E+02 -0.14897598649E+02  0.55546796152E+02  0.00000000000E+00 0. -1.
          2    1    1    2  501    0 -0.31329611842E+01  0.24402990047E+02 -0.21465318098E+02  0.32650899682E+02  0.00000000000E+00 0. -1.
<scales pt_clust_5="13000.00000" pt_clust_6="13000.00000" pt_clust_7="13000.00000" pt_clust_8="13000.00000" pt_clust_9="24.60329"></scales>
<clustering>
<clus scale="   24.603">  2  9  1 -1</clus>
<clus scale="   92.294">  7  8 -1 -1</clus>
<clus scale="   92.717">  1  7  2 -1</clus>
<clus scale="   98.899">  5  6 -1 -1</clus>
<clus scale="   24.603">  2  5  1 -1</clus>
</clustering>
</event>
<event>
 9    1  0.1610296E-005  0.9304565E+02  0.7546771E-02  0.1296165E+00
         21   -1    0    0  501  502  0.00000000000E+00  0.00000000000E+00  0.12272467767E+03  0.12272467767E+03  0.00000000000E+00 0. -1.
          1   -1    0    0  502    0 -0.00000000000E+00 -0.00000000000E+00 -0.11218253883E+03  0.11218253883E+03  0.00000000000E+00 0. -1.
         23    2    1    2    0    0 -0.39054757210E+01  0.14841608181E+02 -0.46235076246E+02  0.10298939397E+03  0.90739224821E+02 0.  0.
         23    2    1    2    0    0  0.20437563442E+02 -0.28341498635E+02  0.38353126752E+02  0.10372200728E+03  0.89812905079E+02 0.  0.
        -11    1    4    4    0    0  0.46358676573E+02  0.57500873825E+01  0.39055431696E+02  0.60889384489E+02  0.00000000000E+00 0.  1.
         11    1    4    4    0    0 -0.25921113131E+02 -0.34091586017E+02 -0.70230494351E+00  0.42832622793E+02  0.00000000000E+00 0. -1.
        -11    1    3    3    0    0 -0.14908060010E+01  0.50206558231E+02 -0.45129674334E+02  0.67524873176E+02  0.00000000000E+00 0.  1.
         11    1    3    3    0    0 -0.24146697199E+01 -0.35364950050E+02 -0.11054019120E+01  0.35464520796E+02  0.00000000000E+00 0. -1.
          1    1    1    2  501    0 -0.16532087721E+02  0.13499890454E+02  0.18424088333E+02  0.28195815250E+02  0.00000000000E+00 0. -1.
<scales pt_clust_5="13000.00000" pt_clust_6="13000.00000" pt_clust_7="13000.00000" pt_clust_8="13000.00000" pt_clust_9="21.34378"></scales>
<clustering>
<clus scale="   21.344">  1  9  2 -1</clus>
<clus scale="   89.813">  5  6 -1 -1</clus>
<clus scale="   90.739">  7  8 -1 -1</clus>
<clus scale="   92.143">  1  5  2 -1</clus>
<clus scale="   21.344">  1  5  2 -1</clus>
</clustering>
</event>
<event>
 9    1  0.1610296E-005  0.1156822E+03  0.7546771E-02  0.1250875E+00
          2   -1    0    0  502    0 -0.00000000000E+00  0.00000000000E+00  0.68299126760E+03  0.68299126760E+03  0.00000000000E+00 0. -1.
         21   -1    0    0  501  502  0.00000000000E+00 -0.00000000000E+00 -0.32871811651E+02  0.32871811651E+02  0.00000000000E+00 0.  1.
         23    2    1    2    0    0  0.46671806608E+02  0.42657186522E+02  0.40546789284E+03  0.42029259531E+03  0.90795156559E+02 0.  0.
         23    2    1    2    0    0 -0.64761435404E+02 -0.52410543296E+02  0.24533749603E+03  0.27500757699E+03  0.92183360094E+02 0.  0.
        -11    1    4    4    0    0  0.50503608671E+01 -0.50041329223E+02  0.13861470583E+03  0.14745737502E+03  0.00000000000E+00 0. -1.
         11    1    4    4    0    0 -0.69811796271E+02 -0.23692140727E+01  0.10672279020E+03  0.12755020196E+03  0.00000000000E+00 0.  1.
        -13    1    3    3    0    0  0.36436429854E+02  0.69597327053E+02  0.24592039379E+03  0.25816320698E+03  0.00000000000E+00 0. -1.
         13    1    3    3    0    0  0.10235376753E+02 -0.26940140531E+02  0.15954749905E+03  0.16212938833E+03  0.00000000000E+00 0.  1.
          2    1    1    2  501    0  0.18089628796E+02  0.97533567738E+01 -0.68593292197E+00  0.20562906952E+02  0.00000000000E+00 0. -1.
<scales pt_clust_5="13000.00000" pt_clust_6="13000.00000" pt_clust_7="13000.00000" pt_clust_8="13000.00000" pt_clust_9="20.55146"></scales>
<clustering>
<clus scale="   20.551">  2  9  1 -1</clus>
<clus scale="   90.795">  7  8 -1 -1</clus>
<clus scale="   92.183">  5  6 -1 -1</clus>
<clus scale="  114.579">  1  7  2 -1</clus>
<clus scale="   20.551">  2  5  1 -1</clus>
</clustering>
</event>
<event>
 9    1  0.1610296E-005  0.1015574E+03  0.7546771E-02  0.1277840E+00
          1   -1    0    0  502    0 -0.00000000000E+00  0.00000000000E+00  0.48719803841E+03  0.48719803841E+03  0.00000000000E+00 0. -1.
         21   -1    0    0  501  502  0.00000000000E+00 -0.00000000000E+00 -0.51562462162E+02  0.51562462162E+02  0.00000000000E+00 0.  1.
         23    2    1    2    0    0  0.10392132405E+02 -0.47094370263E+01  0.18441132513E+03  0.20689260562E+03  0.93095854959E+02 0.  0.
         23    2    1    2    0    0 -0.71536963251E+02 -0.44999207382E+02  0.20317963412E+03  0.23957529021E+03  0.94720062196E+02 0.  0.
        -11    1    4    4    0    0  0.22577336322E+02  0.48648560525E-01  0.34348807406E+02  0.41104489442E+02  0.00000000000E+00 0.  1.
         11    1    4    4    0    0 -0.94114299572E+02 -0.45047855942E+02  0.16883082671E+03  0.19847080077E+03  0.00000000000E+00 0. -1.
        -13    1    3    3    0    0 -0.20950554114E+02 -0.26781898273E+02  0.15469741496E+03  0.15839029638E+03  0.00000000000E+00 0. -1.
         13    1    3    3    0    0  0.31342686519E+02  0.22072461246E+02  0.29713910170E+02  0.48502309237E+02  0.00000000000E+00 0.  1.
          1    1    1    2  501    0  0.61144830846E+02  0.49708644408E+02  0.48044617004E+02  0.92292604748E+02  0.00000000000E+00 0. -1.
<scales pt_clust_5="13000.00000" pt_clust_6="13000.00000" pt_clust_7="13000.00000" pt_clust_8="13000.00000" pt_clust_9="78.80127"></scales>
<clustering>
<clus scale="   78.801">  2  9  1 -1</clus>
<clus scale="   93.096">  7  8 -1 -1</clus>
<clus scale="   94.720">  5  6 -1 -1</clus>
<clus scale="  100.044">  1  7  2 -1</clus>
<clus scale="   78.801">  2  5  1 -1</clus>
</clustering>
</event>
<event>
 9    1  0.1610296E-005  0.1011983E+03  0.7546771E-02  0.1279695E+00
         -1   -1    0    0    0  501 -0.00000000000E+00  0.00000000000E+00  0.39633363760E+03  0.39633363760E+03  0.00000000000E+00 0.  1.
         21   -1    0    0  501  502  0.00000000000E+00 -0.00000000000E+00 -0.43121575006E+02  0.43121575006E+02  0.00000000000E+00 0.  1.
         23    2    1    2    0    0  0.51258258778E+02 -0.15618016075E+02  0.21976215946E+03  0.24376944017E+03  0.90866945113E+02 0.  0.
         23    2    1    2    0    0 -0.80332215346E+01  0.43036836456E+01  0.10921423402E+03  0.14485482103E+03  0.94721253797E+02 0.  0.
        -13    1    4    4    0    0  0.32785347004E+02 -0.27907324523E+02  0.46064102357E+02  0.63052353375E+02  0.00000000000E+00 0.  1.
         13    1    4    4    0    0 -0.40818568539E+02  0.32211008168E+02  0.63150131664E+02  0.81802467652E+02  0.00000000000E+00 0. -1.
        -13    1    3    3    0    0  0.54470959224E+02  0.22444895164E+02  0.17642035628E+03  0.18599731403E+03  0.00000000000E+00 0.  1.
         13    1    3    3    0    0 -0.32127004464E+01 -0.38062911239E+02  0.43341803179E+02  0.57772126142E+02  0.00000000000E+00 0. -1.
         -1    1    1    2    0  502 -0.43225037243E+02  0.11314332430E+02  0.24235669112E+02  0.50830951401E+02  0.00000000000E+00 0.  1.
<scales pt_clust_5="13000.00000" pt_clust_6="13000.00000" pt_clust_7="13000.00000" pt_clust_8="13000.00000" pt_clust_9="44.68129"></scales>
<clustering>
<clus scale="   44.681">  2  9  1 -1</clus>
<clus scale="   90.867">  7  8 -1 -1</clus>
<clus scale="   94.721">  5  6 -1 -1</clus>
<clus scale="   97.600">  1  7  2 -1</clus>
<clus scale="   44.681">  2  5  1 -1</clus>
</clustering>
</event>
<event>
 9    1  0.1610296E-005  0.1037337E+03  0.7546771E-02  0.1273282E+00
         -4   -1    0    0    0  501 -0.00000000000E+00  0.00000000000E+00  0.31835328293E+03  0.31835328293E+03  0.00000000000E+00 0.  1.
         21   -1    0    0  501  502  0.00000000000E+00 -0.00000000000E+00 -0.25272952282E+03  0.25272952282E+03  0.00000000000E+00 0.  1.
         23    2    1    2    0    0  0.18544712378E+02 -0.41361855622E+02  0.27427026059E+03  0.29240856247E+03  0.90685622356E+02 0.  0.
         23    2    1    2    0    0 -0.47077771940E+02  0.62499495888E+02 -0.79359889009E+02  0.14459977430E+03  0.92133594017E+02 0.  0.
        -11    1    4    4    0    0 -0.23141630313E+02  0.53381934734E+02 -0.97271673002E+02  0.11334436192E+03  0.00000000000E+00 0. -1.
         11    1    4    4    0    0 -0.23936141627E+02  0.91175611538E+01  0.17911783993E+02  0.31255412382E+02  0.00000000000E+00 0.  1.
        -13    1    3    3    0    0  0.47172108613E+02 -0.71112744917E+01  0.80593081483E+02  0.93653739054E+02  0.00000000000E+00 0.  1.
         13    1    3    3    0    0 -0.28627396235E+02 -0.34250581130E+02  0.19367717911E+03  0.19875482342E+03  0.00000000000E+00 0. -1.
         -4    1    1    2    0  502  0.28533059562E+02 -0.21137640266E+02 -0.12928661148E+03  0.13407446898E+03  0.00000000000E+00 0.  1.
<scales pt_clust_5="13000.00000" pt_clust_6="13000.00000" pt_clust_7="13000.00000" pt_clust_8="13000.00000" pt_clust_9="35.50965"></scales>
<clustering>
<clus scale="   35.510">  2  9  1 -1</clus>
<clus scale="   90.686">  7  8 -1 -1</clus>
<clus scale="   92.134">  5  6 -1 -1</clus>
<clus scale="  102.450">  1  7  2 -1</clus>
<clus scale="   35.510">  2  5  1 -1</clus>
</clustering>
</event>
<event>
 9    1  0.1610296E-005  0.1069103E+03  0.7546771E-02  0.1266766E+00
         21   -1    0    0  501  502  0.00000000000E+00  0.00000000000E+00  0.90767086506E+02  0.90767086506E+02  0.00000000000E+00 0. -1.
         -1   -1    0    0    0  501 -0.00000000000E+00 -0.00000000000E+00 -0.16771022066E+03  0.16771022066E+03  0.00000000000E+00 0.  1.
         23    2    1    2    0    0  0.40264307432E+02 -0.46921292602E+02 -0.66306277214E+02  0.12809471379E+03  0.90492602745E+02 0.  0.
         23    2    1    2    0    0 -0.41772403355E+02  0.24661316341E+02 -0.21344146964E+02  0.10563533178E+03  0.91379081331E+02 0.  0.
        -13    1    4    4    0    0 -0.43960736652E+02 -0.14578904546E+02  0.18311703693E+02  0.49803707863E+02  0.00000000000E+00 0.  1.
         13    1    4    4    0    0  0.21883332966E+01  0.39240220887E+02 -0.39655850657E+02  0.55831623917E+02  0.00000000000E+00 0. -1.
        -13    1    3    3    0    0  0.26539568710E+02 -0.74310835441E+02 -0.49558670748E+02  0.93179991508E+02  0.00000000000E+00 0. -1.
         13    1    3    3    0    0  0.13724738722E+02  0.27389542839E+02 -0.16747606466E+02  0.34914722285E+02  0.00000000000E+00 0.  1.
         -1    1    1    2    0  502  0.15080959236E+01  0.22259976261E+02  0.10707290027E+02  0.24747261589E+02  0.00000000000E+00 0.  1.
<scales pt_clust_5="13000.00000" pt_clust_6="13000.00000" pt_clust_7="13000.00000" pt_clust_8="13000.00000" pt_clust_9="22.31100"></scales>
<clustering>
<clus scale="   22.311">  1  9  2 -1</clus>
<clus scale="   90.493">  7  8 -1 -1</clus>
<clus scale="   91.379">  5  6 -1 -1</clus>
<clus scale="  106.154">  2  7  1 -1</clus>
<clus scale="   22.311">  1  5  2 -1</clus>
</clustering>
</event>
<event>
 9    1  0.1610296E-005  0.1080669E+03  0.7546771E-02  0.1264683E+00
          1   -1    0    0  502    0 -0.00000000000E+00  0.00000000000E+00  0.32235361901E+03  0.32235361901E+03  0.00000000000E+00 0. -1.
         21   -1    0    0  501  502  0.00000000000E+00 -0.00000000000E+00 -0.15161814711E+03  0.15161814711E+03  0.00000000000E+00 0. -1.
         23    2    1    2    0    0  0.18057045164E+02  0.32427466792E+02  0.13429950946E+03  0.16768848568E+03  0.93303121638E+02 0.  0.
         23    2    1    2    0    0 -0.96825812049E+02 -0.20712180790E+02  0.12711722957E+03  0.18559832376E+03  0.92107086689E+02 0.  0.
        -11    1    3    3    0    0  0.24360485704E+02 -0.28339984390E+02  0.67571911982E+02  0.77217558028E+02  0.00000000000E+00 0.  1.
         11    1    3    3    0    0 -0.63034405397E+01  0.60767451182E+02  0.66727597476E+02  0.90470927654E+02  0.00000000000E+00 0. -1.
        -13    1    4    4    0    0 -0.69410956088E+02 -0.56841603080E+02  0.88704500453E+02  0.12616392934E+03  0.00000000000E+00 0. -1.
         13    1    4    4    0    0 -0.27414855961E+02  0.36129422290E+02  0.38412729115E+02  0.59434394423E+02  0.00000000000E+00 0.  1.
          1    1    1    2  501    0  0.78768766884E+02 -0.11715286002E+02 -0.90681267123E+02  0.12068495668E+03  0.00000000000E+00 0. -1.
<scales pt_clust_5="13000.00000" pt_clust_6="13000.00000" pt_clust_7="13000.00000" pt_clust_8="13000.00000" pt_clust_9="79.63521"></scales>
<clustering>
<clus scale="   79.635">  2  9  1 -1</clus>
<clus scale="   92.107">  7  8 -1 -1</clus>
<clus scale="   93.303">  5  6 -1 -1</clus>
<clus scale="  107.036">  2  7  1 -1</clus>
<clus scale="   79.635">  2  5  1 -1</clus>
</clustering>
</event>
<event>
 9    1  0.1610296E-005  0.1025507E+03  0.7546771E-02  0.1275292E+00
         -1   -1    0    0    0  501 -0.00000000000E+00  0.00000000000E+00  0.20744574596E+03  0.20744574596E+03  0.00000000000E+00 0.  1.
         21   -1    0    0  501  502  0.00000000000E+00 -0.00000000000E+00 -0.18852533707E+03  0.18852533707E+03  0.00000000000E+00 0.  1.
         23    2    1    2    0    0  0.42414373392E+02  0.18419264737E+02  0.16858028939E+03  0.19721802469E+03  0.91309292573E+02 0.  0.
         23    2    1    2    0    0 -0.43568175890E+02  0.17117793958E+01 -0.90144465905E+02  0.13591457671E+03  0.91900115835E+02 0.  0.
        -13    1    4    4    0    0 -0.13377086993E+02 -0.38215960691E+02 -0.72124864705E+02  0.82712769369E+02  0.00000000000E+00 0.  1.
         13    1    4    4    0    0 -0.30191088897E+02  0.39927740087E+02 -0.18019601200E+02  0.53201807344E+02  0.00000000000E+00 0. -1.
        -13    1    3    3    0    0  0.67561871724E+02 -0.49133296576E+01  0.10454646430E+03  0.12457411656E+03  0.00000000000E+00 0.  1.
         13    1    3    3    0    0 -0.25147498331E+02  0.23332594395E+02  0.64033825083E+02  0.72643908129E+02  0.00000000000E+00 0. -1.
         -1    1    1    2    0  502  0.11538024979E+01 -0.20131044133E+02 -0.59515414591E+02  0.62838481617E+02  0.00000000000E+00 0.  1.
<scales pt_clust_5="13000.00000" pt_clust_6="13000.00000" pt_clust_7="13000.00000" pt_clust_8="13000.00000" pt_clust_9="20.16408"></scales>
<clustering>
<clus scale="   20.164">  2  9  1 -1</clus>
<clus scale="   91.309">  7  8 -1 -1</clus>
<clus scale="   91.900">  5  6 -1 -1</clus>
<clus scale="  102.022">  1  7  2 -1</clus>
<clus scale="   20.164">  2  5  1 -1</clus>
</clustering>
</event>
<event>
 9    1  0.1610296E-005  0.9391085E+02  0.7546771E-02  0.1293982E+00
         21   -1    0    0  501  502  0.00000000000E+00  0.00000000000E+00  0.52485449305E+02  0.52485449305E+02  0.00000000000E+00 0. -1.
          2   -1    0    0  502    0 -0.00000000000E+00 -0.00000000000E+00 -0.52047607876E+03  0.52047607876E+03  0.00000000000E+00 0. -1.
         23    2    1    2    0    0  0.19131682192E+02  0.13715094962E+01 -0.43110689401E+03  0.44131509111E+03  0.92401045864E+02 0.  0.
         23    2    1    2    0    0  0.41057517259E+01 -0.22644618001E+02 -0.24276606596E+02  0.97713220508E+02  0.91808953335E+02 0.  0.
        -11    1    3    3    0    0 -0.26194241003E+02  0.28667990202E+02 -0.13316762891E+03  0.13871412802E+03  0.00000000000E+00 0.  1.
         11    1    3    3    0    0  0.45325923195E+02 -0.27296480705E+02 -0.29793926510E+03  0.30260096308E+03  0.00000000000E+00 0. -1.
        -11    1    4    4    0    0 -0.15875255601E+02 -0.47706622312E+02  0.94790700686E+01  0.51164424380E+02  0.00000000000E+00 0. -1.
         11    1    4    4    0    0  0.19981007327E+02  0.25062004311E+02 -0.33755676664E+02  0.46548796128E+02  0.00000000000E+00 0.  1.
          2    1    1    2  501    0 -0.23237433918E+02  0.21273108505E+02 -0.12607128849E+02  0.33933216446E+02  0.00000000000E+00 0. -1.
<scales pt_clust_5="13000.00000" pt_clust_6="13000.00000" pt_clust_7="13000.00000" pt_clust_8="13000.00000" pt_clust_9="31.50434"></scales>
<clustering>
<clus scale="   31.504">  1  9  2 -1</clus>
<clus scale="   91.809">  7  8 -1 -1</clus>
<clus scale="   92.401">  5  6 -1 -1</clus>
<clus scale="   93.328">  1  7  2 -1</clus>
<clus scale="   31.504">  1  5  2 -1</clus>
</clustering>
</event>
<event>
 9    1  0.1610296E-005  0.1313400E+03  0.7546771E-02  0.1225949E+00
          1   -1    0    0  502    0 -0.00000000000E+00  0.00000000000E+00  0.38301274615E+03  0.38301274615E+03  0.00000000000E+00 0. -1.
         21   -1    0    0  501  502  0.00000000000E+00 -0.00000000000E+00 -0.12380056285E+03  0.12380056285E+03  0.00000000000E+00 0. -1.
         23    2    1    2    0    0  0.10645366758E+03  0.17752456850E+02  0.27917146517E+03  0.31284808078E+03  0.91047688721E+02 0.  0.
         23    2    1    2    0    0 -0.64871541228E+02 -0.37732819375E+01  0.41970524160E+02  0.11807193842E+03  0.89201475470E+02 0.  0.
        -13    1    3    3    0    0  0.29974095797E+02 -0.30391500838E+02  0.45889436390E+02  0.62673200925E+02  0.00000000000E+00 0.  1.
         13    1    3    3    0    0  0.76479571778E+02  0.48143957688E+02  0.23328202878E+03  0.25017487986E+03  0.00000000000E+00 0. -1.
        -13    1    4    4    0    0 -0.42769426789E+02 -0.56627414333E+01 -0.23372021209E+02  0.49066708508E+02  0.00000000000E+00 0.  1.
         13    1    4    4    0    0 -0.22102114439E+02  0.18894594958E+01  0.65342545369E+02  0.69005229912E+02  0.00000000000E+00 0. -1.
          1    1    1    2  501    0 -0.41582126347E+02 -0.13979174913E+02 -0.61929806024E+02  0.75893289803E+02  0.00000000000E+00 0. -1.
<scales pt_clust_5="13000.00000" pt_clust_6="13000.00000" pt_clust_7="13000.00000" pt_clust_8="13000.00000" pt_clust_9="43.86902"></scales>
<clustering>
<clus scale="   43.869">  2  9  1 -1</clus>
<clus scale="   89.201">  7  8 -1 -1</clus>
<clus scale="   91.048">  5  6 -1 -1</clus>
<clus scale="  130.067">  2  7  1 -1</clus>
<clus scale="   43.869">  2  5  1 -1</clus>
</clustering>
</event>
<event>
 9    1  0.1610296E-005  0.1796607E+03  0.7546771E-02  0.1168193E+00
         21   -1    0    0  501  502  0.00000000000E+00  0.00000000000E+00  0.13095797685E+03  0.13095797685E+03  0.00000000000E+00 0.  1.
         -4   -1    0    0    0  501 -0.00000000000E+00 -0.00000000000E+00 -0.35204802619E+03  0.35204802619E+03  0.00000000000E+00 0.  1.
         23    2    1    2    0    0 -0.44210212289E+02 -0.16034086996E+03 -0.16915379396E+03  0.25433864387E+03  0.91713697475E+02 0.  0.
         23    2    1    2    0    0  0.76847065660E+02  0.11857481924E+03 -0.50645497661E+02  0.17564629499E+03  0.91220585675E+02 0.  0.
        -11    1    3    3    0    0  0.44164671078E+01 -0.12723824190E+03 -0.90873240150E+02  0.15641937591E+03  0.00000000000E+00 0.  1.
         11    1    3    3    0    0 -0.48626679396E+02 -0.33102628060E+02 -0.78280553814E+02  0.97919267966E+02  0.00000000000E+00 0. -1.
        -11    1    4    4    0    0  0.55379936639E+02  0.11488431281E+03 -0.70886320728E+02  0.14591166224E+03  0.00000000000E+00 0.  1.
         11    1    4    4    0    0  0.21467129021E+02  0.36905064329E+01  0.20240823067E+02  0.29734632746E+02  0.00000000000E+00 0. -1.
         -4    1    1    2    0  502 -0.32636853371E+02  0.41766050720E+02 -0.12907577212E+01  0.53021064175E+02  0.00000000000E+00 0.  1.
<scales pt_clust_5="13000.00000" pt_clust_6="13000.00000" pt_clust_7="13000.00000" pt_clust_8="13000.00000" pt_clust_9="53.00535"></scales>
<clustering>
<clus scale="   53.005">  1  9  2 -1</clus>
<clus scale="   91.221">  7  8 -1 -1</clus>
<clus scale="   91.714">  5  6 -1 -1</clus>
<clus scale="  179.409">  1  7  2 -1</clus>
<clus scale="   53.005">  1  5  2 -1</clus>
</clustering>
</event>
<event>
 9    1  0.1610296E-005  0.9979504E+02  0.7546771E-02  0.1282052E+00
         21   -1    0    0  501  502  0.00000000000E+00  0.00000000000E+00  0.40215181638E+02  0.40215181638E+02  0.00000000000E+00 0. -1.
          2   -1    0    0  502    0 -0.00000000000E+00 -0.00000000000E+00 -0.70846466418E+03  0.70846466418E+03  0.00000000000E+00 0. -1.
         23    2    1    2    0    0  0.24923116427E+02  0.10221209707E+02 -0.40458917375E+03  0.41617508679E+03  0.93721227520E+02 0.  0.
         23    2    1    2    0    0 -0.33671346446E+02 -0.76542398812E+02 -0.11233496544E+03  0.16705267777E+03  0.91076639719E+02 0.  0.
        -11    1    4    4    0    0  0.28589585389E+02 -0.15330211740E+02 -0.50653236942E+02  0.60150895233E+02  0.00000000000E+00 0.  1.
         11    1    4    4    0    0 -0.62260931835E+02 -0.61212187072E+02 -0.61681728501E+02  0.10690178254E+03  0.00000000000E+00 0. -1.
        -11    1    3    3    0    0 -0.18186325848E+02 -0.26252021328E+02 -0.71157120997E+02  0.77995172544E+02  0.00000000000E+00 0.  1.
         11    1    3    3    0    0  0.43109442274E+02  0.36473231036E+02 -0.33343205275E+03  0.33817991424E+03  0.00000000000E+00 0. -1.
          2    1    1    2  501    0  0.87482300191E+01  0.66321189105E+02 -0.15132534335E+03  0.16545208126E+03  0.00000000000E+00 0. -1.
<scales pt_clust_5="13000.00000" pt_clust_6="13000.00000" pt_clust_7="13000.00000" pt_clust_8="13000.00000" pt_clust_9="66.89571"></scales>
<clustering>
<clus scale="   66.896">  1  9  2 -1</clus>
<clus scale="   91.077">  5  6 -1 -1</clus>
<clus scale="   93.721">  7  8 -1 -1</clus>
<clus scale="   97.316">  1  5  2 -1</clus>
<clus scale="   66.896">  1  5  2 -1</clus>
</clustering>
</event>
<event>
 9    1  0.1610296E-005  0.1569500E+03  0.7546771E-02  0.1192417E+00
          1   -1    0    0  502    0 -0.00000000000E+00  0.00000000000E+00  0.57961016146E+03  0.57961016146E+03  0.00000000000E+00 0. -1.
         21   -1    0    0  501  502  0.00000000000E+00 -0.00000000000E+00 -0.26353081412E+03  0.26353081412E+03  0.00000000000E+00 0. -1.
         23    2    1    2    0    0 -0.12591539259E+03 -0.18138599132E+02  0.37658035793E+03  0.40784505801E+03  0.91329789730E+02 0.  0.
         23    2    1    2    0    0  0.13047821063E+03 -0.12302155700E+02  0.15238512088E+03  0.22019602489E+03  0.89939745529E+02 0.  0.
        -11    1    3    3    0    0 -0.64669473342E+02 -0.53796868420E+02  0.23314983720E+03  0.24786103046E+03  0.00000000000E+00 0.  1.
         11    1    3    3    0    0 -0.61245919250E+02  0.35658269288E+02  0.14343052073E+03  0.15998402755E+03  0.00000000000E+00 0. -1.
        -13    1    4    4    0    0  0.82657384299E+02  0.27952827166E+01  0.30072313808E+02  0.88002277484E+02  0.00000000000E+00 0.  1.
         13    1    4    4    0    0  0.47820826327E+02 -0.15097438416E+02  0.12231280708E+03  0.13219374740E+03  0.00000000000E+00 0. -1.
          1    1    1    2  501    0 -0.45628180333E+01  0.30440754831E+02 -0.21288613147E+03  0.21509989269E+03  0.00000000000E+00 0. -1.
<scales pt_clust_5="13000.00000" pt_clust_6="13000.00000" pt_clust_7="13000.00000" pt_clust_8="13000.00000" pt_clust_9="30.78082"></scales>
<clustering>
<clus scale="   30.781">  2  9  1 -1</clus>
<clus scale="   89.940">  7  8 -1 -1</clus>
<clus scale="   91.330">  5  6 -1 -1</clus>
<clus scale="  156.145">  2  7  1 -1</clus>
<clus scale="   30.781">  2  5  1 -1</clus>
</clustering>
</event>
<event>
 9    1  0.1610296E-005  0.1941247E+03  0.7546771E-02  0.1155426E+00
          2   -1    0    0  502    0 -0.00000000000E+00  0.00000000000E+00  0.88805179882E+03  0.88805179882E+03  0.00000000000E+00 0. -1.
         21   -1    0    0  501  502  0.00000000000E+00 -0.00000000000E+00 -0.72106753064E+02  0.72106753064E+02  0.00000000000E+00 0. -1.
         23    2    1    2    0    0  0.18937723429E+03  0.76070036409E+02  0.56197731919E+03  0.60508558475E+03  0.93057349458E+02 0.  0.
         23    2    1    2    0    0 -0.98246081708E+02 -0.83547296343E+02  0.17636145958E+03  0.23514161568E+03  0.86923942044E+02 0.  0.
        -11    1    4    4    0    0 -0.70794516700E+02 -0.98096261696E+02  0.15820334182E+03  0.19915581216E+03  0.00000000000E+00 0. -1.
         11    1    4    4    0    0 -0.27451565009E+02  0.14548965353E+02  0.18158117761E+02  0.35985803519E+02  0.00000000000E+00 0.  1.
        -11    1    3    3    0    0  0.12120196486E+03  0.58021293701E+02  0.23606638636E+03  0.27163159901E+03  0.00000000000E+00 0.  1.
         11    1    3    3    0    0  0.68175269427E+02  0.18048742708E+02  0.32591093282E+03  0.33345398574E+03  0.00000000000E+00 0. -1.
          2    1    1    2  501    0 -0.91131152578E+02  0.74772599340E+01  0.77606266988E+02  0.11993135146E+03  0.00000000000E+00 0. -1.
<scales pt_clust_5="13000.00000" pt_clust_6="13000.00000" pt_clust_7="13000.00000" pt_clust_8="13000.00000" pt_clust_9="91.43739"></scales>
<clustering>
<clus scale="   86.924">  5  6 -1 -1</clus>
<clus scale="   91.437">  2  9  1 -1</clus>
<clus scale="   93.057">  7  8 -1 -1</clus>
<clus scale="  191.260">  2  5  1 -1</clus>
<clus scale="   91.437">  2  5  1 -1</clus>
</clustering>
</event>
<event>
 9    1  0.1610296E-005  0.1398519E+03  0.7546771E-02  0.1213768E+00
         -4   -1    0    0    0  501 -0.00000000000E+00  0.00000000000E+00  0.34136736441E+03  0.34136736441E+03  0.00000000000E+00 0. -1.
         21   -1    0    0  501  502  0.00000000000E+00 -0.00000000000E+00 -0.19985466664E+03  0.19985466664E+03  0.00000000000E+00 0. -1.
         23    2    1    2    0    0  0.11193906451E+03 -0.14430047231E+02  0.24705229388E+03  0.28735037103E+03  0.93791360978E+02 0.  0.
         23    2    1    2    0    0 -0.77115942123E+02 -0.45749989500E+02 -0.18208347713E+01  0.12900425784E+03  0.92730000716E+02 0.  0.
        -11    1    3    3    0    0  0.99846088363E+02  0.94027755495E+01  0.11484880132E+03  0.15247262284E+03  0.00000000000E+00 0.  1.
         11    1    3    3    0    0  0.12092976145E+02 -0.23832822780E+02  0.13220349255E+03  0.13487774819E+03  0.00000000000E+00 0. -1.
        -11    1    4    4    0    0 -0.61083586515E+02 -0.67819428247E+02  0.20746970721E+02  0.93600834309E+02  0.00000000000E+00 0.  1.
         11    1    4    4    0    0 -0.16032355608E+02  0.22069438747E+02 -0.22567805492E+02  0.35403423531E+02  0.00000000000E+00 0. -1.
         -4    1    1    2    0  502 -0.34823122385E+02  0.60180036730E+02 -0.10371876134E+03  0.12486740218E+03  0.00000000000E+00 0. -1.
<scales pt_clust_5="13000.00000" pt_clust_6="13000.00000" pt_clust_7="13000.00000" pt_clust_8="13000.00000" pt_clust_9="69.52903"></scales>
<clustering>
<clus scale="   69.529">  2  9  1 -1</clus>
<clus scale="   92.730">  7  8 -1 -1</clus>
<clus scale="   93.791">  5  6 -1 -1</clus>
<clus scale="  139.142">  2  7  1 -1</clus>
<clus scale="   69.529">  2  5  1 -1</clus>
</clustering>
</event>
<event>
 9    1  0.1610296E-005  0.9335065E+02  0.7546771E-02  0.1295854E+00
         21   -1    0    0  501  502  0.00000000000E+00  0.00000000000E+00  0.15354118370E+03  0.15354118370E+03  0.00000000000E+00 0. -1.
          3   -1    0    0  502    0 -0.00000000000E+00 -0.00000000000E+00 -0.11540344674E+03  0.11540344674E+03  0.00000000000E+00 0. -1.
         23    2    1    2    0    0 -0.84127466315E+01  0.96346839833E+01 -0.63066597731E+02  0.11127786059E+03  0.90784167495E+02 0.  0.
         23    2    1    2    0    0 -0.84549404721E+01 -0.24627016829E+02  0.93024291342E+02  0.13366256143E+03  0.92380655833E+02 0.  0.
        -11    1    4    4    0    0 -0.34524469953E+02  0.22941671512E+02  0.35237976535E+02  0.54405645916E+02  0.00000000000E+00 0.  1.
         11    1    4    4    0    0  0.26069529481E+02 -0.47568688341E+02  0.57786314807E+02  0.79256915514E+02  0.00000000000E+00 0. -1.
        -11    1    3    3    0    0 -0.43976136265E+02  0.19579673514E+02 -0.55706319720E+02  0.73623761330E+02  0.00000000000E+00 0. -1.
         11    1    3    3    0    0  0.35563389634E+02 -0.99449895308E+01 -0.73602780112E+01  0.37654099264E+02  0.00000000000E+00 0.  1.
          3    1    1    2  501    0  0.16867687104E+02  0.14992332846E+02  0.81800433514E+01  0.24004208415E+02  0.00000000000E+00 0. -1.
<scales pt_clust_5="13000.00000" pt_clust_6="13000.00000" pt_clust_7="13000.00000" pt_clust_8="13000.00000" pt_clust_9="22.56743"></scales>
<clustering>
<clus scale="   22.567">  1  9  2 -1</clus>
<clus scale="   90.784">  7  8 -1 -1</clus>
<clus scale="   91.771">  2  7  1 -1</clus>
<clus scale="   92.381">  5  6 -1 -1</clus>
<clus scale="   22.567">  1  5  2 -1</clus>
</clustering>
</event>
<event>
 9    1  0.1610296E-005  0.1553262E+03  0.7546771E-02  0.1194086E+00
         21   -1    0    0  501  502  0.00000000000E+00  0.00000000000E+00  0.72676483246E+02  0.72676483246E+02  0.00000000000E+00 0.  1.
          1   -1    0    0  502    0 -0.00000000000E+00 -0.00000000000E+00 -0.62853966740E+03  0.62853966740E+03  0.00000000000E+00 0. -1.
         23    2    1    2    0    0 -0.46608433347E+02  0.10914918436E+03 -0.37466345232E+03  0.40362149705E+03  0.91933235948E+02 0.  0.
         23    2    1    2    0    0  0.48531126690E+02 -0.14222264592E+03 -0.84557312790E+02  0.19543151069E+03  0.91983612428E+02 0.  0.
        -13    1    3    3    0    0  0.65060748811E+01  0.94540687684E+02 -0.22499412350E+03  0.24413649102E+03  0.00000000000E+00 0. -1.
         13    1    3    3    0    0 -0.53114508228E+02  0.14608496680E+02 -0.14966932882E+03  0.15948500603E+03  0.00000000000E+00 0.  1.
        -13    1    4    4    0    0  0.25370668598E+02  0.49280783750E+01 -0.21714101816E+02  0.33755873552E+02  0.00000000000E+00 0. -1.
         13    1    4    4    0    0  0.23160458091E+02 -0.14715072429E+03 -0.62843210974E+02  0.16167563714E+03  0.00000000000E+00 0.  1.
          1    1    1    2  501    0 -0.19226933425E+01  0.33073461556E+02 -0.96642419046E+02  0.10216314290E+03  0.00000000000E+00 0. -1.
<scales pt_clust_5="13000.00000" pt_clust_6="13000.00000" pt_clust_7="13000.00000" pt_clust_8="13000.00000" pt_clust_9="33.12932"></scales>
<clustering>
<clus scale="   33.129">  1  9  2 -1</clus>
<clus scale="   91.933">  5  6 -1 -1</clus>
<clus scale="   91.984">  7  8 -1 -1</clus>
<clus scale="  155.296">  2  5  1 -1</clus>
<clus scale="   33.129">  1  5  2 -1</clus>
</clustering>
</event>
<event>
 9    1  0.1610296E-005  0.1256424E+03  0.7546771E-02  0.1240169E+00
         21   -1    0    0  501  502  0.00000000000E+00  0.00000000000E+00  0.81175851258E+02  0.81175851258E+02  0.00000000000E+00 0.  1.
          3   -1    0    0  502    0 -0.00000000000E+00 -0.00000000000E+00 -0.56447363351E+03  0.56447363351E+03  0.00000000000E+00 0. -1.
         23    2    1    2    0    0  0.47924135801E+02 -0.14668749391E+02 -0.11818117399E+03  0.15759382665E+03  0.91417335943E+02 0.  0.
         23    2    1    2    0    0 -0.10536239274E+03 -0.15082113256E+02 -0.41109071677E+02  0.15765415850E+03  0.10879418170E+03 0.  0.
        -13    1    3    3    0    0  0.24002741404E+02 -0.20483015403E+02  0.50251592929E+01  0.31952116374E+02  0.00000000000E+00 0. -1.
         13    1    3    3    0    0  0.23921394397E+02  0.58142660112E+01 -0.12320633329E+03  0.12564171028E+03  0.00000000000E+00 0.  1.
        -13    1    4    4    0    0 -0.45632594450E+02 -0.36824653660E+02  0.26944677894E+02  0.64532197082E+02  0.00000000000E+00 0.  1.
         13    1    4    4    0    0 -0.59729798292E+02  0.21742540403E+02 -0.68053749571E+02  0.93121961416E+02  0.00000000000E+00 0. -1.
          3    1    1    2  501    0  0.57438256942E+02  0.29750862648E+02 -0.32400753658E+03  0.33040149962E+03  0.00000000000E+00 0. -1.
<scales pt_clust_5="13000.00000" pt_clust_6="13000.00000" pt_clust_7="13000.00000" pt_clust_8="13000.00000" pt_clust_9="64.68594"></scales>
<clustering>
<clus scale="   64.686">  1  9  2 -1</clus>
<clus scale="   91.417">  5  6 -1 -1</clus>
<clus scale="  108.794">  7  8 -1 -1</clus>
<clus scale="  110.937">  2  5  1 -1</clus>
<clus scale="   64.686">  1  5  2 -1</clus>
</clustering>
</event>
<event>
 9    1  0.1610296E-005  0.1666659E+03  0.7546771E-02  0.1199978E+00
         -2   -1    0    0    0  501 -0.00000000000E+00  0.00000000000E+00  0.11727574343E+03  0.11727574343E+03  0.00000000000E+00 0.  1.
         21   -1    0    0  501  502  0.00000000000E+00 -0.00000000000E+00 -0.39367583602E+03  0.39367583602E+03  0.00000000000E+00 0. -1.
         23    2    1    2    0    0  0.41813459352E+02  0.44548209208E+02 -0.64200308517E+02  0.12782581386E+03  0.92113249588E+02 0.  0.
         23    2    1    2    0    0  0.10861567603E+03 -0.58855573915E+02 -0.51009237045E+02  0.16218229338E+03  0.91868440519E+02 0.  0.
        -11    1    3    3    0    0  0.44771473110E+02  0.66890235768E+02 -0.67500957670E+02  0.10504840661E+03  0.00000000000E+00 0. -1.
         11    1    3    3    0    0 -0.29580137585E+01 -0.22342026561E+02  0.33006491530E+01  0.22777407251E+02  0.00000000000E+00 0.  1.
        -13    1    4    4    0    0  0.64667191778E+02  0.13586301676E+02 -0.38657272304E+02  0.76555979438E+02  0.00000000000E+00 0.  1.
         13    1    4    4    0    0  0.43948484251E+02 -0.72441875591E+02 -0.12351964741E+02  0.85626313946E+02  0.00000000000E+00 0. -1.
         -2    1    1    2    0  502 -0.15042913538E+03  0.14307364707E+02 -0.16119054703E+03  0.22094347220E+03  0.00000000000E+00 0.  1.
<scales pt_clust_5="13000.00000" pt_clust_6="13000.00000" pt_clust_7="13000.00000" pt_clust_8="13000.00000" pt_clust_9="139.06009"></scales>
<clustering>
<clus scale="   91.868">  7  8 -1 -1</clus>
<clus scale="   92.113">  5  6 -1 -1</clus>
<clus scale="  110.534">  1  5  2 -1</clus>
<clus scale="  139.060">  2  9  1 -1</clus>
<clus scale="  139.060">  2  5  1 -1</clus>
</clustering>
</event>
<event>
 9    1  0.1610296E-005  0.1009141E+03  0.7546771E-02  0.1279467E+00
         -2   -1    0    0    0  501 -0.00000000000E+00  0.00000000000E+00  0.76943271258E+02  0.76943271258E+02  0.00000000000E+00 0.  1.
         21   -1    0    0  501  502  0.00000000000E+00 -0.00000000000E+00 -0.16909544247E+03  0.16909544247E+03  0.00000000000E+00 0. -1.
         23    2    1    2    0    0 -0.87423809294E+01  0.49947650646E+02 -0.19390327199E+02  0.10565258961E+03  0.90638225229E+02 0.  0.
         23    2    1    2    0    0 -0.10830382001E+02 -0.36939399353E+02 -0.55248364713E+02  0.11107691724E+03  0.88339591023E+02 0.  0.
        -11    1    3    3    0    0 -0.43065667347E+02  0.45509675290E+01 -0.22214522148E+02  0.48670812647E+02  0.00000000000E+00 0. -1.
         11    1    3    3    0    0  0.34323286417E+02  0.45396683117E+02  0.28241949494E+01  0.56981776961E+02  0.00000000000E+00 0.  1.
        -11    1    4    4    0    0  0.35791483826E+02 -0.10403081660E+02 -0.50591839097E+01  0.37614488755E+02  0.00000000000E+00 0.  1.
         11    1    4    4    0    0 -0.46621865826E+02 -0.26536317693E+02 -0.50189180803E+02  0.73462428489E+02  0.00000000000E+00 0. -1.
         -2    1    1    2    0  502  0.19572762930E+02 -0.13008251293E+02 -0.17513479297E+02  0.29309206872E+02  0.00000000000E+00 0.  1.
<scales pt_clust_5="13000.00000" pt_clust_6="13000.00000" pt_clust_7="13000.00000" pt_clust_8="13000.00000" pt_clust_9="23.50123"></scales>
<clustering>
<clus scale="   23.501">  2  9  1 -1</clus>
<clus scale="   88.340">  7  8 -1 -1</clus>
<clus scale="   90.638">  5  6 -1 -1</clus>
<clus scale="   98.855">  2  7  1 -1</clus>
<clus scale="   23.501">  2  5  1 -1</clus>
</clustering>
</event>
<event>
 9    1  0.1610296E-005  0.9976914E+02  0.7546771E-02  0.1281402E+00
          2   -1    0    0  502    0 -0.00000000000E+00  0.00000000000E+00  0.14293845151E+03  0.14293845151E+03  0.00000000000E+00 0. -1.
         21   -1    0    0  501  502  0.00000000000E+00 -0.00000000000E+00 -0.13973757282E+03  0.13973757282E+03  0.00000000000E+00 0. -1.
         23    2    1    2    0    0 -0.55698482091E+02 -0.19428737819E+02  0.58005203427E+02  0.12351781607E+03  0.91718321516E+02 0.  0.
         23    2    1    2    0    0 -0.43332185233E+00  0.12079142987E+02 -0.22520229651E+02  0.93988746442E+02  0.90446836600E+02 0.  0.
        -11    1    3    3    0    0 -0.11545030237E+02 -0.51619510467E+02  0.38797076400E+02  0.65597825583E+02  0.00000000000E+00 0. -1.
         11    1    3    3    0    0 -0.44153451853E+02  0.32190772647E+02  0.19208127027E+02  0.57919990488E+02  0.00000000000E+00 0.  1.
        -11    1    4    4    0    0 -0.39887748532E+02  0.66182014882E+01 -0.33681521123E+02  0.52623929339E+02  0.00000000000E+00 0.  1.
         11    1    4    4    0    0  0.39454426680E+02  0.54609414989E+01  0.11161291472E+02  0.41364817103E+02  0.00000000000E+00 0. -1.
          2    1    1    2  501    0  0.56131803943E+02  0.73495948324E+01 -0.32284095079E+02  0.65169461815E+02  0.00000000000E+00 0. -1.
<scales pt_clust_5="13000.00000" pt_clust_6="13000.00000" pt_clust_7="13000.00000" pt_clust_8="13000.00000" pt_clust_9="56.61092"></scales>
<clustering>
<clus scale="   56.611">  2  9  1 -1</clus>
<clus scale="   90.447">  7  8 -1 -1</clus>
<clus scale="   91.718">  5  6 -1 -1</clus>
<clus scale="   98.602">  2  7  1 -1</clus>
<clus scale="   56.611">  2  5  1 -1</clus>
</clustering>
</event>
<event>
 9    1  0.1610296E-005  0.1131838E+03  0.7546771E-02  0.1258008E+00
          1   -1    0    0  502    0 -0.00000000000E+00  0.00000000000E+00  0.30360511672E+03  0.30360511672E+03  0.00000000000E+00 0. -1.
         21   -1    0    0  501  502  0.00000000000E+00 -0.00000000000E+00 -0.54475551263E+02  0.54475551263E+02  0.00000000000E+00 0.  1.
         23    2    1    2    0    0 -0.35868651731E+02  0.55077465017E+02  0.14699096549E+03  0.18512422518E+03  0.91348494697E+02 0.  0.
         23    2    1    2    0    0  0.23823909870E+02 -0.32323170569E+02  0.10085665762E+03  0.14717898950E+03  0.99384221726E+02 0.  0.
        -13    1    4    4    0    0  0.59185247789E+02 -0.37949606841E+02  0.56647378810E+02  0.90288380987E+02  0.00000000000E+00 0. -1.
         13    1    4    4    0    0 -0.35361337919E+02  0.56264362719E+01  0.44209278811E+02  0.56890608518E+02  0.00000000000E+00 0.  1.
        -13    1    3    3    0    0 -0.49034525771E+02  0.57605364595E+01  0.30737156077E+02  0.58157899391E+02  0.00000000000E+00 0.  1.
         13    1    3    3    0    0  0.13165874040E+02  0.49316928558E+02  0.11625380942E+03  0.12696632579E+03  0.00000000000E+00 0. -1.
          1    1    1    2  501    0  0.12044741861E+02 -0.22754294448E+02  0.12819423458E+01  0.25777453298E+02  0.00000000000E+00 0. -1.
<scales pt_clust_5="13000.00000" pt_clust_6="13000.00000" pt_clust_7="13000.00000" pt_clust_8="13000.00000" pt_clust_9="25.74556"></scales>
<clustering>
<clus scale="   25.746">  2  9  1 -1</clus>
<clus scale="   91.348">  7  8 -1 -1</clus>
<clus scale="   99.384">  5  6 -1 -1</clus>
<clus scale="  106.197">  1  7  2 -1</clus>
<clus scale="   25.746">  2  5  1 -1</clus>
</clustering>
</event>
<event>
 9    1  0.1610296E-005  0.1039412E+03  0.7546771E-02  0.1277926E+00
         -1   -1    0    0    0  501 -0.00000000000E+00  0.00000000000E+00  0.43299413307E+03  0.43299413307E+03  0.00000000000E+00 0.  1.
         21   -1    0    0  501  502  0.00000000000E+00 -0.00000000000E+00 -0.30179977129E+02  0.30179977129E+02  0.00000000000E+00 0. -1.
         23    2    1    2    0    0 -0.20924815263E+02  0.37672515282E+01  0.24819698823E+03  0.26879417796E+03  0.10097784441E+03 0.  0.
         23    2    1    2    0    0  0.29387091066E+02  0.16005543492E+02  0.13227497995E+03  0.16336788798E+03  0.89847748777E+02 0.  0.
        -13    1    4    4    0    0  0.29199591919E+02  0.51881343663E+02  0.90178818821E+02  0.10805789815E+03  0.00000000000E+00 0.  1.
         13    1    4    4    0    0  0.18749914656E+00 -0.35875800171E+02  0.42096161125E+02  0.55309989833E+02  0.00000000000E+00 0. -1.
        -13    1    3    3    0    0 -0.57921527010E+02 -0.85540570727E+01  0.18938598871E+03  0.19822998740E+03  0.00000000000E+00 0.  1.
         13    1    3    3    0    0  0.36996711747E+02  0.12321308601E+02  0.58810999518E+02  0.70564190565E+02  0.00000000000E+00 0. -1.
         -1    1    1    2    0  502 -0.84622758032E+01 -0.19772795020E+02  0.22342187763E+02  0.31012044253E+02  0.00000000000E+00 0.  1.
<scales pt_clust_5="13000.00000" pt_clust_6="13000.00000" pt_clust_7="13000.00000" pt_clust_8="13000.00000" pt_clust_9="21.50752"></scales>
<clustering>
<clus scale="   21.508">  2  9  1 -1</clus>
<clus scale="   89.848">  5  6 -1 -1</clus>
<clus scale="   93.166">  2  5  1 -1</clus>
<clus scale="  100.978">  7  8 -1 -1</clus>
<clus scale="   21.508">  2  5  1 -1</clus>
</clustering>
</event>
<event>
 9    1  0.1610296E-005  0.9499576E+02  0.7546771E-02  0.1292106E+00
         -3   -1    0    0    0  501 -0.00000000000E+00  0.00000000000E+00  0.11541677503E+03  0.11541677503E+03  0.00000000000E+00 0.  1.
         21   -1    0    0  501  502  0.00000000000E+00 -0.00000000000E+00 -0.12553233960E+03  0.12553233960E+03  0.00000000000E+00 0. -1.
         23    2    1    2    0    0 -0.19812944039E+02 -0.26623772804E+01  0.43273539180E+02  0.10281782198E+03  0.91100298133E+02 0.  0.
         23    2    1    2    0    0  0.41878158433E+02 -0.65012975384E+00 -0.24680556139E+02  0.10177160212E+03  0.89409878225E+02 0.  0.
        -11    1    3    3    0    0 -0.31500120402E+02  0.36975248374E+02  0.96061683585E+01  0.49514695275E+02  0.00000000000E+00 0.  1.
         11    1    3    3    0    0  0.11687176363E+02 -0.39637625654E+02  0.33667370821E+02  0.53303126708E+02  0.00000000000E+00 0. -1.
        -13    1    4    4    0    0  0.69623826975E+02 -0.62922007110E+01 -0.22208214839E+02  0.73350350229E+02  0.00000000000E+00 0. -1.
         13    1    4    4    0    0 -0.27745668541E+02  0.56420709572E+01 -0.24723413000E+01  0.28421251890E+02  0.00000000000E+00 0.  1.
         -3    1    1    2    0  502 -0.22065214394E+02  0.33125070342E+01 -0.28708547609E+02  0.36359690523E+02  0.00000000000E+00 0.  1.
<scales pt_clust_5="13000.00000" pt_clust_6="13000.00000" pt_clust_7="13000.00000" pt_clust_8="13000.00000" pt_clust_9="22.31247"></scales>
<clustering>
<clus scale="   22.312">  2  9  1 -1</clus>
<clus scale="   89.410">  7  8 -1 -1</clus>
<clus scale="   91.100">  5  6 -1 -1</clus>
<clus scale="   93.376">  2  7  1 -1</clus>
<clus scale="   22.312">  2  5  1 -1</clus>
</clustering>
</event>
<event>
 9    1  0.1610296E-005  0.1408960E+03  0.7546771E-02  0.1215593E+00
         21   -1    0    0  501  502  0.00000000000E+00  0.00000000000E+00  0.25263532883E+03  0.25263532883E+03  0.00000000000E+00 0.  1.
         -2   -1    0    0    0  501 -0.00000000000E+00 -0.00000000000E+00 -0.20029963283E+03  0.20029963283E+03  0.00000000000E+00 0.  1.
         23    2    1    2    0    0  0.84575501373E+02  0.31707898081E+02 -0.11381737532E+03  0.17145278762E+03  0.91012401495E+02 0.  0.
         23    2    1    2    0    0 -0.11315013644E+03 -0.30783767935E+01  0.56021403982E+02  0.16415722609E+03  0.10486547284E+03 0.  0.
        -11    1    4    4    0    0 -0.72001384572E+01  0.20706283124E+02 -0.21525205911E+02  0.30723389203E+02  0.00000000000E+00 0.  1.
         11    1    4    4    0    0 -0.10594999799E+03 -0.23784659917E+02  0.77546609894E+02  0.13343383689E+03  0.00000000000E+00 0. -1.
        -11    1    3    3    0    0  0.38098079192E+02  0.57142387331E+02 -0.36643408524E+02  0.77842504176E+02  0.00000000000E+00 0.  1.
         11    1    3    3    0    0  0.46477422181E+02 -0.25434489251E+02 -0.77173966797E+02  0.93610283449E+02  0.00000000000E+00 0. -1.
         -2    1    1    2    0  502  0.28574635072E+02 -0.28629521287E+02  0.11013166734E+03  0.11732494794E+03  0.00000000000E+00 0.  1.
<scales pt_clust_5="13000.00000" pt_clust_6="13000.00000" pt_clust_7="13000.00000" pt_clust_8="13000.00000" pt_clust_9="40.44947"></scales>
<clustering>
<clus scale="   40.449">  1  9  2 -1</clus>
<clus scale="   91.012">  7  8 -1 -1</clus>
<clus scale="  104.865">  5  6 -1 -1</clus>
<clus scale="  130.913">  2  7  1 -1</clus>
<clus scale="   40.449">  1  5  2 -1</clus>
</clustering>
</event>
<event>
 9    1  0.1610296E-005  0.2521286E+03  0.7546771E-02  0.1112385E+00
         21   -1    0    0  501  502  0.00000000000E+00  0.00000000000E+00  0.76558244554E+02  0.76558244554E+02  0.00000000000E+00 0. -1.
          2   -1    0    0  502    0 -0.00000000000E+00 -0.00000000000E+00 -0.15581394102E+04  0.15581394102E+04  0.00000000000E+00 0. -1.
         23    2    1    2    0    0  0.25230186937E+03 -0.27756602990E+02 -0.10210916153E+04  0.10557328509E+04  0.86701230530E+02 0.  0.
         23    2    1    2    0    0 -0.20544273998E+03 -0.58364699778E+01 -0.46905426727E+03  0.52067563733E+03  0.94076723334E+02 0.  0.
        -13    1    3    3    0    0  0.23685897799E+03 -0.48540546829E+02 -0.90061103353E+03  0.93250125676E+03  0.00000000000E+00 0. -1.
         13    1    3    3    0    0  0.15442891387E+02  0.20783943839E+02 -0.12048058176E+03  0.12323159416E+03  0.00000000000E+00 0.  1.
        -13    1    4    4    0    0 -0.15795939836E+03  0.36280568153E+02 -0.32118375295E+03  0.35975888358E+03  0.00000000000E+00 0. -1.
         13    1    4    4    0    0 -0.47483341616E+02 -0.42117038130E+02 -0.14787051431E+03  0.16091675374E+03  0.00000000000E+00 0.  1.
          2    1    1    2  501    0 -0.46859129398E+02  0.33593072968E+02  0.85647168991E+01  0.58289166531E+02  0.00000000000E+00 0. -1.
<scales pt_clust_5="13000.00000" pt_clust_6="13000.00000" pt_clust_7="13000.00000" pt_clust_8="13000.00000" pt_clust_9="57.65650"></scales>
<clustering>
<clus scale="   57.657">  1  9  2 -1</clus>
<clus scale="   86.701">  5  6 -1 -1</clus>
<clus scale="   94.077">  7  8 -1 -1</clus>
<clus scale="  249.470">  2  5  1 -1</clus>
<clus scale="   57.657">  1  5  2 -1</clus>
</clustering>
</event>
<event>
 9    1  0.1610296E-005  0.9133251E+02  0.7546771E-02  0.1301983E+00
         -1   -1    0    0    0  501 -0.00000000000E+00  0.00000000000E+00  0.67951806472E+02  0.67951806472E+02  0.00000000000E+00 0.  1.
         21   -1    0    0  501  502  0.00000000000E+00 -0.00000000000E+00 -0.34641644013E+03  0.34641644013E+03  0.00000000000E+00 0.  1.
         23    2    1    2    0    0  0.15788719490E+02 -0.29101356421E+02 -0.18294909027E+02  0.94943228588E+02  0.87082376803E+02 0.  0.
         23    2    1    2    0    0  0.15764588671E+02 -0.35313912686E+02 -0.85747474429E+02  0.13083005648E+03  0.90930080958E+02 0.  0.
        -11    1    4    4    0    0  0.48898726001E+02 -0.66724257070E+01 -0.66938541886E+02  0.83164746493E+02  0.00000000000E+00 0.  1.
         11    1    4    4    0    0 -0.33134137330E+02 -0.28641486979E+02 -0.18808932542E+02  0.47665309989E+02  0.00000000000E+00 0. -1.
        -13    1    3    3    0    0  0.13660796500E+02  0.30060481938E+02 -0.13074977182E+02  0.35513447646E+02  0.00000000000E+00 0. -1.
         13    1    3    3    0    0  0.21279229896E+01 -0.59161838360E+02 -0.52199318452E+01  0.59429780942E+02  0.00000000000E+00 0.  1.
         -1    1    1    2    0  502 -0.31553308161E+02  0.64415269107E+02 -0.17442225021E+03  0.18859496154E+03  0.00000000000E+00 0.  1.
<scales pt_clust_5="13000.00000" pt_clust_6="13000.00000" pt_clust_7="13000.00000" pt_clust_8="13000.00000" pt_clust_9="71.72822"></scales>
<clustering>
<clus scale="   71.728">  2  9  1 -1</clus>
<clus scale="   87.082">  7  8 -1 -1</clus>
<clus scale="   87.503">  1  7  2 -1</clus>
<clus scale="   90.930">  5  6 -1 -1</clus>
<clus scale="   71.728">  2  5  1 -1</clus>
</clustering>
</event>
<event>
 9    1  0.1610296E-005  0.1659820E+03  0.7546771E-02  0.1201135E+00
         21   -1    0    0  501  502  0.00000000000E+00  0.00000000000E+00  0.14879669670E+03  0.14879669670E+03  0.00000000000E+00 0.  1.
         -1   -1    0    0    0  501 -0.00000000000E+00 -0.00000000000E+00 -0.35315058837E+03  0.35315058837E+03  0.00000000000E+00 0.  1.
         23    2    1    2    0    0 -0.40114387055E+02  0.41682421764E+02 -0.15287650116E+03  0.18783126251E+03  0.92535237819E+02 0.  0.
         23    2    1    2    0    0  0.15118435548E+03 -0.73752556166E+02 -0.12056775372E+02  0.19197259741E+03  0.91716756608E+02 0.  0.
        -11    1    3    3    0    0 -0.55821814273E+01  0.65538260129E+02 -0.78353161789E+02  0.10230172165E+03  0.00000000000E+00 0.  1.
         11    1    3    3    0    0 -0.34532205628E+02 -0.23855838365E+02 -0.74523339368E+02  0.85529540863E+02  0.00000000000E+00 0. -1.
        -13    1    4    4    0    0  0.11753782463E+03 -0.95462803825E+02 -0.12406437489E+02  0.15192829501E+03  0.00000000000E+00 0.  1.
         13    1    4    4    0    0  0.33646530849E+02  0.21710247658E+02  0.34966211665E+00  0.40044302406E+02  0.00000000000E+00 0. -1.
         -1    1    1    2    0  502 -0.11106996843E+03  0.32070134403E+02 -0.39420615146E+02  0.12214342514E+03  0.00000000000E+00 0.  1.
<scales pt_clust_5="13000.00000" pt_clust_6="13000.00000" pt_clust_7="13000.00000" pt_clust_8="13000.00000" pt_clust_9="138.34042"></scales>
<clustering>
<clus scale="   91.717">  7  8 -1 -1</clus>
<clus scale="   92.535">  5  6 -1 -1</clus>
<clus scale="  109.130">  2  5  1 -1</clus>
<clus scale="  138.340">  1  9  2 -1</clus>
<clus scale="  138.340">  1  5  2 -1</clus>
</clustering>
</event>
<event>
 9    1  0.1610296E-005  0.1271064E+03  0.7546771E-02  0.1232078E+00
         21   -1    0    0  501  502  0.00000000000E+00  0.00000000000E+00  0.23467667173E+03  0.23467667173E+03  0.00000000000E+00 0. -1.
         -2   -1    0    0    0  501 -0.00000000000E+00 -0.00000000000E+00 -0.23440285226E+03  0.23440285226E+03  0.00000000000E+00 0.  1.
         23    2    1    2    0    0 -0.75275863268E+02 -0.26101740492E+02 -0.15054443232E+03  0.19396105642E+03  0.92787439104E+02 0.  0.
         23    2    1    2    0    0  0.12748838720E+03  0.92440869661E+01  0.58870978991E+02  0.16804545924E+03  0.91840852500E+02 0.  0.
        -11    1    4    4    0    0  0.70149572052E+02  0.34272439762E+02  0.69570987466E+02  0.10457382504E+03  0.00000000000E+00 0. -1.
         11    1    4    4    0    0  0.57338815152E+02 -0.25028352796E+02 -0.10700008474E+02  0.63471634201E+02  0.00000000000E+00 0.  1.
        -13    1    3    3    0    0 -0.63698629992E+02 -0.52028848222E+02 -0.68154523967E+02  0.10681552157E+03  0.00000000000E+00 0.  1.
         13    1    3    3    0    0 -0.11577233276E+02  0.25927107730E+02 -0.82389908357E+02  0.87145534852E+02  0.00000000000E+00 0. -1.
         -2    1    1    2    0  502 -0.52212523937E+02  0.16857653526E+02  0.91947272801E+02  0.10707300833E+03  0.00000000000E+00 0.  1.
<scales pt_clust_5="13000.00000" pt_clust_6="13000.00000" pt_clust_7="13000.00000" pt_clust_8="13000.00000" pt_clust_9="54.86646"></scales>
<clustering>
<clus scale="   54.866">  1  9  2 -1</clus>
<clus scale="   91.841">  5  6 -1 -1</clus>
<clus scale="   92.787">  7  8 -1 -1</clus>
<clus scale="  126.417">  1  5  2 -1</clus>
<clus scale="   54.866">  1  5  2 -1</clus>
</clustering>
</event>
<event>
 9    1  0.1610296E-005  0.1139123E+03  0.7546771E-02  0.1257805E+00
         -2   -1    0    0    0  501 -0.00000000000E+00  0.00000000000E+00  0.26163771788E+03  0.26163771788E+03  0.00000000000E+00 0.  1.
         21   -1    0    0  501  502  0.00000000000E+00 -0.00000000000E+00 -0.70507751519E+02  0.70507751519E+02  0.00000000000E+00 0. -1.
         23    2    1    2    0    0 -0.50881814197E+02  0.57178732921E+02  0.12285251067E+03  0.17506434899E+03  0.98470403658E+02 0.  0.
         23    2    1    2    0    0  0.15815183097E+02 -0.28864679613E+02  0.30738764175E+02  0.98425280182E+02  0.87517851953E+02 0.  0.
        -13    1    3    3    0    0 -0.71393762998E+02  0.47519222059E+02  0.51137750794E+02  0.99850966026E+02  0.00000000000E+00 0. -1.
         13    1    3    3    0    0  0.20511948801E+02  0.96595108619E+01  0.71714759871E+02  0.75213382965E+02  0.00000000000E+00 0.  1.
        -13    1    4    4    0    0  0.49006699780E+02 -0.29804911107E+02  0.73887386910E+01  0.57832368176E+02  0.00000000000E+00 0.  1.
         13    1    4    4    0    0 -0.33191516684E+02  0.94023149381E+00  0.23350025484E+02  0.40592912006E+02  0.00000000000E+00 0. -1.
         -2    1    1    2    0  502  0.35066631100E+02 -0.28314053308E+02  0.37538691519E+02  0.58655840224E+02  0.00000000000E+00 0.  1.
<scales pt_clust_5="13000.00000" pt_clust_6="13000.00000" pt_clust_7="13000.00000" pt_clust_8="13000.00000" pt_clust_9="45.07057"></scales>
<clustering>
<clus scale="   45.071">  2  9  1 -1</clus>
<clus scale="   87.518">  7  8 -1 -1</clus>
<clus scale="   98.470">  5  6 -1 -1</clus>
<clus scale="  104.590">  2  7  1 -1</clus>
<clus scale="   45.071">  2  5  1 -1</clus>
</clustering>
</event>
<event>
 9    1  0.1610296E-005  0.1120900E+03  0.7546771E-02  0.1257703E+00
         21   -1    0    0  501  502  0.00000000000E+00  0.00000000000E+00  0.21776489742E+03  0.21776489742E+03  0.00000000000E+00 0. -1.
          2   -1    0    0  502    0 -0.00000000000E+00 -0.00000000000E+00 -0.14387799011E+03  0.14387799011E+03  0.00000000000E+00 0. -1.
         23    2    1    2    0    0  0.50860948275E+02 -0.11890863065E+02 -0.38584159115E+02  0.11047599494E+03  0.89375496867E+02 0.  0.
         23    2    1    2    0    0 -0.82976628903E+02  0.83898721622E+01 -0.99737599594E+01  0.12453194722E+03  0.91941389440E+02 0.  0.
        -11    1    3    3    0    0  0.37338332562E+02  0.21369920879E+02 -0.55961754939E+02  0.70587127813E+02  0.00000000000E+00 0.  1.
         11    1    3    3    0    0  0.13522615712E+02 -0.33260783944E+02  0.17377595825E+02  0.39888867130E+02  0.00000000000E+00 0. -1.
        -13    1    4    4    0    0 -0.52384510514E+02 -0.20249381202E+02  0.32481485231E+02  0.64878511571E+02  0.00000000000E+00 0.  1.
         13    1    4    4    0    0 -0.30592118389E+02  0.28639253364E+02 -0.42455245191E+02  0.59653435651E+02  0.00000000000E+00 0. -1.
          2    1    1    2  501    0  0.32115680628E+02  0.35009909025E+01  0.12244482638E+03  0.12663494536E+03  0.00000000000E+00 0. -1.
<scales pt_clust_5="13000.00000" pt_clust_6="13000.00000" pt_clust_7="13000.00000" pt_clust_8="13000.00000" pt_clust_9="32.30594"></scales>
<clustering>
<clus scale="   32.306">  1  9  2 -1</clus>
<clus scale="   89.375">  5  6 -1 -1</clus>
<clus scale="   91.941">  7  8 -1 -1</clus>
<clus scale="  109.995">  2  5  1 -1</clus>
<clus scale="   32.306">  1  5  2 -1</clus>
</clustering>
</event>
<event>
 9    1  0.1610296E-005  0.1039703E+03  0.7546771E-02  0.1272252E+00
          2   -1    0    0  502    0 -0.00000000000E+00  0.00000000000E+00  0.34834305746E+03  0.34834305746E+03  0.00000000000E+00 0. -1.
         21   -1    0    0  501  502  0.00000000000E+00 -0.00000000000E+00 -0.96654947729E+02  0.96654947729E+02  0.00000000000E+00 0. -1.
         23    2    1    2    0    0 -0.44394552379E+02 -0.90635545543E+01  0.25915653851E+03  0.27847979652E+03  0.91300938193E+02 0.  0.
         23    2    1    2    0    0  0.81028510014E+02  0.20511921804E+02 -0.21817984773E+02  0.12554234111E+03  0.91096084334E+02 0.  0.
        -11    1    3    3    0    0 -0.21689468922E+01 -0.44988506424E+02  0.13978620201E+03  0.14686337976E+03  0.00000000000E+00 0.  1.
         11    1    3    3    0    0 -0.42225605487E+02  0.35924951870E+02  0.11937033650E+03  0.13161641676E+03  0.00000000000E+00 0. -1.
        -13    1    4    4    0    0  0.34428471824E+02 -0.23673997459E+01  0.34604219308E+02  0.48871016438E+02  0.00000000000E+00 0.  1.
         13    1    4    4    0    0  0.46600038189E+02  0.22879321550E+02 -0.56422204081E+02  0.76671324674E+02  0.00000000000E+00 0. -1.
          2    1    1    2  501    0 -0.36633957635E+02 -0.11448367250E+02  0.14349555990E+02  0.40975867554E+02  0.00000000000E+00 0. -1.
<scales pt_clust_5="13000.00000" pt_clust_6="13000.00000" pt_clust_7="13000.00000" pt_clust_8="13000.00000" pt_clust_9="38.38114"></scales>
<clustering>
<clus scale="   38.381">  2  9  1 -1</clus>
<clus scale="   91.096">  7  8 -1 -1</clus>
<clus scale="   91.301">  5  6 -1 -1</clus>
<clus scale="  103.790">  2  7  1 -1</clus>
<clus scale="   38.381">  2  5  1 -1</clus>
</clustering>
</event>
<event>
 9    1  0.1610296E-005  0.1070155E+03  0.7546771E-02  0.1267688E+00
         -3   -1    0    0    0  501 -0.00000000000E+00  0.00000000000E+00  0.16540856327E+03  0.16540856327E+03  0.00000000000E+00 0.  1.
         21   -1    0    0  501  502  0.00000000000E+00 -0.00000000000E+00 -0.13040067003E+03  0.13040067003E+03  0.00000000000E+00 0. -1.
         23    2    1    2    0    0  0.35539822510E+02  0.36619050987E+02  0.61405200002E+02  0.11959287835E+03  0.89038329307E+02 0.  0.
         23    2    1    2    0    0 -0.56123312652E+02 -0.44959330256E+02  0.30033214618E+02  0.11557277269E+03  0.85345791976E+02 0.  0.
        -11    1    3    3    0    0 -0.25266100279E+02  0.23439446441E+02  0.42185969435E+02  0.54474209401E+02  0.00000000000E+00 0.  1.
         11    1    3    3    0    0  0.60805922789E+02  0.13179604546E+02  0.19219230567E+02  0.65118668950E+02  0.00000000000E+00 0. -1.
        -13    1    4    4    0    0 -0.49023038618E+02 -0.24005872159E+02  0.58176288754E+02  0.79774812984E+02  0.00000000000E+00 0.  1.
         13    1    4    4    0    0 -0.71002740342E+01 -0.20953458097E+02 -0.28143074136E+02  0.35797959711E+02  0.00000000000E+00 0. -1.
         -3    1    1    2    0  502  0.20583490142E+02  0.83402792693E+01 -0.56430521378E+02  0.60643582246E+02  0.00000000000E+00 0.  1.
<scales pt_clust_5="13000.00000" pt_clust_6="13000.00000" pt_clust_7="13000.00000" pt_clust_8="13000.00000" pt_clust_9="22.20901"></scales>
<clustering>
<clus scale="   22.209">  2  9  1 -1</clus>
<clus scale="   85.346">  7  8 -1 -1</clus>
<clus scale="   89.038">  5  6 -1 -1</clus>
<clus scale="  103.963">  2  7  1 -1</clus>
<clus scale="   22.209">  2  5  1 -1</clus>
</clustering>
</event>
<event>
 9    1  0.1610296E-005  0.2194785E+03  0.7546771E-02  0.1134276E+00
         21   -1    0    0  501  502  0.00000000000E+00  0.00000000000E+00  0.51570170940E+02  0.51570170940E+02  0.00000000000E+00 0.  1.
          1   -1    0    0  502    0 -0.00000000000E+00 -0.00000000000E+00 -0.13561661481E+04  0.13561661481E+04  0.00000000000E+00 0. -1.
         23    2    1    2    0    0 -0.19457570663E+03 -0.98972497720E+00 -0.93390073685E+03  0.95833067348E+03  0.91468072378E+02 0.  0.
         23    2    1    2    0    0  0.21395087923E+03  0.95923330908E+01 -0.34066178769E+03  0.41264411057E+03  0.91420549194E+02 0.  0.
        -11    1    3    3    0    0 -0.60593270682E+02 -0.22794099362E-01 -0.13109834667E+03  0.14442410281E+03  0.00000000000E+00 0.  1.
         11    1    3    3    0    0 -0.13398243595E+03 -0.96693087784E+00 -0.80280239018E+03  0.81390657067E+03  0.00000000000E+00 0. -1.
        -13    1    4    4    0    0  0.69876050976E+02  0.44603585343E+02 -0.99008376105E+02  0.12913094464E+03  0.00000000000E+00 0. -1.
         13    1    4    4    0    0  0.14407482826E+03 -0.35011252253E+02 -0.24165341158E+03  0.28351316592E+03  0.00000000000E+00 0.  1.
          1    1    1    2  501    0 -0.19375172600E+02 -0.86026081136E+01 -0.30033452660E+02  0.36761535037E+02  0.00000000000E+00 0. -1.
<scales pt_clust_5="13000.00000" pt_clust_6="13000.00000" pt_clust_7="13000.00000" pt_clust_8="13000.00000" pt_clust_9="21.19911"></scales>
<clustering>
<clus scale="   21.199">  1  9  2 -1</clus>
<clus scale="   91.421">  7  8 -1 -1</clus>
<clus scale="   91.468">  5  6 -1 -1</clus>
<clus scale="  219.459">  1  7  2 -1</clus>
<clus scale="   21.199">  1  5  2 -1</clus>
</clustering>
</event>
<event>
 9    1  0.1610296E-005  0.1030992E+03  0.7546771E-02  0.1274154E+00
         21   -1    0    0  501  502  0.00000000000E+00  0.00000000000E+00  0.12805403325E+03  0.12805403325E+03  0.00000000000E+00 0.  1.
         -1   -1    0    0    0  501 -0.00000000000E+00 -0.00000000000E+00 -0.28361754165E+03  0.28361754165E+03  0.00000000000E+00 0.  1.
         23    2    1    2    0    0  0.30366672334E+02 -0.25942946343E+02 -0.19609997654E+03  0.21990481268E+03  0.91146884670E+02 0.  0.
         23    2    1    2    0    0 -0.81214457857E+02  0.46664354539E+02  0.17553366586E+02  0.13224284259E+03  0.91688050410E+02 0.  0.
        -13    1    4    4    0    0 -0.12959163694E+02 -0.16352903325E+02  0.32027361391E+02  0.38224458772E+02  0.00000000000E+00 0. -1.
         13    1    4    4    0    0 -0.68255294164E+02  0.63017257864E+02 -0.14473994804E+02  0.94018383817E+02  0.00000000000E+00 0.  1.
        -13    1    3    3    0    0  0.24878265233E+02 -0.56556441896E+02 -0.88743930369E+02  0.10813438111E+03  0.00000000000E+00 0.  1.
         13    1    3    3    0    0  0.54884071002E+01  0.30613495553E+02 -0.10735604617E+03  0.11177043157E+03  0.00000000000E+00 0. -1.
         -1    1    1    2    0  502  0.50847785524E+02 -0.20721408196E+02  0.22983101558E+02  0.59523919625E+02  0.00000000000E+00 0.  1.
<scales pt_clust_5="13000.00000" pt_clust_6="13000.00000" pt_clust_7="13000.00000" pt_clust_8="13000.00000" pt_clust_9="54.90787"></scales>
<clustering>
<clus scale="   54.908">  1  9  2 -1</clus>
<clus scale="   91.147">  7  8 -1 -1</clus>
<clus scale="   91.688">  5  6 -1 -1</clus>
<clus scale="  102.618">  2  7  1 -1</clus>
<clus scale="   54.908">  1  5  2 -1</clus>
</clustering>
</event>
<event>
 9    1  0.1610296E-005  0.2561451E+03  0.7546771E-02  0.1111500E+00
         -1   -1    0    0    0  501 -0.00000000000E+00  0.00000000000E+00  0.49152004652E+03  0.49152004652E+03  0.00000000000E+00 0.  1.
         21   -1    0    0  501  502  0.00000000000E+00 -0.00000000000E+00 -0.25315171020E+03  0.25315171020E+03  0.00000000000E+00 0.  1.
         23    2    1    2    0    0  0.78365934524E+02  0.20829740257E+03  0.26759736593E+03  0.36853336442E+03  0.12115883307E+03 0.  0.
         23    2    1    2    0    0 -0.17912837275E+03 -0.17533828735E+03 -0.19270442105E+01  0.26666341506E+03  0.90967986114E+02 0.  0.
        -11    1    4    4    0    0 -0.66857144576E+02 -0.12056865675E+03 -0.23626596537E+02  0.13987456822E+03  0.00000000000E+00 0. -1.
         11    1    4    4    0    0 -0.11227122818E+03 -0.54769630603E+02  0.21699552326E+02  0.12678884684E+03  0.00000000000E+00 0.  1.
        -13    1    3    3    0    0 -0.22325864780E+01  0.31837066994E+02 -0.66569488712E+01  0.32602120260E+02  0.00000000000E+00 0. -1.
         13    1    3    3    0    0  0.80598521002E+02  0.17646033557E+03  0.27425431480E+03  0.33593124416E+03  0.00000000000E+00 0.  1.
         -1    1    1    2    0  502  0.10076243823E+03 -0.32959115217E+02 -0.27301985406E+02  0.10947497724E+03  0.00000000000E+00 0.  1.
<scales pt_clust_5="13000.00000" pt_clust_6="13000.00000" pt_clust_7="13000.00000" pt_clust_8="13000.00000" pt_clust_9="106.01591"></scales>
<clustering>
<clus scale="   90.968">  5  6 -1 -1</clus>
<clus scale="  106.016">  2  9  1 -1</clus>
<clus scale="  121.159">  7  8 -1 -1</clus>
<clus scale="  243.323">  2  5  1 -1</clus>
<clus scale="  106.016">  2  5  1 -1</clus>
</clustering>
</event>
<event>
 9    1  0.1610296E-005  0.1018373E+03  0.7546771E-02  0.1280497E+00
          2   -1    0    0  502    0 -0.00000000000E+00  0.00000000000E+00  0.46017490442E+02  0.46017490442E+02  0.00000000000E+00 0. -1.
         21   -1    0    0  501  502  0.00000000000E+00 -0.00000000000E+00 -0.32884277453E+03  0.32884277453E+03  0.00000000000E+00 0.  1.
         23    2    1    2    0    0 -0.78325590032E+01  0.28631211004E+02 -0.68504719056E+02  0.11667852765E+03  0.89665417291E+02 0.  0.
         23    2    1    2    0    0  0.27118922441E+02 -0.18932342146E+02 -0.10624625797E+03  0.14797244679E+03  0.97538239391E+02 0.  0.
        -13    1    4    4    0    0 -0.11194239322E+01 -0.50750457676E+02 -0.88192500341E+02  0.10175843543E+03  0.00000000000E+00 0.  1.
         13    1    4    4    0    0  0.28238346373E+02  0.31818115530E+02 -0.18053757626E+02  0.46214011362E+02  0.00000000000E+00 0. -1.
        -13    1    3    3    0    0 -0.42757959210E+02  0.31484308537E+02 -0.19783950685E+02  0.56664887404E+02  0.00000000000E+00 0.  1.
         13    1    3    3    0    0  0.34925400207E+02 -0.28530975326E+01 -0.48720768371E+02  0.60013640247E+02  0.00000000000E+00 0. -1.
          2    1    1    2  501    0 -0.19286363438E+02 -0.96988688581E+01 -0.10807430706E+03  0.11020929053E+03  0.00000000000E+00 0. -1.
<scales pt_clust_5="13000.00000" pt_clust_6="13000.00000" pt_clust_7="13000.00000" pt_clust_8="13000.00000" pt_clust_9="21.58777"></scales>
<clustering>
<clus scale="   21.588">  2  9  1 -1</clus>
<clus scale="   89.665">  7  8 -1 -1</clus>
<clus scale="   94.324">  1  7  2 -1</clus>
<clus scale="   97.538">  5  6 -1 -1</clus>
<clus scale="   21.588">  2  5  1 -1</clus>
</clustering>
</event>
<event>
 9    1  0.1610296E-005  0.2184453E+03  0.7546771E-02  0.1154688E+00
          3   -1    0    0  502    0 -0.00000000000E+00  0.00000000000E+00  0.59550709184E+02  0.59550709184E+02  0.00000000000E+00 0. -1.
         21   -1    0    0  501  502  0.00000000000E+00 -0.00000000000E+00 -0.22410989221E+04  0.22410989221E+04  0.00000000000E+00 0. -1.
         23    2    1    2    0    0  0.48780322271E+02 -0.88937635752E+02 -0.15472018171E+03  0.20637437785E+03  0.91447396414E+02 0.  0.
         23    2    1    2    0    0  0.12277340390E+03  0.18612047225E+03 -0.50318863797E+03  0.55793148158E+03  0.91512807097E+02 0.  0.
        -11    1    4    4    0    0  0.11371571197E+03  0.14960385406E+03 -0.32152049231E+03  0.37240838239E+03  0.00000000000E+00 0.  1.
         11    1    4    4    0    0  0.90576919313E+01  0.36516618197E+02 -0.18166814566E+03  0.18552309919E+03  0.00000000000E+00 0. -1.
        -11    1    3    3    0    0 -0.13757599513E+02 -0.58340561056E+02 -0.39605561250E+02  0.71843532003E+02  0.00000000000E+00 0.  1.
         11    1    3    3    0    0  0.62537921784E+02 -0.30597074696E+02 -0.11511462046E+03  0.13453084584E+03  0.00000000000E+00 0. -1.
          3    1    1    2  501    0 -0.17155372618E+03 -0.97182836502E+02 -0.15236393933E+04  0.15363437719E+04  0.00000000000E+00 0. -1.
<scales pt_clust_5="13000.00000" pt_clust_6="13000.00000" pt_clust_7="13000.00000" pt_clust_8="13000.00000" pt_clust_9="198.35261"></scales>
<clustering>
<clus scale="   91.447">  7  8 -1 -1</clus>
<clus scale="   91.513">  5  6 -1 -1</clus>
<clus scale="  136.573">  1  7  2 -1</clus>
<clus scale="  198.353">  2  9  1 -1</clus>
<clus scale="  198.353">  2  5  1 -1</clus>
</clustering>
</event>
<event>
 9    1  0.1610296E-005  0.1078477E+03  0.7546771E-02  0.1265292E+00
         -1   -1    0    0    0  501 -0.00000000000E+00  0.00000000000E+00  0.43026721439E+03  0.43026721439E+03  0.00000000000E+00 0.  1.
         21   -1    0    0  501  502  0.00000000000E+00 -0.00000000000E+00 -0.50805001834E+02  0.50805001834E+02  0.00000000000E+00 0. -1.
         23    2    1    2    0    0  0.54947511195E+02 -0.46576875048E+01  0.21531331448E+03  0.24007400407E+03  0.90745694104E+02 0.  0.
         23    2    1    2    0    0 -0.58037912943E+02  0.27694016492E+02  0.18139450614E+03  0.21205630424E+03  0.89042413592E+02 0.  0.
        -13    1    3    3    0    0  0.33758293889E+02  0.39575208964E+02  0.73702280063E+02  0.90210008632E+02  0.00000000000E+00 0. -1.
         13    1    3    3    0    0  0.21189217306E+02 -0.44232896469E+02  0.14161103442E+03  0.14986399544E+03  0.00000000000E+00 0.  1.
        -13    1    4    4    0    0 -0.50494881327E+02  0.58778086320E+02  0.13595837517E+03  0.15649049892E+03  0.00000000000E+00 0. -1.
         13    1    4    4    0    0 -0.75430316154E+01 -0.31084069828E+02  0.45436130971E+02  0.55565805318E+02  0.00000000000E+00 0.  1.
         -1    1    1    2    0  502  0.30904017476E+01 -0.23036328987E+02 -0.17245608070E+02  0.28941907917E+02  0.00000000000E+00 0.  1.
<scales pt_clust_5="13000.00000" pt_clust_6="13000.00000" pt_clust_7="13000.00000" pt_clust_8="13000.00000" pt_clust_9="23.24270"></scales>
<clustering>
<clus scale="   23.243">  2  9  1 -1</clus>
<clus scale="   89.042">  7  8 -1 -1</clus>
<clus scale="   90.746">  5  6 -1 -1</clus>
<clus scale="  106.419">  2  7  1 -1</clus>
<clus scale="   23.243">  2  5  1 -1</clus>
</clustering>
</event>
<event>
 9    1  0.1610296E-005  0.1039090E+03  0.7546771E-02  0.1275130E+00
         21   -1    0    0  501  502  0.00000000000E+00  0.00000000000E+00  0.50319882021E+03  0.50319882021E+03  0.00000000000E+00 0.  1.
          3   -1    0    0  502    0 -0.00000000000E+00 -0.00000000000E+00 -0.38481971886E+02  0.38481971886E+02  0.00000000000E+00 0. -1.
         23    2    1    2    0    0  0.33532297943E+02  0.19259240720E+02  0.90073097183E+02  0.13291708750E+03  0.89768903048E+02 0.  0.
         23    2    1    2    0    0 -0.50738337050E+02  0.16104233780E+02  0.18450762716E+03  0.21460302693E+03  0.95800153936E+02 0.  0.
        -11    1    4    4    0    0 -0.52658009851E+02  0.51401666760E+02  0.11322491038E+03  0.13503657904E+03  0.00000000000E+00 0.  1.
         11    1    4    4    0    0  0.19196728003E+01 -0.35297432980E+02  0.71282716780E+02  0.79566447893E+02  0.00000000000E+00 0. -1.
        -13    1    3    3    0    0  0.47566547907E+02  0.46485412212E+02  0.68327069671E+02  0.95352286172E+02  0.00000000000E+00 0.  1.
         13    1    3    3    0    0 -0.14034249964E+02 -0.27226171492E+02  0.21746027512E+02  0.37564801326E+02  0.00000000000E+00 0. -1.
          3    1    1    2  501    0  0.17206039108E+02 -0.35363474500E+02  0.19013612398E+03  0.19416067767E+03  0.00000000000E+00 0. -1.
<scales pt_clust_5="13000.00000" pt_clust_6="13000.00000" pt_clust_7="13000.00000" pt_clust_8="13000.00000" pt_clust_9="39.32713"></scales>
<clustering>
<clus scale="   39.327">  1  9  2 -1</clus>
<clus scale="   89.769">  7  8 -1 -1</clus>
<clus scale="   95.800">  5  6 -1 -1</clus>
<clus scale="   98.376">  2  7  1 -1</clus>
<clus scale="   39.327">  1  5  2 -1</clus>
</clustering>
</event>
<event>
 9    1  0.1610296E-005  0.1960193E+03  0.7546771E-02  0.1182864E+00
          1   -1    0    0  502    0 -0.00000000000E+00  0.00000000000E+00  0.68732187182E+03  0.68732187182E+03  0.00000000000E+00 0. -1.
         21   -1    0    0  501  502  0.00000000000E+00 -0.00000000000E+00 -0.13420997167E+03  0.13420997167E+03  0.00000000000E+00 0. -1.
         23    2    1    2    0    0  0.35332630314E+02 -0.37659004961E+01  0.11519246051E+03  0.15193777209E+03  0.92483549120E+02 0.  0.
         23    2    1    2    0    0 -0.17189903966E+03  0.10378363295E+03  0.44877503188E+03  0.49997162344E+03  0.90842020611E+02 0.  0.
        -11    1    3    3    0    0  0.36542850547E+02 -0.38273434121E+02  0.31941082151E+02  0.61809937830E+02  0.00000000000E+00 0.  1.
         11    1    3    3    0    0 -0.12102202331E+01  0.34507533625E+02  0.83251378357E+02  0.90127834259E+02  0.00000000000E+00 0. -1.
        -11    1    4    4    0    0 -0.39658740588E+02  0.58729619854E+02  0.87321407569E+02  0.11245893550E+03  0.00000000000E+00 0.  1.
         11    1    4    4    0    0 -0.13224029907E+03  0.45054013096E+02  0.36145362431E+03  0.38751268795E+03  0.00000000000E+00 0. -1.
          1    1    1    2  501    0  0.13656640935E+03 -0.10001773245E+03 -0.10855592232E+02  0.16962244795E+03  0.00000000000E+00 0. -1.
<scales pt_clust_5="13000.00000" pt_clust_6="13000.00000" pt_clust_7="13000.00000" pt_clust_8="13000.00000" pt_clust_9="173.69890"></scales>
<clustering>
<clus scale="   90.842">  7  8 -1 -1</clus>
<clus scale="   92.484">  5  6 -1 -1</clus>
<clus scale="   99.075">  1  5  2 -1</clus>
<clus scale="  173.699">  2  9  1 -1</clus>
<clus scale="  173.699">  2  5  1 -1</clus>
</clustering>
</event>
<event>
 9    1  0.1610296E-005  0.1030512E+03  0.7546771E-02  0.1279123E+00
          2   -1    0    0  502    0 -0.00000000000E+00  0.00000000000E+00  0.12949425972E+03  0.12949425972E+03  0.00000000000E+00 0. -1.
         21   -1    0    0  501  502  0.00000000000E+00 -0.00000000000E+00 -0.12597435177E+03  0.12597435177E+03  0.00000000000E+00 0. -1.
         23    2    1    2    0    0 -0.18047453863E+02  0.91937553326E+01  0.57606695815E+02  0.10845411488E+03  0.89629949809E+02 0.  0.
         23    2    1    2    0    0  0.39245021393E+02 -0.18643274269E+02 -0.28248476074E+02  0.11228340632E+03  0.99608451219E+02 0.  0.
        -11    1    3    3    0    0  0.26604557604E+01 -0.32481961879E+02 -0.22114036887E+01  0.32665672787E+02  0.00000000000E+00 0.  1.
         11    1    3    3    0    0 -0.20707909623E+02  0.41675717211E+02  0.59818099503E+02  0.75788442089E+02  0.00000000000E+00 0. -1.
        -11    1    4    4    0    0  0.59682337986E+02 -0.21141449397E+02 -0.51216651321E+02  0.81437630875E+02  0.00000000000E+00 0.  1.
         11    1    4    4    0    0 -0.20437316593E+02  0.24981751274E+01  0.22968175247E+02  0.30845775443E+02  0.00000000000E+00 0. -1.
          2    1    1    2  501    0 -0.21197567530E+02  0.94495189369E+01 -0.25838311792E+02  0.34731090303E+02  0.00000000000E+00 0. -1.
<scales pt_clust_5="13000.00000" pt_clust_6="13000.00000" pt_clust_7="13000.00000" pt_clust_8="13000.00000" pt_clust_9="23.20841"></scales>
<clustering>
<clus scale="   23.208">  2  9  1 -1</clus>
<clus scale="   89.630">  5  6 -1 -1</clus>
<clus scale="   93.441">  1  5  2 -1</clus>
<clus scale="   99.608">  7  8 -1 -1</clus>
<clus scale="   23.208">  2  5  1 -1</clus>
</clustering>
</event>
<event>
 9    1  0.1610296E-005  0.1484166E+03  0.7546771E-02  0.1209956E+00
         21   -1    0    0  501  502  0.00000000000E+00  0.00000000000E+00  0.22128059915E+03  0.22128059915E+03  0.00000000000E+00 0.  1.
         -1   -1    0    0    0  501 -0.00000000000E+00 -0.00000000000E+00 -0.15432723226E+03  0.15432723226E+03  0.00000000000E+00 0.  1.
         23    2    1    2    0    0  0.40394153210E+02 -0.94351488792E+02 -0.43283770932E+02  0.15453684217E+03  0.10711797099E+03 0.  0.
         23    2    1    2    0    0 -0.21174696289E+02  0.10185717892E+03  0.20464336125E+02  0.12895758722E+03  0.73403117025E+02 0.  0.
        -11    1    4    4    0    0  0.42339161634E+01  0.88949433491E+02 -0.70695148095E+01  0.89330318504E+02  0.00000000000E+00 0.  1.
         11    1    4    4    0    0 -0.25408612452E+02  0.12907745428E+02  0.27533850934E+02  0.39627268718E+02  0.00000000000E+00 0. -1.
        -13    1    3    3    0    0  0.71500699637E+02 -0.73194857165E+02 -0.74675483539E+01  0.10259435385E+03  0.00000000000E+00 0. -1.
         13    1    3    3    0    0 -0.31106546427E+02 -0.21156631627E+02 -0.35816222578E+02  0.51942488313E+02  0.00000000000E+00 0.  1.
         -1    1    1    2    0  502 -0.19219456921E+02 -0.75056901270E+01  0.89772801698E+02  0.92113402029E+02  0.00000000000E+00 0.  1.
<scales pt_clust_5="13000.00000" pt_clust_6="13000.00000" pt_clust_7="13000.00000" pt_clust_8="13000.00000" pt_clust_9="20.63305"></scales>
<clustering>
<clus scale="   20.633">  1  9  2 -1</clus>
<clus scale="   73.403">  5  6 -1 -1</clus>
<clus scale="  107.118">  7  8 -1 -1</clus>
<clus scale="  126.259">  1  5  2 -1</clus>
<clus scale="   20.633">  1  5  2 -1</clus>
</clustering>
</event>
<event>
 9    1  0.1610296E-005  0.1248189E+03  0.7546771E-02  0.1235813E+00
          2   -1    0    0  502    0 -0.00000000000E+00  0.00000000000E+00  0.53708539143E+02  0.53708539143E+02  0.00000000000E+00 0.  1.
         21   -1    0    0  501  502  0.00000000000E+00 -0.00000000000E+00 -0.40408647408E+03  0.40408647408E+03  0.00000000000E+00 0.  1.
         23    2    1    2    0    0 -0.26821044290E+01  0.74960288827E+02 -0.10996799075E+03  0.16084633457E+03  0.90290341516E+02 0.  0.
         23    2    1    2    0    0  0.27745494512E+02 -0.10161891167E+03 -0.19201571300E+03  0.23627860936E+03  0.88664150197E+02 0.  0.
        -11    1    3    3    0    0 -0.26353771547E+02  0.81094644842E+01  0.27124183981E+01  0.27706351303E+02  0.00000000000E+00 0.  1.
         11    1    3    3    0    0  0.23671667118E+02  0.66850824343E+02 -0.11268040915E+03  0.13313998327E+03  0.00000000000E+00 0. -1.
        -13    1    4    4    0    0  0.48829980790E+02 -0.10205442418E+03 -0.17815686337E+03  0.21104345639E+03  0.00000000000E+00 0.  1.
         13    1    4    4    0    0 -0.21084486278E+02  0.43551250434E+00 -0.13858849625E+02  0.25235152975E+02  0.00000000000E+00 0. -1.
          2    1    1    2  501    0 -0.25063390083E+02  0.26658622846E+02 -0.48394231193E+02  0.60670069286E+02  0.00000000000E+00 0.  1.
<scales pt_clust_5="13000.00000" pt_clust_6="13000.00000" pt_clust_7="13000.00000" pt_clust_8="13000.00000" pt_clust_9="36.59038"></scales>
<clustering>
<clus scale="   36.590">  2  9  1 -1</clus>
<clus scale="   88.664">  7  8 -1 -1</clus>
<clus scale="   90.290">  5  6 -1 -1</clus>
<clus scale="  123.648">  2  7  1 -1</clus>
<clus scale="   36.590">  2  5  1 -1</clus>
</clustering>
</event>
<event>
 9    1  0.1610296E-005  0.1051943E+03  0.7546771E-02  0.1271013E+00
         21   -1    0    0  501  502  0.00000000000E+00  0.00000000000E+00  0.36340488566E+03  0.36340488566E+03  0.00000000000E+00 0. -1.
          1   -1    0    0  502    0 -0.00000000000E+00 -0.00000000000E+00 -0.20896117219E+03  0.20896117219E+03  0.00000000000E+00 0. -1.
         23    2    1    2    0    0 -0.40722629004E+02 -0.10168668801E+02 -0.14417801228E+03  0.17690426462E+03  0.93520507267E+02 0.  0.
         23    2    1    2    0    0  0.11345466542E+03 -0.42166072211E+02  0.11110743010E+03  0.18763858636E+03  0.90628027216E+02 0.  0.
        -11    1    3    3    0    0 -0.17727677973E+02  0.29220596791E+02 -0.10645576718E+02  0.35797236580E+02  0.00000000000E+00 0.  1.
         11    1    3    3    0    0 -0.22994951032E+02 -0.39389265592E+02 -0.13353243556E+03  0.14110702804E+03  0.00000000000E+00 0. -1.
        -13    1    4    4    0    0  0.62347446716E+02 -0.21045356412E+02  0.11468619468E+03  0.13222342602E+03  0.00000000000E+00 0. -1.
         13    1    4    4    0    0  0.51107218701E+02 -0.21120715798E+02 -0.35787645824E+01  0.55415160337E+02  0.00000000000E+00 0.  1.
          1    1    1    2  501    0 -0.72732036413E+02  0.52334741012E+02  0.18751429565E+03  0.20782320686E+03  0.00000000000E+00 0. -1.
<scales pt_clust_5="13000.00000" pt_clust_6="13000.00000" pt_clust_7="13000.00000" pt_clust_8="13000.00000" pt_clust_9="89.60399"></scales>
<clustering>
<clus scale="   89.604">  1  9  2 -1</clus>
<clus scale="   90.628">  7  8 -1 -1</clus>
<clus scale="   93.521">  5  6 -1 -1</clus>
<clus scale="  102.631">  1  7  2 -1</clus>
<clus scale="   89.604">  1  5  2 -1</clus>
</clustering>
</event>
<event>
 9    1  0.1610296E-005  0.9671181E+02  0.7546771E-02  0.1287501E+00
         21   -1    0    0  501  502  0.00000000000E+00  0.00000000000E+00  0.10140044667E+04  0.10140044667E+04  0.00000000000E+00 0.  1.
         -1   -1    0    0    0  501 -0.00000000000E+00 -0.00000000000E+00 -0.68548623456E+02  0.68548623456E+02  0.00000000000E+00 0.  1.
         23    2    1    2    0    0 -0.10661514007E+02  0.13473645455E+02 -0.98431237690E+01  0.95605941399E+02  0.93532892303E+02 0.  0.
         23    2    1    2    0    0  0.23166678633E+02 -0.10753436843E+03  0.44153334495E+03  0.46449244912E+03  0.93280250866E+02 0.  0.
        -11    1    3    3    0    0 -0.37839913258E+02  0.12318714600E+01  0.28248766098E+02  0.47237372162E+02  0.00000000000E+00 0.  1.
         11    1    3    3    0    0  0.27178399252E+02  0.12241773995E+02 -0.38091889867E+02  0.48368569238E+02  0.00000000000E+00 0. -1.
        -11    1    4    4    0    0 -0.26126743225E+02 -0.83783780352E+02  0.30582312989E+03  0.31816680426E+03  0.00000000000E+00 0.  1.
         11    1    4    4    0    0  0.49293421858E+02 -0.23750588082E+02  0.13571021506E+03  0.14632564486E+03  0.00000000000E+00 0. -1.
         -1    1    1    2    0  502 -0.12505164626E+02  0.94060722979E+02  0.51376562205E+03  0.52245469961E+03  0.00000000000E+00 0.  1.
<scales pt_clust_5="13000.00000" pt_clust_6="13000.00000" pt_clust_7="13000.00000" pt_clust_8="13000.00000" pt_clust_9="94.88835"></scales>
<clustering>
<clus scale="   93.280">  7  8 -1 -1</clus>
<clus scale="   93.533">  5  6 -1 -1</clus>
<clus scale="   94.888">  1  9  2 -1</clus>
<clus scale="   96.467">  1  7  2 -1</clus>
<clus scale="   94.888">  1  5  2 -1</clus>
</clustering>
</event>
<event>
 9    1  0.1610296E-005  0.1032835E+03  0.7546771E-02  0.1274669E+00
         21   -1    0    0  501  502  0.00000000000E+00  0.00000000000E+00  0.57671040828E+02  0.57671040828E+02  0.00000000000E+00 0. -1.
         -4   -1    0    0    0  501 -0.00000000000E+00 -0.00000000000E+00 -0.35273745633E+03  0.35273745633E+03  0.00000000000E+00 0.  1.
         23    2    1    2    0    0  0.19267907023E+02  0.62564798628E+02 -0.19978090617E+03  0.22906591446E+03  0.90957003206E+02 0.  0.
         23    2    1    2    0    0  0.71672334574E+01 -0.14120410223E+02 -0.80189692878E+02  0.12412755762E+03  0.93415782908E+02 0.  0.
        -11    1    4    4    0    0  0.47321178633E+02 -0.69300435479E+01 -0.20978200636E+02  0.52224556989E+02  0.00000000000E+00 0. -1.
         11    1    4    4    0    0 -0.40153945176E+02 -0.71903666750E+01 -0.59211492242E+02  0.71903000630E+02  0.00000000000E+00 0.  1.
        -11    1    3    3    0    0  0.14179849969E+02  0.40475790411E+02 -0.20180157918E+03  0.20630859195E+03  0.00000000000E+00 0.  1.
         11    1    3    3    0    0  0.50880570545E+01  0.22089008217E+02  0.20206730096E+01  0.22757322514E+02  0.00000000000E+00 0. -1.
         -4    1    1    2    0  502 -0.26435140480E+02 -0.48444388405E+02 -0.15095816461E+02  0.57215025079E+02  0.00000000000E+00 0.  1.
<scales pt_clust_5="13000.00000" pt_clust_6="13000.00000" pt_clust_7="13000.00000" pt_clust_8="13000.00000" pt_clust_9="55.18764"></scales>
<clustering>
<clus scale="   55.188">  1  9  2 -1</clus>
<clus scale="   90.957">  7  8 -1 -1</clus>
<clus scale="   93.416">  5  6 -1 -1</clus>
<clus scale="  101.065">  2  7  1 -1</clus>
<clus scale="   55.188">  1  5  2 -1</clus>
</clustering>
</event>
<event>
 9    1  0.1610296E-005  0.1144188E+03  0.7546771E-02  0.1253538E+00
         21   -1    0    0  501  502  0.00000000000E+00  0.00000000000E+00  0.55073762094E+02  0.55073762094E+02  0.00000000000E+00 0. -1.
         -1   -1    0    0    0  501 -0.00000000000E+00 -0.00000000000E+00 -0.34296653072E+03  0.34296653072E+03  0.00000000000E+00 0.  1.
         23    2    1    2    0    0 -0.47039943869E+01  0.61143430760E+02 -0.17074551827E+03  0.20186401334E+03  0.88512152738E+02 0.  0.
         23    2    1    2    0    0 -0.49612411958E+01 -0.82280193644E+02 -0.12115644149E+03  0.17259126013E+03  0.91182320541E+02 0.  0.
        -11    1    4    4    0    0  0.36575397350E+02 -0.22321235361E+02 -0.18528249254E+02  0.46682901149E+02  0.00000000000E+00 0. -1.
         11    1    4    4    0    0 -0.41536638545E+02 -0.59958958283E+02 -0.10262819224E+03  0.12590835898E+03  0.00000000000E+00 0.  1.
        -11    1    3    3    0    0 -0.39010057314E+02  0.42347834892E+02 -0.14227155524E+03  0.15348067996E+03  0.00000000000E+00 0.  1.
         11    1    3    3    0    0  0.34306062927E+02  0.18795595868E+02 -0.28473963030E+02  0.48383333372E+02  0.00000000000E+00 0. -1.
         -1    1    1    2    0  502  0.96652355827E+01  0.21136762883E+02  0.40091911327E+01  0.23585019347E+02  0.00000000000E+00 0.  1.
<scales pt_clust_5="13000.00000" pt_clust_6="13000.00000" pt_clust_7="13000.00000" pt_clust_8="13000.00000" pt_clust_9="23.24176"></scales>
<clustering>
<clus scale="   23.242">  1  9  2 -1</clus>
<clus scale="   88.512">  7  8 -1 -1</clus>
<clus scale="   91.182">  5  6 -1 -1</clus>
<clus scale="  112.302">  2  7  1 -1</clus>
<clus scale="   23.242">  1  5  2 -1</clus>
</clustering>
</event>
<event>
 9    1  0.1610296E-005  0.1903079E+03  0.7546771E-02  0.1158316E+00
          2   -1    0    0  502    0 -0.00000000000E+00  0.00000000000E+00  0.95124976231E+03  0.95124976231E+03  0.00000000000E+00 0. -1.
         21   -1    0    0  501  502  0.00000000000E+00 -0.00000000000E+00 -0.11810772475E+03  0.11810772475E+03  0.00000000000E+00 0.  1.
         23    2    1    2    0    0  0.61202835289E+02  0.16129385195E+03  0.80837231886E+03  0.83161110313E+03  0.91376841898E+02 0.  0.
         23    2    1    2    0    0 -0.99447749849E+01 -0.12712714600E+03 -0.25504036360E+02  0.15823410192E+03  0.90151901471E+02 0.  0.
        -11    1    4    4    0    0 -0.35159273855E+02 -0.10482320138E+03 -0.44957911435E+02  0.11935364212E+03  0.00000000000E+00 0.  1.
         11    1    4    4    0    0  0.25214498870E+02 -0.22303944620E+02  0.19453875075E+02  0.38880459801E+02  0.00000000000E+00 0. -1.
        -11    1    3    3    0    0  0.70426519238E+02  0.69126307913E+02  0.49923448262E+03  0.50889430110E+03  0.00000000000E+00 0. -1.
         11    1    3    3    0    0 -0.92236839487E+01  0.92167544038E+02  0.30913783623E+03  0.32271680203E+03  0.00000000000E+00 0.  1.
          2    1    1    2  501    0 -0.51258060304E+02 -0.34166705947E+02  0.50273755065E+02  0.79512282006E+02  0.00000000000E+00 0. -1.
<scales pt_clust_5="13000.00000" pt_clust_6="13000.00000" pt_clust_7="13000.00000" pt_clust_8="13000.00000" pt_clust_9="61.60156"></scales>
<clustering>
<clus scale="   61.602">  2  9  1 -1</clus>
<clus scale="   90.152">  5  6 -1 -1</clus>
<clus scale="   91.377">  7  8 -1 -1</clus>
<clus scale="  189.723">  2  5  1 -1</clus>
<clus scale="   61.602">  2  5  1 -1</clus>
</clustering>
</event>
<event>
 9    1  0.1610296E-005  0.1804743E+03  0.7546771E-02  0.1167345E+00
         21   -1    0    0  501  502  0.00000000000E+00  0.00000000000E+00  0.31311684408E+03  0.31311684408E+03  0.00000000000E+00 0. -1.
          1   -1    0    0  502    0 -0.00000000000E+00 -0.00000000000E+00 -0.23919731919E+03  0.23919731919E+03  0.00000000000E+00 0. -1.
         23    2    1    2    0    0  0.96153390333E+02  0.14966182157E+03 -0.67002635575E+02  0.21102045899E+03  0.91630484159E+02 0.  0.
         23    2    1    2    0    0 -0.23530088489E+02 -0.13647352600E+03 -0.17047194724E+02  0.16693088632E+03  0.91633103159E+02 0.  0.
        -11    1    3    3    0    0  0.10928607706E+03  0.10822025635E+03 -0.66453266278E+02  0.16754434375E+03  0.00000000000E+00 0. -1.
         11    1    3    3    0    0 -0.13132686732E+02  0.41441565228E+02 -0.54936929674E+00  0.43476115236E+02  0.00000000000E+00 0.  1.
        -13    1    4    4    0    0  0.29613293816E+02 -0.88194073032E+02  0.43481601047E+00  0.93034030083E+02  0.00000000000E+00 0.  1.
         13    1    4    4    0    0 -0.53143382304E+02 -0.48279452972E+02 -0.17482010734E+02  0.73896856235E+02  0.00000000000E+00 0. -1.
          1    1    1    2  501    0 -0.72623301844E+02 -0.13188295570E+02  0.15796935519E+03  0.17436281797E+03  0.00000000000E+00 0. -1.
<scales pt_clust_5="13000.00000" pt_clust_6="13000.00000" pt_clust_7="13000.00000" pt_clust_8="13000.00000" pt_clust_9="73.81108"></scales>
<clustering>
<clus scale="   73.811">  1  9  2 -1</clus>
<clus scale="   91.630">  5  6 -1 -1</clus>
<clus scale="   91.633">  7  8 -1 -1</clus>
<clus scale="  180.473">  2  5  1 -1</clus>
<clus scale="   73.811">  1  5  2 -1</clus>
</clustering>
</event>
<event>
 9    1  0.1610296E-005  0.9932429E+02  0.7546771E-02  0.1281829E+00
          2   -1    0    0  502    0 -0.00000000000E+00  0.00000000000E+00  0.73767294208E+03  0.73767294208E+03  0.00000000000E+00 0. -1.
         21   -1    0    0  501  502  0.00000000000E+00 -0.00000000000E+00 -0.23812919348E+02  0.23812919348E+02  0.00000000000E+00 0. -1.
         23    2    1    2    0    0 -0.25193004512E+02  0.20586216709E+02  0.35086384106E+03  0.36388275381E+03  0.90811583887E+02 0.  0.
         23    2    1    2    0    0  0.92554603495E+01 -0.55569489588E+02  0.33041720124E+03  0.34721238762E+03  0.90594058985E+02 0.  0.
        -11    1    3    3    0    0  0.58406877972E+01 -0.31538013328E+02  0.17327664247E+03  0.17622018824E+03  0.00000000000E+00 0. -1.
         11    1    3    3    0    0 -0.31033692309E+02  0.52124230036E+02  0.17758719858E+03  0.18766256557E+03  0.00000000000E+00 0.  1.
        -13    1    4    4    0    0  0.49637792557E+02 -0.37150462229E+02  0.20516408071E+03  0.21432771008E+03  0.00000000000E+00 0.  1.
         13    1    4    4    0    0 -0.40382332207E+02 -0.18419027359E+02  0.12525312052E+03  0.13288467754E+03  0.00000000000E+00 0. -1.
          2    1    1    2  501    0  0.15937544163E+02  0.34983272879E+02  0.32578980441E+02  0.50390719998E+02  0.00000000000E+00 0. -1.
<scales pt_clust_5="13000.00000" pt_clust_6="13000.00000" pt_clust_7="13000.00000" pt_clust_8="13000.00000" pt_clust_9="38.44262"></scales>
<clustering>
<clus scale="   38.443">  2  9  1 -1</clus>
<clus scale="   90.594">  7  8 -1 -1</clus>
<clus scale="   90.812">  5  6 -1 -1</clus>
<clus scale="   99.125">  2  7  1 -1</clus>
<clus scale="   38.443">  2  5  1 -1</clus>
</clustering>
</event>
<event>
 9    1  0.1610296E-005  0.9323575E+02  0.7546771E-02  0.1296440E+00
          3   -1    0    0  502    0 -0.00000000000E+00  0.00000000000E+00  0.17500867275E+03  0.17500867275E+03  0.00000000000E+00 0. -1.
         21   -1    0    0  501  502  0.00000000000E+00 -0.00000000000E+00 -0.66367545512E+02  0.66367545512E+02  0.00000000000E+00 0.  1.
         23    2    1    2    0    0  0.11822779287E+02  0.10921732931E+02  0.81583290981E+02  0.12463752443E+03  0.92841891241E+02 0.  0.
         23    2    1    2    0    0  0.33606357539E+01  0.38196215187E+01  0.14145107773E+02  0.91947925784E+02  0.90710824056E+02 0.  0.
        -11    1    3    3    0    0 -0.25621348421E+02  0.18063038177E+01 -0.81760983330E+01  0.26954866209E+02  0.00000000000E+00 0.  1.
         11    1    3    3    0    0  0.37444127708E+02  0.91154291137E+01  0.89759389314E+02  0.97682658224E+02  0.00000000000E+00 0. -1.
        -11    1    4    4    0    0 -0.30346710233E+02  0.32768768081E+02 -0.19120224533E+01  0.44703140979E+02  0.00000000000E+00 0.  1.
         11    1    4    4    0    0  0.33707345987E+02 -0.28949146562E+02  0.16057130226E+02  0.47244784805E+02  0.00000000000E+00 0. -1.
          3    1    1    2  501    0 -0.15183415041E+02 -0.14741354450E+02  0.12912728482E+02  0.24790768043E+02  0.00000000000E+00 0. -1.
<scales pt_clust_5="13000.00000" pt_clust_6="13000.00000" pt_clust_7="13000.00000" pt_clust_8="13000.00000" pt_clust_9="21.16233"></scales>
<clustering>
<clus scale="   21.162">  2  9  1 -1</clus>
<clus scale="   90.711">  7  8 -1 -1</clus>
<clus scale="   91.114">  2  7  1 -1</clus>
<clus scale="   92.842">  5  6 -1 -1</clus>
<clus scale="   21.162">  2  5  1 -1</clus>
</clustering>
</event>
<event>
 9    1  0.1610296E-005  0.1367087E+03  0.7546771E-02  0.1219604E+00
          1   -1    0    0  502    0 -0.00000000000E+00  0.00000000000E+00  0.98130275245E+02  0.98130275245E+02  0.00000000000E+00 0. -1.
         21   -1    0    0  501  502  0.00000000000E+00 -0.00000000000E+00 -0.25661243203E+03  0.25661243203E+03  0.00000000000E+00 0.  1.
         23    2    1    2    0    0 -0.98013974741E+02 -0.27693025984E+02 -0.78490951032E+01  0.13222353475E+03  0.83951247249E+02 0.  0.
         23    2    1    2    0    0  0.89166101161E+02  0.50998803114E+02 -0.11696946958E+03  0.18063025337E+03  0.91618557644E+02 0.  0.
        -11    1    4    4    0    0  0.40899485219E+02 -0.11641830930E+02 -0.39706527877E+01  0.42709088051E+02  0.00000000000E+00 0. -1.
         11    1    4    4    0    0  0.48266615942E+02  0.62640634044E+02 -0.11299881679E+03  0.13792116532E+03  0.00000000000E+00 0.  1.
        -13    1    3    3    0    0 -0.45670196694E+02 -0.31458255766E+02  0.34045500232E+02  0.65072919160E+02  0.00000000000E+00 0. -1.
         13    1    3    3    0    0 -0.52343778047E+02  0.37652297815E+01 -0.41894595336E+02  0.67150615588E+02  0.00000000000E+00 0.  1.
          1    1    1    2  501    0  0.88478735799E+01 -0.23305777130E+02 -0.33663592103E+02  0.41888919152E+02  0.00000000000E+00 0. -1.
<scales pt_clust_5="13000.00000" pt_clust_6="13000.00000" pt_clust_7="13000.00000" pt_clust_8="13000.00000" pt_clust_9="24.92878"></scales>
<clustering>
<clus scale="   24.929">  2  9  1 -1</clus>
<clus scale="   83.951">  7  8 -1 -1</clus>
<clus scale="   91.619">  5  6 -1 -1</clus>
<clus scale="  131.693">  1  7  2 -1</clus>
<clus scale="   24.929">  2  5  1 -1</clus>
</clustering>
</event>
<event>
 9    1  0.1610296E-005  0.1131778E+03  0.7546771E-02  0.1255100E+00
         21   -1    0    0  501  502  0.00000000000E+00  0.00000000000E+00  0.12849951529E+03  0.12849951529E+03  0.00000000000E+00 0. -1.
          3   -1    0    0  502    0 -0.00000000000E+00 -0.00000000000E+00 -0.18998850023E+03  0.18998850023E+03  0.00000000000E+00 0. -1.
         23    2    1    2    0    0  0.42759078499E+02 -0.60085424030E+02 -0.91379094855E+02  0.14894674981E+03  0.91631863059E+02 0.  0.
         23    2    1    2    0    0 -0.46874892948E+02  0.33323162190E+02 -0.23195365213E+02  0.10994909964E+03  0.90791468857E+02 0.  0.
        -11    1    3    3    0    0  0.58026109164E+02 -0.27671423852E+02 -0.17168443727E+02  0.66539405638E+02  0.00000000000E+00 0.  1.
         11    1    3    3    0    0 -0.15267030664E+02 -0.32414000179E+02 -0.74210651127E+02  0.82407344173E+02  0.00000000000E+00 0. -1.
        -13    1    4    4    0    0 -0.62760929570E+01  0.28064480828E+02  0.30833190552E+02  0.42162661996E+02  0.00000000000E+00 0.  1.
         13    1    4    4    0    0 -0.40598799991E+02  0.52586813617E+01 -0.54028555766E+02  0.67786437644E+02  0.00000000000E+00 0. -1.
          3    1    1    2  501    0  0.41158144481E+01  0.26762261840E+02  0.53085475132E+02  0.59592166073E+02  0.00000000000E+00 0. -1.
<scales pt_clust_5="13000.00000" pt_clust_6="13000.00000" pt_clust_7="13000.00000" pt_clust_8="13000.00000" pt_clust_9="27.07690"></scales>
<clustering>
<clus scale="   27.077">  1  9  2 -1</clus>
<clus scale="   90.791">  7  8 -1 -1</clus>
<clus scale="   91.632">  5  6 -1 -1</clus>
<clus scale="  112.498">  1  7  2 -1</clus>
<clus scale="   27.077">  1  5  2 -1</clus>
</clustering>
</event>
<event>
 9    1  0.1610296E-005  0.1096196E+03  0.7546771E-02  0.1261555E+00
         -1   -1    0    0    0  501 -0.00000000000E+00  0.00000000000E+00  0.39893259684E+03  0.39893259684E+03  0.00000000000E+00 0.  1.
         21   -1    0    0  501  502  0.00000000000E+00 -0.00000000000E+00 -0.19970078949E+03  0.19970078949E+03  0.00000000000E+00 0.  1.
         23    2    1    2    0    0  0.46011779550E+02 -0.35790815336E+02  0.36149505845E+03  0.37748396101E+03  0.91746374368E+02 0.  0.
         23    2    1    2    0    0 -0.41042753598E+02  0.57783688801E+02 -0.95363129606E+02  0.15055194692E+03  0.92457016597E+02 0.  0.
        -11    1    4    4    0    0 -0.45843376960E+01  0.73699379850E+02 -0.77172568289E+02  0.10680926944E+03  0.00000000000E+00 0.  1.
         11    1    4    4    0    0 -0.36458415903E+02 -0.15915691049E+02 -0.18190561318E+02  0.43742677476E+02  0.00000000000E+00 0. -1.
        -13    1    3    3    0    0  0.46628573063E+02  0.21074210763E+02  0.19208089389E+03  0.19877981785E+03  0.00000000000E+00 0.  1.
         13    1    3    3    0    0 -0.61679351241E+00 -0.56865026098E+02  0.16941416456E+03  0.17870414316E+03  0.00000000000E+00 0. -1.
         -1    1    1    2    0  502 -0.49690259520E+01 -0.21992873465E+02 -0.66900121491E+02  0.70597478409E+02  0.00000000000E+00 0.  1.
<scales pt_clust_5="13000.00000" pt_clust_6="13000.00000" pt_clust_7="13000.00000" pt_clust_8="13000.00000" pt_clust_9="22.54723"></scales>
<clustering>
<clus scale="   22.547">  2  9  1 -1</clus>
<clus scale="   91.746">  7  8 -1 -1</clus>
<clus scale="   92.457">  5  6 -1 -1</clus>
<clus scale="  109.021">  1  7  2 -1</clus>
<clus scale="   22.547">  2  5  1 -1</clus>
</clustering>
</event>
<event>
 9    1  0.1610296E-005  0.9490024E+02  0.7546771E-02  0.1292785E+00
          1   -1    0    0  502    0 -0.00000000000E+00  0.00000000000E+00  0.64871459557E+02  0.64871459557E+02  0.00000000000E+00 0. -1.
         21   -1    0    0  501  502  0.00000000000E+00 -0.00000000000E+00 -0.19838790534E+03  0.19838790534E+03  0.00000000000E+00 0.  1.
         23    2    1    2    0    0  0.34331807558E+02  0.23072059638E+02 -0.47183648802E+02  0.11120628999E+03  0.91812576881E+02 0.  0.
         23    2    1    2    0    0 -0.47311277904E+01 -0.33358429718E+01 -0.59084403604E+02  0.10724020362E+03  0.89308359660E+02 0.  0.
        -11    1    4    4    0    0  0.33489404181E+02  0.24683813430E+02 -0.33298949129E+02  0.53288374445E+02  0.00000000000E+00 0. -1.
         11    1    4    4    0    0 -0.38220531972E+02 -0.28019656402E+02 -0.25785454476E+02  0.53951829178E+02  0.00000000000E+00 0.  1.
        -11    1    3    3    0    0  0.15005292987E+02  0.32130151992E+02  0.20000846238E+02  0.40712889051E+02  0.00000000000E+00 0. -1.
         11    1    3    3    0    0  0.19326514572E+02 -0.90580923538E+01 -0.67184495039E+02  0.70493400941E+02  0.00000000000E+00 0.  1.
          1    1    1    2  501    0 -0.29600679768E+02 -0.19736216667E+02 -0.27248393380E+02  0.44812871286E+02  0.00000000000E+00 0. -1.
<scales pt_clust_5="13000.00000" pt_clust_6="13000.00000" pt_clust_7="13000.00000" pt_clust_8="13000.00000" pt_clust_9="35.57694"></scales>
<clustering>
<clus scale="   35.577">  2  9  1 -1</clus>
<clus scale="   89.308">  5  6 -1 -1</clus>
<clus scale="   91.813">  7  8 -1 -1</clus>
<clus scale="   92.480">  2  5  1 -1</clus>
<clus scale="   35.577">  2  5  1 -1</clus>
</clustering>
</event>
<event>
 9    1  0.1610296E-005  0.1079341E+03  0.7546771E-02  0.1264868E+00
         -1   -1    0    0    0  501 -0.00000000000E+00  0.00000000000E+00  0.24153456575E+03  0.24153456575E+03  0.00000000000E+00 0.  1.
         21   -1    0    0  501  502  0.00000000000E+00 -0.00000000000E+00 -0.87926482421E+02  0.87926482421E+02  0.00000000000E+00 0. -1.
         23    2    1    2    0    0 -0.59309266035E+02  0.67575097537E+01  0.10588154682E+03  0.15195396660E+03  0.91191299108E+02 0.  0.
         23    2    1    2    0    0  0.51564837608E+02  0.43105437378E+02  0.57225264030E+02  0.12616007102E+03  0.90136682137E+02 0.  0.
        -11    1    3    3    0    0 -0.34394412464E+02  0.48890056077E+02  0.52899006030E+02  0.79821789199E+02  0.00000000000E+00 0.  1.
         11    1    3    3    0    0 -0.24914853571E+02 -0.42132546323E+02  0.52982540787E+02  0.72132177400E+02  0.00000000000E+00 0. -1.
        -13    1    4    4    0    0 -0.25893468405E+02  0.11586455432E+02  0.97399027711E+01  0.29993055221E+02  0.00000000000E+00 0.  1.
         13    1    4    4    0    0  0.77458306013E+02  0.31518981946E+02  0.47485361259E+02  0.96167015796E+02  0.00000000000E+00 0. -1.
         -1    1    1    2    0  502  0.77444284272E+01 -0.49862947132E+02 -0.94987275190E+01  0.51347010554E+02  0.00000000000E+00 0.  1.
<scales pt_clust_5="13000.00000" pt_clust_6="13000.00000" pt_clust_7="13000.00000" pt_clust_8="13000.00000" pt_clust_9="50.46077"></scales>
<clustering>
<clus scale="   50.461">  2  9  1 -1</clus>
<clus scale="   90.137">  7  8 -1 -1</clus>
<clus scale="   91.191">  5  6 -1 -1</clus>
<clus scale="  107.045">  2  7  1 -1</clus>
<clus scale="   50.461">  2  5  1 -1</clus>
</clustering>
</event>
<event>
 9    1  0.1610296E-005  0.1539886E+03  0.7546771E-02  0.1195783E+00
          1   -1    0    0  502    0 -0.00000000000E+00  0.00000000000E+00  0.45948907877E+03  0.45948907877E+03  0.00000000000E+00 0. -1.
         21   -1    0    0  501  502  0.00000000000E+00 -0.00000000000E+00 -0.68121411806E+02  0.68121411806E+02  0.00000000000E+00 0. -1.
         23    2    1    2    0    0  0.88920721697E+02  0.90737960313E+02  0.26167158223E+03  0.30444478001E+03  0.89857303211E+02 0.  0.
         23    2    1    2    0    0 -0.63843262559E+02 -0.10411826600E+03  0.11780832932E+03  0.19235612982E+03  0.90584230049E+02 0.  0.
        -11    1    3    3    0    0  0.50045124394E+01  0.27670273272E+02  0.14414966954E+03  0.14686666196E+03  0.00000000000E+00 0.  1.
         11    1    3    3    0    0  0.83916209258E+02  0.63067687041E+02  0.11752191268E+03  0.15757811804E+03  0.00000000000E+00 0. -1.
        -13    1    4    4    0    0 -0.19872008631E+02  0.15107366837E+02  0.18162389257E+02  0.30870724697E+02  0.00000000000E+00 0.  1.
         13    1    4    4    0    0 -0.43971253927E+02 -0.11922563283E+03  0.99645940059E+02  0.16148540512E+03  0.00000000000E+00 0. -1.
          1    1    1    2  501    0 -0.25077459139E+02  0.13380305683E+02  0.11887755418E+02  0.30809580749E+02  0.00000000000E+00 0. -1.
<scales pt_clust_5="13000.00000" pt_clust_6="13000.00000" pt_clust_7="13000.00000" pt_clust_8="13000.00000" pt_clust_9="28.42378"></scales>
<clustering>
<clus scale="   28.424">  2  9  1 -1</clus>
<clus scale="   89.857">  5  6 -1 -1</clus>
<clus scale="   90.584">  7  8 -1 -1</clus>
<clus scale="  153.562">  1  5  2 -1</clus>
<clus scale="   28.424">  2  5  1 -1</clus>
</clustering>
</event>
<event>
 9    1  0.1610296E-005  0.2790314E+03  0.7546771E-02  0.1096316E+00
          2   -1    0    0  502    0 -0.00000000000E+00  0.00000000000E+00  0.16820871529E+04  0.16820871529E+04  0.00000000000E+00 0. -1.
         21   -1    0    0  501  502  0.00000000000E+00 -0.00000000000E+00 -0.10519470015E+03  0.10519470015E+03  0.00000000000E+00 0. -1.
         23    2    1    2    0    0  0.22056909315E+03  0.13545082158E+03  0.11942696672E+04  0.12253734389E+04  0.90897617382E+02 0.  0.
         23    2    1    2    0    0 -0.24813577592E+03 -0.12163924663E+03  0.42135070083E+03  0.51240555554E+03  0.93035319366E+02 0.  0.
        -11    1    3    3    0    0  0.77970937139E+02  0.10432324628E+01  0.37054436911E+03  0.37866038194E+03  0.00000000000E+00 0.  1.
         11    1    3    3    0    0  0.14259815601E+03  0.13440758912E+03  0.82372529806E+03  0.84671305693E+03  0.00000000000E+00 0. -1.
        -11    1    4    4    0    0 -0.15533003735E+03 -0.45662217020E+02  0.30498029643E+03  0.34529037023E+03  0.00000000000E+00 0. -1.
         11    1    4    4    0    0 -0.92805738574E+02 -0.75977029615E+02  0.11637040440E+03  0.16711518531E+03  0.00000000000E+00 0.  1.
          2    1    1    2  501    0  0.27566682778E+02 -0.13811574949E+02 -0.38727915197E+02  0.49502858680E+02  0.00000000000E+00 0. -1.
<scales pt_clust_5="13000.00000" pt_clust_6="13000.00000" pt_clust_7="13000.00000" pt_clust_8="13000.00000" pt_clust_9="30.83313"></scales>
<clustering>
<clus scale="   30.833">  2  9  1 -1</clus>
<clus scale="   90.898">  5  6 -1 -1</clus>
<clus scale="   93.035">  7  8 -1 -1</clus>
<clus scale="  278.326">  1  5  2 -1</clus>
<clus scale="   30.833">  2  5  1 -1</clus>
</clustering>
</event>
<event>
 9    1  0.1610296E-005  0.1395094E+03  0.7546771E-02  0.1225090E+00
          1   -1    0    0  502    0 -0.00000000000E+00  0.00000000000E+00  0.19813400044E+03  0.19813400044E+03  0.00000000000E+00 0. -1.
         21   -1    0    0  501  502  0.00000000000E+00 -0.00000000000E+00 -0.11645261767E+03  0.11645261767E+03  0.00000000000E+00 0.  1.
         23    2    1    2    0    0 -0.53829216631E+02  0.43098236182E+02  0.99718199946E+02  0.15183107206E+03  0.91399740252E+02 0.  0.
         23    2    1    2    0    0  0.28391089659E+02 -0.34525917045E+02 -0.46873017652E+01  0.13277567745E+03  0.12493725147E+03 0.  0.
        -11    1    4    4    0    0  0.56215541646E+02 -0.67602221673E+02  0.63959297688E+01  0.88154157108E+02  0.00000000000E+00 0. -1.
         11    1    4    4    0    0 -0.27824451988E+02  0.33076304628E+02 -0.11083231534E+02  0.44621520340E+02  0.00000000000E+00 0.  1.
        -13    1    3    3    0    0 -0.20263011094E+02 -0.24921229365E+02  0.85553130261E+01  0.33239294106E+02  0.00000000000E+00 0. -1.
         13    1    3    3    0    0 -0.33566205537E+02  0.68019465547E+02  0.91162886920E+02  0.11859177796E+03  0.00000000000E+00 0.  1.
          1    1    1    2  501    0  0.25438126972E+02 -0.85723191362E+01 -0.13349515418E+02  0.29979868598E+02  0.00000000000E+00 0. -1.
<scales pt_clust_5="13000.00000" pt_clust_6="13000.00000" pt_clust_7="13000.00000" pt_clust_8="13000.00000" pt_clust_9="26.84368"></scales>
<clustering>
<clus scale="   26.844">  2  9  1 -1</clus>
<clus scale="   91.400">  7  8 -1 -1</clus>
<clus scale="  110.487">  1  7  2 -1</clus>
<clus scale="  124.937">  5  6 -1 -1</clus>
<clus scale="   26.844">  2  5  1 -1</clus>
</clustering>
</event>
<event>
 9    1  0.1610296E-005  0.9541573E+02  0.7546771E-02  0.1290969E+00
         21   -1    0    0  501  502  0.00000000000E+00  0.00000000000E+00  0.25411094782E+03  0.25411094782E+03  0.00000000000E+00 0.  1.
         -3   -1    0    0    0  501 -0.00000000000E+00 -0.00000000000E+00 -0.13236846779E+03  0.13236846779E+03  0.00000000000E+00 0.  1.
         23    2    1    2    0    0  0.14442407535E+02 -0.10855192519E+02 -0.51179571356E+02  0.10610267404E+03  0.91170228553E+02 0.  0.
         23    2    1    2    0    0 -0.47906059533E+02  0.85086517299E+01 -0.20941296824E+01  0.10217464872E+03  0.89821410414E+02 0.  0.
        -11    1    4    4    0    0 -0.64616879438E+02 -0.21138006427E+02  0.10794671100E+01  0.67995012121E+02  0.00000000000E+00 0. -1.
         11    1    4    4    0    0  0.16710819906E+02  0.29646658157E+02 -0.31735967924E+01  0.34179636604E+02  0.00000000000E+00 0.  1.
        -13    1    3    3    0    0 -0.16429486240E+01  0.31115698282E+02  0.76336020734E+01  0.32080490027E+02  0.00000000000E+00 0.  1.
         13    1    3    3    0    0  0.16085356159E+02 -0.41970890800E+02 -0.58813173429E+02  0.74022184014E+02  0.00000000000E+00 0. -1.
         -3    1    1    2    0  502  0.33463651998E+02  0.23465407886E+01  0.17501618106E+03  0.17820209284E+03  0.00000000000E+00 0.  1.
<scales pt_clust_5="13000.00000" pt_clust_6="13000.00000" pt_clust_7="13000.00000" pt_clust_8="13000.00000" pt_clust_9="33.54582"></scales>
<clustering>
<clus scale="   33.546">  1  9  2 -1</clus>
<clus scale="   89.821">  5  6 -1 -1</clus>
<clus scale="   91.170">  7  8 -1 -1</clus>
<clus scale="   94.128">  1  5  2 -1</clus>
<clus scale="   33.546">  1  5  2 -1</clus>
</clustering>
</event>
<event>
 9    1  0.1610296E-005  0.9469437E+02  0.7546771E-02  0.1293065E+00
         21   -1    0    0  501  502  0.00000000000E+00  0.00000000000E+00  0.13410305354E+03  0.13410305354E+03  0.00000000000E+00 0.  1.
         -2   -1    0    0    0  501 -0.00000000000E+00 -0.00000000000E+00 -0.25323425473E+03  0.25323425473E+03  0.00000000000E+00 0.  1.
         23    2    1    2    0    0 -0.13993198196E+01  0.18178556940E+02 -0.19961939900E+03  0.22042472225E+03  0.91688252761E+02 0.  0.
         23    2    1    2    0    0  0.95348211585E+01  0.28369247311E+02  0.47780965802E+02  0.10944392074E+03  0.93804179467E+02 0.  0.
        -11    1    4    4    0    0 -0.28878269107E+02  0.65641743422E+01  0.57079979909E+02  0.64305263531E+02  0.00000000000E+00 0. -1.
         11    1    4    4    0    0  0.38413090265E+02  0.21805072969E+02 -0.92990141067E+01  0.45138657205E+02  0.00000000000E+00 0.  1.
        -11    1    3    3    0    0  0.18671593843E+02 -0.25034928956E+02 -0.26787917760E+02  0.41145699925E+02  0.00000000000E+00 0. -1.
         11    1    3    3    0    0 -0.20070913662E+02  0.43213485896E+02 -0.17283148124E+03  0.17927902233E+03  0.00000000000E+00 0.  1.
         -2    1    1    2    0  502 -0.81355013388E+01 -0.46547804251E+02  0.32707232008E+02  0.57468665273E+02  0.00000000000E+00 0.  1.
<scales pt_clust_5="13000.00000" pt_clust_6="13000.00000" pt_clust_7="13000.00000" pt_clust_8="13000.00000" pt_clust_9="47.25341"></scales>
<clustering>
<clus scale="   47.253">  1  9  2 -1</clus>
<clus scale="   91.688">  7  8 -1 -1</clus>
<clus scale="   92.599">  2  7  1 -1</clus>
<clus scale="   93.804">  5  6 -1 -1</clus>
<clus scale="   47.253">  1  5  2 -1</clus>
</clustering>
</event>
<event>
 9    1  0.1610296E-005  0.9924581E+02  0.7546771E-02  0.1282625E+00
         21   -1    0    0  501  502  0.00000000000E+00  0.00000000000E+00  0.14905937487E+03  0.14905937487E+03  0.00000000000E+00 0.  1.
         -2   -1    0    0    0  501 -0.00000000000E+00 -0.00000000000E+00 -0.15644089867E+03  0.15644089867E+03  0.00000000000E+00 0.  1.
         23    2    1    2    0    0  0.10102331448E+02 -0.46667762250E+02 -0.57808921955E+02  0.11868468600E+03  0.92001337486E+02 0.  0.
         23    2    1    2    0    0 -0.24489470053E+01  0.25746157766E+02 -0.33544909859E+02  0.99938453947E+02  0.90518349625E+02 0.  0.
        -11    1    3    3    0    0 -0.10891161776E+02 -0.26139497930E+02 -0.78045745134E+02  0.83024268081E+02  0.00000000000E+00 0.  1.
         11    1    3    3    0    0  0.20993493224E+02 -0.20528264320E+02  0.20236823180E+02  0.35660417919E+02  0.00000000000E+00 0. -1.
        -13    1    4    4    0    0 -0.11414870985E+02  0.50978589425E+02  0.55683495467E+01  0.52536866827E+02  0.00000000000E+00 0. -1.
         13    1    4    4    0    0  0.89659239795E+01 -0.25232431659E+02 -0.39113259405E+02  0.47401587120E+02  0.00000000000E+00 0.  1.
         -2    1    1    2    0  502 -0.76533844425E+01  0.20921604484E+02  0.83972308016E+02  0.86877133592E+02  0.00000000000E+00 0.  1.
<scales pt_clust_5="13000.00000" pt_clust_6="13000.00000" pt_clust_7="13000.00000" pt_clust_8="13000.00000" pt_clust_9="22.27752"></scales>
<clustering>
<clus scale="   22.278">  1  9  2 -1</clus>
<clus scale="   90.518">  7  8 -1 -1</clus>
<clus scale="   92.001">  5  6 -1 -1</clus>
<clus scale="   97.873">  1  7  2 -1</clus>
<clus scale="   22.278">  1  5  2 -1</clus>
</clustering>
</event>
<event>
 9    1  0.1610296E-005  0.9675262E+02  0.7546771E-02  0.1289317E+00
         21   -1    0    0  501  502  0.00000000000E+00  0.00000000000E+00  0.53848045991E+02  0.53848045991E+02  0.00000000000E+00 0.  1.
         -1   -1    0    0    0  501 -0.00000000000E+00 -0.00000000000E+00 -0.33005553488E+03  0.33005553488E+03  0.00000000000E+00 0.  1.
         23    2    1    2    0    0  0.62281945448E+01  0.28069441876E+02 -0.14327170702E+03  0.17294008617E+03  0.92492201829E+02 0.  0.
         23    2    1    2    0    0 -0.49815460481E+02 -0.30141851568E+01 -0.48576628166E+02  0.11275920531E+03  0.88680799288E+02 0.  0.
        -11    1    4    4    0    0  0.20102207003E+02 -0.11118252547E+02  0.59426827133E+01  0.23728247806E+02  0.00000000000E+00 0. -1.
         11    1    4    4    0    0 -0.69917667484E+02  0.81040673906E+01 -0.54519310880E+02  0.89030957501E+02  0.00000000000E+00 0.  1.
        -13    1    3    3    0    0  0.12855364767E+02 -0.32263586110E+02 -0.38444905599E+02  0.51809363618E+02  0.00000000000E+00 0. -1.
         13    1    3    3    0    0 -0.66271702220E+01  0.60333027985E+02 -0.10482680142E+03  0.12113072255E+03  0.00000000000E+00 0.  1.
         -1    1    1    2    0  502  0.43587265936E+02 -0.25055256719E+02 -0.84359153704E+02  0.98204289390E+02  0.00000000000E+00 0.  1.
<scales pt_clust_5="13000.00000" pt_clust_6="13000.00000" pt_clust_7="13000.00000" pt_clust_8="13000.00000" pt_clust_9="50.27542"></scales>
<clustering>
<clus scale="   50.275">  1  9  2 -1</clus>
<clus scale="   88.681">  5  6 -1 -1</clus>
<clus scale="   92.492">  7  8 -1 -1</clus>
<clus scale="   93.116">  1  5  2 -1</clus>
<clus scale="   50.275">  1  5  2 -1</clus>
</clustering>
</event>
<event>
 9    1  0.1610296E-005  0.1012756E+03  0.7546771E-02  0.1287860E+00
         21   -1    0    0  501  502  0.00000000000E+00  0.00000000000E+00  0.37196508783E+02  0.37196508783E+02  0.00000000000E+00 0.  1.
          2   -1    0    0  502    0 -0.00000000000E+00 -0.00000000000E+00 -0.44492862971E+03  0.44492862971E+03  0.00000000000E+00 0. -1.
         23    2    1    2    0    0  0.34340095674E+02 -0.10249225484E+01 -0.14476338640E+03  0.16525750470E+03  0.71925740745E+02 0.  0.
         23    2    1    2    0    0 -0.34431244301E+02  0.58731012742E+02 -0.20664491650E+03  0.23623033702E+03  0.92020694249E+02 0.  0.
        -11    1    4    4    0    0  0.35452200922E+01  0.73056710722E+02 -0.11970213171E+03  0.14027990556E+03  0.00000000000E+00 0. -1.
         11    1    4    4    0    0 -0.37976464394E+02 -0.14325697980E+02 -0.86942784790E+02  0.95950431461E+02  0.00000000000E+00 0.  1.
        -13    1    3    3    0    0  0.45444893339E+02  0.23812128903E+02 -0.10753736758E+03  0.11914923936E+03  0.00000000000E+00 0. -1.
         13    1    3    3    0    0 -0.11104797665E+02 -0.24837051451E+02 -0.37226018814E+02  0.46108265341E+02  0.00000000000E+00 0.  1.
          2    1    1    2  501    0  0.91148627492E-01 -0.57706090194E+02 -0.56323818030E+02  0.80637296774E+02  0.00000000000E+00 0. -1.
<scales pt_clust_5="13000.00000" pt_clust_6="13000.00000" pt_clust_7="13000.00000" pt_clust_8="13000.00000" pt_clust_9="57.70616"></scales>
<clustering>
<clus scale="   57.706">  1  9  2 -1</clus>
<clus scale="   71.926">  7  8 -1 -1</clus>
<clus scale="   83.440">  2  7  1 -1</clus>
<clus scale="   92.021">  5  6 -1 -1</clus>
<clus scale="   57.706">  1  5  2 -1</clus>
</clustering>
</event>
<event>
 9    1  0.1610296E-005  0.1385582E+03  0.7546771E-02  0.1218774E+00
         -2   -1    0    0    0  501 -0.00000000000E+00  0.00000000000E+00  0.93027655313E+03  0.93027655313E+03  0.00000000000E+00 0.  1.
         21   -1    0    0  501  502  0.00000000000E+00 -0.00000000000E+00 -0.40844871797E+02  0.40844871797E+02  0.00000000000E+00 0.  1.
         23    2    1    2    0    0  0.65308610330E+02 -0.69919087437E+02  0.32924602526E+03  0.35083228216E+03  0.74340108161E+02 0.  0.
         23    2    1    2    0    0 -0.49378851838E+01  0.14353540460E+03  0.32636481181E+03  0.36782890071E+03  0.90317853868E+02 0.  0.
        -13    1    3    3    0    0  0.74015634761E+02 -0.41664035372E+02  0.28673580999E+03  0.29905121762E+03  0.00000000000E+00 0.  1.
         13    1    3    3    0    0 -0.87070244305E+01 -0.28255052065E+02  0.42510215277E+02  0.51781064536E+02  0.00000000000E+00 0. -1.
        -13    1    4    4    0    0  0.17971338621E+02  0.12580231817E+03  0.30885739749E+03  0.33397916739E+03  0.00000000000E+00 0.  1.
         13    1    4    4    0    0 -0.22909223805E+02  0.17733086430E+02  0.17507414325E+02  0.33849733323E+02  0.00000000000E+00 0. -1.
         -2    1    1    2    0  502 -0.60370725146E+02 -0.73616317167E+02  0.23382084426E+03  0.25246024205E+03  0.00000000000E+00 0.  1.
<scales pt_clust_5="13000.00000" pt_clust_6="13000.00000" pt_clust_7="13000.00000" pt_clust_8="13000.00000" pt_clust_9="95.20502"></scales>
<clustering>
<clus scale="   74.340">  5  6 -1 -1</clus>
<clus scale="   90.318">  7  8 -1 -1</clus>
<clus scale="   95.205">  2  9  1 -1</clus>
<clus scale="  128.715">  1  5  2 -1</clus>
<clus scale="   95.205">  2  5  1 -1</clus>
</clustering>
</event>
<event>
 9    1  0.1610296E-005  0.2662975E+03  0.7546771E-02  0.1127978E+00
          2   -1    0    0  502    0 -0.00000000000E+00  0.00000000000E+00  0.20870984466E+04  0.20870984466E+04  0.00000000000E+00 0. -1.
         21   -1    0    0  501  502  0.00000000000E+00 -0.00000000000E+00 -0.54125290819E+02  0.54125290819E+02  0.00000000000E+00 0. -1.
         23    2    1    2    0    0 -0.10210367105E+03 -0.42454914365E+02  0.48545443626E+03  0.50618331990E+03  0.91257680595E+02 0.  0.
         23    2    1    2    0    0  0.15866640561E+03 -0.20124757728E+03  0.88956019416E+03  0.93112304419E+03  0.99985842811E+02 0.  0.
        -13    1    3    3    0    0 -0.23684894326E+02  0.26384683220E+02  0.17821134663E+03  0.18170418211E+03  0.00000000000E+00 0. -1.
         13    1    3    3    0    0 -0.78418776720E+02 -0.68839597585E+02  0.30724308963E+03  0.32447913779E+03  0.00000000000E+00 0.  1.
        -13    1    4    4    0    0  0.10657788569E+03 -0.13084568290E+03  0.72851527553E+03  0.74780608792E+03  0.00000000000E+00 0.  1.
         13    1    4    4    0    0  0.52088519927E+02 -0.70401894378E+02  0.16104491863E+03  0.18331695627E+03  0.00000000000E+00 0. -1.
          2    1    1    2  501    0 -0.56562734566E+02  0.24370249164E+03  0.65795852535E+03  0.70391737332E+03  0.00000000000E+00 0. -1.
<scales pt_clust_5="13000.00000" pt_clust_6="13000.00000" pt_clust_7="13000.00000" pt_clust_8="13000.00000" pt_clust_9="246.81404"></scales>
<clustering>
<clus scale="   91.258">  5  6 -1 -1</clus>
<clus scale="   99.986">  7  8 -1 -1</clus>
<clus scale="  143.372">  1  5  2 -1</clus>
<clus scale="  246.814">  2  9  1 -1</clus>
<clus scale="  246.814">  2  5  1 -1</clus>
</clustering>
</event>
<event>
 9    1  0.1610296E-005  0.1154746E+03  0.7546771E-02  0.1254391E+00
         21   -1    0    0  501  502  0.00000000000E+00  0.00000000000E+00  0.68525350343E+02  0.68525350343E+02  0.00000000000E+00 0.  1.
          1   -1    0    0  502    0 -0.00000000000E+00 -0.00000000000E+00 -0.49522022484E+03  0.49522022484E+03  0.00000000000E+00 0. -1.
         23    2    1    2    0    0  0.32860789820E+02 -0.50731073422E+02 -0.35270063495E+03  0.37155861218E+03  0.10002295273E+03 0.  0.
         23    2    1    2    0    0 -0.87050754343E+01  0.54069842471E+02 -0.10741345637E+03  0.15081680505E+03  0.90602052262E+02 0.  0.
        -11    1    3    3    0    0 -0.56666545158E+01 -0.72306433179E+02 -0.22915849528E+03  0.24036211684E+03  0.00000000000E+00 0. -1.
         11    1    3    3    0    0  0.38527444335E+02  0.21575359757E+02 -0.12354213966E+03  0.13119649534E+03  0.00000000000E+00 0.  1.
        -11    1    4    4    0    0  0.63138110780E+01 -0.23789366353E+02 -0.38849892535E+02  0.45990350203E+02  0.00000000000E+00 0. -1.
         11    1    4    4    0    0 -0.15018886512E+02  0.77859208824E+02 -0.68563563837E+02  0.10482645485E+03  0.00000000000E+00 0.  1.
          1    1    1    2  501    0 -0.24155714385E+02 -0.33387690489E+01  0.33419216819E+02  0.41370157953E+02  0.00000000000E+00 0. -1.
<scales pt_clust_5="13000.00000" pt_clust_6="13000.00000" pt_clust_7="13000.00000" pt_clust_8="13000.00000" pt_clust_9="24.38536"></scales>
<clustering>
<clus scale="   24.385">  1  9  2 -1</clus>
<clus scale="   90.602">  7  8 -1 -1</clus>
<clus scale="  100.023">  5  6 -1 -1</clus>
<clus scale="  107.417">  1  7  2 -1</clus>
<clus scale="   24.385">  1  5  2 -1</clus>
</clustering>
</event>
<event>
 9    1  0.1610296E-005  0.1007883E+03  0.7546771E-02  0.1279663E+00
          2   -1    0    0  502    0 -0.00000000000E+00  0.00000000000E+00  0.34270403120E+03  0.34270403120E+03  0.00000000000E+00 0. -1.
         21   -1    0    0  501  502  0.00000000000E+00 -0.00000000000E+00 -0.12842046031E+03  0.12842046031E+03  0.00000000000E+00 0. -1.
         23    2    1    2    0    0  0.21747649567E+02  0.41475235944E+02  0.19412640441E+03  0.21939239047E+03  0.90855955482E+02 0.  0.
         23    2    1    2    0    0 -0.27691204281E+02 -0.14954769406E+02  0.11609581649E+03  0.15201808219E+03  0.92955961523E+02 0.  0.
        -11    1    4    4    0    0 -0.46999100698E+02  0.15546205254E+02  0.10178801761E+03  0.11318745732E+03  0.00000000000E+00 0. -1.
         11    1    4    4    0    0  0.19307896417E+02 -0.30500974660E+02  0.14307798882E+02  0.38830624874E+02  0.00000000000E+00 0.  1.
        -13    1    3    3    0    0  0.48414686466E+02 -0.47558875474E+01  0.99381526611E+02  0.11064939296E+03  0.00000000000E+00 0.  1.
         13    1    3    3    0    0 -0.26667036899E+02  0.46231123492E+02  0.94744877799E+02  0.10874299750E+03  0.00000000000E+00 0. -1.
          2    1    1    2  501    0  0.59435547141E+01 -0.26520466538E+02 -0.95938650013E+02  0.99714018846E+02  0.00000000000E+00 0. -1.
<scales pt_clust_5="13000.00000" pt_clust_6="13000.00000" pt_clust_7="13000.00000" pt_clust_8="13000.00000" pt_clust_9="27.17832"></scales>
<clustering>
<clus scale="   27.178">  2  9  1 -1</clus>
<clus scale="   90.856">  7  8 -1 -1</clus>
<clus scale="   92.956">  5  6 -1 -1</clus>
<clus scale="   98.855">  1  7  2 -1</clus>
<clus scale="   27.178">  2  5  1 -1</clus>
</clustering>
</event>
<event>
 9    1  0.1610296E-005  0.1042076E+03  0.7546771E-02  0.1274663E+00
          2   -1    0    0  502    0 -0.00000000000E+00  0.00000000000E+00  0.35932047951E+03  0.35932047951E+03  0.00000000000E+00 0. -1.
         21   -1    0    0  501  502  0.00000000000E+00 -0.00000000000E+00 -0.54913322394E+02  0.54913322394E+02  0.00000000000E+00 0. -1.
         23    2    1    2    0    0  0.18217010184E+02 -0.44546738204E+02  0.25673582629E+03  0.27605218529E+03  0.89304272875E+02 0.  0.
         23    2    1    2    0    0 -0.61410673221E+01  0.19634575426E+02  0.50934978755E+02  0.11030518126E+03  0.95653707155E+02 0.  0.
        -11    1    3    3    0    0 -0.28349042073E+02 -0.24630046071E+02  0.46340563873E+02  0.59646921262E+02  0.00000000000E+00 0.  1.
         11    1    3    3    0    0  0.46566052257E+02 -0.19916692134E+02  0.21039526242E+03  0.21640526403E+03  0.00000000000E+00 0. -1.
        -13    1    4    4    0    0  0.40033619679E+02 -0.49399174639E+01  0.40119795624E+02  0.56891928163E+02  0.00000000000E+00 0. -1.
         13    1    4    4    0    0 -0.46174687001E+02  0.24574492890E+02  0.10815183131E+02  0.53413253099E+02  0.00000000000E+00 0.  1.
          2    1    1    2  501    0 -0.12075942861E+02  0.24912162778E+02 -0.32636479336E+01  0.27876435355E+02  0.00000000000E+00 0. -1.
<scales pt_clust_5="13000.00000" pt_clust_6="13000.00000" pt_clust_7="13000.00000" pt_clust_8="13000.00000" pt_clust_9="27.68473"></scales>
<clustering>
<clus scale="   27.685">  2  9  1 -1</clus>
<clus scale="   89.304">  5  6 -1 -1</clus>
<clus scale="   95.654">  7  8 -1 -1</clus>
<clus scale="   98.412">  1  5  2 -1</clus>
<clus scale="   27.685">  2  5  1 -1</clus>
</clustering>
</event>
<event>
 9    1  0.1610296E-005  0.1206000E+03  0.7546771E-02  0.1242399E+00
          3   -1    0    0  502    0 -0.00000000000E+00  0.00000000000E+00  0.91293750852E+03  0.91293750852E+03  0.00000000000E+00 0. -1.
         21   -1    0    0  501  502  0.00000000000E+00 -0.00000000000E+00 -0.84648594635E+02  0.84648594635E+02  0.00000000000E+00 0. -1.
         23    2    1    2    0    0 -0.74119756651E+02  0.36402294087E+01  0.56678995654E+03  0.57881408015E+03  0.90927965713E+02 0.  0.
         23    2    1    2    0    0  0.83003391046E+02 -0.31823678974E+02  0.32472680185E+03  0.34897957277E+03  0.91852800198E+02 0.  0.
        -11    1    4    4    0    0  0.13635366200E+02  0.16944052789E+02  0.11751670013E+02  0.24720960426E+02  0.00000000000E+00 0.  1.
         11    1    4    4    0    0  0.69368024846E+02 -0.48767731763E+02  0.31297513183E+03  0.32425861234E+03  0.00000000000E+00 0. -1.
        -11    1    3    3    0    0 -0.52010055297E+02  0.45831979941E+02  0.35933677407E+03  0.36596247545E+03  0.00000000000E+00 0. -1.
         11    1    3    3    0    0 -0.22109701354E+02 -0.42191750532E+02  0.20745318247E+03  0.21285160470E+03  0.00000000000E+00 0.  1.
          3    1    1    2  501    0 -0.88836343952E+01  0.28183449565E+02 -0.63227844502E+02  0.69792450235E+02  0.00000000000E+00 0. -1.
<scales pt_clust_5="13000.00000" pt_clust_6="13000.00000" pt_clust_7="13000.00000" pt_clust_8="13000.00000" pt_clust_9="29.55039"></scales>
<clustering>
<clus scale="   29.550">  2  9  1 -1</clus>
<clus scale="   90.928">  7  8 -1 -1</clus>
<clus scale="   91.853">  5  6 -1 -1</clus>
<clus scale="  119.897">  1  7  2 -1</clus>
<clus scale="   29.550">  2  5  1 -1</clus>
</clustering>
</event>
<event>
 9    1  0.1610296E-005  0.2107141E+03  0.7546771E-02  0.1141184E+00
         21   -1    0    0  501  502  0.00000000000E+00  0.00000000000E+00  0.37272059035E+03  0.37272059035E+03  0.00000000000E+00 0.  1.
          3   -1    0    0  502    0 -0.00000000000E+00 -0.00000000000E+00 -0.23590345302E+03  0.23590345302E+03  0.00000000000E+00 0. -1.
         23    2    1    2    0    0  0.17661532547E+02 -0.17497793579E+03 -0.35875725895E+02  0.20233131783E+03  0.93389971208E+02 0.  0.
         23    2    1    2    0    0 -0.22190369345E+02  0.20489451538E+03 -0.55765936560E+01  0.22547372391E+03  0.91285961972E+02 0.  0.
        -13    1    4    4    0    0  0.33833978356E+02  0.47454149369E+02 -0.24929900029E+01  0.58333947088E+02  0.00000000000E+00 0.  1.
         13    1    4    4    0    0 -0.56024347701E+02  0.15744036601E+03 -0.30836036530E+01  0.16713977682E+03  0.00000000000E+00 0. -1.
        -13    1    3    3    0    0 -0.20970856121E+02 -0.11079575600E+02  0.12927258999E+02  0.27011994135E+02  0.00000000000E+00 0. -1.
         13    1    3    3    0    0  0.38632388669E+02 -0.16389836019E+03 -0.48802984894E+02  0.17531932369E+03  0.00000000000E+00 0.  1.
          3    1    1    2  501    0  0.45288367977E+01 -0.29916579589E+02  0.17826945688E+03  0.18081900164E+03  0.00000000000E+00 0. -1.
<scales pt_clust_5="13000.00000" pt_clust_6="13000.00000" pt_clust_7="13000.00000" pt_clust_8="13000.00000" pt_clust_9="30.25743"></scales>
<clustering>
<clus scale="   30.257">  1  9  2 -1</clus>
<clus scale="   91.286">  5  6 -1 -1</clus>
<clus scale="   93.390">  7  8 -1 -1</clus>
<clus scale="  209.790">  1  5  2 -1</clus>
<clus scale="   30.257">  1  5  2 -1</clus>
</clustering>
</event>
<event>
 9    1  0.1610296E-005  0.9906566E+02  0.7546771E-02  0.1282652E+00
          1   -1    0    0  502    0 -0.00000000000E+00  0.00000000000E+00  0.40090452083E+03  0.40090452083E+03  0.00000000000E+00 0. -1.
         21   -1    0    0  501  502  0.00000000000E+00 -0.00000000000E+00 -0.73347546030E+02  0.73347546030E+02  0.00000000000E+00 0. -1.
         23    2    1    2    0    0  0.41659505771E+02  0.64526494693E+01  0.31727050572E+03  0.33286551908E+03  0.91442489502E+02 0.  0.
         23    2    1    2    0    0 -0.20986048279E+02 -0.10359517317E+02  0.42558372014E+02  0.10286212461E+03  0.90673413029E+02 0.  0.
        -11    1    3    3    0    0  0.61766554806E+02 -0.14579486572E+02  0.26999246411E+03  0.27735104001E+03  0.00000000000E+00 0. -1.
         11    1    3    3    0    0 -0.20107049035E+02  0.21032136042E+02  0.47278041613E+02  0.55514479068E+02  0.00000000000E+00 0.  1.
        -13    1    4    4    0    0 -0.33683824865E+02  0.30859577818E+02  0.55282327841E+01  0.46016029363E+02  0.00000000000E+00 0.  1.
         13    1    4    4    0    0  0.12697776586E+02 -0.41219095135E+02  0.37030139230E+02  0.56846095252E+02  0.00000000000E+00 0. -1.
          1    1    1    2  501    0 -0.20673457492E+02  0.39068678480E+01 -0.32271902935E+02  0.38524423164E+02  0.00000000000E+00 0. -1.
<scales pt_clust_5="13000.00000" pt_clust_6="13000.00000" pt_clust_7="13000.00000" pt_clust_8="13000.00000" pt_clust_9="21.03938"></scales>
<clustering>
<clus scale="   21.039">  2  9  1 -1</clus>
<clus scale="   90.673">  7  8 -1 -1</clus>
<clus scale="   91.442">  5  6 -1 -1</clus>
<clus scale="   98.356">  2  7  1 -1</clus>
<clus scale="   21.039">  2  5  1 -1</clus>
</clustering>
</event>
<event>
 9    1  0.1610296E-005  0.9568041E+02  0.7546771E-02  0.1289859E+00
          1   -1    0    0  502    0 -0.00000000000E+00  0.00000000000E+00  0.25433449278E+03  0.25433449278E+03  0.00000000000E+00 0. -1.
         21   -1    0    0  501  502  0.00000000000E+00 -0.00000000000E+00 -0.12370885540E+03  0.12370885540E+03  0.00000000000E+00 0. -1.
         23    2    1    2    0    0  0.12739181027E+02  0.30406243047E+02  0.12122653107E+03  0.15555968988E+03  0.91739407737E+02 0.  0.
         23    2    1    2    0    0 -0.60055571384E+02  0.49556868281E+02  0.36917109517E+02  0.12558071474E+03  0.91351453694E+02 0.  0.
        -13    1    3    3    0    0  0.41337414980E+02 -0.13643650690E+02  0.41875101512E+02  0.60402443726E+02  0.00000000000E+00 0.  1.
         13    1    3    3    0    0 -0.28598233953E+02  0.44049893737E+02  0.79351429556E+02  0.95157246157E+02  0.00000000000E+00 0. -1.
        -13    1    4    4    0    0 -0.78433760004E+02  0.25145744804E+02  0.67499118885E+01  0.82642147241E+02  0.00000000000E+00 0.  1.
         13    1    4    4    0    0  0.18378188619E+02  0.24411123477E+02  0.30167197628E+02  0.42938567501E+02  0.00000000000E+00 0. -1.
          1    1    1    2  501    0  0.47316390357E+02 -0.79963111327E+02 -0.27518003206E+02  0.96902943557E+02  0.00000000000E+00 0. -1.
<scales pt_clust_5="13000.00000" pt_clust_6="13000.00000" pt_clust_7="13000.00000" pt_clust_8="13000.00000" pt_clust_9="92.91362"></scales>
<clustering>
<clus scale="   91.351">  7  8 -1 -1</clus>
<clus scale="   91.739">  5  6 -1 -1</clus>
<clus scale="   92.914">  2  9  1 -1</clus>
<clus scale="   95.309">  2  7  1 -1</clus>
<clus scale="   92.914">  2  5  1 -1</clus>
</clustering>
</event>
<event>
 9    1  0.1610296E-005  0.9453175E+02  0.7546771E-02  0.1292874E+00
         21   -1    0    0  501  502  0.00000000000E+00  0.00000000000E+00  0.39255841743E+03  0.39255841743E+03  0.00000000000E+00 0. -1.
          4   -1    0    0  502    0 -0.00000000000E+00 -0.00000000000E+00 -0.10898789260E+03  0.10898789260E+03  0.00000000000E+00 0. -1.
         23    2    1    2    0    0 -0.36811069227E+02 -0.15622030095E+02 -0.42998155294E+02  0.10675896109E+03  0.89160146775E+02 0.  0.
         23    2    1    2    0    0  0.92274089262E+00  0.77219496969E+01  0.29342048273E+02  0.95297692921E+02  0.90333905713E+02 0.  0.
        -13    1    4    4    0    0 -0.80765326721E+01  0.39334212551E+02 -0.12531695223E+02  0.42064878963E+02  0.00000000000E+00 0.  1.
         13    1    4    4    0    0  0.89992735647E+01 -0.31612262854E+02  0.41873743496E+02  0.53232813957E+02  0.00000000000E+00 0. -1.
        -13    1    3    3    0    0 -0.49896599282E+02  0.23551620776E+02 -0.16121628680E+02  0.57482661493E+02  0.00000000000E+00 0. -1.
         13    1    3    3    0    0  0.13085530055E+02 -0.39173650871E+02 -0.26876526614E+02  0.49276299599E+02  0.00000000000E+00 0.  1.
          4    1    1    2  501    0  0.35888328334E+02  0.79000803979E+01  0.29722663185E+03  0.29948965601E+03  0.00000000000E+00 0. -1.
<scales pt_clust_5="13000.00000" pt_clust_6="13000.00000" pt_clust_7="13000.00000" pt_clust_8="13000.00000" pt_clust_9="36.74756"></scales>
<clustering>
<clus scale="   36.748">  1  9  2 -1</clus>
<clus scale="   89.160">  7  8 -1 -1</clus>
<clus scale="   90.334">  5  6 -1 -1</clus>
<clus scale="   93.411">  2  7  1 -1</clus>
<clus scale="   36.748">  1  5  2 -1</clus>
</clustering>
</event>
<event>
 9    1  0.1610296E-005  0.1950246E+03  0.7546771E-02  0.1154183E+00
         21   -1    0    0  501  502  0.00000000000E+00  0.00000000000E+00  0.15245707929E+03  0.15245707929E+03  0.00000000000E+00 0.  1.
          2   -1    0    0  502    0 -0.00000000000E+00 -0.00000000000E+00 -0.59091444011E+03  0.59091444011E+03  0.00000000000E+00 0. -1.
         23    2    1    2    0    0 -0.18062636873E+03  0.77827078361E+01 -0.39669143068E+03  0.44511879844E+03  0.89889921198E+02 0.  0.
         23    2    1    2    0    0  0.13263636469E+03  0.58240821420E+02  0.46932187833E+02  0.17771433273E+03  0.91626171393E+02 0.  0.
        -11    1    4    4    0    0  0.93446597552E+02  0.81546417106E+02  0.45463624699E+02  0.13209476109E+03  0.00000000000E+00 0.  1.
         11    1    4    4    0    0  0.39189767142E+02 -0.23305595686E+02  0.14685631341E+01  0.45619571640E+02  0.00000000000E+00 0. -1.
        -11    1    3    3    0    0 -0.38169728503E+02  0.28906189924E+02 -0.47722095848E+02  0.67600994238E+02  0.00000000000E+00 0.  1.
         11    1    3    3    0    0 -0.14245664022E+03 -0.21123482088E+02 -0.34896933483E+03  0.37751780420E+03  0.00000000000E+00 0. -1.
          2    1    1    2  501    0  0.47990004033E+02 -0.66023529256E+02 -0.88698117978E+02  0.12053838822E+03  0.00000000000E+00 0. -1.
<scales pt_clust_5="13000.00000" pt_clust_6="13000.00000" pt_clust_7="13000.00000" pt_clust_8="13000.00000" pt_clust_9="81.62202"></scales>
<clustering>
<clus scale="   81.622">  1  9  2 -1</clus>
<clus scale="   89.890">  7  8 -1 -1</clus>
<clus scale="   91.626">  5  6 -1 -1</clus>
<clus scale="  194.215">  2  7  1 -1</clus>
<clus scale="   81.622">  1  5  2 -1</clus>
</clustering>
</event>
<event>
 9    1  0.1610296E-005  0.1061702E+03  0.7546771E-02  0.1269395E+00
          2   -1    0    0  502    0 -0.00000000000E+00  0.00000000000E+00  0.68902447949E+02  0.68902447949E+02  0.00000000000E+00 0. -1.
         21   -1    0    0  501  502  0.00000000000E+00 -0.00000000000E+00 -0.28482986712E+03  0.28482986712E+03  0.00000000000E+00 0. -1.
         23    2    1    2    0    0 -0.41027194058E+02 -0.21676548010E+02 -0.24287071378E+02  0.10508793692E+03  0.91107130699E+02 0.  0.
         23    2    1    2    0    0  0.62257769317E+02  0.29143978234E+02 -0.85817452081E+02  0.14045479872E+03  0.87392872102E+02 0.  0.
        -11    1    4    4    0    0  0.67450922521E+02  0.53595271214E+02 -0.68082477911E+02  0.10980575506E+03  0.00000000000E+00 0. -1.
         11    1    4    4    0    0 -0.51931532040E+01 -0.24451292980E+02 -0.17734974170E+02  0.30649043662E+02  0.00000000000E+00 0.  1.
        -11    1    3    3    0    0 -0.66958078667E+02 -0.50368418068E+00 -0.67598760286E+01  0.67300326303E+02  0.00000000000E+00 0.  1.
         11    1    3    3    0    0  0.25930884609E+02 -0.21172863829E+02 -0.17527195350E+02  0.37787610617E+02  0.00000000000E+00 0. -1.
          2    1    1    2  501    0 -0.21230575259E+02 -0.74674302239E+01 -0.10582289572E+03  0.10818957943E+03  0.00000000000E+00 0. -1.
<scales pt_clust_5="13000.00000" pt_clust_6="13000.00000" pt_clust_7="13000.00000" pt_clust_8="13000.00000" pt_clust_9="22.50555"></scales>
<clustering>
<clus scale="   22.506">  2  9  1 -1</clus>
<clus scale="   87.393">  5  6 -1 -1</clus>
<clus scale="   91.107">  7  8 -1 -1</clus>
<clus scale="  103.001">  2  5  1 -1</clus>
<clus scale="   22.506">  2  5  1 -1</clus>
</clustering>
</event>
<event>
 9    1  0.1610296E-005  0.9444086E+02  0.7546771E-02  0.1293721E+00
         21   -1    0    0  501  502  0.00000000000E+00  0.00000000000E+00  0.11927541760E+03  0.11927541760E+03  0.00000000000E+00 0. -1.
          1   -1    0    0  502    0 -0.00000000000E+00 -0.00000000000E+00 -0.24174507159E+03  0.24174507159E+03  0.00000000000E+00 0. -1.
         23    2    1    2    0    0  0.10387830941E+02  0.24613583064E+02 -0.15514915079E+03  0.18250129117E+03  0.92313199414E+02 0.  0.
         23    2    1    2    0    0 -0.43451831761E+01 -0.44236241752E+01 -0.42995097174E+02  0.99964807915E+02  0.90032968255E+02 0.  0.
        -11    1    3    3    0    0 -0.29408369440E+02  0.78647312803E+01 -0.12783572388E+03  0.13141034393E+03  0.00000000000E+00 0. -1.
         11    1    3    3    0    0  0.39796200380E+02  0.16748851784E+02 -0.27313426908E+02  0.51090947244E+02  0.00000000000E+00 0.  1.
        -13    1    4    4    0    0 -0.24491337437E+02 -0.39345315979E+02 -0.36793075927E+02  0.59174402701E+02  0.00000000000E+00 0. -1.
         13    1    4    4    0    0  0.20146154261E+02  0.34921691803E+02 -0.62020212472E+01  0.40790405213E+02  0.00000000000E+00 0.  1.
          1    1    1    2  501    0 -0.60426477645E+01 -0.20189958889E+02  0.75674593968E+02  0.78554390101E+02  0.00000000000E+00 0. -1.
<scales pt_clust_5="13000.00000" pt_clust_6="13000.00000" pt_clust_7="13000.00000" pt_clust_8="13000.00000" pt_clust_9="21.07482"></scales>
<clustering>
<clus scale="   21.075">  1  9  2 -1</clus>
<clus scale="   90.033">  7  8 -1 -1</clus>
<clus scale="   92.213">  1  7  2 -1</clus>
<clus scale="   92.313">  5  6 -1 -1</clus>
<clus scale="   21.075">  1  5  2 -1</clus>
</clustering>
</event>
<event>
 9    1  0.2732372E-005  0.9757573E+02  0.7546771E-02  0.1285589E+00
          3   -1    0    0  502    0 -0.00000000000E+00  0.00000000000E+00  0.22859015360E+03  0.22859015360E+03  0.00000000000E+00 0. -1.
         21   -1    0    0  501  502  0.00000000000E+00 -0.00000000000E+00 -0.18544451280E+03  0.18544451280E+03  0.00000000000E+00 0. -1.
         23    2    1    2    0    0 -0.40203218575E+02 -0.17867457458E+02  0.15115750316E+03  0.18149776572E+03  0.90317791054E+02 0.  0.
         23    2    1    2    0    0  0.21021412552E+02 -0.54870709051E+02 -0.91669153742E+01  0.10832294778E+03  0.90538026163E+02 0.  0.
        -11    1    4    4    0    0  0.33646678809E+02  0.55419206748E+01 -0.27645140707E+02  0.43898356284E+02  0.00000000000E+00 0.  1.
         11    1    4    4    0    0 -0.12625266258E+02 -0.60412629726E+02  0.18478225333E+02  0.64424591500E+02  0.00000000000E+00 0. -1.
        -11    1    3    3    0    0  0.23427587879E+02  0.15216431966E+02  0.32555802524E+02  0.42898391038E+02  0.00000000000E+00 0.  1.
         11    1    3    3    0    0 -0.63630806454E+02 -0.33083889424E+02  0.11860170063E+03  0.13859937468E+03  0.00000000000E+00 0. -1.
          3    1    1    2  501    0  0.19181806023E+02  0.72738166509E+02 -0.98844946986E+02  0.12421395290E+03  0.00000000000E+00 0. -1.
<scales pt_clust_5="13000.00000" pt_clust_6="13000.00000" pt_clust_7="13000.00000" pt_clust_8="13000.00000" pt_clust_9="75.22488"></scales>
<clustering>
<clus scale="   75.225">  2  9  1 -1</clus>
<clus scale="   90.318">  7  8 -1 -1</clus>
<clus scale="   90.538">  5  6 -1 -1</clus>
<clus scale="   97.371">  1  7  2 -1</clus>
<clus scale="   75.225">  2  5  1 -1</clus>
</clustering>
</event>
<event>
 9    1  0.1610296E-005  0.1695931E+03  0.7546771E-02  0.1205880E+00
          2   -1    0    0  502    0 -0.00000000000E+00  0.00000000000E+00  0.47758741445E+03  0.47758741445E+03  0.00000000000E+00 0. -1.
         21   -1    0    0  501  502  0.00000000000E+00 -0.00000000000E+00 -0.91596769204E+02  0.91596769204E+02  0.00000000000E+00 0. -1.
         23    2    1    2    0    0  0.11160719413E+02  0.64348807673E+01  0.35513028309E+02  0.98937616791E+02  0.91441278908E+02 0.  0.
         23    2    1    2    0    0 -0.10581345222E+03 -0.10637078976E+03  0.18026450825E+03  0.25134287090E+03  0.90369874586E+02 0.  0.
        -11    1    3    3    0    0  0.50587119670E+02 -0.55789800881E+01  0.16110170035E+02  0.53382761955E+02  0.00000000000E+00 0.  1.
         11    1    3    3    0    0 -0.39426400257E+02  0.12013860855E+02  0.19402858275E+02  0.45554854836E+02  0.00000000000E+00 0. -1.
        -13    1    4    4    0    0 -0.11863201434E+03 -0.76185815207E+02  0.15770342420E+03  0.21153771122E+03  0.00000000000E+00 0. -1.
         13    1    4    4    0    0  0.12818562114E+02 -0.30184974557E+02  0.22561084045E+02  0.39805159678E+02  0.00000000000E+00 0.  1.
          2    1    1    2  501    0  0.94652732812E+02  0.99935908996E+02  0.17021310869E+03  0.21890369596E+03  0.00000000000E+00 0. -1.
<scales pt_clust_5="13000.00000" pt_clust_6="13000.00000" pt_clust_7="13000.00000" pt_clust_8="13000.00000" pt_clust_9="143.51006"></scales>
<clustering>
<clus scale="   90.370">  7  8 -1 -1</clus>
<clus scale="   91.441">  5  6 -1 -1</clus>
<clus scale="   92.344">  1  5  2 -1</clus>
<clus scale="  143.510">  2  9  1 -1</clus>
<clus scale="  143.510">  2  5  1 -1</clus>
</clustering>
</event>
<event>
 9    1  0.1610296E-005  0.9408363E+02  0.7546771E-02  0.1295004E+00
          1   -1    0    0  502    0 -0.00000000000E+00  0.00000000000E+00  0.14032515878E+03  0.14032515878E+03  0.00000000000E+00 0. -1.
         21   -1    0    0  501  502  0.00000000000E+00 -0.00000000000E+00 -0.24142224730E+03  0.24142224730E+03  0.00000000000E+00 0.  1.
         23    2    1    2    0    0 -0.80915248725E+01 -0.10181173791E+02  0.66531701811E+02  0.11119230756E+03  0.88137011755E+02 0.  0.
         23    2    1    2    0    0  0.21385134992E+02  0.41572747538E+02 -0.31455544195E+01  0.10257627286E+03  0.91248999477E+02 0.  0.
        -11    1    3    3    0    0 -0.45345905658E+02 -0.14376370230E+02  0.53287739829E+02  0.71431886416E+02  0.00000000000E+00 0. -1.
         11    1    3    3    0    0  0.37254380785E+02  0.41951964392E+01  0.13243961982E+02  0.39760421148E+02  0.00000000000E+00 0.  1.
        -11    1    4    4    0    0  0.13399095771E+01  0.37929618943E+02 -0.43281696018E+02  0.57565237436E+02  0.00000000000E+00 0.  1.
         11    1    4    4    0    0  0.20045225415E+02  0.36431285949E+01  0.40136141599E+02  0.45011035428E+02  0.00000000000E+00 0. -1.
          1    1    1    2  501    0 -0.13293610120E+02 -0.31391573746E+02 -0.16448323591E+03  0.16797882565E+03  0.00000000000E+00 0. -1.
<scales pt_clust_5="13000.00000" pt_clust_6="13000.00000" pt_clust_7="13000.00000" pt_clust_8="13000.00000" pt_clust_9="34.09034"></scales>
<clustering>
<clus scale="   34.090">  2  9  1 -1</clus>
<clus scale="   88.137">  5  6 -1 -1</clus>
<clus scale="   91.069">  1  5  2 -1</clus>
<clus scale="   91.249">  7  8 -1 -1</clus>
<clus scale="   34.090">  2  5  1 -1</clus>
</clustering>
</event>
<event>
 9    1  0.1610296E-005  0.1306867E+03  0.7546771E-02  0.1241521E+00
         21   -1    0    0  501  502  0.00000000000E+00  0.00000000000E+00  0.67597152408E+03  0.67597152408E+03  0.00000000000E+00 0. -1.
         -3   -1    0    0    0  501 -0.00000000000E+00 -0.00000000000E+00 -0.11607485739E+03  0.11607485739E+03  0.00000000000E+00 0.  1.
         23    2    1    2    0    0  0.33181886262E+02  0.90974040701E+01 -0.74621356062E+02  0.12257268730E+03  0.90950077270E+02 0.  0.
         23    2    1    2    0    0  0.24983413872E+02 -0.22896588293E+02  0.27284239240E+03  0.30289098696E+03  0.12708876492E+03 0.  0.
        -11    1    4    4    0    0  0.60014367140E+02 -0.95047014855E+01  0.25352506839E+03  0.26070485979E+03  0.00000000000E+00 0. -1.
         11    1    4    4    0    0 -0.35030953268E+02 -0.13391886808E+02  0.19317324006E+02  0.42186127173E+02  0.00000000000E+00 0.  1.
        -13    1    3    3    0    0 -0.26178441855E+02 -0.14037886346E+02 -0.88286328695E+01  0.30988995295E+02  0.00000000000E+00 0. -1.
         13    1    3    3    0    0  0.59360328117E+02  0.23135290416E+02 -0.65792723193E+02  0.91583692009E+02  0.00000000000E+00 0.  1.
         -3    1    1    2    0  502 -0.58165300134E+02  0.13799184223E+02  0.36167563036E+03  0.36658270720E+03  0.00000000000E+00 0.  1.
<scales pt_clust_5="13000.00000" pt_clust_6="13000.00000" pt_clust_7="13000.00000" pt_clust_8="13000.00000" pt_clust_9="59.77976"></scales>
<clustering>
<clus scale="   59.780">  1  9  2 -1</clus>
<clus scale="   90.950">  7  8 -1 -1</clus>
<clus scale="   95.913">  2  7  1 -1</clus>
<clus scale="  127.089">  5  6 -1 -1</clus>
<clus scale="   59.780">  1  5  2 -1</clus>
</clustering>
</event>
<event>
 9    1  0.1610296E-005  0.9186500E+02  0.7546771E-02  0.1299035E+00
          2   -1    0    0  502    0 -0.00000000000E+00  0.00000000000E+00  0.44236909127E+03  0.44236909127E+03  0.00000000000E+00 0. -1.
         21   -1    0    0  501  502  0.00000000000E+00 -0.00000000000E+00 -0.31745778942E+02  0.31745778942E+02  0.00000000000E+00 0. -1.
         23    2    1    2    0    0 -0.16853117070E+02 -0.10202563029E+02  0.23442484806E+03  0.25201935910E+03  0.90391526840E+02 0.  0.
         23    2    1    2    0    0 -0.12201521286E+02  0.31239121681E+01  0.16696899723E+03  0.19079914759E+03  0.91471485914E+02 0.  0.
        -11    1    4    4    0    0  0.27793928672E+02  0.32228549170E+02  0.69443852262E+02  0.81447102278E+02  0.00000000000E+00 0. -1.
         11    1    4    4    0    0 -0.39995449957E+02 -0.29104637002E+02  0.97525144973E+02  0.10935204531E+03  0.00000000000E+00 0.  1.
        -11    1    3    3    0    0  0.38651110912E+01 -0.45563795371E+02  0.78979571507E+02  0.91262101925E+02  0.00000000000E+00 0.  1.
         11    1    3    3    0    0 -0.20718228162E+02  0.35361232342E+02  0.15544527655E+03  0.16075725717E+03  0.00000000000E+00 0. -1.
          2    1    1    2  501    0  0.29054638356E+02  0.70786508609E+01  0.92294670318E+01  0.31296363522E+02  0.00000000000E+00 0. -1.
<scales pt_clust_5="13000.00000" pt_clust_6="13000.00000" pt_clust_7="13000.00000" pt_clust_8="13000.00000" pt_clust_9="29.90450"></scales>
<clustering>
<clus scale="   29.905">  2  9  1 -1</clus>
<clus scale="   90.392">  7  8 -1 -1</clus>
<clus scale="   90.790">  1  7  2 -1</clus>
<clus scale="   91.471">  5  6 -1 -1</clus>
<clus scale="   29.905">  2  5  1 -1</clus>
</clustering>
</event>
<event>
 9    1  0.1610296E-005  0.1976628E+03  0.7546771E-02  0.1178478E+00
         21   -1    0    0  501  502  0.00000000000E+00  0.00000000000E+00  0.10929897062E+03  0.10929897062E+03  0.00000000000E+00 0. -1.
          1   -1    0    0  502    0 -0.00000000000E+00 -0.00000000000E+00 -0.87130605647E+03  0.87130605647E+03  0.00000000000E+00 0. -1.
         23    2    1    2    0    0 -0.37081853133E+02 -0.55181648820E+02 -0.48726923277E+03  0.49879802514E+03  0.83355182682E+02 0.  0.
         23    2    1    2    0    0 -0.14838981886E+03  0.54161908303E+01 -0.22367617032E+03  0.28310210174E+03  0.89815908286E+02 0.  0.
        -11    1    3    3    0    0  0.13985767846E+02 -0.53680723377E+02 -0.24534099412E+03  0.25153414313E+03  0.00000000000E+00 0. -1.
         11    1    3    3    0    0 -0.51067620979E+02 -0.15009254431E+01 -0.24192823865E+03  0.24726388201E+03  0.00000000000E+00 0.  1.
        -13    1    4    4    0    0 -0.31255988738E+02  0.28080518507E+02 -0.18826608744E+02  0.46042301728E+02  0.00000000000E+00 0.  1.
         13    1    4    4    0    0 -0.11713383012E+03 -0.22664327677E+02 -0.20484956157E+03  0.23705980002E+03  0.00000000000E+00 0. -1.
          1    1    1    2  501    0  0.18547167199E+03  0.49765457990E+02 -0.51061682760E+02  0.19870490021E+03  0.00000000000E+00 0. -1.
<scales pt_clust_5="13000.00000" pt_clust_6="13000.00000" pt_clust_7="13000.00000" pt_clust_8="13000.00000" pt_clust_9="176.07866"></scales>
<clustering>
<clus scale="   83.355">  5  6 -1 -1</clus>
<clus scale="   89.816">  7  8 -1 -1</clus>
<clus scale="  106.622">  2  5  1 -1</clus>
<clus scale="  176.079">  1  9  2 -1</clus>
<clus scale="  176.079">  1  5  2 -1</clus>
</clustering>
</event>
<event>
 9    1  0.1610296E-005  0.9642313E+02  0.7546771E-02  0.1288406E+00
          2   -1    0    0  502    0 -0.00000000000E+00  0.00000000000E+00  0.41420216639E+03  0.41420216639E+03  0.00000000000E+00 0. -1.
         21   -1    0    0  501  502  0.00000000000E+00 -0.00000000000E+00 -0.36583597457E+02  0.36583597457E+02  0.00000000000E+00 0.  1.
         23    2    1    2    0    0 -0.21043373245E+02  0.14031339394E+02  0.22692622369E+03  0.24552393136E+03  0.90259558094E+02 0.  0.
         23    2    1    2    0    0  0.50244602173E+02 -0.85061668532E+01  0.90397231625E+02  0.13804025836E+03  0.91030646052E+02 0.  0.
        -11    1    3    3    0    0  0.25786592758E+02 -0.22308677150E+02  0.93500265017E+02  0.99523489692E+02  0.00000000000E+00 0. -1.
         11    1    3    3    0    0 -0.46829966002E+02  0.36340016544E+02  0.13342595867E+03  0.14600044166E+03  0.00000000000E+00 0.  1.
        -13    1    4    4    0    0  0.22013379970E+02 -0.35390013722E+02  0.23445272602E+01  0.41743727397E+02  0.00000000000E+00 0.  1.
         13    1    4    4    0    0  0.28231222203E+02  0.26883846869E+02  0.88052704365E+02  0.96296530963E+02  0.00000000000E+00 0. -1.
          2    1    1    2  501    0 -0.29201228929E+02 -0.55251725412E+01  0.60295113617E+02  0.67221574131E+02  0.00000000000E+00 0. -1.
<scales pt_clust_5="13000.00000" pt_clust_6="13000.00000" pt_clust_7="13000.00000" pt_clust_8="13000.00000" pt_clust_9="29.71936"></scales>
<clustering>
<clus scale="   29.719">  2  9  1 -1</clus>
<clus scale="   90.260">  5  6 -1 -1</clus>
<clus scale="   91.031">  7  8 -1 -1</clus>
<clus scale="   95.696">  1  5  2 -1</clus>
<clus scale="   29.719">  2  5  1 -1</clus>
</clustering>
</event>
<event>
 9    1  0.1610296E-005  0.9543866E+02  0.7546771E-02  0.1290787E+00
         21   -1    0    0  501  502  0.00000000000E+00  0.00000000000E+00  0.19431624186E+03  0.19431624186E+03  0.00000000000E+00 0. -1.
         -3   -1    0    0    0  501 -0.00000000000E+00 -0.00000000000E+00 -0.13205610806E+03  0.13205610806E+03  0.00000000000E+00 0.  1.
         23    2    1    2    0    0 -0.15931539427E+02  0.22927330582E+02 -0.77563991156E+02  0.12162093637E+03  0.89420372414E+02 0.  0.
         23    2    1    2    0    0 -0.62264484848E+01 -0.48340435932E+02  0.62326780031E+02  0.12023726785E+03  0.90536217423E+02 0.  0.
        -11    1    4    4    0    0 -0.45229484094E+02 -0.36700513640E+02  0.20175514839E+02  0.61641587681E+02  0.00000000000E+00 0. -1.
         11    1    4    4    0    0  0.39003035609E+02 -0.11639922293E+02  0.42151265192E+02  0.58595680173E+02  0.00000000000E+00 0.  1.
        -13    1    3    3    0    0 -0.11208835935E+02  0.55507264782E+02 -0.65438568584E+02  0.86538434842E+02  0.00000000000E+00 0.  1.
         13    1    3    3    0    0 -0.47227034925E+01 -0.32579934199E+02 -0.12125422572E+02  0.35082501525E+02  0.00000000000E+00 0. -1.
         -3    1    1    2    0  502  0.22157987912E+02  0.25413105350E+02  0.77497344923E+02  0.84514145692E+02  0.00000000000E+00 0.  1.
<scales pt_clust_5="13000.00000" pt_clust_6="13000.00000" pt_clust_7="13000.00000" pt_clust_8="13000.00000" pt_clust_9="33.71650"></scales>
<clustering>
<clus scale="   33.716">  1  9  2 -1</clus>
<clus scale="   89.420">  7  8 -1 -1</clus>
<clus scale="   90.536">  5  6 -1 -1</clus>
<clus scale="   94.381">  2  7  1 -1</clus>
<clus scale="   33.716">  1  5  2 -1</clus>
</clustering>
</event>
<event>
 9    1  0.1610296E-005  0.1152456E+03  0.7546771E-02  0.1259472E+00
          1   -1    0    0  502    0 -0.00000000000E+00  0.00000000000E+00  0.92451394727E+02  0.92451394727E+02  0.00000000000E+00 0. -1.
         21   -1    0    0  501  502  0.00000000000E+00 -0.00000000000E+00 -0.18204095205E+03  0.18204095205E+03  0.00000000000E+00 0.  1.
         23    2    1    2    0    0 -0.26224636292E+02 -0.26976278878E+02  0.73688440738E+01  0.96422963654E+02  0.88473933371E+02 0.  0.
         23    2    1    2    0    0  0.51457910487E+02  0.17342841281E+02 -0.67336303046E+02  0.13798210388E+03  0.10749973296E+03 0.  0.
        -13    1    3    3    0    0 -0.54894370312E+02  0.12534388640E+01 -0.26034805960E+01  0.54970365763E+02  0.00000000000E+00 0. -1.
         13    1    3    3    0    0  0.28669734020E+02 -0.28229717742E+02  0.99723246698E+01  0.41452597891E+02  0.00000000000E+00 0.  1.
        -13    1    4    4    0    0  0.67066721246E+02 -0.26643246142E+02 -0.51646214244E+02  0.88741980536E+02  0.00000000000E+00 0.  1.
         13    1    4    4    0    0 -0.15608810760E+02  0.43986087423E+02 -0.15690088802E+02  0.49240123342E+02  0.00000000000E+00 0. -1.
          1    1    1    2  501    0 -0.25233274195E+02  0.96334375964E+01 -0.29622098350E+02  0.40087279244E+02  0.00000000000E+00 0. -1.
<scales pt_clust_5="13000.00000" pt_clust_6="13000.00000" pt_clust_7="13000.00000" pt_clust_8="13000.00000" pt_clust_9="27.00965"></scales>
<clustering>
<clus scale="   27.010">  2  9  1 -1</clus>
<clus scale="   88.474">  5  6 -1 -1</clus>
<clus scale="   97.739">  1  5  2 -1</clus>
<clus scale="  107.500">  7  8 -1 -1</clus>
<clus scale="   27.010">  2  5  1 -1</clus>
</clustering>
</event>
<event>
 9    1  0.1610296E-005  0.1881093E+03  0.7546771E-02  0.1161533E+00
          2   -1    0    0  502    0 -0.00000000000E+00  0.00000000000E+00  0.75806774917E+02  0.75806774917E+02  0.00000000000E+00 0. -1.
         21   -1    0    0  501  502  0.00000000000E+00 -0.00000000000E+00 -0.91277313757E+03  0.91277313757E+03  0.00000000000E+00 0.  1.
         23    2    1    2    0    0  0.21813106678E+02 -0.16908737561E+03 -0.24821056218E+03  0.31853179594E+03  0.10386370700E+03 0.  0.
         23    2    1    2    0    0 -0.12536707733E+03  0.10764534977E+03 -0.27518865507E+03  0.33415691087E+03  0.92884981556E+02 0.  0.
        -11    1    4    4    0    0 -0.42247527649E+02 -0.66850979584E+01 -0.10201028034E+03  0.11061483364E+03  0.00000000000E+00 0.  1.
         11    1    4    4    0    0 -0.83119549685E+02  0.11433044773E+03 -0.17317837473E+03  0.22354207723E+03  0.00000000000E+00 0. -1.
        -13    1    3    3    0    0  0.38262496674E+02 -0.60238331294E+02 -0.16738117939E+03  0.18195915592E+03  0.00000000000E+00 0. -1.
         13    1    3    3    0    0 -0.16449389996E+02 -0.10884904431E+03 -0.80829382797E+02  0.13657264002E+03  0.00000000000E+00 0.  1.
          2    1    1    2  501    0  0.10355397066E+03  0.61442025837E+02 -0.31356714540E+03  0.33589120568E+03  0.00000000000E+00 0. -1.
<scales pt_clust_5="13000.00000" pt_clust_6="13000.00000" pt_clust_7="13000.00000" pt_clust_8="13000.00000" pt_clust_9="120.40991"></scales>
<clustering>
<clus scale="   92.885">  5  6 -1 -1</clus>
<clus scale="  103.864">  7  8 -1 -1</clus>
<clus scale="  120.410">  2  9  1 -1</clus>
<clus scale="  182.277">  2  5  1 -1</clus>
<clus scale="  120.410">  2  5  1 -1</clus>
</clustering>
</event>
<event>
 9    1  0.1610296E-005  0.9237672E+02  0.7546771E-02  0.1298199E+00
         21   -1    0    0  501  502  0.00000000000E+00  0.00000000000E+00  0.73703480894E+02  0.73703480894E+02  0.00000000000E+00 0.  1.
          1   -1    0    0  502    0 -0.00000000000E+00 -0.00000000000E+00 -0.17964368529E+03  0.17964368529E+03  0.00000000000E+00 0. -1.
         23    2    1    2    0    0  0.36427723802E+01 -0.24217490673E+01 -0.39192546862E+02  0.97359069826E+02  0.89014594807E+02 0.  0.
         23    2    1    2    0    0 -0.28576352219E+02 -0.24513016673E+02 -0.27002311173E+02  0.10188765674E+03  0.90744001980E+02 0.  0.
        -11    1    4    4    0    0 -0.35832764391E+02 -0.44108646356E+02  0.11592117873E+02  0.57999455895E+02  0.00000000000E+00 0.  1.
         11    1    4    4    0    0  0.72564121720E+01  0.19595629684E+02 -0.38594429046E+02  0.43888200848E+02  0.00000000000E+00 0. -1.
        -13    1    3    3    0    0  0.78806190760E+01 -0.40036573301E+02  0.27052748547E+01  0.40894374561E+02  0.00000000000E+00 0.  1.
         13    1    3    3    0    0 -0.42378466958E+01  0.37614824234E+02 -0.41897821716E+02  0.56464695265E+02  0.00000000000E+00 0. -1.
          1    1    1    2  501    0  0.24933579839E+02  0.26934765740E+02 -0.39745346360E+02  0.54100439613E+02  0.00000000000E+00 0. -1.
<scales pt_clust_5="13000.00000" pt_clust_6="13000.00000" pt_clust_7="13000.00000" pt_clust_8="13000.00000" pt_clust_9="36.70376"></scales>
<clustering>
<clus scale="   36.704">  1  9  2 -1</clus>
<clus scale="   89.015">  7  8 -1 -1</clus>
<clus scale="   90.678">  2  7  1 -1</clus>
<clus scale="   90.744">  5  6 -1 -1</clus>
<clus scale="   36.704">  1  5  2 -1</clus>
</clustering>
</event>
<event>
 9    1  0.1610296E-005  0.2849177E+03  0.7546771E-02  0.1093071E+00
         21   -1    0    0  501  502  0.00000000000E+00  0.00000000000E+00  0.18899554314E+03  0.18899554314E+03  0.00000000000E+00 0.  1.
         -4   -1    0    0    0  501 -0.00000000000E+00 -0.00000000000E+00 -0.68870290177E+03  0.68870290177E+03  0.00000000000E+00 0.  1.
         23    2    1    2    0    0 -0.29742481686E+03 -0.11743182301E+03 -0.36337234204E+03  0.49253091652E+03  0.91079580747E+02 0.  0.
         23    2    1    2    0    0  0.21177033690E+03  0.20926098599E+02 -0.83676824836E+02  0.24580135625E+03  0.90177150798E+02 0.  0.
        -11    1    4    4    0    0  0.31528531483E+02  0.35077551185E+02 -0.34501229134E+02  0.58436441596E+02  0.00000000000E+00 0. -1.
         11    1    4    4    0    0  0.18024180542E+03 -0.14151452586E+02 -0.49175595702E+02  0.18736491465E+03  0.00000000000E+00 0.  1.
        -13    1    3    3    0    0 -0.10357553317E+03 -0.13769224535E+02 -0.69309453475E+02  0.12538454034E+03  0.00000000000E+00 0.  1.
         13    1    3    3    0    0 -0.19384928369E+03 -0.10366259847E+03 -0.29406288856E+03  0.36714637617E+03  0.00000000000E+00 0. -1.
         -4    1    1    2    0  502  0.85654479963E+02  0.96505724406E+02 -0.52658191757E+02  0.13936617215E+03  0.00000000000E+00 0.  1.
<scales pt_clust_5="13000.00000" pt_clust_6="13000.00000" pt_clust_7="13000.00000" pt_clust_8="13000.00000" pt_clust_9="129.03505"></scales>
<clustering>
<clus scale="   90.177">  5  6 -1 -1</clus>
<clus scale="   91.080">  7  8 -1 -1</clus>
<clus scale="  129.035">  1  9  2 -1</clus>
<clus scale="  284.630">  1  5  2 -1</clus>
<clus scale="  129.035">  1  5  2 -1</clus>
</clustering>
</event>
<event>
 9    1  0.1610296E-005  0.1079173E+03  0.7546771E-02  0.1264833E+00
         21   -1    0    0  501  502  0.00000000000E+00  0.00000000000E+00  0.19530807914E+03  0.19530807914E+03  0.00000000000E+00 0. -1.
         -1   -1    0    0    0  501 -0.00000000000E+00 -0.00000000000E+00 -0.15758852954E+03  0.15758852954E+03  0.00000000000E+00 0.  1.
         23    2    1    2    0    0 -0.30507204407E+02  0.46442625477E+02 -0.49499420776E+02  0.11834094193E+03  0.92015101468E+02 0.  0.
         23    2    1    2    0    0  0.51208803716E+02 -0.31881172853E+02 -0.31044933004E+02  0.11361376764E+03  0.91134787933E+02 0.  0.
        -11    1    4    4    0    0  0.25869882825E+02  0.37396872151E+00 -0.58696680205E+02  0.64145856897E+02  0.00000000000E+00 0.  1.
         11    1    4    4    0    0  0.25338920891E+02 -0.32255141574E+02  0.27651747201E+02  0.49467910742E+02  0.00000000000E+00 0. -1.
        -13    1    3    3    0    0 -0.20739352780E+02 -0.15271498575E+02  0.13950388427E+02  0.29290830642E+02  0.00000000000E+00 0.  1.
         13    1    3    3    0    0 -0.97678516271E+01  0.61714124052E+02 -0.63449809202E+02  0.89050111290E+02  0.00000000000E+00 0. -1.
         -1    1    1    2    0  502 -0.20701599309E+02 -0.14561452624E+02  0.11826390338E+03  0.12094189910E+03  0.00000000000E+00 0.  1.
<scales pt_clust_5="13000.00000" pt_clust_6="13000.00000" pt_clust_7="13000.00000" pt_clust_8="13000.00000" pt_clust_9="25.30992"></scales>
<clustering>
<clus scale="   25.310">  1  9  2 -1</clus>
<clus scale="   91.135">  5  6 -1 -1</clus>
<clus scale="   92.015">  7  8 -1 -1</clus>
<clus scale="  107.168">  1  5  2 -1</clus>
<clus scale="   25.310">  1  5  2 -1</clus>
</clustering>
</event>
<event>
 9    1  0.1610296E-005  0.1014453E+03  0.7546771E-02  0.1280073E+00
         -2   -1    0    0    0  501 -0.00000000000E+00  0.00000000000E+00  0.33720170452E+03  0.33720170452E+03  0.00000000000E+00 0.  1.
         21   -1    0    0  501  502  0.00000000000E+00 -0.00000000000E+00 -0.65278406700E+02  0.65278406700E+02  0.00000000000E+00 0. -1.
         23    2    1    2    0    0  0.55337133125E+01 -0.22145520249E+02  0.19259066118E+03  0.21637806947E+03  0.95954469003E+02 0.  0.
         23    2    1    2    0    0 -0.52907773278E+01  0.51045953889E+02  0.10478501287E+03  0.14759077667E+03  0.90385046904E+02 0.  0.
        -11    1    4    4    0    0  0.18545456056E+02 -0.16004268852E+02  0.56535904851E+02  0.61614763646E+02  0.00000000000E+00 0.  1.
         11    1    4    4    0    0 -0.23836233384E+02  0.67050222741E+02  0.48249108018E+02  0.85976013027E+02  0.00000000000E+00 0. -1.
        -11    1    3    3    0    0 -0.27074399719E+02 -0.26659490247E+02  0.24766038402E+02  0.45355354684E+02  0.00000000000E+00 0. -1.
         11    1    3    3    0    0  0.32608113031E+02  0.45139699983E+01  0.16782462278E+03  0.17102271479E+03  0.00000000000E+00 0.  1.
         -2    1    1    2    0  502 -0.24293598470E+00 -0.28900433640E+02 -0.25452376229E+02  0.38511265082E+02  0.00000000000E+00 0.  1.
<scales pt_clust_5="13000.00000" pt_clust_6="13000.00000" pt_clust_7="13000.00000" pt_clust_8="13000.00000" pt_clust_9="28.90145"></scales>
<clustering>
<clus scale="   28.901">  2  9  1 -1</clus>
<clus scale="   90.385">  5  6 -1 -1</clus>
<clus scale="   95.954">  7  8 -1 -1</clus>
<clus scale="   96.194">  2  5  1 -1</clus>
<clus scale="   28.901">  2  5  1 -1</clus>
</clustering>
</event>
<event>
 9    1  0.1610296E-005  0.1019791E+03  0.7546771E-02  0.1276579E+00
         21   -1    0    0  501  502  0.00000000000E+00  0.00000000000E+00  0.19487764401E+03  0.19487764401E+03  0.00000000000E+00 0. -1.
         -2   -1    0    0    0  501 -0.00000000000E+00 -0.00000000000E+00 -0.78446660960E+02  0.78446660960E+02  0.00000000000E+00 0.  1.
         23    2    1    2    0    0 -0.76899088133E+01  0.39666237060E+02 -0.92967364784E+00  0.10282427793E+03  0.94548520767E+02 0.  0.
         23    2    1    2    0    0 -0.75974724988E+01 -0.26509128822E+02  0.11193844109E+03  0.14961429155E+03  0.95361240267E+02 0.  0.
        -13    1    3    3    0    0  0.41410313931E+02  0.27997867504E+02  0.10501693473E+02  0.51078177830E+02  0.00000000000E+00 0.  1.
         13    1    3    3    0    0 -0.49100222744E+02  0.11668369556E+02 -0.11431367121E+02  0.51746100103E+02  0.00000000000E+00 0. -1.
        -13    1    4    4    0    0  0.39674993968E+02  0.79292167378E+01  0.39915874465E+02  0.56835329319E+02  0.00000000000E+00 0.  1.
         13    1    4    4    0    0 -0.47272466467E+02 -0.34438345560E+02  0.72022566622E+02  0.92778962236E+02  0.00000000000E+00 0. -1.
         -2    1    1    2    0  502  0.15287381312E+02 -0.13157108238E+02  0.54222156143E+01  0.20885735485E+02  0.00000000000E+00 0.  1.
<scales pt_clust_5="13000.00000" pt_clust_6="13000.00000" pt_clust_7="13000.00000" pt_clust_8="13000.00000" pt_clust_9="20.16963"></scales>
<clustering>
<clus scale="   20.170">  1  9  2 -1</clus>
<clus scale="   94.549">  5  6 -1 -1</clus>
<clus scale="   95.361">  7  8 -1 -1</clus>
<clus scale="  101.220">  2  5  1 -1</clus>
<clus scale="   20.170">  1  5  2 -1</clus>
</clustering>
</event>
<event>
 9    1  0.1610296E-005  0.1049464E+03  0.7546771E-02  0.1270617E+00
         21   -1    0    0  501  502  0.00000000000E+00  0.00000000000E+00  0.56285793321E+02  0.56285793321E+02  0.00000000000E+00 0.  1.
          1   -1    0    0  502    0 -0.00000000000E+00 -0.00000000000E+00 -0.27976436027E+03  0.27976436027E+03  0.00000000000E+00 0. -1.
         23    2    1    2    0    0 -0.86190217836E+01 -0.31628037539E+02 -0.90681823279E+02  0.13443159234E+03  0.93669843878E+02 0.  0.
         23    2    1    2    0    0  0.35615768414E+02  0.51925117623E+02 -0.12302481126E+03  0.16645769591E+03  0.92781245635E+02 0.  0.
        -13    1    3    3    0    0 -0.35293092150E+02 -0.42439700711E+02 -0.90076528973E+02  0.10564332266E+03  0.00000000000E+00 0.  1.
         13    1    3    3    0    0  0.26674070366E+02  0.10811663172E+02 -0.60529430537E+00  0.28788269688E+02  0.00000000000E+00 0. -1.
        -13    1    4    4    0    0  0.18952414381E+02  0.17640352841E+02  0.10243816768E+02  0.27844422085E+02  0.00000000000E+00 0.  1.
         13    1    4    4    0    0  0.16663354032E+02  0.34284764782E+02 -0.13326862803E+03  0.13861327382E+03  0.00000000000E+00 0. -1.
          1    1    1    2  501    0 -0.26996746630E+02 -0.20297080084E+02 -0.97719324141E+01  0.35160865343E+02  0.00000000000E+00 0. -1.
<scales pt_clust_5="13000.00000" pt_clust_6="13000.00000" pt_clust_7="13000.00000" pt_clust_8="13000.00000" pt_clust_9="33.77567"></scales>
<clustering>
<clus scale="   33.776">  1  9  2 -1</clus>
<clus scale="   92.781">  7  8 -1 -1</clus>
<clus scale="   93.670">  5  6 -1 -1</clus>
<clus scale="  104.154">  1  7  2 -1</clus>
<clus scale="   33.776">  1  5  2 -1</clus>
</clustering>
</event>
<event>
 9    1  0.1610296E-005  0.1288928E+03  0.7546771E-02  0.1235971E+00
          2   -1    0    0  502    0 -0.00000000000E+00  0.00000000000E+00  0.24604432032E+03  0.24604432032E+03  0.00000000000E+00 0. -1.
         21   -1    0    0  501  502  0.00000000000E+00 -0.00000000000E+00 -0.19128970475E+03  0.19128970475E+03  0.00000000000E+00 0.  1.
         23    2    1    2    0    0 -0.63242554827E+02  0.31879273884E+02  0.95966704464E+02  0.14981979917E+03  0.90666724957E+02 0.  0.
         23    2    1    2    0    0  0.74289147610E+01 -0.58808441211E+02 -0.12892787835E+03  0.18011589168E+03  0.11093112768E+03 0.  0.
        -13    1    3    3    0    0 -0.73335769862E+02 -0.65196238014E+01  0.49584292066E+02  0.88765098183E+02  0.00000000000E+00 0.  1.
         13    1    3    3    0    0  0.10093215035E+02  0.38398897686E+02  0.46382412397E+02  0.61054700990E+02  0.00000000000E+00 0. -1.
        -13    1    4    4    0    0  0.24824181646E+02  0.24870366774E+02 -0.16313722612E+02  0.38741614361E+02  0.00000000000E+00 0. -1.
         13    1    4    4    0    0 -0.17395266885E+02 -0.83678807984E+02 -0.11261415574E+03  0.14137427732E+03  0.00000000000E+00 0.  1.
          2    1    1    2  501    0  0.55813640066E+02  0.26929167327E+02  0.87715789456E+02  0.10739833421E+03  0.00000000000E+00 0. -1.
<scales pt_clust_5="13000.00000" pt_clust_6="13000.00000" pt_clust_7="13000.00000" pt_clust_8="13000.00000" pt_clust_9="61.97053"></scales>
<clustering>
<clus scale="   61.971">  2  9  1 -1</clus>
<clus scale="   90.667">  5  6 -1 -1</clus>
<clus scale="  110.931">  7  8 -1 -1</clus>
<clus scale="  111.929">  1  5  2 -1</clus>
<clus scale="   61.971">  2  5  1 -1</clus>
</clustering>
</event>
<event>
 9    1  0.1610296E-005  0.1182818E+03  0.7546771E-02  0.1246435E+00
          2   -1    0    0  502    0 -0.00000000000E+00  0.00000000000E+00  0.10234162864E+04  0.10234162864E+04  0.00000000000E+00 0. -1.
         21   -1    0    0  501  502  0.00000000000E+00 -0.00000000000E+00 -0.18160899796E+02  0.18160899796E+02  0.00000000000E+00 0.  1.
         23    2    1    2    0    0 -0.28762782070E+02 -0.79618863606E+02  0.60734956886E+03  0.62010587667E+03  0.92148458512E+02 0.  0.
         23    2    1    2    0    0  0.12617951467E+02  0.56310631351E+02  0.27332941884E+03  0.29370899737E+03  0.90696769665E+02 0.  0.
        -11    1    3    3    0    0 -0.19369939150E+02  0.18256280028E+02  0.14387101929E+03  0.14631253021E+03  0.00000000000E+00 0. -1.
         11    1    3    3    0    0 -0.93928429208E+01 -0.97875143635E+02  0.46347854957E+03  0.47379334646E+03  0.00000000000E+00 0.  1.
        -13    1    4    4    0    0 -0.34521487745E+02  0.44832680903E+02  0.17745338419E+03  0.18625629104E+03  0.00000000000E+00 0. -1.
         13    1    4    4    0    0  0.47139439212E+02  0.11477950447E+02  0.95876034659E+02  0.10745270633E+03  0.00000000000E+00 0.  1.
          2    1    1    2  501    0  0.16144830603E+02  0.23308232256E+02  0.12457639890E+03  0.12776231216E+03  0.00000000000E+00 0. -1.
<scales pt_clust_5="13000.00000" pt_clust_6="13000.00000" pt_clust_7="13000.00000" pt_clust_8="13000.00000" pt_clust_9="28.35366"></scales>
<clustering>
<clus scale="   28.354">  2  9  1 -1</clus>
<clus scale="   90.697">  7  8 -1 -1</clus>
<clus scale="   92.148">  5  6 -1 -1</clus>
<clus scale="  117.154">  2  7  1 -1</clus>
<clus scale="   28.354">  2  5  1 -1</clus>
</clustering>
</event>
<event>
 9    1  0.1610296E-005  0.1699760E+03  0.7546771E-02  0.1190487E+00
         -3   -1    0    0    0  501 -0.00000000000E+00  0.00000000000E+00  0.21577387213E+03  0.21577387213E+03  0.00000000000E+00 0.  1.
         21   -1    0    0  501  502  0.00000000000E+00 -0.00000000000E+00 -0.29585718188E+03  0.29585718188E+03  0.00000000000E+00 0.  1.
         23    2    1    2    0    0  0.25004668879E+02  0.86308359502E+02 -0.35588358536E+01  0.12832080660E+03  0.91537957739E+02 0.  0.
         23    2    1    2    0    0 -0.13690565578E+03 -0.15326848227E+03  0.15037593944E+02  0.22397066922E+03  0.87763005878E+02 0.  0.
        -11    1    3    3    0    0  0.48022895902E+02  0.19618656239E+02  0.17411566770E+02  0.54719766638E+02  0.00000000000E+00 0. -1.
         11    1    3    3    0    0 -0.23018227024E+02  0.66689703263E+02 -0.20970402624E+02  0.73601039957E+02  0.00000000000E+00 0.  1.
        -13    1    4    4    0    0 -0.79953260272E+02 -0.57719980617E+02  0.45556477995E+02  0.10862556181E+03  0.00000000000E+00 0. -1.
         13    1    4    4    0    0 -0.56952395504E+02 -0.95548501651E+02 -0.30518884051E+02  0.11534510742E+03  0.00000000000E+00 0.  1.
         -3    1    1    2    0  502  0.11190098690E+03  0.66960122767E+02 -0.91562067849E+02  0.15933957819E+03  0.00000000000E+00 0.  1.
<scales pt_clust_5="13000.00000" pt_clust_6="13000.00000" pt_clust_7="13000.00000" pt_clust_8="13000.00000" pt_clust_9="145.56615"></scales>
<clustering>
<clus scale="   87.763">  7  8 -1 -1</clus>
<clus scale="   91.538">  5  6 -1 -1</clus>
<clus scale="  128.271">  1  5  2 -1</clus>
<clus scale="  145.566">  2  9  1 -1</clus>
<clus scale="  145.566">  2  5  1 -1</clus>
</clustering>
</event>
<event>
 9    1  0.1610296E-005  0.1039084E+03  0.7546771E-02  0.1273069E+00
          2   -1    0    0  502    0 -0.00000000000E+00  0.00000000000E+00  0.12714963155E+03  0.12714963155E+03  0.00000000000E+00 0. -1.
         21   -1    0    0  501  502  0.00000000000E+00 -0.00000000000E+00 -0.28989056279E+03  0.28989056279E+03  0.00000000000E+00 0.  1.
         23    2    1    2    0    0  0.11132840147E+02  0.51523812691E+02  0.84974962234E+02  0.13455536512E+03  0.90031986934E+02 0.  0.
         23    2    1    2    0    0 -0.98818457258E+01 -0.23710690152E+02 -0.12812329428E+03  0.15969425730E+03  0.91797764549E+02 0.  0.
        -13    1    4    4    0    0  0.27244040989E+02 -0.38081026001E+02 -0.10156475958E+03  0.11183828817E+03  0.00000000000E+00 0.  1.
         13    1    4    4    0    0 -0.37125886714E+02  0.14370335849E+02 -0.26558534692E+02  0.47855969133E+02  0.00000000000E+00 0. -1.
        -13    1    3    3    0    0  0.44947506525E+02  0.43180061899E+02  0.76562512117E+02  0.98724942897E+02  0.00000000000E+00 0. -1.
         13    1    3    3    0    0 -0.33814666378E+02  0.83437507925E+01  0.84124501165E+01  0.35830422220E+02  0.00000000000E+00 0.  1.
          2    1    1    2  501    0 -0.12509944214E+01 -0.27813122539E+02 -0.11959259919E+03  0.12279057192E+03  0.00000000000E+00 0. -1.
<scales pt_clust_5="13000.00000" pt_clust_6="13000.00000" pt_clust_7="13000.00000" pt_clust_8="13000.00000" pt_clust_9="27.84124"></scales>
<clustering>
<clus scale="   27.841">  2  9  1 -1</clus>
<clus scale="   90.032">  7  8 -1 -1</clus>
<clus scale="   91.798">  5  6 -1 -1</clus>
<clus scale="  102.352">  1  7  2 -1</clus>
<clus scale="   27.841">  2  5  1 -1</clus>
</clustering>
</event>
<event>
 9    1  0.1610296E-005  0.1700793E+03  0.7546771E-02  0.1177932E+00
          1   -1    0    0  502    0 -0.00000000000E+00  0.00000000000E+00  0.38843347733E+03  0.38843347733E+03  0.00000000000E+00 0. -1.
         21   -1    0    0  501  502  0.00000000000E+00 -0.00000000000E+00 -0.13533955933E+03  0.13533955933E+03  0.00000000000E+00 0. -1.
         23    2    1    2    0    0  0.13060181415E+02  0.13146415681E+03  0.21958784535E+03  0.27247009842E+03  0.92562086419E+02 0.  0.
         23    2    1    2    0    0  0.54877967137E+01 -0.17578090770E+03  0.41799413327E+02  0.20255069315E+03  0.91381337913E+02 0.  0.
        -11    1    4    4    0    0  0.27334408876E+02 -0.11066751245E+03 -0.12938873200E+02  0.11472524858E+03  0.00000000000E+00 0.  1.
         11    1    4    4    0    0 -0.21846612162E+02 -0.65113395241E+02  0.54738286527E+02  0.87825444574E+02  0.00000000000E+00 0. -1.
        -11    1    3    3    0    0 -0.13699449946E+02  0.10513436506E+03  0.20752288743E+03  0.23303789059E+03  0.00000000000E+00 0. -1.
         11    1    3    3    0    0  0.26759631361E+02  0.26329791754E+02  0.12064957920E+02  0.39432207825E+02  0.00000000000E+00 0.  1.
          1    1    1    2  501    0 -0.18547978128E+02  0.44316750884E+02 -0.82933406733E+01  0.48752245088E+02  0.00000000000E+00 0. -1.
<scales pt_clust_5="13000.00000" pt_clust_6="13000.00000" pt_clust_7="13000.00000" pt_clust_8="13000.00000" pt_clust_9="48.04167"></scales>
<clustering>
<clus scale="   48.042">  2  9  1 -1</clus>
<clus scale="   91.381">  5  6 -1 -1</clus>
<clus scale="   92.562">  7  8 -1 -1</clus>
<clus scale="  169.440">  2  5  1 -1</clus>
<clus scale="   48.042">  2  5  1 -1</clus>
</clustering>
</event>
<event>
 9    1  0.1610296E-005  0.9041780E+02  0.7546771E-02  0.1302386E+00
         21   -1    0    0  501  502  0.00000000000E+00  0.00000000000E+00  0.25696074697E+03  0.25696074697E+03  0.00000000000E+00 0. -1.
         -1   -1    0    0    0  501 -0.00000000000E+00 -0.00000000000E+00 -0.63880164160E+02  0.63880164160E+02  0.00000000000E+00 0.  1.
         23    2    1    2    0    0 -0.81530671733E+01  0.19894469047E+02  0.19283989556E+02  0.93432769179E+02  0.88856894501E+02 0.  0.
         23    2    1    2    0    0 -0.45181671419E+01  0.27827115629E+01  0.54127100030E+02  0.10495160963E+03  0.89760459493E+02 0.  0.
        -11    1    3    3    0    0  0.17254481696E+02  0.40636049016E+02 -0.14382009047E+02  0.46431108133E+02  0.00000000000E+00 0.  1.
         11    1    3    3    0    0 -0.25407548869E+02 -0.20741579969E+02  0.33665998603E+02  0.47001661046E+02  0.00000000000E+00 0. -1.
        -13    1    4    4    0    0 -0.45288012373E+02 -0.79432882698E+01  0.38573365049E+02  0.60016700880E+02  0.00000000000E+00 0. -1.
         13    1    4    4    0    0  0.40769845231E+02  0.10725999833E+02  0.15553734981E+02  0.44934908751E+02  0.00000000000E+00 0.  1.
         -1    1    1    2    0  502  0.12671234315E+02 -0.22677180610E+02  0.11966949322E+03  0.12245653232E+03  0.00000000000E+00 0.  1.
<scales pt_clust_5="13000.00000" pt_clust_6="13000.00000" pt_clust_7="13000.00000" pt_clust_8="13000.00000" pt_clust_9="25.97720"></scales>
<clustering>
<clus scale="   25.977">  1  9  2 -1</clus>
<clus scale="   88.857">  5  6 -1 -1</clus>
<clus scale="   89.521">  2  5  1 -1</clus>
<clus scale="   89.760">  7  8 -1 -1</clus>
<clus scale="   25.977">  1  5  2 -1</clus>
</clustering>
</event>
<event>
 9    1  0.1610296E-005  0.2436855E+03  0.7546771E-02  0.1117378E+00
          1   -1    0    0  502    0 -0.00000000000E+00  0.00000000000E+00  0.55627463561E+03  0.55627463561E+03  0.00000000000E+00 0. -1.
         21   -1    0    0  501  502  0.00000000000E+00 -0.00000000000E+00 -0.38743555929E+03  0.38743555929E+03  0.00000000000E+00 0.  1.
         23    2    1    2    0    0 -0.18156371967E+03 -0.14458146026E+03  0.34718805595E+03  0.42720109411E+03  0.89955798392E+02 0.  0.
         23    2    1    2    0    0  0.12527431702E+03  0.18163418641E+03  0.78496663205E+02  0.25096986525E+03  0.90219260433E+02 0.  0.
        -11    1    3    3    0    0 -0.12115935507E+03 -0.11816863818E+03  0.17797236823E+03  0.24559637665E+03  0.00000000000E+00 0.  1.
         11    1    3    3    0    0 -0.60404364596E+02 -0.26412822073E+02  0.16921568772E+03  0.18160471746E+03  0.00000000000E+00 0. -1.
        -13    1    4    4    0    0  0.37683938132E+02  0.13148628444E+03  0.35851923721E+02  0.14140043360E+03  0.00000000000E+00 0.  1.
         13    1    4    4    0    0  0.87590378892E+02  0.50147901967E+02  0.42644739484E+02  0.10956943165E+03  0.00000000000E+00 0. -1.
          1    1    1    2  501    0  0.56289402643E+02 -0.37052726150E+02 -0.25684564283E+03  0.26553923553E+03  0.00000000000E+00 0. -1.
<scales pt_clust_5="13000.00000" pt_clust_6="13000.00000" pt_clust_7="13000.00000" pt_clust_8="13000.00000" pt_clust_9="67.38992"></scales>
<clustering>
<clus scale="   67.390">  2  9  1 -1</clus>
<clus scale="   89.956">  5  6 -1 -1</clus>
<clus scale="   90.219">  7  8 -1 -1</clus>
<clus scale="  243.588">  1  5  2 -1</clus>
<clus scale="   67.390">  2  5  1 -1</clus>
</clustering>
</event>
<event>
 9    1  0.1610296E-005  0.1125818E+03  0.7546771E-02  0.1256110E+00
         21   -1    0    0  501  502  0.00000000000E+00  0.00000000000E+00  0.51894383268E+02  0.51894383268E+02  0.00000000000E+00 0.  1.
         -2   -1    0    0    0  501 -0.00000000000E+00 -0.00000000000E+00 -0.33636507961E+03  0.33636507961E+03  0.00000000000E+00 0. -1.
         23    2    1    2    0    0  0.62808663423E+02 -0.38837053459E+01 -0.14096937752E+03  0.17936779333E+03  0.91325946575E+02 0.  0.
         23    2    1    2    0    0 -0.66397675521E+02 -0.27727283207E+02 -0.93433675053E+02  0.14957131421E+03  0.92001482873E+02 0.  0.
        -11    1    4    4    0    0 -0.67955192465E+02 -0.55001636516E+02 -0.82308659156E+02  0.12007415865E+03  0.00000000000E+00 0.  1.
         11    1    4    4    0    0  0.15575169438E+01  0.27274353309E+02 -0.11125015897E+02  0.29497155560E+02  0.00000000000E+00 0. -1.
        -13    1    3    3    0    0  0.63366639708E+02  0.19283272438E+02 -0.14144917434E+03  0.15618913069E+03  0.00000000000E+00 0. -1.
         13    1    3    3    0    0 -0.55797628488E+00 -0.23166977783E+02  0.47979681365E+00  0.23178662648E+02  0.00000000000E+00 0.  1.
         -2    1    1    2    0  502  0.35890120980E+01  0.31610988553E+02 -0.50067643764E+02  0.59320355336E+02  0.00000000000E+00 0. -1.
<scales pt_clust_5="13000.00000" pt_clust_6="13000.00000" pt_clust_7="13000.00000" pt_clust_8="13000.00000" pt_clust_9="31.81409"></scales>
<clustering>
<clus scale="   31.814">  1  9  2 -1</clus>
<clus scale="   91.326">  7  8 -1 -1</clus>
<clus scale="   92.001">  5  6 -1 -1</clus>
<clus scale="  112.030">  2  7  1 -1</clus>
<clus scale="   31.814">  1  5  2 -1</clus>
</clustering>
</event>
<event>
 9    1  0.1610296E-005  0.1035371E+03  0.7546771E-02  0.1275625E+00
          3   -1    0    0  502    0 -0.00000000000E+00  0.00000000000E+00  0.13849926446E+03  0.13849926446E+03  0.00000000000E+00 0. -1.
         21   -1    0    0  501  502  0.00000000000E+00 -0.00000000000E+00 -0.11155536650E+03  0.11155536650E+03  0.00000000000E+00 0.  1.
         23    2    1    2    0    0  0.33707667482E+02  0.25033022277E+02  0.43696500663E+02  0.10852437764E+03  0.90029424745E+02 0.  0.
         23    2    1    2    0    0 -0.54934250685E+01 -0.45164361505E+02 -0.14665507519E+02  0.10680749047E+03  0.95513169985E+02 0.  0.
        -13    1    4    4    0    0 -0.40929301591E+02 -0.39454524041E+02  0.16582026470E+02  0.59218500470E+02  0.00000000000E+00 0.  1.
         13    1    4    4    0    0  0.35435876522E+02 -0.57098374639E+01 -0.31247533990E+02  0.47588990000E+02  0.00000000000E+00 0. -1.
        -13    1    3    3    0    0  0.21017309652E+02  0.58776356193E+01 -0.26693338115E+02  0.34479098091E+02  0.00000000000E+00 0.  1.
         13    1    3    3    0    0  0.12690357830E+02  0.19155386658E+02  0.70389838778E+02  0.74045279546E+02  0.00000000000E+00 0. -1.
          3    1    1    2  501    0 -0.28214242413E+02  0.20131339228E+02 -0.20870951829E+01  0.34722762856E+02  0.00000000000E+00 0. -1.
<scales pt_clust_5="13000.00000" pt_clust_6="13000.00000" pt_clust_7="13000.00000" pt_clust_8="13000.00000" pt_clust_9="34.65998"></scales>
<clustering>
<clus scale="   34.660">  2  9  1 -1</clus>
<clus scale="   90.029">  7  8 -1 -1</clus>
<clus scale="   95.513">  5  6 -1 -1</clus>
<clus scale="   98.501">  1  7  2 -1</clus>
<clus scale="   34.660">  2  5  1 -1</clus>
</clustering>
</event>
<event>
 9    1  0.1610296E-005  0.2029106E+03  0.7546771E-02  0.1147647E+00
         -1   -1    0    0    0  501 -0.00000000000E+00  0.00000000000E+00  0.10927942094E+03  0.10927942094E+03  0.00000000000E+00 0.  1.
         21   -1    0    0  501  502  0.00000000000E+00 -0.00000000000E+00 -0.73185893265E+03  0.73185893265E+03  0.00000000000E+00 0.  1.
         23    2    1    2    0    0 -0.13810697192E+03 -0.71360036574E+02 -0.90857524560E+02  0.20217331345E+03  0.91941113712E+02 0.  0.
         23    2    1    2    0    0  0.22421817635E+03  0.87470275331E+02 -0.33321342021E+03  0.42198501694E+03  0.95474244918E+02 0.  0.
        -11    1    3    3    0    0 -0.14852218224E+02 -0.23442414349E+02  0.16107358430E+02  0.32087102896E+02  0.00000000000E+00 0. -1.
         11    1    3    3    0    0 -0.12325475369E+03 -0.47917622224E+02 -0.10696488299E+03  0.17008621055E+03  0.00000000000E+00 0.  1.
        -13    1    4    4    0    0  0.16920271619E+03  0.10735552106E+03 -0.26082463010E+03  0.32891374969E+03  0.00000000000E+00 0.  1.
         13    1    4    4    0    0  0.55015460166E+02 -0.19885245727E+02 -0.72388790114E+02  0.93071267258E+02  0.00000000000E+00 0. -1.
         -1    1    1    2    0  502 -0.86111204435E+02 -0.16110238757E+02 -0.19850856693E+03  0.21698002320E+03  0.00000000000E+00 0.  1.
<scales pt_clust_5="13000.00000" pt_clust_6="13000.00000" pt_clust_7="13000.00000" pt_clust_8="13000.00000" pt_clust_9="87.60525"></scales>
<clustering>
<clus scale="   87.605">  2  9  1 -1</clus>
<clus scale="   91.941">  5  6 -1 -1</clus>
<clus scale="   95.474">  7  8 -1 -1</clus>
<clus scale="  201.272">  1  5  2 -1</clus>
<clus scale="   87.605">  2  5  1 -1</clus>
</clustering>
</event>
<event>
 9    1  0.1610296E-005  0.1030791E+03  0.7546771E-02  0.1275285E+00
         21   -1    0    0  501  502  0.00000000000E+00  0.00000000000E+00  0.60450460827E+02  0.60450460827E+02  0.00000000000E+00 0. -1.
          3   -1    0    0  502    0 -0.00000000000E+00 -0.00000000000E+00 -0.36522349345E+03  0.36522349345E+03  0.00000000000E+00 0. -1.
         23    2    1    2    0    0  0.38103180434E+02 -0.31228186975E+02 -0.18521792318E+03  0.21194848792E+03  0.90495471953E+02 0.  0.
         23    2    1    2    0    0  0.26232976348E+01  0.68724542645E+02 -0.43157845875E+02  0.11937948295E+03  0.87515237738E+02 0.  0.
        -11    1    4    4    0    0  0.21983944738E+02  0.50212718265E+02  0.13723817263E+02  0.56506230294E+02  0.00000000000E+00 0. -1.
         11    1    4    4    0    0 -0.19360647103E+02  0.18511824381E+02 -0.56881663137E+02  0.62873252655E+02  0.00000000000E+00 0.  1.
        -13    1    3    3    0    0  0.58615756513E+02  0.49249783426E+01 -0.13124907528E+03  0.14382761239E+03  0.00000000000E+00 0.  1.
         13    1    3    3    0    0 -0.20512576078E+02 -0.36153165318E+02 -0.53968847903E+02  0.68120875537E+02  0.00000000000E+00 0. -1.
          3    1    1    2  501    0 -0.40726478069E+02 -0.37496355670E+02 -0.76397263570E+02  0.94345983409E+02  0.00000000000E+00 0. -1.
<scales pt_clust_5="13000.00000" pt_clust_6="13000.00000" pt_clust_7="13000.00000" pt_clust_8="13000.00000" pt_clust_9="55.35906"></scales>
<clustering>
<clus scale="   55.359">  1  9  2 -1</clus>
<clus scale="   87.515">  5  6 -1 -1</clus>
<clus scale="   90.495">  7  8 -1 -1</clus>
<clus scale="  100.473">  1  5  2 -1</clus>
<clus scale="   55.359">  1  5  2 -1</clus>
</clustering>
</event>
<event>
 9    1  0.1610296E-005  0.9895414E+02  0.7546771E-02  0.1285715E+00
          1   -1    0    0  502    0 -0.00000000000E+00  0.00000000000E+00  0.27780756010E+03  0.27780756010E+03  0.00000000000E+00 0. -1.
         21   -1    0    0  501  502  0.00000000000E+00 -0.00000000000E+00 -0.14779923214E+03  0.14779923214E+03  0.00000000000E+00 0.  1.
         23    2    1    2    0    0  0.20767488845E+02  0.15426045761E+02  0.22701666719E+03  0.24745659210E+03  0.95020767793E+02 0.  0.
         23    2    1    2    0    0 -0.88988001598E+01 -0.57069845511E+02 -0.66483976217E+02  0.12517087807E+03  0.88946465428E+02 0.  0.
        -11    1    4    4    0    0 -0.41727019223E+02 -0.56160516870E+02 -0.58921195169E+02  0.91470514531E+02  0.00000000000E+00 0.  1.
         11    1    4    4    0    0  0.32828219063E+02 -0.90932864086E+00 -0.75627810476E+01  0.33700363539E+02  0.00000000000E+00 0. -1.
        -13    1    3    3    0    0 -0.37192634313E+02  0.50600803672E+01  0.11402408802E+03  0.12004328015E+03  0.00000000000E+00 0.  1.
         13    1    3    3    0    0  0.57960123158E+02  0.10365965394E+02  0.11299257917E+03  0.12741331195E+03  0.00000000000E+00 0. -1.
          1    1    1    2  501    0 -0.11868688686E+02  0.41643799750E+02 -0.30524363013E+02  0.52979322061E+02  0.00000000000E+00 0. -1.
<scales pt_clust_5="13000.00000" pt_clust_6="13000.00000" pt_clust_7="13000.00000" pt_clust_8="13000.00000" pt_clust_9="43.30210"></scales>
<clustering>
<clus scale="   43.302">  2  9  1 -1</clus>
<clus scale="   88.946">  5  6 -1 -1</clus>
<clus scale="   93.137">  2  5  1 -1</clus>
<clus scale="   95.021">  7  8 -1 -1</clus>
<clus scale="   43.302">  2  5  1 -1</clus>
</clustering>
</event>
<event>
 9    1  0.1610296E-005  0.9835702E+02  0.7546771E-02  0.1284301E+00
         21   -1    0    0  501  502  0.00000000000E+00  0.00000000000E+00  0.43529912664E+02  0.43529912664E+02  0.00000000000E+00 0.  1.
          1   -1    0    0  502    0 -0.00000000000E+00 -0.00000000000E+00 -0.31559003809E+03  0.31559003809E+03  0.00000000000E+00 0. -1.
         23    2    1    2    0    0  0.30521158887E+02  0.22591602170E+02 -0.16665155782E+03  0.19363434522E+03  0.90992287025E+02 0.  0.
         23    2    1    2    0    0 -0.35646445230E+02  0.50818967916E+01 -0.74931069059E+02  0.12400104186E+03  0.92005970136E+02 0.  0.
        -11    1    3    3    0    0  0.49147661228E+02  0.39188535459E+02 -0.15251202008E+03  0.16495802552E+03  0.00000000000E+00 0. -1.
         11    1    3    3    0    0 -0.18626502342E+02 -0.16596933289E+02 -0.14139537739E+02  0.28676319700E+02  0.00000000000E+00 0.  1.
        -11    1    4    4    0    0  0.75477048207E+01 -0.19736333300E+02 -0.70945549750E+02  0.74025412728E+02  0.00000000000E+00 0. -1.
         11    1    4    4    0    0 -0.43194150050E+02  0.24818230092E+02 -0.39855193089E+01  0.49975629137E+02  0.00000000000E+00 0.  1.
          1    1    1    2  501    0  0.51252863432E+01 -0.27673498961E+02 -0.30477498552E+02  0.41484563669E+02  0.00000000000E+00 0. -1.
<scales pt_clust_5="13000.00000" pt_clust_6="13000.00000" pt_clust_7="13000.00000" pt_clust_8="13000.00000" pt_clust_9="28.14411"></scales>
<clustering>
<clus scale="   28.144">  1  9  2 -1</clus>
<clus scale="   90.992">  5  6 -1 -1</clus>
<clus scale="   92.006">  7  8 -1 -1</clus>
<clus scale="   97.409">  2  5  1 -1</clus>
<clus scale="   28.144">  1  5  2 -1</clus>
</clustering>
</event>
<event>
 9    1  0.1610296E-005  0.9514991E+02  0.7546771E-02  0.1292369E+00
         21   -1    0    0  501  502  0.00000000000E+00  0.00000000000E+00  0.59471682541E+02  0.59471682541E+02  0.00000000000E+00 0. -1.
          2   -1    0    0  502    0 -0.00000000000E+00 -0.00000000000E+00 -0.93698485412E+03  0.93698485412E+03  0.00000000000E+00 0. -1.
         23    2    1    2    0    0  0.17641022587E+02  0.24035240980E+01 -0.43584967139E+03  0.44620817184E+03  0.93913864605E+02 0.  0.
         23    2    1    2    0    0  0.51233959159E+02  0.12814490061E+02 -0.46434635827E+03  0.47615475433E+03  0.91195832729E+02 0.  0.
        -13    1    3    3    0    0 -0.69179743318E+01 -0.43114812976E+02 -0.21394714553E+03  0.21835779479E+03  0.00000000000E+00 0.  1.
         13    1    3    3    0    0  0.24558996919E+02  0.45518337074E+02 -0.22190252586E+03  0.22785037705E+03  0.00000000000E+00 0. -1.
        -13    1    4    4    0    0  0.69878300866E+02  0.24620836689E+02 -0.42147149544E+03  0.42793385471E+03  0.00000000000E+00 0.  1.
         13    1    4    4    0    0 -0.18644341707E+02 -0.11806346628E+02 -0.42874862823E+02  0.48220899623E+02  0.00000000000E+00 0. -1.
          2    1    1    2  501    0 -0.68874981746E+02 -0.15218014159E+02  0.22682858071E+02  0.74093610492E+02  0.00000000000E+00 0. -1.
<scales pt_clust_5="13000.00000" pt_clust_6="13000.00000" pt_clust_7="13000.00000" pt_clust_8="13000.00000" pt_clust_9="70.53617"></scales>
<clustering>
<clus scale="   70.536">  1  9  2 -1</clus>
<clus scale="   91.196">  7  8 -1 -1</clus>
<clus scale="   92.468">  1  7  2 -1</clus>
<clus scale="   93.914">  5  6 -1 -1</clus>
<clus scale="   70.536">  1  5  2 -1</clus>
</clustering>
</event>
<event>
 9    1  0.1610296E-005  0.1982420E+03  0.7546771E-02  0.1151448E+00
         21   -1    0    0  501  502  0.00000000000E+00  0.00000000000E+00  0.27847139744E+02  0.27847139744E+02  0.00000000000E+00 0.  1.
          1   -1    0    0  502    0 -0.00000000000E+00 -0.00000000000E+00 -0.17152345677E+04  0.17152345677E+04  0.00000000000E+00 0. -1.
         23    2    1    2    0    0 -0.17089241260E+03 -0.28610257820E+02 -0.93002256605E+03  0.95023465992E+03  0.89337405425E+02 0.  0.
         23    2    1    2    0    0  0.17178821729E+03  0.55487800755E+02 -0.71095519924E+03  0.73920880026E+03  0.91554723671E+02 0.  0.
        -13    1    3    3    0    0 -0.18427907159E+02 -0.14579810955E+02 -0.34653848628E+02  0.41869414546E+02  0.00000000000E+00 0.  1.
         13    1    3    3    0    0 -0.15246450544E+03 -0.14030446865E+02 -0.89536871742E+03  0.90836524537E+03  0.00000000000E+00 0. -1.
        -13    1    4    4    0    0  0.14357350805E+03  0.50833774735E+01 -0.47255427286E+03  0.49390964127E+03  0.00000000000E+00 0.  1.
         13    1    4    4    0    0  0.28214709239E+02  0.50404423281E+02 -0.23840092638E+03  0.24529915899E+03  0.00000000000E+00 0. -1.
          1    1    1    2  501    0 -0.89580469267E+00 -0.26877542934E+02 -0.46409662619E+02  0.53638247219E+02  0.00000000000E+00 0. -1.
<scales pt_clust_5="13000.00000" pt_clust_6="13000.00000" pt_clust_7="13000.00000" pt_clust_8="13000.00000" pt_clust_9="26.89247"></scales>
<clustering>
<clus scale="   26.892">  1  9  2 -1</clus>
<clus scale="   89.337">  5  6 -1 -1</clus>
<clus scale="   91.555">  7  8 -1 -1</clus>
<clus scale="  197.228">  2  5  1 -1</clus>
<clus scale="   26.892">  1  5  2 -1</clus>
</clustering>
</event>
<event>
 9    1  0.1610296E-005  0.1065025E+03  0.7546771E-02  0.1267613E+00
         -3   -1    0    0    0  501 -0.00000000000E+00  0.00000000000E+00  0.56997354978E+02  0.56997354978E+02  0.00000000000E+00 0.  1.
         21   -1    0    0  501  502  0.00000000000E+00 -0.00000000000E+00 -0.40797180384E+03  0.40797180384E+03  0.00000000000E+00 0.  1.
         23    2    1    2    0    0 -0.54420160060E+02  0.27827102091E+02 -0.39745470174E+02  0.11632889588E+03  0.90646611556E+02 0.  0.
         23    2    1    2    0    0  0.30376737807E+02 -0.30602319139E+02 -0.12522949388E+03  0.16107268489E+03  0.91666436302E+02 0.  0.
        -11    1    4    4    0    0 -0.73466670250E+01 -0.53479632198E+02 -0.48527961425E+02  0.72587930239E+02  0.00000000000E+00 0.  1.
         11    1    4    4    0    0  0.37723404832E+02  0.22877313059E+02 -0.76701532455E+02  0.88484754653E+02  0.00000000000E+00 0. -1.
        -13    1    3    3    0    0  0.25187785099E+02  0.83339359453E+01 -0.16069799125E+02  0.31018018158E+02  0.00000000000E+00 0. -1.
         13    1    3    3    0    0 -0.79607945159E+02  0.19493166146E+02 -0.23675671049E+02  0.85310877726E+02  0.00000000000E+00 0.  1.
         -3    1    1    2    0  502  0.24043422253E+02  0.27752170484E+01 -0.18599948481E+03  0.18756757804E+03  0.00000000000E+00 0.  1.
<scales pt_clust_5="13000.00000" pt_clust_6="13000.00000" pt_clust_7="13000.00000" pt_clust_8="13000.00000" pt_clust_9="24.20306"></scales>
<clustering>
<clus scale="   24.203">  2  9  1 -1</clus>
<clus scale="   90.647">  7  8 -1 -1</clus>
<clus scale="   91.666">  5  6 -1 -1</clus>
<clus scale="  105.626">  1  7  2 -1</clus>
<clus scale="   24.203">  2  5  1 -1</clus>
</clustering>
</event>
<event>
 9    1  0.1610296E-005  0.1079459E+03  0.7546771E-02  0.1265350E+00
          1   -1    0    0  502    0 -0.00000000000E+00  0.00000000000E+00  0.14433461004E+03  0.14433461004E+03  0.00000000000E+00 0. -1.
         21   -1    0    0  501  502  0.00000000000E+00 -0.00000000000E+00 -0.19830421397E+03  0.19830421397E+03  0.00000000000E+00 0.  1.
         23    2    1    2    0    0 -0.15871301942E+02 -0.40047727895E+02  0.24260938839E+02  0.10498489033E+03  0.92614876289E+02 0.  0.
         23    2    1    2    0    0  0.84308030227E+02  0.25685851212E+02  0.81943563023E+01  0.12648238849E+03  0.90349544607E+02 0.  0.
        -11    1    4    4    0    0  0.19249036735E+02  0.44643952937E+02  0.27715072645E+02  0.55961890611E+02  0.00000000000E+00 0. -1.
         11    1    4    4    0    0  0.65058993492E+02 -0.18958101724E+02 -0.19520716342E+02  0.70520497883E+02  0.00000000000E+00 0.  1.
        -13    1    3    3    0    0  0.19521029873E+02 -0.43893121232E+02 -0.16567647294E+02  0.50814994201E+02  0.00000000000E+00 0.  1.
         13    1    3    3    0    0 -0.35392331815E+02  0.38453933368E+01  0.40828586134E+02  0.54169896132E+02  0.00000000000E+00 0. -1.
          1    1    1    2  501    0 -0.68436728284E+02  0.14361876683E+02 -0.86424899068E+02  0.11117154519E+03  0.00000000000E+00 0. -1.
<scales pt_clust_5="13000.00000" pt_clust_6="13000.00000" pt_clust_7="13000.00000" pt_clust_8="13000.00000" pt_clust_9="69.92746"></scales>
<clustering>
<clus scale="   69.927">  2  9  1 -1</clus>
<clus scale="   90.350">  5  6 -1 -1</clus>
<clus scale="   92.615">  7  8 -1 -1</clus>
<clus scale="  106.009">  2  5  1 -1</clus>
<clus scale="   69.927">  2  5  1 -1</clus>
</clustering>
</event>
<event>
 9    1  0.1610296E-005  0.1270813E+03  0.7546771E-02  0.1232254E+00
         21   -1    0    0  501  502  0.00000000000E+00  0.00000000000E+00  0.23296800257E+03  0.23296800257E+03  0.00000000000E+00 0.  1.
          2   -1    0    0  502    0 -0.00000000000E+00 -0.00000000000E+00 -0.15236858158E+03  0.15236858158E+03  0.00000000000E+00 0. -1.
         23    2    1    2    0    0 -0.10306259228E+03  0.27183262688E+02 -0.54610279124E+02  0.14911784425E+03  0.88842676635E+02 0.  0.
         23    2    1    2    0    0  0.43243342886E+02 -0.55305669406E+02  0.41814740730E+02  0.12179920138E+03  0.90320923052E+02 0.  0.
        -13    1    3    3    0    0 -0.20680577897E+02  0.47031091446E+02 -0.68099051752E+01  0.51826486214E+02  0.00000000000E+00 0.  1.
         13    1    3    3    0    0 -0.82382014380E+02 -0.19847828758E+02 -0.47800373949E+02  0.97291358040E+02  0.00000000000E+00 0. -1.
        -13    1    4    4    0    0  0.68650825854E+02 -0.45772524548E+02  0.15413439572E+02  0.83938275020E+02  0.00000000000E+00 0. -1.
         13    1    4    4    0    0 -0.25407482968E+02 -0.95331448579E+01  0.26401301158E+02  0.37860926355E+02  0.00000000000E+00 0.  1.
          2    1    1    2  501    0  0.59819249391E+02  0.28122406718E+02  0.93394959387E+02  0.11441953852E+03  0.00000000000E+00 0. -1.
<scales pt_clust_5="13000.00000" pt_clust_6="13000.00000" pt_clust_7="13000.00000" pt_clust_8="13000.00000" pt_clust_9="66.10002"></scales>
<clustering>
<clus scale="   66.100">  1  9  2 -1</clus>
<clus scale="   88.843">  5  6 -1 -1</clus>
<clus scale="   90.321">  7  8 -1 -1</clus>
<clus scale="  126.035">  2  5  1 -1</clus>
<clus scale="   66.100">  1  5  2 -1</clus>
</clustering>
</event>
<event>
 9    1  0.1610296E-005  0.1806917E+03  0.7546771E-02  0.1180656E+00
         21   -1    0    0  501  502  0.00000000000E+00  0.00000000000E+00  0.13374009642E+03  0.13374009642E+03  0.00000000000E+00 0. -1.
          1   -1    0    0  502    0 -0.00000000000E+00 -0.00000000000E+00 -0.48948434824E+03  0.48948434824E+03  0.00000000000E+00 0. -1.
         23    2    1    2    0    0 -0.93294407464E+02  0.19357391860E+02 -0.18552053545E+03  0.22821138407E+03  0.92649941522E+02 0.  0.
         23    2    1    2    0    0 -0.62560196595E+01 -0.14984361601E+03 -0.14329672864E+03  0.22869407520E+03  0.96305662104E+02 0.  0.
        -13    1    3    3    0    0 -0.43557271697E+02  0.32530722771E+02 -0.25358646490E+02  0.59987872054E+02  0.00000000000E+00 0.  1.
         13    1    3    3    0    0 -0.49737135767E+02 -0.13173330911E+02 -0.16016188896E+03  0.16822351202E+03  0.00000000000E+00 0. -1.
        -13    1    4    4    0    0  0.29962564749E+02 -0.69051055019E+01 -0.26309104032E+02  0.40467329086E+02  0.00000000000E+00 0.  1.
         13    1    4    4    0    0 -0.36218584409E+02 -0.14293851050E+03 -0.11698762461E+03  0.18822674612E+03  0.00000000000E+00 0. -1.
          1    1    1    2  501    0  0.99550427123E+02  0.13048622415E+03 -0.26926987723E+02  0.16631898539E+03  0.00000000000E+00 0. -1.
<scales pt_clust_5="13000.00000" pt_clust_6="13000.00000" pt_clust_7="13000.00000" pt_clust_8="13000.00000" pt_clust_9="152.88785"></scales>
<clustering>
<clus scale="   92.650">  5  6 -1 -1</clus>
<clus scale="   96.306">  7  8 -1 -1</clus>
<clus scale="  132.901">  2  5  1 -1</clus>
<clus scale="  152.888">  1  9  2 -1</clus>
<clus scale="  152.888">  1  5  2 -1</clus>
</clustering>
</event>
<event>
 9    1  0.1610296E-005  0.1082402E+03  0.7546771E-02  0.1264099E+00
          1   -1    0    0  502    0 -0.00000000000E+00  0.00000000000E+00  0.31827627877E+03  0.31827627877E+03  0.00000000000E+00 0. -1.
         21   -1    0    0  501  502  0.00000000000E+00 -0.00000000000E+00 -0.15764156470E+03  0.15764156470E+03  0.00000000000E+00 0. -1.
         23    2    1    2    0    0 -0.60294721815E+02  0.14249904701E+01  0.25546030750E+03  0.27834776374E+03  0.92628423255E+02 0.  0.
         23    2    1    2    0    0  0.37320350933E+02  0.70572148024E+01  0.57719458922E-01  0.99577158610E+02  0.92048869144E+02 0.  0.
        -13    1    4    4    0    0  0.32889664823E+02 -0.33308766597E+02  0.23825169741E+02  0.52524686554E+02  0.00000000000E+00 0.  1.
         13    1    4    4    0    0  0.44306861102E+01  0.40365981399E+02 -0.23767450282E+02  0.47052472056E+02  0.00000000000E+00 0. -1.
        -13    1    3    3    0    0 -0.18379634822E+01  0.39288691894E+02  0.70832078390E+02  0.81019520793E+02  0.00000000000E+00 0.  1.
         13    1    3    3    0    0 -0.58456758333E+02 -0.37863701424E+02  0.18462822911E+03  0.19732824295E+03  0.00000000000E+00 0. -1.
          1    1    1    2  501    0  0.22974370881E+02 -0.84822052725E+01 -0.94883312888E+02  0.97992921113E+02  0.00000000000E+00 0. -1.
<scales pt_clust_5="13000.00000" pt_clust_6="13000.00000" pt_clust_7="13000.00000" pt_clust_8="13000.00000" pt_clust_9="24.49019"></scales>
<clustering>
<clus scale="   24.490">  2  9  1 -1</clus>
<clus scale="   92.049">  5  6 -1 -1</clus>
<clus scale="   92.628">  7  8 -1 -1</clus>
<clus scale="  107.745">  2  5  1 -1</clus>
<clus scale="   24.490">  2  5  1 -1</clus>
</clustering>
</event>
<event>
 9    1  0.1610296E-005  0.1065193E+03  0.7546771E-02  0.1267488E+00
         21   -1    0    0  501  502  0.00000000000E+00  0.00000000000E+00  0.13437241522E+03  0.13437241522E+03  0.00000000000E+00 0.  1.
         -3   -1    0    0    0  501 -0.00000000000E+00 -0.00000000000E+00 -0.22919601939E+03  0.22919601939E+03  0.00000000000E+00 0.  1.
         23    2    1    2    0    0  0.25369693635E+02  0.11629701565E+02 -0.72378357812E+02  0.12913889063E+03  0.10324415276E+03 0.  0.
         23    2    1    2    0    0  0.17415201780E+02  0.86295934110E+02 -0.21227001138E+02  0.12755830595E+03  0.89834616610E+02 0.  0.
        -11    1    3    3    0    0  0.55907540904E+02  0.34569144700E+02 -0.59975242977E+02  0.88981507435E+02  0.00000000000E+00 0.  1.
         11    1    3    3    0    0 -0.30537847269E+02 -0.22939443135E+02 -0.12403114835E+02  0.40157383192E+02  0.00000000000E+00 0. -1.
        -11    1    4    4    0    0  0.67995319892E+01  0.10400478548E+03 -0.11905110701E+02  0.10490453135E+03  0.00000000000E+00 0.  1.
         11    1    4    4    0    0  0.10615669791E+02 -0.17708851369E+02 -0.93218904364E+01  0.22653774591E+02  0.00000000000E+00 0. -1.
         -3    1    1    2    0  502 -0.42784895415E+02 -0.97925635675E+02 -0.12182452129E+01  0.10687123804E+03  0.00000000000E+00 0.  1.
<scales pt_clust_5="13000.00000" pt_clust_6="13000.00000" pt_clust_7="13000.00000" pt_clust_8="13000.00000" pt_clust_9="106.86429"></scales>
<clustering>
<clus scale="   89.835">  7  8 -1 -1</clus>
<clus scale="  103.244">  5  6 -1 -1</clus>
<clus scale="  106.864">  1  9  2 -1</clus>
<clus scale="  106.864">  1  7  2 -1</clus>
<clus scale="  106.519">  1  5  2 -1</clus>
</clustering>
</event>
<event>
 9    1  0.1610296E-005  0.1140830E+03  0.7546771E-02  0.1254269E+00
         21   -1    0    0  501  502  0.00000000000E+00  0.00000000000E+00  0.11985706943E+03  0.11985706943E+03  0.00000000000E+00 0.  1.
          1   -1    0    0  502    0 -0.00000000000E+00 -0.00000000000E+00 -0.28815521252E+03  0.28815521252E+03  0.00000000000E+00 0. -1.
         23    2    1    2    0    0  0.54287352674E+02 -0.36615872066E+02 -0.21218873623E+03  0.24023648093E+03  0.91660614424E+02 0.  0.
         23    2    1    2    0    0 -0.20837568322E+02  0.64189520264E+02  0.18857753009E+02  0.11771746272E+03  0.94590102097E+02 0.  0.
        -11    1    4    4    0    0 -0.69099020494E+01  0.81180084864E+02  0.36755167949E+02  0.89380620359E+02  0.00000000000E+00 0.  1.
         11    1    4    4    0    0 -0.13927666273E+02 -0.16990564600E+02 -0.17897414940E+02  0.28336842357E+02  0.00000000000E+00 0. -1.
        -11    1    3    3    0    0  0.25950909285E+02  0.28361129887E+02 -0.10415182306E+03  0.11101984339E+03  0.00000000000E+00 0.  1.
         11    1    3    3    0    0  0.28336443389E+02 -0.64977001953E+02 -0.10803691318E+03  0.12921663753E+03  0.00000000000E+00 0. -1.
          1    1    1    2  501    0 -0.33449784352E+02 -0.27573648197E+02  0.25032840142E+02  0.50058338303E+02  0.00000000000E+00 0. -1.
<scales pt_clust_5="13000.00000" pt_clust_6="13000.00000" pt_clust_7="13000.00000" pt_clust_8="13000.00000" pt_clust_9="43.34967"></scales>
<clustering>
<clus scale="   43.350">  1  9  2 -1</clus>
<clus scale="   91.661">  7  8 -1 -1</clus>
<clus scale="   94.590">  5  6 -1 -1</clus>
<clus scale="  111.666">  2  7  1 -1</clus>
<clus scale="   43.350">  1  5  2 -1</clus>
</clustering>
</event>
<event>
 9    1  0.1610296E-005  0.1008037E+03  0.7546771E-02  0.1278959E+00
         21   -1    0    0  501  502  0.00000000000E+00  0.00000000000E+00  0.15232289104E+03  0.15232289104E+03  0.00000000000E+00 0. -1.
          1   -1    0    0  502    0 -0.00000000000E+00 -0.00000000000E+00 -0.25761068799E+03  0.25761068799E+03  0.00000000000E+00 0. -1.
         23    2    1    2    0    0  0.38139056201E+02 -0.24348010467E+02 -0.11195737109E+03  0.15116561467E+03  0.90935014680E+02 0.  0.
         23    2    1    2    0    0 -0.43654045100E+02 -0.58825433734E+01 -0.10307755652E+03  0.14479983646E+03  0.91660951398E+02 0.  0.
        -11    1    3    3    0    0  0.41058737972E+02 -0.97416353067E+00 -0.46840518803E+01  0.41336537112E+02  0.00000000000E+00 0.  1.
         11    1    3    3    0    0 -0.29196817710E+01 -0.23373846936E+02 -0.10727331921E+03  0.10982907756E+03  0.00000000000E+00 0. -1.
        -13    1    4    4    0    0  0.68470417037E+01  0.29101956628E+02 -0.67456700596E+02  0.73784905740E+02  0.00000000000E+00 0.  1.
         13    1    4    4    0    0 -0.50501086804E+02 -0.34984500001E+02 -0.35620855922E+02  0.71014930721E+02  0.00000000000E+00 0. -1.
          1    1    1    2  501    0  0.55149888998E+01  0.30230553840E+02  0.10974713066E+03  0.11396812789E+03  0.00000000000E+00 0. -1.
<scales pt_clust_5="13000.00000" pt_clust_6="13000.00000" pt_clust_7="13000.00000" pt_clust_8="13000.00000" pt_clust_9="30.72949"></scales>
<clustering>
<clus scale="   30.729">  1  9  2 -1</clus>
<clus scale="   90.935">  5  6 -1 -1</clus>
<clus scale="   91.661">  7  8 -1 -1</clus>
<clus scale="  100.144">  2  5  1 -1</clus>
<clus scale="   30.729">  1  5  2 -1</clus>
</clustering>
</event>
<event>
 9    1  0.1610296E-005  0.9504095E+02  0.7546771E-02  0.1291297E+00
          2   -1    0    0  502    0 -0.00000000000E+00  0.00000000000E+00  0.67972506835E+02  0.67972506835E+02  0.00000000000E+00 0. -1.
         21   -1    0    0  501  502  0.00000000000E+00 -0.00000000000E+00 -0.56928862843E+03  0.56928862843E+03  0.00000000000E+00 0. -1.
         23    2    1    2    0    0  0.28927169246E+02 -0.16993455182E+02 -0.84424902764E+01  0.97991399129E+02  0.91681404994E+02 0.  0.
         23    2    1    2    0    0 -0.11105744154E+02 -0.67946823434E+02 -0.16956551160E+03  0.20451520756E+03  0.91290191330E+02 0.  0.
        -11    1    4    4    0    0  0.38676639758E+02 -0.14759490059E+02 -0.65467173052E+02  0.77457573918E+02  0.00000000000E+00 0.  1.
         11    1    4    4    0    0 -0.49782383912E+02 -0.53187333375E+02 -0.10409833855E+03  0.12705763365E+03  0.00000000000E+00 0. -1.
        -11    1    3    3    0    0 -0.50969100673E+01 -0.48549696794E+02 -0.15128791431E+02  0.51107062929E+02  0.00000000000E+00 0. -1.
         11    1    3    3    0    0  0.34024079313E+02  0.31556241613E+02  0.66863011550E+01  0.46884336200E+02  0.00000000000E+00 0.  1.
          2    1    1    2  501    0 -0.17821425092E+02  0.84940278615E+02 -0.32330811972E+03  0.33475452857E+03  0.00000000000E+00 0. -1.
<scales pt_clust_5="13000.00000" pt_clust_6="13000.00000" pt_clust_7="13000.00000" pt_clust_8="13000.00000" pt_clust_9="86.78971"></scales>
<clustering>
<clus scale="   86.790">  2  9  1 -1</clus>
<clus scale="   91.290">  5  6 -1 -1</clus>
<clus scale="   91.681">  7  8 -1 -1</clus>
<clus scale="   94.664">  2  5  1 -1</clus>
<clus scale="   86.790">  2  5  1 -1</clus>
</clustering>
</event>
<event>
 9    1  0.1610296E-005  0.1233172E+03  0.7546771E-02  0.1241202E+00
          1   -1    0    0  502    0 -0.00000000000E+00  0.00000000000E+00  0.82214459587E+03  0.82214459587E+03  0.00000000000E+00 0. -1.
         21   -1    0    0  501  502  0.00000000000E+00 -0.00000000000E+00 -0.28313679746E+02  0.28313679746E+02  0.00000000000E+00 0.  1.
         23    2    1    2    0    0 -0.55496565796E+02 -0.35721166705E+02  0.26963322163E+03  0.29222626126E+03  0.91313980301E+02 0.  0.
         23    2    1    2    0    0  0.52751066294E+02  0.93071803694E+02  0.33663543304E+03  0.36207841318E+03  0.79575918950E+02 0.  0.
        -11    1    4    4    0    0  0.67118140585E+02  0.77396659540E+02  0.31697465867E+03  0.33311863044E+03  0.00000000000E+00 0.  1.
         11    1    4    4    0    0 -0.14367074290E+02  0.15675144154E+02  0.19660774365E+02  0.28959782744E+02  0.00000000000E+00 0. -1.
        -13    1    3    3    0    0 -0.49412693579E+02 -0.14146155035E+02  0.26421040443E+03  0.26916326978E+03  0.00000000000E+00 0. -1.
         13    1    3    3    0    0 -0.60838722169E+01 -0.21575011670E+02  0.54228171985E+01  0.23062991481E+02  0.00000000000E+00 0.  1.
          1    1    1    2  501    0  0.27454995011E+01 -0.57350636989E+02  0.18756226146E+03  0.19615360118E+03  0.00000000000E+00 0. -1.
<scales pt_clust_5="13000.00000" pt_clust_6="13000.00000" pt_clust_7="13000.00000" pt_clust_8="13000.00000" pt_clust_9="57.41634"></scales>
<clustering>
<clus scale="   57.416">  2  9  1 -1</clus>
<clus scale="   79.576">  5  6 -1 -1</clus>
<clus scale="   91.314">  7  8 -1 -1</clus>
<clus scale="  114.897">  2  5  1 -1</clus>
<clus scale="   57.416">  2  5  1 -1</clus>
</clustering>
</event>
<event>
 9    1  0.1610296E-005  0.9515849E+02  0.7546771E-02  0.1290980E+00
         21   -1    0    0  501  502  0.00000000000E+00  0.00000000000E+00  0.45832358039E+02  0.45832358039E+02  0.00000000000E+00 0.  1.
          1   -1    0    0  502    0 -0.00000000000E+00 -0.00000000000E+00 -0.41008019045E+03  0.41008019045E+03  0.00000000000E+00 0. -1.
         23    2    1    2    0    0  0.27553942850E+02  0.14966394779E+02 -0.30471375448E+03  0.31929831050E+03  0.90098424943E+02 0.  0.
         23    2    1    2    0    0 -0.12661939490E+02 -0.31699715361E+02 -0.61597607895E+02  0.11411903989E+03  0.89798069585E+02 0.  0.
        -11    1    4    4    0    0 -0.10505073663E+02 -0.62747590028E+02 -0.32191663374E+02  0.71301611607E+02  0.00000000000E+00 0.  1.
         11    1    4    4    0    0 -0.21568658276E+01  0.31047874667E+02 -0.29405944521E+02  0.42817428282E+02  0.00000000000E+00 0. -1.
        -13    1    3    3    0    0  0.29752712074E+02  0.39839628893E+02 -0.27922055899E+03  0.28361336440E+03  0.00000000000E+00 0. -1.
         13    1    3    3    0    0 -0.21987692236E+01 -0.24873234114E+02 -0.25493195494E+02  0.35684946096E+02  0.00000000000E+00 0.  1.
          1    1    1    2  501    0 -0.14892003360E+02  0.16733320581E+02  0.20635299655E+01  0.22495198102E+02  0.00000000000E+00 0. -1.
<scales pt_clust_5="13000.00000" pt_clust_6="13000.00000" pt_clust_7="13000.00000" pt_clust_8="13000.00000" pt_clust_9="22.40035"></scales>
<clustering>
<clus scale="   22.400">  1  9  2 -1</clus>
<clus scale="   89.798">  5  6 -1 -1</clus>
<clus scale="   90.098">  7  8 -1 -1</clus>
<clus scale="   94.874">  1  5  2 -1</clus>
<clus scale="   22.400">  1  5  2 -1</clus>
</clustering>
</event>
<event>
 9    1  0.1610296E-005  0.1280661E+03  0.7546771E-02  0.1230491E+00
         21   -1    0    0  501  502  0.00000000000E+00  0.00000000000E+00  0.29191691031E+03  0.29191691031E+03  0.00000000000E+00 0.  1.
         -3   -1    0    0    0  501 -0.00000000000E+00 -0.00000000000E+00 -0.19987402827E+03  0.19987402827E+03  0.00000000000E+00 0.  1.
         23    2    1    2    0    0  0.27484525560E+02 -0.87121130591E+02 -0.14291149265E+03  0.19276853168E+03  0.91599790032E+02 0.  0.
         23    2    1    2    0    0 -0.71423847780E+02  0.56330584079E+02  0.14178031510E+03  0.19150437504E+03  0.91092080755E+02 0.  0.
        -13    1    4    4    0    0 -0.39650828437E+02  0.76609494304E+02  0.12057813084E+03  0.14825750723E+03  0.00000000000E+00 0. -1.
         13    1    4    4    0    0 -0.31773019343E+02 -0.20278910225E+02  0.21202184254E+02  0.43246867808E+02  0.00000000000E+00 0.  1.
        -13    1    3    3    0    0  0.92996575029E+01 -0.10275580628E+03 -0.12847825273E+03  0.16477833831E+03  0.00000000000E+00 0.  1.
         13    1    3    3    0    0  0.18184868057E+02  0.15634675687E+02 -0.14433239925E+02  0.27990193368E+02  0.00000000000E+00 0. -1.
         -3    1    1    2    0  502  0.43939322220E+02  0.30790546512E+02  0.93174059594E+02  0.10751803185E+03  0.00000000000E+00 0.  1.
<scales pt_clust_5="13000.00000" pt_clust_6="13000.00000" pt_clust_7="13000.00000" pt_clust_8="13000.00000" pt_clust_9="53.65372"></scales>
<clustering>
<clus scale="   53.654">  1  9  2 -1</clus>
<clus scale="   91.092">  5  6 -1 -1</clus>
<clus scale="   91.600">  7  8 -1 -1</clus>
<clus scale="  127.703">  1  5  2 -1</clus>
<clus scale="   53.654">  1  5  2 -1</clus>
</clustering>
</event>
<event>
 9    1  0.1610296E-005  0.1064913E+03  0.7546771E-02  0.1269024E+00
         21   -1    0    0  501  502  0.00000000000E+00  0.00000000000E+00  0.27637795879E+03  0.27637795879E+03  0.00000000000E+00 0. -1.
          2   -1    0    0  502    0 -0.00000000000E+00 -0.00000000000E+00 -0.13150319112E+03  0.13150319112E+03  0.00000000000E+00 0. -1.
         23    2    1    2    0    0 -0.14412382888E+00 -0.59485073657E+02 -0.66500126888E+02  0.12722332889E+03  0.90691861691E+02 0.  0.
         23    2    1    2    0    0 -0.59970391401E+01  0.21697769772E+02  0.40522934998E+02  0.10556931111E+03  0.94847316751E+02 0.  0.
        -11    1    3    3    0    0 -0.40211426415E+02 -0.37956466455E+02 -0.12632018689E+02  0.56720543512E+02  0.00000000000E+00 0.  1.
         11    1    3    3    0    0  0.40067302586E+02 -0.21528607202E+02 -0.53868108199E+02  0.70502785374E+02  0.00000000000E+00 0. -1.
        -13    1    4    4    0    0  0.32426633587E+02 -0.16263407916E+02 -0.27201015475E+01  0.36378344592E+02  0.00000000000E+00 0. -1.
         13    1    4    4    0    0 -0.38423672727E+02  0.37961177688E+02  0.43243036545E+02  0.69190966513E+02  0.00000000000E+00 0.  1.
          2    1    1    2  501    0  0.61411629690E+01  0.37787303885E+02  0.17085195957E+03  0.17508850992E+03  0.00000000000E+00 0. -1.
<scales pt_clust_5="13000.00000" pt_clust_6="13000.00000" pt_clust_7="13000.00000" pt_clust_8="13000.00000" pt_clust_9="38.28308"></scales>
<clustering>
<clus scale="   38.283">  1  9  2 -1</clus>
<clus scale="   90.692">  5  6 -1 -1</clus>
<clus scale="   94.847">  7  8 -1 -1</clus>
<clus scale="  102.808">  2  5  1 -1</clus>
<clus scale="   38.283">  1  5  2 -1</clus>
</clustering>
</event>
<event>
 9    1  0.1610296E-005  0.9684834E+02  0.7546771E-02  0.1287500E+00
         21   -1    0    0  501  502  0.00000000000E+00  0.00000000000E+00  0.29463118148E+03  0.29463118148E+03  0.00000000000E+00 0. -1.
          1   -1    0    0  502    0 -0.00000000000E+00 -0.00000000000E+00 -0.19973724919E+03  0.19973724919E+03  0.00000000000E+00 0. -1.
         23    2    1    2    0    0 -0.12380146030E+02  0.36515753865E+02 -0.13551084173E+03  0.16751181284E+03  0.90610986738E+02 0.  0.
         23    2    1    2    0    0  0.39513354446E+02 -0.27791514203E+01  0.59904837925E+01  0.98304341544E+02  0.89770979766E+02 0.  0.
        -13    1    3    3    0    0  0.39430342000E+02  0.12523388146E+02 -0.56020045998E+02  0.69640740049E+02  0.00000000000E+00 0. -1.
         13    1    3    3    0    0 -0.51810488030E+02  0.23992365718E+02 -0.79490795730E+02  0.97871072787E+02  0.00000000000E+00 0.  1.
        -13    1    4    4    0    0 -0.12924582752E+02 -0.27323269564E+02  0.22975262728E+02  0.37966677448E+02  0.00000000000E+00 0.  1.
         13    1    4    4    0    0  0.52437937198E+02  0.24544118144E+02 -0.16984778936E+02  0.60337664096E+02  0.00000000000E+00 0. -1.
          1    1    1    2  501    0 -0.27133208416E+02 -0.33736602444E+02  0.22441429022E+03  0.22855227630E+03  0.00000000000E+00 0. -1.
<scales pt_clust_5="13000.00000" pt_clust_6="13000.00000" pt_clust_7="13000.00000" pt_clust_8="13000.00000" pt_clust_9="43.29399"></scales>
<clustering>
<clus scale="   43.294">  1  9  2 -1</clus>
<clus scale="   89.771">  7  8 -1 -1</clus>
<clus scale="   90.611">  5  6 -1 -1</clus>
<clus scale="   96.063">  1  7  2 -1</clus>
<clus scale="   43.294">  1  5  2 -1</clus>
</clustering>
</event>
<event>
 9    1  0.1610296E-005  0.1130772E+03  0.7546771E-02  0.1255164E+00
         21   -1    0    0  501  502  0.00000000000E+00  0.00000000000E+00  0.36746548896E+03  0.36746548896E+03  0.00000000000E+00 0. -1.
          1   -1    0    0  502    0 -0.00000000000E+00 -0.00000000000E+00 -0.19851265058E+03  0.19851265058E+03  0.00000000000E+00 0. -1.
         23    2    1    2    0    0 -0.38920792683E+02  0.38893412076E+02 -0.11206551351E+03  0.15527471645E+03  0.92325687888E+02 0.  0.
         23    2    1    2    0    0  0.88061685641E+02 -0.54502144984E+02  0.14400585621E+02  0.13914589109E+03  0.91808811422E+02 0.  0.
        -11    1    3    3    0    0 -0.34716564167E+02  0.63241990248E+02 -0.10852019361E+03  0.13031278364E+03  0.00000000000E+00 0.  1.
         11    1    3    3    0    0 -0.42042285157E+01 -0.24348578172E+02 -0.35453198962E+01  0.24961932809E+02  0.00000000000E+00 0. -1.
        -13    1    4    4    0    0  0.51370946224E+02  0.12763921538E+02  0.30156777329E+02  0.60920628919E+02  0.00000000000E+00 0.  1.
         13    1    4    4    0    0  0.36690739417E+02 -0.67266066522E+02 -0.15756191708E+02  0.78225262169E+02  0.00000000000E+00 0. -1.
          1    1    1    2  501    0 -0.49140892958E+02  0.15608732908E+02  0.26661776627E+03  0.27155753201E+03  0.00000000000E+00 0. -1.
<scales pt_clust_5="13000.00000" pt_clust_6="13000.00000" pt_clust_7="13000.00000" pt_clust_8="13000.00000" pt_clust_9="51.56026"></scales>
<clustering>
<clus scale="   51.560">  1  9  2 -1</clus>
<clus scale="   91.809">  7  8 -1 -1</clus>
<clus scale="   92.326">  5  6 -1 -1</clus>
<clus scale="  112.656">  1  7  2 -1</clus>
<clus scale="   51.560">  1  5  2 -1</clus>
</clustering>
</event>
<event>
 9    1  0.1610296E-005  0.1069053E+03  0.7546771E-02  0.1266435E+00
         21   -1    0    0  501  502  0.00000000000E+00  0.00000000000E+00  0.46805862752E+03  0.46805862752E+03  0.00000000000E+00 0.  1.
         -1   -1    0    0    0  501 -0.00000000000E+00 -0.00000000000E+00 -0.67889261172E+02  0.67889261172E+02  0.00000000000E+00 0.  1.
         23    2    1    2    0    0  0.37383353080E+02 -0.26862937235E+02  0.83451085043E+02  0.13278256350E+03  0.92455357279E+02 0.  0.
         23    2    1    2    0    0 -0.90793730222E+02 -0.58690857052E+02  0.22843766325E+03  0.26912955524E+03  0.92513963068E+02 0.  0.
        -11    1    4    4    0    0 -0.34378650183E+02 -0.75803867869E+02  0.13873890464E+03  0.16179184662E+03  0.00000000000E+00 0.  1.
         11    1    4    4    0    0 -0.56415080039E+02  0.17113010817E+02  0.89698758614E+02  0.10733770862E+03  0.00000000000E+00 0. -1.
        -11    1    3    3    0    0 -0.87361024343E+01 -0.29164578585E+02  0.81009168090E+02  0.86541189294E+02  0.00000000000E+00 0.  1.
         11    1    3    3    0    0  0.46119455514E+02  0.23016413494E+01  0.24419169532E+01  0.46241374204E+02  0.00000000000E+00 0. -1.
         -1    1    1    2    0  502  0.53410377142E+02  0.85553794287E+02  0.88280618052E+02  0.13403576995E+03  0.00000000000E+00 0.  1.
<scales pt_clust_5="13000.00000" pt_clust_6="13000.00000" pt_clust_7="13000.00000" pt_clust_8="13000.00000" pt_clust_9="100.85698"></scales>
<clustering>
<clus scale="   92.455">  7  8 -1 -1</clus>
<clus scale="   92.514">  5  6 -1 -1</clus>
<clus scale="  100.857">  1  9  2 -1</clus>
<clus scale="  106.855">  2  7  1 -1</clus>
<clus scale="  100.857">  1  5  2 -1</clus>
</clustering>
</event>
<event>
 9    1  0.1610296E-005  0.9251991E+02  0.7546771E-02  0.1297216E+00
         21   -1    0    0  501  502  0.00000000000E+00  0.00000000000E+00  0.94435855085E+02  0.94435855085E+02  0.00000000000E+00 0. -1.
         -1   -1    0    0    0  501 -0.00000000000E+00 -0.00000000000E+00 -0.29553591834E+03  0.29553591834E+03  0.00000000000E+00 0.  1.
         23    2    1    2    0    0 -0.10924819946E+02 -0.11623444523E+02 -0.24894557937E+03  0.26560385391E+03  0.91197859480E+02 0.  0.
         23    2    1    2    0    0  0.22194339666E+02 -0.54219075345E+01  0.32874102009E+02  0.99036331686E+02  0.90584229402E+02 0.  0.
        -11    1    3    3    0    0 -0.44482632846E+02 -0.30421567776E+02 -0.15434163581E+03  0.16347940836E+03  0.00000000000E+00 0.  1.
         11    1    3    3    0    0  0.33557812900E+02  0.18798123254E+02 -0.94603943556E+02  0.10212444556E+03  0.00000000000E+00 0. -1.
        -13    1    4    4    0    0  0.50844992891E+01 -0.19691733078E+02 -0.27774828940E+02  0.34424665681E+02  0.00000000000E+00 0.  1.
         13    1    4    4    0    0  0.17109840377E+02  0.14269825543E+02  0.60648930949E+02  0.64611666005E+02  0.00000000000E+00 0. -1.
         -1    1    1    2    0  502 -0.11269519720E+02  0.17045352057E+02  0.14971414104E+02  0.25331587825E+02  0.00000000000E+00 0.  1.
<scales pt_clust_5="13000.00000" pt_clust_6="13000.00000" pt_clust_7="13000.00000" pt_clust_8="13000.00000" pt_clust_9="20.43394"></scales>
<clustering>
<clus scale="   20.434">  1  9  2 -1</clus>
<clus scale="   90.584">  7  8 -1 -1</clus>
<clus scale="   91.198">  5  6 -1 -1</clus>
<clus scale="   91.915">  1  7  2 -1</clus>
<clus scale="   20.434">  1  5  2 -1</clus>
</clustering>
</event>
<event>
 9    1  0.1610296E-005  0.1877777E+03  0.7546771E-02  0.1187468E+00
         21   -1    0    0  501  502  0.00000000000E+00  0.00000000000E+00  0.52610509813E+03  0.52610509813E+03  0.00000000000E+00 0.  1.
          2   -1    0    0  502    0 -0.00000000000E+00 -0.00000000000E+00 -0.25590079317E+03  0.25590079317E+03  0.00000000000E+00 0.  1.
         23    2    1    2    0    0  0.39270756415E+02 -0.32396255278E+02  0.17377704720E+03  0.20135545836E+03  0.88055941377E+02 0.  0.
         23    2    1    2    0    0  0.45778375400E+02  0.17190595004E+03 -0.17377703080E+03  0.26488680723E+03  0.91209916658E+02 0.  0.
        -13    1    3    3    0    0  0.43496046722E+00 -0.56118375354E+02  0.10004577432E+03  0.11471102040E+03  0.00000000000E+00 0.  1.
         13    1    3    3    0    0  0.38835795948E+02  0.23722120076E+02  0.73731272881E+02  0.86644437955E+02  0.00000000000E+00 0. -1.
        -13    1    4    4    0    0 -0.28023165037E+02  0.47289804042E+02 -0.43814022894E+02  0.70294323720E+02  0.00000000000E+00 0. -1.
         13    1    4    4    0    0  0.73801540438E+02  0.12461614600E+03 -0.12996300791E+03  0.19459248351E+03  0.00000000000E+00 0.  1.
          2    1    1    2  501    0 -0.85049131815E+02 -0.13950969477E+03  0.27020428857E+03  0.31576362570E+03  0.00000000000E+00 0.  1.
<scales pt_clust_5="13000.00000" pt_clust_6="13000.00000" pt_clust_7="13000.00000" pt_clust_8="13000.00000" pt_clust_9="164.13785"></scales>
<clustering>
<clus scale="   88.056">  5  6 -1 -1</clus>
<clus scale="   91.210">  7  8 -1 -1</clus>
<clus scale="  101.713">  2  5  1 -1</clus>
<clus scale="  164.138">  1  9  2 -1</clus>
<clus scale="  164.138">  1  5  2 -1</clus>
</clustering>
</event>
<event>
 9    1  0.1610296E-005  0.1747437E+03  0.7546771E-02  0.1199526E+00
         21   -1    0    0  501  502  0.00000000000E+00  0.00000000000E+00  0.55285704407E+03  0.55285704407E+03  0.00000000000E+00 0. -1.
          1   -1    0    0  502    0 -0.00000000000E+00 -0.00000000000E+00 -0.15676039892E+03  0.15676039892E+03  0.00000000000E+00 0. -1.
         23    2    1    2    0    0 -0.24382793703E+01  0.32396333513E+02  0.27083768393E+03  0.28763273967E+03  0.91236364794E+02 0.  0.
         23    2    1    2    0    0 -0.14616374268E+03 -0.51525878272E+02 -0.55469815336E+02  0.18722654880E+03  0.89208319989E+02 0.  0.
        -11    1    3    3    0    0 -0.45845515673E+02  0.15208421169E+02  0.10959245152E+03  0.11976482294E+03  0.00000000000E+00 0. -1.
         11    1    3    3    0    0  0.43407236303E+02  0.17187912343E+02  0.16124523241E+03  0.16786791674E+03  0.00000000000E+00 0.  1.
        -13    1    4    4    0    0 -0.63739869939E+02 -0.57387541755E+02  0.32926293190E+01  0.85830894067E+02  0.00000000000E+00 0. -1.
         13    1    4    4    0    0 -0.82423872742E+02  0.58616634826E+01 -0.58762444655E+02  0.10139565473E+03  0.00000000000E+00 0.  1.
          1    1    1    2  501    0  0.14860202205E+03  0.19129544760E+02  0.18072877656E+03  0.23475815452E+03  0.00000000000E+00 0. -1.
<scales pt_clust_5="13000.00000" pt_clust_6="13000.00000" pt_clust_7="13000.00000" pt_clust_8="13000.00000" pt_clust_9="150.25721"></scales>
<clustering>
<clus scale="   89.208">  7  8 -1 -1</clus>
<clus scale="   91.236">  5  6 -1 -1</clus>
<clus scale="   96.848">  2  5  1 -1</clus>
<clus scale="  150.257">  1  9  2 -1</clus>
<clus scale="  150.257">  1  5  2 -1</clus>
</clustering>
</event>
<event>
 9    1  0.1610296E-005  0.1960898E+03  0.7546771E-02  0.1153253E+00
          1   -1    0    0  502    0 -0.00000000000E+00  0.00000000000E+00  0.10815185500E+04  0.10815185500E+04  0.00000000000E+00 0. -1.
         21   -1    0    0  501  502  0.00000000000E+00 -0.00000000000E+00 -0.11416261839E+03  0.11416261839E+03  0.00000000000E+00 0.  1.
         23    2    1    2    0    0 -0.17101122833E+03 -0.14518163132E+00  0.86937776931E+03  0.89090831207E+03  0.93032539736E+02 0.  0.
         23    2    1    2    0    0  0.18011402697E+03 -0.26804419156E+02  0.14483214347E+03  0.24996010718E+03  0.91346405528E+02 0.  0.
        -11    1    3    3    0    0 -0.36880575038E+02 -0.38324239159E+02  0.18651282556E+03  0.19394833906E+03  0.00000000000E+00 0.  1.
         11    1    3    3    0    0 -0.13413065329E+03  0.38179057527E+02  0.68286494375E+03  0.69695997301E+03  0.00000000000E+00 0. -1.
        -13    1    4    4    0    0  0.16306389841E+03 -0.39733221574E+02  0.88580951462E+02  0.18977657606E+03  0.00000000000E+00 0.  1.
         13    1    4    4    0    0  0.17050128566E+02  0.12928802418E+02  0.56251192005E+02  0.60183531120E+02  0.00000000000E+00 0. -1.
          1    1    1    2  501    0 -0.91027986471E+01  0.26949600787E+02 -0.46853981118E+02  0.54812749178E+02  0.00000000000E+00 0. -1.
<scales pt_clust_5="13000.00000" pt_clust_6="13000.00000" pt_clust_7="13000.00000" pt_clust_8="13000.00000" pt_clust_9="28.44542"></scales>
<clustering>
<clus scale="   28.445">  2  9  1 -1</clus>
<clus scale="   91.346">  7  8 -1 -1</clus>
<clus scale="   93.033">  5  6 -1 -1</clus>
<clus scale="  195.295">  2  7  1 -1</clus>
<clus scale="   28.445">  2  5  1 -1</clus>
</clustering>
</event>
<event>
 9    1  0.1610296E-005  0.1078408E+03  0.7546771E-02  0.1279325E+00
         -1   -1    0    0    0  501 -0.00000000000E+00  0.00000000000E+00  0.20233929664E+03  0.20233929664E+03  0.00000000000E+00 0.  1.
         21   -1    0    0  501  502  0.00000000000E+00 -0.00000000000E+00 -0.10200299501E+03  0.10200299501E+03  0.00000000000E+00 0.  1.
         23    2    1    2    0    0 -0.17339955652E+02 -0.54085622372E+02  0.14946907779E+03  0.18562099619E+03  0.94277358902E+02 0.  0.
         23    2    1    2    0    0  0.28673395293E+02  0.32947748861E+02 -0.15617320427E+02  0.77507919913E+02  0.62095565053E+02 0.  0.
        -13    1    4    4    0    0  0.26045005684E+02 -0.31452275801E+01 -0.28833004384E+02  0.38981751108E+02  0.00000000000E+00 0.  1.
         13    1    4    4    0    0  0.26283896081E+01  0.36092976441E+02  0.13215683957E+02  0.38526168805E+02  0.00000000000E+00 0. -1.
        -13    1    3    3    0    0 -0.21747964540E+02 -0.80377386262E+02  0.10914056605E+03  0.13727767969E+03  0.00000000000E+00 0.  1.
         13    1    3    3    0    0  0.44080088879E+01  0.26291763889E+02  0.40328511746E+02  0.48343316502E+02  0.00000000000E+00 0. -1.
         -1    1    1    2    0  502 -0.11333439641E+02  0.21137873511E+02 -0.33515455732E+02  0.41213375543E+02  0.00000000000E+00 0.  1.
<scales pt_clust_5="13000.00000" pt_clust_6="13000.00000" pt_clust_7="13000.00000" pt_clust_8="13000.00000" pt_clust_9="23.98451"></scales>
<clustering>
<clus scale="   23.985">  2  9  1 -1</clus>
<clus scale="   62.096">  5  6 -1 -1</clus>
<clus scale="   81.224">  2  5  1 -1</clus>
<clus scale="   94.277">  7  8 -1 -1</clus>
<clus scale="   23.985">  2  5  1 -1</clus>
</clustering>
</event>
<event>
 9    1  0.1610296E-005  0.1052025E+03  0.7546771E-02  0.1270631E+00
         21   -1    0    0  501  502  0.00000000000E+00  0.00000000000E+00  0.45507350072E+02  0.45507350072E+02  0.00000000000E+00 0. -1.
         -1   -1    0    0    0  501 -0.00000000000E+00 -0.00000000000E+00 -0.60640882911E+03  0.60640882911E+03  0.00000000000E+00 0.  1.
         23    2    1    2    0    0 -0.23993784145E+02  0.51944047193E+02 -0.48594922830E+03  0.49731942912E+03  0.88916119898E+02 0.  0.
         23    2    1    2    0    0  0.20018900367E+02 -0.18914978553E+02 -0.32183869772E+02  0.10041323332E+03  0.91041107014E+02 0.  0.
        -13    1    3    3    0    0 -0.37954218370E+02  0.70779814487E+02 -0.41155446002E+03  0.41931775349E+03  0.00000000000E+00 0.  1.
         13    1    3    3    0    0  0.13960434224E+02 -0.18835767294E+02 -0.74394768279E+02  0.78001675627E+02  0.00000000000E+00 0. -1.
        -13    1    4    4    0    0  0.51775724290E+01  0.34344647532E+02 -0.28627862521E+02  0.45010183102E+02  0.00000000000E+00 0.  1.
         13    1    4    4    0    0  0.14841327938E+02 -0.53259626085E+02 -0.35560072504E+01  0.55403050216E+02  0.00000000000E+00 0. -1.
         -1    1    1    2    0  502  0.39748837780E+01 -0.33029068640E+02 -0.42768380969E+02  0.54183516746E+02  0.00000000000E+00 0.  1.
<scales pt_clust_5="13000.00000" pt_clust_6="13000.00000" pt_clust_7="13000.00000" pt_clust_8="13000.00000" pt_clust_9="33.26739"></scales>
<clustering>
<clus scale="   33.267">  1  9  2 -1</clus>
<clus scale="   88.916">  5  6 -1 -1</clus>
<clus scale="   91.041">  7  8 -1 -1</clus>
<clus scale="  103.369">  2  5  1 -1</clus>
<clus scale="   33.267">  1  5  2 -1</clus>
</clustering>
</event>
<event>
 9    1  0.1610296E-005  0.1102863E+03  0.7546771E-02  0.1262484E+00
         21   -1    0    0  501  502  0.00000000000E+00  0.00000000000E+00  0.13408730951E+03  0.13408730951E+03  0.00000000000E+00 0. -1.
          2   -1    0    0  502    0 -0.00000000000E+00 -0.00000000000E+00 -0.33220486426E+03  0.33220486426E+03  0.00000000000E+00 0. -1.
         23    2    1    2    0    0 -0.18833777190E+02  0.55135616332E+02 -0.20544067350E+03  0.23140550065E+03  0.89151489359E+02 0.  0.
         23    2    1    2    0    0 -0.60246295000E+02 -0.52577562091E+02  0.61796850329E+02  0.13882633327E+03  0.95183422935E+02 0.  0.
        -11    1    4    4    0    0 -0.18617357741E+02  0.17214234201E+02  0.50859058322E+02  0.56829391003E+02  0.00000000000E+00 0.  1.
         11    1    4    4    0    0 -0.41628937259E+02 -0.69791796291E+02  0.10937792007E+02  0.81996942265E+02  0.00000000000E+00 0. -1.
        -13    1    3    3    0    0 -0.40814116243E+02 -0.62537313451E+01 -0.80814603973E+02  0.90751867505E+02  0.00000000000E+00 0. -1.
         13    1    3    3    0    0  0.21980339053E+02  0.61389347677E+02 -0.12462606952E+03  0.14065363315E+03  0.00000000000E+00 0.  1.
          2    1    1    2  501    0  0.79080072190E+02 -0.25580542414E+01 -0.54473731578E+02  0.96060339845E+02  0.00000000000E+00 0. -1.
<scales pt_clust_5="13000.00000" pt_clust_6="13000.00000" pt_clust_7="13000.00000" pt_clust_8="13000.00000" pt_clust_9="79.12147"></scales>
<clustering>
<clus scale="   79.121">  1  9  2 -1</clus>
<clus scale="   89.151">  7  8 -1 -1</clus>
<clus scale="   95.183">  5  6 -1 -1</clus>
<clus scale="  105.125">  2  7  1 -1</clus>
<clus scale="   79.121">  1  5  2 -1</clus>
</clustering>
</event>
<event>
 9    1  0.1610296E-005  0.1082436E+03  0.7546771E-02  0.1265844E+00
         -2   -1    0    0    0  501 -0.00000000000E+00  0.00000000000E+00  0.34985070122E+03  0.34985070122E+03  0.00000000000E+00 0.  1.
         21   -1    0    0  501  502  0.00000000000E+00 -0.00000000000E+00 -0.52894424547E+03  0.52894424547E+03  0.00000000000E+00 0.  1.
         23    2    1    2    0    0 -0.82430835796E+01  0.55177565591E+02  0.21753489205E+03  0.24273108038E+03  0.92110997979E+02 0.  0.
         23    2    1    2    0    0  0.56553822653E+02 -0.15081785538E+02  0.90550441333E+02  0.14485631558E+03  0.96737658779E+02 0.  0.
        -11    1    4    4    0    0  0.45847975247E+02  0.37470528008E+02  0.52040078455E+02  0.78830495807E+02  0.00000000000E+00 0. -1.
         11    1    4    4    0    0  0.10705847406E+02 -0.52552313546E+02  0.38510362878E+02  0.66025819773E+02  0.00000000000E+00 0.  1.
        -13    1    3    3    0    0 -0.35572700045E+02  0.84233177961E+01  0.29266405496E+02  0.46828322219E+02  0.00000000000E+00 0. -1.
         13    1    3    3    0    0  0.27329616466E+02  0.46754247795E+02  0.18826848656E+03  0.19590275816E+03  0.00000000000E+00 0.  1.
         -2    1    1    2    0  502 -0.48310739074E+02 -0.40095780054E+02 -0.48717887763E+03  0.49120755073E+03  0.00000000000E+00 0.  1.
<scales pt_clust_5="13000.00000" pt_clust_6="13000.00000" pt_clust_7="13000.00000" pt_clust_8="13000.00000" pt_clust_9="62.78216"></scales>
<clustering>
<clus scale="   62.782">  2  9  1 -1</clus>
<clus scale="   92.111">  7  8 -1 -1</clus>
<clus scale="   96.738">  5  6 -1 -1</clus>
<clus scale="  104.129">  1  7  2 -1</clus>
<clus scale="   62.782">  2  5  1 -1</clus>
</clustering>
</event>
<event>
 9    1  0.1610296E-005  0.9531720E+02  0.7546771E-02  0.1313193E+00
         21   -1    0    0  501  502  0.00000000000E+00  0.00000000000E+00  0.65313119659E+02  0.65313119659E+02  0.00000000000E+00 0.  1.
         -2   -1    0    0    0  501 -0.00000000000E+00 -0.00000000000E+00 -0.31309061092E+03  0.31309061092E+03  0.00000000000E+00 0.  1.
         23    2    1    2    0    0  0.46445699845E+01  0.48120377899E+01 -0.17929845620E+03  0.18970587611E+03  0.61608889775E+02 0.  0.
         23    2    1    2    0    0 -0.77061807665E+01 -0.34398752342E+02 -0.10227043267E+03  0.14368001699E+03  0.94562394735E+02 0.  0.
        -11    1    4    4    0    0 -0.50476423823E+02 -0.27356146617E+02 -0.62259723621E+02  0.84690621116E+02  0.00000000000E+00 0.  1.
         11    1    4    4    0    0  0.42770243057E+02 -0.70426057243E+01 -0.40010709052E+02  0.58989395872E+02  0.00000000000E+00 0. -1.
        -13    1    3    3    0    0  0.17438405245E+02  0.29112453522E+02 -0.86133541415E+02  0.92577642464E+02  0.00000000000E+00 0. -1.
         13    1    3    3    0    0 -0.12793835261E+02 -0.24300415732E+02 -0.93164914781E+02  0.97128233648E+02  0.00000000000E+00 0.  1.
         -2    1    1    2    0  502  0.30616107819E+01  0.29586714552E+02  0.33791397610E+02  0.45017837476E+02  0.00000000000E+00 0.  1.
<scales pt_clust_5="13000.00000" pt_clust_6="13000.00000" pt_clust_7="13000.00000" pt_clust_8="13000.00000" pt_clust_9="29.74470"></scales>
<clustering>
<clus scale="   29.745">  1  9  2 -1</clus>
<clus scale="   61.609">  7  8 -1 -1</clus>
<clus scale="   62.761">  2  7  1 -1</clus>
<clus scale="   94.562">  5  6 -1 -1</clus>
<clus scale="   29.745">  1  5  2 -1</clus>
</clustering>
</event>
<event>
 9    1  0.1610296E-005  0.9818620E+02  0.7546771E-02  0.1285647E+00
         -1   -1    0    0    0  501 -0.00000000000E+00  0.00000000000E+00  0.60407435565E+02  0.60407435565E+02  0.00000000000E+00 0.  1.
         21   -1    0    0  501  502  0.00000000000E+00 -0.00000000000E+00 -0.30833153409E+03  0.30833153409E+03  0.00000000000E+00 0. -1.
         23    2    1    2    0    0  0.19374982138E+02 -0.12856630553E+02 -0.34443033244E+02  0.98774164876E+02  0.89606530041E+02 0.  0.
         23    2    1    2    0    0 -0.10243013200E+02  0.60990922716E+02 -0.11528700880E+03  0.16022704616E+03  0.92502972654E+02 0.  0.
        -11    1    4    4    0    0  0.25866984191E+02  0.88682345017E+01 -0.86258790663E+02  0.90489366341E+02  0.00000000000E+00 0.  1.
         11    1    4    4    0    0 -0.36109997390E+02  0.52122688214E+02 -0.29028218137E+02  0.69737679818E+02  0.00000000000E+00 0. -1.
        -13    1    3    3    0    0  0.21684174361E+02  0.28531420705E+02 -0.43483189927E+02  0.56347432873E+02  0.00000000000E+00 0. -1.
         13    1    3    3    0    0 -0.23091922235E+01 -0.41388051258E+02  0.90401566827E+01  0.42426732003E+02  0.00000000000E+00 0.  1.
         -1    1    1    2    0  502 -0.91319689381E+01 -0.48134292163E+02 -0.98194056485E+02  0.10973775862E+03  0.00000000000E+00 0.  1.
<scales pt_clust_5="13000.00000" pt_clust_6="13000.00000" pt_clust_7="13000.00000" pt_clust_8="13000.00000" pt_clust_9="48.99289"></scales>
<clustering>
<clus scale="   48.993">  2  9  1 -1</clus>
<clus scale="   89.607">  7  8 -1 -1</clus>
<clus scale="   92.503">  5  6 -1 -1</clus>
<clus scale="   95.462">  1  7  2 -1</clus>
<clus scale="   48.993">  2  5  1 -1</clus>
</clustering>
</event>
<event>
 9    1  0.1610296E-005  0.9936451E+02  0.7546771E-02  0.1285406E+00
         21   -1    0    0  501  502  0.00000000000E+00  0.00000000000E+00  0.10841803151E+03  0.10841803151E+03  0.00000000000E+00 0.  1.
          2   -1    0    0  502    0 -0.00000000000E+00 -0.00000000000E+00 -0.44547736432E+03  0.44547736432E+03  0.00000000000E+00 0. -1.
         23    2    1    2    0    0 -0.28311126945E+02 -0.53470923202E+01 -0.35423328686E+03  0.36573103094E+03  0.86300951151E+02 0.  0.
         23    2    1    2    0    0  0.69175036420E+02  0.42245067810E+02 -0.14476410953E+02  0.12465794555E+03  0.93595969445E+02 0.  0.
        -11    1    3    3    0    0  0.18306015829E+02 -0.24928006689E+02 -0.63470545940E+02  0.70604716096E+02  0.00000000000E+00 0.  1.
         11    1    3    3    0    0 -0.46617142774E+02  0.19580914369E+02 -0.29076274092E+03  0.29512631485E+03  0.00000000000E+00 0. -1.
        -13    1    4    4    0    0  0.45101959618E+02 -0.78750546012E+01 -0.42432619073E+02  0.62423796806E+02  0.00000000000E+00 0. -1.
         13    1    4    4    0    0  0.24073076802E+02  0.50120122411E+02  0.27956208120E+02  0.62234148742E+02  0.00000000000E+00 0.  1.
          2    1    1    2  501    0 -0.40863909475E+02 -0.36897975490E+02  0.31650365002E+02  0.63506419341E+02  0.00000000000E+00 0. -1.
<scales pt_clust_5="13000.00000" pt_clust_6="13000.00000" pt_clust_7="13000.00000" pt_clust_8="13000.00000" pt_clust_9="55.05742"></scales>
<clustering>
<clus scale="   55.057">  1  9  2 -1</clus>
<clus scale="   86.301">  5  6 -1 -1</clus>
<clus scale="   92.525">  2  5  1 -1</clus>
<clus scale="   93.596">  7  8 -1 -1</clus>
<clus scale="   55.057">  1  5  2 -1</clus>
</clustering>
</event>
<event>
 9    1  0.1610296E-005  0.1296377E+03  0.7546771E-02  0.1244323E+00
         21   -1    0    0  501  502  0.00000000000E+00  0.00000000000E+00  0.20231454549E+03  0.20231454549E+03  0.00000000000E+00 0. -1.
         -3   -1    0    0    0  501 -0.00000000000E+00 -0.00000000000E+00 -0.11310984697E+03  0.11310984697E+03  0.00000000000E+00 0.  1.
         23    2    1    2    0    0  0.39885470652E+02 -0.94378698002E+01  0.96496474263E-01  0.98445264174E+02  0.89507187261E+02 0.  0.
         23    2    1    2    0    0  0.13193411098E+02  0.24321349498E+02  0.25327682752E+02  0.13267705063E+03  0.12726395449E+03 0.  0.
        -11    1    4    4    0    0 -0.32719533625E+02 -0.33502415195E+02  0.34651907699E+02  0.58255767197E+02  0.00000000000E+00 0.  1.
         11    1    4    4    0    0  0.45912944723E+02  0.57823764692E+02 -0.93242249467E+01  0.74421283429E+02  0.00000000000E+00 0. -1.
        -13    1    3    3    0    0 -0.17898917502E+01  0.35682863593E+02  0.77177719138E+01  0.36551805290E+02  0.00000000000E+00 0. -1.
         13    1    3    3    0    0  0.41675362402E+02 -0.45120733393E+02 -0.76212754395E+01  0.61893458884E+02  0.00000000000E+00 0.  1.
         -3    1    1    2    0  502 -0.53078881750E+02 -0.14883479697E+02  0.63780519294E+02  0.84302077657E+02  0.00000000000E+00 0.  1.
<scales pt_clust_5="13000.00000" pt_clust_6="13000.00000" pt_clust_7="13000.00000" pt_clust_8="13000.00000" pt_clust_9="55.12609"></scales>
<clustering>
<clus scale="   55.126">  1  9  2 -1</clus>
<clus scale="   89.507">  7  8 -1 -1</clus>
<clus scale="   92.851">  2  7  1 -1</clus>
<clus scale="  127.264">  5  6 -1 -1</clus>
<clus scale="   55.126">  1  5  2 -1</clus>
</clustering>
</event>
<event>
 9    1  0.1610296E-005  0.1044584E+03  0.7546771E-02  0.1272116E+00
          1   -1    0    0  502    0 -0.00000000000E+00  0.00000000000E+00  0.49255647350E+03  0.49255647350E+03  0.00000000000E+00 0. -1.
         21   -1    0    0  501  502  0.00000000000E+00 -0.00000000000E+00 -0.22227106070E+03  0.22227106070E+03  0.00000000000E+00 0. -1.
         23    2    1    2    0    0  0.54878622503E+02  0.32560606361E+02  0.28317427053E+03  0.30389638312E+03  0.89963814314E+02 0.  0.
         23    2    1    2    0    0 -0.36409089561E+02  0.26487383705E+01  0.18459474338E+03  0.20948489445E+03  0.92065542421E+02 0.  0.
        -11    1    3    3    0    0  0.77216526172E+02  0.24966079293E+02  0.25235741862E+03  0.26508482371E+03  0.00000000000E+00 0.  1.
         11    1    3    3    0    0 -0.22337903669E+02  0.75945270679E+01  0.30816851910E+02  0.38811559404E+02  0.00000000000E+00 0. -1.
        -13    1    4    4    0    0 -0.48202295701E+02  0.25082580271E+02  0.17351481733E+03  0.18182406050E+03  0.00000000000E+00 0. -1.
         13    1    4    4    0    0  0.11793206140E+02 -0.22433841900E+02  0.11079926050E+02  0.27660833949E+02  0.00000000000E+00 0.  1.
          1    1    1    2  501    0 -0.18469532942E+02 -0.35209344731E+02 -0.19748360111E+03  0.20144625663E+03  0.00000000000E+00 0. -1.
<scales pt_clust_5="13000.00000" pt_clust_6="13000.00000" pt_clust_7="13000.00000" pt_clust_8="13000.00000" pt_clust_9="39.75955"></scales>
<clustering>
<clus scale="   39.760">  2  9  1 -1</clus>
<clus scale="   89.964">  5  6 -1 -1</clus>
<clus scale="   92.066">  7  8 -1 -1</clus>
<clus scale="  102.611">  1  5  2 -1</clus>
<clus scale="   39.760">  2  5  1 -1</clus>
</clustering>
</event>
<event>
 9    1  0.1610296E-005  0.1468699E+03  0.7546771E-02  0.1205525E+00
         21   -1    0    0  501  502  0.00000000000E+00  0.00000000000E+00  0.70918231774E+02  0.70918231774E+02  0.00000000000E+00 0. -1.
          3   -1    0    0  502    0 -0.00000000000E+00 -0.00000000000E+00 -0.11286586478E+04  0.11286586478E+04  0.00000000000E+00 0. -1.
         23    2    1    2    0    0  0.49312616126E+02 -0.90675325442E+02 -0.54011490373E+03  0.55657765495E+03  0.86028065233E+02 0.  0.
         23    2    1    2    0    0 -0.18309315846E+03  0.97389403630E+02 -0.21714153013E+03  0.31401148033E+03  0.91896491004E+02 0.  0.
        -11    1    4    4    0    0 -0.16477641511E+03  0.55471149008E+02 -0.13550292784E+03  0.22042994080E+03  0.00000000000E+00 0. -1.
         11    1    4    4    0    0 -0.18316743354E+02  0.41918254621E+02 -0.81638602285E+02  0.93581539529E+02  0.00000000000E+00 0.  1.
        -13    1    3    3    0    0 -0.11661184702E+02 -0.61581958431E+02 -0.32898230004E+03  0.33489949921E+03  0.00000000000E+00 0. -1.
         13    1    3    3    0    0  0.60973800828E+02 -0.29093367011E+02 -0.21113260369E+03  0.22167815574E+03  0.00000000000E+00 0.  1.
          3    1    1    2  501    0  0.13378054234E+03 -0.67140781879E+01 -0.30048398217E+03  0.32898774429E+03  0.00000000000E+00 0. -1.
<scales pt_clust_5="13000.00000" pt_clust_6="13000.00000" pt_clust_7="13000.00000" pt_clust_8="13000.00000" pt_clust_9="133.94898"></scales>
<clustering>
<clus scale="   86.028">  7  8 -1 -1</clus>
<clus scale="   91.896">  5  6 -1 -1</clus>
<clus scale="  133.949">  1  9  2 -1</clus>
<clus scale="  143.271">  2  7  1 -1</clus>
<clus scale="  133.949">  1  5  2 -1</clus>
</clustering>
</event>
<event>
 9    1  0.1610296E-005  0.1178351E+03  0.7546771E-02  0.1247358E+00
         21   -1    0    0  501  502  0.00000000000E+00  0.00000000000E+00  0.25909466364E+03  0.25909466364E+03  0.00000000000E+00 0.  1.
          3   -1    0    0  502    0 -0.00000000000E+00 -0.00000000000E+00 -0.11197411451E+03  0.11197411451E+03  0.00000000000E+00 0. -1.
         23    2    1    2    0    0 -0.37912573428E+02 -0.21960756715E+02  0.24976072282E+02  0.10393284575E+03  0.90876807713E+02 0.  0.
         23    2    1    2    0    0  0.89118778627E+02  0.82286676743E+02  0.51854572386E+02  0.16129660725E+03  0.92814034276E+02 0.  0.
        -11    1    4    4    0    0  0.65855225996E+02 -0.10331234467E+01  0.16916262167E+02  0.68001015145E+02  0.00000000000E+00 0. -1.
         11    1    4    4    0    0  0.23263552631E+02  0.83319800190E+02  0.34938310219E+02  0.93295592102E+02  0.00000000000E+00 0.  1.
        -13    1    3    3    0    0 -0.27710129934E+02 -0.50413756639E+02 -0.92541845667E+01  0.58266955398E+02  0.00000000000E+00 0. -1.
         13    1    3    3    0    0 -0.10202443494E+02  0.28452999924E+02  0.34230256849E+02  0.45665890354E+02  0.00000000000E+00 0.  1.
          3    1    1    2  501    0 -0.51206205199E+02 -0.60325920028E+02  0.70289904468E+02  0.10583932515E+03  0.00000000000E+00 0. -1.
<scales pt_clust_5="13000.00000" pt_clust_6="13000.00000" pt_clust_7="13000.00000" pt_clust_8="13000.00000" pt_clust_9="79.12833"></scales>
<clustering>
<clus scale="   79.128">  1  9  2 -1</clus>
<clus scale="   90.877">  7  8 -1 -1</clus>
<clus scale="   92.814">  5  6 -1 -1</clus>
<clus scale="  116.315">  2  7  1 -1</clus>
<clus scale="   79.128">  1  5  2 -1</clus>
</clustering>
</event>
<event>
 9    1  0.1610296E-005  0.9843862E+02  0.7546771E-02  0.1300944E+00
          2   -1    0    0  502    0 -0.00000000000E+00  0.00000000000E+00  0.63212168901E+03  0.63212168901E+03  0.00000000000E+00 0. -1.
         21   -1    0    0  501  502  0.00000000000E+00 -0.00000000000E+00 -0.21712722778E+02  0.21712722778E+02  0.00000000000E+00 0. -1.
         23    2    1    2    0    0  0.78292937927E+01 -0.78926902468E+01  0.26607952222E+03  0.28156646146E+03  0.91420827364E+02 0.  0.
         23    2    1    2    0    0 -0.35579955495E+02  0.41890686342E+02  0.29497395492E+03  0.30622306205E+03  0.61173252458E+02 0.  0.
        -13    1    3    3    0    0  0.43613478308E+02 -0.19030031214E+02  0.20015733402E+03  0.20573584019E+03  0.00000000000E+00 0.  1.
         13    1    3    3    0    0 -0.35784184515E+02  0.11137340968E+02  0.65922188203E+02  0.75830621273E+02  0.00000000000E+00 0. -1.
        -13    1    4    4    0    0  0.72703331510E+01  0.30735923601E+02  0.68087830127E+02  0.75056694272E+02  0.00000000000E+00 0.  1.
         13    1    4    4    0    0 -0.42850288646E+02  0.11154762741E+02  0.22688612479E+03  0.23116636778E+03  0.00000000000E+00 0. -1.
          2    1    1    2  501    0  0.27750661702E+02 -0.33997996095E+02  0.49355489090E+02  0.66044888271E+02  0.00000000000E+00 0. -1.
<scales pt_clust_5="13000.00000" pt_clust_6="13000.00000" pt_clust_7="13000.00000" pt_clust_8="13000.00000" pt_clust_9="43.88579"></scales>
<clustering>
<clus scale="   43.886">  2  9  1 -1</clus>
<clus scale="   61.173">  7  8 -1 -1</clus>
<clus scale="   71.236">  2  7  1 -1</clus>
<clus scale="   91.421">  5  6 -1 -1</clus>
<clus scale="   43.886">  2  5  1 -1</clus>
</clustering>
</event>
<event>
 9    1  0.1610296E-005  0.2082661E+03  0.7546771E-02  0.1143062E+00
         21   -1    0    0  501  502  0.00000000000E+00  0.00000000000E+00  0.54326854394E+02  0.54326854394E+02  0.00000000000E+00 0. -1.
          1   -1    0    0  502    0 -0.00000000000E+00 -0.00000000000E+00 -0.14555297267E+04  0.14555297267E+04  0.00000000000E+00 0. -1.
         23    2    1    2    0    0  0.85474174643E+02  0.15513933763E+03 -0.79600085573E+03  0.82048241753E+03  0.90553777072E+02 0.  0.
         23    2    1    2    0    0 -0.69560946450E+02 -0.19209926183E+03 -0.60906070790E+03  0.64894946408E+03  0.91867346530E+02 0.  0.
        -11    1    4    4    0    0  0.82744156140E+01 -0.10875319418E+03 -0.26869528420E+03  0.28998772206E+03  0.00000000000E+00 0. -1.
         11    1    4    4    0    0 -0.77835362064E+02 -0.83346067647E+02 -0.34036542370E+03  0.35896174202E+03  0.00000000000E+00 0.  1.
        -11    1    3    3    0    0  0.83288594645E+02  0.10843426145E+03 -0.70539013884E+03  0.71851946879E+03  0.00000000000E+00 0. -1.
         11    1    3    3    0    0  0.21855799981E+01  0.46705076181E+02 -0.90610716889E+02  0.10196294874E+03  0.00000000000E+00 0.  1.
          1    1    1    2  501    0 -0.15913228194E+02  0.36959924192E+02  0.38586913434E+01  0.40424699464E+02  0.00000000000E+00 0. -1.
<scales pt_clust_5="13000.00000" pt_clust_6="13000.00000" pt_clust_7="13000.00000" pt_clust_8="13000.00000" pt_clust_9="40.24011"></scales>
<clustering>
<clus scale="   40.240">  1  9  2 -1</clus>
<clus scale="   90.554">  7  8 -1 -1</clus>
<clus scale="   91.867">  5  6 -1 -1</clus>
<clus scale="  207.690">  2  7  1 -1</clus>
<clus scale="   40.240">  1  5  2 -1</clus>
</clustering>
</event>
<event>
 9    1  0.1610296E-005  0.9617949E+02  0.7546771E-02  0.1289643E+00
         -2   -1    0    0    0  501 -0.00000000000E+00  0.00000000000E+00  0.59691592687E+03  0.59691592687E+03  0.00000000000E+00 0. -1.
         21   -1    0    0  501  502  0.00000000000E+00 -0.00000000000E+00 -0.22661218993E+02  0.22661218993E+02  0.00000000000E+00 0.  1.
         23    2    1    2    0    0 -0.24430996988E+02  0.30670816695E+01  0.34541423687E+03  0.35855138231E+03  0.92961379715E+02 0.  0.
         23    2    1    2    0    0 -0.48122756095E+01 -0.91964117252E+01  0.16841798603E+03  0.19361942580E+03  0.94953315070E+02 0.  0.
        -11    1    3    3    0    0 -0.18624776203E+02  0.47671886490E+02  0.18565708907E+03  0.19258256872E+03  0.00000000000E+00 0.  1.
         11    1    3    3    0    0 -0.58062207848E+01 -0.44604804821E+02  0.15975714780E+03  0.16596881360E+03  0.00000000000E+00 0. -1.
        -13    1    4    4    0    0 -0.40428867426E+02  0.14434337024E+02  0.12716740881E+03  0.13421770848E+03  0.00000000000E+00 0. -1.
         13    1    4    4    0    0  0.35616591816E+02 -0.23630748749E+02  0.41250577217E+02  0.59401717314E+02  0.00000000000E+00 0.  1.
         -2    1    1    2    0  502  0.29243272597E+02  0.61293300558E+01  0.60422484979E+02  0.67406337760E+02  0.00000000000E+00 0. -1.
<scales pt_clust_5="13000.00000" pt_clust_6="13000.00000" pt_clust_7="13000.00000" pt_clust_8="13000.00000" pt_clust_9="29.87872"></scales>
<clustering>
<clus scale="   29.879">  2  9  1 -1</clus>
<clus scale="   92.961">  5  6 -1 -1</clus>
<clus scale="   94.213">  1  5  2 -1</clus>
<clus scale="   94.953">  7  8 -1 -1</clus>
<clus scale="   29.879">  2  5  1 -1</clus>
</clustering>
</event>
<event>
 9    1  0.1610296E-005  0.1240556E+03  0.7546771E-02  0.1237743E+00
         21   -1    0    0  501  502  0.00000000000E+00  0.00000000000E+00  0.10218746222E+03  0.10218746222E+03  0.00000000000E+00 0.  1.
          2   -1    0    0  502    0 -0.00000000000E+00 -0.00000000000E+00 -0.18333656388E+03  0.18333656388E+03  0.00000000000E+00 0. -1.
         23    2    1    2    0    0 -0.30915961524E+02  0.77655686233E+02 -0.55089401305E+02  0.13190705924E+03  0.85897775639E+02 0.  0.
         23    2    1    2    0    0  0.53507801344E+02 -0.71555613390E+02 -0.28730507300E+02  0.13006414697E+03  0.90044153978E+02 0.  0.
        -13    1    4    4    0    0  0.77671766368E+02 -0.51761286133E+02 -0.10578165458E+02  0.93936316818E+02  0.00000000000E+00 0.  1.
         13    1    4    4    0    0 -0.24163965025E+02 -0.19794327257E+02 -0.18152341843E+02  0.36127830154E+02  0.00000000000E+00 0. -1.
        -13    1    3    3    0    0 -0.37581924594E+02 -0.73453763567E+00 -0.33342458233E+01  0.37736690329E+02  0.00000000000E+00 0.  1.
         13    1    3    3    0    0  0.66659630698E+01  0.78390223869E+02 -0.51755155482E+02  0.94170368911E+02  0.00000000000E+00 0. -1.
          2    1    1    2  501    0 -0.22591839819E+02 -0.61000728434E+01  0.26708069403E+01  0.23552819891E+02  0.00000000000E+00 0. -1.
<scales pt_clust_5="13000.00000" pt_clust_6="13000.00000" pt_clust_7="13000.00000" pt_clust_8="13000.00000" pt_clust_9="23.40090"></scales>
<clustering>
<clus scale="   23.401">  1  9  2 -1</clus>
<clus scale="   85.898">  7  8 -1 -1</clus>
<clus scale="   90.044">  5  6 -1 -1</clus>
<clus scale="  121.080">  2  7  1 -1</clus>
<clus scale="   23.401">  1  5  2 -1</clus>
</clustering>
</event>
<event>
 9    1  0.1610296E-005  0.9391687E+02  0.7546771E-02  0.1298825E+00
          1   -1    0    0  502    0 -0.00000000000E+00  0.00000000000E+00  0.40087367050E+03  0.40087367050E+03  0.00000000000E+00 0. -1.
         21   -1    0    0  501  502  0.00000000000E+00 -0.00000000000E+00 -0.37256347333E+02  0.37256347333E+02  0.00000000000E+00 0. -1.
         23    2    1    2    0    0 -0.41644592711E+02 -0.80677182456E+01  0.16871962443E+03  0.19251501260E+03  0.82440028067E+02 0.  0.
         23    2    1    2    0    0 -0.10884264211E+02  0.18896914615E+02  0.14235334425E+03  0.17053197459E+03  0.91329727618E+02 0.  0.
        -11    1    3    3    0    0 -0.22181216317E+01 -0.34066299418E+02  0.11959095287E+03  0.12436811822E+03  0.00000000000E+00 0.  1.
         11    1    3    3    0    0 -0.39426471079E+02  0.25998581172E+02  0.49128671555E+02  0.68146894379E+02  0.00000000000E+00 0. -1.
        -13    1    4    4    0    0 -0.46070883866E+02  0.28268802795E+02  0.10649268317E+03  0.11942505231E+03  0.00000000000E+00 0. -1.
         13    1    4    4    0    0  0.35186619655E+02 -0.93718881793E+01  0.35860661085E+02  0.51106922273E+02  0.00000000000E+00 0.  1.
          1    1    1    2  501    0  0.52528856922E+02 -0.10829196370E+02  0.52544354484E+02  0.75083030650E+02  0.00000000000E+00 0. -1.
<scales pt_clust_5="13000.00000" pt_clust_6="13000.00000" pt_clust_7="13000.00000" pt_clust_8="13000.00000" pt_clust_9="53.63350"></scales>
<clustering>
<clus scale="   53.633">  2  9  1 -1</clus>
<clus scale="   82.440">  5  6 -1 -1</clus>
<clus scale="   85.297">  1  5  2 -1</clus>
<clus scale="   91.330">  7  8 -1 -1</clus>
<clus scale="   53.633">  2  5  1 -1</clus>
</clustering>
</event>
<event>
 9    1  0.1610296E-005  0.9377059E+02  0.7546771E-02  0.1295421E+00
         -2   -1    0    0    0  501 -0.00000000000E+00  0.00000000000E+00  0.39429503842E+03  0.39429503842E+03  0.00000000000E+00 0.  1.
         21   -1    0    0  501  502  0.00000000000E+00 -0.00000000000E+00 -0.52326269346E+02  0.52326269346E+02  0.00000000000E+00 0.  1.
         23    2    1    2    0    0  0.13044075490E+02 -0.37509585892E+01  0.22923109087E+03  0.24785139992E+03  0.93269533209E+02 0.  0.
         23    2    1    2    0    0  0.17671796762E+02 -0.35573313886E+02  0.11108341027E+03  0.14884396452E+03  0.90759289752E+02 0.  0.
        -13    1    3    3    0    0  0.31990957718E+02 -0.34929776871E+02  0.70173086514E+02  0.84662699927E+02  0.00000000000E+00 0.  1.
         13    1    3    3    0    0 -0.18946882228E+02  0.31178818282E+02  0.15905800436E+03  0.16318869999E+03  0.00000000000E+00 0. -1.
        -13    1    4    4    0    0  0.26219244743E+02  0.24638767454E+02  0.26584939981E+02  0.44735631104E+02  0.00000000000E+00 0.  1.
         13    1    4    4    0    0 -0.85474479802E+01 -0.60212081340E+02  0.84498470289E+02  0.10410833342E+03  0.00000000000E+00 0. -1.
         -2    1    1    2    0  502 -0.30715872252E+02  0.39324272475E+02  0.16542679314E+01  0.49925943319E+02  0.00000000000E+00 0.  1.
<scales pt_clust_5="13000.00000" pt_clust_6="13000.00000" pt_clust_7="13000.00000" pt_clust_8="13000.00000" pt_clust_9="49.89853"></scales>
<clustering>
<clus scale="   49.899">  2  9  1 -1</clus>
<clus scale="   90.759">  7  8 -1 -1</clus>
<clus scale="   91.274">  2  7  1 -1</clus>
<clus scale="   93.270">  5  6 -1 -1</clus>
<clus scale="   49.899">  2  5  1 -1</clus>
</clustering>
</event>
<event>
 9    1  0.1610296E-005  0.1028691E+03  0.7546771E-02  0.1274807E+00
         21   -1    0    0  501  502  0.00000000000E+00  0.00000000000E+00  0.40761542887E+02  0.40761542887E+02  0.00000000000E+00 0. -1.
          3   -1    0    0  502    0 -0.00000000000E+00 -0.00000000000E+00 -0.49154007401E+03  0.49154007401E+03  0.00000000000E+00 0. -1.
         23    2    1    2    0    0  0.14443174879E+02 -0.46108439923E+02 -0.35923488114E+03  0.37326759605E+03  0.89131391200E+02 0.  0.
         23    2    1    2    0    0 -0.37174790664E+02  0.44803195388E+02 -0.75916982874E+02  0.13141839584E+03  0.90100583236E+02 0.  0.
        -11    1    3    3    0    0  0.20619684317E+02  0.22632479196E+02 -0.14471920469E+03  0.14792244151E+03  0.00000000000E+00 0.  1.
         11    1    3    3    0    0 -0.61765094383E+01 -0.68740919120E+02 -0.21451567645E+03  0.22534515454E+03  0.00000000000E+00 0. -1.
        -13    1    4    4    0    0  0.30026137385E+02  0.17153465393E+02 -0.25817022128E+02  0.43154709278E+02  0.00000000000E+00 0.  1.
         13    1    4    4    0    0 -0.67200928050E+02  0.27649729996E+02 -0.50099960746E+02  0.88263686566E+02  0.00000000000E+00 0. -1.
          3    1    1    2  501    0  0.22731615785E+02  0.13052445346E+01 -0.15626667105E+02  0.27615625003E+02  0.00000000000E+00 0. -1.
<scales pt_clust_5="13000.00000" pt_clust_6="13000.00000" pt_clust_7="13000.00000" pt_clust_8="13000.00000" pt_clust_9="22.76906"></scales>
<clustering>
<clus scale="   22.769">  1  9  2 -1</clus>
<clus scale="   89.131">  5  6 -1 -1</clus>
<clus scale="   90.101">  7  8 -1 -1</clus>
<clus scale="  102.021">  2  5  1 -1</clus>
<clus scale="   22.769">  1  5  2 -1</clus>
</clustering>
</event>
<event>
 9    1  0.1610296E-005  0.1014139E+03  0.7546771E-02  0.1277662E+00
         21   -1    0    0  501  502  0.00000000000E+00  0.00000000000E+00  0.88476249865E+02  0.88476249865E+02  0.00000000000E+00 0. -1.
          3   -1    0    0  502    0 -0.00000000000E+00 -0.00000000000E+00 -0.57500428029E+03  0.57500428029E+03  0.00000000000E+00 0. -1.
         23    2    1    2    0    0  0.46356199326E+02 -0.26253720443E+02 -0.41583186104E+03  0.42914356588E+03  0.91705552843E+02 0.  0.
         23    2    1    2    0    0 -0.23537383742E+01  0.30740658176E+02 -0.12917655956E+03  0.16101367183E+03  0.91040050678E+02 0.  0.
        -11    1    3    3    0    0  0.18976950750E+02  0.31984590789E+02 -0.21679489814E+03  0.21996173887E+03  0.00000000000E+00 0. -1.
         11    1    3    3    0    0  0.27379248576E+02 -0.58238311233E+02 -0.19903696290E+03  0.20918182700E+03  0.00000000000E+00 0.  1.
        -13    1    4    4    0    0 -0.14474896280E+02 -0.26772535463E+02 -0.18277417279E+02  0.35501482502E+02  0.00000000000E+00 0.  1.
         13    1    4    4    0    0  0.12121157906E+02  0.57513193640E+02 -0.11089914228E+03  0.12551218933E+03  0.00000000000E+00 0. -1.
          3    1    1    2  501    0 -0.44002460952E+02 -0.44869377330E+01  0.58480390177E+02  0.73323292447E+02  0.00000000000E+00 0. -1.
<scales pt_clust_5="13000.00000" pt_clust_6="13000.00000" pt_clust_7="13000.00000" pt_clust_8="13000.00000" pt_clust_9="44.23064"></scales>
<clustering>
<clus scale="   44.231">  1  9  2 -1</clus>
<clus scale="   91.040">  7  8 -1 -1</clus>
<clus scale="   91.706">  5  6 -1 -1</clus>
<clus scale="  100.812">  1  7  2 -1</clus>
<clus scale="   44.231">  1  5  2 -1</clus>
</clustering>
</event>
<event>
 9    1  0.1610296E-005  0.1382726E+03  0.7546771E-02  0.1228122E+00
         21   -1    0    0  501  502  0.00000000000E+00  0.00000000000E+00  0.58795614618E+02  0.58795614618E+02  0.00000000000E+00 0.  1.
         -2   -1    0    0    0  501 -0.00000000000E+00 -0.00000000000E+00 -0.70663998554E+03  0.70663998554E+03  0.00000000000E+00 0.  1.
         23    2    1    2    0    0  0.38871014620E+02 -0.34181730655E+02 -0.26294066066E+03  0.28371020243E+03  0.93136144668E+02 0.  0.
         23    2    1    2    0    0 -0.48965114206E+02 -0.87481956582E+02 -0.89497943602E+02  0.16208730455E+03  0.90618636331E+02 0.  0.
        -13    1    4    4    0    0 -0.85655159846E+01 -0.53325143493E+02  0.45298030350E+01  0.54198322005E+02  0.00000000000E+00 0.  1.
         13    1    4    4    0    0 -0.40399598221E+02 -0.34156813089E+02 -0.94027746637E+02  0.10788898254E+03  0.00000000000E+00 0. -1.
        -13    1    3    3    0    0  0.40681629067E+02  0.24733610011E+02 -0.11723630523E+03  0.12653496620E+03  0.00000000000E+00 0.  1.
         13    1    3    3    0    0 -0.18106144472E+01 -0.58915340667E+02 -0.14570435543E+03  0.15717523622E+03  0.00000000000E+00 0. -1.
         -2    1    1    2    0  502  0.10094099586E+02  0.12166368724E+03 -0.29540576666E+03  0.31963809319E+03  0.00000000000E+00 0.  1.
<scales pt_clust_5="13000.00000" pt_clust_6="13000.00000" pt_clust_7="13000.00000" pt_clust_8="13000.00000" pt_clust_9="104.43939"></scales>
<clustering>
<clus scale="   90.619">  5  6 -1 -1</clus>
<clus scale="   93.136">  7  8 -1 -1</clus>
<clus scale="  106.554">  2  7  1 -1</clus>
<clus scale="  104.439">  1  9  2 -1</clus>
<clus scale="  104.439">  1  5  2 -1</clus>
</clustering>
</event>
<event>
 9    1  0.1610296E-005  0.2372702E+03  0.7546771E-02  0.1121654E+00
          1   -1    0    0  502    0 -0.00000000000E+00  0.00000000000E+00  0.15374028840E+04  0.15374028840E+04  0.00000000000E+00 0. -1.
         21   -1    0    0  501  502  0.00000000000E+00 -0.00000000000E+00 -0.89831129946E+02  0.89831129946E+02  0.00000000000E+00 0. -1.
         23    2    1    2    0    0  0.14953971174E+03  0.14365705901E+03  0.83995942982E+03  0.86995507679E+03  0.91052270201E+02 0.  0.
         23    2    1    2    0    0 -0.13654389656E+03 -0.19939140804E+03  0.64101124705E+03  0.69101660302E+03  0.90594467379E+02 0.  0.
        -13    1    3    3    0    0  0.59740577452E+02  0.75713787976E+02  0.22543558705E+03  0.24519934379E+03  0.00000000000E+00 0. -1.
         13    1    3    3    0    0  0.89799134291E+02  0.67943271031E+02  0.61452384276E+03  0.62475573300E+03  0.00000000000E+00 0.  1.
        -13    1    4    4    0    0 -0.15051890321E+02 -0.93768620280E+02  0.28203634669E+03  0.29759639515E+03  0.00000000000E+00 0.  1.
         13    1    4    4    0    0 -0.12149200624E+03 -0.10562278776E+03  0.35897490036E+03  0.39342020787E+03  0.00000000000E+00 0. -1.
          1    1    1    2  501    0 -0.12995815179E+02  0.55734349038E+02 -0.33398922834E+02  0.66262334107E+02  0.00000000000E+00 0. -1.
<scales pt_clust_5="13000.00000" pt_clust_6="13000.00000" pt_clust_7="13000.00000" pt_clust_8="13000.00000" pt_clust_9="57.22944"></scales>
<clustering>
<clus scale="   57.229">  2  9  1 -1</clus>
<clus scale="   90.594">  7  8 -1 -1</clus>
<clus scale="   91.052">  5  6 -1 -1</clus>
<clus scale="  237.095">  2  7  1 -1</clus>
<clus scale="   57.229">  2  5  1 -1</clus>
</clustering>
</event>
<event>
 9    1  0.1610296E-005  0.1038857E+03  0.7546771E-02  0.1276835E+00
         21   -1    0    0  501  502  0.00000000000E+00  0.00000000000E+00  0.21027687489E+03  0.21027687489E+03  0.00000000000E+00 0. -1.
          1   -1    0    0  502    0 -0.00000000000E+00 -0.00000000000E+00 -0.21924474573E+03  0.21924474573E+03  0.00000000000E+00 0. -1.
         23    2    1    2    0    0  0.17723967143E+02 -0.28890897355E+02 -0.82409969918E+02  0.12677567252E+03  0.90176743344E+02 0.  0.
         23    2    1    2    0    0 -0.34361830546E+02  0.63569094738E+02 -0.86476502386E+02  0.13826690698E+03  0.80111090964E+02 0.  0.
        -11    1    3    3    0    0  0.20424829966E+02  0.26422405501E+02 -0.85740890644E+01  0.34479445977E+02  0.00000000000E+00 0. -1.
         11    1    3    3    0    0 -0.27008628234E+01 -0.55313302856E+02 -0.73835880854E+02  0.92296226544E+02  0.00000000000E+00 0.  1.
        -13    1    4    4    0    0  0.50418260995E+01  0.67005290892E+02 -0.44515225692E+02  0.80602322152E+02  0.00000000000E+00 0. -1.
         13    1    4    4    0    0 -0.39403656645E+02 -0.34361961544E+01 -0.41961276695E+02  0.57664584823E+02  0.00000000000E+00 0.  1.
          1    1    1    2  501    0  0.16637863403E+02 -0.34678197383E+02  0.15991860146E+03  0.16447904112E+03  0.00000000000E+00 0. -1.
<scales pt_clust_5="13000.00000" pt_clust_6="13000.00000" pt_clust_7="13000.00000" pt_clust_8="13000.00000" pt_clust_9="38.46292"></scales>
<clustering>
<clus scale="   38.463">  1  9  2 -1</clus>
<clus scale="   80.111">  7  8 -1 -1</clus>
<clus scale="   90.177">  5  6 -1 -1</clus>
<clus scale="   95.280">  1  7  2 -1</clus>
<clus scale="   38.463">  1  5  2 -1</clus>
</clustering>
</event>
<event>
 9    1  0.1610296E-005  0.1253538E+03  0.7546771E-02  0.1234916E+00
         -1   -1    0    0    0  501 -0.00000000000E+00  0.00000000000E+00  0.12775734097E+03  0.12775734097E+03  0.00000000000E+00 0.  1.
         21   -1    0    0  501  502  0.00000000000E+00 -0.00000000000E+00 -0.27860155199E+03  0.27860155199E+03  0.00000000000E+00 0. -1.
         23    2    1    2    0    0 -0.27969578344E+02 -0.84239511891E+02  0.62600139858E+02  0.14168597027E+03  0.90981008921E+02 0.  0.
         23    2    1    2    0    0 -0.44909779342E+01  0.68230148047E+02 -0.18830778505E+03  0.22060667272E+03  0.92368610201E+02 0.  0.
        -11    1    3    3    0    0  0.54827476726E+01 -0.59820155929E+02  0.77158180446E+02  0.97784949696E+02  0.00000000000E+00 0.  1.
         11    1    3    3    0    0 -0.33452326016E+02 -0.24419355962E+02 -0.14558040588E+02  0.43901020572E+02  0.00000000000E+00 0. -1.
        -11    1    4    4    0    0 -0.46635704709E+02  0.45662569101E+02 -0.12770658662E+03  0.14341872764E+03  0.00000000000E+00 0. -1.
         11    1    4    4    0    0  0.42144726774E+02  0.22567578946E+02 -0.60601198435E+02  0.77187945083E+02  0.00000000000E+00 0.  1.
         -1    1    1    2    0  502  0.32460556278E+02  0.16009363844E+02 -0.25136565824E+02  0.44066249965E+02  0.00000000000E+00 0.  1.
<scales pt_clust_5="13000.00000" pt_clust_6="13000.00000" pt_clust_7="13000.00000" pt_clust_8="13000.00000" pt_clust_9="36.19375"></scales>
<clustering>
<clus scale="   36.194">  2  9  1 -1</clus>
<clus scale="   90.981">  5  6 -1 -1</clus>
<clus scale="   92.369">  7  8 -1 -1</clus>
<clus scale="  124.335">  1  5  2 -1</clus>
<clus scale="   36.194">  2  5  1 -1</clus>
</clustering>
</event>
<event>
 9    1  0.2070399E-005  0.9497830E+02  0.7546771E-02  0.1292439E+00
          1   -1    0    0  502    0 -0.00000000000E+00  0.00000000000E+00  0.19336456773E+03  0.19336456773E+03  0.00000000000E+00 0. -1.
         21   -1    0    0  501  502  0.00000000000E+00 -0.00000000000E+00 -0.27139636749E+03  0.27139636749E+03  0.00000000000E+00 0.  1.
         23    2    1    2    0    0  0.20365129831E+02 -0.32877263577E+01  0.16369317433E+03  0.18928340820E+03  0.92775027032E+02 0.  0.
         23    2    1    2    0    0 -0.13029224047E+02  0.22131988388E+02 -0.12229215089E+03  0.15434486842E+03  0.90594606058E+02 0.  0.
        -11    1    4    4    0    0 -0.92079693776E+01 -0.21884457909E+02 -0.10374606638E+03  0.10642820344E+03  0.00000000000E+00 0.  1.
         11    1    4    4    0    0 -0.38212546694E+01  0.44016446297E+02 -0.18546084517E+02  0.47916664980E+02  0.00000000000E+00 0. -1.
        -13    1    3    3    0    0 -0.12889792067E+02 -0.16836857599E+02 -0.49912250074E+00  0.21210271960E+02  0.00000000000E+00 0.  1.
         13    1    3    3    0    0  0.33254921898E+02  0.13549131241E+02  0.16419229683E+03  0.16807313624E+03  0.00000000000E+00 0. -1.
          1    1    1    2  501    0 -0.73359057837E+01 -0.18844262030E+02 -0.11943282319E+03  0.12113265860E+03  0.00000000000E+00 0. -1.
<scales pt_clust_5="13000.00000" pt_clust_6="13000.00000" pt_clust_7="13000.00000" pt_clust_8="13000.00000" pt_clust_9="20.22181"></scales>
<clustering>
<clus scale="   20.222">  2  9  1 -1</clus>
<clus scale="   90.595">  5  6 -1 -1</clus>
<clus scale="   92.775">  7  8 -1 -1</clus>
<clus scale="   92.850">  2  5  1 -1</clus>
<clus scale="   20.222">  2  5  1 -1</clus>
</clustering>
</event>
<event>
 9    1  0.1610296E-005  0.9996452E+02  0.7546771E-02  0.1284778E+00
          1   -1    0    0  502    0 -0.00000000000E+00  0.00000000000E+00  0.11125105513E+03  0.11125105513E+03  0.00000000000E+00 0. -1.
         21   -1    0    0  501  502  0.00000000000E+00 -0.00000000000E+00 -0.14597714720E+03  0.14597714720E+03  0.00000000000E+00 0. -1.
         23    2    1    2    0    0 -0.38499274049E+02  0.30050509962E+02  0.19743603207E+02  0.98012858886E+02  0.82652788145E+02 0.  0.
         23    2    1    2    0    0  0.34754323547E+02  0.12117653302E+01 -0.18397433583E+01  0.97886179506E+02  0.91482173685E+02 0.  0.
        -13    1    3    3    0    0 -0.19298885448E+02  0.36947509915E+02 -0.25162230010E+02  0.48689868428E+02  0.00000000000E+00 0.  1.
         13    1    3    3    0    0 -0.19200388601E+02 -0.68969999531E+01  0.44905833217E+02  0.49322990458E+02  0.00000000000E+00 0. -1.
        -13    1    4    4    0    0  0.61861746033E+02  0.19524247822E+02 -0.47522601120E+01  0.65043491999E+02  0.00000000000E+00 0. -1.
         13    1    4    4    0    0 -0.27107422486E+02 -0.18312482492E+02  0.29125167537E+01  0.32842687507E+02  0.00000000000E+00 0.  1.
          1    1    1    2  501    0  0.37449505020E+01 -0.31262275292E+02 -0.52629951916E+02  0.61329163939E+02  0.00000000000E+00 0. -1.
<scales pt_clust_5="13000.00000" pt_clust_6="13000.00000" pt_clust_7="13000.00000" pt_clust_8="13000.00000" pt_clust_9="31.48578"></scales>
<clustering>
<clus scale="   31.486">  2  9  1 -1</clus>
<clus scale="   82.653">  5  6 -1 -1</clus>
<clus scale="   91.482">  7  8 -1 -1</clus>
<clus scale="   91.953">  1  5  2 -1</clus>
<clus scale="   31.486">  2  5  1 -1</clus>
</clustering>
</event>
<event>
 9    1  0.1610296E-005  0.1214475E+03  0.7546771E-02  0.1240961E+00
         21   -1    0    0  501  502  0.00000000000E+00  0.00000000000E+00  0.26012815269E+03  0.26012815269E+03  0.00000000000E+00 0.  1.
          2   -1    0    0  502    0 -0.00000000000E+00 -0.00000000000E+00 -0.98489707787E+02  0.98489707787E+02  0.00000000000E+00 0. -1.
         23    2    1    2    0    0 -0.53570442589E+02  0.53447066924E+02 -0.12806507555E+01  0.11833328788E+03  0.90965629073E+02 0.  0.
         23    2    1    2    0    0  0.80152962951E+02 -0.44921587639E+02  0.77184319701E+02  0.15011935760E+03  0.90199533336E+02 0.  0.
        -11    1    3    3    0    0 -0.68335064794E+02  0.19482335126E+02  0.22244116742E+02  0.74458331918E+02  0.00000000000E+00 0.  1.
         11    1    3    3    0    0  0.14764622206E+02  0.33964731797E+02 -0.23524767498E+02  0.43874955963E+02  0.00000000000E+00 0. -1.
        -13    1    4    4    0    0  0.91875953277E+02 -0.24027658407E+02  0.34250869233E+02  0.10095365869E+03  0.00000000000E+00 0. -1.
         13    1    4    4    0    0 -0.11722990326E+02 -0.20893929232E+02  0.42933450468E+02  0.49165698917E+02  0.00000000000E+00 0.  1.
          2    1    1    2  501    0 -0.26582520362E+02 -0.85254792846E+01  0.85734775963E+02  0.90165214996E+02  0.00000000000E+00 0. -1.
<scales pt_clust_5="13000.00000" pt_clust_6="13000.00000" pt_clust_7="13000.00000" pt_clust_8="13000.00000" pt_clust_9="27.91620"></scales>
<clustering>
<clus scale="   27.916">  1  9  2 -1</clus>
<clus scale="   90.200">  7  8 -1 -1</clus>
<clus scale="   90.966">  5  6 -1 -1</clus>
<clus scale="  120.875">  1  7  2 -1</clus>
<clus scale="   27.916">  1  5  2 -1</clus>
</clustering>
</event>
<event>
 9    1  0.1610296E-005  0.1021583E+03  0.7546771E-02  0.1275994E+00
         21   -1    0    0  501  502  0.00000000000E+00  0.00000000000E+00  0.26710970297E+02  0.26710970297E+02  0.00000000000E+00 0.  1.
          1   -1    0    0  502    0 -0.00000000000E+00 -0.00000000000E+00 -0.61608305878E+03  0.61608305878E+03  0.00000000000E+00 0. -1.
         23    2    1    2    0    0 -0.51408042332E+01  0.46168377946E+02 -0.36486213340E+03  0.37899470289E+03  0.91403837116E+02 0.  0.
         23    2    1    2    0    0 -0.17480876264E+02 -0.42391222769E+02 -0.21637220117E+03  0.23946354249E+03  0.91778330445E+02 0.  0.
        -11    1    3    3    0    0  0.34000609957E+02  0.43120249852E+02 -0.13394902086E+03  0.14476787494E+03  0.00000000000E+00 0.  1.
         11    1    3    3    0    0 -0.39141414191E+02  0.30481280934E+01 -0.23091311254E+03  0.23422682795E+03  0.00000000000E+00 0. -1.
        -13    1    4    4    0    0 -0.34784064456E+02  0.17966904200E+02 -0.96572792524E+02  0.10420674183E+03  0.00000000000E+00 0. -1.
         13    1    4    4    0    0  0.17303188193E+02 -0.60358126969E+02 -0.11979940864E+03  0.13525680066E+03  0.00000000000E+00 0.  1.
          1    1    1    2  501    0  0.22621680497E+02 -0.37771551764E+01 -0.81377539219E+01  0.24335783707E+02  0.00000000000E+00 0. -1.
<scales pt_clust_5="13000.00000" pt_clust_6="13000.00000" pt_clust_7="13000.00000" pt_clust_8="13000.00000" pt_clust_9="22.93485"></scales>
<clustering>
<clus scale="   22.935">  1  9  2 -1</clus>
<clus scale="   91.404">  5  6 -1 -1</clus>
<clus scale="   91.778">  7  8 -1 -1</clus>
<clus scale="  101.822">  2  5  1 -1</clus>
<clus scale="   22.935">  1  5  2 -1</clus>
</clustering>
</event>
<event>
 9    1  0.1610296E-005  0.1018568E+03  0.7546771E-02  0.1277197E+00
         21   -1    0    0  501  502  0.00000000000E+00  0.00000000000E+00  0.51858427289E+02  0.51858427289E+02  0.00000000000E+00 0. -1.
          2   -1    0    0  502    0 -0.00000000000E+00 -0.00000000000E+00 -0.65378755944E+03  0.65378755944E+03  0.00000000000E+00 0. -1.
         23    2    1    2    0    0  0.21892839636E+02 -0.45913897647E+02 -0.39925815504E+03  0.41243632586E+03  0.90051463627E+02 0.  0.
         23    2    1    2    0    0 -0.25264309798E+02  0.25606997261E+02 -0.23504511802E+03  0.25484532828E+03  0.91683859977E+02 0.  0.
        -13    1    3    3    0    0 -0.25563051074E+02  0.68985975236E+01 -0.56430751412E+02  0.62333698213E+02  0.00000000000E+00 0. -1.
         13    1    3    3    0    0  0.47455890710E+02 -0.52812495170E+02 -0.34282740363E+03  0.35010262765E+03  0.00000000000E+00 0.  1.
        -13    1    4    4    0    0  0.12996517961E+02  0.44617300728E+02 -0.67579336667E+02  0.82015728660E+02  0.00000000000E+00 0.  1.
         13    1    4    4    0    0 -0.38260827759E+02 -0.19010303467E+02 -0.16746578136E+03  0.17282959962E+03  0.00000000000E+00 0. -1.
          2    1    1    2  501    0  0.33714701624E+01  0.20306900386E+02  0.32374140917E+02  0.38364332582E+02  0.00000000000E+00 0. -1.
<scales pt_clust_5="13000.00000" pt_clust_6="13000.00000" pt_clust_7="13000.00000" pt_clust_8="13000.00000" pt_clust_9="20.58487"></scales>
<clustering>
<clus scale="   20.585">  1  9  2 -1</clus>
<clus scale="   90.051">  5  6 -1 -1</clus>
<clus scale="   91.684">  7  8 -1 -1</clus>
<clus scale="  100.390">  2  5  1 -1</clus>
<clus scale="   20.585">  1  5  2 -1</clus>
</clustering>
</event>
<event>
 9    1  0.1610296E-005  0.1062167E+03  0.7546771E-02  0.1270639E+00
          2   -1    0    0  502    0 -0.00000000000E+00  0.00000000000E+00  0.48070517557E+03  0.48070517557E+03  0.00000000000E+00 0. -1.
         21   -1    0    0  501  502  0.00000000000E+00 -0.00000000000E+00 -0.87033442298E+02  0.87033442298E+02  0.00000000000E+00 0. -1.
         23    2    1    2    0    0 -0.39262649133E+02 -0.49783875979E+02  0.35692120470E+03  0.37329185658E+03  0.89073418610E+02 0.  0.
         23    2    1    2    0    0  0.38370568824E+02  0.25872984242E+02  0.93572881342E+02  0.13279202648E+03  0.82073907596E+02 0.  0.
        -11    1    3    3    0    0 -0.50145108508E+02  0.50483466197E+01  0.12611585236E+03  0.13581320233E+03  0.00000000000E+00 0.  1.
         11    1    3    3    0    0  0.10882459374E+02 -0.54832222599E+02  0.23080535233E+03  0.23747865425E+03  0.00000000000E+00 0. -1.
        -13    1    4    4    0    0  0.43253544419E+01  0.51368131278E+02  0.54846955473E+02  0.75270061290E+02  0.00000000000E+00 0.  1.
         13    1    4    4    0    0  0.34045214382E+02 -0.25495147035E+02  0.38725925869E+02  0.57521965188E+02  0.00000000000E+00 0. -1.
          2    1    1    2  501    0  0.89208030933E+00  0.23910891737E+02 -0.56822352764E+02  0.61654734811E+02  0.00000000000E+00 0. -1.
<scales pt_clust_5="13000.00000" pt_clust_6="13000.00000" pt_clust_7="13000.00000" pt_clust_8="13000.00000" pt_clust_9="23.92753"></scales>
<clustering>
<clus scale="   23.928">  2  9  1 -1</clus>
<clus scale="   82.074">  7  8 -1 -1</clus>
<clus scale="   89.073">  5  6 -1 -1</clus>
<clus scale="  100.419">  2  7  1 -1</clus>
<clus scale="   23.928">  2  5  1 -1</clus>
</clustering>
</event>
<event>
 9    1  0.1610296E-005  0.1579850E+03  0.7546771E-02  0.1191083E+00
         21   -1    0    0  501  502  0.00000000000E+00  0.00000000000E+00  0.75883772320E+03  0.75883772320E+03  0.00000000000E+00 0.  1.
         -3   -1    0    0    0  501 -0.00000000000E+00 -0.00000000000E+00 -0.21603708354E+03  0.21603708354E+03  0.00000000000E+00 0.  1.
         23    2    1    2    0    0  0.10803552869E+03  0.62189954632E+02 -0.14770411966E+03  0.21300135016E+03  0.89519842999E+02 0.  0.
         23    2    1    2    0    0 -0.15133397350E+03 -0.10119662957E+03  0.27117073377E+03  0.33850919144E+03  0.88950415770E+02 0.  0.
        -11    1    3    3    0    0  0.98217691183E+02  0.80157582043E+02 -0.14457946610E+03  0.19228929985E+03  0.00000000000E+00 0.  1.
         11    1    3    3    0    0  0.98178375035E+01 -0.17967627411E+02 -0.31246535558E+01  0.20712050306E+02  0.00000000000E+00 0. -1.
        -11    1    4    4    0    0 -0.35329969573E+02 -0.38559661163E+02  0.15218404822E+03  0.16091935480E+03  0.00000000000E+00 0.  1.
         11    1    4    4    0    0 -0.11600400392E+03 -0.62636968411E+02  0.11898668556E+03  0.17758983664E+03  0.00000000000E+00 0. -1.
         -3    1    1    2    0  502  0.43298444809E+02  0.39006674942E+02  0.41933402555E+03  0.42336426514E+03  0.00000000000E+00 0.  1.
<scales pt_clust_5="13000.00000" pt_clust_6="13000.00000" pt_clust_7="13000.00000" pt_clust_8="13000.00000" pt_clust_9="58.27758"></scales>
<clustering>
<clus scale="   58.278">  1  9  2 -1</clus>
<clus scale="   88.950">  7  8 -1 -1</clus>
<clus scale="   89.520">  5  6 -1 -1</clus>
<clus scale="  157.663">  1  7  2 -1</clus>
<clus scale="   58.278">  1  5  2 -1</clus>
</clustering>
</event>
<event>
 9    1  0.1610296E-005  0.1046632E+03  0.7546771E-02  0.1271299E+00
         21   -1    0    0  501  502  0.00000000000E+00  0.00000000000E+00  0.70753677053E+02  0.70753677053E+02  0.00000000000E+00 0.  1.
          2   -1    0    0  502    0 -0.00000000000E+00 -0.00000000000E+00 -0.38847991039E+03  0.38847991039E+03  0.00000000000E+00 0. -1.
         23    2    1    2    0    0 -0.43447479671E+01 -0.31860502491E+02 -0.20984418936E+03  0.23206924363E+03  0.93742101396E+02 0.  0.
         23    2    1    2    0    0 -0.96492016046E+01  0.68417293361E+02 -0.13549195638E+03  0.17926301976E+03  0.94884808514E+02 0.  0.
        -13    1    4    4    0    0 -0.11760314971E+02  0.89539358715E+02 -0.83059972831E+02  0.12269702871E+03  0.00000000000E+00 0.  1.
         13    1    4    4    0    0  0.21111133664E+01 -0.21122065354E+02 -0.52431983552E+02  0.56565991052E+02  0.00000000000E+00 0. -1.
        -13    1    3    3    0    0  0.20611798673E+02 -0.46476831220E+02 -0.19075849318E+03  0.19741769121E+03  0.00000000000E+00 0.  1.
         13    1    3    3    0    0 -0.24956546640E+02  0.14616328729E+02 -0.19085696186E+02  0.34651552413E+02  0.00000000000E+00 0. -1.
          2    1    1    2  501    0  0.13993949572E+02 -0.36556790870E+02  0.27609912407E+02  0.47901324058E+02  0.00000000000E+00 0. -1.
<scales pt_clust_5="13000.00000" pt_clust_6="13000.00000" pt_clust_7="13000.00000" pt_clust_8="13000.00000" pt_clust_9="39.14370"></scales>
<clustering>
<clus scale="   39.144">  1  9  2 -1</clus>
<clus scale="   93.742">  7  8 -1 -1</clus>
<clus scale="   94.885">  5  6 -1 -1</clus>
<clus scale="  103.628">  2  7  1 -1</clus>
<clus scale="   39.144">  1  5  2 -1</clus>
</clustering>
</event>
<event>
 9    1  0.1610296E-005  0.1662373E+03  0.7546771E-02  0.1181946E+00
         21   -1    0    0  501  502  0.00000000000E+00  0.00000000000E+00  0.11080724696E+03  0.11080724696E+03  0.00000000000E+00 0. -1.
          1   -1    0    0  502    0 -0.00000000000E+00 -0.00000000000E+00 -0.36997864663E+03  0.36997864663E+03  0.00000000000E+00 0. -1.
         23    2    1    2    0    0 -0.52546997426E+02  0.10824705083E+03 -0.10339466277E+03  0.18368528844E+03  0.92580872473E+02 0.  0.
         23    2    1    2    0    0  0.20835522673E+02 -0.16373605528E+03 -0.12156855600E+03  0.22461028245E+03  0.91800056470E+02 0.  0.
        -13    1    4    4    0    0  0.48372207639E+02 -0.46289383074E+02 -0.31093453941E+02  0.73819918283E+02  0.00000000000E+00 0.  1.
         13    1    4    4    0    0 -0.27536684967E+02 -0.11744667221E+03 -0.90475102060E+02  0.15079036416E+03  0.00000000000E+00 0. -1.
        -13    1    3    3    0    0 -0.61665020652E+02  0.46150683291E+02 -0.91849725406E+02  0.11987006464E+03  0.00000000000E+00 0. -1.
         13    1    3    3    0    0  0.91180232259E+01  0.62096367543E+02 -0.11544937359E+02  0.63815223796E+02  0.00000000000E+00 0.  1.
          1    1    1    2  501    0  0.31711474753E+02  0.55489004449E+02 -0.34208180905E+02  0.72490322710E+02  0.00000000000E+00 0. -1.
<scales pt_clust_5="13000.00000" pt_clust_6="13000.00000" pt_clust_7="13000.00000" pt_clust_8="13000.00000" pt_clust_9="63.91125"></scales>
<clustering>
<clus scale="   63.911">  1  9  2 -1</clus>
<clus scale="   91.800">  5  6 -1 -1</clus>
<clus scale="   92.581">  7  8 -1 -1</clus>
<clus scale="  165.804">  1  5  2 -1</clus>
<clus scale="   63.911">  1  5  2 -1</clus>
</clustering>
</event>
<event>
 9    1  0.1610296E-005  0.1055501E+03  0.7546771E-02  0.1269185E+00
          2   -1    0    0  502    0 -0.00000000000E+00  0.00000000000E+00  0.43846699940E+03  0.43846699940E+03  0.00000000000E+00 0. -1.
         21   -1    0    0  501  502  0.00000000000E+00 -0.00000000000E+00 -0.10939200784E+03  0.10939200784E+03  0.00000000000E+00 0. -1.
         23    2    1    2    0    0  0.28754718414E+02  0.69011775713E+02  0.30040245228E+03  0.32270217972E+03  0.91135088956E+02 0.  0.
         23    2    1    2    0    0 -0.11449006104E+02 -0.12039275426E+02  0.97110288291E+02  0.13444255655E+03  0.91478790027E+02 0.  0.
        -11    1    3    3    0    0  0.51414191857E+02  0.78003283693E+02  0.23343788810E+03  0.25143822103E+03  0.00000000000E+00 0.  1.
         11    1    3    3    0    0 -0.22659473443E+02 -0.89915079802E+01  0.66964564180E+02  0.71263958691E+02  0.00000000000E+00 0. -1.
        -11    1    4    4    0    0  0.22584840116E+02 -0.46852087669E+01  0.96915710411E+02  0.99622693744E+02  0.00000000000E+00 0.  1.
         11    1    4    4    0    0 -0.34033846220E+02 -0.73540666594E+01  0.19457788014E+00  0.34819862802E+02  0.00000000000E+00 0. -1.
          2    1    1    2  501    0 -0.17305712310E+02 -0.56972500286E+02 -0.68437749020E+02  0.90714270974E+02  0.00000000000E+00 0. -1.
<scales pt_clust_5="13000.00000" pt_clust_6="13000.00000" pt_clust_7="13000.00000" pt_clust_8="13000.00000" pt_clust_9="59.54287"></scales>
<clustering>
<clus scale="   59.543">  2  9  1 -1</clus>
<clus scale="   91.135">  5  6 -1 -1</clus>
<clus scale="   91.479">  7  8 -1 -1</clus>
<clus scale="  105.252">  1  5  2 -1</clus>
<clus scale="   59.543">  2  5  1 -1</clus>
</clustering>
</event>
<event>
 9    1  0.1610296E-005  0.1420311E+03  0.7546771E-02  0.1212916E+00
         21   -1    0    0  501  502  0.00000000000E+00  0.00000000000E+00  0.88459998915E+02  0.88459998915E+02  0.00000000000E+00 0.  1.
          1   -1    0    0  502    0 -0.00000000000E+00 -0.00000000000E+00 -0.29567420723E+03  0.29567420723E+03  0.00000000000E+00 0. -1.
         23    2    1    2    0    0  0.89269524581E+02  0.66053672676E+02 -0.16201590520E+03  0.22105818421E+03  0.10141711679E+03 0.  0.
         23    2    1    2    0    0 -0.69525440435E+02 -0.45796772741E+02 -0.51438593970E+02  0.13410859050E+03  0.91695440642E+02 0.  0.
        -11    1    3    3    0    0 -0.22651626481E+02  0.14423281622E+02 -0.23989573679E+02  0.36008705618E+02  0.00000000000E+00 0.  1.
         11    1    3    3    0    0  0.11192115106E+03  0.51630391054E+02 -0.13802633152E+03  0.18504947859E+03  0.00000000000E+00 0. -1.
        -13    1    4    4    0    0 -0.84325180902E+02 -0.20179285380E+02 -0.16388244431E+02  0.88241227598E+02  0.00000000000E+00 0.  1.
         13    1    4    4    0    0  0.14799740467E+02 -0.25617487361E+02 -0.35050349539E+02  0.45867362900E+02  0.00000000000E+00 0. -1.
          1    1    1    2  501    0 -0.19744084146E+02 -0.20256899936E+02  0.62402908575E+01  0.28967431432E+02  0.00000000000E+00 0. -1.
<scales pt_clust_5="13000.00000" pt_clust_6="13000.00000" pt_clust_7="13000.00000" pt_clust_8="13000.00000" pt_clust_9="28.28729"></scales>
<clustering>
<clus scale="   28.287">  1  9  2 -1</clus>
<clus scale="   91.695">  7  8 -1 -1</clus>
<clus scale="  101.417">  5  6 -1 -1</clus>
<clus scale="  135.261">  1  7  2 -1</clus>
<clus scale="   28.287">  1  5  2 -1</clus>
</clustering>
</event>
<event>
 9    1  0.1610296E-005  0.2178281E+03  0.7546771E-02  0.1137142E+00
         21   -1    0    0  501  502  0.00000000000E+00  0.00000000000E+00  0.23698173511E+03  0.23698173511E+03  0.00000000000E+00 0. -1.
         -1   -1    0    0    0  501 -0.00000000000E+00 -0.00000000000E+00 -0.27893621988E+03  0.27893621988E+03  0.00000000000E+00 0.  1.
         23    2    1    2    0    0  0.12869896609E+03 -0.13896929115E+03 -0.10698849047E+03  0.23653820426E+03  0.92886474930E+02 0.  0.
         23    2    1    2    0    0 -0.15564545249E+03  0.10478251027E+03  0.23263839176E+02  0.21905068701E+03  0.11062149849E+03 0.  0.
        -11    1    3    3    0    0  0.11907219603E+02 -0.33231649869E+02  0.13918147148E+02  0.37945213818E+02  0.00000000000E+00 0. -1.
         11    1    3    3    0    0  0.11679174648E+03 -0.10573764129E+03 -0.12090663762E+03  0.19859299044E+03  0.00000000000E+00 0.  1.
        -13    1    4    4    0    0 -0.12926521826E+03  0.84591311419E+02 -0.28942033815E+02  0.15717133308E+03  0.00000000000E+00 0. -1.
         13    1    4    4    0    0 -0.26380234227E+02  0.20191198847E+02  0.52205872990E+02  0.61879353935E+02  0.00000000000E+00 0.  1.
         -1    1    1    2    0  502  0.26946486403E+02  0.34186780888E+02  0.41770166526E+02  0.60329063714E+02  0.00000000000E+00 0.  1.
<scales pt_clust_5="13000.00000" pt_clust_6="13000.00000" pt_clust_7="13000.00000" pt_clust_8="13000.00000" pt_clust_9="43.52986"></scales>
<clustering>
<clus scale="   43.530">  1  9  2 -1</clus>
<clus scale="   92.886">  5  6 -1 -1</clus>
<clus scale="  110.621">  7  8 -1 -1</clus>
<clus scale="  209.380">  2  5  1 -1</clus>
<clus scale="   43.530">  1  5  2 -1</clus>
</clustering>
</event>
<event>
 9    1  0.1610296E-005  0.1145657E+03  0.7546771E-02  0.1253548E+00
          1   -1    0    0  502    0 -0.00000000000E+00  0.00000000000E+00  0.90574343348E+03  0.90574343348E+03  0.00000000000E+00 0. -1.
         21   -1    0    0  501  502  0.00000000000E+00 -0.00000000000E+00 -0.30296895287E+02  0.30296895287E+02  0.00000000000E+00 0.  1.
         23    2    1    2    0    0 -0.79752397580E+02 -0.10214939448E+02  0.63119103100E+03  0.64220576370E+03  0.86955939422E+02 0.  0.
         23    2    1    2    0    0  0.48512012604E+02  0.17379649222E+02  0.23988097675E+03  0.26148597567E+03  0.90424360049E+02 0.  0.
        -11    1    3    3    0    0  0.10260915058E+02  0.18504360143E+02  0.70399013362E+02  0.73509991188E+02  0.00000000000E+00 0.  1.
         11    1    3    3    0    0 -0.90013312637E+02 -0.28719299591E+02  0.56079201764E+03  0.56869577251E+03  0.00000000000E+00 0. -1.
        -11    1    4    4    0    0 -0.12258695179E+02  0.25400839086E+02  0.23880349549E+02  0.36956045897E+02  0.00000000000E+00 0. -1.
         11    1    4    4    0    0  0.60770707783E+02 -0.80211898644E+01  0.21600062720E+03  0.22452992977E+03  0.00000000000E+00 0.  1.
          1    1    1    2  501    0  0.31240384976E+02 -0.71647097742E+01  0.43745304374E+01  0.32348589400E+02  0.00000000000E+00 0. -1.
<scales pt_clust_5="13000.00000" pt_clust_6="13000.00000" pt_clust_7="13000.00000" pt_clust_8="13000.00000" pt_clust_9="32.05144"></scales>
<clustering>
<clus scale="   32.051">  2  9  1 -1</clus>
<clus scale="   86.956">  5  6 -1 -1</clus>
<clus scale="   90.424">  7  8 -1 -1</clus>
<clus scale="  111.848">  1  5  2 -1</clus>
<clus scale="   32.051">  2  5  1 -1</clus>
</clustering>
</event>
<event>
 9    1  0.2220735E-005  0.9290975E+02  0.7546771E-02  0.1297828E+00
         21   -1    0    0  501  502  0.00000000000E+00  0.00000000000E+00  0.16338833786E+03  0.16338833786E+03  0.00000000000E+00 0. -1.
          1   -1    0    0  502    0 -0.00000000000E+00 -0.00000000000E+00 -0.51846537022E+03  0.51846537022E+03  0.00000000000E+00 0. -1.
         23    2    1    2    0    0  0.25732622635E+01 -0.20795782888E+02 -0.41154234774E+03  0.42205805082E+03  0.91251345259E+02 0.  0.
         23    2    1    2    0    0 -0.17353737474E+02  0.32733359854E+00 -0.80490860789E+02  0.12053182831E+03  0.88022063216E+02 0.  0.
        -11    1    3    3    0    0  0.27941724312E+02 -0.47263354442E+02 -0.20180943724E+03  0.20914495832E+03  0.00000000000E+00 0. -1.
         11    1    3    3    0    0 -0.25368462049E+02  0.26467571554E+02 -0.20973291050E+03  0.21291309250E+03  0.00000000000E+00 0.  1.
        -13    1    4    4    0    0 -0.39602776790E+02  0.44091419139E+01 -0.31737313776E+01  0.39973654233E+02  0.00000000000E+00 0.  1.
         13    1    4    4    0    0  0.22249039316E+02 -0.40818083154E+01 -0.77317129412E+02  0.80558174074E+02  0.00000000000E+00 0. -1.
          1    1    1    2  501    0  0.14780475211E+02  0.20468449290E+02  0.13695617617E+03  0.13926382895E+03  0.00000000000E+00 0. -1.
<scales pt_clust_5="13000.00000" pt_clust_6="13000.00000" pt_clust_7="13000.00000" pt_clust_8="13000.00000" pt_clust_9="25.24718"></scales>
<clustering>
<clus scale="   25.247">  1  9  2 -1</clus>
<clus scale="   88.022">  7  8 -1 -1</clus>
<clus scale="   89.740">  1  7  2 -1</clus>
<clus scale="   91.251">  5  6 -1 -1</clus>
<clus scale="   25.247">  1  5  2 -1</clus>
</clustering>
</event>
<event>
 9    1  0.1610296E-005  0.2343474E+03  0.7546771E-02  0.1154883E+00
         21   -1    0    0  501  502  0.00000000000E+00  0.00000000000E+00  0.21873753594E+03  0.21873753594E+03  0.00000000000E+00 0. -1.
          2   -1    0    0  502    0 -0.00000000000E+00 -0.00000000000E+00 -0.53375143483E+03  0.53375143483E+03  0.00000000000E+00 0. -1.
         23    2    1    2    0    0  0.50565069672E+00 -0.63771099926E+02 -0.13156937600E+03  0.17156565156E+03  0.89762259465E+02 0.  0.
         23    2    1    2    0    0 -0.90614193337E+02  0.24780148247E+03 -0.24073463862E+03  0.36815845248E+03  0.89280306629E+02 0.  0.
        -13    1    4    4    0    0 -0.79528409584E+02  0.10396216681E+03 -0.86073820999E+02  0.15665759707E+03  0.00000000000E+00 0.  1.
         13    1    4    4    0    0 -0.11085783753E+02  0.14383931566E+03 -0.15466081762E+03  0.21150085541E+03  0.00000000000E+00 0. -1.
        -13    1    3    3    0    0 -0.31155332291E+02 -0.99459204755E+01 -0.88641480233E+01  0.33884350140E+02  0.00000000000E+00 0. -1.
         13    1    3    3    0    0  0.31660982987E+02 -0.53825179450E+02 -0.12270522798E+03  0.13768130142E+03  0.00000000000E+00 0.  1.
          2    1    1    2  501    0  0.90108542641E+02 -0.18403038254E+03  0.57290115731E+02  0.21276486673E+03  0.00000000000E+00 0. -1.
<scales pt_clust_5="13000.00000" pt_clust_6="13000.00000" pt_clust_7="13000.00000" pt_clust_8="13000.00000" pt_clust_9="216.67426"></scales>
<clustering>
<clus scale="   89.280">  5  6 -1 -1</clus>
<clus scale="   89.762">  7  8 -1 -1</clus>
<clus scale="  110.110">  2  7  1 -1</clus>
<clus scale="  216.674">  1  9  2 -1</clus>
<clus scale="  216.674">  1  5  2 -1</clus>
</clustering>
</event>
<event>
 9    1  0.1610296E-005  0.1882885E+03  0.7546771E-02  0.1160212E+00
         -2   -1    0    0    0  501 -0.00000000000E+00  0.00000000000E+00  0.39992221152E+03  0.39992221152E+03  0.00000000000E+00 0.  1.
         21   -1    0    0  501  502  0.00000000000E+00 -0.00000000000E+00 -0.45991235873E+03  0.45991235873E+03  0.00000000000E+00 0.  1.
         23    2    1    2    0    0 -0.65745091672E+01  0.16203455597E+03  0.25905857949E+03  0.31886708149E+03  0.90920000841E+02 0.  0.
         23    2    1    2    0    0 -0.60048010633E+02 -0.17297653029E+03  0.11145622582E+02  0.20394138406E+03  0.89113520965E+02 0.  0.
        -13    1    3    3    0    0 -0.22191212442E+02  0.69919182198E+02  0.18701237535E+03  0.20088496828E+03  0.00000000000E+00 0.  1.
         13    1    3    3    0    0  0.15616703275E+02  0.92115373769E+02  0.72046204144E+02  0.11798211321E+03  0.00000000000E+00 0. -1.
        -13    1    4    4    0    0 -0.17768396049E+01 -0.79980800157E+02 -0.31806414686E+02  0.86091425636E+02  0.00000000000E+00 0. -1.
         13    1    4    4    0    0 -0.58271171028E+02 -0.92995730133E+02  0.42952037268E+02  0.11784995843E+03  0.00000000000E+00 0.  1.
         -2    1    1    2    0  502  0.66622519800E+02  0.10941974323E+02 -0.33019434929E+03  0.33702610470E+03  0.00000000000E+00 0.  1.
<scales pt_clust_5="13000.00000" pt_clust_6="13000.00000" pt_clust_7="13000.00000" pt_clust_8="13000.00000" pt_clust_9="67.51509"></scales>
<clustering>
<clus scale="   67.515">  2  9  1 -1</clus>
<clus scale="   89.114">  7  8 -1 -1</clus>
<clus scale="   90.920">  5  6 -1 -1</clus>
<clus scale="  187.423">  2  7  1 -1</clus>
<clus scale="   67.515">  2  5  1 -1</clus>
</clustering>
</event>
<event>
 9    1  0.1610296E-005  0.1201492E+03  0.7546771E-02  0.1245592E+00
         21   -1    0    0  501  502  0.00000000000E+00  0.00000000000E+00  0.14664511867E+03  0.14664511867E+03  0.00000000000E+00 0.  1.
          2   -1    0    0  502    0 -0.00000000000E+00 -0.00000000000E+00 -0.27645479335E+03  0.27645479335E+03  0.00000000000E+00 0.  1.
         23    2    1    2    0    0  0.20600036502E+02 -0.47803594464E+02 -0.10704585185E+03  0.15483421711E+03  0.99021589770E+02 0.  0.
         23    2    1    2    0    0 -0.62575664472E+02  0.64807572500E+02 -0.11072962984E+03  0.16932595661E+03  0.91074109506E+02 0.  0.
        -11    1    3    3    0    0  0.64346365301E+00 -0.75216470673E+02 -0.56970004197E+02  0.94358427732E+02  0.00000000000E+00 0. -1.
         11    1    3    3    0    0  0.19956572849E+02  0.27412876209E+02 -0.50075847656E+02  0.60475789374E+02  0.00000000000E+00 0.  1.
        -13    1    4    4    0    0 -0.19837652833E+02 -0.11876216155E+02  0.54044311746E+01  0.23744154152E+02  0.00000000000E+00 0. -1.
         13    1    4    4    0    0 -0.42738011639E+02  0.76683788655E+02 -0.11613406101E+03  0.14558180246E+03  0.00000000000E+00 0.  1.
          2    1    1    2  501    0  0.41975627970E+02 -0.17003978036E+02  0.87965807005E+02  0.98939738298E+02  0.00000000000E+00 0.  1.
<scales pt_clust_5="13000.00000" pt_clust_6="13000.00000" pt_clust_7="13000.00000" pt_clust_8="13000.00000" pt_clust_9="45.28895"></scales>
<clustering>
<clus scale="   45.289">  1  9  2 -1</clus>
<clus scale="   91.074">  7  8 -1 -1</clus>
<clus scale="   99.022">  5  6 -1 -1</clus>
<clus scale="  113.688">  1  7  2 -1</clus>
<clus scale="   45.289">  1  5  2 -1</clus>
</clustering>
</event>
<event>
 9    1  0.1610296E-005  0.1035318E+03  0.7546771E-02  0.1273326E+00
         21   -1    0    0  501  502  0.00000000000E+00  0.00000000000E+00  0.28089630844E+03  0.28089630844E+03  0.00000000000E+00 0.  1.
          1   -1    0    0  502    0 -0.00000000000E+00 -0.00000000000E+00 -0.79426776023E+02  0.79426776023E+02  0.00000000000E+00 0. -1.
         23    2    1    2    0    0  0.38412537407E+02  0.36058485209E+02 -0.11544244919E+01  0.10468347419E+03  0.90451974476E+02 0.  0.
         23    2    1    2    0    0  0.88708554272E+00 -0.49357534904E+02  0.18171452887E+03  0.20917963537E+03  0.91098829196E+02 0.  0.
        -11    1    3    3    0    0 -0.75423504835E+01  0.31614726004E+02 -0.34752951356E+02  0.47583038775E+02  0.00000000000E+00 0. -1.
         11    1    3    3    0    0  0.45954887890E+02  0.44437592050E+01  0.33598526865E+02  0.57100435413E+02  0.00000000000E+00 0.  1.
        -13    1    4    4    0    0 -0.44406364549E+01  0.19777955271E+02  0.73981858158E+01  0.21578227921E+02  0.00000000000E+00 0. -1.
         13    1    4    4    0    0  0.53277219977E+01 -0.69135490175E+02  0.17431634305E+03  0.18760140745E+03  0.00000000000E+00 0.  1.
          1    1    1    2  501    0 -0.39299622949E+02  0.13299049695E+02  0.20909428042E+02  0.46459974901E+02  0.00000000000E+00 0. -1.
<scales pt_clust_5="13000.00000" pt_clust_6="13000.00000" pt_clust_7="13000.00000" pt_clust_8="13000.00000" pt_clust_9="41.48888"></scales>
<clustering>
<clus scale="   41.489">  1  9  2 -1</clus>
<clus scale="   90.452">  5  6 -1 -1</clus>
<clus scale="   91.099">  7  8 -1 -1</clus>
<clus scale="  102.963">  2  5  1 -1</clus>
<clus scale="   41.489">  1  5  2 -1</clus>
</clustering>
</event>
<event>
 9    1  0.1610296E-005  0.1129634E+03  0.7546771E-02  0.1262335E+00
         21   -1    0    0  501  502  0.00000000000E+00  0.00000000000E+00  0.45849935792E+03  0.45849935792E+03  0.00000000000E+00 0. -1.
         -1   -1    0    0    0  501 -0.00000000000E+00 -0.00000000000E+00 -0.31639106137E+02  0.31639106137E+02  0.00000000000E+00 0.  1.
         23    2    1    2    0    0  0.42428032873E+02  0.16181119212E+02  0.13107702991E+03  0.16571260903E+03  0.90650507058E+02 0.  0.
         23    2    1    2    0    0 -0.25581024948E+02 -0.23786584247E+01  0.22339758029E+03  0.24883477945E+03  0.10654680535E+03 0.  0.
        -11    1    3    3    0    0  0.24980345367E+02  0.54128067593E+02  0.78070006322E+02  0.98228260918E+02  0.00000000000E+00 0.  1.
         11    1    3    3    0    0  0.17447687506E+02 -0.37946948380E+02  0.53007023591E+02  0.67484348116E+02  0.00000000000E+00 0. -1.
        -13    1    4    4    0    0  0.24554043835E+01 -0.52247672127E+02  0.10179951783E+03  0.11445081949E+03  0.00000000000E+00 0. -1.
         13    1    4    4    0    0 -0.28036429331E+02  0.49869013703E+02  0.12159806247E+03  0.13438395996E+03  0.00000000000E+00 0.  1.
         -1    1    1    2    0  502 -0.16847007925E+02 -0.13802460788E+02  0.72385641574E+02  0.75591075571E+02  0.00000000000E+00 0.  1.
<scales pt_clust_5="13000.00000" pt_clust_6="13000.00000" pt_clust_7="13000.00000" pt_clust_8="13000.00000" pt_clust_9="21.77911"></scales>
<clustering>
<clus scale="   21.779">  1  9  2 -1</clus>
<clus scale="   90.651">  5  6 -1 -1</clus>
<clus scale="   98.112">  2  5  1 -1</clus>
<clus scale="  106.547">  7  8 -1 -1</clus>
<clus scale="   21.779">  1  5  2 -1</clus>
</clustering>
</event>
<event>
 9    1  0.1610296E-005  0.1434805E+03  0.7546771E-02  0.1209201E+00
         21   -1    0    0  501  502  0.00000000000E+00  0.00000000000E+00  0.13623686391E+03  0.13623686391E+03  0.00000000000E+00 0. -1.
          2   -1    0    0  502    0 -0.00000000000E+00 -0.00000000000E+00 -0.40533575492E+03  0.40533575492E+03  0.00000000000E+00 0. -1.
         23    2    1    2    0    0  0.57229884063E+02 -0.10073494482E+03 -0.28901911550E+03  0.32525980387E+03  0.94016499365E+02 0.  0.
         23    2    1    2    0    0 -0.43967238103E+02  0.79164383319E+02 -0.52796333660E+02  0.13931356348E+03  0.91764364049E+02 0.  0.
        -11    1    4    4    0    0 -0.42628704797E+02  0.43627914614E+02 -0.75546636363E+02  0.97097351519E+02  0.00000000000E+00 0.  1.
         11    1    4    4    0    0 -0.13385333060E+01  0.35536468705E+02  0.22750302703E+02  0.42216211963E+02  0.00000000000E+00 0. -1.
        -13    1    3    3    0    0  0.11317287006E+02 -0.45510391542E+02 -0.28174154488E+02  0.54708863126E+02  0.00000000000E+00 0.  1.
         13    1    3    3    0    0  0.45912597057E+02 -0.55224553274E+02 -0.26084496101E+03  0.27055094074E+03  0.00000000000E+00 0. -1.
          2    1    1    2  501    0 -0.13262645960E+02  0.21570561497E+02  0.72716558140E+02  0.76999251483E+02  0.00000000000E+00 0. -1.
<scales pt_clust_5="13000.00000" pt_clust_6="13000.00000" pt_clust_7="13000.00000" pt_clust_8="13000.00000" pt_clust_9="25.32167"></scales>
<clustering>
<clus scale="   25.322">  1  9  2 -1</clus>
<clus scale="   91.764">  5  6 -1 -1</clus>
<clus scale="   94.016">  7  8 -1 -1</clus>
<clus scale="  142.015">  1  5  2 -1</clus>
<clus scale="   25.322">  1  5  2 -1</clus>
</clustering>
</event>
<event>
 9    1  0.1610296E-005  0.1071425E+03  0.7546771E-02  0.1271168E+00
         -1   -1    0    0    0  501 -0.00000000000E+00  0.00000000000E+00  0.67823764745E+03  0.67823764745E+03  0.00000000000E+00 0.  1.
         21   -1    0    0  501  502  0.00000000000E+00 -0.00000000000E+00 -0.27392523035E+02  0.27392523035E+02  0.00000000000E+00 0. -1.
         23    2    1    2    0    0  0.55355913232E+02  0.12518602006E+02  0.38835836745E+03  0.40142156728E+03  0.84238118352E+02 0.  0.
         23    2    1    2    0    0 -0.34183647720E+02 -0.59707786024E+01  0.26295805160E+03  0.28204194047E+03  0.95898630425E+02 0.  0.
        -11    1    4    4    0    0 -0.44978166965E+02 -0.28948349799E+02  0.24543223620E+03  0.25119320259E+03  0.00000000000E+00 0.  1.
         11    1    4    4    0    0  0.10794519245E+02  0.22977571197E+02  0.17525815397E+02  0.30848737886E+02  0.00000000000E+00 0. -1.
        -11    1    3    3    0    0 -0.13823294817E+02 -0.18210916729E+02  0.13761045080E+03  0.13949679974E+03  0.00000000000E+00 0.  1.
         11    1    3    3    0    0  0.69179208049E+02  0.30729518735E+02  0.25074791665E+03  0.26192476754E+03  0.00000000000E+00 0. -1.
         -1    1    1    2    0  502 -0.21172265512E+02 -0.65478234039E+01 -0.47129462770E+00  0.22166662737E+02  0.00000000000E+00 0.  1.
<scales pt_clust_5="13000.00000" pt_clust_6="13000.00000" pt_clust_7="13000.00000" pt_clust_8="13000.00000" pt_clust_9="22.16165"></scales>
<clustering>
<clus scale="   22.162">  2  9  1 -1</clus>
<clus scale="   84.238">  7  8 -1 -1</clus>
<clus scale="   95.899">  5  6 -1 -1</clus>
<clus scale="   96.845">  1  7  2 -1</clus>
<clus scale="   22.162">  2  5  1 -1</clus>
</clustering>
</event>
<event>
 9    1  0.1610296E-005  0.9522451E+02  0.7546771E-02  0.1291104E+00
         -1   -1    0    0    0  501 -0.00000000000E+00  0.00000000000E+00  0.19823420931E+03  0.19823420931E+03  0.00000000000E+00 0.  1.
         21   -1    0    0  501  502  0.00000000000E+00 -0.00000000000E+00 -0.28472735737E+03  0.28472735737E+03  0.00000000000E+00 0.  1.
         23    2    1    2    0    0 -0.23177763785E+02 -0.95426599515E+01  0.16127168261E+03  0.18746311777E+03  0.92225776321E+02 0.  0.
         23    2    1    2    0    0  0.19742689518E+02 -0.15415073821E+02 -0.74932796495E+02  0.12083992423E+03  0.91432844244E+02 0.  0.
        -11    1    3    3    0    0  0.19534892359E+02 -0.21949984342E+02  0.12058676846E+02  0.31762013780E+02  0.00000000000E+00 0. -1.
         11    1    3    3    0    0 -0.42712656144E+02  0.12407324391E+02  0.14921300577E+03  0.15570110399E+03  0.00000000000E+00 0.  1.
        -13    1    4    4    0    0  0.54183217197E+02 -0.19721260045E+02 -0.59498650128E+02  0.82854320893E+02  0.00000000000E+00 0. -1.
         13    1    4    4    0    0 -0.34440527679E+02  0.43061862243E+01 -0.15434146367E+02  0.37985603335E+02  0.00000000000E+00 0.  1.
         -1    1    1    2    0  502  0.34350742671E+01  0.24957733772E+02 -0.17283203418E+03  0.17465852469E+03  0.00000000000E+00 0.  1.
<scales pt_clust_5="13000.00000" pt_clust_6="13000.00000" pt_clust_7="13000.00000" pt_clust_8="13000.00000" pt_clust_9="25.19302"></scales>
<clustering>
<clus scale="   25.193">  2  9  1 -1</clus>
<clus scale="   91.433">  7  8 -1 -1</clus>
<clus scale="   92.226">  5  6 -1 -1</clus>
<clus scale="   94.457">  2  7  1 -1</clus>
<clus scale="   25.193">  2  5  1 -1</clus>
</clustering>
</event>
<event>
 9    1  0.1610296E-005  0.1094687E+03  0.7546771E-02  0.1262460E+00
         21   -1    0    0  501  502  0.00000000000E+00  0.00000000000E+00  0.55438691295E+02  0.55438691295E+02  0.00000000000E+00 0. -1.
          1   -1    0    0  502    0 -0.00000000000E+00 -0.00000000000E+00 -0.41158015074E+03  0.41158015074E+03  0.00000000000E+00 0. -1.
         23    2    1    2    0    0  0.55236573714E+02 -0.17604027860E+02 -0.19168940963E+03  0.22096957095E+03  0.93390259931E+02 0.  0.
         23    2    1    2    0    0 -0.24329802472E+02  0.67353936240E+02 -0.14206698221E+03  0.18334860805E+03  0.91132829567E+02 0.  0.
        -11    1    4    4    0    0 -0.37204357718E+02  0.85547818202E+02 -0.11986864608E+03  0.15189169084E+03  0.00000000000E+00 0. -1.
         11    1    4    4    0    0  0.12874555246E+02 -0.18193881963E+02 -0.22198336132E+02  0.31456917215E+02  0.00000000000E+00 0.  1.
        -11    1    3    3    0    0  0.48982436389E+02  0.27962623246E+02 -0.14429561147E+03  0.15492711468E+03  0.00000000000E+00 0. -1.
         11    1    3    3    0    0  0.62541373248E+01 -0.45566651106E+02 -0.47393798166E+02  0.66042456278E+02  0.00000000000E+00 0.  1.
          1    1    1    2  501    0 -0.30906771242E+02 -0.49749908380E+02 -0.22385067599E+02  0.62700663025E+02  0.00000000000E+00 0. -1.
<scales pt_clust_5="13000.00000" pt_clust_6="13000.00000" pt_clust_7="13000.00000" pt_clust_8="13000.00000" pt_clust_9="58.56861"></scales>
<clustering>
<clus scale="   58.569">  1  9  2 -1</clus>
<clus scale="   91.133">  5  6 -1 -1</clus>
<clus scale="   93.390">  7  8 -1 -1</clus>
<clus scale="  107.549">  1  5  2 -1</clus>
<clus scale="   58.569">  1  5  2 -1</clus>
</clustering>
</event>
<event>
 9    1  0.1610296E-005  0.4405772E+03  0.7546771E-02  0.1030725E+00
         21   -1    0    0  501  502  0.00000000000E+00  0.00000000000E+00  0.17165690476E+03  0.17165690476E+03  0.00000000000E+00 0. -1.
          1   -1    0    0  502    0 -0.00000000000E+00 -0.00000000000E+00 -0.19700197533E+04  0.19700197533E+04  0.00000000000E+00 0. -1.
         23    2    1    2    0    0  0.43195346275E+03 -0.29904611145E+02 -0.15511645739E+04  0.16131034125E+04  0.92265944547E+02 0.  0.
         23    2    1    2    0    0 -0.41965760231E+03  0.50265506081E+02 -0.25854447681E+03  0.50222005731E+03  0.82101249666E+02 0.  0.
        -11    1    4    4    0    0 -0.88619395640E+02  0.10546507541E+02 -0.17868591499E+02  0.91016002258E+02  0.00000000000E+00 0.  1.
         11    1    4    4    0    0 -0.33103820667E+03  0.39718998540E+02 -0.24067588531E+03  0.41120405505E+03  0.00000000000E+00 0. -1.
        -13    1    3    3    0    0  0.58852537432E+02 -0.59919569807E+00 -0.11777807844E+03  0.13166493823E+03  0.00000000000E+00 0.  1.
         13    1    3    3    0    0  0.37310092532E+03 -0.29305415447E+02 -0.14333864954E+04  0.14814384743E+04  0.00000000000E+00 0. -1.
          1    1    1    2  501    0 -0.12295860442E+02 -0.20360894935E+02  0.11346202134E+02  0.26353188221E+02  0.00000000000E+00 0. -1.
<scales pt_clust_5="13000.00000" pt_clust_6="13000.00000" pt_clust_7="13000.00000" pt_clust_8="13000.00000" pt_clust_9="23.78559"></scales>
<clustering>
<clus scale="   23.786">  1  9  2 -1</clus>
<clus scale="   82.101">  5  6 -1 -1</clus>
<clus scale="   92.266">  7  8 -1 -1</clus>
<clus scale="  438.561">  1  5  2 -1</clus>
<clus scale="   23.786">  1  5  2 -1</clus>
</clustering>
</event>
<event>
 9    1  0.1610296E-005  0.1042644E+03  0.7546771E-02  0.1273038E+00
         21   -1    0    0  501  502  0.00000000000E+00  0.00000000000E+00  0.30973701497E+02  0.30973701497E+02  0.00000000000E+00 0. -1.
          3   -1    0    0  502    0 -0.00000000000E+00 -0.00000000000E+00 -0.51560825307E+03  0.51560825307E+03  0.00000000000E+00 0. -1.
         23    2    1    2    0    0 -0.14806123807E+02 -0.41981858013E+02 -0.26546816138E+03  0.28365863891E+03  0.89482853191E+02 0.  0.
         23    2    1    2    0    0 -0.47152450079E+01  0.54427697664E+02 -0.21347945538E+03  0.23908376883E+03  0.92752158159E+02 0.  0.
        -13    1    3    3    0    0 -0.37583437404E+02 -0.54447291644E+01 -0.21018057142E+03  0.21358378319E+03  0.00000000000E+00 0. -1.
         13    1    3    3    0    0  0.22777313596E+02 -0.36537128848E+02 -0.55287589968E+02  0.70074855716E+02  0.00000000000E+00 0.  1.
        -13    1    4    4    0    0 -0.37424509342E+02  0.20793594329E+02 -0.16933772362E+03  0.17466605882E+03  0.00000000000E+00 0.  1.
         13    1    4    4    0    0  0.32709264334E+02  0.33634103335E+02 -0.44141731762E+02  0.64417710014E+02  0.00000000000E+00 0. -1.
          3    1    1    2  501    0  0.19521368815E+02 -0.12445839652E+02 -0.56869348087E+01  0.23839546820E+02  0.00000000000E+00 0. -1.
<scales pt_clust_5="13000.00000" pt_clust_6="13000.00000" pt_clust_7="13000.00000" pt_clust_8="13000.00000" pt_clust_9="23.15130"></scales>
<clustering>
<clus scale="   23.151">  1  9  2 -1</clus>
<clus scale="   89.483">  5  6 -1 -1</clus>
<clus scale="   92.752">  7  8 -1 -1</clus>
<clus scale="  101.367">  2  5  1 -1</clus>
<clus scale="   23.151">  1  5  2 -1</clus>
</clustering>
</event>
<event>
 9    1  0.1610296E-005  0.1670062E+03  0.7546771E-02  0.1181336E+00
         21   -1    0    0  501  502  0.00000000000E+00  0.00000000000E+00  0.65046284426E+02  0.65046284426E+02  0.00000000000E+00 0.  1.
          1   -1    0    0  502    0 -0.00000000000E+00 -0.00000000000E+00 -0.60930817307E+03  0.60930817307E+03  0.00000000000E+00 0. -1.
         23    2    1    2    0    0 -0.20120986084E+02  0.13793953582E+03 -0.38054946711E+03  0.41523519872E+03  0.90389179214E+02 0.  0.
         23    2    1    2    0    0 -0.98114611359E+01 -0.13988875806E+03 -0.15297782856E+03  0.22726047113E+03  0.92628161527E+02 0.  0.
        -13    1    4    4    0    0 -0.19523115746E+02 -0.71515926063E+02 -0.13791672227E+03  0.15657810195E+03  0.00000000000E+00 0. -1.
         13    1    4    4    0    0  0.97116546098E+01 -0.68372831994E+02 -0.15061106289E+02  0.70682369179E+02  0.00000000000E+00 0.  1.
        -13    1    3    3    0    0  0.30794022413E+02  0.91905164756E+02 -0.20559229841E+03  0.22729501598E+03  0.00000000000E+00 0.  1.
         13    1    3    3    0    0 -0.50915008496E+02  0.46034371063E+02 -0.17495716870E+03  0.18794018274E+03  0.00000000000E+00 0. -1.
          1    1    1    2  501    0  0.29932447220E+02  0.19492222372E+01 -0.10734592981E+02  0.31858787647E+02  0.00000000000E+00 0. -1.
<scales pt_clust_5="13000.00000" pt_clust_6="13000.00000" pt_clust_7="13000.00000" pt_clust_8="13000.00000" pt_clust_9="29.99585"></scales>
<clustering>
<clus scale="   29.996">  1  9  2 -1</clus>
<clus scale="   90.389">  7  8 -1 -1</clus>
<clus scale="   92.628">  5  6 -1 -1</clus>
<clus scale="  165.775">  2  7  1 -1</clus>
<clus scale="   29.996">  1  5  2 -1</clus>
</clustering>
</event>
<event>
 9    1  0.1610296E-005  0.1182990E+03  0.7546771E-02  0.1245992E+00
          1   -1    0    0  502    0 -0.00000000000E+00  0.00000000000E+00  0.56686060591E+03  0.56686060591E+03  0.00000000000E+00 0. -1.
         21   -1    0    0  501  502  0.00000000000E+00 -0.00000000000E+00 -0.39548006574E+02  0.39548006574E+02  0.00000000000E+00 0. -1.
         23    2    1    2    0    0  0.26394059024E+02  0.77589160919E+02  0.34497479207E+03  0.36624348261E+03  0.91705818516E+02 0.  0.
         23    2    1    2    0    0 -0.87987435911E+01 -0.63718688613E+02  0.18625072311E+03  0.21742098694E+03  0.91897032238E+02 0.  0.
        -11    1    3    3    0    0  0.22913844141E+02  0.57694649678E+02  0.33975974783E+03  0.34538442800E+03  0.00000000000E+00 0. -1.
         11    1    3    3    0    0  0.34802148823E+01  0.19894511241E+02  0.52150442374E+01  0.20859054618E+02  0.00000000000E+00 0.  1.
        -13    1    4    4    0    0  0.31743668407E+02 -0.48121035038E+02  0.15049588249E+03  0.16115925398E+03  0.00000000000E+00 0.  1.
         13    1    4    4    0    0 -0.40542411998E+02 -0.15597653575E+02  0.35754840626E+02  0.56261732962E+02  0.00000000000E+00 0. -1.
          1    1    1    2  501    0 -0.17595315433E+02 -0.13870472306E+02 -0.39129158485E+01  0.22744142929E+02  0.00000000000E+00 0. -1.
<scales pt_clust_5="13000.00000" pt_clust_6="13000.00000" pt_clust_7="13000.00000" pt_clust_8="13000.00000" pt_clust_9="22.40502"></scales>
<clustering>
<clus scale="   22.405">  2  9  1 -1</clus>
<clus scale="   91.706">  5  6 -1 -1</clus>
<clus scale="   91.897">  7  8 -1 -1</clus>
<clus scale="  118.151">  1  5  2 -1</clus>
<clus scale="   22.405">  2  5  1 -1</clus>
</clustering>
</event>
<event>
 9    1  0.1610296E-005  0.1088278E+03  0.7546771E-02  0.1263936E+00
          1   -1    0    0  502    0 -0.00000000000E+00  0.00000000000E+00  0.72508489873E+02  0.72508489873E+02  0.00000000000E+00 0. -1.
         21   -1    0    0  501  502  0.00000000000E+00 -0.00000000000E+00 -0.23063971632E+03  0.23063971632E+03  0.00000000000E+00 0. -1.
         23    2    1    2    0    0  0.46060979243E+02  0.55020194377E+02 -0.48910217350E+02  0.12809724667E+03  0.94169313718E+02 0.  0.
         23    2    1    2    0    0 -0.28700342418E+02 -0.23680660930E+02 -0.64752502184E+02  0.11794573931E+03  0.91289799684E+02 0.  0.
        -11    1    3    3    0    0  0.55887865311E+02 -0.17072315995E+01 -0.42371331190E+02  0.70154813346E+02  0.00000000000E+00 0.  1.
         11    1    3    3    0    0 -0.98268860683E+01  0.56727425977E+02 -0.65388861602E+01  0.57942433328E+02  0.00000000000E+00 0. -1.
        -11    1    4    4    0    0 -0.48121579435E+02  0.17137026464E+02 -0.46896011350E+02  0.69344069422E+02  0.00000000000E+00 0. -1.
         11    1    4    4    0    0  0.19421237017E+02 -0.40817687394E+02 -0.17856490833E+02  0.48601669893E+02  0.00000000000E+00 0.  1.
          1    1    1    2  501    0 -0.17360636825E+02 -0.31339533447E+02 -0.44468506917E+02  0.57105220208E+02  0.00000000000E+00 0. -1.
<scales pt_clust_5="13000.00000" pt_clust_6="13000.00000" pt_clust_7="13000.00000" pt_clust_8="13000.00000" pt_clust_9="35.82678"></scales>
<clustering>
<clus scale="   35.827">  2  9  1 -1</clus>
<clus scale="   91.290">  7  8 -1 -1</clus>
<clus scale="   94.169">  5  6 -1 -1</clus>
<clus scale="  106.346">  2  7  1 -1</clus>
<clus scale="   35.827">  2  5  1 -1</clus>
</clustering>
</event>
<event>
 9    1  0.1610296E-005  0.2472558E+03  0.7546771E-02  0.1115322E+00
         21   -1    0    0  501  502  0.00000000000E+00  0.00000000000E+00  0.25672150990E+03  0.25672150990E+03  0.00000000000E+00 0. -1.
          2   -1    0    0  502    0 -0.00000000000E+00 -0.00000000000E+00 -0.27765697579E+03  0.27765697579E+03  0.00000000000E+00 0. -1.
         23    2    1    2    0    0 -0.24071065882E+03 -0.30660415971E+02 -0.36835133744E+02  0.26317645541E+03  0.94991248175E+02 0.  0.
         23    2    1    2    0    0  0.20818881332E+03  0.48911735261E+02  0.47319966219E+01  0.23227263302E+03  0.90516542234E+02 0.  0.
        -11    1    4    4    0    0  0.10626501606E+03 -0.14128306716E+02 -0.22117881579E+02  0.10945804390E+03  0.00000000000E+00 0.  1.
         11    1    4    4    0    0  0.10192379727E+03  0.63040041977E+02  0.26849878201E+02  0.12281458912E+03  0.00000000000E+00 0. -1.
        -13    1    3    3    0    0 -0.18981306321E+03  0.16640099909E+02 -0.19308025068E+02  0.19151681838E+03  0.00000000000E+00 0. -1.
         13    1    3    3    0    0 -0.50897595605E+02 -0.47300515880E+02 -0.17527108676E+02  0.71659637031E+02  0.00000000000E+00 0.  1.
          2    1    1    2  501    0  0.32521845492E+02 -0.18251319289E+02  0.11167671241E+02  0.38929397259E+02  0.00000000000E+00 0. -1.
<scales pt_clust_5="13000.00000" pt_clust_6="13000.00000" pt_clust_7="13000.00000" pt_clust_8="13000.00000" pt_clust_9="37.29318"></scales>
<clustering>
<clus scale="   37.293">  1  9  2 -1</clus>
<clus scale="   90.517">  5  6 -1 -1</clus>
<clus scale="   94.991">  7  8 -1 -1</clus>
<clus scale="  245.571">  1  5  2 -1</clus>
<clus scale="   37.293">  1  5  2 -1</clus>
</clustering>
</event>
<event>
 9    1  0.1610296E-005  0.1483977E+03  0.7546771E-02  0.1202594E+00
         21   -1    0    0  501  502  0.00000000000E+00  0.00000000000E+00  0.17616398195E+04  0.17616398195E+04  0.00000000000E+00 0. -1.
         -2   -1    0    0    0  501 -0.00000000000E+00 -0.00000000000E+00 -0.32636610591E+02  0.32636610591E+02  0.00000000000E+00 0.  1.
         23    2    1    2    0    0 -0.89815502697E+02 -0.57774040271E+02  0.22553325416E+03  0.26605596529E+03  0.92281437339E+02 0.  0.
         23    2    1    2    0    0  0.16551790151E+03  0.23211992199E+02  0.10245619142E+04  0.10421358018E+04  0.91569323275E+02 0.  0.
        -11    1    4    4    0    0  0.27239581020E+02  0.41204899802E+02  0.21053546729E+03  0.21625221740E+03  0.00000000000E+00 0.  1.
         11    1    4    4    0    0  0.13827832049E+03 -0.17992907602E+02  0.81402644696E+03  0.82588358440E+03  0.00000000000E+00 0. -1.
        -13    1    3    3    0    0 -0.67215417306E+02 -0.30826690373E+01  0.59600602310E+02  0.89886856479E+02  0.00000000000E+00 0. -1.
         13    1    3    3    0    0 -0.22600085391E+02 -0.54691371234E+02  0.16593265185E+03  0.17616910881E+03  0.00000000000E+00 0.  1.
         -2    1    1    2    0  502 -0.75702398815E+02  0.34562048072E+02  0.47890804046E+03  0.48608466296E+03  0.00000000000E+00 0.  1.
<scales pt_clust_5="13000.00000" pt_clust_6="13000.00000" pt_clust_7="13000.00000" pt_clust_8="13000.00000" pt_clust_9="83.21892"></scales>
<clustering>
<clus scale="   83.219">  1  9  2 -1</clus>
<clus scale="   91.569">  5  6 -1 -1</clus>
<clus scale="   92.281">  7  8 -1 -1</clus>
<clus scale="  147.956">  1  5  2 -1</clus>
<clus scale="   83.219">  1  5  2 -1</clus>
</clustering>
</event>
<event>
 9    1  0.1610296E-005  0.9613760E+02  0.7546771E-02  0.1290500E+00
         21   -1    0    0  501  502  0.00000000000E+00  0.00000000000E+00  0.14393563838E+03  0.14393563838E+03  0.00000000000E+00 0.  1.
          1   -1    0    0  502    0 -0.00000000000E+00 -0.00000000000E+00 -0.90237027504E+02  0.90237027504E+02  0.00000000000E+00 0. -1.
         23    2    1    2    0    0  0.55029201561E+00  0.60697787524E+01 -0.11202484739E+01  0.96209081204E+02  0.96009308476E+02 0.  0.
         23    2    1    2    0    0  0.10849356520E+02  0.11101500422E+02  0.17900142605E+02  0.95681242487E+02  0.92701311803E+02 0.  0.
        -11    1    4    4    0    0 -0.51140810706E+01  0.34469240876E+02 -0.25980948861E+02  0.43465987801E+02  0.00000000000E+00 0. -1.
         11    1    4    4    0    0  0.15963437591E+02 -0.23367740454E+02  0.43881091467E+02  0.52215254686E+02  0.00000000000E+00 0.  1.
        -13    1    3    3    0    0 -0.31247824762E+02  0.37683679573E+02  0.10105261798E+02  0.49986023792E+02  0.00000000000E+00 0. -1.
         13    1    3    3    0    0  0.31798116777E+02 -0.31613900821E+02 -0.11225510271E+02  0.46223057412E+02  0.00000000000E+00 0.  1.
          1    1    1    2  501    0 -0.11399648536E+02 -0.17171279175E+02  0.36918716741E+02  0.42282342189E+02  0.00000000000E+00 0. -1.
<scales pt_clust_5="13000.00000" pt_clust_6="13000.00000" pt_clust_7="13000.00000" pt_clust_8="13000.00000" pt_clust_9="20.61079"></scales>
<clustering>
<clus scale="   20.611">  1  9  2 -1</clus>
<clus scale="   92.701">  5  6 -1 -1</clus>
<clus scale="   92.834">  1  5  2 -1</clus>
<clus scale="   96.009">  7  8 -1 -1</clus>
<clus scale="   20.611">  1  5  2 -1</clus>
</clustering>
</event>
<event>
 9    1  0.1610296E-005  0.1070491E+03  0.7546771E-02  0.1266926E+00
         21   -1    0    0  501  502  0.00000000000E+00  0.00000000000E+00  0.12604766021E+03  0.12604766021E+03  0.00000000000E+00 0.  1.
          1   -1    0    0  502    0 -0.00000000000E+00 -0.00000000000E+00 -0.26786461967E+03  0.26786461967E+03  0.00000000000E+00 0. -1.
         23    2    1    2    0    0  0.41338239301E+02  0.23365274234E+02 -0.15474561714E+03  0.18427539842E+03  0.88070598784E+02 0.  0.
         23    2    1    2    0    0 -0.10336958862E+03 -0.43831433873E+02  0.81808061053E+01  0.14414417895E+03  0.90023065331E+02 0.  0.
        -11    1    4    4    0    0 -0.70659741516E+02 -0.71876047055E+02  0.42994755655E+01  0.10088335195E+03  0.00000000000E+00 0.  1.
         11    1    4    4    0    0 -0.32709847099E+02  0.28044613183E+02  0.38813305399E+01  0.43260826999E+02  0.00000000000E+00 0. -1.
        -11    1    3    3    0    0  0.74756443457E+01  0.26062260608E+02 -0.13320468340E+01  0.27145921152E+02  0.00000000000E+00 0.  1.
         11    1    3    3    0    0  0.33862594956E+02 -0.26969863741E+01 -0.15341357030E+03  0.15712947727E+03  0.00000000000E+00 0. -1.
          1    1    1    2  501    0  0.62031349314E+02  0.20466159638E+02  0.47478515704E+01  0.65492702514E+02  0.00000000000E+00 0. -1.
<scales pt_clust_5="13000.00000" pt_clust_6="13000.00000" pt_clust_7="13000.00000" pt_clust_8="13000.00000" pt_clust_9="65.32038"></scales>
<clustering>
<clus scale="   65.320">  1  9  2 -1</clus>
<clus scale="   88.071">  7  8 -1 -1</clus>
<clus scale="   90.023">  5  6 -1 -1</clus>
<clus scale="  105.413">  2  7  1 -1</clus>
<clus scale="   65.320">  1  5  2 -1</clus>
</clustering>
</event>
<event>
 9    1  0.1610296E-005  0.1114647E+03  0.7546771E-02  0.1258890E+00
         21   -1    0    0  501  502  0.00000000000E+00  0.00000000000E+00  0.25214679586E+03  0.25214679586E+03  0.00000000000E+00 0.  1.
         -4   -1    0    0    0  501 -0.00000000000E+00 -0.00000000000E+00 -0.11041567797E+03  0.11041567797E+03  0.00000000000E+00 0.  1.
         23    2    1    2    0    0  0.42358042861E+02 -0.46629845498E+02 -0.52812194594E+02  0.12542824938E+03  0.94734215351E+02 0.  0.
         23    2    1    2    0    0 -0.22394969259E+02  0.38015474213E+02  0.11121573082E+03  0.15101676069E+03  0.92143433297E+02 0.  0.
        -11    1    4    4    0    0 -0.51698272944E+02  0.30680884250E+02  0.10373704198E+03  0.11989746437E+03  0.00000000000E+00 0. -1.
         11    1    4    4    0    0  0.29303303685E+02  0.73345899628E+01  0.74786888429E+01  0.31119296322E+02  0.00000000000E+00 0.  1.
        -13    1    3    3    0    0  0.67853718695E+02 -0.38217278709E+02 -0.15407312793E+02  0.79385595798E+02  0.00000000000E+00 0.  1.
         13    1    3    3    0    0 -0.25495675834E+02 -0.84125667894E+01 -0.37404881801E+02  0.46042653581E+02  0.00000000000E+00 0. -1.
         -4    1    1    2    0  502 -0.19963073602E+02  0.86143712854E+01  0.83327581660E+02  0.86117463767E+02  0.00000000000E+00 0.  1.
<scales pt_clust_5="13000.00000" pt_clust_6="13000.00000" pt_clust_7="13000.00000" pt_clust_8="13000.00000" pt_clust_9="21.74239"></scales>
<clustering>
<clus scale="   21.742">  1  9  2 -1</clus>
<clus scale="   92.143">  5  6 -1 -1</clus>
<clus scale="   94.734">  7  8 -1 -1</clus>
<clus scale="  109.271">  1  5  2 -1</clus>
<clus scale="   21.742">  1  5  2 -1</clus>
</clustering>
</event>
<event>
 9    1  0.1610296E-005  0.9389440E+02  0.7546771E-02  0.1295461E+00
         21   -1    0    0  501  502  0.00000000000E+00  0.00000000000E+00  0.23891385880E+03  0.23891385880E+03  0.00000000000E+00 0.  1.
          1   -1    0    0  502    0 -0.00000000000E+00 -0.00000000000E+00 -0.10379741616E+03  0.10379741616E+03  0.00000000000E+00 0. -1.
         23    2    1    2    0    0  0.67108508492E+01 -0.13240897945E+02 -0.58708565304E+02  0.11104219141E+03  0.93076934503E+02 0.  0.
         23    2    1    2    0    0  0.16893931294E+02  0.87331560166E+00  0.17926703355E+03  0.20130335532E+03  0.90001133039E+02 0.  0.
        -11    1    4    4    0    0  0.47100622138E+02 -0.22577959836E+02  0.11855602430E+03  0.12955216623E+03  0.00000000000E+00 0.  1.
         11    1    4    4    0    0 -0.30206690844E+02  0.23451275437E+02  0.60711009250E+02  0.71751189088E+02  0.00000000000E+00 0. -1.
        -13    1    3    3    0    0  0.37857780851E+02  0.18126671473E+02 -0.51197319081E+02  0.66203876554E+02  0.00000000000E+00 0.  1.
         13    1    3    3    0    0 -0.31146930001E+02 -0.31367569418E+02 -0.75112462229E+01  0.44838314860E+02  0.00000000000E+00 0. -1.
          1    1    1    2  501    0 -0.23604782143E+02  0.12367582343E+02  0.14557974390E+02  0.30365728237E+02  0.00000000000E+00 0. -1.
<scales pt_clust_5="13000.00000" pt_clust_6="13000.00000" pt_clust_7="13000.00000" pt_clust_8="13000.00000" pt_clust_9="26.64851"></scales>
<clustering>
<clus scale="   26.649">  1  9  2 -1</clus>
<clus scale="   90.001">  5  6 -1 -1</clus>
<clus scale="   90.846">  1  5  2 -1</clus>
<clus scale="   93.077">  7  8 -1 -1</clus>
<clus scale="   26.649">  1  5  2 -1</clus>
</clustering>
</event>
<event>
 9    1  0.1610296E-005  0.1067885E+03  0.7546771E-02  0.1267126E+00
          1   -1    0    0  502    0 -0.00000000000E+00  0.00000000000E+00  0.59414587770E+03  0.59414587770E+03  0.00000000000E+00 0. -1.
         21   -1    0    0  501  502  0.00000000000E+00 -0.00000000000E+00 -0.75112277442E+02  0.75112277442E+02  0.00000000000E+00 0. -1.
         23    2    1    2    0    0  0.50008781601E+01  0.40487404816E+02  0.39934784857E+03  0.41227066761E+03  0.93937002710E+02 0.  0.
         23    2    1    2    0    0 -0.27575321143E+02 -0.83408030655E+02  0.15210824813E+03  0.19865221626E+03  0.92781926918E+02 0.  0.
        -11    1    3    3    0    0 -0.24965556537E+02  0.60421375642E+02  0.22823127842E+03  0.23741006318E+03  0.00000000000E+00 0. -1.
         11    1    3    3    0    0  0.29966434697E+02 -0.19933970826E+02  0.17111657015E+03  0.17486060443E+03  0.00000000000E+00 0.  1.
        -13    1    4    4    0    0 -0.20942581656E+02 -0.10371702192E+03  0.11888357934E+03  0.15915124190E+03  0.00000000000E+00 0. -1.
         13    1    4    4    0    0 -0.66327394863E+01  0.20308991263E+02  0.33224668786E+02  0.39500974358E+02  0.00000000000E+00 0.  1.
          1    1    1    2  501    0  0.22574442983E+02  0.42920625840E+02 -0.32422496446E+02  0.58335271271E+02  0.00000000000E+00 0. -1.
<scales pt_clust_5="13000.00000" pt_clust_6="13000.00000" pt_clust_7="13000.00000" pt_clust_8="13000.00000" pt_clust_9="48.49521"></scales>
<clustering>
<clus scale="   48.495">  2  9  1 -1</clus>
<clus scale="   92.782">  7  8 -1 -1</clus>
<clus scale="   93.937">  5  6 -1 -1</clus>
<clus scale="  105.774">  2  7  1 -1</clus>
<clus scale="   48.495">  2  5  1 -1</clus>
</clustering>
</event>
<event>
 9    1  0.1610296E-005  0.9629059E+02  0.7546771E-02  0.1288683E+00
         21   -1    0    0  501  502  0.00000000000E+00  0.00000000000E+00  0.16729110307E+03  0.16729110307E+03  0.00000000000E+00 0. -1.
         -1   -1    0    0    0  501 -0.00000000000E+00 -0.00000000000E+00 -0.25570155866E+03  0.25570155866E+03  0.00000000000E+00 0.  1.
         23    2    1    2    0    0  0.12335028030E+02  0.14273705366E+02 -0.16627731714E+03  0.19059924566E+03  0.91236147833E+02 0.  0.
         23    2    1    2    0    0 -0.70325996360E+02 -0.23450789918E+02 -0.18483960593E+02  0.11956322412E+03  0.91967507583E+02 0.  0.
        -11    1    4    4    0    0 -0.53329141848E+02 -0.56310389005E+02  0.13895409424E+01  0.77567957973E+02  0.00000000000E+00 0. -1.
         11    1    4    4    0    0 -0.16996854513E+02  0.32859599088E+02 -0.19873501535E+02  0.41995266147E+02  0.00000000000E+00 0.  1.
        -13    1    3    3    0    0  0.47804731392E+02 -0.11657793317E+02 -0.89930530742E+02  0.10251193515E+03  0.00000000000E+00 0.  1.
         13    1    3    3    0    0 -0.35469703362E+02  0.25931498683E+02 -0.76346786394E+02  0.88087310512E+02  0.00000000000E+00 0. -1.
         -1    1    1    2    0  502  0.57990968330E+02  0.91770845519E+01  0.96350822133E+02  0.11283019195E+03  0.00000000000E+00 0.  1.
<scales pt_clust_5="13000.00000" pt_clust_6="13000.00000" pt_clust_7="13000.00000" pt_clust_8="13000.00000" pt_clust_9="58.71262"></scales>
<clustering>
<clus scale="   58.713">  1  9  2 -1</clus>
<clus scale="   91.236">  7  8 -1 -1</clus>
<clus scale="   91.968">  5  6 -1 -1</clus>
<clus scale="   95.592">  2  7  1 -1</clus>
<clus scale="   58.713">  1  5  2 -1</clus>
</clustering>
</event>
<event>
 9    1  0.1610296E-005  0.1007428E+03  0.7546771E-02  0.1279962E+00
         21   -1    0    0  501  502  0.00000000000E+00  0.00000000000E+00  0.24067378925E+03  0.24067378925E+03  0.00000000000E+00 0. -1.
         -3   -1    0    0    0  501 -0.00000000000E+00 -0.00000000000E+00 -0.38043558536E+03  0.38043558536E+03  0.00000000000E+00 0.  1.
         23    2    1    2    0    0 -0.15024268581E+01 -0.39831924709E+02 -0.35794210817E+03  0.37127085296E+03  0.90170138834E+02 0.  0.
         23    2    1    2    0    0 -0.18145138149E+02  0.28357755227E+02  0.18434140914E+03  0.20906163204E+03  0.92690897854E+02 0.  0.
        -11    1    4    4    0    0  0.28336184837E+02 -0.48597583912E+01  0.19864335444E+02  0.34944934474E+02  0.00000000000E+00 0.  1.
         11    1    4    4    0    0 -0.46481322986E+02  0.33217513619E+02  0.16447707370E+03  0.17411669756E+03  0.00000000000E+00 0. -1.
        -13    1    3    3    0    0  0.65931892818E+01  0.28744310757E+02 -0.10208915110E+03  0.10626335360E+03  0.00000000000E+00 0. -1.
         13    1    3    3    0    0 -0.80956161400E+01 -0.68576235466E+02 -0.25585295707E+03  0.26500749936E+03  0.00000000000E+00 0.  1.
         -3    1    1    2    0  502  0.19647565007E+02  0.11474169482E+02  0.33838902923E+02  0.40776889619E+02  0.00000000000E+00 0.  1.
<scales pt_clust_5="13000.00000" pt_clust_6="13000.00000" pt_clust_7="13000.00000" pt_clust_8="13000.00000" pt_clust_9="22.75266"></scales>
<clustering>
<clus scale="   22.753">  1  9  2 -1</clus>
<clus scale="   90.170">  7  8 -1 -1</clus>
<clus scale="   92.691">  5  6 -1 -1</clus>
<clus scale="   98.428">  2  7  1 -1</clus>
<clus scale="   22.753">  1  5  2 -1</clus>
</clustering>
</event>
<event>
 9    1  0.1610296E-005  0.1276313E+03  0.7546771E-02  0.1231104E+00
          1   -1    0    0  502    0 -0.00000000000E+00  0.00000000000E+00  0.92891527789E+03  0.92891527789E+03  0.00000000000E+00 0. -1.
         21   -1    0    0  501  502  0.00000000000E+00 -0.00000000000E+00 -0.49689032840E+02  0.49689032840E+02  0.00000000000E+00 0. -1.
         23    2    1    2    0    0 -0.78312026224E+02  0.48770661672E+02  0.61828188963E+03  0.63166616286E+03  0.90654814314E+02 0.  0.
         23    2    1    2    0    0  0.42913251910E+02 -0.81672928583E+02  0.26839583153E+03  0.29803869096E+03  0.90987496226E+02 0.  0.
        -11    1    3    3    0    0 -0.84298164915E+02  0.55275424949E+01  0.44667220283E+03  0.45459079524E+03  0.00000000000E+00 0. -1.
         11    1    3    3    0    0  0.59861386911E+01  0.43243119177E+02  0.17160968680E+03  0.17707536761E+03  0.00000000000E+00 0.  1.
        -11    1    4    4    0    0 -0.20870273025E+01 -0.64533966422E+02  0.76078034100E+02  0.99784045707E+02  0.00000000000E+00 0. -1.
         11    1    4    4    0    0  0.45000279212E+02 -0.17138962161E+02  0.19231779743E+03  0.19825464525E+03  0.00000000000E+00 0.  1.
          1    1    1    2  501    0  0.35398774314E+02  0.32902266911E+02 -0.74514761133E+01  0.48899456921E+02  0.00000000000E+00 0. -1.
<scales pt_clust_5="13000.00000" pt_clust_6="13000.00000" pt_clust_7="13000.00000" pt_clust_8="13000.00000" pt_clust_9="48.32838"></scales>
<clustering>
<clus scale="   48.328">  2  9  1 -1</clus>
<clus scale="   90.655">  5  6 -1 -1</clus>
<clus scale="   90.987">  7  8 -1 -1</clus>
<clus scale="  127.394">  1  5  2 -1</clus>
<clus scale="   48.328">  2  5  1 -1</clus>
</clustering>
</event>
<event>
 9    1  0.1610296E-005  0.1067251E+03  0.7546771E-02  0.1268107E+00
         -1   -1    0    0    0  501 -0.00000000000E+00  0.00000000000E+00  0.20075395931E+03  0.20075395931E+03  0.00000000000E+00 0.  1.
         21   -1    0    0  501  502  0.00000000000E+00 -0.00000000000E+00 -0.26221783237E+03  0.26221783237E+03  0.00000000000E+00 0.  1.
         23    2    1    2    0    0  0.40632297475E+02  0.52918989690E+02  0.88212882385E+02  0.14334363890E+03  0.91183787626E+02 0.  0.
         23    2    1    2    0    0  0.30619366446E+01 -0.37468358552E+02  0.51031440817E+02  0.11363861871E+03  0.94320063416E+02 0.  0.
        -13    1    3    3    0    0  0.66248572183E+02  0.49043368166E+02  0.47636783526E+02  0.95201829930E+02  0.00000000000E+00 0. -1.
         13    1    3    3    0    0 -0.25616274707E+02  0.38756215240E+01  0.40576098859E+02  0.48141808968E+02  0.00000000000E+00 0.  1.
        -13    1    4    4    0    0 -0.29727951896E+02 -0.36277419240E+02  0.63148790891E+02  0.78661121665E+02  0.00000000000E+00 0.  1.
         13    1    4    4    0    0  0.32789888541E+02 -0.11909393115E+01 -0.12117350074E+02  0.34977497049E+02  0.00000000000E+00 0. -1.
         -1    1    1    2    0  502 -0.43694234120E+02 -0.15450631138E+02 -0.20070819626E+03  0.20598953407E+03  0.00000000000E+00 0.  1.
<scales pt_clust_5="13000.00000" pt_clust_6="13000.00000" pt_clust_7="13000.00000" pt_clust_8="13000.00000" pt_clust_9="46.34553"></scales>
<clustering>
<clus scale="   46.346">  2  9  1 -1</clus>
<clus scale="   91.184">  5  6 -1 -1</clus>
<clus scale="   94.320">  7  8 -1 -1</clus>
<clus scale="  103.964">  1  5  2 -1</clus>
<clus scale="   46.346">  2  5  1 -1</clus>
</clustering>
</event>
<event>
 9    1  0.1610296E-005  0.1074825E+03  0.7546771E-02  0.1266188E+00
         -1   -1    0    0    0  501 -0.00000000000E+00  0.00000000000E+00  0.30532318440E+03  0.30532318440E+03  0.00000000000E+00 0.  1.
         21   -1    0    0  501  502  0.00000000000E+00 -0.00000000000E+00 -0.79767218713E+02  0.79767218713E+02  0.00000000000E+00 0. -1.
         23    2    1    2    0    0 -0.23585371417E+02  0.52080349718E+02  0.22203867207E+03  0.24709339196E+03  0.92115904612E+02 0.  0.
         23    2    1    2    0    0  0.40772965811E+02 -0.34504726083E+02  0.22396951469E+02  0.10700092387E+03  0.89969791653E+02 0.  0.
        -11    1    4    4    0    0  0.48971282137E+02 -0.68603182694E+01 -0.21951461946E+02  0.54102838396E+02  0.00000000000E+00 0. -1.
         11    1    4    4    0    0 -0.81983163265E+01 -0.27644407813E+02  0.44348413415E+02  0.52898085470E+02  0.00000000000E+00 0.  1.
        -11    1    3    3    0    0 -0.22216711256E+02  0.16168958133E+01  0.31959038205E+01  0.22503564436E+02  0.00000000000E+00 0. -1.
         11    1    3    3    0    0 -0.13686601609E+01  0.50463453904E+02  0.21884276825E+03  0.22458982752E+03  0.00000000000E+00 0.  1.
         -1    1    1    2    0  502 -0.17187594394E+02 -0.17575623635E+02 -0.18879657847E+02  0.30996087295E+02  0.00000000000E+00 0.  1.
<scales pt_clust_5="13000.00000" pt_clust_6="13000.00000" pt_clust_7="13000.00000" pt_clust_8="13000.00000" pt_clust_9="24.58284"></scales>
<clustering>
<clus scale="   24.583">  2  9  1 -1</clus>
<clus scale="   89.970">  5  6 -1 -1</clus>
<clus scale="   92.116">  7  8 -1 -1</clus>
<clus scale="  105.649">  2  5  1 -1</clus>
<clus scale="   24.583">  2  5  1 -1</clus>
</clustering>
</event>
<event>
 9    1  0.1610296E-005  0.9358466E+02  0.7546771E-02  0.1295050E+00
         21   -1    0    0  501  502  0.00000000000E+00  0.00000000000E+00  0.18497273935E+03  0.18497273935E+03  0.00000000000E+00 0. -1.
          1   -1    0    0  502    0 -0.00000000000E+00 -0.00000000000E+00 -0.91945164456E+02  0.91945164456E+02  0.00000000000E+00 0. -1.
         23    2    1    2    0    0 -0.88618839428E+01 -0.67402431888E+01 -0.28568100430E+02  0.98111217717E+02  0.93197160979E+02 0.  0.
         23    2    1    2    0    0 -0.12888163612E+02  0.11530728788E+02  0.55088740776E+02  0.10866977951E+03  0.92061333641E+02 0.  0.
        -11    1    3    3    0    0  0.36444048166E+02 -0.18058037965E+02 -0.31316693900E+02  0.51332218915E+02  0.00000000000E+00 0.  1.
         11    1    3    3    0    0 -0.45305932109E+02  0.11317794777E+02  0.27485934707E+01  0.46778998802E+02  0.00000000000E+00 0. -1.
        -13    1    4    4    0    0  0.10701098333E+02  0.40018708768E+02  0.58328126509E+02  0.71541462796E+02  0.00000000000E+00 0.  1.
         13    1    4    4    0    0 -0.23589261945E+02 -0.28487979979E+02 -0.32393857333E+01  0.37128316718E+02  0.00000000000E+00 0. -1.
          1    1    1    2  501    0  0.21750047555E+02 -0.47904855997E+01  0.66506934548E+02  0.70136906575E+02  0.00000000000E+00 0. -1.
<scales pt_clust_5="13000.00000" pt_clust_6="13000.00000" pt_clust_7="13000.00000" pt_clust_8="13000.00000" pt_clust_9="22.27136"></scales>
<clustering>
<clus scale="   22.271">  1  9  2 -1</clus>
<clus scale="   92.061">  7  8 -1 -1</clus>
<clus scale="   92.454">  1  7  2 -1</clus>
<clus scale="   93.197">  5  6 -1 -1</clus>
<clus scale="   22.271">  1  5  2 -1</clus>
</clustering>
</event>
<event>
 9    1  0.1610296E-005  0.9534478E+02  0.7546771E-02  0.1294176E+00
         21   -1    0    0  501  502  0.00000000000E+00  0.00000000000E+00  0.67650715572E+02  0.67650715572E+02  0.00000000000E+00 0.  1.
          1   -1    0    0  502    0 -0.00000000000E+00 -0.00000000000E+00 -0.29872931546E+03  0.29872931546E+03  0.00000000000E+00 0. -1.
         23    2    1    2    0    0  0.14403317368E+02  0.29104089115E+02 -0.23133874556E+03  0.24805406920E+03  0.83418837782E+02 0.  0.
         23    2    1    2    0    0  0.70928107691E+01 -0.26111968345E+02 -0.90799375446E+01  0.94698150546E+02  0.90294803813E+02 0.  0.
        -11    1    4    4    0    0  0.21277111994E+02  0.19034367033E+02  0.23722755330E+02  0.37118617210E+02  0.00000000000E+00 0. -1.
         11    1    4    4    0    0 -0.14184301225E+02 -0.45146335378E+02 -0.32802692875E+02  0.57579533336E+02  0.00000000000E+00 0.  1.
        -11    1    3    3    0    0 -0.25746454147E+02  0.25289736343E+02 -0.17550790778E+03  0.17918001105E+03  0.00000000000E+00 0. -1.
         11    1    3    3    0    0  0.40149771516E+02  0.38143527725E+01 -0.55830837781E+02  0.68874058158E+02  0.00000000000E+00 0.  1.
          1    1    1    2  501    0 -0.21496128137E+02 -0.29921207705E+01  0.93400832148E+01  0.23627811284E+02  0.00000000000E+00 0. -1.
<scales pt_clust_5="13000.00000" pt_clust_6="13000.00000" pt_clust_7="13000.00000" pt_clust_8="13000.00000" pt_clust_9="21.70337"></scales>
<clustering>
<clus scale="   21.703">  1  9  2 -1</clus>
<clus scale="   83.419">  7  8 -1 -1</clus>
<clus scale="   88.860">  2  7  1 -1</clus>
<clus scale="   90.295">  5  6 -1 -1</clus>
<clus scale="   21.703">  1  5  2 -1</clus>
</clustering>
</event>
<event>
 9    1  0.1610296E-005  0.1126910E+03  0.7546771E-02  0.1255777E+00
         21   -1    0    0  501  502  0.00000000000E+00  0.00000000000E+00  0.21843864876E+03  0.21843864876E+03  0.00000000000E+00 0. -1.
          1   -1    0    0  502    0 -0.00000000000E+00 -0.00000000000E+00 -0.17841244990E+03  0.17841244990E+03  0.00000000000E+00 0. -1.
         23    2    1    2    0    0 -0.76837160725E+01 -0.69446435959E+02 -0.12711737251E+03  0.17141043472E+03  0.91328329554E+02 0.  0.
         23    2    1    2    0    0  0.14006303551E+02  0.47861764727E+02  0.68712272886E+02  0.12447238345E+03  0.91022374907E+02 0.  0.
        -11    1    3    3    0    0  0.34415633613E+02 -0.63541319870E+02 -0.85039772378E+02  0.11159613817E+03  0.00000000000E+00 0. -1.
         11    1    3    3    0    0 -0.42099349685E+02 -0.59051160897E+01 -0.42077600128E+02  0.59814296556E+02  0.00000000000E+00 0.  1.
        -13    1    4    4    0    0  0.32907636983E+02 -0.11596693515E+02  0.49098531214E+01  0.35234961756E+02  0.00000000000E+00 0. -1.
         13    1    4    4    0    0 -0.18901333432E+02  0.59458458242E+02  0.63802419765E+02  0.89237421690E+02  0.00000000000E+00 0.  1.
          1    1    1    2  501    0 -0.63225874783E+01  0.21584671232E+02  0.98431298480E+02  0.10096828049E+03  0.00000000000E+00 0. -1.
<scales pt_clust_5="13000.00000" pt_clust_6="13000.00000" pt_clust_7="13000.00000" pt_clust_8="13000.00000" pt_clust_9="22.49162"></scales>
<clustering>
<clus scale="   22.492">  1  9  2 -1</clus>
<clus scale="   91.022">  7  8 -1 -1</clus>
<clus scale="   91.328">  5  6 -1 -1</clus>
<clus scale="  112.443">  1  7  2 -1</clus>
<clus scale="   22.492">  1  5  2 -1</clus>
</clustering>
</event>
<event>
 9    1  0.1610296E-005  0.9222277E+02  0.7546771E-02  0.1297923E+00
          2   -1    0    0  502    0 -0.00000000000E+00  0.00000000000E+00  0.25775930445E+03  0.25775930445E+03  0.00000000000E+00 0. -1.
         21   -1    0    0  501  502  0.00000000000E+00 -0.00000000000E+00 -0.53900686518E+02  0.53900686518E+02  0.00000000000E+00 0.  1.
         23    2    1    2    0    0  0.27600234199E+02 -0.12646232966E+02  0.13261856187E+03  0.16352500918E+03  0.90725109754E+02 0.  0.
         23    2    1    2    0    0  0.17571365472E+01 -0.10674149400E+02  0.60770133980E+02  0.10920793824E+03  0.90090729802E+02 0.  0.
        -11    1    3    3    0    0 -0.30943815525E+02  0.72243463187E+01  0.61992349023E+02  0.69661770265E+02  0.00000000000E+00 0. -1.
         11    1    3    3    0    0  0.58544049724E+02 -0.19870579285E+02  0.70626212846E+02  0.93863238918E+02  0.00000000000E+00 0.  1.
        -13    1    4    4    0    0 -0.32126348341E+02 -0.33426403163E+02  0.47291460553E+02  0.66226195175E+02  0.00000000000E+00 0.  1.
         13    1    4    4    0    0  0.33883484888E+02  0.22752253763E+02  0.13478673427E+02  0.42981743064E+02  0.00000000000E+00 0. -1.
          2    1    1    2  501    0 -0.29357370747E+02  0.23320382366E+02  0.10469922083E+02  0.38927043547E+02  0.00000000000E+00 0. -1.
<scales pt_clust_5="13000.00000" pt_clust_6="13000.00000" pt_clust_7="13000.00000" pt_clust_8="13000.00000" pt_clust_9="37.49261"></scales>
<clustering>
<clus scale="   37.493">  2  9  1 -1</clus>
<clus scale="   90.091">  7  8 -1 -1</clus>
<clus scale="   90.725">  5  6 -1 -1</clus>
<clus scale="   91.599">  2  7  1 -1</clus>
<clus scale="   37.493">  2  5  1 -1</clus>
</clustering>
</event>
<event>
 9    1  0.1610296E-005  0.1053229E+03  0.7546771E-02  0.1272431E+00
          1   -1    0    0  502    0 -0.00000000000E+00  0.00000000000E+00  0.30543732074E+03  0.30543732074E+03  0.00000000000E+00 0. -1.
         21   -1    0    0  501  502  0.00000000000E+00 -0.00000000000E+00 -0.72874456253E+02  0.72874456253E+02  0.00000000000E+00 0. -1.
         23    2    1    2    0    0 -0.83098119637E+00  0.71281310455E+02  0.14728049062E+03  0.19035370829E+03  0.97269088587E+02 0.  0.
         23    2    1    2    0    0 -0.19871970202E+02 -0.50723134066E+01  0.70894907566E+02  0.11711145500E+03  0.90930640654E+02 0.  0.
        -11    1    4    4    0    0  0.26488281922E+02 -0.50659257681E+00  0.64954557413E+02  0.70149698816E+02  0.00000000000E+00 0.  1.
         11    1    4    4    0    0 -0.46360252124E+02 -0.45657208298E+01  0.59403501523E+01  0.46961756181E+02  0.00000000000E+00 0. -1.
        -13    1    3    3    0    0 -0.15047774036E+02  0.92321598100E+02  0.10169145308E+03  0.13816969497E+03  0.00000000000E+00 0. -1.
         13    1    3    3    0    0  0.14216792839E+02 -0.21040287645E+02  0.45589037533E+02  0.52184013318E+02  0.00000000000E+00 0.  1.
          1    1    1    2  501    0  0.20702951399E+02 -0.66208997048E+02  0.14387466306E+02  0.70846613705E+02  0.00000000000E+00 0. -1.
<scales pt_clust_5="13000.00000" pt_clust_6="13000.00000" pt_clust_7="13000.00000" pt_clust_8="13000.00000" pt_clust_9="69.37034"></scales>
<clustering>
<clus scale="   69.370">  2  9  1 -1</clus>
<clus scale="   90.931">  5  6 -1 -1</clus>
<clus scale="   97.269">  7  8 -1 -1</clus>
<clus scale="   99.499">  2  5  1 -1</clus>
<clus scale="   69.370">  2  5  1 -1</clus>
</clustering>
</event>
<event>
 9    1  0.1610296E-005  0.1028478E+03  0.7546771E-02  0.1275102E+00
         -1   -1    0    0    0  501 -0.00000000000E+00  0.00000000000E+00  0.34600037082E+02  0.34600037082E+02  0.00000000000E+00 0.  1.
         21   -1    0    0  501  502  0.00000000000E+00 -0.00000000000E+00 -0.47940700690E+03  0.47940700690E+03  0.00000000000E+00 0.  1.
         23    2    1    2    0    0 -0.44579678525E+02  0.35377472309E+02 -0.10982506398E+03  0.15418557336E+03  0.92047450108E+02 0.  0.
         23    2    1    2    0    0  0.23571728833E+02 -0.16561688612E+02 -0.19368932935E+03  0.21574177102E+03  0.90548547903E+02 0.  0.
        -11    1    3    3    0    0  0.44552799001E+01  0.45396241047E+02 -0.88939485772E+02  0.99954491393E+02  0.00000000000E+00 0.  1.
         11    1    3    3    0    0 -0.49034958425E+02 -0.10018768738E+02 -0.20885578207E+02  0.54231081972E+02  0.00000000000E+00 0. -1.
        -13    1    4    4    0    0  0.12048422947E+01  0.22827940372E+02 -0.74047902361E+01  0.24029095385E+02  0.00000000000E+00 0.  1.
         13    1    4    4    0    0  0.22366886538E+02 -0.39389628984E+02 -0.18628453912E+03  0.19171267563E+03  0.00000000000E+00 0. -1.
         -1    1    1    2    0  502  0.21007949692E+02 -0.18815783698E+02 -0.14129257648E+03  0.14407969960E+03  0.00000000000E+00 0.  1.
<scales pt_clust_5="13000.00000" pt_clust_6="13000.00000" pt_clust_7="13000.00000" pt_clust_8="13000.00000" pt_clust_9="28.20226"></scales>
<clustering>
<clus scale="   28.202">  2  9  1 -1</clus>
<clus scale="   90.549">  7  8 -1 -1</clus>
<clus scale="   92.047">  5  6 -1 -1</clus>
<clus scale="  101.509">  2  7  1 -1</clus>
<clus scale="   28.202">  2  5  1 -1</clus>
</clustering>
</event>
<event>
 9    1  0.1610296E-005  0.1086035E+03  0.7546771E-02  0.1263200E+00
         -2   -1    0    0    0  501 -0.00000000000E+00  0.00000000000E+00  0.31157409404E+03  0.31157409404E+03  0.00000000000E+00 0.  1.
         21   -1    0    0  501  502  0.00000000000E+00 -0.00000000000E+00 -0.76216400401E+02  0.76216400401E+02  0.00000000000E+00 0. -1.
         23    2    1    2    0    0  0.55173590684E+02  0.35300434820E+02  0.21156963152E+03  0.23940222221E+03  0.90892624614E+02 0.  0.
         23    2    1    2    0    0 -0.50405132945E+02  0.60089399983E+01  0.24060893548E+02  0.10680369488E+03  0.90836764879E+02 0.  0.
        -11    1    4    4    0    0  0.21217461592E+02  0.12653158106E+02  0.24611710266E+02  0.34871469264E+02  0.00000000000E+00 0.  1.
         11    1    4    4    0    0 -0.71622594536E+02 -0.66442181074E+01 -0.55081671743E+00  0.71932225612E+02  0.00000000000E+00 0. -1.
        -11    1    3    3    0    0  0.42235578211E+02 -0.16906732852E+02  0.43530744675E+02  0.62965128559E+02  0.00000000000E+00 0. -1.
         11    1    3    3    0    0  0.12938012473E+02  0.52207167672E+02  0.16803888684E+03  0.17643709365E+03  0.00000000000E+00 0.  1.
         -2    1    1    2    0  502 -0.47684577396E+01 -0.41309374818E+02 -0.27283142881E+00  0.41584577358E+02  0.00000000000E+00 0.  1.
<scales pt_clust_5="13000.00000" pt_clust_6="13000.00000" pt_clust_7="13000.00000" pt_clust_8="13000.00000" pt_clust_9="41.58368"></scales>
<clustering>
<clus scale="   41.584">  2  9  1 -1</clus>
<clus scale="   90.837">  5  6 -1 -1</clus>
<clus scale="   90.893">  7  8 -1 -1</clus>
<clus scale="  108.557">  2  5  1 -1</clus>
<clus scale="   41.584">  2  5  1 -1</clus>
</clustering>
</event>
<event>
 9    1  0.1610296E-005  0.2318970E+03  0.7546771E-02  0.1154479E+00
          2   -1    0    0  502    0 -0.00000000000E+00  0.00000000000E+00  0.24667755897E+03  0.24667755897E+03  0.00000000000E+00 0. -1.
         21   -1    0    0  501  502  0.00000000000E+00 -0.00000000000E+00 -0.41833390711E+03  0.41833390711E+03  0.00000000000E+00 0.  1.
         23    2    1    2    0    0  0.18110670041E+01  0.69723001875E+02  0.88032596627E+02  0.14460496352E+03  0.91083919823E+02 0.  0.
         23    2    1    2    0    0 -0.23178654851E+02 -0.24965192587E+03 -0.18458442553E+03  0.32426451238E+03  0.90624112169E+02 0.  0.
        -11    1    3    3    0    0  0.36082867507E+02  0.34453104433E+02  0.77944004201E+01  0.50494974111E+02  0.00000000000E+00 0. -1.
         11    1    3    3    0    0 -0.34271800502E+02  0.35269897442E+02  0.80238196206E+02  0.94109989405E+02  0.00000000000E+00 0.  1.
        -13    1    4    4    0    0 -0.52305489916E+02 -0.10928897758E+03 -0.64493137153E+02  0.13725636464E+03  0.00000000000E+00 0. -1.
         13    1    4    4    0    0  0.29126835065E+02 -0.14036294830E+03 -0.12009128837E+03  0.18700814773E+03  0.00000000000E+00 0.  1.
          2    1    1    2  501    0  0.21367587846E+02  0.17992892400E+03 -0.75104519240E+02  0.19614199018E+03  0.00000000000E+00 0. -1.
<scales pt_clust_5="13000.00000" pt_clust_6="13000.00000" pt_clust_7="13000.00000" pt_clust_8="13000.00000" pt_clust_9="213.45610"></scales>
<clustering>
<clus scale="   90.624">  7  8 -1 -1</clus>
<clus scale="   91.084">  5  6 -1 -1</clus>
<clus scale="  114.721">  1  5  2 -1</clus>
<clus scale="  213.456">  2  9  1 -1</clus>
<clus scale="  213.456">  2  5  1 -1</clus>
</clustering>
</event>
<event>
 9    1  0.1610296E-005  0.1627839E+03  0.7546771E-02  0.1189645E+00
         -1   -1    0    0    0  501 -0.00000000000E+00  0.00000000000E+00  0.58572016716E+03  0.58572016716E+03  0.00000000000E+00 0.  1.
         21   -1    0    0  501  502  0.00000000000E+00 -0.00000000000E+00 -0.82511585014E+02  0.82511585014E+02  0.00000000000E+00 0. -1.
         23    2    1    2    0    0 -0.44416291938E+02 -0.10636863274E+03  0.37687924753E+03  0.40451358894E+03  0.91138265249E+02 0.  0.
         23    2    1    2    0    0  0.98270280461E+02  0.92886331372E+02  0.97938996847E+02  0.20136404702E+03  0.11256337661E+03 0.  0.
        -11    1    4    4    0    0 -0.14002413446E+02  0.37875689035E+02 -0.32628614908E+01  0.40512734631E+02  0.00000000000E+00 0.  1.
         11    1    4    4    0    0  0.11227269391E+03  0.55010642336E+02  0.10120185834E+03  0.16085131239E+03  0.00000000000E+00 0. -1.
        -13    1    3    3    0    0  0.21300171387E+02 -0.41446305174E+02  0.19535425871E+03  0.20083520585E+03  0.00000000000E+00 0.  1.
         13    1    3    3    0    0 -0.65716463325E+02 -0.64922327570E+02  0.18152498883E+03  0.20367838309E+03  0.00000000000E+00 0. -1.
         -1    1    1    2    0  502 -0.53853988522E+02  0.13482301373E+02  0.28390337763E+02  0.62354116210E+02  0.00000000000E+00 0.  1.
<scales pt_clust_5="13000.00000" pt_clust_6="13000.00000" pt_clust_7="13000.00000" pt_clust_8="13000.00000" pt_clust_9="55.51598"></scales>
<clustering>
<clus scale="   55.516">  2  9  1 -1</clus>
<clus scale="   91.138">  7  8 -1 -1</clus>
<clus scale="  112.563">  5  6 -1 -1</clus>
<clus scale="  148.776">  1  7  2 -1</clus>
<clus scale="   55.516">  2  5  1 -1</clus>
</clustering>
</event>
<event>
 9    1  0.1610296E-005  0.1113796E+03  0.7546771E-02  0.1258363E+00
         -4   -1    0    0    0  501 -0.00000000000E+00  0.00000000000E+00  0.10547006765E+03  0.10547006765E+03  0.00000000000E+00 0.  1.
         21   -1    0    0  501  502  0.00000000000E+00 -0.00000000000E+00 -0.23194325991E+03  0.23194325991E+03  0.00000000000E+00 0. -1.
         23    2    1    2    0    0 -0.37148722606E+02  0.44167531845E+02  0.12344124310E+02  0.10940037548E+03  0.92115505154E+02 0.  0.
         23    2    1    2    0    0  0.48179544736E+02 -0.64675698063E+02 -0.15683876732E+03  0.19856746677E+03  0.91249249161E+02 0.  0.
        -11    1    4    4    0    0  0.79855807645E+01 -0.67450412216E+02 -0.49872336591E+02  0.84264924882E+02  0.00000000000E+00 0.  1.
         11    1    4    4    0    0  0.40193963971E+02  0.27747141526E+01 -0.10696643073E+03  0.11430254188E+03  0.00000000000E+00 0. -1.
        -13    1    3    3    0    0 -0.58020534827E+02  0.10189144559E+01 -0.54218567347E+01  0.58282220091E+02  0.00000000000E+00 0.  1.
         13    1    3    3    0    0  0.20871812221E+02  0.43148617389E+02  0.17765981044E+02  0.51118155390E+02  0.00000000000E+00 0. -1.
         -4    1    1    2    0  502 -0.11030822129E+02  0.20508166218E+02  0.18021450744E+02  0.29445485314E+02  0.00000000000E+00 0.  1.
<scales pt_clust_5="13000.00000" pt_clust_6="13000.00000" pt_clust_7="13000.00000" pt_clust_8="13000.00000" pt_clust_9="23.28657"></scales>
<clustering>
<clus scale="   23.287">  2  9  1 -1</clus>
<clus scale="   91.249">  5  6 -1 -1</clus>
<clus scale="   92.116">  7  8 -1 -1</clus>
<clus scale="  110.664">  2  5  1 -1</clus>
<clus scale="   23.287">  2  5  1 -1</clus>
</clustering>
</event>
<event>
 9    1  0.1610296E-005  0.9701606E+02  0.7546771E-02  0.1288805E+00
          2   -1    0    0  502    0 -0.00000000000E+00  0.00000000000E+00  0.33439738501E+03  0.33439738501E+03  0.00000000000E+00 0. -1.
         21   -1    0    0  501  502  0.00000000000E+00 -0.00000000000E+00 -0.18212875560E+03  0.18212875560E+03  0.00000000000E+00 0. -1.
         23    2    1    2    0    0 -0.26601350001E+02  0.10933762689E+02  0.21408795122E+03  0.23574649430E+03  0.94422347595E+02 0.  0.
         23    2    1    2    0    0  0.13616712102E+02  0.92095574363E+01  0.89025604358E+02  0.12804279445E+03  0.90549258317E+02 0.  0.
        -13    1    4    4    0    0  0.93035600463E+01 -0.32753910502E+02  0.55299976079E+01  0.34495735334E+02  0.00000000000E+00 0.  1.
         13    1    4    4    0    0  0.43131520554E+01  0.41963467938E+02  0.83495606750E+02  0.93547059113E+02  0.00000000000E+00 0. -1.
        -13    1    3    3    0    0 -0.41559864209E+02 -0.20806738534E+02  0.51313728950E+02  0.69233239562E+02  0.00000000000E+00 0.  1.
         13    1    3    3    0    0  0.14958514208E+02  0.31740501223E+02  0.16277422227E+03  0.16651325473E+03  0.00000000000E+00 0. -1.
          2    1    1    2  501    0  0.12984637899E+02 -0.20143320125E+02 -0.15084492618E+03  0.15273685187E+03  0.00000000000E+00 0. -1.
<scales pt_clust_5="13000.00000" pt_clust_6="13000.00000" pt_clust_7="13000.00000" pt_clust_8="13000.00000" pt_clust_9="23.96569"></scales>
<clustering>
<clus scale="   23.966">  2  9  1 -1</clus>
<clus scale="   90.549">  5  6 -1 -1</clus>
<clus scale="   93.251">  2  5  1 -1</clus>
<clus scale="   94.422">  7  8 -1 -1</clus>
<clus scale="   23.966">  2  5  1 -1</clus>
</clustering>
</event>
<event>
 9    1  0.1610296E-005  0.1216119E+03  0.7546771E-02  0.1241942E+00
         21   -1    0    0  501  502  0.00000000000E+00  0.00000000000E+00  0.14606245697E+03  0.14606245697E+03  0.00000000000E+00 0.  1.
          1   -1    0    0  502    0 -0.00000000000E+00 -0.00000000000E+00 -0.82016820204E+03  0.82016820204E+03  0.00000000000E+00 0. -1.
         23    2    1    2    0    0  0.63011052954E+02 -0.60368456157E+02 -0.48091644461E+03  0.49843109578E+03  0.97663643439E+02 0.  0.
         23    2    1    2    0    0 -0.44089138622E+02  0.36445918854E+02 -0.31959184218E+03  0.33776906994E+03  0.93149567247E+02 0.  0.
        -11    1    3    3    0    0  0.45435017495E+02 -0.87363605877E+02 -0.37600744886E+03  0.38868797517E+03  0.00000000000E+00 0.  1.
         11    1    3    3    0    0  0.17576035459E+02  0.26995149720E+02 -0.10490899575E+03  0.10974312061E+03  0.00000000000E+00 0. -1.
        -13    1    4    4    0    0 -0.40127150516E+02  0.67166426022E+02 -0.23522353206E+03  0.24789438684E+03  0.00000000000E+00 0. -1.
         13    1    4    4    0    0 -0.39619881067E+01 -0.30720507168E+02 -0.84368310121E+02  0.89874683104E+02  0.00000000000E+00 0.  1.
          1    1    1    2  501    0 -0.18921914332E+02  0.23922537302E+02  0.12640254171E+03  0.13003049329E+03  0.00000000000E+00 0. -1.
<scales pt_clust_5="13000.00000" pt_clust_6="13000.00000" pt_clust_7="13000.00000" pt_clust_8="13000.00000" pt_clust_9="30.50126"></scales>
<clustering>
<clus scale="   30.501">  1  9  2 -1</clus>
<clus scale="   93.150">  7  8 -1 -1</clus>
<clus scale="   97.664">  5  6 -1 -1</clus>
<clus scale="  118.017">  1  7  2 -1</clus>
<clus scale="   30.501">  1  5  2 -1</clus>
</clustering>
</event>
<event>
 9    1  0.1610296E-005  0.1333954E+03  0.7546771E-02  0.1223092E+00
          1   -1    0    0  502    0 -0.00000000000E+00  0.00000000000E+00  0.14678834962E+03  0.14678834962E+03  0.00000000000E+00 0. -1.
         21   -1    0    0  501  502  0.00000000000E+00 -0.00000000000E+00 -0.50311838594E+03  0.50311838594E+03  0.00000000000E+00 0.  1.
         23    2    1    2    0    0  0.81982118146E+02  0.43503442371E+02  0.89686659118E+02  0.15856357415E+03  0.92114564696E+02 0.  0.
         23    2    1    2    0    0 -0.11031217379E+03 -0.76305533158E+02 -0.32639420825E+03  0.36411066299E+03  0.89733414319E+02 0.  0.
        -11    1    4    4    0    0 -0.90715396449E+02 -0.81166134324E+02 -0.32086210488E+03  0.34317592407E+03  0.00000000000E+00 0.  1.
         11    1    4    4    0    0 -0.19596777341E+02  0.48606011662E+01 -0.55321033717E+01  0.20934738918E+02  0.00000000000E+00 0. -1.
        -11    1    3    3    0    0  0.40550331692E+02 -0.38613379981E+01  0.86433397438E+02  0.95550884476E+02  0.00000000000E+00 0.  1.
         11    1    3    3    0    0  0.41431786455E+02  0.47364780369E+02  0.32532616798E+01  0.63012689673E+02  0.00000000000E+00 0. -1.
          1    1    1    2  501    0  0.28330055644E+02  0.32802090787E+02 -0.11962248719E+03  0.12723249842E+03  0.00000000000E+00 0. -1.
<scales pt_clust_5="13000.00000" pt_clust_6="13000.00000" pt_clust_7="13000.00000" pt_clust_8="13000.00000" pt_clust_9="43.34246"></scales>
<clustering>
<clus scale="   43.342">  2  9  1 -1</clus>
<clus scale="   89.733">  5  6 -1 -1</clus>
<clus scale="   92.115">  7  8 -1 -1</clus>
<clus scale="  131.762">  2  5  1 -1</clus>
<clus scale="   43.342">  2  5  1 -1</clus>
</clustering>
</event>
<event>
 9    1  0.1610296E-005  0.3186292E+03  0.7546771E-02  0.1076322E+00
          2   -1    0    0  502    0 -0.00000000000E+00  0.00000000000E+00  0.18854775631E+04  0.18854775631E+04  0.00000000000E+00 0. -1.
         21   -1    0    0  501  502  0.00000000000E+00 -0.00000000000E+00 -0.86403135185E+02  0.86403135185E+02  0.00000000000E+00 0. -1.
         23    2    1    2    0    0 -0.27758048678E+03 -0.16989779126E+03  0.10247075420E+04  0.10791821152E+04  0.93232532084E+02 0.  0.
         23    2    1    2    0    0  0.20027222637E+03  0.20581196416E+03  0.74300227154E+03  0.80186833493E+03  0.92048475339E+02 0.  0.
        -11    1    4    4    0    0  0.11602642986E+03  0.62549669413E+02  0.26867253104E+03  0.29926497039E+03  0.00000000000E+00 0.  1.
         11    1    4    4    0    0  0.84245796512E+02  0.14326229474E+03  0.47432974050E+03  0.50260336454E+03  0.00000000000E+00 0. -1.
        -13    1    3    3    0    0 -0.86151393106E+02 -0.10318213907E+03  0.45738179182E+03  0.47672499394E+03  0.00000000000E+00 0.  1.
         13    1    3    3    0    0 -0.19142909368E+03 -0.66715652188E+02  0.56732575020E+03  0.60245712129E+03  0.00000000000E+00 0. -1.
          2    1    1    2  501    0  0.77308260415E+02 -0.35914172901E+02  0.31364614382E+02  0.90830248149E+02  0.00000000000E+00 0. -1.
<scales pt_clust_5="13000.00000" pt_clust_6="13000.00000" pt_clust_7="13000.00000" pt_clust_8="13000.00000" pt_clust_9="85.24315"></scales>
<clustering>
<clus scale="   85.243">  2  9  1 -1</clus>
<clus scale="   92.048">  5  6 -1 -1</clus>
<clus scale="   93.233">  7  8 -1 -1</clus>
<clus scale="  318.285">  2  5  1 -1</clus>
<clus scale="   85.243">  2  5  1 -1</clus>
</clustering>
</event>
<event>
 9    1  0.1610296E-005  0.9302515E+02  0.7546771E-02  0.1297062E+00
         -3   -1    0    0    0  501 -0.00000000000E+00  0.00000000000E+00  0.17256489943E+03  0.17256489943E+03  0.00000000000E+00 0.  1.
         21   -1    0    0  501  502  0.00000000000E+00 -0.00000000000E+00 -0.94631260573E+02  0.94631260573E+02  0.00000000000E+00 0. -1.
         23    2    1    2    0    0 -0.76577670895E+01  0.31718267234E+02  0.11425235694E+03  0.14606746109E+03  0.84955354452E+02 0.  0.
         23    2    1    2    0    0 -0.12815679456E+02 -0.30889947317E+02 -0.22135940769E+02  0.96208841372E+02  0.87451190954E+02 0.  0.
        -11    1    4    4    0    0  0.30446347157E+02 -0.11221626126E+02 -0.34235486191E+02  0.47169624366E+02  0.00000000000E+00 0.  1.
         11    1    4    4    0    0 -0.43262026613E+02 -0.19668321191E+02  0.12099545422E+02  0.49039217006E+02  0.00000000000E+00 0. -1.
        -11    1    3    3    0    0  0.33768380631E+02  0.26529064178E+01  0.74075053849E+02  0.81452164156E+02  0.00000000000E+00 0.  1.
         11    1    3    3    0    0 -0.41426147721E+02  0.29065360816E+02  0.40177303091E+02  0.64615296935E+02  0.00000000000E+00 0. -1.
         -3    1    1    2    0  502  0.20473446546E+02 -0.82831991732E+00 -0.14182777316E+02  0.24919857538E+02  0.00000000000E+00 0.  1.
<scales pt_clust_5="13000.00000" pt_clust_6="13000.00000" pt_clust_7="13000.00000" pt_clust_8="13000.00000" pt_clust_9="20.49020"></scales>
<clustering>
<clus scale="   20.490">  2  9  1 -1</clus>
<clus scale="   84.955">  7  8 -1 -1</clus>
<clus scale="   87.451">  5  6 -1 -1</clus>
<clus scale="   90.683">  1  7  2 -1</clus>
<clus scale="   20.490">  2  5  1 -1</clus>
</clustering>
</event>
<event>
 9    1  0.1610296E-005  0.1989787E+03  0.7546771E-02  0.1150961E+00
          1   -1    0    0  502    0 -0.00000000000E+00  0.00000000000E+00  0.81485731780E+03  0.81485731780E+03  0.00000000000E+00 0. -1.
         21   -1    0    0  501  502  0.00000000000E+00 -0.00000000000E+00 -0.12484402806E+03  0.12484402806E+03  0.00000000000E+00 0.  1.
         23    2    1    2    0    0 -0.16417969774E+03 -0.61824380465E+01  0.47100580969E+03  0.50758623092E+03  0.93830236953E+02 0.  0.
         23    2    1    2    0    0  0.22458755104E+03  0.83410320883E+02  0.92810030185E+02  0.27230569413E+03  0.90221059855E+02 0.  0.
        -11    1    4    4    0    0  0.13304588650E+03  0.87498443065E+02  0.32259440621E+02  0.16247417322E+03  0.00000000000E+00 0.  1.
         11    1    4    4    0    0  0.91541664539E+02 -0.40881221821E+01  0.60550589565E+02  0.10983152091E+03  0.00000000000E+00 0. -1.
        -13    1    3    3    0    0 -0.67852293315E+02  0.26098037028E+01  0.80668651843E+02  0.10544276255E+03  0.00000000000E+00 0.  1.
         13    1    3    3    0    0 -0.96327404430E+02 -0.87922417494E+01  0.39033715784E+03  0.40214346837E+03  0.00000000000E+00 0. -1.
          1    1    1    2  501    0 -0.60407853296E+02 -0.77227882837E+02  0.12619744987E+03  0.15980942081E+03  0.00000000000E+00 0. -1.
<scales pt_clust_5="13000.00000" pt_clust_6="13000.00000" pt_clust_7="13000.00000" pt_clust_8="13000.00000" pt_clust_9="98.04726"></scales>
<clustering>
<clus scale="   90.221">  5  6 -1 -1</clus>
<clus scale="   93.830">  7  8 -1 -1</clus>
<clus scale="   98.047">  2  9  1 -1</clus>
<clus scale="  197.302">  2  5  1 -1</clus>
<clus scale="   98.047">  2  5  1 -1</clus>
</clustering>
</event>
<event>
 9    1  0.1610296E-005  0.9984312E+02  0.7546771E-02  0.1280895E+00
          1   -1    0    0  502    0 -0.00000000000E+00  0.00000000000E+00  0.27954386164E+03  0.27954386164E+03  0.00000000000E+00 0. -1.
         21   -1    0    0  501  502  0.00000000000E+00 -0.00000000000E+00 -0.21256921436E+03  0.21256921436E+03  0.00000000000E+00 0. -1.
         23    2    1    2    0    0  0.39359144961E+02  0.19706147095E+00  0.22226805723E+03  0.24351210663E+03  0.91355764380E+02 0.  0.
         23    2    1    2    0    0 -0.35475638880E+02 -0.27422424935E+02 -0.12314193947E+02  0.10300097540E+03  0.91907840890E+02 0.  0.
        -13    1    4    4    0    0 -0.62089941984E+02 -0.36948751335E+02 -0.17305821796E+02  0.74295777733E+02  0.00000000000E+00 0.  1.
         13    1    4    4    0    0  0.26614303105E+02  0.95263263999E+01  0.49916278494E+01  0.28705197665E+02  0.00000000000E+00 0. -1.
        -13    1    3    3    0    0 -0.15910725886E+02  0.28901497840E+02  0.46329777727E+02  0.56876146844E+02  0.00000000000E+00 0.  1.
         13    1    3    3    0    0  0.55269870847E+02 -0.28704436369E+02  0.17593827951E+03  0.18663595979E+03  0.00000000000E+00 0. -1.
          1    1    1    2  501    0 -0.38835060815E+01  0.27225363464E+02 -0.14297921600E+03  0.14559999397E+03  0.00000000000E+00 0. -1.
<scales pt_clust_5="13000.00000" pt_clust_6="13000.00000" pt_clust_7="13000.00000" pt_clust_8="13000.00000" pt_clust_9="27.50095"></scales>
<clustering>
<clus scale="   27.501">  2  9  1 -1</clus>
<clus scale="   91.356">  7  8 -1 -1</clus>
<clus scale="   91.908">  5  6 -1 -1</clus>
<clus scale="   99.335">  1  7  2 -1</clus>
<clus scale="   27.501">  2  5  1 -1</clus>
</clustering>
</event>
<event>
 9    1  0.1610296E-005  0.1165166E+03  0.7546771E-02  0.1249055E+00
          2   -1    0    0  502    0 -0.00000000000E+00  0.00000000000E+00  0.54245535273E+02  0.54245535273E+02  0.00000000000E+00 0. -1.
         21   -1    0    0  501  502  0.00000000000E+00 -0.00000000000E+00 -0.57426348076E+03  0.57426348076E+03  0.00000000000E+00 0. -1.
         23    2    1    2    0    0 -0.72095820943E+02 -0.76188420546E+01 -0.96825511313E+02  0.15027664659E+03  0.89174193121E+02 0.  0.
         23    2    1    2    0    0  0.57780651495E+02  0.75824968481E+02 -0.16209687192E+03  0.20799563547E+03  0.88874962477E+02 0.  0.
        -11    1    3    3    0    0 -0.88647339506E+02  0.48049406255E+01 -0.57307062073E+02  0.10566710756E+03  0.00000000000E+00 0. -1.
         11    1    3    3    0    0  0.16551518563E+02 -0.12423782680E+02 -0.39518449240E+02  0.44609539038E+02  0.00000000000E+00 0.  1.
        -11    1    4    4    0    0  0.13818574638E+02  0.70517174589E+02 -0.50202830694E+02  0.87658137824E+02  0.00000000000E+00 0.  1.
         11    1    4    4    0    0  0.43962076857E+02  0.53077938925E+01 -0.11189404123E+03  0.12033749764E+03  0.00000000000E+00 0. -1.
          2    1    1    2  501    0  0.14315169448E+02 -0.68206126427E+02 -0.26109556225E+03  0.27023673397E+03  0.00000000000E+00 0. -1.
<scales pt_clust_5="13000.00000" pt_clust_6="13000.00000" pt_clust_7="13000.00000" pt_clust_8="13000.00000" pt_clust_9="69.69218"></scales>
<clustering>
<clus scale="   69.692">  2  9  1 -1</clus>
<clus scale="   88.875">  7  8 -1 -1</clus>
<clus scale="   89.174">  5  6 -1 -1</clus>
<clus scale="  116.288">  2  7  1 -1</clus>
<clus scale="   69.692">  2  5  1 -1</clus>
</clustering>
</event>
<event>
 9    1  0.1610296E-005  0.2095724E+03  0.7546771E-02  0.1172431E+00
          1   -1    0    0  502    0 -0.00000000000E+00  0.00000000000E+00  0.92405549174E+03  0.92405549174E+03  0.00000000000E+00 0. -1.
         21   -1    0    0  501  502  0.00000000000E+00 -0.00000000000E+00 -0.95348250005E+02  0.95348250005E+02  0.00000000000E+00 0. -1.
         23    2    1    2    0    0 -0.46942195768E+02 -0.64431189227E+01  0.35968427566E+03  0.37403012370E+03  0.90998196422E+02 0.  0.
         23    2    1    2    0    0  0.80619087294E+02  0.18690155750E+03  0.38087553785E+03  0.44173337109E+03  0.92900841597E+02 0.  0.
        -11    1    3    3    0    0  0.20862506715E+02 -0.24684507058E+02  0.11938212020E+03  0.12367966567E+03  0.00000000000E+00 0.  1.
         11    1    3    3    0    0 -0.67804702482E+02  0.18241388135E+02  0.24030215545E+03  0.25035045803E+03  0.00000000000E+00 0. -1.
        -13    1    4    4    0    0 -0.20466215197E+02  0.40478312700E+02  0.89248549780E+02  0.10011325288E+03  0.00000000000E+00 0.  1.
         13    1    4    4    0    0  0.10108530249E+03  0.14642324480E+03  0.29162698807E+03  0.34162011821E+03  0.00000000000E+00 0. -1.
          1    1    1    2  501    0 -0.33676891526E+02 -0.18045843858E+03  0.88147428232E+02  0.20364024696E+03  0.00000000000E+00 0. -1.
<scales pt_clust_5="13000.00000" pt_clust_6="13000.00000" pt_clust_7="13000.00000" pt_clust_8="13000.00000" pt_clust_9="187.85640"></scales>
<clustering>
<clus scale="   90.998">  5  6 -1 -1</clus>
<clus scale="   92.901">  7  8 -1 -1</clus>
<clus scale="  102.595">  1  5  2 -1</clus>
<clus scale="  187.856">  2  9  1 -1</clus>
<clus scale="  187.856">  2  5  1 -1</clus>
</clustering>
</event>
<event>
 9    1  0.1610296E-005  0.1071617E+03  0.7546771E-02  0.1266644E+00
         21   -1    0    0  501  502  0.00000000000E+00  0.00000000000E+00  0.16474385714E+03  0.16474385714E+03  0.00000000000E+00 0. -1.
         -1   -1    0    0    0  501 -0.00000000000E+00 -0.00000000000E+00 -0.18816000069E+03  0.18816000069E+03  0.00000000000E+00 0.  1.
         23    2    1    2    0    0 -0.53464950857E+02 -0.29606508378E+02 -0.13460298021E+03  0.17379442064E+03  0.91386498210E+02 0.  0.
         23    2    1    2    0    0  0.39677324877E+02 -0.27288561545E+01  0.53872489693E+02  0.11187396441E+03  0.89620321371E+02 0.  0.
        -11    1    3    3    0    0 -0.40923878375E+02  0.95500596053E+00 -0.13467601537E+03  0.14075974202E+03  0.00000000000E+00 0.  1.
         11    1    3    3    0    0 -0.12541072483E+02 -0.30561514339E+02  0.73035152696E-01  0.33034678624E+02  0.00000000000E+00 0. -1.
        -13    1    4    4    0    0 -0.24120719883E+02  0.18458779152E+02  0.21825514731E+02  0.37401721200E+02  0.00000000000E+00 0.  1.
         13    1    4    4    0    0  0.63798044760E+02 -0.21187635307E+02  0.32046974962E+02  0.74472243214E+02  0.00000000000E+00 0. -1.
         -1    1    1    2    0  502  0.13787625981E+02  0.32335364533E+02  0.57314346973E+02  0.67235472770E+02  0.00000000000E+00 0.  1.
<scales pt_clust_5="13000.00000" pt_clust_6="13000.00000" pt_clust_7="13000.00000" pt_clust_8="13000.00000" pt_clust_9="35.15216"></scales>
<clustering>
<clus scale="   35.152">  1  9  2 -1</clus>
<clus scale="   89.620">  7  8 -1 -1</clus>
<clus scale="   91.386">  5  6 -1 -1</clus>
<clus scale="  105.660">  1  7  2 -1</clus>
<clus scale="   35.152">  1  5  2 -1</clus>
</clustering>
</event>
<event>
 9    1  0.1610296E-005  0.1009580E+03  0.7546771E-02  0.1278438E+00
         21   -1    0    0  501  502  0.00000000000E+00  0.00000000000E+00  0.47226106111E+02  0.47226106111E+02  0.00000000000E+00 0.  1.
          1   -1    0    0  502    0 -0.00000000000E+00 -0.00000000000E+00 -0.54519190436E+03  0.54519190436E+03  0.00000000000E+00 0. -1.
         23    2    1    2    0    0 -0.45076739172E+02  0.26231156187E+02 -0.21869221983E+03  0.24365654417E+03  0.93926772180E+02 0.  0.
         23    2    1    2    0    0  0.99690627099E+01  0.22864272081E+02 -0.44993935869E+02  0.10683201184E+03  0.93629414929E+02 0.  0.
        -11    1    4    4    0    0  0.12843705925E+02 -0.15476368931E+02  0.21863984879E+02  0.29707113828E+02  0.00000000000E+00 0.  1.
         11    1    4    4    0    0 -0.28746432149E+01  0.38340641012E+02 -0.66857920749E+02  0.77124898014E+02  0.00000000000E+00 0. -1.
        -13    1    3    3    0    0  0.81293966376E+01 -0.25585472385E+02 -0.10085974579E+03  0.10437141279E+03  0.00000000000E+00 0. -1.
         13    1    3    3    0    0 -0.53206135810E+02  0.51816628572E+02 -0.11783247404E+03  0.13928513137E+03  0.00000000000E+00 0.  1.
          1    1    1    2  501    0  0.35107676462E+02 -0.49095428267E+02 -0.23427964255E+03  0.24192945446E+03  0.00000000000E+00 0. -1.
<scales pt_clust_5="13000.00000" pt_clust_6="13000.00000" pt_clust_7="13000.00000" pt_clust_8="13000.00000" pt_clust_9="60.35655"></scales>
<clustering>
<clus scale="   60.357">  1  9  2 -1</clus>
<clus scale="   93.629">  5  6 -1 -1</clus>
<clus scale="   93.927">  7  8 -1 -1</clus>
<clus scale="  100.681">  1  5  2 -1</clus>
<clus scale="   60.357">  1  5  2 -1</clus>
</clustering>
</event>
<event>
 9    1  0.1610296E-005  0.1372040E+03  0.7546771E-02  0.1217995E+00
         21   -1    0    0  501  502  0.00000000000E+00  0.00000000000E+00  0.50914340644E+02  0.50914340644E+02  0.00000000000E+00 0.  1.
          2   -1    0    0  502    0 -0.00000000000E+00 -0.00000000000E+00 -0.64142544846E+03  0.64142544846E+03  0.00000000000E+00 0. -1.
         23    2    1    2    0    0 -0.55084311160E+02  0.74368976175E+02 -0.34915048338E+03  0.37297338661E+03  0.92941170250E+02 0.  0.
         23    2    1    2    0    0  0.10646490001E+03 -0.70932866620E+02 -0.16325208159E+03  0.22581045011E+03  0.89290933105E+02 0.  0.
        -11    1    4    4    0    0  0.20231612778E+02 -0.64789439517E+02 -0.88434605341E+02  0.11147945573E+03  0.00000000000E+00 0.  1.
         11    1    4    4    0    0  0.86233287232E+02 -0.61434271038E+01 -0.74817476249E+02  0.11433099438E+03  0.00000000000E+00 0. -1.
        -13    1    3    3    0    0 -0.67624624967E+02  0.38388634768E+02 -0.13789537088E+03  0.15830954011E+03  0.00000000000E+00 0.  1.
         13    1    3    3    0    0  0.12540313806E+02  0.35980341406E+02 -0.21125511250E+03  0.21466384650E+03  0.00000000000E+00 0. -1.
          2    1    1    2  501    0 -0.51380588849E+02 -0.34361095541E+01 -0.78108542850E+02  0.93555952379E+02  0.00000000000E+00 0. -1.
<scales pt_clust_5="13000.00000" pt_clust_6="13000.00000" pt_clust_7="13000.00000" pt_clust_8="13000.00000" pt_clust_9="51.49536"></scales>
<clustering>
<clus scale="   51.495">  1  9  2 -1</clus>
<clus scale="   89.291">  5  6 -1 -1</clus>
<clus scale="   92.941">  7  8 -1 -1</clus>
<clus scale="  134.758">  1  5  2 -1</clus>
<clus scale="   51.495">  1  5  2 -1</clus>
</clustering>
</event>
<event>
 9    1  0.1610296E-005  0.9975907E+02  0.7546771E-02  0.1281791E+00
         21   -1    0    0  501  502  0.00000000000E+00  0.00000000000E+00  0.26849500232E+03  0.26849500232E+03  0.00000000000E+00 0.  1.
          3   -1    0    0  502    0 -0.00000000000E+00 -0.00000000000E+00 -0.71201595843E+02  0.71201595843E+02  0.00000000000E+00 0. -1.
         23    2    1    2    0    0 -0.28919723839E+02  0.20706061184E+01  0.55485964126E+02  0.10959199201E+03  0.89950401114E+02 0.  0.
         23    2    1    2    0    0  0.30891685719E+02 -0.63208779040E+02  0.11540836070E+03  0.16348121437E+03  0.91963969768E+02 0.  0.
        -11    1    4    4    0    0  0.24210368901E+02 -0.86925126513E+02  0.81681449327E+02  0.12171268934E+03  0.00000000000E+00 0.  1.
         11    1    4    4    0    0  0.66813168176E+01  0.23716347473E+02  0.33726911378E+02  0.41768525027E+02  0.00000000000E+00 0. -1.
        -13    1    3    3    0    0 -0.57077326904E+02  0.41719902084E+01  0.57701569183E+02  0.81269292079E+02  0.00000000000E+00 0.  1.
         13    1    3    3    0    0  0.28157603065E+02 -0.21013840899E+01 -0.22156050569E+01  0.28322699929E+02  0.00000000000E+00 0. -1.
          3    1    1    2  501    0 -0.19719618801E+01  0.61138172921E+02  0.26399081644E+02  0.66623391789E+02  0.00000000000E+00 0. -1.
<scales pt_clust_5="13000.00000" pt_clust_6="13000.00000" pt_clust_7="13000.00000" pt_clust_8="13000.00000" pt_clust_9="61.17000"></scales>
<clustering>
<clus scale="   61.170">  1  9  2 -1</clus>
<clus scale="   89.950">  7  8 -1 -1</clus>
<clus scale="   91.964">  5  6 -1 -1</clus>
<clus scale="   97.906">  2  7  1 -1</clus>
<clus scale="   61.170">  1  5  2 -1</clus>
</clustering>
</event>
<event>
 9    1  0.1610296E-005  0.1087756E+03  0.7546771E-02  0.1262941E+00
         21   -1    0    0  501  502  0.00000000000E+00  0.00000000000E+00  0.13437081488E+03  0.13437081488E+03  0.00000000000E+00 0. -1.
         -3   -1    0    0    0  501 -0.00000000000E+00 -0.00000000000E+00 -0.28736778518E+03  0.28736778518E+03  0.00000000000E+00 0.  1.
         23    2    1    2    0    0 -0.97748049994E+01  0.49184706268E+02 -0.19114625014E+03  0.21788714970E+03  0.91778205024E+02 0.  0.
         23    2    1    2    0    0  0.46082804260E+02 -0.88660461516E+02 -0.36204037667E+01  0.13587121403E+03  0.91997702112E+02 0.  0.
        -11    1    3    3    0    0 -0.92547057112E+01 -0.22173729442E+02 -0.16287369663E+02  0.29027612125E+02  0.00000000000E+00 0.  1.
         11    1    3    3    0    0 -0.52009928818E+00  0.71358435711E+02 -0.17485888048E+03  0.18885953757E+03  0.00000000000E+00 0. -1.
        -13    1    4    4    0    0  0.65677291659E+00 -0.79033322482E+02 -0.27464689292E+02  0.83672017850E+02  0.00000000000E+00 0.  1.
         13    1    4    4    0    0  0.45426031344E+02 -0.96271390339E+01  0.23844285525E+02  0.52199196180E+02  0.00000000000E+00 0. -1.
         -3    1    1    2    0  502 -0.36307999261E+02  0.39475755248E+02  0.41769683614E+02  0.67980236333E+02  0.00000000000E+00 0.  1.
<scales pt_clust_5="13000.00000" pt_clust_6="13000.00000" pt_clust_7="13000.00000" pt_clust_8="13000.00000" pt_clust_9="53.63400"></scales>
<clustering>
<clus scale="   53.634">  1  9  2 -1</clus>
<clus scale="   91.778">  5  6 -1 -1</clus>
<clus scale="   91.998">  7  8 -1 -1</clus>
<clus scale="  108.590">  2  5  1 -1</clus>
<clus scale="   53.634">  1  5  2 -1</clus>
</clustering>
</event>
<event>
 9    1  0.1610296E-005  0.1156381E+03  0.7546771E-02  0.1253843E+00
         21   -1    0    0  501  502  0.00000000000E+00  0.00000000000E+00  0.18056213493E+03  0.18056213493E+03  0.00000000000E+00 0.  1.
          2   -1    0    0  502    0 -0.00000000000E+00 -0.00000000000E+00 -0.21878821148E+03  0.21878821148E+03  0.00000000000E+00 0. -1.
         23    2    1    2    0    0 -0.52888947799E+02 -0.20212788188E+02 -0.15580473294E+03  0.18862514123E+03  0.89991841262E+02 0.  0.
         23    2    1    2    0    0  0.66462837566E+02  0.45859566806E+02  0.49870738155E+02  0.13706130677E+03  0.98885300443E+02 0.  0.
        -11    1    4    4    0    0  0.25906255715E+02 -0.25138281786E+02  0.41293986401E+02  0.54847612611E+02  0.00000000000E+00 0. -1.
         11    1    4    4    0    0  0.40556581851E+02  0.70997848592E+02  0.85767517539E+01  0.82213694156E+02  0.00000000000E+00 0.  1.
        -11    1    3    3    0    0 -0.21525068755E+02 -0.48818678840E+02 -0.44415720496E+02  0.69421525594E+02  0.00000000000E+00 0.  1.
         11    1    3    3    0    0 -0.31363879044E+02  0.28605890652E+02 -0.11138901244E+03  0.11920361564E+03  0.00000000000E+00 0. -1.
          2    1    1    2  501    0 -0.13573889767E+02 -0.25646778619E+02  0.67707918239E+02  0.73663898411E+02  0.00000000000E+00 0. -1.
<scales pt_clust_5="13000.00000" pt_clust_6="13000.00000" pt_clust_7="13000.00000" pt_clust_8="13000.00000" pt_clust_9="29.01737"></scales>
<clustering>
<clus scale="   29.017">  1  9  2 -1</clus>
<clus scale="   89.992">  7  8 -1 -1</clus>
<clus scale="   98.885">  5  6 -1 -1</clus>
<clus scale="  108.131">  2  7  1 -1</clus>
<clus scale="   29.017">  1  5  2 -1</clus>
</clustering>
</event>
<event>
 9    1  0.1610296E-005  0.1405481E+03  0.7546771E-02  0.1213857E+00
          2   -1    0    0  502    0 -0.00000000000E+00  0.00000000000E+00  0.92558546543E+02  0.92558546543E+02  0.00000000000E+00 0. -1.
         21   -1    0    0  501  502  0.00000000000E+00 -0.00000000000E+00 -0.46770841573E+03  0.46770841573E+03  0.00000000000E+00 0. -1.
         23    2    1    2    0    0  0.23217288321E+02 -0.10090223787E+03 -0.40166084133E+02  0.14845205834E+03  0.98510888873E+02 0.  0.
         23    2    1    2    0    0 -0.50963899207E+02  0.84625011300E+02 -0.85883077984E+02  0.16064566859E+03  0.93125808412E+02 0.  0.
        -11    1    3    3    0    0  0.43974058964E+02 -0.12517560606E+02 -0.34884201858E+02  0.57509257729E+02  0.00000000000E+00 0.  1.
         11    1    3    3    0    0 -0.20756770642E+02 -0.88384677265E+02 -0.52818822754E+01  0.90942800611E+02  0.00000000000E+00 0. -1.
        -13    1    4    4    0    0 -0.27427182273E+02  0.10221199271E+03 -0.73001950262E+02  0.12856448391E+03  0.00000000000E+00 0.  1.
         13    1    4    4    0    0 -0.23536716934E+02 -0.17586981408E+02 -0.12881127722E+02  0.32081184680E+02  0.00000000000E+00 0. -1.
          2    1    1    2  501    0  0.27746610886E+02  0.16277226570E+02 -0.24910070707E+03  0.25116923534E+03  0.00000000000E+00 0. -1.
<scales pt_clust_5="13000.00000" pt_clust_6="13000.00000" pt_clust_7="13000.00000" pt_clust_8="13000.00000" pt_clust_9="32.16866"></scales>
<clustering>
<clus scale="   32.169">  2  9  1 -1</clus>
<clus scale="   93.126">  7  8 -1 -1</clus>
<clus scale="   98.511">  5  6 -1 -1</clus>
<clus scale="  136.828">  2  7  1 -1</clus>
<clus scale="   32.169">  2  5  1 -1</clus>
</clustering>
</event>
<event>
 9    1  0.1610296E-005  0.9693815E+02  0.7546771E-02  0.1288807E+00
         21   -1    0    0  501  502  0.00000000000E+00  0.00000000000E+00  0.49270634053E+03  0.49270634053E+03  0.00000000000E+00 0.  1.
          4   -1    0    0  502    0 -0.00000000000E+00 -0.00000000000E+00 -0.54790642278E+02  0.54790642278E+02  0.00000000000E+00 0. -1.
         23    2    1    2    0    0 -0.45478120519E+01 -0.17338958627E+02  0.23307750329E+02  0.95898483598E+02  0.91279493043E+02 0.  0.
         23    2    1    2    0    0 -0.39891298807E+02  0.22979712737E+02  0.15064846108E+03  0.18386493132E+03  0.94826005009E+02 0.  0.
        -11    1    4    4    0    0  0.57794909404E+01  0.39103639476E+02  0.19535705340E+02  0.44092413394E+02  0.00000000000E+00 0. -1.
         11    1    4    4    0    0 -0.45670789748E+02 -0.16123926739E+02  0.13111275575E+03  0.13977251793E+03  0.00000000000E+00 0.  1.
        -13    1    3    3    0    0 -0.10026004063E+02 -0.48760107054E+02  0.36143288431E+02  0.61517526738E+02  0.00000000000E+00 0. -1.
         13    1    3    3    0    0  0.54781920109E+01  0.31421148427E+02 -0.12835538102E+02  0.34380956859E+02  0.00000000000E+00 0.  1.
          4    1    1    2  501    0  0.44439110859E+02 -0.56407541100E+01  0.26395948684E+03  0.26773356788E+03  0.00000000000E+00 0. -1.
<scales pt_clust_5="13000.00000" pt_clust_6="13000.00000" pt_clust_7="13000.00000" pt_clust_8="13000.00000" pt_clust_9="44.79568"></scales>
<clustering>
<clus scale="   44.796">  1  9  2 -1</clus>
<clus scale="   91.279">  7  8 -1 -1</clus>
<clus scale="   93.472">  2  7  1 -1</clus>
<clus scale="   94.826">  5  6 -1 -1</clus>
<clus scale="   44.796">  1  5  2 -1</clus>
</clustering>
</event>
<event>
 9    1  0.1610296E-005  0.9438577E+02  0.7546771E-02  0.1294176E+00
         -1   -1    0    0    0  501 -0.00000000000E+00  0.00000000000E+00  0.11069711331E+03  0.11069711331E+03  0.00000000000E+00 0.  1.
         21   -1    0    0  501  502  0.00000000000E+00 -0.00000000000E+00 -0.26689908792E+03  0.26689908792E+03  0.00000000000E+00 0.  1.
         23    2    1    2    0    0 -0.14916665276E+02 -0.72749651312E+01  0.43267836278E+02  0.10232217379E+03  0.91226583698E+02 0.  0.
         23    2    1    2    0    0 -0.20853216457E+02 -0.44614546163E+02 -0.59294262373E+02  0.12158215965E+03  0.94027111143E+02 0.  0.
        -13    1    4    4    0    0  0.15994205531E+00 -0.20662985078E+02 -0.80630062469E+02  0.83235758587E+02  0.00000000000E+00 0. -1.
         13    1    4    4    0    0 -0.21013158512E+02 -0.23951561085E+02  0.21335800096E+02  0.38346401067E+02  0.00000000000E+00 0.  1.
        -13    1    3    3    0    0  0.35510587094E+02  0.13473135679E+02  0.14360033616E+02  0.40604651781E+02  0.00000000000E+00 0.  1.
         13    1    3    3    0    0 -0.50427252370E+02 -0.20748100810E+02  0.28907802662E+02  0.61717522014E+02  0.00000000000E+00 0. -1.
         -1    1    1    2    0  502  0.35769881733E+02  0.51889511294E+02 -0.14017554851E+03  0.15369186778E+03  0.00000000000E+00 0.  1.
<scales pt_clust_5="13000.00000" pt_clust_6="13000.00000" pt_clust_7="13000.00000" pt_clust_8="13000.00000" pt_clust_9="63.02385"></scales>
<clustering>
<clus scale="   63.024">  2  9  1 -1</clus>
<clus scale="   91.227">  7  8 -1 -1</clus>
<clus scale="   91.596">  1  7  2 -1</clus>
<clus scale="   94.027">  5  6 -1 -1</clus>
<clus scale="   63.024">  2  5  1 -1</clus>
</clustering>
</event>
<event>
 9    1  0.1610296E-005  0.1542813E+03  0.7546771E-02  0.1195645E+00
         21   -1    0    0  501  502  0.00000000000E+00  0.00000000000E+00  0.23647160778E+03  0.23647160778E+03  0.00000000000E+00 0. -1.
          2   -1    0    0  502    0 -0.00000000000E+00 -0.00000000000E+00 -0.30468502446E+03  0.30468502446E+03  0.00000000000E+00 0. -1.
         23    2    1    2    0    0 -0.39946338767E+02 -0.12761371318E+03 -0.23388739900E+03  0.28447921492E+03  0.91346256259E+02 0.  0.
         23    2    1    2    0    0  0.38003598871E+02  0.80188273016E+02  0.57363526628E+02  0.13842302448E+03  0.89419946668E+02 0.  0.
        -11    1    3    3    0    0 -0.54103016042E+01 -0.38165204746E+02 -0.83991874667E+01  0.39451242906E+02  0.00000000000E+00 0.  1.
         11    1    3    3    0    0 -0.34536037163E+02 -0.89448508439E+02 -0.22548821154E+03  0.24502797201E+03  0.00000000000E+00 0. -1.
        -13    1    4    4    0    0 -0.84238961384E+01  0.78069350810E+02  0.44250872772E+02  0.90132820344E+02  0.00000000000E+00 0.  1.
         13    1    4    4    0    0  0.46427495010E+02  0.21189222058E+01  0.13112653856E+02  0.48290204134E+02  0.00000000000E+00 0. -1.
          2    1    1    2  501    0  0.19427398958E+01  0.47425440169E+02  0.10831045570E+03  0.11825439284E+03  0.00000000000E+00 0. -1.
<scales pt_clust_5="13000.00000" pt_clust_6="13000.00000" pt_clust_7="13000.00000" pt_clust_8="13000.00000" pt_clust_9="47.46521"></scales>
<clustering>
<clus scale="   47.465">  1  9  2 -1</clus>
<clus scale="   89.420">  7  8 -1 -1</clus>
<clus scale="   91.346">  5  6 -1 -1</clus>
<clus scale="  153.149">  1  7  2 -1</clus>
<clus scale="   47.465">  1  5  2 -1</clus>
</clustering>
</event>
<event>
 9    1  0.2021002E-005  0.1003940E+03  0.7546771E-02  0.1281739E+00
         -1   -1    0    0    0  501 -0.00000000000E+00  0.00000000000E+00  0.75290446389E+03  0.75290446389E+03  0.00000000000E+00 0.  1.
         21   -1    0    0  501  502  0.00000000000E+00 -0.00000000000E+00 -0.18679569526E+03  0.18679569526E+03  0.00000000000E+00 0.  1.
         23    2    1    2    0    0 -0.22570275520E+02  0.25575399801E+02  0.46872049301E+03  0.47990289633E+03  0.97182153321E+02 0.  0.
         23    2    1    2    0    0 -0.25205450129E+02 -0.23688185902E+02  0.26636884813E+03  0.28418258399E+03  0.92795112608E+02 0.  0.
        -11    1    4    4    0    0  0.19382107290E+02 -0.42627042706E+02  0.92303798830E+02  0.10350228080E+03  0.00000000000E+00 0. -1.
         11    1    4    4    0    0 -0.44587557419E+02  0.18938856804E+02  0.17406504930E+03  0.18068030319E+03  0.00000000000E+00 0.  1.
        -11    1    3    3    0    0 -0.26209998891E+02  0.60987943493E+02  0.33576831682E+03  0.34226722874E+03  0.00000000000E+00 0.  1.
         11    1    3    3    0    0  0.36397233712E+01 -0.35412543692E+02  0.13295217619E+03  0.13763566759E+03  0.00000000000E+00 0. -1.
         -1    1    1    2    0  502  0.47775725649E+02 -0.18872138994E+01 -0.16898057250E+03  0.17561467883E+03  0.00000000000E+00 0.  1.
<scales pt_clust_5="13000.00000" pt_clust_6="13000.00000" pt_clust_7="13000.00000" pt_clust_8="13000.00000" pt_clust_9="47.81299"></scales>
<clustering>
<clus scale="   47.813">  2  9  1 -1</clus>
<clus scale="   92.795">  5  6 -1 -1</clus>
<clus scale="   96.154">  2  5  1 -1</clus>
<clus scale="   97.182">  7  8 -1 -1</clus>
<clus scale="   47.813">  2  5  1 -1</clus>
</clustering>
</event>
<event>
 9    1  0.1610296E-005  0.9519523E+02  0.7546771E-02  0.1293538E+00
         21   -1    0    0  501  502  0.00000000000E+00  0.00000000000E+00  0.10159841265E+03  0.10159841265E+03  0.00000000000E+00 0.  1.
          2   -1    0    0  502    0 -0.00000000000E+00 -0.00000000000E+00 -0.25900601974E+03  0.25900601974E+03  0.00000000000E+00 0. -1.
         23    2    1    2    0    0  0.69692114815E+01  0.20044007330E+02 -0.15006064169E+03  0.17770967039E+03  0.92801932241E+02 0.  0.
         23    2    1    2    0    0 -0.31826653363E+02 -0.87293172362E+01  0.59219026575E+02  0.11094376536E+03  0.87820778404E+02 0.  0.
        -13    1    4    4    0    0 -0.27206631232E+02  0.21156854592E+02  0.70654929717E+02  0.78612545898E+02  0.00000000000E+00 0.  1.
         13    1    4    4    0    0 -0.46200221306E+01 -0.29886171829E+02 -0.11435903142E+02  0.32331219459E+02  0.00000000000E+00 0. -1.
        -13    1    3    3    0    0  0.30430516801E+02 -0.19867703768E+02 -0.24351280360E+02  0.43746163957E+02  0.00000000000E+00 0.  1.
         13    1    3    3    0    0 -0.23461305320E+02  0.39911711098E+02 -0.12570936133E+03  0.13396350644E+03  0.00000000000E+00 0. -1.
          2    1    1    2  501    0  0.24857441881E+02 -0.11314690094E+02 -0.66565991974E+02  0.71950996632E+02  0.00000000000E+00 0. -1.
<scales pt_clust_5="13000.00000" pt_clust_6="13000.00000" pt_clust_7="13000.00000" pt_clust_8="13000.00000" pt_clust_9="27.31145"></scales>
<clustering>
<clus scale="   27.311">  1  9  2 -1</clus>
<clus scale="   87.821">  5  6 -1 -1</clus>
<clus scale="   90.346">  1  5  2 -1</clus>
<clus scale="   92.802">  7  8 -1 -1</clus>
<clus scale="   27.311">  1  5  2 -1</clus>
</clustering>
</event>
<event>
 9    1  0.1610296E-005  0.1036160E+03  0.7546771E-02  0.1272948E+00
         -3   -1    0    0    0  501 -0.00000000000E+00  0.00000000000E+00  0.23267249162E+03  0.23267249162E+03  0.00000000000E+00 0.  1.
         21   -1    0    0  501  502  0.00000000000E+00 -0.00000000000E+00 -0.86700299668E+02  0.86700299668E+02  0.00000000000E+00 0.  1.
         23    2    1    2    0    0 -0.56789434452E+02  0.18113811432E+02  0.14675429695E+03  0.18165769662E+03  0.88935622995E+02 0.  0.
         23    2    1    2    0    0  0.36746470509E+02 -0.12677086724E+02  0.28955356827E+02  0.10144396269E+03  0.89114831839E+02 0.  0.
        -11    1    4    4    0    0  0.38403575534E+01  0.30798904282E+02 -0.11973261020E+02  0.33266797721E+02  0.00000000000E+00 0.  1.
         11    1    4    4    0    0  0.32906112956E+02 -0.43475991006E+02  0.40928617847E+02  0.68177164965E+02  0.00000000000E+00 0. -1.
        -13    1    3    3    0    0 -0.43523996975E+02  0.48614030611E+02  0.59602251677E+02  0.88374717481E+02  0.00000000000E+00 0.  1.
         13    1    3    3    0    0 -0.13265437477E+02 -0.30500219178E+02  0.87152045277E+02  0.93282979141E+02  0.00000000000E+00 0. -1.
         -3    1    1    2    0  502  0.20042963943E+02 -0.54367247085E+01 -0.29737461828E+02  0.36271131981E+02  0.00000000000E+00 0.  1.
<scales pt_clust_5="13000.00000" pt_clust_6="13000.00000" pt_clust_7="13000.00000" pt_clust_8="13000.00000" pt_clust_9="20.76724"></scales>
<clustering>
<clus scale="   20.767">  2  9  1 -1</clus>
<clus scale="   88.936">  7  8 -1 -1</clus>
<clus scale="   89.115">  5  6 -1 -1</clus>
<clus scale="  103.462">  1  7  2 -1</clus>
<clus scale="   20.767">  2  5  1 -1</clus>
</clustering>
</event>
<event>
 9    1  0.1610296E-005  0.9529141E+02  0.7546771E-02  0.1293186E+00
          1   -1    0    0  502    0 -0.00000000000E+00  0.00000000000E+00  0.27243153929E+03  0.27243153929E+03  0.00000000000E+00 0. -1.
         21   -1    0    0  501  502  0.00000000000E+00 -0.00000000000E+00 -0.55598745287E+02  0.55598745287E+02  0.00000000000E+00 0.  1.
         23    2    1    2    0    0  0.11246962764E+02 -0.44057039944E+01  0.10464817215E+03  0.14141792610E+03  0.94349803861E+02 0.  0.
         23    2    1    2    0    0 -0.60062318780E+01 -0.34117497589E+02  0.39002098922E+02  0.10374388448E+03  0.89674697564E+02 0.  0.
        -11    1    3    3    0    0  0.71235380880E+01  0.30405013244E+02  0.10153158384E+03  0.10622557198E+03  0.00000000000E+00 0. -1.
         11    1    3    3    0    0  0.41234246760E+01 -0.34810717239E+02  0.31165883090E+01  0.35192354119E+02  0.00000000000E+00 0.  1.
        -11    1    4    4    0    0 -0.37855876473E+02 -0.16038500427E+01  0.43873229045E+02  0.57969819263E+02  0.00000000000E+00 0.  1.
         11    1    4    4    0    0  0.31849644595E+02 -0.32513647547E+02 -0.48711301232E+01  0.45774065215E+02  0.00000000000E+00 0. -1.
          1    1    1    2  501    0 -0.52407308860E+01  0.38523201584E+02  0.73182522935E+02  0.82868474003E+02  0.00000000000E+00 0. -1.
<scales pt_clust_5="13000.00000" pt_clust_6="13000.00000" pt_clust_7="13000.00000" pt_clust_8="13000.00000" pt_clust_9="38.87806"></scales>
<clustering>
<clus scale="   38.878">  2  9  1 -1</clus>
<clus scale="   89.675">  7  8 -1 -1</clus>
<clus scale="   90.665">  2  7  1 -1</clus>
<clus scale="   94.350">  5  6 -1 -1</clus>
<clus scale="   38.878">  2  5  1 -1</clus>
</clustering>
</event>
<event>
 9    1  0.1610296E-005  0.1072495E+03  0.7546771E-02  0.1268779E+00
          3   -1    0    0  502    0 -0.00000000000E+00  0.00000000000E+00  0.57117750127E+03  0.57117750127E+03  0.00000000000E+00 0. -1.
         21   -1    0    0  501  502  0.00000000000E+00 -0.00000000000E+00 -0.25849520261E+02  0.25849520261E+02  0.00000000000E+00 0.  1.
         23    2    1    2    0    0  0.23604061934E+02  0.31882176084E+02  0.26272917630E+03  0.28215446008E+03  0.94925730824E+02 0.  0.
         23    2    1    2    0    0 -0.28384174797E+02 -0.54197972598E+02  0.26567017847E+03  0.28645737820E+03  0.87943755794E+02 0.  0.
        -13    1    4    4    0    0 -0.54405322588E+02 -0.58860875903E+02  0.21156162835E+03  0.22623630219E+03  0.00000000000E+00 0.  1.
         13    1    4    4    0    0  0.26021147791E+02  0.46629033053E+01  0.54108550118E+02  0.60221076008E+02  0.00000000000E+00 0. -1.
        -13    1    3    3    0    0  0.56772819709E+02  0.39099445107E+02  0.17687452453E+03  0.18983286621E+03  0.00000000000E+00 0. -1.
         13    1    3    3    0    0 -0.33168757775E+02 -0.72172690228E+01  0.85854651773E+02  0.92321593874E+02  0.00000000000E+00 0.  1.
          3    1    1    2  501    0  0.47801128635E+01  0.22315796514E+02  0.16928626242E+02  0.28415183256E+02  0.00000000000E+00 0. -1.
<scales pt_clust_5="13000.00000" pt_clust_6="13000.00000" pt_clust_7="13000.00000" pt_clust_8="13000.00000" pt_clust_9="22.82201"></scales>
<clustering>
<clus scale="   22.822">  2  9  1 -1</clus>
<clus scale="   87.944">  5  6 -1 -1</clus>
<clus scale="   94.926">  7  8 -1 -1</clus>
<clus scale="  101.122">  2  5  1 -1</clus>
<clus scale="   22.822">  2  5  1 -1</clus>
</clustering>
</event>
<event>
 9    1  0.1610296E-005  0.9265204E+02  0.7546771E-02  0.1297068E+00
          2   -1    0    0  502    0 -0.00000000000E+00  0.00000000000E+00  0.19222478972E+03  0.19222478972E+03  0.00000000000E+00 0.  1.
         21   -1    0    0  501  502  0.00000000000E+00 -0.00000000000E+00 -0.19891801088E+03  0.19891801088E+03  0.00000000000E+00 0.  1.
         23    2    1    2    0    0  0.15830989009E+02  0.11065621881E+02  0.12732727656E+03  0.15785770648E+03  0.91289385687E+02 0.  0.
         23    2    1    2    0    0  0.29662899186E+02  0.51806988125E+02 -0.56118833491E+02  0.12332451826E+03  0.92172456432E+02 0.  0.
        -11    1    4    4    0    0 -0.30296490125E+02  0.17354206213E+02 -0.10616231911E+01  0.34930972374E+02  0.00000000000E+00 0. -1.
         11    1    4    4    0    0  0.59959389312E+02  0.34452781912E+02 -0.55057210300E+02  0.88393545885E+02  0.00000000000E+00 0.  1.
        -13    1    3    3    0    0  0.16680894077E+02 -0.19764331166E+02 -0.99427734985E+00  0.25881839214E+02  0.00000000000E+00 0. -1.
         13    1    3    3    0    0 -0.84990506799E+00  0.30829953047E+02  0.12832155391E+03  0.13197586727E+03  0.00000000000E+00 0.  1.
          2    1    1    2  501    0 -0.45493888196E+02 -0.62872610006E+02 -0.77901664231E+02  0.10996057585E+03  0.00000000000E+00 0.  1.
<scales pt_clust_5="13000.00000" pt_clust_6="13000.00000" pt_clust_7="13000.00000" pt_clust_8="13000.00000" pt_clust_9="77.60579"></scales>
<clustering>
<clus scale="   77.606">  2  9  1 -1</clus>
<clus scale="   91.289">  7  8 -1 -1</clus>
<clus scale="   91.774">  1  7  2 -1</clus>
<clus scale="   92.172">  5  6 -1 -1</clus>
<clus scale="   77.606">  2  5  1 -1</clus>
</clustering>
</event>
<event>
 9    1  0.1610296E-005  0.9936023E+02  0.7546771E-02  0.1292672E+00
         21   -1    0    0  501  502  0.00000000000E+00  0.00000000000E+00  0.16073391318E+02  0.16073391318E+02  0.00000000000E+00 0. -1.
          2   -1    0    0  502    0 -0.00000000000E+00 -0.00000000000E+00 -0.94845829796E+03  0.94845829796E+03  0.00000000000E+00 0. -1.
         23    2    1    2    0    0  0.11953695553E+02 -0.55594480170E+02 -0.62032135700E+03  0.62960103737E+03  0.91461703701E+02 0.  0.
         23    2    1    2    0    0 -0.54861452374E+01  0.18559246714E+02 -0.26340286554E+03  0.27343837677E+03  0.70802068391E+02 0.  0.
        -11    1    4    4    0    0 -0.31742173762E+02 -0.59372232910E+01 -0.17614414110E+03  0.17907979970E+03  0.00000000000E+00 0.  1.
         11    1    4    4    0    0  0.26256028525E+02  0.24496470005E+02 -0.87258724435E+02  0.94358577070E+02  0.00000000000E+00 0. -1.
        -11    1    3    3    0    0 -0.96276684002E+01  0.23531475406E+02 -0.12908020130E+03  0.13156033104E+03  0.00000000000E+00 0.  1.
         11    1    3    3    0    0  0.21581363954E+02 -0.79125955576E+02 -0.49124115570E+03  0.49804070634E+03  0.00000000000E+00 0. -1.
          2    1    1    2  501    0 -0.64675503160E+01  0.37035233456E+02 -0.48660684101E+02  0.61492275136E+02  0.00000000000E+00 0. -1.
<scales pt_clust_5="13000.00000" pt_clust_6="13000.00000" pt_clust_7="13000.00000" pt_clust_8="13000.00000" pt_clust_9="37.59571"></scales>
<clustering>
<clus scale="   37.596">  1  9  2 -1</clus>
<clus scale="   70.802">  5  6 -1 -1</clus>
<clus scale="   80.747">  1  5  2 -1</clus>
<clus scale="   91.462">  7  8 -1 -1</clus>
<clus scale="   37.596">  1  5  2 -1</clus>
</clustering>
</event>
<event>
 9    1  0.1610296E-005  0.1412434E+03  0.7546771E-02  0.1213501E+00
          1   -1    0    0  502    0 -0.00000000000E+00  0.00000000000E+00  0.94534298360E+03  0.94534298360E+03  0.00000000000E+00 0. -1.
         21   -1    0    0  501  502  0.00000000000E+00 -0.00000000000E+00 -0.52748406967E+02  0.52748406967E+02  0.00000000000E+00 0. -1.
         23    2    1    2    0    0  0.85344093991E+02 -0.14558077375E+01  0.41472883666E+03  0.43322906488E+03  0.91660683739E+02 0.  0.
         23    2    1    2    0    0 -0.17804226417E+03 -0.37806906881E+02  0.30335358164E+03  0.36339519458E+03  0.83091888339E+02 0.  0.
        -11    1    3    3    0    0  0.28224087015E+02 -0.38828156043E+02  0.96719127665E+02  0.10797599014E+03  0.00000000000E+00 0. -1.
         11    1    3    3    0    0  0.57120006976E+02  0.37372348306E+02  0.31800970900E+03  0.32525307475E+03  0.00000000000E+00 0.  1.
        -13    1    4    4    0    0 -0.14936589547E+03 -0.26288391693E+02  0.29448575304E+03  0.33124478715E+03  0.00000000000E+00 0. -1.
         13    1    4    4    0    0 -0.28676368693E+02 -0.11518515189E+02  0.88678285992E+01  0.32150407426E+02  0.00000000000E+00 0.  1.
          1    1    1    2  501    0  0.92698170176E+02  0.39262714619E+02  0.17451215833E+03  0.20146713111E+03  0.00000000000E+00 0. -1.
<scales pt_clust_5="13000.00000" pt_clust_6="13000.00000" pt_clust_7="13000.00000" pt_clust_8="13000.00000" pt_clust_9="100.67031"></scales>
<clustering>
<clus scale="   83.092">  7  8 -1 -1</clus>
<clus scale="   91.661">  5  6 -1 -1</clus>
<clus scale="  100.670">  2  9  1 -1</clus>
<clus scale="  135.839">  2  7  1 -1</clus>
<clus scale="  100.670">  2  5  1 -1</clus>
</clustering>
</event>
<event>
 9    1  0.1610296E-005  0.1435065E+03  0.7546771E-02  0.1212629E+00
         21   -1    0    0  501  502  0.00000000000E+00  0.00000000000E+00  0.99205977507E+02  0.99205977507E+02  0.00000000000E+00 0.  1.
         -1   -1    0    0    0  501 -0.00000000000E+00 -0.00000000000E+00 -0.39244423219E+03  0.39244423219E+03  0.00000000000E+00 0.  1.
         23    2    1    2    0    0 -0.83638236881E+02  0.20157368362E+02 -0.21626038650E+03  0.25017568108E+03  0.91747710959E+02 0.  0.
         23    2    1    2    0    0  0.11141578839E+03 -0.32193741438E+02 -0.11295248389E+03  0.19445708909E+03  0.10772827387E+03 0.  0.
        -11    1    3    3    0    0 -0.14517110193E+02 -0.31003474950E+02 -0.99072170858E+02  0.10482011728E+03  0.00000000000E+00 0.  1.
         11    1    3    3    0    0 -0.69121126689E+02  0.51160843312E+02 -0.11718821565E+03  0.14535556381E+03  0.00000000000E+00 0. -1.
        -13    1    4    4    0    0  0.37923893237E+02  0.18097315250E+02 -0.94629380050E+02  0.10353962558E+03  0.00000000000E+00 0. -1.
         13    1    4    4    0    0  0.73491895156E+02 -0.50291056688E+02 -0.18323103837E+02  0.90917463507E+02  0.00000000000E+00 0.  1.
         -1    1    1    2    0  502 -0.27777551511E+02  0.12036373075E+02  0.35974615703E+02  0.47017439528E+02  0.00000000000E+00 0.  1.
<scales pt_clust_5="13000.00000" pt_clust_6="13000.00000" pt_clust_7="13000.00000" pt_clust_8="13000.00000" pt_clust_9="30.27320"></scales>
<clustering>
<clus scale="   30.273">  1  9  2 -1</clus>
<clus scale="   91.748">  5  6 -1 -1</clus>
<clus scale="  107.728">  7  8 -1 -1</clus>
<clus scale="  131.933">  2  5  1 -1</clus>
<clus scale="   30.273">  1  5  2 -1</clus>
</clustering>
</event>
<event>
 9    1  0.1610296E-005  0.1327271E+03  0.7546771E-02  0.1223571E+00
         -1   -1    0    0    0  501 -0.00000000000E+00  0.00000000000E+00  0.54972381633E+03  0.54972381633E+03  0.00000000000E+00 0.  1.
         21   -1    0    0  501  502  0.00000000000E+00 -0.00000000000E+00 -0.61401575695E+02  0.61401575695E+02  0.00000000000E+00 0. -1.
         23    2    1    2    0    0  0.76674914598E+00 -0.10486999907E+03  0.33551450792E+03  0.36309626604E+03  0.90942887480E+02 0.  0.
         23    2    1    2    0    0 -0.48516135356E+02  0.77341142224E+02  0.14256190653E+03  0.19196827692E+03  0.90512178635E+02 0.  0.
        -13    1    4    4    0    0  0.21111989902E+01  0.60254324933E+02  0.29945168960E+02  0.67318303443E+02  0.00000000000E+00 0. -1.
         13    1    4    4    0    0 -0.50627334346E+02  0.17086817290E+02  0.11261673757E+03  0.12464997348E+03  0.00000000000E+00 0.  1.
        -13    1    3    3    0    0  0.29213737614E+02 -0.96885109689E+02  0.30156231624E+03  0.31808803423E+03  0.00000000000E+00 0.  1.
         13    1    3    3    0    0 -0.28446988468E+02 -0.79848893802E+01  0.33952191679E+02  0.45008231815E+02  0.00000000000E+00 0. -1.
         -1    1    1    2    0  502  0.47749386210E+02  0.27528856846E+02  0.10245826189E+02  0.56060849057E+02  0.00000000000E+00 0.  1.
<scales pt_clust_5="13000.00000" pt_clust_6="13000.00000" pt_clust_7="13000.00000" pt_clust_8="13000.00000" pt_clust_9="55.11662"></scales>
<clustering>
<clus scale="   55.117">  2  9  1 -1</clus>
<clus scale="   90.512">  5  6 -1 -1</clus>
<clus scale="   90.943">  7  8 -1 -1</clus>
<clus scale="  132.432">  2  5  1 -1</clus>
<clus scale="   55.117">  2  5  1 -1</clus>
</clustering>
</event>
<event>
 9    1  0.1610296E-005  0.1704825E+03  0.7546771E-02  0.1178098E+00
         21   -1    0    0  501  502  0.00000000000E+00  0.00000000000E+00  0.71431314784E+02  0.71431314784E+02  0.00000000000E+00 0.  1.
         -1   -1    0    0    0  501 -0.00000000000E+00 -0.00000000000E+00 -0.86351987652E+03  0.86351987652E+03  0.00000000000E+00 0.  1.
         23    2    1    2    0    0 -0.14229827440E+03 -0.36719538125E+02 -0.44755216589E+03  0.47943446734E+03  0.89203945530E+02 0.  0.
         23    2    1    2    0    0  0.12405347556E+03  0.79413369474E+02 -0.36681071661E+03  0.40402127479E+03  0.83590314102E+02 0.  0.
        -13    1    4    4    0    0  0.94038673634E+02  0.21523182612E+02 -0.15660745689E+03  0.18393589938E+03  0.00000000000E+00 0. -1.
         13    1    4    4    0    0  0.30014801922E+02  0.57890186862E+02 -0.21020325972E+03  0.22008537541E+03  0.00000000000E+00 0.  1.
        -13    1    3    3    0    0 -0.10238885719E+03 -0.11251753560E+02 -0.39712445736E+03  0.41026566353E+03  0.00000000000E+00 0.  1.
         13    1    3    3    0    0 -0.39909417212E+02 -0.25467784565E+02 -0.50427708534E+02  0.69168803813E+02  0.00000000000E+00 0. -1.
         -1    1    1    2    0  502  0.18244798841E+02 -0.42693831349E+02  0.22274320772E+02  0.51495449176E+02  0.00000000000E+00 0.  1.
<scales pt_clust_5="13000.00000" pt_clust_6="13000.00000" pt_clust_7="13000.00000" pt_clust_8="13000.00000" pt_clust_9="46.42883"></scales>
<clustering>
<clus scale="   46.429">  1  9  2 -1</clus>
<clus scale="   83.590">  5  6 -1 -1</clus>
<clus scale="   89.204">  7  8 -1 -1</clus>
<clus scale="  167.613">  1  5  2 -1</clus>
<clus scale="   46.429">  1  5  2 -1</clus>
</clustering>
</event>
<event>
 9    1  0.1610296E-005  0.9493892E+02  0.7546771E-02  0.1291489E+00
          1   -1    0    0  502    0 -0.00000000000E+00  0.00000000000E+00  0.49632572238E+03  0.49632572238E+03  0.00000000000E+00 0. -1.
         21   -1    0    0  501  502  0.00000000000E+00 -0.00000000000E+00 -0.29645113787E+02  0.29645113787E+02  0.00000000000E+00 0.  1.
         23    2    1    2    0    0  0.14472860748E+01 -0.27581031407E+02  0.18779389234E+03  0.21119160075E+03  0.92588002979E+02 0.  0.
         23    2    1    2    0    0  0.77854145936E+01  0.73789292673E+01  0.10976155584E+03  0.14420172349E+03  0.92905740613E+02 0.  0.
        -13    1    4    4    0    0 -0.81061832601E+01  0.48132354762E+02  0.47478997365E+02  0.68093237350E+02  0.00000000000E+00 0. -1.
         13    1    4    4    0    0  0.15891597854E+02 -0.40753425495E+02  0.62282558479E+02  0.76108486140E+02  0.00000000000E+00 0.  1.
        -13    1    3    3    0    0  0.15933193922E+02  0.24011231793E+02  0.20075052905E+02  0.35119989606E+02  0.00000000000E+00 0.  1.
         13    1    3    3    0    0 -0.14485907848E+02 -0.51592263200E+02  0.16771883944E+03  0.17607161114E+03  0.00000000000E+00 0. -1.
          1    1    1    2  501    0 -0.92327006684E+01  0.20202102140E+02  0.16912516041E+03  0.17057751193E+03  0.00000000000E+00 0. -1.
<scales pt_clust_5="13000.00000" pt_clust_6="13000.00000" pt_clust_7="13000.00000" pt_clust_8="13000.00000" pt_clust_9="22.21189"></scales>
<clustering>
<clus scale="   22.212">  2  9  1 -1</clus>
<clus scale="   92.588">  7  8 -1 -1</clus>
<clus scale="   92.906">  5  6 -1 -1</clus>
<clus scale="   94.628">  1  7  2 -1</clus>
<clus scale="   22.212">  2  5  1 -1</clus>
</clustering>
</event>
<event>
 9    1  0.1610296E-005  0.1197760E+03  0.7546771E-02  0.1244782E+00
          2   -1    0    0  502    0 -0.00000000000E+00  0.00000000000E+00  0.40481228486E+03  0.40481228486E+03  0.00000000000E+00 0. -1.
         21   -1    0    0  501  502  0.00000000000E+00 -0.00000000000E+00 -0.63489437603E+02  0.63489437603E+02  0.00000000000E+00 0. -1.
         23    2    1    2    0    0 -0.39789312598E+02 -0.65379514208E+02  0.18906910785E+03  0.22409702321E+03  0.92815289656E+02 0.  0.
         23    2    1    2    0    0  0.57291385971E+02  0.50818052881E+02  0.17590341310E+03  0.21137687882E+03  0.88732163035E+02 0.  0.
        -13    1    3    3    0    0 -0.48832916729E+02 -0.13930728744E+02  0.35695507978E+02  0.62071638043E+02  0.00000000000E+00 0.  1.
         13    1    3    3    0    0  0.90436041303E+01 -0.51448785464E+02  0.15337359987E+03  0.16202538516E+03  0.00000000000E+00 0. -1.
        -13    1    4    4    0    0  0.43340934821E+01  0.60961964834E+02  0.11347439448E+03  0.12888593300E+03  0.00000000000E+00 0. -1.
         13    1    4    4    0    0  0.52957292489E+02 -0.10143911953E+02  0.62429018622E+02  0.82490945827E+02  0.00000000000E+00 0.  1.
          2    1    1    2  501    0 -0.17502073372E+02  0.14561461328E+02 -0.23649673690E+02  0.32827820427E+02  0.00000000000E+00 0. -1.
<scales pt_clust_5="13000.00000" pt_clust_6="13000.00000" pt_clust_7="13000.00000" pt_clust_8="13000.00000" pt_clust_9="22.76749"></scales>
<clustering>
<clus scale="   22.767">  2  9  1 -1</clus>
<clus scale="   88.732">  7  8 -1 -1</clus>
<clus scale="   92.815">  5  6 -1 -1</clus>
<clus scale="  116.641">  2  7  1 -1</clus>
<clus scale="   22.767">  2  5  1 -1</clus>
</clustering>
</event>
<event>
 9    1  0.1610296E-005  0.9898312E+02  0.7546771E-02  0.1283166E+00
         -1   -1    0    0    0  501 -0.00000000000E+00  0.00000000000E+00  0.57826561648E+02  0.57826561648E+02  0.00000000000E+00 0.  1.
         21   -1    0    0  501  502  0.00000000000E+00 -0.00000000000E+00 -0.44455128341E+03  0.44455128341E+03  0.00000000000E+00 0.  1.
         23    2    1    2    0    0 -0.22704840820E+02 -0.19989007345E+02 -0.10923160702E+02  0.99365341911E+02  0.94016410919E+02 0.  0.
         23    2    1    2    0    0 -0.55662070280E+01  0.80642698346E+01 -0.35006658770E+03  0.36296577587E+03  0.95401905255E+02 0.  0.
        -11    1    3    3    0    0 -0.42467175843E+02 -0.23673103142E+01  0.28986467418E+02  0.51471161591E+02  0.00000000000E+00 0.  1.
         11    1    3    3    0    0  0.19762335023E+02 -0.17621697030E+02 -0.39909628120E+02  0.47894180319E+02  0.00000000000E+00 0. -1.
        -11    1    4    4    0    0  0.14213396915E+02  0.48478624625E+02 -0.16876226596E+03  0.17616157387E+03  0.00000000000E+00 0. -1.
         11    1    4    4    0    0 -0.19779603943E+02 -0.40414354790E+02 -0.18130432174E+03  0.18680420200E+03  0.00000000000E+00 0.  1.
         -1    1    1    2    0  502  0.28271047848E+02  0.11924737510E+02 -0.25734973361E+02  0.40046727269E+02  0.00000000000E+00 0.  1.
<scales pt_clust_5="13000.00000" pt_clust_6="13000.00000" pt_clust_7="13000.00000" pt_clust_8="13000.00000" pt_clust_9="30.68310"></scales>
<clustering>
<clus scale="   30.683">  2  9  1 -1</clus>
<clus scale="   94.016">  5  6 -1 -1</clus>
<clus scale="   95.402">  7  8 -1 -1</clus>
<clus scale="   97.648">  1  5  2 -1</clus>
<clus scale="   30.683">  2  5  1 -1</clus>
</clustering>
</event>
<event>
 9    1  0.1610296E-005  0.9722017E+02  0.7546771E-02  0.1287298E+00
         21   -1    0    0  501  502  0.00000000000E+00  0.00000000000E+00  0.54674965729E+03  0.54674965729E+03  0.00000000000E+00 0.  1.
          4   -1    0    0  502    0 -0.00000000000E+00 -0.00000000000E+00 -0.21649684190E+02  0.21649684190E+02  0.00000000000E+00 0. -1.
         23    2    1    2    0    0  0.13868457267E+01  0.45636552506E+02  0.19609947552E+03  0.21970615743E+03  0.87927089379E+02 0.  0.
         23    2    1    2    0    0  0.54109823974E+01 -0.25687793358E+02  0.25221242900E+03  0.26906548199E+03  0.89977679460E+02 0.  0.
        -13    1    4    4    0    0 -0.33636103056E+02 -0.28511555601E+02  0.70270283640E+02  0.82959080241E+02  0.00000000000E+00 0. -1.
         13    1    4    4    0    0  0.39047085453E+02  0.28237622438E+01  0.18194214536E+03  0.18610640175E+03  0.00000000000E+00 0.  1.
        -13    1    3    3    0    0  0.41797951911E+02  0.40430881310E+02  0.12170892107E+03  0.13488805142E+03  0.00000000000E+00 0.  1.
         13    1    3    3    0    0 -0.40411106184E+02  0.52056711958E+01  0.74390554452E+02  0.84818106011E+02  0.00000000000E+00 0. -1.
          4    1    1    2  501    0 -0.67978281241E+01 -0.19948759149E+02  0.76788068581E+02  0.79627702059E+02  0.00000000000E+00 0. -1.
<scales pt_clust_5="13000.00000" pt_clust_6="13000.00000" pt_clust_7="13000.00000" pt_clust_8="13000.00000" pt_clust_9="21.07519"></scales>
<clustering>
<clus scale="   21.075">  1  9  2 -1</clus>
<clus scale="   87.927">  7  8 -1 -1</clus>
<clus scale="   89.978">  5  6 -1 -1</clus>
<clus scale="   95.326">  2  7  1 -1</clus>
<clus scale="   21.075">  1  5  2 -1</clus>
</clustering>
</event>
<event>
 9    1  0.1639810E-005  0.1764180E+03  0.7546771E-02  0.1196185E+00
         -2   -1    0    0    0  501 -0.00000000000E+00  0.00000000000E+00  0.84590193379E+03  0.84590193379E+03  0.00000000000E+00 0.  1.
         21   -1    0    0  501  502  0.00000000000E+00 -0.00000000000E+00 -0.96081534714E+02  0.96081534714E+02  0.00000000000E+00 0.  1.
         23    2    1    2    0    0 -0.27676248673E+02 -0.32807315829E+02  0.28824683827E+03  0.30550514375E+03  0.91678014672E+02 0.  0.
         23    2    1    2    0    0 -0.12256021819E+03 -0.92713292719E+01  0.45522587800E+03  0.48033127410E+03  0.91545443651E+02 0.  0.
        -11    1    3    3    0    0 -0.54653393750E+02 -0.38801211659E+02  0.24642452441E+03  0.25537731635E+03  0.00000000000E+00 0. -1.
         11    1    3    3    0    0  0.26977145077E+02  0.59938958301E+01  0.41822313863E+02  0.50127827408E+02  0.00000000000E+00 0.  1.
        -13    1    4    4    0    0 -0.11862699616E+03  0.11999364525E+02  0.43378995460E+03  0.44987784307E+03  0.00000000000E+00 0.  1.
         13    1    4    4    0    0 -0.39332220214E+01 -0.21270693796E+02  0.21435923397E+02  0.30453431037E+02  0.00000000000E+00 0. -1.
         -2    1    1    2    0  502  0.15023646686E+03  0.42078645101E+02  0.63476828015E+01  0.15614705064E+03  0.00000000000E+00 0.  1.
<scales pt_clust_5="13000.00000" pt_clust_6="13000.00000" pt_clust_7="13000.00000" pt_clust_8="13000.00000" pt_clust_9="150.80695"></scales>
<clustering>
<clus scale="   91.545">  7  8 -1 -1</clus>
<clus scale="   91.678">  5  6 -1 -1</clus>
<clus scale="  101.228">  1  5  2 -1</clus>
<clus scale="  150.807">  2  9  1 -1</clus>
<clus scale="  150.807">  2  5  1 -1</clus>
</clustering>
</event>
<event>
 9    1  0.1610296E-005  0.1537542E+03  0.7546771E-02  0.1211800E+00
          1   -1    0    0  502    0 -0.00000000000E+00  0.00000000000E+00  0.40979641086E+03  0.40979641086E+03  0.00000000000E+00 0. -1.
         21   -1    0    0  501  502  0.00000000000E+00 -0.00000000000E+00 -0.24032779295E+03  0.24032779295E+03  0.00000000000E+00 0. -1.
         23    2    1    2    0    0 -0.63445172696E+02 -0.27397324090E+01  0.22591027526E+03  0.25091016122E+03  0.88812501727E+02 0.  0.
         23    2    1    2    0    0  0.93897955778E+02  0.12007269150E+03  0.97976045739E+02  0.20289995163E+03  0.91295166855E+02 0.  0.
        -11    1    3    3    0    0 -0.14787445000E+02 -0.30745281150E+02  0.24980052947E+02  0.42284085515E+02  0.00000000000E+00 0.  1.
         11    1    3    3    0    0 -0.48657727696E+02  0.28005548741E+02  0.20093022231E+03  0.20862607570E+03  0.00000000000E+00 0. -1.
        -11    1    4    4    0    0  0.25377387710E+02 -0.11412023933E+02  0.61395621364E+01  0.28494566507E+02  0.00000000000E+00 0.  1.
         11    1    4    4    0    0  0.68520568069E+02  0.13148471543E+03  0.91836483603E+02  0.17440538512E+03  0.00000000000E+00 0. -1.
          1    1    1    2  501    0 -0.30452783082E+02 -0.11733295909E+03 -0.15441770308E+03  0.19631409096E+03  0.00000000000E+00 0. -1.
<scales pt_clust_5="13000.00000" pt_clust_6="13000.00000" pt_clust_7="13000.00000" pt_clust_8="13000.00000" pt_clust_9="123.71555"></scales>
<clustering>
<clus scale="   88.813">  5  6 -1 -1</clus>
<clus scale="   91.295">  7  8 -1 -1</clus>
<clus scale="  109.181">  1  5  2 -1</clus>
<clus scale="  123.716">  2  9  1 -1</clus>
<clus scale="  123.716">  2  5  1 -1</clus>
</clustering>
</event>
<event>
 9    1  0.1610296E-005  0.2062364E+03  0.7546771E-02  0.1144890E+00
         -1   -1    0    0    0  501 -0.00000000000E+00  0.00000000000E+00  0.13044350153E+04  0.13044350153E+04  0.00000000000E+00 0.  1.
         21   -1    0    0  501  502  0.00000000000E+00 -0.00000000000E+00 -0.32259448811E+03  0.32259448811E+03  0.00000000000E+00 0.  1.
         23    2    1    2    0    0 -0.13501006589E+03  0.12601795662E+03  0.71257458268E+03  0.74214782269E+03  0.94406628816E+02 0.  0.
         23    2    1    2    0    0  0.26612844800E+02 -0.20862892845E+03  0.53732817256E+03  0.58416272844E+03  0.91050837346E+02 0.  0.
        -13    1    3    3    0    0  0.15939579246E+01  0.28908393871E+02  0.42461006456E+02  0.51392343859E+02  0.00000000000E+00 0.  1.
         13    1    3    3    0    0 -0.13660402381E+03  0.97109562744E+02  0.67011357622E+03  0.69075547883E+03  0.00000000000E+00 0. -1.
        -13    1    4    4    0    0  0.56657750619E+02 -0.10558275153E+03  0.32182227458E+03  0.34340558315E+03  0.00000000000E+00 0.  1.
         13    1    4    4    0    0 -0.30044905819E+02 -0.10304617692E+03  0.21550589799E+03  0.24075714530E+03  0.00000000000E+00 0. -1.
         -1    1    1    2    0  502  0.10839722109E+03  0.82610971833E+02 -0.26806222800E+03  0.30071895232E+03  0.00000000000E+00 0.  1.
<scales pt_clust_5="13000.00000" pt_clust_6="13000.00000" pt_clust_7="13000.00000" pt_clust_8="13000.00000" pt_clust_9="136.28841"></scales>
<clustering>
<clus scale="   91.051">  7  8 -1 -1</clus>
<clus scale="   94.407">  5  6 -1 -1</clus>
<clus scale="  136.288">  2  9  1 -1</clus>
<clus scale="  204.722">  2  7  1 -1</clus>
<clus scale="  136.288">  2  5  1 -1</clus>
</clustering>
</event>
<event>
 9    1  0.1610296E-005  0.1009608E+03  0.7546771E-02  0.1281370E+00
         21   -1    0    0  501  502  0.00000000000E+00  0.00000000000E+00  0.62849314989E+02  0.62849314989E+02  0.00000000000E+00 0.  1.
          1   -1    0    0  502    0 -0.00000000000E+00 -0.00000000000E+00 -0.30476216340E+03  0.30476216340E+03  0.00000000000E+00 0. -1.
         23    2    1    2    0    0  0.24381157443E+02 -0.32211145931E+02 -0.18537853109E+03  0.21160417900E+03  0.93697011789E+02 0.  0.
         23    2    1    2    0    0  0.19444035666E+02  0.44279344092E+02 -0.38700660986E+02  0.10717771557E+03  0.87467655269E+02 0.  0.
        -13    1    3    3    0    0  0.47580159549E+02 -0.14556725044E+02 -0.41471182190E+02  0.64773673502E+02  0.00000000000E+00 0.  1.
         13    1    3    3    0    0 -0.23199002106E+02 -0.17654420887E+02 -0.14390734890E+03  0.14683050550E+03  0.00000000000E+00 0. -1.
        -13    1    4    4    0    0 -0.20937631925E+01  0.29653794395E+02 -0.64192119441E+02  0.70741498180E+02  0.00000000000E+00 0. -1.
         13    1    4    4    0    0  0.21537798859E+02  0.14625549696E+02  0.25491458456E+02  0.36436217392E+02  0.00000000000E+00 0.  1.
          1    1    1    2  501    0 -0.43825193109E+02 -0.12068198160E+02 -0.17833656330E+02  0.48829583820E+02  0.00000000000E+00 0. -1.
<scales pt_clust_5="13000.00000" pt_clust_6="13000.00000" pt_clust_7="13000.00000" pt_clust_8="13000.00000" pt_clust_9="45.45645"></scales>
<clustering>
<clus scale="   45.456">  1  9  2 -1</clus>
<clus scale="   87.468">  7  8 -1 -1</clus>
<clus scale="   93.697">  5  6 -1 -1</clus>
<clus scale="   95.208">  1  7  2 -1</clus>
<clus scale="   45.456">  1  5  2 -1</clus>
</clustering>
</event>
<event>
 9    1  0.1610296E-005  0.1188874E+03  0.7546771E-02  0.1245179E+00
         21   -1    0    0  501  502  0.00000000000E+00  0.00000000000E+00  0.36503142070E+03  0.36503142070E+03  0.00000000000E+00 0.  1.
         -3   -1    0    0    0  501 -0.00000000000E+00 -0.00000000000E+00 -0.88507132866E+02  0.88507132866E+02  0.00000000000E+00 0.  1.
         23    2    1    2    0    0  0.36517545666E+02  0.88954614464E+02  0.17933670595E+02  0.13366172195E+03  0.91089981868E+02 0.  0.
         23    2    1    2    0    0 -0.18856885900E+02 -0.45179387873E+02  0.69853146708E+02  0.12532606151E+03  0.91817211650E+02 0.  0.
        -13    1    4    4    0    0  0.58061145185E+01  0.25123056117E+02  0.44051213817E+01  0.26158822772E+02  0.00000000000E+00 0.  1.
         13    1    4    4    0    0 -0.24663000418E+02 -0.70302443990E+02  0.65448025326E+02  0.99167238742E+02  0.00000000000E+00 0. -1.
        -13    1    3    3    0    0 -0.21620196338E+02  0.88855948819E+01  0.25291253026E+02  0.34438846754E+02  0.00000000000E+00 0. -1.
         13    1    3    3    0    0  0.58137742004E+02  0.80069019583E+02 -0.73575824309E+01  0.99222875193E+02  0.00000000000E+00 0.  1.
         -3    1    1    2    0  502 -0.17660659766E+02 -0.43775226591E+02  0.18873747053E+03  0.19455077011E+03  0.00000000000E+00 0.  1.
<scales pt_clust_5="13000.00000" pt_clust_6="13000.00000" pt_clust_7="13000.00000" pt_clust_8="13000.00000" pt_clust_9="47.20349"></scales>
<clustering>
<clus scale="   47.203">  1  9  2 -1</clus>
<clus scale="   91.090">  7  8 -1 -1</clus>
<clus scale="   91.817">  5  6 -1 -1</clus>
<clus scale="  118.327">  2  7  1 -1</clus>
<clus scale="   47.203">  1  5  2 -1</clus>
</clustering>
</event>
<event>
 9    1  0.2711044E-005  0.1729463E+03  0.7546771E-02  0.1174817E+00
         21   -1    0    0  501  502  0.00000000000E+00  0.00000000000E+00  0.45575486317E+03  0.45575486317E+03  0.00000000000E+00 0. -1.
          1   -1    0    0  502    0 -0.00000000000E+00 -0.00000000000E+00 -0.71131159489E+03  0.71131159489E+03  0.00000000000E+00 0. -1.
         23    2    1    2    0    0  0.12554841594E+03  0.78581081607E+02 -0.67603710211E+03  0.69803377252E+03  0.91036218166E+02 0.  0.
         23    2    1    2    0    0 -0.79924033819E+02 -0.95727187199E+02  0.27193214816E+03  0.31269283935E+03  0.90984465853E+02 0.  0.
        -11    1    4    4    0    0 -0.14337157291E+02 -0.85625010810E+02  0.17306130633E+03  0.19361666329E+03  0.00000000000E+00 0. -1.
         11    1    4    4    0    0 -0.65586876528E+02 -0.10102176389E+02  0.98870841833E+02  0.11907617606E+03  0.00000000000E+00 0.  1.
        -13    1    3    3    0    0  0.11789042623E+03  0.26339673156E+02 -0.48747333103E+03  0.50221726319E+03  0.00000000000E+00 0. -1.
         13    1    3    3    0    0  0.76579897135E+01  0.52241408451E+02 -0.18856377108E+03  0.19581650933E+03  0.00000000000E+00 0.  1.
          1    1    1    2  501    0 -0.45624382122E+02  0.17146105592E+02  0.14854822222E+03  0.15633984619E+03  0.00000000000E+00 0. -1.
<scales pt_clust_5="13000.00000" pt_clust_6="13000.00000" pt_clust_7="13000.00000" pt_clust_8="13000.00000" pt_clust_9="48.73985"></scales>
<clustering>
<clus scale="   48.740">  1  9  2 -1</clus>
<clus scale="   90.984">  5  6 -1 -1</clus>
<clus scale="   91.036">  7  8 -1 -1</clus>
<clus scale="  172.919">  1  5  2 -1</clus>
<clus scale="   48.740">  1  5  2 -1</clus>
</clustering>
</event>
<event>
 9    1  0.1610296E-005  0.1193418E+03  0.7546771E-02  0.1245014E+00
          1   -1    0    0  502    0 -0.00000000000E+00  0.00000000000E+00  0.85005984795E+03  0.85005984795E+03  0.00000000000E+00 0. -1.
         21   -1    0    0  501  502  0.00000000000E+00 -0.00000000000E+00 -0.24139141592E+02  0.24139141592E+02  0.00000000000E+00 0. -1.
         23    2    1    2    0    0  0.85149137744E+02 -0.11629849653E+02  0.53946514593E+03  0.55385425951E+03  0.91357911755E+02 0.  0.
         23    2    1    2    0    0 -0.55079950385E+02  0.25808235852E+02  0.19045312722E+03  0.21874920924E+03  0.88763488570E+02 0.  0.
        -13    1    3    3    0    0 -0.15573288460E+02 -0.17668732352E+02  0.13175253590E+03  0.13384110779E+03  0.00000000000E+00 0.  1.
         13    1    3    3    0    0  0.10072242620E+03  0.60388826985E+01  0.40771261003E+03  0.42001315172E+03  0.00000000000E+00 0. -1.
        -13    1    4    4    0    0 -0.30794642096E+02  0.56931692316E+02  0.14338525035E+03  0.15731769636E+03  0.00000000000E+00 0. -1.
         13    1    4    4    0    0 -0.24285308289E+02 -0.31123456464E+02  0.47067876868E+02  0.61431512873E+02  0.00000000000E+00 0.  1.
          1    1    1    2  501    0 -0.30069187359E+02 -0.14178386199E+02  0.96002433210E+02  0.10159552080E+03  0.00000000000E+00 0. -1.
<scales pt_clust_5="13000.00000" pt_clust_6="13000.00000" pt_clust_7="13000.00000" pt_clust_8="13000.00000" pt_clust_9="33.24430"></scales>
<clustering>
<clus scale="   33.244">  2  9  1 -1</clus>
<clus scale="   88.763">  7  8 -1 -1</clus>
<clus scale="   91.358">  5  6 -1 -1</clus>
<clus scale="  117.368">  2  7  1 -1</clus>
<clus scale="   33.244">  2  5  1 -1</clus>
</clustering>
</event>
<event>
 9    1  0.1610296E-005  0.1012416E+03  0.7546771E-02  0.1280868E+00
         21   -1    0    0  501  502  0.00000000000E+00  0.00000000000E+00  0.58576810845E+03  0.58576810845E+03  0.00000000000E+00 0.  1.
          4   -1    0    0  502    0 -0.00000000000E+00 -0.00000000000E+00 -0.55250405471E+02  0.55250405471E+02  0.00000000000E+00 0. -1.
         23    2    1    2    0    0  0.42401849573E+02  0.15136843001E+02  0.39991196247E+01  0.96193740645E+02  0.84912907842E+02 0.  0.
         23    2    1    2    0    0 -0.29767472529E+02  0.61242368362E+01  0.49722253426E+03  0.50648524418E+03  0.91506531426E+02 0.  0.
        -11    1    3    3    0    0 -0.22077886671E+02  0.80529407316E+01  0.18279376249E+02  0.29772781703E+02  0.00000000000E+00 0.  1.
         11    1    3    3    0    0  0.64479736244E+02  0.70839022693E+01 -0.14280256624E+02  0.66420958942E+02  0.00000000000E+00 0. -1.
        -13    1    4    4    0    0  0.27590282158E+02 -0.19184993541E+02  0.18589197231E+03  0.18890503703E+03  0.00000000000E+00 0.  1.
         13    1    4    4    0    0 -0.57357754687E+02  0.25309230377E+02  0.31133056195E+03  0.31758020714E+03  0.00000000000E+00 0. -1.
          4    1    1    2  501    0 -0.12634377044E+02 -0.21261079837E+02  0.29296049088E+02  0.38339529096E+02  0.00000000000E+00 0. -1.
<scales pt_clust_5="13000.00000" pt_clust_6="13000.00000" pt_clust_7="13000.00000" pt_clust_8="13000.00000" pt_clust_9="24.73179"></scales>
<clustering>
<clus scale="   24.732">  1  9  2 -1</clus>
<clus scale="   84.913">  5  6 -1 -1</clus>
<clus scale="   91.507">  7  8 -1 -1</clus>
<clus scale="   95.324">  2  5  1 -1</clus>
<clus scale="   24.732">  1  5  2 -1</clus>
</clustering>
</event>
<event>
 9    1  0.1610296E-005  0.2054774E+03  0.7546771E-02  0.1146453E+00
         21   -1    0    0  501  502  0.00000000000E+00  0.00000000000E+00  0.11310829396E+03  0.11310829396E+03  0.00000000000E+00 0. -1.
          2   -1    0    0  502    0 -0.00000000000E+00 -0.00000000000E+00 -0.12260523778E+04  0.12260523778E+04  0.00000000000E+00 0. -1.
         23    2    1    2    0    0  0.10957527563E+03  0.59039144694E+02 -0.37877391232E+03  0.41173426329E+03  0.10277677399E+03 0.  0.
         23    2    1    2    0    0 -0.25224769578E+03 -0.74098287641E+02 -0.73304878658E+03  0.78395705721E+03  0.90048252530E+02 0.  0.
        -13    1    4    4    0    0 -0.75373983923E+02  0.15244947795E+02 -0.15792466882E+03  0.17565263137E+03  0.00000000000E+00 0. -1.
         13    1    4    4    0    0 -0.17687371185E+03 -0.89343235436E+02 -0.57512411776E+03  0.60830442584E+03  0.00000000000E+00 0.  1.
        -13    1    3    3    0    0 -0.16905947147E+02  0.15877239714E+02 -0.27962626134E+02  0.36329137757E+02  0.00000000000E+00 0. -1.
         13    1    3    3    0    0  0.12648122278E+03  0.43161904981E+02 -0.35081128619E+03  0.37540512553E+03  0.00000000000E+00 0.  1.
          2    1    1    2  501    0  0.14267242014E+03  0.15059142947E+02 -0.11213849668E+01  0.14346935129E+03  0.00000000000E+00 0. -1.
<scales pt_clust_5="13000.00000" pt_clust_6="13000.00000" pt_clust_7="13000.00000" pt_clust_8="13000.00000" pt_clust_9="143.46497"></scales>
<clustering>
<clus scale="   90.048">  5  6 -1 -1</clus>
<clus scale="  102.777">  7  8 -1 -1</clus>
<clus scale="  143.465">  1  9  2 -1</clus>
<clus scale="  199.416">  1  5  2 -1</clus>
<clus scale="  143.465">  1  5  2 -1</clus>
</clustering>
</event>
<event>
 9    1  0.1610296E-005  0.9545725E+02  0.7546771E-02  0.1290402E+00
         21   -1    0    0  501  502  0.00000000000E+00  0.00000000000E+00  0.14877718182E+03  0.14877718182E+03  0.00000000000E+00 0. -1.
          1   -1    0    0  502    0 -0.00000000000E+00 -0.00000000000E+00 -0.19324944121E+03  0.19324944121E+03  0.00000000000E+00 0. -1.
         23    2    1    2    0    0  0.26486171755E+02 -0.20802829780E+02 -0.12226462270E+03  0.15638407684E+03  0.91504461672E+02 0.  0.
         23    2    1    2    0    0 -0.16569256098E+02 -0.41242524821E+01 -0.10639562255E+02  0.93230912148E+02  0.91034350598E+02 0.  0.
        -11    1    4    4    0    0 -0.11745911927E+02  0.43259000372E+02 -0.79676113419E+01  0.45527907822E+02  0.00000000000E+00 0.  1.
         11    1    4    4    0    0 -0.48233441709E+01 -0.47383252854E+02 -0.26719509135E+01  0.47703004326E+02  0.00000000000E+00 0. -1.
        -13    1    3    3    0    0  0.49977059143E+02 -0.21665627569E+02 -0.12117150693E+03  0.13285194748E+03  0.00000000000E+00 0. -1.
         13    1    3    3    0    0 -0.23490887388E+02  0.86279778905E+00 -0.10931157715E+01  0.23532129364E+02  0.00000000000E+00 0.  1.
          1    1    1    2  501    0 -0.99169156572E+01  0.24927082262E+02  0.88431925562E+02  0.92411634034E+02  0.00000000000E+00 0. -1.
<scales pt_clust_5="13000.00000" pt_clust_6="13000.00000" pt_clust_7="13000.00000" pt_clust_8="13000.00000" pt_clust_9="26.82731"></scales>
<clustering>
<clus scale="   26.827">  1  9  2 -1</clus>
<clus scale="   91.034">  5  6 -1 -1</clus>
<clus scale="   91.504">  7  8 -1 -1</clus>
<clus scale="   95.007">  1  5  2 -1</clus>
<clus scale="   26.827">  1  5  2 -1</clus>
</clustering>
</event>
<event>
 9    1  0.1610296E-005  0.1035010E+03  0.7546771E-02  0.1277599E+00
         -2   -1    0    0    0  501 -0.00000000000E+00  0.00000000000E+00  0.19021229059E+03  0.19021229059E+03  0.00000000000E+00 0.  1.
         21   -1    0    0  501  502  0.00000000000E+00 -0.00000000000E+00 -0.86330391623E+02  0.86330391623E+02  0.00000000000E+00 0. -1.
         23    2    1    2    0    0 -0.17478981492E+02  0.15918114815E+02  0.73991955922E+02  0.12509710070E+03  0.98059032678E+02 0.  0.
         23    2    1    2    0    0  0.33672956990E+02 -0.42057392996E+02 -0.59843435893E+01  0.10419654821E+03  0.88985481695E+02 0.  0.
        -11    1    4    4    0    0  0.39926904255E+02  0.17889673779E+02 -0.26920298248E+01  0.43834291780E+02  0.00000000000E+00 0.  1.
         11    1    4    4    0    0 -0.62539472648E+01 -0.59947066775E+02 -0.32923137645E+01  0.60362256430E+02  0.00000000000E+00 0. -1.
        -13    1    3    3    0    0  0.13586491957E+02  0.37283393384E+02  0.77665081230E+02  0.87215302719E+02  0.00000000000E+00 0.  1.
         13    1    3    3    0    0 -0.31065473448E+02 -0.21365278569E+02 -0.36731253083E+01  0.37881797983E+02  0.00000000000E+00 0. -1.
         -2    1    1    2    0  502 -0.16193975498E+02  0.26139278182E+02  0.35874286639E+02  0.47249033304E+02  0.00000000000E+00 0.  1.
<scales pt_clust_5="13000.00000" pt_clust_6="13000.00000" pt_clust_7="13000.00000" pt_clust_8="13000.00000" pt_clust_9="30.74911"></scales>
<clustering>
<clus scale="   30.749">  2  9  1 -1</clus>
<clus scale="   88.985">  5  6 -1 -1</clus>
<clus scale="   94.949">  2  5  1 -1</clus>
<clus scale="   98.059">  7  8 -1 -1</clus>
<clus scale="   30.749">  2  5  1 -1</clus>
</clustering>
</event>
<event>
 9    1  0.1610296E-005  0.2750076E+03  0.7546771E-02  0.1122778E+00
          2   -1    0    0  502    0 -0.00000000000E+00  0.00000000000E+00  0.60356593654E+03  0.60356593654E+03  0.00000000000E+00 0. -1.
         21   -1    0    0  501  502  0.00000000000E+00 -0.00000000000E+00 -0.44534908179E+03  0.44534908179E+03  0.00000000000E+00 0. -1.
         23    2    1    2    0    0  0.18379014938E+02  0.11590427806E+03  0.31049296904E+03  0.34399094166E+03  0.90290056282E+02 0.  0.
         23    2    1    2    0    0  0.24150865038E+03 -0.13475260972E+03  0.13175601761E+03  0.31947484507E+03  0.90663302471E+02 0.  0.
        -11    1    4    4    0    0  0.21516311763E+03 -0.11776012735E+03  0.14556043696E+03  0.28522001260E+03  0.00000000000E+00 0. -1.
         11    1    4    4    0    0  0.26345532759E+02 -0.16992482372E+02 -0.13804419350E+02  0.34254832464E+02  0.00000000000E+00 0.  1.
        -11    1    3    3    0    0 -0.22600960317E+02  0.73641617392E+01  0.19578762873E+02  0.30795490595E+02  0.00000000000E+00 0.  1.
         11    1    3    3    0    0  0.40979975255E+02  0.10854011632E+03  0.29091420616E+03  0.31319545107E+03  0.00000000000E+00 0. -1.
          2    1    1    2  501    0 -0.25988766532E+03  0.18848331663E+02 -0.28403213189E+03  0.38544923160E+03  0.00000000000E+00 0. -1.
<scales pt_clust_5="13000.00000" pt_clust_6="13000.00000" pt_clust_7="13000.00000" pt_clust_8="13000.00000" pt_clust_9="259.63312"></scales>
<clustering>
<clus scale="   90.290">  7  8 -1 -1</clus>
<clus scale="   90.663">  5  6 -1 -1</clus>
<clus scale="  148.067">  1  7  2 -1</clus>
<clus scale="  259.633">  2  9  1 -1</clus>
<clus scale="  259.633">  2  5  1 -1</clus>
</clustering>
</event>
<event>
 9    1  0.1610296E-005  0.1237421E+03  0.7546771E-02  0.1237479E+00
         21   -1    0    0  501  502  0.00000000000E+00  0.00000000000E+00  0.24717535017E+02  0.24717535017E+02  0.00000000000E+00 0. -1.
         -4   -1    0    0    0  501 -0.00000000000E+00 -0.00000000000E+00 -0.11712499941E+04  0.11712499941E+04  0.00000000000E+00 0.  1.
         23    2    1    2    0    0 -0.26757332625E+02 -0.39910870710E+02 -0.31594908721E+03  0.33312430064E+03  0.94016708730E+02 0.  0.
         23    2    1    2    0    0  0.13799721845E+02  0.11914231855E+03 -0.56085979489E+03  0.58142480337E+03  0.95424148209E+02 0.  0.
        -13    1    3    3    0    0 -0.55567458317E+02 -0.45799583188E+02 -0.17679958797E+03  0.19090164627E+03  0.00000000000E+00 0.  1.
         13    1    3    3    0    0  0.28810125692E+02  0.58887124782E+01 -0.13914949924E+03  0.14222265437E+03  0.00000000000E+00 0. -1.
        -13    1    4    4    0    0  0.36164674737E+02  0.52943715577E+01 -0.11204937882E+03  0.11785999051E+03  0.00000000000E+00 0.  1.
         13    1    4    4    0    0 -0.22364952892E+02  0.11384794700E+03 -0.44881041607E+03  0.46356481287E+03  0.00000000000E+00 0. -1.
         -4    1    1    2    0  502  0.12957610780E+02 -0.79231447845E+02 -0.26972357697E+03  0.28141842509E+03  0.00000000000E+00 0.  1.
<scales pt_clust_5="13000.00000" pt_clust_6="13000.00000" pt_clust_7="13000.00000" pt_clust_8="13000.00000" pt_clust_9="80.28401"></scales>
<clustering>
<clus scale="   80.284">  1  9  2 -1</clus>
<clus scale="   94.017">  5  6 -1 -1</clus>
<clus scale="   95.424">  7  8 -1 -1</clus>
<clus scale="  122.660">  2  5  1 -1</clus>
<clus scale="   80.284">  1  5  2 -1</clus>
</clustering>
</event>
<event>
 9    1  0.1610296E-005  0.1337399E+03  0.7546771E-02  0.1222095E+00
          1   -1    0    0  502    0 -0.00000000000E+00  0.00000000000E+00  0.41863760860E+03  0.41863760860E+03  0.00000000000E+00 0. -1.
         21   -1    0    0  501  502  0.00000000000E+00 -0.00000000000E+00 -0.69051302503E+02  0.69051302503E+02  0.00000000000E+00 0.  1.
         23    2    1    2    0    0  0.46615386518E+02  0.86952460794E+02  0.29176269581E+03  0.32128168207E+03  0.91447929827E+02 0.  0.
         23    2    1    2    0    0 -0.62701791775E+02 -0.72931990515E+02  0.59038511386E+02  0.14503383423E+03  0.91097076308E+02 0.  0.
        -11    1    3    3    0    0  0.67117101623E+02  0.90484494024E+02  0.23000485980E+03  0.25611400688E+03  0.00000000000E+00 0. -1.
         11    1    3    3    0    0 -0.20501715105E+02 -0.35320332299E+01  0.61757836014E+02  0.65167675194E+02  0.00000000000E+00 0.  1.
        -13    1    4    4    0    0 -0.38777948598E+02 -0.21252522490E+02  0.73952648740E+02  0.86164918995E+02  0.00000000000E+00 0. -1.
         13    1    4    4    0    0 -0.23923843177E+02 -0.51679468025E+02 -0.14914137354E+02  0.58868915233E+02  0.00000000000E+00 0.  1.
          1    1    1    2  501    0  0.16086405257E+02 -0.14020470280E+02 -0.12149010958E+01  0.21373394808E+02  0.00000000000E+00 0. -1.
<scales pt_clust_5="13000.00000" pt_clust_6="13000.00000" pt_clust_7="13000.00000" pt_clust_8="13000.00000" pt_clust_9="21.33884"></scales>
<clustering>
<clus scale="   21.339">  2  9  1 -1</clus>
<clus scale="   91.097">  7  8 -1 -1</clus>
<clus scale="   91.448">  5  6 -1 -1</clus>
<clus scale="  133.500">  2  7  1 -1</clus>
<clus scale="   21.339">  2  5  1 -1</clus>
</clustering>
</event>
<event>
 9    1  0.1610296E-005  0.1001038E+03  0.7546771E-02  0.1280305E+00
         -1   -1    0    0    0  501 -0.00000000000E+00  0.00000000000E+00  0.15127088228E+03  0.15127088228E+03  0.00000000000E+00 0.  1.
         21   -1    0    0  501  502  0.00000000000E+00 -0.00000000000E+00 -0.11001235292E+03  0.11001235292E+03  0.00000000000E+00 0. -1.
         23    2    1    2    0    0 -0.34005616729E+02  0.41657054252E+02  0.55350904732E+02  0.11921834275E+03  0.90871329110E+02 0.  0.
         23    2    1    2    0    0  0.29327405258E+02 -0.38588395644E+01  0.10715771366E+02  0.96611236494E+02  0.91345037735E+02 0.  0.
        -11    1    4    4    0    0 -0.17740147469E+02 -0.14571051035E+02  0.35556301761E+02  0.42323503582E+02  0.00000000000E+00 0.  1.
         11    1    4    4    0    0  0.47067552727E+02  0.10712211471E+02 -0.24840530395E+02  0.54287732911E+02  0.00000000000E+00 0. -1.
        -13    1    3    3    0    0 -0.60104719741E+02  0.17516476902E+02  0.13030631888E+02  0.63946865956E+02  0.00000000000E+00 0.  1.
         13    1    3    3    0    0  0.26099103012E+02  0.24140577350E+02  0.42320272844E+02  0.55271476789E+02  0.00000000000E+00 0. -1.
         -1    1    1    2    0  502  0.46782114709E+01 -0.37798214688E+02 -0.24808146741E+02  0.45453655968E+02  0.00000000000E+00 0.  1.
<scales pt_clust_5="13000.00000" pt_clust_6="13000.00000" pt_clust_7="13000.00000" pt_clust_8="13000.00000" pt_clust_9="38.08662"></scales>
<clustering>
<clus scale="   38.087">  2  9  1 -1</clus>
<clus scale="   90.871">  7  8 -1 -1</clus>
<clus scale="   91.345">  5  6 -1 -1</clus>
<clus scale="   99.672">  1  7  2 -1</clus>
<clus scale="   38.087">  2  5  1 -1</clus>
</clustering>
</event>
<event>
 9    1  0.1610296E-005  0.1213010E+03  0.7546771E-02  0.1244933E+00
         -2   -1    0    0    0  501 -0.00000000000E+00  0.00000000000E+00  0.65460051790E+02  0.65460051790E+02  0.00000000000E+00 0.  1.
         21   -1    0    0  501  502  0.00000000000E+00 -0.00000000000E+00 -0.51287514251E+03  0.51287514251E+03  0.00000000000E+00 0.  1.
         23    2    1    2    0    0 -0.42753149559E+02 -0.59398323297E+02 -0.40182424374E+02  0.13504122461E+03  0.10613911866E+03 0.  0.
         23    2    1    2    0    0 -0.19682236362E+02  0.38849933319E+02 -0.19862061484E+03  0.22457176738E+03  0.95318530831E+02 0.  0.
        -11    1    4    4    0    0  0.21391424486E+02 -0.22036673242E+02 -0.47751395587E+02  0.56775027870E+02  0.00000000000E+00 0. -1.
         11    1    4    4    0    0 -0.41073660848E+02  0.60886606561E+02 -0.15086921925E+03  0.16779673951E+03  0.00000000000E+00 0.  1.
        -13    1    3    3    0    0 -0.38507559196E+02 -0.88039346938E+02 -0.44270644468E+02  0.10580004105E+03  0.00000000000E+00 0.  1.
         13    1    3    3    0    0 -0.42455903627E+01  0.28641023641E+02  0.40882200945E+01  0.29241183565E+02  0.00000000000E+00 0. -1.
         -2    1    1    2    0  502  0.62435385921E+02  0.20548389977E+02 -0.20861205150E+03  0.21872220230E+03  0.00000000000E+00 0.  1.
<scales pt_clust_5="13000.00000" pt_clust_6="13000.00000" pt_clust_7="13000.00000" pt_clust_8="13000.00000" pt_clust_9="65.72985"></scales>
<clustering>
<clus scale="   65.730">  2  9  1 -1</clus>
<clus scale="   95.319">  5  6 -1 -1</clus>
<clus scale="  106.139">  7  8 -1 -1</clus>
<clus scale="  111.956">  2  5  1 -1</clus>
<clus scale="   65.730">  2  5  1 -1</clus>
</clustering>
</event>
<event>
 9    1  0.1610296E-005  0.1476630E+03  0.7546771E-02  0.1203427E+00
         21   -1    0    0  501  502  0.00000000000E+00  0.00000000000E+00  0.27002968965E+03  0.27002968965E+03  0.00000000000E+00 0.  1.
          2   -1    0    0  502    0 -0.00000000000E+00 -0.00000000000E+00 -0.21548229210E+03  0.21548229210E+03  0.00000000000E+00 0. -1.
         23    2    1    2    0    0 -0.10291830461E+03 -0.62872218576E+02 -0.14348625074E+03  0.20838668775E+03  0.91058301056E+02 0.  0.
         23    2    1    2    0    0  0.10300926343E+03  0.15247658004E+02  0.10831638036E+03  0.17555120672E+03  0.90787601007E+02 0.  0.
        -11    1    4    4    0    0  0.53000751827E+02 -0.36502598624E+02  0.65439295674E+02  0.91781375120E+02  0.00000000000E+00 0.  1.
         11    1    4    4    0    0  0.50008511608E+02  0.51750256628E+02  0.42877084690E+02  0.83769831598E+02  0.00000000000E+00 0. -1.
        -11    1    3    3    0    0 -0.39382312354E+02 -0.20853381384E+02  0.15220124407E+01  0.44588637155E+02  0.00000000000E+00 0.  1.
         11    1    3    3    0    0 -0.63535992252E+02 -0.42018837193E+02 -0.14500826318E+03  0.16379805060E+03  0.00000000000E+00 0. -1.
          2    1    1    2  501    0 -0.90958829119E-01  0.47624560572E+02  0.89717267921E+02  0.10157408728E+03  0.00000000000E+00 0. -1.
<scales pt_clust_5="13000.00000" pt_clust_6="13000.00000" pt_clust_7="13000.00000" pt_clust_8="13000.00000" pt_clust_9="47.62465"></scales>
<clustering>
<clus scale="   47.625">  1  9  2 -1</clus>
<clus scale="   90.788">  5  6 -1 -1</clus>
<clus scale="   91.058">  7  8 -1 -1</clus>
<clus scale="  147.496">  1  5  2 -1</clus>
<clus scale="   47.625">  1  5  2 -1</clus>
</clustering>
</event>
<event>
 9    1  0.1610296E-005  0.1375622E+03  0.7546771E-02  0.1216669E+00
         21   -1    0    0  501  502  0.00000000000E+00  0.00000000000E+00  0.57669541905E+03  0.57669541905E+03  0.00000000000E+00 0. -1.
         -2   -1    0    0    0  501 -0.00000000000E+00 -0.00000000000E+00 -0.85536665006E+02  0.85536665006E+02  0.00000000000E+00 0.  1.
         23    2    1    2    0    0 -0.91404904054E+02  0.34156113951E+02  0.14381788934E+02  0.13374213876E+03  0.90325119544E+02 0.  0.
         23    2    1    2    0    0  0.10131158269E+03 -0.88822631993E+02  0.27596502173E+03  0.32013446282E+03  0.90420596792E+02 0.  0.
        -13    1    4    4    0    0  0.65509922867E+02 -0.61909174215E+01  0.74137456185E+02  0.99127392088E+02  0.00000000000E+00 0.  1.
         13    1    4    4    0    0  0.35801659825E+02 -0.82631714571E+02  0.20182756554E+03  0.22100707073E+03  0.00000000000E+00 0. -1.
        -13    1    3    3    0    0 -0.63128930352E+02 -0.13304274109E+02  0.36625764555E+02  0.74187008204E+02  0.00000000000E+00 0. -1.
         13    1    3    3    0    0 -0.28275973701E+02  0.47460388060E+02 -0.22243975621E+02  0.59555130552E+02  0.00000000000E+00 0.  1.
         -2    1    1    2    0  502 -0.99066786384E+01  0.54666518042E+02  0.20081194338E+03  0.20835548248E+03  0.00000000000E+00 0.  1.
<scales pt_clust_5="13000.00000" pt_clust_6="13000.00000" pt_clust_7="13000.00000" pt_clust_8="13000.00000" pt_clust_9="55.55691"></scales>
<clustering>
<clus scale="   55.557">  1  9  2 -1</clus>
<clus scale="   90.325">  7  8 -1 -1</clus>
<clus scale="   90.421">  5  6 -1 -1</clus>
<clus scale="  137.499">  2  7  1 -1</clus>
<clus scale="   55.557">  1  5  2 -1</clus>
</clustering>
</event>
<event>
 9    1  0.1610296E-005  0.1035422E+03  0.7546771E-02  0.1273621E+00
         -2   -1    0    0    0  501 -0.00000000000E+00  0.00000000000E+00  0.65602133481E+03  0.65602133481E+03  0.00000000000E+00 0.  1.
         21   -1    0    0  501  502  0.00000000000E+00 -0.00000000000E+00 -0.22309698935E+02  0.22309698935E+02  0.00000000000E+00 0. -1.
         23    2    1    2    0    0  0.45252941798E+02 -0.29542693300E+02  0.34422362233E+03  0.36008946263E+03  0.90851083951E+02 0.  0.
         23    2    1    2    0    0 -0.42126524248E+02  0.21064981622E+01  0.25241488296E+03  0.27201456276E+03  0.92193100800E+02 0.  0.
        -11    1    4    4    0    0  0.22359972151E+02  0.15275937383E+02  0.13235969951E+03  0.13510149027E+03  0.00000000000E+00 0.  1.
         11    1    4    4    0    0 -0.64486496399E+02 -0.13169439221E+02  0.12005518345E+03  0.13691307250E+03  0.00000000000E+00 0. -1.
        -13    1    3    3    0    0  0.70105873227E+01  0.26880283741E+02  0.42579666307E+02  0.50840200348E+02  0.00000000000E+00 0. -1.
         13    1    3    3    0    0  0.38242354476E+02 -0.56422977041E+02  0.30164395602E+03  0.30924926228E+03  0.00000000000E+00 0.  1.
         -2    1    1    2    0  502 -0.31264175500E+01  0.27436195138E+02  0.37073130587E+02  0.46227008360E+02  0.00000000000E+00 0.  1.
<scales pt_clust_5="13000.00000" pt_clust_6="13000.00000" pt_clust_7="13000.00000" pt_clust_8="13000.00000" pt_clust_9="27.61375"></scales>
<clustering>
<clus scale="   27.614">  2  9  1 -1</clus>
<clus scale="   90.851">  7  8 -1 -1</clus>
<clus scale="   92.193">  5  6 -1 -1</clus>
<clus scale="  102.349">  1  7  2 -1</clus>
<clus scale="   27.614">  2  5  1 -1</clus>
</clustering>
</event>
<event>
 9    1  0.1610296E-005  0.1003580E+03  0.7546771E-02  0.1281171E+00
         21   -1    0    0  501  502  0.00000000000E+00  0.00000000000E+00  0.49538490661E+02  0.49538490661E+02  0.00000000000E+00 0.  1.
          1   -1    0    0  502    0 -0.00000000000E+00 -0.00000000000E+00 -0.37994943493E+03  0.37994943493E+03  0.00000000000E+00 0. -1.
         23    2    1    2    0    0  0.19940624175E+02 -0.33605277191E+02 -0.21907107220E+03  0.24074315438E+03  0.91859613325E+02 0.  0.
         23    2    1    2    0    0 -0.30232021652E+02  0.11802981612E+01 -0.11751822476E+03  0.15416928612E+03  0.95090837602E+02 0.  0.
        -11    1    4    4    0    0  0.10667267653E+02  0.32060307507E+02 -0.89711986393E+02  0.95863937011E+02  0.00000000000E+00 0. -1.
         11    1    4    4    0    0 -0.40899289304E+02 -0.30880009345E+02 -0.27806238363E+02  0.58305349108E+02  0.00000000000E+00 0.  1.
        -13    1    3    3    0    0  0.30227226240E+02 -0.61604214092E+02 -0.13315978757E+03  0.14980084588E+03  0.00000000000E+00 0.  1.
         13    1    3    3    0    0 -0.10286602065E+02  0.27998936901E+02 -0.85911284627E+02  0.90942308503E+02  0.00000000000E+00 0. -1.
          1    1    1    2  501    0  0.10291397476E+02  0.32424979030E+02  0.61783526871E+01  0.34575485087E+02  0.00000000000E+00 0. -1.
<scales pt_clust_5="13000.00000" pt_clust_6="13000.00000" pt_clust_7="13000.00000" pt_clust_8="13000.00000" pt_clust_9="34.01900"></scales>
<clustering>
<clus scale="   34.019">  1  9  2 -1</clus>
<clus scale="   91.860">  7  8 -1 -1</clus>
<clus scale="   95.091">  5  6 -1 -1</clus>
<clus scale="   97.302">  2  7  1 -1</clus>
<clus scale="   34.019">  1  5  2 -1</clus>
</clustering>
</event>
<event>
 9    1  0.1610296E-005  0.1116447E+03  0.7546771E-02  0.1257634E+00
         21   -1    0    0  501  502  0.00000000000E+00  0.00000000000E+00  0.34703404714E+03  0.34703404714E+03  0.00000000000E+00 0. -1.
          3   -1    0    0  502    0 -0.00000000000E+00 -0.00000000000E+00 -0.15504007104E+03  0.15504007104E+03  0.00000000000E+00 0. -1.
         23    2    1    2    0    0 -0.59685393493E+02  0.38110814102E+02 -0.10409538738E+03  0.15638382985E+03  0.92764606492E+02 0.  0.
         23    2    1    2    0    0  0.23319832828E+02 -0.15299540471E+02  0.80282995208E+02  0.12565575286E+03  0.92553327148E+02 0.  0.
        -11    1    3    3    0    0 -0.63810530879E+02  0.57852417366E+02 -0.10546740214E+03  0.13616922913E+03  0.00000000000E+00 0. -1.
         11    1    3    3    0    0  0.41251373864E+01 -0.19741603264E+02  0.13720147652E+01  0.20214600724E+02  0.00000000000E+00 0.  1.
        -13    1    4    4    0    0  0.46881099652E+02 -0.37003556620E+02  0.69988178557E+02  0.92007857517E+02  0.00000000000E+00 0.  1.
         13    1    4    4    0    0 -0.23561266824E+02  0.21704016148E+02  0.10294816651E+02  0.33647895346E+02  0.00000000000E+00 0. -1.
          3    1    1    2  501    0  0.36365560665E+02 -0.22811273631E+02  0.21580636828E+03  0.22003453546E+03  0.00000000000E+00 0. -1.
<scales pt_clust_5="13000.00000" pt_clust_6="13000.00000" pt_clust_7="13000.00000" pt_clust_8="13000.00000" pt_clust_9="42.92794"></scales>
<clustering>
<clus scale="   42.928">  1  9  2 -1</clus>
<clus scale="   92.553">  7  8 -1 -1</clus>
<clus scale="   92.765">  5  6 -1 -1</clus>
<clus scale="  111.469">  1  7  2 -1</clus>
<clus scale="   42.928">  1  5  2 -1</clus>
</clustering>
</event>
<event>
 9    1  0.1610296E-005  0.1016536E+03  0.7546771E-02  0.1277708E+00
         21   -1    0    0  501  502  0.00000000000E+00  0.00000000000E+00  0.89483959758E+02  0.89483959758E+02  0.00000000000E+00 0. -1.
          4   -1    0    0  502    0 -0.00000000000E+00 -0.00000000000E+00 -0.42959264562E+03  0.42959264562E+03  0.00000000000E+00 0. -1.
         23    2    1    2    0    0  0.14257997756E+02 -0.51838538740E+02 -0.28838133188E+03  0.30734092016E+03  0.91674009552E+02 0.  0.
         23    2    1    2    0    0  0.94669147485E+01  0.15731830722E+02 -0.10590770950E+03  0.14243866680E+03  0.93462387605E+02 0.  0.
        -13    1    4    4    0    0 -0.38269257133E+02 -0.71189782438E+01 -0.64102007786E+02  0.74995221814E+02  0.00000000000E+00 0.  1.
         13    1    4    4    0    0  0.47736171882E+02  0.22850808966E+02 -0.41805701709E+02  0.67443444987E+02  0.00000000000E+00 0. -1.
        -13    1    3    3    0    0  0.39871674893E+02 -0.53673226347E+02 -0.26250082477E+03  0.27088235212E+03  0.00000000000E+00 0. -1.
         13    1    3    3    0    0 -0.25613677137E+02  0.18346876065E+01 -0.25880507114E+02  0.36458568040E+02  0.00000000000E+00 0.  1.
          4    1    1    2  501    0 -0.23724912504E+02  0.36106708019E+02  0.54180355518E+02  0.69297018416E+02  0.00000000000E+00 0. -1.
<scales pt_clust_5="13000.00000" pt_clust_6="13000.00000" pt_clust_7="13000.00000" pt_clust_8="13000.00000" pt_clust_9="43.20377"></scales>
<clustering>
<clus scale="   43.204">  1  9  2 -1</clus>
<clus scale="   91.674">  7  8 -1 -1</clus>
<clus scale="   93.462">  5  6 -1 -1</clus>
<clus scale="  100.012">  2  7  1 -1</clus>
<clus scale="   43.204">  1  5  2 -1</clus>
</clustering>
</event>
<event>
 9    1  0.1610296E-005  0.1921182E+03  0.7546771E-02  0.1156657E+00
          1   -1    0    0  502    0 -0.00000000000E+00  0.00000000000E+00  0.30051836367E+03  0.30051836367E+03  0.00000000000E+00 0. -1.
         21   -1    0    0  501  502  0.00000000000E+00 -0.00000000000E+00 -0.22341485451E+03  0.22341485451E+03  0.00000000000E+00 0.  1.
         23    2    1    2    0    0  0.60460317036E+02  0.15625842769E+03  0.16414097788E+03  0.25135916110E+03  0.90371572334E+02 0.  0.
         23    2    1    2    0    0 -0.97860585478E+02 -0.14630040112E+03 -0.25524297056E+02  0.19989797668E+03  0.91253546694E+02 0.  0.
        -11    1    4    4    0    0  0.12063519428E+02 -0.50977885664E+02 -0.13347960061E+01  0.52402814887E+02  0.00000000000E+00 0. -1.
         11    1    4    4    0    0 -0.10992410491E+03 -0.95322515456E+02 -0.24189501049E+02  0.14749516180E+03  0.00000000000E+00 0.  1.
        -13    1    3    3    0    0  0.26103934998E+02  0.73528374826E+02  0.18201160313E+02  0.80119408158E+02  0.00000000000E+00 0.  1.
         13    1    3    3    0    0  0.34356382038E+02  0.82730052864E+02  0.14593981757E+03  0.17123975294E+03  0.00000000000E+00 0. -1.
          1    1    1    2  501    0  0.37400268442E+02 -0.99580265706E+01 -0.61513171675E+02  0.72676080399E+02  0.00000000000E+00 0. -1.
<scales pt_clust_5="13000.00000" pt_clust_6="13000.00000" pt_clust_7="13000.00000" pt_clust_8="13000.00000" pt_clust_9="38.70326"></scales>
<clustering>
<clus scale="   38.703">  2  9  1 -1</clus>
<clus scale="   90.372">  7  8 -1 -1</clus>
<clus scale="   91.254">  5  6 -1 -1</clus>
<clus scale="  191.701">  1  7  2 -1</clus>
<clus scale="   38.703">  2  5  1 -1</clus>
</clustering>
</event>
<event>
 9    1  0.2121352E-005  0.1201053E+03  0.7546771E-02  0.1243127E+00
          1   -1    0    0  502    0 -0.00000000000E+00  0.00000000000E+00  0.38858256731E+03  0.38858256731E+03  0.00000000000E+00 0. -1.
         21   -1    0    0  501  502  0.00000000000E+00 -0.00000000000E+00 -0.28468209669E+03  0.28468209669E+03  0.00000000000E+00 0. -1.
         23    2    1    2    0    0 -0.61972572170E+02  0.78084301333E+02  0.29090846331E+03  0.32042552358E+03  0.90039015551E+02 0.  0.
         23    2    1    2    0    0  0.31171248046E+02 -0.19957108090E+02  0.47796136662E+02  0.10899396140E+03  0.90693329824E+02 0.  0.
        -13    1    4    4    0    0 -0.31879110839E+02 -0.77315722572E+01  0.92196176693E+01  0.34074275743E+02  0.00000000000E+00 0.  1.
         13    1    4    4    0    0  0.63050358885E+02 -0.12225535833E+02  0.38576518993E+02  0.74919685661E+02  0.00000000000E+00 0. -1.
        -13    1    3    3    0    0  0.71610756239E+01  0.45319771161E+02  0.17954794046E+03  0.18531763431E+03  0.00000000000E+00 0. -1.
         13    1    3    3    0    0 -0.69133647794E+02  0.32764530171E+02  0.11136052285E+03  0.13510788928E+03  0.00000000000E+00 0.  1.
          1    1    1    2  501    0  0.30801324124E+02 -0.58127193242E+02 -0.23480412936E+03  0.24384517901E+03  0.00000000000E+00 0. -1.
<scales pt_clust_5="13000.00000" pt_clust_6="13000.00000" pt_clust_7="13000.00000" pt_clust_8="13000.00000" pt_clust_9="65.78368"></scales>
<clustering>
<clus scale="   65.784">  2  9  1 -1</clus>
<clus scale="   90.039">  7  8 -1 -1</clus>
<clus scale="   90.693">  5  6 -1 -1</clus>
<clus scale="  119.612">  1  7  2 -1</clus>
<clus scale="   65.784">  2  5  1 -1</clus>
</clustering>
</event>
<event>
 9    1  0.1610296E-005  0.2711803E+03  0.7546771E-02  0.1100658E+00
         21   -1    0    0  501  502  0.00000000000E+00  0.00000000000E+00  0.44545653179E+03  0.44545653179E+03  0.00000000000E+00 0.  1.
          1   -1    0    0  502    0 -0.00000000000E+00 -0.00000000000E+00 -0.48076189328E+03  0.48076189328E+03  0.00000000000E+00 0. -1.
         23    2    1    2    0    0 -0.17776294427E+03 -0.17783011522E+03 -0.35411197381E+03  0.44347640908E+03  0.89737512677E+02 0.  0.
         23    2    1    2    0    0  0.23118663590E+03  0.16844742733E+03  0.22774191696E+03  0.37674718403E+03  0.90830961378E+02 0.  0.
        -11    1    3    3    0    0 -0.14509750753E+03 -0.17366224956E+03 -0.26501878398E+03  0.34849220863E+03  0.00000000000E+00 0. -1.
         11    1    3    3    0    0 -0.32665436735E+02 -0.41678656628E+01 -0.89093189827E+02  0.94984200448E+02  0.00000000000E+00 0.  1.
        -11    1    4    4    0    0  0.20637014074E+03  0.17889772571E+03  0.20483584150E+03  0.34139530345E+03  0.00000000000E+00 0.  1.
         11    1    4    4    0    0  0.24816495162E+02 -0.10450298377E+02  0.22906075455E+02  0.35351880587E+02  0.00000000000E+00 0. -1.
          1    1    1    2  501    0 -0.53423691633E+02  0.93826878903E+01  0.91064695363E+02  0.10599483196E+03  0.00000000000E+00 0. -1.
<scales pt_clust_5="13000.00000" pt_clust_6="13000.00000" pt_clust_7="13000.00000" pt_clust_8="13000.00000" pt_clust_9="54.24136"></scales>
<clustering>
<clus scale="   54.241">  1  9  2 -1</clus>
<clus scale="   89.738">  5  6 -1 -1</clus>
<clus scale="   90.831">  7  8 -1 -1</clus>
<clus scale="  270.816">  2  5  1 -1</clus>
<clus scale="   54.241">  1  5  2 -1</clus>
</clustering>
</event>
<event>
 9    1  0.1610296E-005  0.1405622E+03  0.7546771E-02  0.1212747E+00
          2   -1    0    0  502    0 -0.00000000000E+00  0.00000000000E+00  0.49995251535E+03  0.49995251535E+03  0.00000000000E+00 0. -1.
         21   -1    0    0  501  502  0.00000000000E+00 -0.00000000000E+00 -0.15740788143E+03  0.15740788143E+03  0.00000000000E+00 0. -1.
         23    2    1    2    0    0  0.86497926431E+01  0.10240960510E+03  0.36385953066E+03  0.38891862114E+03  0.91111962407E+02 0.  0.
         23    2    1    2    0    0  0.23271180879E+01 -0.12020711419E+03  0.75694309599E+02  0.16920453458E+03  0.91898749920E+02 0.  0.
        -11    1    4    4    0    0 -0.24773605142E+02 -0.31000806918E+01  0.33567253434E+02  0.41834226599E+02  0.00000000000E+00 0.  1.
         11    1    4    4    0    0  0.27100723230E+02 -0.11710703350E+03  0.42127056165E+02  0.12737030798E+03  0.00000000000E+00 0. -1.
        -13    1    3    3    0    0  0.43391496090E+02  0.85368451079E+02  0.21985872642E+03  0.23980920324E+03  0.00000000000E+00 0.  1.
         13    1    3    3    0    0 -0.34741703447E+02  0.17041154017E+02  0.14400080423E+03  0.14910941791E+03  0.00000000000E+00 0. -1.
          2    1    1    2  501    0 -0.10976910731E+02  0.17797509097E+02 -0.97009206336E+02  0.99237241060E+02  0.00000000000E+00 0. -1.
<scales pt_clust_5="13000.00000" pt_clust_6="13000.00000" pt_clust_7="13000.00000" pt_clust_8="13000.00000" pt_clust_9="20.91038"></scales>
<clustering>
<clus scale="   20.910">  2  9  1 -1</clus>
<clus scale="   91.112">  7  8 -1 -1</clus>
<clus scale="   91.899">  5  6 -1 -1</clus>
<clus scale="  140.049">  1  7  2 -1</clus>
<clus scale="   20.910">  2  5  1 -1</clus>
</clustering>
</event>
<event>
 9    1  0.1610296E-005  0.1068233E+03  0.7546771E-02  0.1269554E+00
         21   -1    0    0  501  502  0.00000000000E+00  0.00000000000E+00  0.10159072696E+03  0.10159072696E+03  0.00000000000E+00 0. -1.
          1   -1    0    0  502    0 -0.00000000000E+00 -0.00000000000E+00 -0.30419680483E+03  0.30419680483E+03  0.00000000000E+00 0. -1.
         23    2    1    2    0    0 -0.72128853109E+01 -0.47336518148E+02 -0.21910557735E+03  0.24204785157E+03  0.91033712195E+02 0.  0.
         23    2    1    2    0    0 -0.38469391215E+02  0.19670778920E+02  0.24981319537E+02  0.10966376333E+03  0.97648558920E+02 0.  0.
        -11    1    4    4    0    0 -0.99328379197E+01  0.55576593842E+02  0.29279812014E+02  0.63598163840E+02  0.00000000000E+00 0.  1.
         11    1    4    4    0    0 -0.28536553295E+02 -0.35905814922E+02 -0.42984924769E+01  0.46065599494E+02  0.00000000000E+00 0. -1.
        -11    1    3    3    0    0 -0.42587375203E+02  0.55610853192E+00 -0.77457933313E+02  0.88395278248E+02  0.00000000000E+00 0.  1.
         11    1    3    3    0    0  0.35374489892E+02 -0.47892626680E+02 -0.14164764404E+03  0.15365257332E+03  0.00000000000E+00 0. -1.
          1    1    1    2  501    0  0.45682276526E+02  0.27665739227E+02 -0.84818200571E+01  0.54075916886E+02  0.00000000000E+00 0. -1.
<scales pt_clust_5="13000.00000" pt_clust_6="13000.00000" pt_clust_7="13000.00000" pt_clust_8="13000.00000" pt_clust_9="53.40659"></scales>
<clustering>
<clus scale="   53.407">  1  9  2 -1</clus>
<clus scale="   91.034">  7  8 -1 -1</clus>
<clus scale="   97.649">  5  6 -1 -1</clus>
<clus scale="  100.812">  2  7  1 -1</clus>
<clus scale="   53.407">  1  5  2 -1</clus>
</clustering>
</event>
<event>
 9    1  0.1610296E-005  0.1012937E+03  0.7546771E-02  0.1277767E+00
         -1   -1    0    0    0  501 -0.00000000000E+00  0.00000000000E+00  0.79467755667E+03  0.79467755667E+03  0.00000000000E+00 0.  1.
         21   -1    0    0  501  502  0.00000000000E+00 -0.00000000000E+00 -0.41418310328E+02  0.41418310328E+02  0.00000000000E+00 0.  1.
         23    2    1    2    0    0 -0.61311664151E+01 -0.22741082782E+02  0.41068969257E+03  0.42191736638E+03  0.93773623297E+02 0.  0.
         23    2    1    2    0    0  0.61806702547E+02  0.37721303044E+02  0.33595905326E+03  0.35614513918E+03  0.93423281430E+02 0.  0.
        -13    1    4    4    0    0 -0.18276641943E+01  0.39393835770E+02  0.22321390759E+03  0.22667082563E+03  0.00000000000E+00 0.  1.
         13    1    4    4    0    0  0.63634366741E+02 -0.16725327260E+01  0.11274514567E+03  0.12947431355E+03  0.00000000000E+00 0. -1.
        -13    1    3    3    0    0 -0.46981682323E+02 -0.43965880129E+01  0.14512570942E+03  0.15260432495E+03  0.00000000000E+00 0.  1.
         13    1    3    3    0    0  0.40850515908E+02 -0.18344494769E+02  0.26556398315E+03  0.26931304143E+03  0.00000000000E+00 0. -1.
         -1    1    1    2    0  502 -0.55675536132E+02 -0.14980220262E+02  0.66105005201E+01  0.58033361438E+02  0.00000000000E+00 0.  1.
<scales pt_clust_5="13000.00000" pt_clust_6="13000.00000" pt_clust_7="13000.00000" pt_clust_8="13000.00000" pt_clust_9="57.65564"></scales>
<clustering>
<clus scale="   57.656">  2  9  1 -1</clus>
<clus scale="   93.423">  5  6 -1 -1</clus>
<clus scale="   93.774">  7  8 -1 -1</clus>
<clus scale="  100.969">  2  5  1 -1</clus>
<clus scale="   57.656">  2  5  1 -1</clus>
</clustering>
</event>
<event>
 9    1  0.1610296E-005  0.1142360E+03  0.7546771E-02  0.1253211E+00
          1   -1    0    0  502    0 -0.00000000000E+00  0.00000000000E+00  0.75126761012E+03  0.75126761012E+03  0.00000000000E+00 0. -1.
         21   -1    0    0  501  502  0.00000000000E+00 -0.00000000000E+00 -0.31035014736E+02  0.31035014736E+02  0.00000000000E+00 0.  1.
         23    2    1    2    0    0  0.13365549189E+02 -0.53096951278E+02  0.29671427247E+03  0.31504563091E+03  0.90644723668E+02 0.  0.
         23    2    1    2    0    0 -0.67567291774E+02  0.65127584521E+02  0.36091960969E+03  0.38358403575E+03  0.89815403147E+02 0.  0.
        -11    1    3    3    0    0  0.45851942719E+02 -0.21908129846E+02  0.88821125510E+02  0.10233063638E+03  0.00000000000E+00 0.  1.
         11    1    3    3    0    0 -0.32486393530E+02 -0.31188821432E+02  0.20789314696E+03  0.21271499453E+03  0.00000000000E+00 0. -1.
        -11    1    4    4    0    0 -0.37591577582E+01  0.62516558036E+02  0.13515112564E+03  0.14895730280E+03  0.00000000000E+00 0.  1.
         11    1    4    4    0    0 -0.63808134015E+02  0.26110264851E+01  0.22576848405E+03  0.23462673295E+03  0.00000000000E+00 0. -1.
          1    1    1    2  501    0  0.54201742585E+02 -0.12030633243E+02  0.62598713233E+02  0.83672958199E+02  0.00000000000E+00 0. -1.
<scales pt_clust_5="13000.00000" pt_clust_6="13000.00000" pt_clust_7="13000.00000" pt_clust_8="13000.00000" pt_clust_9="55.52085"></scales>
<clustering>
<clus scale="   55.521">  2  9  1 -1</clus>
<clus scale="   89.815">  7  8 -1 -1</clus>
<clus scale="   90.645">  5  6 -1 -1</clus>
<clus scale="  113.579">  2  7  1 -1</clus>
<clus scale="   55.521">  2  5  1 -1</clus>
</clustering>
</event>
<event>
 9    1  0.1610296E-005  0.1021024E+03  0.7546771E-02  0.1276778E+00
          1   -1    0    0  502    0 -0.00000000000E+00  0.00000000000E+00  0.18717669525E+03  0.18717669525E+03  0.00000000000E+00 0. -1.
         21   -1    0    0  501  502  0.00000000000E+00 -0.00000000000E+00 -0.10718767171E+03  0.10718767171E+03  0.00000000000E+00 0.  1.
         23    2    1    2    0    0  0.33077549920E+02  0.13811744252E+02  0.95085046566E+02  0.13564175627E+03  0.89847823434E+02 0.  0.
         23    2    1    2    0    0 -0.72894060871E+02 -0.15018380698E+02 -0.89472319254E+01  0.11841605851E+03  0.91669046496E+02 0.  0.
        -11    1    3    3    0    0  0.37029400800E+02 -0.61843798956E+01  0.10604839448E+03  0.11249748908E+03  0.00000000000E+00 0. -1.
         11    1    3    3    0    0 -0.39518508796E+01  0.19996124148E+02 -0.10963347912E+02  0.23144267190E+02  0.00000000000E+00 0.  1.
        -13    1    4    4    0    0 -0.45863857028E+02 -0.86370701401E+01 -0.50291149190E+02  0.68609708125E+02  0.00000000000E+00 0.  1.
         13    1    4    4    0    0 -0.27030203843E+02 -0.63813105580E+01  0.41343917265E+02  0.49806350388E+02  0.00000000000E+00 0. -1.
          1    1    1    2  501    0  0.39816510950E+02  0.12066364462E+01 -0.61487911029E+01  0.40306552170E+02  0.00000000000E+00 0. -1.
<scales pt_clust_5="13000.00000" pt_clust_6="13000.00000" pt_clust_7="13000.00000" pt_clust_8="13000.00000" pt_clust_9="39.83479"></scales>
<clustering>
<clus scale="   39.835">  2  9  1 -1</clus>
<clus scale="   89.848">  5  6 -1 -1</clus>
<clus scale="   91.669">  7  8 -1 -1</clus>
<clus scale="  100.471">  1  5  2 -1</clus>
<clus scale="   39.835">  2  5  1 -1</clus>
</clustering>
</event>
<event>
 9    1  0.1610296E-005  0.1056661E+03  0.7546771E-02  0.1273973E+00
         21   -1    0    0  501  502  0.00000000000E+00  0.00000000000E+00  0.31978956441E+03  0.31978956441E+03  0.00000000000E+00 0.  1.
          1   -1    0    0  502    0 -0.00000000000E+00 -0.00000000000E+00 -0.48960851029E+02  0.48960851029E+02  0.00000000000E+00 0. -1.
         23    2    1    2    0    0  0.68920392592E+01 -0.19488241160E+02  0.88100521270E+02  0.13533058192E+03  0.10062491146E+03 0.  0.
         23    2    1    2    0    0  0.30482451917E+01  0.44368381419E+02  0.83420109678E+02  0.13056106690E+03  0.90052387099E+02 0.  0.
        -11    1    4    4    0    0 -0.25460131440E+02 -0.93629502092E+01 -0.23736764225E+00  0.27128204381E+02  0.00000000000E+00 0. -1.
         11    1    4    4    0    0  0.28508376632E+02  0.53731331628E+02  0.83657477320E+02  0.10343286252E+03  0.00000000000E+00 0.  1.
        -13    1    3    3    0    0  0.37897929775E+02 -0.40176077689E+02  0.79956544633E+02  0.97177257264E+02  0.00000000000E+00 0. -1.
         13    1    3    3    0    0 -0.31005890516E+02  0.20687836529E+02  0.81439766365E+01  0.38153324657E+02  0.00000000000E+00 0.  1.
          1    1    1    2  501    0 -0.99402844510E+01 -0.24880140259E+02  0.99308082438E+02  0.10285876663E+03  0.00000000000E+00 0. -1.
<scales pt_clust_5="13000.00000" pt_clust_6="13000.00000" pt_clust_7="13000.00000" pt_clust_8="13000.00000" pt_clust_9="26.79236"></scales>
<clustering>
<clus scale="   26.792">  1  9  2 -1</clus>
<clus scale="   90.052">  5  6 -1 -1</clus>
<clus scale="   95.652">  1  5  2 -1</clus>
<clus scale="  100.625">  7  8 -1 -1</clus>
<clus scale="   26.792">  1  5  2 -1</clus>
</clustering>
</event>
<event>
 9    1  0.1610296E-005  0.1716374E+03  0.7546771E-02  0.1176305E+00
          2   -1    0    0  502    0 -0.00000000000E+00  0.00000000000E+00  0.60833763819E+03  0.60833763819E+03  0.00000000000E+00 0. -1.
         21   -1    0    0  501  502  0.00000000000E+00 -0.00000000000E+00 -0.67466133392E+02  0.67466133392E+02  0.00000000000E+00 0.  1.
         23    2    1    2    0    0 -0.13934190389E+03  0.46788187021E+02  0.32910987255E+03  0.37156327042E+03  0.90225578908E+02 0.  0.
         23    2    1    2    0    0  0.12379911703E+03 -0.73680113312E+02  0.12329482954E+03  0.21047947992E+03  0.91351059107E+02 0.  0.
        -11    1    3    3    0    0 -0.43598987161E+02  0.45165844266E+02  0.20744455058E+03  0.21673501502E+03  0.00000000000E+00 0.  1.
         11    1    3    3    0    0 -0.95742916730E+02  0.16223427549E+01  0.12166532197E+03  0.15482825540E+03  0.00000000000E+00 0. -1.
        -11    1    4    4    0    0  0.77014012642E+02 -0.90019928604E+02  0.69553224594E+02  0.13737684208E+03  0.00000000000E+00 0.  1.
         11    1    4    4    0    0  0.46785104392E+02  0.16339815292E+02  0.53741604942E+02  0.73102637836E+02  0.00000000000E+00 0. -1.
          2    1    1    2  501    0  0.15542786857E+02  0.26891926292E+02  0.88466802712E+02  0.93761021246E+02  0.00000000000E+00 0. -1.
<scales pt_clust_5="13000.00000" pt_clust_6="13000.00000" pt_clust_7="13000.00000" pt_clust_8="13000.00000" pt_clust_9="31.06050"></scales>
<clustering>
<clus scale="   31.061">  2  9  1 -1</clus>
<clus scale="   90.226">  5  6 -1 -1</clus>
<clus scale="   91.351">  7  8 -1 -1</clus>
<clus scale="  171.041">  1  5  2 -1</clus>
<clus scale="   31.061">  2  5  1 -1</clus>
</clustering>
</event>
<event>
 9    1  0.1610296E-005  0.1092408E+03  0.7546771E-02  0.1262438E+00
         21   -1    0    0  501  502  0.00000000000E+00  0.00000000000E+00  0.24363607775E+02  0.24363607775E+02  0.00000000000E+00 0.  1.
          1   -1    0    0  502    0 -0.00000000000E+00 -0.00000000000E+00 -0.65610016714E+03  0.65610016714E+03  0.00000000000E+00 0. -1.
         23    2    1    2    0    0  0.42356188859E+02  0.34203666800E+02 -0.34364334833E+03  0.35974606209E+03  0.91446928766E+02 0.  0.
         23    2    1    2    0    0 -0.63981456000E+02 -0.30186066149E+02 -0.20655276942E+03  0.23626277269E+03  0.90284139825E+02 0.  0.
        -11    1    4    4    0    0 -0.86385997182E+02 -0.16473518879E+02 -0.16776228887E+03  0.18941516016E+03  0.00000000000E+00 0.  1.
         11    1    4    4    0    0  0.22404541183E+02 -0.13712547270E+02 -0.38790480552E+02  0.46847612530E+02  0.00000000000E+00 0. -1.
        -13    1    3    3    0    0  0.13778129121E+02  0.60199011103E+02 -0.14873794575E+03  0.16104885683E+03  0.00000000000E+00 0. -1.
         13    1    3    3    0    0  0.28578059739E+02 -0.25995344304E+02 -0.19490540258E+03  0.19869720526E+03  0.00000000000E+00 0.  1.
          1    1    1    2  501    0  0.21625267140E+02 -0.40176006503E+01 -0.81540441616E+02  0.84454940133E+02  0.00000000000E+00 0. -1.
<scales pt_clust_5="13000.00000" pt_clust_6="13000.00000" pt_clust_7="13000.00000" pt_clust_8="13000.00000" pt_clust_9="21.99531"></scales>
<clustering>
<clus scale="   21.995">  1  9  2 -1</clus>
<clus scale="   90.284">  5  6 -1 -1</clus>
<clus scale="   91.447">  7  8 -1 -1</clus>
<clus scale="  108.269">  1  5  2 -1</clus>
<clus scale="   21.995">  1  5  2 -1</clus>
</clustering>
</event>
<event>
 9    1  0.1610296E-005  0.1018831E+03  0.7546771E-02  0.1280580E+00
         21   -1    0    0  501  502  0.00000000000E+00  0.00000000000E+00  0.23472669242E+03  0.23472669242E+03  0.00000000000E+00 0.  1.
         -1   -1    0    0    0  501 -0.00000000000E+00 -0.00000000000E+00 -0.88477407263E+02  0.88477407263E+02  0.00000000000E+00 0.  1.
         23    2    1    2    0    0  0.34459742283E+00 -0.42485186647E+02 -0.33158219722E+02  0.10189634783E+03  0.86477097164E+02 0.  0.
         23    2    1    2    0    0 -0.75361760625E+01  0.16458843622E+02  0.10782489376E+03  0.14480180732E+03  0.94940340244E+02 0.  0.
        -11    1    4    4    0    0  0.17204826130E+02 -0.35201176509E+02  0.39367576426E+02  0.55542190661E+02  0.00000000000E+00 0.  1.
         11    1    4    4    0    0 -0.24741002192E+02  0.51660020131E+02  0.68457317333E+02  0.89259616658E+02  0.00000000000E+00 0. -1.
        -13    1    3    3    0    0  0.20891229851E+02 -0.63550506670E+02 -0.24151125641E+02  0.71122340037E+02  0.00000000000E+00 0.  1.
         13    1    3    3    0    0 -0.20546632428E+02  0.21065320023E+02 -0.90070940814E+01  0.30774007792E+02  0.00000000000E+00 0. -1.
         -1    1    1    2    0  502  0.71915786396E+01  0.26026343025E+02  0.71582611116E+02  0.76505944533E+02  0.00000000000E+00 0.  1.
<scales pt_clust_5="13000.00000" pt_clust_6="13000.00000" pt_clust_7="13000.00000" pt_clust_8="13000.00000" pt_clust_9="27.00165"></scales>
<clustering>
<clus scale="   27.002">  1  9  2 -1</clus>
<clus scale="   86.477">  7  8 -1 -1</clus>
<clus scale="   94.047">  2  7  1 -1</clus>
<clus scale="   94.940">  5  6 -1 -1</clus>
<clus scale="   27.002">  1  5  2 -1</clus>
</clustering>
</event>
<event>
 9    1  0.1610296E-005  0.1174435E+03  0.7546771E-02  0.1251513E+00
         21   -1    0    0  501  502  0.00000000000E+00  0.00000000000E+00  0.15630732362E+03  0.15630732362E+03  0.00000000000E+00 0. -1.
         -1   -1    0    0    0  501 -0.00000000000E+00 -0.00000000000E+00 -0.27560847508E+03  0.27560847508E+03  0.00000000000E+00 0.  1.
         23    2    1    2    0    0 -0.58601253741E+01 -0.61106282045E+02 -0.21474399635E+03  0.24131325157E+03  0.91371673085E+02 0.  0.
         23    2    1    2    0    0 -0.20941827467E+02  0.39763406913E+02  0.28278403352E+02  0.11520410416E+03  0.10223809883E+03 0.  0.
        -13    1    3    3    0    0 -0.84097227444E+00 -0.84901203713E+02 -0.17853373819E+03  0.19769475790E+03  0.00000000000E+00 0.  1.
         13    1    3    3    0    0 -0.50191530997E+01  0.23794921668E+02 -0.36210258154E+02  0.43618493677E+02  0.00000000000E+00 0. -1.
        -13    1    4    4    0    0 -0.50280220114E+01 -0.31107868644E+02 -0.10050540236E+02  0.33075577938E+02  0.00000000000E+00 0.  1.
         13    1    4    4    0    0 -0.15913805455E+02  0.70871275557E+02  0.38328943587E+02  0.82128526224E+02  0.00000000000E+00 0. -1.
         -1    1    1    2    0  502  0.26801952841E+02  0.21342875132E+02  0.67164441539E+02  0.75398442969E+02  0.00000000000E+00 0.  1.
<scales pt_clust_5="13000.00000" pt_clust_6="13000.00000" pt_clust_7="13000.00000" pt_clust_8="13000.00000" pt_clust_9="34.26168"></scales>
<clustering>
<clus scale="   34.262">  1  9  2 -1</clus>
<clus scale="   91.372">  5  6 -1 -1</clus>
<clus scale="  102.238">  7  8 -1 -1</clus>
<clus scale="  108.116">  2  5  1 -1</clus>
<clus scale="   34.262">  1  5  2 -1</clus>
</clustering>
</event>
<event>
 9    1  0.1610296E-005  0.1157505E+03  0.7546771E-02  0.1252005E+00
         21   -1    0    0  501  502  0.00000000000E+00  0.00000000000E+00  0.57671709480E+02  0.57671709480E+02  0.00000000000E+00 0.  1.
          1   -1    0    0  502    0 -0.00000000000E+00 -0.00000000000E+00 -0.43505210607E+03  0.43505210607E+03  0.00000000000E+00 0. -1.
         23    2    1    2    0    0 -0.88471892830E+02 -0.29073568125E+02 -0.24130655656E+03  0.27444769791E+03  0.91761301589E+02 0.  0.
         23    2    1    2    0    0  0.20088105097E+02  0.18570507613E+02 -0.92954596894E+02  0.13675356963E+03  0.96501740928E+02 0.  0.
        -13    1    4    4    0    0  0.58913925042E+01  0.54249754406E+02 -0.78754023810E+02  0.95812006685E+02  0.00000000000E+00 0. -1.
         13    1    4    4    0    0  0.14196712592E+02 -0.35679246792E+02 -0.14200573084E+02  0.40941562940E+02  0.00000000000E+00 0.  1.
        -13    1    3    3    0    0 -0.75315587584E+02 -0.59342771366E+02 -0.15770064387E+03  0.18456298470E+03  0.00000000000E+00 0. -1.
         13    1    3    3    0    0 -0.13156305247E+02  0.30269203241E+02 -0.83605912688E+02  0.89884713211E+02  0.00000000000E+00 0.  1.
          1    1    1    2  501    0  0.68383787734E+02  0.10503060511E+02 -0.43119243137E+02  0.81522548008E+02  0.00000000000E+00 0. -1.
<scales pt_clust_5="13000.00000" pt_clust_6="13000.00000" pt_clust_7="13000.00000" pt_clust_8="13000.00000" pt_clust_9="69.18567"></scales>
<clustering>
<clus scale="   69.186">  1  9  2 -1</clus>
<clus scale="   91.761">  7  8 -1 -1</clus>
<clus scale="   96.502">  5  6 -1 -1</clus>
<clus scale="  111.829">  2  7  1 -1</clus>
<clus scale="   69.186">  1  5  2 -1</clus>
</clustering>
</event>
<event>
 9    1  0.1610296E-005  0.1068502E+03  0.7546771E-02  0.1267977E+00
          3   -1    0    0  502    0 -0.00000000000E+00  0.00000000000E+00  0.22438790126E+03  0.22438790126E+03  0.00000000000E+00 0. -1.
         21   -1    0    0  501  502  0.00000000000E+00 -0.00000000000E+00 -0.12901540623E+03  0.12901540623E+03  0.00000000000E+00 0. -1.
         23    2    1    2    0    0  0.62865355250E+02  0.40743127353E+00  0.15152615446E+03  0.18957281833E+03  0.95002416135E+02 0.  0.
         23    2    1    2    0    0 -0.12230957731E+02 -0.57321613843E+01 -0.67118468395E+01  0.92860863306E+02  0.91627708936E+02 0.  0.
        -11    1    3    3    0    0 -0.99753958334E+01 -0.23868356867E+02  0.84798955745E+01  0.27223438624E+02  0.00000000000E+00 0.  1.
         11    1    3    3    0    0  0.72840751083E+02  0.24275788141E+02  0.14304625889E+03  0.16234937970E+03  0.00000000000E+00 0. -1.
        -13    1    4    4    0    0 -0.38426955802E+02 -0.10993167191E+02 -0.35590360037E+02  0.53517795028E+02  0.00000000000E+00 0.  1.
         13    1    4    4    0    0  0.26195998071E+02  0.52610058067E+01  0.28878513197E+02  0.39343068278E+02  0.00000000000E+00 0. -1.
          3    1    1    2  501    0 -0.50634397519E+02  0.53247301108E+01 -0.49441812584E+02  0.70969625858E+02  0.00000000000E+00 0. -1.
<scales pt_clust_5="13000.00000" pt_clust_6="13000.00000" pt_clust_7="13000.00000" pt_clust_8="13000.00000" pt_clust_9="50.91360"></scales>
<clustering>
<clus scale="   50.914">  2  9  1 -1</clus>
<clus scale="   91.628">  7  8 -1 -1</clus>
<clus scale="   95.002">  5  6 -1 -1</clus>
<clus scale="  103.861">  2  7  1 -1</clus>
<clus scale="   50.914">  2  5  1 -1</clus>
</clustering>
</event>
<event>
 9    1  0.1610296E-005  0.1015465E+03  0.7546771E-02  0.1277097E+00
          1   -1    0    0  502    0 -0.00000000000E+00  0.00000000000E+00  0.45667435027E+03  0.45667435027E+03  0.00000000000E+00 0. -1.
         21   -1    0    0  501  502  0.00000000000E+00 -0.00000000000E+00 -0.13773504637E+03  0.13773504637E+03  0.00000000000E+00 0.  1.
         23    2    1    2    0    0 -0.41624644392E+02  0.49021559771E+01  0.39280338949E+03  0.40544282170E+03  0.91283825048E+02 0.  0.
         23    2    1    2    0    0  0.80469754714E+02  0.23515548606E+02 -0.40563684153E+02  0.13043944221E+03  0.91327285962E+02 0.  0.
        -11    1    4    4    0    0 -0.12390620304E+02  0.27482651515E+02 -0.16769740003E+02  0.34497069232E+02  0.00000000000E+00 0. -1.
         11    1    4    4    0    0  0.92860375017E+02 -0.39671029095E+01 -0.23793944150E+02  0.95942372975E+02  0.00000000000E+00 0.  1.
        -13    1    3    3    0    0  0.21106441032E+02  0.26089021092E+02  0.11077960911E+03  0.11575076963E+03  0.00000000000E+00 0.  1.
         13    1    3    3    0    0 -0.62731085425E+02 -0.21186865115E+02  0.28202378038E+03  0.28969205207E+03  0.00000000000E+00 0. -1.
          1    1    1    2  501    0 -0.38845110322E+02 -0.28417704583E+02 -0.33300401438E+02  0.58527132730E+02  0.00000000000E+00 0. -1.
<scales pt_clust_5="13000.00000" pt_clust_6="13000.00000" pt_clust_7="13000.00000" pt_clust_8="13000.00000" pt_clust_9="48.13012"></scales>
<clustering>
<clus scale="   48.130">  2  9  1 -1</clus>
<clus scale="   91.284">  7  8 -1 -1</clus>
<clus scale="   91.327">  5  6 -1 -1</clus>
<clus scale="  101.507">  1  7  2 -1</clus>
<clus scale="   48.130">  2  5  1 -1</clus>
</clustering>
</event>
<event>
 9    1  0.1610296E-005  0.1224427E+03  0.7546771E-02  0.1239903E+00
         -2   -1    0    0    0  501 -0.00000000000E+00  0.00000000000E+00  0.56784866163E+03  0.56784866163E+03  0.00000000000E+00 0.  1.
         21   -1    0    0  501  502  0.00000000000E+00 -0.00000000000E+00 -0.33786898292E+02  0.33786898292E+02  0.00000000000E+00 0.  1.
         23    2    1    2    0    0 -0.71520820602E+02  0.36665816846E+02  0.26514613783E+03  0.29295227076E+03  0.95178509278E+02 0.  0.
         23    2    1    2    0    0  0.49542969265E+02 -0.57948096868E+02  0.19933056006E+03  0.23266985138E+03  0.92682791443E+02 0.  0.
        -11    1    3    3    0    0 -0.76439234518E+02  0.62077843622E+02  0.21673391928E+03  0.23805505037E+03  0.00000000000E+00 0.  1.
         11    1    3    3    0    0  0.49184139161E+01 -0.25412026776E+02  0.48412218555E+02  0.54897220382E+02  0.00000000000E+00 0. -1.
        -13    1    4    4    0    0  0.46443229195E+02  0.20405982813E+01  0.14282735445E+03  0.15020249918E+03  0.00000000000E+00 0.  1.
         13    1    4    4    0    0  0.30997400698E+01 -0.59988695149E+02  0.56503205613E+02  0.82467352199E+02  0.00000000000E+00 0. -1.
         -2    1    1    2    0  502  0.21977851336E+02  0.21282280021E+02  0.69585065442E+02  0.76013437791E+02  0.00000000000E+00 0.  1.
<scales pt_clust_5="13000.00000" pt_clust_6="13000.00000" pt_clust_7="13000.00000" pt_clust_8="13000.00000" pt_clust_9="30.59350"></scales>
<clustering>
<clus scale="   30.594">  2  9  1 -1</clus>
<clus scale="   92.683">  7  8 -1 -1</clus>
<clus scale="   95.179">  5  6 -1 -1</clus>
<clus scale="  120.513">  2  7  1 -1</clus>
<clus scale="   30.594">  2  5  1 -1</clus>
</clustering>
</event>
<event>
 9    1  0.1610296E-005  0.1451888E+03  0.7546771E-02  0.1206756E+00
         -3   -1    0    0    0  501 -0.00000000000E+00  0.00000000000E+00  0.76559006579E+03  0.76559006579E+03  0.00000000000E+00 0.  1.
         21   -1    0    0  501  502  0.00000000000E+00 -0.00000000000E+00 -0.35578246275E+02  0.35578246275E+02  0.00000000000E+00 0. -1.
         23    2    1    2    0    0 -0.26754391373E+02  0.12387797210E+03  0.45648504480E+03  0.48251431899E+03  0.91541916529E+02 0.  0.
         23    2    1    2    0    0  0.17580217779E+02 -0.91490630646E+02  0.21426404746E+03  0.25049846365E+03  0.90337139127E+02 0.  0.
        -11    1    3    3    0    0 -0.53386089673E+02  0.44654308433E+02  0.16018989434E+03  0.17465647449E+03  0.00000000000E+00 0. -1.
         11    1    3    3    0    0  0.26631698300E+02  0.79223663671E+02  0.29629515046E+03  0.30785784451E+03  0.00000000000E+00 0.  1.
        -11    1    4    4    0    0  0.48879125657E+02 -0.56874219608E+02  0.86521060776E+02  0.11449777176E+03  0.00000000000E+00 0.  1.
         11    1    4    4    0    0 -0.31298907878E+02 -0.34616411037E+02  0.12774298668E+03  0.13600069189E+03  0.00000000000E+00 0. -1.
         -3    1    1    2    0  502  0.91741735943E+01 -0.32387341458E+02  0.59262727262E+02  0.68155529419E+02  0.00000000000E+00 0.  1.
<scales pt_clust_5="13000.00000" pt_clust_6="13000.00000" pt_clust_7="13000.00000" pt_clust_8="13000.00000" pt_clust_9="33.66163"></scales>
<clustering>
<clus scale="   33.662">  2  9  1 -1</clus>
<clus scale="   90.337">  7  8 -1 -1</clus>
<clus scale="   91.542">  5  6 -1 -1</clus>
<clus scale="  144.432">  2  7  1 -1</clus>
<clus scale="   33.662">  2  5  1 -1</clus>
</clustering>
</event>
<event>
 9    1  0.1610296E-005  0.2872948E+03  0.7546771E-02  0.1091894E+00
         21   -1    0    0  501  502  0.00000000000E+00  0.00000000000E+00  0.97047286365E+03  0.97047286365E+03  0.00000000000E+00 0. -1.
          2   -1    0    0  502    0 -0.00000000000E+00 -0.00000000000E+00 -0.37437891756E+03  0.37437891756E+03  0.00000000000E+00 0. -1.
         23    2    1    2    0    0 -0.26771216812E+03  0.92413133256E+02 -0.28337397717E+03  0.41134500402E+03  0.93241134891E+02 0.  0.
         23    2    1    2    0    0  0.16662703037E+03 -0.72786635333E+02  0.48409048772E+03  0.52494011064E+03  0.90310895927E+02 0.  0.
        -13    1    3    3    0    0 -0.15038241081E+03  0.87067122978E+02 -0.21116999462E+03  0.27347453266E+03  0.00000000000E+00 0. -1.
         13    1    3    3    0    0 -0.11732975731E+03  0.53460102781E+01 -0.72203982543E+02  0.13787047136E+03  0.00000000000E+00 0.  1.
        -13    1    4    4    0    0  0.10694285652E+03 -0.25395383215E+02  0.17551147808E+03  0.20708930196E+03  0.00000000000E+00 0.  1.
         13    1    4    4    0    0  0.59684173849E+02 -0.47391252118E+02  0.30857900964E+03  0.31785080868E+03  0.00000000000E+00 0. -1.
          2    1    1    2  501    0  0.10108513775E+03 -0.19626497924E+02  0.39537743554E+03  0.40856666657E+03  0.00000000000E+00 0. -1.
<scales pt_clust_5="13000.00000" pt_clust_6="13000.00000" pt_clust_7="13000.00000" pt_clust_8="13000.00000" pt_clust_9="102.97283"></scales>
<clustering>
<clus scale="   90.311">  7  8 -1 -1</clus>
<clus scale="   93.241">  5  6 -1 -1</clus>
<clus scale="  102.973">  1  9  2 -1</clus>
<clus scale="  286.357">  1  7  2 -1</clus>
<clus scale="  102.973">  1  5  2 -1</clus>
</clustering>
</event>
<event>
 9    1  0.1610296E-005  0.1943016E+03  0.7546771E-02  0.1155012E+00
         21   -1    0    0  501  502  0.00000000000E+00  0.00000000000E+00  0.21070531052E+03  0.21070531052E+03  0.00000000000E+00 0. -1.
          1   -1    0    0  502    0 -0.00000000000E+00 -0.00000000000E+00 -0.67831009616E+03  0.67831009616E+03  0.00000000000E+00 0. -1.
         23    2    1    2    0    0  0.79634250466E+02  0.12105887463E+03 -0.26948276580E+03  0.31897582692E+03  0.90154046615E+02 0.  0.
         23    2    1    2    0    0 -0.10687517037E+03 -0.17425352967E+03 -0.34479956733E+03  0.41165384183E+03  0.93731260641E+02 0.  0.
        -11    1    4    4    0    0 -0.11920875952E+03 -0.12533342490E+03 -0.28535207615E+03  0.33368398689E+03  0.00000000000E+00 0. -1.
         11    1    4    4    0    0  0.12333589155E+02 -0.48920104768E+02 -0.59447491181E+02  0.77969854942E+02  0.00000000000E+00 0.  1.
        -13    1    3    3    0    0  0.61325881268E+02  0.59303665232E+02 -0.22518153687E+03  0.24079973623E+03  0.00000000000E+00 0.  1.
         13    1    3    3    0    0  0.18308369198E+02  0.61755209396E+02 -0.44301228938E+02  0.78176090691E+02  0.00000000000E+00 0. -1.
          1    1    1    2  501    0  0.27240919903E+02  0.53194655038E+02  0.14667754749E+03  0.15838573793E+03  0.00000000000E+00 0. -1.
<scales pt_clust_5="13000.00000" pt_clust_6="13000.00000" pt_clust_7="13000.00000" pt_clust_8="13000.00000" pt_clust_9="59.76403"></scales>
<clustering>
<clus scale="   59.764">  1  9  2 -1</clus>
<clus scale="   90.154">  7  8 -1 -1</clus>
<clus scale="   93.731">  5  6 -1 -1</clus>
<clus scale="  192.601">  2  7  1 -1</clus>
<clus scale="   59.764">  1  5  2 -1</clus>
</clustering>
</event>
<event>
 9    1  0.1610296E-005  0.1088259E+03  0.7546771E-02  0.1262983E+00
          1   -1    0    0  502    0 -0.00000000000E+00  0.00000000000E+00  0.10122898161E+03  0.10122898161E+03  0.00000000000E+00 0. -1.
         21   -1    0    0  501  502  0.00000000000E+00 -0.00000000000E+00 -0.47878157268E+03  0.47878157268E+03  0.00000000000E+00 0.  1.
         23    2    1    2    0    0 -0.96589414250E+00  0.58113297476E+02  0.53461948178E+02  0.12272635019E+03  0.93944072902E+02 0.  0.
         23    2    1    2    0    0  0.16468255162E+02 -0.28360783853E+02 -0.19761099654E+03  0.22148185251E+03  0.94491097726E+02 0.  0.
        -13    1    4    4    0    0 -0.32702693529E+02 -0.13076109993E+02 -0.13932956037E+03  0.14371213314E+03  0.00000000000E+00 0.  1.
         13    1    4    4    0    0  0.49170948690E+02 -0.15284673860E+02 -0.58281436166E+02  0.77769719375E+02  0.00000000000E+00 0. -1.
        -13    1    3    3    0    0 -0.38792697635E+02  0.37893931404E+02  0.56481383153E-01  0.54229388869E+02  0.00000000000E+00 0.  1.
         13    1    3    3    0    0  0.37826803492E+02  0.20219366072E+02  0.53405466795E+02  0.68496961322E+02  0.00000000000E+00 0. -1.
          1    1    1    2  501    0 -0.15502361019E+02 -0.29752513623E+02 -0.23340354271E+03  0.23580235159E+03  0.00000000000E+00 0. -1.
<scales pt_clust_5="13000.00000" pt_clust_6="13000.00000" pt_clust_7="13000.00000" pt_clust_8="13000.00000" pt_clust_9="33.54900"></scales>
<clustering>
<clus scale="   33.549">  2  9  1 -1</clus>
<clus scale="   93.944">  7  8 -1 -1</clus>
<clus scale="   94.491">  5  6 -1 -1</clus>
<clus scale="  108.351">  1  7  2 -1</clus>
<clus scale="   33.549">  2  5  1 -1</clus>
</clustering>
</event>
<event>
 9    1  0.1610296E-005  0.1129000E+03  0.7546771E-02  0.1257436E+00
         21   -1    0    0  501  502  0.00000000000E+00  0.00000000000E+00  0.43682313883E+03  0.43682313883E+03  0.00000000000E+00 0.  1.
          1   -1    0    0  502    0 -0.00000000000E+00 -0.00000000000E+00 -0.61629029529E+02  0.61629029529E+02  0.00000000000E+00 0. -1.
         23    2    1    2    0    0  0.52964683893E+02 -0.40859389480E+01  0.19088840884E+02  0.11467777141E+03  0.99823117424E+02 0.  0.
         23    2    1    2    0    0 -0.47148365241E+02  0.32834105198E+02  0.30995565015E+03  0.32909282883E+03  0.94490941997E+02 0.  0.
        -11    1    3    3    0    0  0.14469576202E+02  0.43640532351E+02  0.26253310889E+02  0.52944320111E+02  0.00000000000E+00 0. -1.
         11    1    3    3    0    0  0.38495107691E+02 -0.47726471299E+02 -0.71644700049E+01  0.61733451299E+02  0.00000000000E+00 0.  1.
        -13    1    4    4    0    0 -0.99340835792E+00  0.44531421301E+02  0.24231099697E+03  0.24637096743E+03  0.00000000000E+00 0.  1.
         13    1    4    4    0    0 -0.46154956883E+02 -0.11697316103E+02  0.67644653186E+02  0.82721861400E+02  0.00000000000E+00 0. -1.
          1    1    1    2  501    0 -0.58163186514E+01 -0.28748166250E+02  0.46149618263E+02  0.54681568113E+02  0.00000000000E+00 0. -1.
<scales pt_clust_5="13000.00000" pt_clust_6="13000.00000" pt_clust_7="13000.00000" pt_clust_8="13000.00000" pt_clust_9="29.33064"></scales>
<clustering>
<clus scale="   29.331">  1  9  2 -1</clus>
<clus scale="   94.491">  7  8 -1 -1</clus>
<clus scale="   99.823">  5  6 -1 -1</clus>
<clus scale="  108.214">  1  7  2 -1</clus>
<clus scale="   29.331">  1  5  2 -1</clus>
</clustering>
</event>
<event>
 9    1  0.1610296E-005  0.9166379E+02  0.7546771E-02  0.1299710E+00
          1   -1    0    0  502    0 -0.00000000000E+00  0.00000000000E+00  0.45864866435E+03  0.45864866435E+03  0.00000000000E+00 0. -1.
         21   -1    0    0  501  502  0.00000000000E+00 -0.00000000000E+00 -0.13164741509E+03  0.13164741509E+03  0.00000000000E+00 0. -1.
         23    2    1    2    0    0 -0.23690806451E+02  0.11290224760E+02  0.28329475734E+03  0.29822347026E+03  0.89401315386E+02 0.  0.
         23    2    1    2    0    0 -0.18823150221E+02  0.46023022077E+02  0.13881010404E+03  0.17317373695E+03  0.90821080378E+02 0.  0.
        -11    1    4    4    0    0  0.74517945545E+00  0.70048287269E+02  0.11248492434E+03  0.13251481444E+03  0.00000000000E+00 0. -1.
         11    1    4    4    0    0 -0.19568329676E+02 -0.24025265191E+02  0.26325179704E+02  0.40658922518E+02  0.00000000000E+00 0.  1.
        -13    1    3    3    0    0  0.24166946138E+02 -0.22429767230E+02  0.76534779821E+02  0.83334916247E+02  0.00000000000E+00 0.  1.
         13    1    3    3    0    0 -0.47857752589E+02  0.33719991990E+02  0.20675997752E+03  0.21488855402E+03  0.00000000000E+00 0. -1.
          1    1    1    2  501    0  0.42513956672E+02 -0.57313246837E+02 -0.95103612126E+02  0.11889887222E+03  0.00000000000E+00 0. -1.
<scales pt_clust_5="13000.00000" pt_clust_6="13000.00000" pt_clust_7="13000.00000" pt_clust_8="13000.00000" pt_clust_9="71.35997"></scales>
<clustering>
<clus scale="   71.360">  2  9  1 -1</clus>
<clus scale="   89.401">  7  8 -1 -1</clus>
<clus scale="   90.257">  1  7  2 -1</clus>
<clus scale="   90.821">  5  6 -1 -1</clus>
<clus scale="   71.360">  2  5  1 -1</clus>
</clustering>
</event>
<event>
 9    1  0.1610296E-005  0.1226394E+03  0.7546771E-02  0.1240707E+00
         21   -1    0    0  501  502  0.00000000000E+00  0.00000000000E+00  0.70935568904E+02  0.70935568904E+02  0.00000000000E+00 0. -1.
         -2   -1    0    0    0  501 -0.00000000000E+00 -0.00000000000E+00 -0.33380401686E+03  0.33380401686E+03  0.00000000000E+00 0.  1.
         23    2    1    2    0    0  0.72936994216E+02 -0.41799364970E+02 -0.20746439673E+03  0.24264534965E+03  0.93639189222E+02 0.  0.
         23    2    1    2    0    0 -0.68996231990E+02  0.20352689274E+02 -0.72431310458E+02  0.13442806432E+03  0.87463693906E+02 0.  0.
        -11    1    3    3    0    0 -0.22863893893E+02 -0.71255459555E+01 -0.40507344052E+02  0.47057156429E+02  0.00000000000E+00 0. -1.
         11    1    3    3    0    0  0.95800888109E+02 -0.34673819015E+02 -0.16695705267E+03  0.19558819322E+03  0.00000000000E+00 0.  1.
        -11    1    4    4    0    0 -0.67875127993E+02  0.46392890284E+02 -0.36289000963E+02  0.89867818822E+02  0.00000000000E+00 0. -1.
         11    1    4    4    0    0 -0.11211039963E+01 -0.26040201010E+02 -0.36142309495E+02  0.44560245494E+02  0.00000000000E+00 0.  1.
         -2    1    1    2    0  502 -0.39407622268E+01  0.21446675697E+02  0.17027259228E+02  0.27666171802E+02  0.00000000000E+00 0.  1.
<scales pt_clust_5="13000.00000" pt_clust_6="13000.00000" pt_clust_7="13000.00000" pt_clust_8="13000.00000" pt_clust_9="21.80572"></scales>
<clustering>
<clus scale="   21.806">  1  9  2 -1</clus>
<clus scale="   87.464">  7  8 -1 -1</clus>
<clus scale="   93.639">  5  6 -1 -1</clus>
<clus scale="  117.992">  1  7  2 -1</clus>
<clus scale="   21.806">  1  5  2 -1</clus>
</clustering>
</event>
<event>
 9    1  0.1610296E-005  0.1214335E+03  0.7546771E-02  0.1240936E+00
         21   -1    0    0  501  502  0.00000000000E+00  0.00000000000E+00  0.22883998427E+02  0.22883998427E+02  0.00000000000E+00 0.  1.
          2   -1    0    0  502    0 -0.00000000000E+00 -0.00000000000E+00 -0.76518598111E+03  0.76518598111E+03  0.00000000000E+00 0. -1.
         23    2    1    2    0    0  0.72627995044E+02 -0.43311501519E+01 -0.29639697403E+03  0.31763963260E+03  0.88035137624E+02 0.  0.
         23    2    1    2    0    0 -0.93325291152E+02  0.44185203905E+01 -0.37119687665E+03  0.39290815214E+03  0.88659807635E+02 0.  0.
        -11    1    4    4    0    0 -0.44918791871E+02 -0.25711704278E+02 -0.74077828617E+02  0.90367661764E+02  0.00000000000E+00 0.  1.
         11    1    4    4    0    0 -0.48406499281E+02  0.30130224668E+02 -0.29711904804E+03  0.30254049038E+03  0.00000000000E+00 0. -1.
        -11    1    3    3    0    0  0.72826553577E+02  0.19617367558E+02 -0.27619427295E+03  0.28630722036E+03  0.00000000000E+00 0. -1.
         11    1    3    3    0    0 -0.19855853247E+00 -0.23948517710E+02 -0.20202701074E+02  0.31332412239E+02  0.00000000000E+00 0.  1.
          2    1    1    2  501    0  0.20697296108E+02 -0.87370238564E-01 -0.74708131998E+02  0.77522194798E+02  0.00000000000E+00 0. -1.
<scales pt_clust_5="13000.00000" pt_clust_6="13000.00000" pt_clust_7="13000.00000" pt_clust_8="13000.00000" pt_clust_9="20.69749"></scales>
<clustering>
<clus scale="   20.697">  1  9  2 -1</clus>
<clus scale="   88.035">  7  8 -1 -1</clus>
<clus scale="   88.660">  5  6 -1 -1</clus>
<clus scale="  120.978">  2  7  1 -1</clus>
<clus scale="   20.697">  1  5  2 -1</clus>
</clustering>
</event>
<event>
 9    1  0.1610296E-005  0.1631912E+03  0.7546771E-02  0.1185285E+00
         21   -1    0    0  501  502  0.00000000000E+00  0.00000000000E+00  0.52176904281E+02  0.52176904281E+02  0.00000000000E+00 0.  1.
          1   -1    0    0  502    0 -0.00000000000E+00 -0.00000000000E+00 -0.69435103753E+03  0.69435103753E+03  0.00000000000E+00 0. -1.
         23    2    1    2    0    0 -0.98536815432E+02  0.10926245769E+03 -0.45301137550E+03  0.48503462091E+03  0.91605068035E+02 0.  0.
         23    2    1    2    0    0  0.82224587035E+02 -0.78992950006E+02 -0.16026389429E+03  0.21657699648E+03  0.90665929252E+02 0.  0.
        -11    1    3    3    0    0  0.39738374456E+01  0.43442743114E+02 -0.64466009240E+02  0.77839126797E+02  0.00000000000E+00 0.  1.
         11    1    3    3    0    0 -0.10251065288E+03  0.65819714573E+02 -0.38854536626E+03  0.40719549411E+03  0.00000000000E+00 0. -1.
        -11    1    4    4    0    0  0.22275114799E+02 -0.81839504305E+02 -0.10514301084E+03  0.13508862992E+03  0.00000000000E+00 0. -1.
         11    1    4    4    0    0  0.59949472236E+02  0.28465542986E+01 -0.55120883447E+02  0.81488366561E+02  0.00000000000E+00 0.  1.
          1    1    1    2  501    0  0.16312228397E+02 -0.30269507680E+02 -0.28898863451E+02  0.44916324418E+02  0.00000000000E+00 0. -1.
<scales pt_clust_5="13000.00000" pt_clust_6="13000.00000" pt_clust_7="13000.00000" pt_clust_8="13000.00000" pt_clust_9="34.38505"></scales>
<clustering>
<clus scale="   34.385">  1  9  2 -1</clus>
<clus scale="   90.666">  7  8 -1 -1</clus>
<clus scale="   91.605">  5  6 -1 -1</clus>
<clus scale="  162.666">  1  7  2 -1</clus>
<clus scale="   34.385">  1  5  2 -1</clus>
</clustering>
</event>
<event>
 9    1  0.1610296E-005  0.1006042E+03  0.7546771E-02  0.1282567E+00
         21   -1    0    0  501  502  0.00000000000E+00  0.00000000000E+00  0.11600681978E+03  0.11600681978E+03  0.00000000000E+00 0. -1.
          3   -1    0    0  502    0 -0.00000000000E+00 -0.00000000000E+00 -0.57929635818E+03  0.57929635818E+03  0.00000000000E+00 0. -1.
         23    2    1    2    0    0 -0.22865729535E+02  0.39620744807E+02 -0.34589151901E+03  0.35877366107E+03  0.83576024954E+02 0.  0.
         23    2    1    2    0    0  0.63648755063E+00 -0.42233443531E+02 -0.21456780278E+03  0.23681526415E+03  0.90873860240E+02 0.  0.
        -11    1    3    3    0    0  0.20820083303E+02 -0.13341869539E+01 -0.26048112487E+02  0.33373044328E+02  0.00000000000E+00 0.  1.
         11    1    3    3    0    0 -0.43685812838E+02  0.40954931761E+02 -0.31984340653E+03  0.32540061674E+03  0.00000000000E+00 0. -1.
        -13    1    4    4    0    0  0.19552253012E+02  0.14837272043E+02 -0.13431236137E+03  0.13653660922E+03  0.00000000000E+00 0.  1.
         13    1    4    4    0    0 -0.18915765461E+02 -0.57070715574E+02 -0.80255441415E+02  0.10027865494E+03  0.00000000000E+00 0. -1.
          3    1    1    2  501    0  0.22229241984E+02  0.26126987242E+01  0.97169783397E+02  0.99714252739E+02  0.00000000000E+00 0. -1.
<scales pt_clust_5="13000.00000" pt_clust_6="13000.00000" pt_clust_7="13000.00000" pt_clust_8="13000.00000" pt_clust_9="22.38226"></scales>
<clustering>
<clus scale="   22.382">  1  9  2 -1</clus>
<clus scale="   83.576">  5  6 -1 -1</clus>
<clus scale="   90.874">  7  8 -1 -1</clus>
<clus scale="   94.064">  2  5  1 -1</clus>
<clus scale="   22.382">  1  5  2 -1</clus>
</clustering>
</event>
<event>
 9    1  0.1610296E-005  0.1542579E+03  0.7546771E-02  0.1204496E+00
         21   -1    0    0  501  502  0.00000000000E+00  0.00000000000E+00  0.35551565935E+02  0.35551565935E+02  0.00000000000E+00 0. -1.
          1   -1    0    0  502    0 -0.00000000000E+00 -0.00000000000E+00 -0.12558195446E+04  0.12558195446E+04  0.00000000000E+00 0. -1.
         23    2    1    2    0    0  0.68720299509E+02 -0.33383451258E+02 -0.42058483973E+03  0.43917577181E+03  0.10073140896E+03 0.  0.
         23    2    1    2    0    0  0.16360850921E+02  0.13065814937E+03 -0.52189841131E+03  0.54582052913E+03  0.90569690611E+02 0.  0.
        -11    1    3    3    0    0  0.13364481895E+01  0.30891388773E+02 -0.14572782997E+03  0.14897202563E+03  0.00000000000E+00 0.  1.
         11    1    3    3    0    0  0.67383851319E+02 -0.64274840031E+02 -0.27485700976E+03  0.29020374618E+03  0.00000000000E+00 0. -1.
        -13    1    4    4    0    0 -0.23897174165E+02  0.59877496838E+02 -0.34644038321E+03  0.35238803708E+03  0.00000000000E+00 0.  1.
         13    1    4    4    0    0  0.40258025086E+02  0.70780652528E+02 -0.17545802810E+03  0.19343249205E+03  0.00000000000E+00 0. -1.
          1    1    1    2  501    0 -0.85081150430E+02 -0.97274698107E+02 -0.27778472762E+03  0.30637480958E+03  0.00000000000E+00 0. -1.
<scales pt_clust_5="13000.00000" pt_clust_6="13000.00000" pt_clust_7="13000.00000" pt_clust_8="13000.00000" pt_clust_9="124.87041"></scales>
<clustering>
<clus scale="   90.570">  7  8 -1 -1</clus>
<clus scale="  100.731">  5  6 -1 -1</clus>
<clus scale="  126.427">  2  5  1 -1</clus>
<clus scale="  124.870">  1  9  2 -1</clus>
<clus scale="  124.870">  1  5  2 -1</clus>
</clustering>
</event>
<event>
 9    1  0.1610296E-005  0.9319215E+02  0.7546771E-02  0.1295533E+00
         21   -1    0    0  501  502  0.00000000000E+00  0.00000000000E+00  0.19023751131E+02  0.19023751131E+02  0.00000000000E+00 0.  1.
          2   -1    0    0  502    0 -0.00000000000E+00 -0.00000000000E+00 -0.59721562255E+03  0.59721562255E+03  0.00000000000E+00 0. -1.
         23    2    1    2    0    0 -0.60216524869E+01  0.89564988411E+01 -0.23881249900E+03  0.25551237750E+03  0.90214667339E+02 0.  0.
         23    2    1    2    0    0  0.28434721315E+02 -0.18883214660E+02 -0.25177083353E+03  0.26975369556E+03  0.90627779842E+02 0.  0.
        -11    1    3    3    0    0  0.13026396544E+02  0.33301865054E+02 -0.21075195658E+03  0.21376409527E+03  0.00000000000E+00 0.  1.
         11    1    3    3    0    0 -0.19048049031E+02 -0.24345366213E+02 -0.28060542422E+02  0.41748282227E+02  0.00000000000E+00 0. -1.
        -13    1    4    4    0    0  0.21853916034E+02  0.32530668351E+02 -0.15609468280E+03  0.16093908173E+03  0.00000000000E+00 0.  1.
         13    1    4    4    0    0  0.65808052810E+01 -0.51413883011E+02 -0.95676150732E+02  0.10881461383E+03  0.00000000000E+00 0. -1.
          2    1    1    2  501    0 -0.22413068828E+02  0.99267158189E+01 -0.87608538881E+02  0.90973300622E+02  0.00000000000E+00 0. -1.
<scales pt_clust_5="13000.00000" pt_clust_6="13000.00000" pt_clust_7="13000.00000" pt_clust_8="13000.00000" pt_clust_9="24.51297"></scales>
<clustering>
<clus scale="   24.513">  1  9  2 -1</clus>
<clus scale="   90.215">  5  6 -1 -1</clus>
<clus scale="   90.628">  7  8 -1 -1</clus>
<clus scale="   92.790">  2  5  1 -1</clus>
<clus scale="   24.513">  1  5  2 -1</clus>
</clustering>
</event>
<event>
 9    1  0.1610296E-005  0.1223893E+03  0.7546771E-02  0.1239992E+00
         -1   -1    0    0    0  501 -0.00000000000E+00  0.00000000000E+00  0.50038966228E+03  0.50038966228E+03  0.00000000000E+00 0.  1.
         21   -1    0    0  501  502  0.00000000000E+00 -0.00000000000E+00 -0.64074652003E+02  0.64074652003E+02  0.00000000000E+00 0.  1.
         23    2    1    2    0    0  0.75581586456E+02  0.63406053184E+01  0.31699953418E+03  0.33840894490E+03  0.90989723789E+02 0.  0.
         23    2    1    2    0    0 -0.82463742832E+02 -0.32335079717E+02  0.14138163674E+03  0.19127042693E+03  0.93540273403E+02 0.  0.
        -13    1    4    4    0    0 -0.10235264182E+03 -0.35787574354E+02  0.12299964660E+03  0.16396867637E+03  0.00000000000E+00 0.  1.
         13    1    4    4    0    0  0.19888898989E+02  0.34524946372E+01  0.18381990137E+02  0.27301750560E+02  0.00000000000E+00 0. -1.
        -13    1    3    3    0    0  0.24830935827E+01 -0.34326676276E+02  0.80353270261E+02  0.87413583038E+02  0.00000000000E+00 0.  1.
         13    1    3    3    0    0  0.73098492873E+02  0.40667281594E+02  0.23664626392E+03  0.25099536187E+03  0.00000000000E+00 0. -1.
         -1    1    1    2    0  502  0.68821563768E+01  0.25994474399E+02 -0.22066160642E+02  0.34784942448E+02  0.00000000000E+00 0.  1.
<scales pt_clust_5="13000.00000" pt_clust_6="13000.00000" pt_clust_7="13000.00000" pt_clust_8="13000.00000" pt_clust_9="26.89009"></scales>
<clustering>
<clus scale="   26.890">  2  9  1 -1</clus>
<clus scale="   90.990">  7  8 -1 -1</clus>
<clus scale="   93.540">  5  6 -1 -1</clus>
<clus scale="  120.451">  1  7  2 -1</clus>
<clus scale="   26.890">  2  5  1 -1</clus>
</clustering>
</event>
<event>
 9    1  0.1610296E-005  0.9630527E+02  0.7546771E-02  0.1288273E+00
          3   -1    0    0  502    0 -0.00000000000E+00  0.00000000000E+00  0.89439992666E+02  0.89439992666E+02  0.00000000000E+00 0. -1.
         21   -1    0    0  501  502  0.00000000000E+00 -0.00000000000E+00 -0.27935484351E+03  0.27935484351E+03  0.00000000000E+00 0.  1.
         23    2    1    2    0    0 -0.32246064160E+02 -0.20558717309E+02  0.39075694707E+02  0.10587571487E+03  0.90665801553E+02 0.  0.
         23    2    1    2    0    0  0.10429406769E+02 -0.80064304845E+01 -0.14454965497E+03  0.17114658615E+03  0.90684484572E+02 0.  0.
        -11    1    4    4    0    0 -0.25310163507E+02 -0.36428949291E+02 -0.55290880331E+02  0.70885500428E+02  0.00000000000E+00 0.  1.
         11    1    4    4    0    0  0.35739570276E+02  0.28422518806E+02 -0.89258774642E+02  0.10026108572E+03  0.00000000000E+00 0. -1.
        -11    1    3    3    0    0 -0.33256456462E+01  0.35137729810E+02  0.18381344353E+02  0.39794394020E+02  0.00000000000E+00 0. -1.
         11    1    3    3    0    0 -0.28920418514E+02 -0.55696447119E+02  0.20694350354E+02  0.66081320850E+02  0.00000000000E+00 0.  1.
          3    1    1    2  501    0  0.21816657392E+02  0.28565147793E+02 -0.84440890581E+02  0.91772535164E+02  0.00000000000E+00 0. -1.
<scales pt_clust_5="13000.00000" pt_clust_6="13000.00000" pt_clust_7="13000.00000" pt_clust_8="13000.00000" pt_clust_9="35.94349"></scales>
<clustering>
<clus scale="   35.943">  2  9  1 -1</clus>
<clus scale="   90.666">  7  8 -1 -1</clus>
<clus scale="   90.684">  5  6 -1 -1</clus>
<clus scale="   96.288">  1  7  2 -1</clus>
<clus scale="   35.943">  2  5  1 -1</clus>
</clustering>
</event>
<event>
 9    1  0.1610296E-005  0.1220407E+03  0.7546771E-02  0.1239829E+00
          3   -1    0    0  502    0 -0.00000000000E+00  0.00000000000E+00  0.46193572458E+03  0.46193572458E+03  0.00000000000E+00 0. -1.
         21   -1    0    0  501  502  0.00000000000E+00 -0.00000000000E+00 -0.66038467030E+02  0.66038467030E+02  0.00000000000E+00 0.  1.
         23    2    1    2    0    0 -0.70409863710E+02 -0.27232283669E+02  0.26634396737E+03  0.29173290655E+03  0.92031699061E+02 0.  0.
         23    2    1    2    0    0  0.10278719656E+03  0.52535292604E+00  0.50607508202E+02  0.14683217856E+03  0.91831830000E+02 0.  0.
        -11    1    4    4    0    0  0.71658931547E+02  0.36155809683E+01 -0.15761408179E+02  0.73460852731E+02  0.00000000000E+00 0.  1.
         11    1    4    4    0    0  0.31128265015E+02 -0.30902280423E+01  0.66368916381E+02  0.73371325828E+02  0.00000000000E+00 0. -1.
        -13    1    3    3    0    0 -0.22146229927E+02 -0.48398364610E+02  0.20023647241E+03  0.20718953178E+03  0.00000000000E+00 0. -1.
         13    1    3    3    0    0 -0.48263633783E+02  0.21166080941E+02  0.66107494958E+02  0.84543374773E+02  0.00000000000E+00 0.  1.
          3    1    1    2  501    0 -0.32377332852E+02  0.26706930743E+02  0.78945781981E+02  0.89409106498E+02  0.00000000000E+00 0. -1.
<scales pt_clust_5="13000.00000" pt_clust_6="13000.00000" pt_clust_7="13000.00000" pt_clust_8="13000.00000" pt_clust_9="41.97087"></scales>
<clustering>
<clus scale="   41.971">  2  9  1 -1</clus>
<clus scale="   91.832">  5  6 -1 -1</clus>
<clus scale="   92.032">  7  8 -1 -1</clus>
<clus scale="  121.890">  2  5  1 -1</clus>
<clus scale="   41.971">  2  5  1 -1</clus>
</clustering>
</event>
<event>
 9    1  0.1610296E-005  0.1047722E+03  0.7546771E-02  0.1277337E+00
         21   -1    0    0  501  502  0.00000000000E+00  0.00000000000E+00  0.29618147773E+03  0.29618147773E+03  0.00000000000E+00 0. -1.
          4   -1    0    0  502    0 -0.00000000000E+00 -0.00000000000E+00 -0.96932596553E+02  0.96932596553E+02  0.00000000000E+00 0. -1.
         23    2    1    2    0    0 -0.30707062040E+02  0.21538916974E+02 -0.14449348910E+02  0.97156614148E+02  0.88452107862E+02 0.  0.
         23    2    1    2    0    0 -0.18573737377E+02  0.35075182920E+02  0.18656082588E+03  0.21614397628E+03  0.10167607659E+03 0.  0.
        -13    1    4    4    0    0 -0.54059150765E+02  0.57292091870E+01  0.57569767695E+02  0.79180134957E+02  0.00000000000E+00 0.  1.
         13    1    4    4    0    0  0.35485413388E+02  0.29345973733E+02  0.12899105819E+03  0.13696384132E+03  0.00000000000E+00 0. -1.
        -13    1    3    3    0    0  0.98546218275E+01 -0.23271336027E+02  0.15556915390E+02  0.29676358744E+02  0.00000000000E+00 0.  1.
         13    1    3    3    0    0 -0.40561683867E+02  0.44810253001E+02 -0.30006264300E+02  0.67480255404E+02  0.00000000000E+00 0. -1.
          4    1    1    2  501    0  0.49280799417E+02 -0.56614099894E+02  0.27137404202E+02  0.79813483853E+02  0.00000000000E+00 0. -1.
<scales pt_clust_5="13000.00000" pt_clust_6="13000.00000" pt_clust_7="13000.00000" pt_clust_8="13000.00000" pt_clust_9="75.05837"></scales>
<clustering>
<clus scale="   75.058">  1  9  2 -1</clus>
<clus scale="   88.452">  7  8 -1 -1</clus>
<clus scale="   91.994">  2  7  1 -1</clus>
<clus scale="  101.676">  5  6 -1 -1</clus>
<clus scale="   75.058">  1  5  2 -1</clus>
</clustering>
</event>
<event>
 9    1  0.1610296E-005  0.1045214E+03  0.7546771E-02  0.1273740E+00
         -1   -1    0    0    0  501 -0.00000000000E+00  0.00000000000E+00  0.59436646735E+03  0.59436646735E+03  0.00000000000E+00 0.  1.
         21   -1    0    0  501  502  0.00000000000E+00 -0.00000000000E+00 -0.11489690426E+03  0.11489690426E+03  0.00000000000E+00 0.  1.
         23    2    1    2    0    0  0.32328442394E+02 -0.11505139251E+02  0.31984938425E+03  0.33388763638E+03  0.89441761537E+02 0.  0.
         23    2    1    2    0    0 -0.64638545833E+02 -0.51996366724E+02  0.23801051864E+03  0.26944448667E+03  0.95234240975E+02 0.  0.
        -11    1    3    3    0    0 -0.22026599718E+02  0.22640076773E+02  0.10881103957E+03  0.11330307367E+03  0.00000000000E+00 0. -1.
         11    1    3    3    0    0  0.54355042112E+02 -0.34145216024E+02  0.21103834469E+03  0.22058456271E+03  0.00000000000E+00 0.  1.
        -11    1    4    4    0    0 -0.87478101470E+02 -0.25501830524E+02  0.16504780686E+03  0.18852994496E+03  0.00000000000E+00 0.  1.
         11    1    4    4    0    0  0.22839555637E+02 -0.26494536200E+02  0.72962711777E+02  0.80914541709E+02  0.00000000000E+00 0. -1.
         -1    1    1    2    0  502  0.32310103438E+02  0.63501505975E+02 -0.78390339803E+02  0.10593124855E+03  0.00000000000E+00 0.  1.
<scales pt_clust_5="13000.00000" pt_clust_6="13000.00000" pt_clust_7="13000.00000" pt_clust_8="13000.00000" pt_clust_9="71.24875"></scales>
<clustering>
<clus scale="   71.249">  2  9  1 -1</clus>
<clus scale="   89.442">  5  6 -1 -1</clus>
<clus scale="   95.234">  7  8 -1 -1</clus>
<clus scale="   99.272">  1  5  2 -1</clus>
<clus scale="   71.249">  2  5  1 -1</clus>
</clustering>
</event>
<event>
 9    1  0.1610296E-005  0.1020822E+03  0.7546771E-02  0.1276773E+00
         21   -1    0    0  501  502  0.00000000000E+00  0.00000000000E+00  0.54194988367E+02  0.54194988367E+02  0.00000000000E+00 0. -1.
         -2   -1    0    0    0  501 -0.00000000000E+00 -0.00000000000E+00 -0.56527277256E+03  0.56527277256E+03  0.00000000000E+00 0.  1.
         23    2    1    2    0    0 -0.29270840869E+01  0.40203409605E+02 -0.35755064453E+03  0.37094622158E+03  0.90187326915E+02 0.  0.
         23    2    1    2    0    0 -0.14615000236E+02 -0.53403183081E+02 -0.18278160953E+03  0.21194582678E+03  0.91904398772E+02 0.  0.
        -11    1    4    4    0    0  0.33921612376E+02 -0.29867373159E+02 -0.44117844288E+02  0.63159480288E+02  0.00000000000E+00 0. -1.
         11    1    4    4    0    0 -0.48536612612E+02 -0.23535809922E+02 -0.13866376524E+03  0.14878634650E+03  0.00000000000E+00 0.  1.
        -13    1    3    3    0    0  0.24518264421E+01 -0.27900447681E+02 -0.70079065011E+02  0.75468680833E+02  0.00000000000E+00 0.  1.
         13    1    3    3    0    0 -0.53789105290E+01  0.68103857286E+02 -0.28747157952E+03  0.29547754075E+03  0.00000000000E+00 0. -1.
         -2    1    1    2    0  502  0.17542084323E+02  0.13199773476E+02  0.29254469868E+02  0.36575712563E+02  0.00000000000E+00 0.  1.
<scales pt_clust_5="13000.00000" pt_clust_6="13000.00000" pt_clust_7="13000.00000" pt_clust_8="13000.00000" pt_clust_9="21.95356"></scales>
<clustering>
<clus scale="   21.954">  1  9  2 -1</clus>
<clus scale="   90.187">  7  8 -1 -1</clus>
<clus scale="   91.904">  5  6 -1 -1</clus>
<clus scale="  100.539">  2  7  1 -1</clus>
<clus scale="   21.954">  1  5  2 -1</clus>
</clustering>
</event>
<event>
 9    1  0.1610296E-005  0.2172894E+03  0.7546771E-02  0.1159572E+00
         21   -1    0    0  501  502  0.00000000000E+00  0.00000000000E+00  0.85058774348E+02  0.85058774348E+02  0.00000000000E+00 0.  1.
          2   -1    0    0  502    0 -0.00000000000E+00 -0.00000000000E+00 -0.11394187636E+04  0.11394187636E+04  0.00000000000E+00 0. -1.
         23    2    1    2    0    0 -0.77540230421E+02  0.29753989583E+02 -0.21375225916E+03  0.24700510528E+03  0.91780752372E+02 0.  0.
         23    2    1    2    0    0  0.65463470012E+02  0.17349476193E+03 -0.70024219168E+03  0.73017021369E+03  0.91779712468E+02 0.  0.
        -11    1    4    4    0    0  0.63048895098E+02  0.13389055249E+03 -0.64734262556E+03  0.66404391277E+03  0.00000000000E+00 0. -1.
         11    1    4    4    0    0  0.24145749142E+01  0.39604209436E+02 -0.52899566124E+02  0.66126300918E+02  0.00000000000E+00 0.  1.
        -13    1    3    3    0    0 -0.26206454922E+02  0.43184556047E+02 -0.37426188071E+02  0.62868145464E+02  0.00000000000E+00 0.  1.
         13    1    3    3    0    0 -0.51333775500E+02 -0.13430566464E+02 -0.17632607109E+03  0.18413695981E+03  0.00000000000E+00 0. -1.
          2    1    1    2  501    0  0.12076760409E+02 -0.20324875151E+03 -0.14036553836E+03  0.24730221894E+03  0.00000000000E+00 0. -1.
<scales pt_clust_5="13000.00000" pt_clust_6="13000.00000" pt_clust_7="13000.00000" pt_clust_8="13000.00000" pt_clust_9="196.95477"></scales>
<clustering>
<clus scale="   91.780">  5  6 -1 -1</clus>
<clus scale="   91.781">  7  8 -1 -1</clus>
<clus scale="  123.780">  2  7  1 -1</clus>
<clus scale="  196.955">  1  9  2 -1</clus>
<clus scale="  196.955">  1  5  2 -1</clus>
</clustering>
</event>
<event>
 9    1  0.1610296E-005  0.9224184E+02  0.7546771E-02  0.1298990E+00
         -1   -1    0    0    0  501 -0.00000000000E+00  0.00000000000E+00  0.11650735242E+03  0.11650735242E+03  0.00000000000E+00 0.  1.
         21   -1    0    0  501  502  0.00000000000E+00 -0.00000000000E+00 -0.15334346571E+03  0.15334346571E+03  0.00000000000E+00 0.  1.
         23    2    1    2    0    0 -0.10976684013E+01 -0.18438112591E+01  0.18989248488E+02  0.90803691526E+02  0.88770008002E+02 0.  0.
         23    2    1    2    0    0 -0.28646395851E+02  0.11360492635E+01  0.19863942745E+02  0.97720125533E+02  0.91283843640E+02 0.  0.
        -13    1    4    4    0    0  0.15671848044E+02 -0.30912138181E+02  0.25079454235E+02  0.42780207255E+02  0.00000000000E+00 0. -1.
         13    1    4    4    0    0 -0.44318243894E+02  0.32048187444E+02 -0.52155114897E+01  0.54939918278E+02  0.00000000000E+00 0.  1.
        -13    1    3    3    0    0  0.30496022219E+01 -0.37982074764E+02 -0.15065989408E+02  0.40974652091E+02  0.00000000000E+00 0. -1.
         13    1    3    3    0    0 -0.41472706231E+01  0.36138263505E+02  0.34055237897E+02  0.49829039435E+02  0.00000000000E+00 0.  1.
         -1    1    1    2    0  502  0.29744064252E+02  0.70776199561E+00 -0.75689304521E+02  0.81327001077E+02  0.00000000000E+00 0.  1.
<scales pt_clust_5="13000.00000" pt_clust_6="13000.00000" pt_clust_7="13000.00000" pt_clust_8="13000.00000" pt_clust_9="29.75248"></scales>
<clustering>
<clus scale="   29.752">  2  9  1 -1</clus>
<clus scale="   88.770">  7  8 -1 -1</clus>
<clus scale="   89.755">  1  7  2 -1</clus>
<clus scale="   91.284">  5  6 -1 -1</clus>
<clus scale="   29.752">  2  5  1 -1</clus>
</clustering>
</event>
<event>
 9    1  0.1610296E-005  0.1300367E+03  0.7546771E-02  0.1231704E+00
         21   -1    0    0  501  502  0.00000000000E+00  0.00000000000E+00  0.25294032474E+02  0.25294032474E+02  0.00000000000E+00 0.  1.
          1   -1    0    0  502    0 -0.00000000000E+00 -0.00000000000E+00 -0.76723751439E+03  0.76723751439E+03  0.00000000000E+00 0. -1.
         23    2    1    2    0    0 -0.63502456434E+02  0.62998888257E+02 -0.45623684869E+03  0.47584120479E+03  0.10134775864E+03 0.  0.
         23    2    1    2    0    0  0.40847924170E+02 -0.59709388289E+02 -0.24937365249E+03  0.27374695921E+03  0.86697261573E+02 0.  0.
        -11    1    4    4    0    0  0.93636575690E+01 -0.61966017741E+02 -0.22584159099E+03  0.23437553127E+03  0.00000000000E+00 0. -1.
         11    1    4    4    0    0  0.31484266601E+02  0.22566294517E+01 -0.23532061499E+02  0.39371427943E+02  0.00000000000E+00 0.  1.
        -13    1    3    3    0    0 -0.38578897597E+02  0.65976100410E+02 -0.43848915263E+03  0.44509989232E+03  0.00000000000E+00 0.  1.
         13    1    3    3    0    0 -0.24923558837E+02 -0.29772121527E+01 -0.17747696059E+02  0.30741312475E+02  0.00000000000E+00 0. -1.
          1    1    1    2  501    0  0.22654532264E+02 -0.32894999680E+01 -0.36332980740E+02  0.42943382862E+02  0.00000000000E+00 0. -1.
<scales pt_clust_5="13000.00000" pt_clust_6="13000.00000" pt_clust_7="13000.00000" pt_clust_8="13000.00000" pt_clust_9="22.89211"></scales>
<clustering>
<clus scale="   22.892">  1  9  2 -1</clus>
<clus scale="   86.697">  5  6 -1 -1</clus>
<clus scale="  101.348">  7  8 -1 -1</clus>
<clus scale="  118.973">  1  5  2 -1</clus>
<clus scale="   22.892">  1  5  2 -1</clus>
</clustering>
</event>
<event>
 9    1  0.1610296E-005  0.1076557E+03  0.7546771E-02  0.1265317E+00
         21   -1    0    0  501  502  0.00000000000E+00  0.00000000000E+00  0.38733094381E+02  0.38733094381E+02  0.00000000000E+00 0. -1.
          2   -1    0    0  502    0 -0.00000000000E+00 -0.00000000000E+00 -0.58820578097E+03  0.58820578097E+03  0.00000000000E+00 0. -1.
         23    2    1    2    0    0 -0.63458420271E+02 -0.35441932928E+02 -0.35804895068E+03  0.37634017755E+03  0.90276112245E+02 0.  0.
         23    2    1    2    0    0  0.21266906730E+02  0.38226198360E+02 -0.18174592487E+03  0.20722202233E+03  0.89419582678E+02 0.  0.
        -11    1    3    3    0    0 -0.77421102509E+01 -0.46933375980E+02 -0.24731264490E+03  0.25184563998E+03  0.00000000000E+00 0.  1.
         11    1    3    3    0    0 -0.55716310020E+02  0.11491443051E+02 -0.11073630578E+03  0.12449453757E+03  0.00000000000E+00 0. -1.
        -13    1    4    4    0    0  0.52234671178E+02  0.30088784900E+02 -0.15200425454E+03  0.16352091380E+03  0.00000000000E+00 0.  1.
         13    1    4    4    0    0 -0.30967764448E+02  0.81374134603E+01 -0.29741670332E+02  0.43701108531E+02  0.00000000000E+00 0. -1.
          2    1    1    2  501    0  0.42191513542E+02 -0.27842654317E+01 -0.96778110368E+01  0.43376675476E+02  0.00000000000E+00 0. -1.
<scales pt_clust_5="13000.00000" pt_clust_6="13000.00000" pt_clust_7="13000.00000" pt_clust_8="13000.00000" pt_clust_9="42.28328"></scales>
<clustering>
<clus scale="   42.283">  1  9  2 -1</clus>
<clus scale="   89.420">  7  8 -1 -1</clus>
<clus scale="   90.276">  5  6 -1 -1</clus>
<clus scale="  106.938">  1  7  2 -1</clus>
<clus scale="   42.283">  1  5  2 -1</clus>
</clustering>
</event>
<event>
 9    1  0.1610296E-005  0.1025680E+03  0.7546771E-02  0.1281023E+00
         21   -1    0    0  501  502  0.00000000000E+00  0.00000000000E+00  0.38141406531E+03  0.38141406531E+03  0.00000000000E+00 0.  1.
         -4   -1    0    0    0  501 -0.00000000000E+00 -0.00000000000E+00 -0.70478371096E+02  0.70478371096E+02  0.00000000000E+00 0.  1.
         23    2    1    2    0    0  0.27281559578E+02  0.41146507705E+02  0.10803612198E+01  0.10309260338E+03  0.90496403804E+02 0.  0.
         23    2    1    2    0    0 -0.47016832148E+02 -0.20851905254E+02  0.98442592342E+02  0.13550028126E+03  0.77614417332E+02 0.  0.
        -11    1    4    4    0    0 -0.34016001027E+02 -0.37943108302E+01  0.10705132620E+03  0.11238981965E+03  0.00000000000E+00 0. -1.
         11    1    4    4    0    0 -0.13000831121E+02 -0.17057594424E+02 -0.86087338561E+01  0.23110461613E+02  0.00000000000E+00 0.  1.
        -13    1    3    3    0    0  0.56063108861E+02  0.45705906014E+02 -0.74847284519E+01  0.72719482807E+02  0.00000000000E+00 0.  1.
         13    1    3    3    0    0 -0.28781549284E+02 -0.45593983089E+01  0.85650896716E+01  0.30373120571E+02  0.00000000000E+00 0. -1.
         -4    1    1    2    0  502  0.19735272570E+02 -0.20294602451E+02  0.21141274065E+03  0.21329955176E+03  0.00000000000E+00 0.  1.
<scales pt_clust_5="13000.00000" pt_clust_6="13000.00000" pt_clust_7="13000.00000" pt_clust_8="13000.00000" pt_clust_9="28.30816"></scales>
<clustering>
<clus scale="   28.308">  1  9  2 -1</clus>
<clus scale="   77.614">  5  6 -1 -1</clus>
<clus scale="   90.496">  7  8 -1 -1</clus>
<clus scale="   91.403">  1  5  2 -1</clus>
<clus scale="   28.308">  1  5  2 -1</clus>
</clustering>
</event>
<event>
 9    1  0.1610296E-005  0.1007657E+03  0.7546771E-02  0.1282341E+00
         21   -1    0    0  501  502  0.00000000000E+00  0.00000000000E+00  0.36989954651E+03  0.36989954651E+03  0.00000000000E+00 0.  1.
         -3   -1    0    0    0  501 -0.00000000000E+00 -0.00000000000E+00 -0.11597348811E+03  0.11597348811E+03  0.00000000000E+00 0.  1.
         23    2    1    2    0    0 -0.17881521592E+01 -0.41238276332E+02 -0.72878985549E+02  0.11918631155E+03  0.84795267578E+02 0.  0.
         23    2    1    2    0    0 -0.52618224245E+02  0.32970879769E+02  0.21270533910E+03  0.24000939169E+03  0.92223589069E+02 0.  0.
        -11    1    4    4    0    0 -0.77192422485E+02  0.29603539662E+02  0.13364718620E+03  0.15715155115E+03  0.00000000000E+00 0.  1.
         11    1    4    4    0    0  0.24574198240E+02  0.33673401076E+01  0.79058152900E+02  0.82857840537E+02  0.00000000000E+00 0. -1.
        -13    1    3    3    0    0 -0.25511358224E+02 -0.58779634779E+02 -0.42823999212E+02  0.77069901854E+02  0.00000000000E+00 0.  1.
         13    1    3    3    0    0  0.23723206065E+02  0.17541358447E+02 -0.30054986336E+02  0.42116409698E+02  0.00000000000E+00 0. -1.
         -3    1    1    2    0  502  0.54406376405E+02  0.82673965628E+01  0.11409970485E+03  0.12667733138E+03  0.00000000000E+00 0.  1.
<scales pt_clust_5="13000.00000" pt_clust_6="13000.00000" pt_clust_7="13000.00000" pt_clust_8="13000.00000" pt_clust_9="55.03093"></scales>
<clustering>
<clus scale="   55.031">  1  9  2 -1</clus>
<clus scale="   84.795">  7  8 -1 -1</clus>
<clus scale="   92.224">  5  6 -1 -1</clus>
<clus scale="   94.015">  2  7  1 -1</clus>
<clus scale="   55.031">  1  5  2 -1</clus>
</clustering>
</event>
<event>
 9    1  0.1610296E-005  0.1280643E+03  0.7546771E-02  0.1231344E+00
         21   -1    0    0  501  502  0.00000000000E+00  0.00000000000E+00  0.60399767235E+02  0.60399767235E+02  0.00000000000E+00 0.  1.
          2   -1    0    0  502    0 -0.00000000000E+00 -0.00000000000E+00 -0.47980728450E+03  0.47980728450E+03  0.00000000000E+00 0. -1.
         23    2    1    2    0    0  0.74815921505E+02  0.44631276010E+02 -0.34052728416E+03  0.36386572509E+03  0.94074766715E+02 0.  0.
         23    2    1    2    0    0 -0.87836373242E+02 -0.18727520635E+02 -0.72374859050E+02  0.14662842376E+03  0.90530801052E+02 0.  0.
        -11    1    3    3    0    0  0.10758295107E+02  0.43877260458E+02 -0.54683511511E+02  0.70931243681E+02  0.00000000000E+00 0.  1.
         11    1    3    3    0    0  0.64057626398E+02  0.75401555191E+00 -0.28584377265E+03  0.29293448141E+03  0.00000000000E+00 0. -1.
        -13    1    4    4    0    0 -0.27849197366E+02  0.35628327057E+02 -0.15943071607E+02  0.47949317149E+02  0.00000000000E+00 0. -1.
         13    1    4    4    0    0 -0.59987175876E+02 -0.54355847693E+02 -0.56431787443E+02  0.98679106613E+02  0.00000000000E+00 0.  1.
          2    1    1    2  501    0  0.13020451738E+02 -0.25903755375E+02 -0.65053740582E+01  0.29712902881E+02  0.00000000000E+00 0. -1.
<scales pt_clust_5="13000.00000" pt_clust_6="13000.00000" pt_clust_7="13000.00000" pt_clust_8="13000.00000" pt_clust_9="28.99201"></scales>
<clustering>
<clus scale="   28.992">  1  9  2 -1</clus>
<clus scale="   90.531">  7  8 -1 -1</clus>
<clus scale="   94.075">  5  6 -1 -1</clus>
<clus scale="  125.484">  1  7  2 -1</clus>
<clus scale="   28.992">  1  5  2 -1</clus>
</clustering>
</event>
<event>
 9    1  0.1610296E-005  0.1190850E+03  0.7546771E-02  0.1245515E+00
         -4   -1    0    0    0  501 -0.00000000000E+00  0.00000000000E+00  0.53693538716E+02  0.53693538716E+02  0.00000000000E+00 0.  1.
         21   -1    0    0  501  502  0.00000000000E+00 -0.00000000000E+00 -0.74447685857E+03  0.74447685857E+03  0.00000000000E+00 0. -1.
         23    2    1    2    0    0  0.12034705900E+01 -0.51244226558E+02 -0.84734791414E+02  0.13452176027E+03  0.91042297935E+02 0.  0.
         23    2    1    2    0    0  0.36421036863E+02  0.12528688323E+03 -0.24369013282E+03  0.29189397942E+03  0.93775899631E+02 0.  0.
        -11    1    4    4    0    0  0.58632785668E+02  0.12267914824E+03 -0.22429855110E+03  0.26229337962E+03  0.00000000000E+00 0. -1.
         11    1    4    4    0    0 -0.22211748805E+02  0.26077349947E+01 -0.19391581714E+02  0.29600599794E+02  0.00000000000E+00 0.  1.
        -13    1    3    3    0    0 -0.35848860307E+02 -0.33893690529E+02 -0.11537133385E+02  0.50665851317E+02  0.00000000000E+00 0. -1.
         13    1    3    3    0    0  0.37052330897E+02 -0.17350536028E+02 -0.73197658029E+02  0.83855908953E+02  0.00000000000E+00 0.  1.
         -4    1    1    2    0  502 -0.37624507453E+02 -0.74042656672E+02 -0.36235839563E+03  0.37175465760E+03  0.00000000000E+00 0.  1.
<scales pt_clust_5="13000.00000" pt_clust_6="13000.00000" pt_clust_7="13000.00000" pt_clust_8="13000.00000" pt_clust_9="83.05371"></scales>
<clustering>
<clus scale="   83.054">  2  9  1 -1</clus>
<clus scale="   91.042">  7  8 -1 -1</clus>
<clus scale="   93.776">  5  6 -1 -1</clus>
<clus scale="  116.945">  1  7  2 -1</clus>
<clus scale="   83.054">  2  5  1 -1</clus>
</clustering>
</event>
<event>
 9    1  0.1610296E-005  0.1008642E+03  0.7546771E-02  0.1278940E+00
          1   -1    0    0  502    0 -0.00000000000E+00  0.00000000000E+00  0.19654153861E+03  0.19654153861E+03  0.00000000000E+00 0. -1.
         21   -1    0    0  501  502  0.00000000000E+00 -0.00000000000E+00 -0.12364254399E+03  0.12364254399E+03  0.00000000000E+00 0.  1.
         23    2    1    2    0    0 -0.16625767810E+02 -0.40081055875E+02  0.14121223584E+03  0.17222259910E+03  0.88525820503E+02 0.  0.
         23    2    1    2    0    0  0.25316120247E+02  0.58741985317E+02 -0.51915100140E+02  0.12164320954E+03  0.89500648159E+02 0.  0.
        -11    1    3    3    0    0  0.30101767111E+02 -0.36750229936E+02  0.46082316233E+02  0.66183650949E+02  0.00000000000E+00 0.  1.
         11    1    3    3    0    0 -0.46727534921E+02 -0.33308259387E+01  0.95129919605E+02  0.10603894815E+03  0.00000000000E+00 0. -1.
        -13    1    4    4    0    0 -0.28983473412E+02  0.44778225819E+02 -0.18962760635E+02  0.56610224602E+02  0.00000000000E+00 0. -1.
         13    1    4    4    0    0  0.54299593659E+02  0.13963759497E+02 -0.32952339506E+02  0.65032984936E+02  0.00000000000E+00 0.  1.
          1    1    1    2  501    0 -0.86903524362E+01 -0.18660929442E+02 -0.16398141082E+02  0.26318273957E+02  0.00000000000E+00 0. -1.
<scales pt_clust_5="13000.00000" pt_clust_6="13000.00000" pt_clust_7="13000.00000" pt_clust_8="13000.00000" pt_clust_9="20.58525"></scales>
<clustering>
<clus scale="   20.585">  2  9  1 -1</clus>
<clus scale="   88.526">  5  6 -1 -1</clus>
<clus scale="   89.501">  7  8 -1 -1</clus>
<clus scale="  100.000">  1  5  2 -1</clus>
<clus scale="   20.585">  2  5  1 -1</clus>
</clustering>
</event>
<event>
 9    1  0.1610296E-005  0.9328719E+02  0.7546771E-02  0.1296597E+00
         21   -1    0    0  501  502  0.00000000000E+00  0.00000000000E+00  0.12185241568E+03  0.12185241568E+03  0.00000000000E+00 0.  1.
          2   -1    0    0  502    0 -0.00000000000E+00 -0.00000000000E+00 -0.13632425081E+03  0.13632425081E+03  0.00000000000E+00 0. -1.
         23    2    1    2    0    0 -0.23875206218E+02 -0.19408050070E+02 -0.23035223874E+02  0.99789383456E+02  0.92090182061E+02 0.  0.
         23    2    1    2    0    0 -0.29307117385E+02  0.98829975796E+01 -0.20762320449E+02  0.96913033229E+02  0.89467766758E+02 0.  0.
        -11    1    3    3    0    0 -0.58313102088E+02 -0.25522000463E+01 -0.95482539949E+01  0.59144744099E+02  0.00000000000E+00 0. -1.
         11    1    3    3    0    0  0.34437895869E+02 -0.16855850024E+02 -0.13486969879E+02  0.40644639357E+02  0.00000000000E+00 0.  1.
        -13    1    4    4    0    0  0.24256133052E+02 -0.99728989837E+00  0.17730230057E+02  0.30061863476E+02  0.00000000000E+00 0.  1.
         13    1    4    4    0    0 -0.53563250437E+02  0.10880287478E+02 -0.38492550506E+02  0.66851169754E+02  0.00000000000E+00 0. -1.
          2    1    1    2  501    0  0.53182323603E+02  0.95250524903E+01  0.29325709202E+02  0.61474249804E+02  0.00000000000E+00 0. -1.
<scales pt_clust_5="13000.00000" pt_clust_6="13000.00000" pt_clust_7="13000.00000" pt_clust_8="13000.00000" pt_clust_9="54.02857"></scales>
<clustering>
<clus scale="   54.029">  1  9  2 -1</clus>
<clus scale="   89.468">  7  8 -1 -1</clus>
<clus scale="   90.699">  1  7  2 -1</clus>
<clus scale="   92.090">  5  6 -1 -1</clus>
<clus scale="   54.029">  1  5  2 -1</clus>
</clustering>
</event>
<event>
 9    1  0.1610296E-005  0.1407037E+03  0.7546771E-02  0.1212625E+00
         -1   -1    0    0    0  501 -0.00000000000E+00  0.00000000000E+00  0.28123801773E+03  0.28123801773E+03  0.00000000000E+00 0.  1.
         21   -1    0    0  501  502  0.00000000000E+00 -0.00000000000E+00 -0.10922564326E+03  0.10922564326E+03  0.00000000000E+00 0. -1.
         23    2    1    2    0    0 -0.85604524172E+02 -0.38647779127E+02  0.95222056682E+02  0.16300522053E+03  0.93175514228E+02 0.  0.
         23    2    1    2    0    0  0.11952719833E+03  0.14033520855E+02  0.96884500300E+02  0.18097849098E+03  0.94249227845E+02 0.  0.
        -11    1    4    4    0    0  0.11682304304E+02 -0.24830527552E+02 -0.46636540153E+01  0.27834888201E+02  0.00000000000E+00 0. -1.
         11    1    4    4    0    0  0.10784489403E+03  0.38864048408E+02  0.10154815432E+03  0.15314360278E+03  0.00000000000E+00 0.  1.
        -11    1    3    3    0    0 -0.29514290823E+02  0.50654640987E+01  0.86284720020E+02  0.91333483445E+02  0.00000000000E+00 0.  1.
         11    1    3    3    0    0 -0.56090233348E+02 -0.43713243226E+02  0.89373366626E+01  0.71671737087E+02  0.00000000000E+00 0. -1.
         -1    1    1    2    0  502 -0.33922674160E+02  0.24614258272E+02 -0.20094182518E+02  0.46479949478E+02  0.00000000000E+00 0.  1.
<scales pt_clust_5="13000.00000" pt_clust_6="13000.00000" pt_clust_7="13000.00000" pt_clust_8="13000.00000" pt_clust_9="41.91193"></scales>
<clustering>
<clus scale="   41.912">  2  9  1 -1</clus>
<clus scale="   93.176">  7  8 -1 -1</clus>
<clus scale="   94.249">  5  6 -1 -1</clus>
<clus scale="  139.987">  1  7  2 -1</clus>
<clus scale="   41.912">  2  5  1 -1</clus>
</clustering>
</event>
<event>
 9    1  0.1610296E-005  0.1536874E+03  0.7546771E-02  0.1219212E+00
         21   -1    0    0  501  502  0.00000000000E+00  0.00000000000E+00  0.76011399019E+03  0.76011399019E+03  0.00000000000E+00 0. -1.
          2   -1    0    0  502    0 -0.00000000000E+00 -0.00000000000E+00 -0.14033169976E+03  0.14033169976E+03  0.00000000000E+00 0. -1.
         23    2    1    2    0    0 -0.11874653980E+02  0.19982183820E+02 -0.88362590895E+02  0.12861712630E+03  0.90521393224E+02 0.  0.
         23    2    1    2    0    0 -0.11196983746E+03 -0.88151514178E+01  0.19626011053E+03  0.24505709588E+03  0.94445740300E+02 0.  0.
        -11    1    4    4    0    0 -0.61793119112E+02  0.33955768608E+02  0.14606412834E+03  0.16219159466E+03  0.00000000000E+00 0.  1.
         11    1    4    4    0    0 -0.50176718353E+02 -0.42770920026E+02  0.50195982192E+02  0.82865501222E+02  0.00000000000E+00 0. -1.
        -13    1    3    3    0    0  0.65989206332E+01  0.53606636418E+02 -0.41873621307E+02  0.68341915271E+02  0.00000000000E+00 0.  1.
         13    1    3    3    0    0 -0.18473574613E+02 -0.33624452598E+02 -0.46488969587E+02  0.60275211031E+02  0.00000000000E+00 0. -1.
          2    1    1    2  501    0  0.12384449144E+03 -0.11167032402E+02  0.51188477080E+03  0.52677146776E+03  0.00000000000E+00 0. -1.
<scales pt_clust_5="13000.00000" pt_clust_6="13000.00000" pt_clust_7="13000.00000" pt_clust_8="13000.00000" pt_clust_9="121.24282"></scales>
<clustering>
<clus scale="   90.521">  7  8 -1 -1</clus>
<clus scale="   93.458">  2  7  1 -1</clus>
<clus scale="   94.446">  5  6 -1 -1</clus>
<clus scale="  121.243">  1  9  2 -1</clus>
<clus scale="  121.243">  1  5  2 -1</clus>
</clustering>
</event>
<event>
 9    1  0.1610296E-005  0.2819595E+03  0.7546771E-02  0.1094665E+00
         21   -1    0    0  501  502  0.00000000000E+00  0.00000000000E+00  0.10757218972E+03  0.10757218972E+03  0.00000000000E+00 0. -1.
          1   -1    0    0  502    0 -0.00000000000E+00 -0.00000000000E+00 -0.12931589614E+04  0.12931589614E+04  0.00000000000E+00 0. -1.
         23    2    1    2    0    0  0.26120101858E+03  0.12822126150E+03 -0.96364640847E+03  0.10106060090E+04  0.89685232145E+02 0.  0.
         23    2    1    2    0    0 -0.16836548865E+03 -0.11053152165E+03 -0.12095493296E+03  0.25181599696E+03  0.90647920396E+02 0.  0.
        -11    1    3    3    0    0  0.37982658924E+02  0.47732849554E+02 -0.12584774130E+03  0.13985264137E+03  0.00000000000E+00 0.  1.
         11    1    3    3    0    0  0.22321835966E+03  0.80488411949E+02 -0.83779866717E+03  0.87075336764E+03  0.00000000000E+00 0. -1.
        -13    1    4    4    0    0 -0.10426740064E+03 -0.11275639152E+03 -0.10399718426E+03  0.18547535955E+03  0.00000000000E+00 0. -1.
         13    1    4    4    0    0 -0.64098088004E+02  0.22248698627E+01 -0.16957748697E+02  0.66340637414E+02  0.00000000000E+00 0.  1.
          1    1    1    2  501    0 -0.92835529936E+02 -0.17689739848E+02 -0.10098543028E+03  0.13830914519E+03  0.00000000000E+00 0. -1.
<scales pt_clust_5="13000.00000" pt_clust_6="13000.00000" pt_clust_7="13000.00000" pt_clust_8="13000.00000" pt_clust_9="94.50589"></scales>
<clustering>
<clus scale="   89.685">  5  6 -1 -1</clus>
<clus scale="   90.648">  7  8 -1 -1</clus>
<clus scale="   94.506">  1  9  2 -1</clus>
<clus scale="  281.652">  2  5  1 -1</clus>
<clus scale="   94.506">  1  5  2 -1</clus>
</clustering>
</event>
<event>
 9    1  0.1610296E-005  0.9751625E+02  0.7546771E-02  0.1287120E+00
          1   -1    0    0  502    0 -0.00000000000E+00  0.00000000000E+00  0.24787142498E+03  0.24787142498E+03  0.00000000000E+00 0. -1.
         21   -1    0    0  501  502  0.00000000000E+00 -0.00000000000E+00 -0.10947611593E+03  0.10947611593E+03  0.00000000000E+00 0. -1.
         23    2    1    2    0    0  0.14506785858E+02  0.16580270969E+01  0.15982537015E+03  0.18504420949E+03  0.92108710951E+02 0.  0.
         23    2    1    2    0    0 -0.46031515958E+02 -0.59701998093E+01  0.31748523564E+02  0.11033265038E+03  0.94925134944E+02 0.  0.
        -11    1    4    4    0    0 -0.17817542083E+02 -0.32575575584E+02 -0.22674896739E+02  0.43506136035E+02  0.00000000000E+00 0.  1.
         11    1    4    4    0    0 -0.28213973875E+02  0.26605375775E+02  0.54423420303E+02  0.66826514345E+02  0.00000000000E+00 0. -1.
        -11    1    3    3    0    0  0.52354133547E+02  0.10285691490E+02  0.78319892496E+02  0.94766852377E+02  0.00000000000E+00 0.  1.
         11    1    3    3    0    0 -0.37847347689E+02 -0.86276643933E+01  0.81505477653E+02  0.90277357113E+02  0.00000000000E+00 0. -1.
          1    1    1    2  501    0  0.31524730101E+02  0.43121727124E+01 -0.53178584664E+02  0.61970681038E+02  0.00000000000E+00 0. -1.
<scales pt_clust_5="13000.00000" pt_clust_6="13000.00000" pt_clust_7="13000.00000" pt_clust_8="13000.00000" pt_clust_9="31.81829"></scales>
<clustering>
<clus scale="   31.818">  2  9  1 -1</clus>
<clus scale="   92.109">  7  8 -1 -1</clus>
<clus scale="   94.777">  1  7  2 -1</clus>
<clus scale="   94.925">  5  6 -1 -1</clus>
<clus scale="   31.818">  2  5  1 -1</clus>
</clustering>
</event>
<event>
 9    1  0.1610296E-005  0.9416702E+02  0.7546771E-02  0.1293356E+00
         21   -1    0    0  501  502  0.00000000000E+00  0.00000000000E+00  0.91995574853E+02  0.91995574853E+02  0.00000000000E+00 0.  1.
         -1   -1    0    0    0  501 -0.00000000000E+00 -0.00000000000E+00 -0.47101726611E+03  0.47101726611E+03  0.00000000000E+00 0.  1.
         23    2    1    2    0    0  0.14671366132E+02 -0.39795495879E+01 -0.23754403450E+03  0.25500971502E+03  0.91496997917E+02 0.  0.
         23    2    1    2    0    0  0.16333569043E+00  0.42727382289E+02 -0.20719508310E+03  0.23028412542E+03  0.90968786323E+02 0.  0.
        -11    1    4    4    0    0  0.24835144788E+02  0.59202154061E+02 -0.98201834834E+02  0.11732552931E+03  0.00000000000E+00 0.  1.
         11    1    4    4    0    0 -0.24671809098E+02 -0.16474771772E+02 -0.10899324827E+03  0.11295859612E+03  0.00000000000E+00 0. -1.
        -13    1    3    3    0    0 -0.30181651306E+02  0.18880961782E+02 -0.53942734580E+02  0.64631582120E+02  0.00000000000E+00 0.  1.
         13    1    3    3    0    0  0.44853017438E+02 -0.22860511370E+02 -0.18360129992E+03  0.19037813290E+03  0.00000000000E+00 0. -1.
         -1    1    1    2    0  502 -0.14834701823E+02 -0.38747832701E+02  0.65717426343E+02  0.77719000523E+02  0.00000000000E+00 0.  1.
<scales pt_clust_5="13000.00000" pt_clust_6="13000.00000" pt_clust_7="13000.00000" pt_clust_8="13000.00000" pt_clust_9="41.49052"></scales>
<clustering>
<clus scale="   41.491">  1  9  2 -1</clus>
<clus scale="   90.969">  5  6 -1 -1</clus>
<clus scale="   91.497">  7  8 -1 -1</clus>
<clus scale="   93.654">  1  5  2 -1</clus>
<clus scale="   41.491">  1  5  2 -1</clus>
</clustering>
</event>
<event>
 9    1  0.1610296E-005  0.1010766E+03  0.7546771E-02  0.1280045E+00
         21   -1    0    0  501  502  0.00000000000E+00  0.00000000000E+00  0.10144565922E+03  0.10144565922E+03  0.00000000000E+00 0.  1.
          2   -1    0    0  502    0 -0.00000000000E+00 -0.00000000000E+00 -0.23348367605E+03  0.23348367605E+03  0.00000000000E+00 0. -1.
         23    2    1    2    0    0  0.36897742035E+02  0.15495289686E+02 -0.14742425792E+03  0.17787486181E+03  0.91126325898E+02 0.  0.
         23    2    1    2    0    0 -0.15981118111E+02 -0.14691813528E+02 -0.34056555482E+02  0.10336331158E+03  0.95146622056E+02 0.  0.
        -11    1    4    4    0    0 -0.48293880448E+02 -0.21446396075E+02  0.39897078690E+01  0.52992117926E+02  0.00000000000E+00 0.  1.
         11    1    4    4    0    0  0.32312762337E+02  0.67545825476E+01 -0.38046263351E+02  0.50371193655E+02  0.00000000000E+00 0. -1.
        -13    1    3    3    0    0  0.16819519299E+02  0.44295975945E+02 -0.31864844728E+02  0.57099895306E+02  0.00000000000E+00 0.  1.
         13    1    3    3    0    0  0.20078222736E+02 -0.28800686259E+02 -0.11555941319E+03  0.12077496651E+03  0.00000000000E+00 0. -1.
          2    1    1    2  501    0 -0.20916623924E+02 -0.80347615780E+00  0.49442796576E+02  0.53691161876E+02  0.00000000000E+00 0. -1.
<scales pt_clust_5="13000.00000" pt_clust_6="13000.00000" pt_clust_7="13000.00000" pt_clust_8="13000.00000" pt_clust_9="20.93205"></scales>
<clustering>
<clus scale="   20.932">  1  9  2 -1</clus>
<clus scale="   91.126">  7  8 -1 -1</clus>
<clus scale="   95.147">  5  6 -1 -1</clus>
<clus scale="   97.302">  2  7  1 -1</clus>
<clus scale="   20.932">  1  5  2 -1</clus>
</clustering>
</event>
<event>
 9    1  0.1610296E-005  0.1002558E+03  0.7546771E-02  0.1286907E+00
         21   -1    0    0  501  502  0.00000000000E+00  0.00000000000E+00  0.36386488836E+02  0.36386488836E+02  0.00000000000E+00 0. -1.
          1   -1    0    0  502    0 -0.00000000000E+00 -0.00000000000E+00 -0.55019651154E+03  0.55019651154E+03  0.00000000000E+00 0. -1.
         23    2    1    2    0    0 -0.75721741721E+01  0.37517681402E+02 -0.29698013391E+03  0.30922971086E+03  0.77206864340E+02 0.  0.
         23    2    1    2    0    0  0.54548190660E+02 -0.29897844386E+02 -0.19682646582E+03  0.22573018449E+03  0.91345893946E+02 0.  0.
        -13    1    4    4    0    0  0.48010880788E+01 -0.28562215289E+02 -0.74243737444E+01  0.29899363111E+02  0.00000000000E+00 0.  1.
         13    1    4    4    0    0  0.49747102581E+02 -0.13356290965E+01 -0.18940209208E+03  0.19583082138E+03  0.00000000000E+00 0. -1.
        -13    1    3    3    0    0 -0.32571488261E+02 -0.77703664840E+01 -0.94934138544E+02  0.10066663352E+03  0.00000000000E+00 0.  1.
         13    1    3    3    0    0  0.24999314089E+02  0.45288047886E+02 -0.20204599537E+03  0.20856307734E+03  0.00000000000E+00 0. -1.
          1    1    1    2  501    0 -0.46976016488E+02 -0.76198370165E+01 -0.20003422967E+02  0.51623105017E+02  0.00000000000E+00 0. -1.
<scales pt_clust_5="13000.00000" pt_clust_6="13000.00000" pt_clust_7="13000.00000" pt_clust_8="13000.00000" pt_clust_9="47.59000"></scales>
<clustering>
<clus scale="   47.590">  1  9  2 -1</clus>
<clus scale="   77.207">  7  8 -1 -1</clus>
<clus scale="   87.567">  2  7  1 -1</clus>
<clus scale="   91.346">  5  6 -1 -1</clus>
<clus scale="   47.590">  1  5  2 -1</clus>
</clustering>
</event>
<event>
 9    1  0.1610296E-005  0.9899665E+02  0.7546771E-02  0.1282913E+00
         -1   -1    0    0    0  501 -0.00000000000E+00  0.00000000000E+00  0.13609402448E+03  0.13609402448E+03  0.00000000000E+00 0.  1.
         21   -1    0    0  501  502  0.00000000000E+00 -0.00000000000E+00 -0.18586477235E+03  0.18586477235E+03  0.00000000000E+00 0.  1.
         23    2    1    2    0    0 -0.11167631696E+02 -0.56977965417E+01  0.19121506067E+02  0.96896474166E+02  0.94160043693E+02 0.  0.
         23    2    1    2    0    0  0.11360609975E+02  0.51198551626E+02  0.34286241928E+02  0.11229637939E+03  0.93191068726E+02 0.  0.
        -11    1    4    4    0    0 -0.89351029463E+00  0.22038563287E+02  0.64736549831E+02  0.68390916915E+02  0.00000000000E+00 0.  1.
         11    1    4    4    0    0  0.12254120270E+02  0.29159988339E+02 -0.30450307903E+02  0.43905462472E+02  0.00000000000E+00 0. -1.
        -13    1    3    3    0    0 -0.48627802256E+02 -0.11613479326E+02  0.28879261715E+02  0.57736884325E+02  0.00000000000E+00 0.  1.
         13    1    3    3    0    0  0.37460170560E+02  0.59156827845E+01 -0.97577556484E+01  0.39159589841E+02  0.00000000000E+00 0. -1.
         -1    1    1    2    0  502 -0.19297827929E+00 -0.45500755084E+02 -0.10317849587E+03  0.11276594328E+03  0.00000000000E+00 0.  1.
<scales pt_clust_5="13000.00000" pt_clust_6="13000.00000" pt_clust_7="13000.00000" pt_clust_8="13000.00000" pt_clust_9="45.50116"></scales>
<clustering>
<clus scale="   45.501">  2  9  1 -1</clus>
<clus scale="   93.191">  5  6 -1 -1</clus>
<clus scale="   94.160">  7  8 -1 -1</clus>
<clus scale="   98.075">  2  5  1 -1</clus>
<clus scale="   45.501">  2  5  1 -1</clus>
</clustering>
</event>
<event>
 9    1  0.1610296E-005  0.1146825E+03  0.7546771E-02  0.1256267E+00
         -4   -1    0    0    0  501 -0.00000000000E+00  0.00000000000E+00  0.21788034761E+03  0.21788034761E+03  0.00000000000E+00 0.  1.
         21   -1    0    0  501  502  0.00000000000E+00 -0.00000000000E+00 -0.88610032252E+02  0.88610032252E+02  0.00000000000E+00 0. -1.
         23    2    1    2    0    0 -0.44630644759E+02 -0.34589189926E+02  0.13767444685E+03  0.17975878862E+03  0.10084970133E+03 0.  0.
         23    2    1    2    0    0  0.26047673588E+02  0.45832753814E+02 -0.58184090362E+01  0.10485853688E+03  0.90456267066E+02 0.  0.
        -11    1    3    3    0    0 -0.62041970672E+01 -0.36171962452E+02 -0.11748234499E+00  0.36700364181E+02  0.00000000000E+00 0.  1.
         11    1    3    3    0    0 -0.38426447692E+02  0.15827725259E+01  0.13779192919E+03  0.14305842444E+03  0.00000000000E+00 0. -1.
        -13    1    4    4    0    0  0.18345084515E+02  0.73411150826E+02 -0.14873659843E+00  0.75668760490E+02  0.00000000000E+00 0. -1.
         13    1    4    4    0    0  0.77025890726E+01 -0.27578397013E+02 -0.56696724378E+01  0.29189776391E+02  0.00000000000E+00 0.  1.
         -4    1    1    2    0  502  0.18582971172E+02 -0.11243563887E+02 -0.25857224575E+01  0.21873054361E+02  0.00000000000E+00 0.  1.
<scales pt_clust_5="13000.00000" pt_clust_6="13000.00000" pt_clust_7="13000.00000" pt_clust_8="13000.00000" pt_clust_9="21.71968"></scales>
<clustering>
<clus scale="   21.720">  2  9  1 -1</clus>
<clus scale="   90.456">  7  8 -1 -1</clus>
<clus scale="  100.850">  5  6 -1 -1</clus>
<clus scale="  105.659">  2  7  1 -1</clus>
<clus scale="   21.720">  2  5  1 -1</clus>
</clustering>
</event>
<event>
 9    1  0.1610296E-005  0.1424898E+03  0.7546771E-02  0.1210479E+00
          2   -1    0    0  502    0 -0.00000000000E+00  0.00000000000E+00  0.36802099528E+03  0.36802099528E+03  0.00000000000E+00 0. -1.
         21   -1    0    0  501  502  0.00000000000E+00 -0.00000000000E+00 -0.12329658204E+03  0.12329658204E+03  0.00000000000E+00 0. -1.
         23    2    1    2    0    0 -0.10070300670E+03  0.28141350620E+02  0.26607574532E+03  0.30038512562E+03  0.92205695440E+02 0.  0.
         23    2    1    2    0    0  0.10340547779E+03 -0.63432419158E+02 -0.11032487455E+02  0.15406456021E+03  0.94328194599E+02 0.  0.
        -13    1    4    4    0    0  0.98276940674E+02 -0.85948938650E+02 -0.85512834745E+01  0.13083845601E+03  0.00000000000E+00 0. -1.
         13    1    4    4    0    0  0.51285371163E+01  0.22516519491E+02 -0.24812039807E+01  0.23226104197E+02  0.00000000000E+00 0.  1.
        -13    1    3    3    0    0 -0.40255649488E+02  0.13838552691E+02  0.20822268911E+02  0.47387653866E+02  0.00000000000E+00 0.  1.
         13    1    3    3    0    0 -0.60447357216E+02  0.14302797930E+02  0.24525347641E+03  0.25299747175E+03  0.00000000000E+00 0. -1.
          2    1    1    2  501    0 -0.27024710863E+01  0.35291068538E+02 -0.10318844623E+02  0.36867891490E+02  0.00000000000E+00 0. -1.
<scales pt_clust_5="13000.00000" pt_clust_6="13000.00000" pt_clust_7="13000.00000" pt_clust_8="13000.00000" pt_clust_9="35.39439"></scales>
<clustering>
<clus scale="   35.394">  2  9  1 -1</clus>
<clus scale="   92.206">  7  8 -1 -1</clus>
<clus scale="   94.328">  5  6 -1 -1</clus>
<clus scale="  141.094">  1  7  2 -1</clus>
<clus scale="   35.394">  2  5  1 -1</clus>
</clustering>
</event>
<event>
 9    1  0.1610296E-005  0.9826495E+02  0.7546771E-02  0.1286592E+00
         21   -1    0    0  501  502  0.00000000000E+00  0.00000000000E+00  0.90112165147E+02  0.90112165147E+02  0.00000000000E+00 0.  1.
         -1   -1    0    0    0  501 -0.00000000000E+00 -0.00000000000E+00 -0.42875425045E+03  0.42875425045E+03  0.00000000000E+00 0.  1.
         23    2    1    2    0    0  0.45519270720E+02 -0.17935482667E+02 -0.30972477907E+03  0.32515322297E+03  0.86031936480E+02 0.  0.
         23    2    1    2    0    0 -0.69834888515E+01 -0.28931203870E+02 -0.71490800268E+02  0.11959170326E+03  0.91134281645E+02 0.  0.
        -11    1    4    4    0    0  0.32885086800E+02  0.15344765046E+02 -0.27354928060E+02  0.45444282779E+02  0.00000000000E+00 0.  1.
         11    1    4    4    0    0 -0.39868575651E+02 -0.44275968916E+02 -0.44135872208E+02  0.74147420477E+02  0.00000000000E+00 0. -1.
        -11    1    3    3    0    0  0.69052045065E+02  0.52477446481E+00 -0.21431334567E+03  0.22516365259E+03  0.00000000000E+00 0.  1.
         11    1    3    3    0    0 -0.23532774345E+02 -0.18460257132E+02 -0.95411433403E+02  0.99989570385E+02  0.00000000000E+00 0. -1.
         -1    1    1    2    0  502 -0.38535781868E+02  0.46866686537E+02  0.42573494038E+02  0.74121489365E+02  0.00000000000E+00 0.  1.
<scales pt_clust_5="13000.00000" pt_clust_6="13000.00000" pt_clust_7="13000.00000" pt_clust_8="13000.00000" pt_clust_9="60.67531"></scales>
<clustering>
<clus scale="   60.675">  1  9  2 -1</clus>
<clus scale="   86.032">  7  8 -1 -1</clus>
<clus scale="   91.134">  5  6 -1 -1</clus>
<clus scale="   93.552">  2  7  1 -1</clus>
<clus scale="   60.675">  1  5  2 -1</clus>
</clustering>
</event>
<event>
 9    1  0.1610296E-005  0.1140397E+03  0.7546771E-02  0.1264695E+00
          2   -1    0    0  502    0 -0.00000000000E+00  0.00000000000E+00  0.80817555328E+02  0.80817555328E+02  0.00000000000E+00 0. -1.
         21   -1    0    0  501  502  0.00000000000E+00 -0.00000000000E+00 -0.29866593544E+03  0.29866593544E+03  0.00000000000E+00 0. -1.
         23    2    1    2    0    0  0.24679325309E+01 -0.12771157019E+02  0.19004012017E+02  0.92381732601E+02  0.89465294405E+02 0.  0.
         23    2    1    2    0    0  0.10973818496E+02  0.33838253476E+02 -0.12331773039E+03  0.17084934899E+03  0.11276872497E+03 0.  0.
        -11    1    4    4    0    0 -0.33641689195E+02 -0.11199861390E+02 -0.95029638944E+02  0.10142895260E+03  0.00000000000E+00 0.  1.
         11    1    4    4    0    0  0.44615507691E+02  0.45038114866E+02 -0.28288091443E+02  0.69420396388E+02  0.00000000000E+00 0. -1.
        -13    1    3    3    0    0 -0.42338209994E+02  0.39830092127E+01  0.10393584876E+02  0.43776877395E+02  0.00000000000E+00 0.  1.
         13    1    3    3    0    0  0.44806142525E+02 -0.16754166232E+02  0.86104271416E+01  0.48604855206E+02  0.00000000000E+00 0. -1.
          2    1    1    2  501    0 -0.13441751027E+02 -0.21067096457E+02 -0.11353466174E+03  0.11625240918E+03  0.00000000000E+00 0. -1.
<scales pt_clust_5="13000.00000" pt_clust_6="13000.00000" pt_clust_7="13000.00000" pt_clust_8="13000.00000" pt_clust_9="24.99006"></scales>
<clustering>
<clus scale="   24.990">  2  9  1 -1</clus>
<clus scale="   89.465">  7  8 -1 -1</clus>
<clus scale="   91.062">  1  7  2 -1</clus>
<clus scale="  112.769">  5  6 -1 -1</clus>
<clus scale="   24.990">  2  5  1 -1</clus>
</clustering>
</event>
<event>
 9    1  0.1610296E-005  0.9121766E+02  0.7546771E-02  0.1300271E+00
         21   -1    0    0  501  502  0.00000000000E+00  0.00000000000E+00  0.90080320106E+02  0.90080320106E+02  0.00000000000E+00 0. -1.
         -1   -1    0    0    0  501 -0.00000000000E+00 -0.00000000000E+00 -0.16121090376E+03  0.16121090376E+03  0.00000000000E+00 0.  1.
         23    2    1    2    0    0 -0.98717723165E+01 -0.25175901833E+01 -0.73701516441E+02  0.11766080401E+03  0.91150211882E+02 0.  0.
         23    2    1    2    0    0 -0.22696559015E+02  0.56231306165E+01  0.21288261409E+02  0.95938524469E+02  0.90577353762E+02 0.  0.
        -11    1    4    4    0    0 -0.76994603774E+01  0.44145479832E+02  0.29689609824E+02  0.53754795239E+02  0.00000000000E+00 0.  1.
         11    1    4    4    0    0 -0.14997098637E+02 -0.38522349215E+02 -0.84013484152E+01  0.42183729230E+02  0.00000000000E+00 0. -1.
        -13    1    3    3    0    0 -0.43708782652E+02  0.25803747383E+01 -0.93427050156E+01  0.44770550049E+02  0.00000000000E+00 0. -1.
         13    1    3    3    0    0  0.33837010335E+02 -0.50979649217E+01 -0.64358811425E+02  0.72890253963E+02  0.00000000000E+00 0.  1.
         -1    1    1    2    0  502  0.32568331331E+02 -0.31055404332E+01 -0.18717328626E+02  0.37691895389E+02  0.00000000000E+00 0.  1.
<scales pt_clust_5="13000.00000" pt_clust_6="13000.00000" pt_clust_7="13000.00000" pt_clust_8="13000.00000" pt_clust_9="32.71608"></scales>
<clustering>
<clus scale="   32.716">  1  9  2 -1</clus>
<clus scale="   90.577">  5  6 -1 -1</clus>
<clus scale="   90.645">  1  5  2 -1</clus>
<clus scale="   91.150">  7  8 -1 -1</clus>
<clus scale="   32.716">  1  5  2 -1</clus>
</clustering>
</event>
<event>
 9    1  0.1610296E-005  0.1424224E+03  0.7546771E-02  0.1212851E+00
         21   -1    0    0  501  502  0.00000000000E+00  0.00000000000E+00  0.12145800417E+03  0.12145800417E+03  0.00000000000E+00 0.  1.
          2   -1    0    0  502    0 -0.00000000000E+00 -0.00000000000E+00 -0.20960654313E+03  0.20960654313E+03  0.00000000000E+00 0. -1.
         23    2    1    2    0    0 -0.86084972106E+00 -0.93499973068E+02 -0.82952276900E+02  0.16085485698E+03  0.10124336396E+03 0.  0.
         23    2    1    2    0    0 -0.11803454109E+02  0.11057056049E+03 -0.20232523000E+02  0.14417358673E+03  0.89506970388E+02 0.  0.
        -11    1    4    4    0    0  0.89668762576E+01  0.31839324760E+02 -0.47869551781E+02  0.58186265207E+02  0.00000000000E+00 0. -1.
         11    1    4    4    0    0 -0.20770330366E+02  0.78731235734E+02  0.27637028780E+02  0.85987321528E+02  0.00000000000E+00 0.  1.
        -13    1    3    3    0    0 -0.40966132321E+02 -0.83092309677E+02 -0.73746616206E+02  0.11841080747E+03  0.00000000000E+00 0. -1.
         13    1    3    3    0    0  0.40105282600E+02 -0.10407663390E+02 -0.92056606931E+01  0.42444049506E+02  0.00000000000E+00 0.  1.
          2    1    1    2  501    0  0.12664303830E+02 -0.17070587427E+02  0.15036260940E+02  0.26036103580E+02  0.00000000000E+00 0. -1.
<scales pt_clust_5="13000.00000" pt_clust_6="13000.00000" pt_clust_7="13000.00000" pt_clust_8="13000.00000" pt_clust_9="21.25534"></scales>
<clustering>
<clus scale="   21.255">  1  9  2 -1</clus>
<clus scale="   89.507">  5  6 -1 -1</clus>
<clus scale="  101.243">  7  8 -1 -1</clus>
<clus scale="  134.333">  1  5  2 -1</clus>
<clus scale="   21.255">  1  5  2 -1</clus>
</clustering>
</event>
<event>
 9    1  0.1610296E-005  0.1535187E+03  0.7546771E-02  0.1196753E+00
         21   -1    0    0  501  502  0.00000000000E+00  0.00000000000E+00  0.14379476886E+03  0.14379476886E+03  0.00000000000E+00 0. -1.
         -3   -1    0    0    0  501 -0.00000000000E+00 -0.00000000000E+00 -0.18980996495E+03  0.18980996495E+03  0.00000000000E+00 0.  1.
         23    2    1    2    0    0 -0.62512925922E+02 -0.92390477188E+02 -0.32423507776E+02  0.14814350773E+03  0.91931218010E+02 0.  0.
         23    2    1    2    0    0  0.69070831402E+02  0.11319390090E+03 -0.14007955461E+02  0.16364467638E+03  0.94866845305E+02 0.  0.
        -13    1    3    3    0    0 -0.64098925595E+02 -0.41828948291E+02 -0.53456077096E+02  0.93358906142E+02  0.00000000000E+00 0.  1.
         13    1    3    3    0    0  0.15859996724E+01 -0.50561528897E+02  0.21032569320E+02  0.54784601592E+02  0.00000000000E+00 0. -1.
        -13    1    4    4    0    0  0.26971581806E+02 -0.59489292530E+01  0.18406757105E+02  0.33191334585E+02  0.00000000000E+00 0.  1.
         13    1    4    4    0    0  0.42099249596E+02  0.11914283016E+03 -0.32414712566E+02  0.13045334179E+03  0.00000000000E+00 0. -1.
         -3    1    1    2    0  502 -0.65579054800E+01 -0.20803423714E+02  0.41626714130E+00  0.21816549701E+02  0.00000000000E+00 0.  1.
<scales pt_clust_5="13000.00000" pt_clust_6="13000.00000" pt_clust_7="13000.00000" pt_clust_8="13000.00000" pt_clust_9="21.81258"></scales>
<clustering>
<clus scale="   21.813">  1  9  2 -1</clus>
<clus scale="   91.931">  5  6 -1 -1</clus>
<clus scale="   94.867">  7  8 -1 -1</clus>
<clus scale="  151.722">  2  5  1 -1</clus>
<clus scale="   21.813">  1  5  2 -1</clus>
</clustering>
</event>
<event>
 9    1  0.1610296E-005  0.2426118E+03  0.7546771E-02  0.1118169E+00
         21   -1    0    0  501  502  0.00000000000E+00  0.00000000000E+00  0.11484726734E+03  0.11484726734E+03  0.00000000000E+00 0.  1.
          2   -1    0    0  502    0 -0.00000000000E+00 -0.00000000000E+00 -0.78657382000E+03  0.78657382000E+03  0.00000000000E+00 0. -1.
         23    2    1    2    0    0 -0.19189345488E+03  0.12180043921E+03 -0.45332082420E+03  0.51471945962E+03  0.88192445487E+02 0.  0.
         23    2    1    2    0    0  0.21369978729E+03 -0.73319111783E+02 -0.22723614075E+03  0.33281348966E+03  0.89918096059E+02 0.  0.
        -11    1    3    3    0    0 -0.22210048055E+02  0.51505684596E+01 -0.81133976582E+01  0.24200037430E+02  0.00000000000E+00 0.  1.
         11    1    3    3    0    0 -0.16968340682E+03  0.11664987075E+03 -0.44520742654E+03  0.49051942219E+03  0.00000000000E+00 0. -1.
        -13    1    4    4    0    0  0.14211681299E+02 -0.16580503028E+02  0.39916136187E+01  0.22199503267E+02  0.00000000000E+00 0. -1.
         13    1    4    4    0    0  0.19948810599E+03 -0.56738608756E+02 -0.23122775437E+03  0.31061398640E+03  0.00000000000E+00 0.  1.
          2    1    1    2  501    0 -0.21806332411E+02 -0.48481327424E+02  0.88304122922E+01  0.53888138057E+02  0.00000000000E+00 0. -1.
<scales pt_clust_5="13000.00000" pt_clust_6="13000.00000" pt_clust_7="13000.00000" pt_clust_8="13000.00000" pt_clust_9="53.15971"></scales>
<clustering>
<clus scale="   53.160">  1  9  2 -1</clus>
<clus scale="   88.192">  5  6 -1 -1</clus>
<clus scale="   89.918">  7  8 -1 -1</clus>
<clus scale="  241.978">  2  5  1 -1</clus>
<clus scale="   53.160">  1  5  2 -1</clus>
</clustering>
</event>
<event>
 9    1  0.1610296E-005  0.1082369E+03  0.7546771E-02  0.1264355E+00
         -1   -1    0    0    0  501 -0.00000000000E+00  0.00000000000E+00  0.59792176834E+03  0.59792176834E+03  0.00000000000E+00 0.  1.
         21   -1    0    0  501  502  0.00000000000E+00 -0.00000000000E+00 -0.54978515436E+02  0.54978515436E+02  0.00000000000E+00 0. -1.
         23    2    1    2    0    0 -0.21486599667E+02 -0.51489193782E+02  0.45400538804E+03  0.46656084618E+03  0.91898420974E+02 0.  0.
         23    2    1    2    0    0  0.41707440568E+02  0.49362082516E+02  0.11037504195E+03  0.15679354836E+03  0.90694217761E+02 0.  0.
        -11    1    3    3    0    0 -0.48977197731E+02 -0.61119103872E+02  0.33765489758E+03  0.34661959064E+03  0.00000000000E+00 0.  1.
         11    1    3    3    0    0  0.27490598064E+02  0.96299100905E+01  0.11635049046E+03  0.11994125554E+03  0.00000000000E+00 0. -1.
        -11    1    4    4    0    0 -0.26735766215E+02  0.23769508299E+02  0.21506611162E+02  0.41741167252E+02  0.00000000000E+00 0.  1.
         11    1    4    4    0    0  0.68443206783E+02  0.25592574217E+02  0.88868430784E+02  0.11505238111E+03  0.00000000000E+00 0. -1.
         -1    1    1    2    0  502 -0.20220840901E+02  0.21271112659E+01 -0.21437177084E+02  0.29545889230E+02  0.00000000000E+00 0.  1.
<scales pt_clust_5="13000.00000" pt_clust_6="13000.00000" pt_clust_7="13000.00000" pt_clust_8="13000.00000" pt_clust_9="20.33241"></scales>
<clustering>
<clus scale="   20.332">  2  9  1 -1</clus>
<clus scale="   90.694">  7  8 -1 -1</clus>
<clus scale="   91.898">  5  6 -1 -1</clus>
<clus scale="  107.216">  2  7  1 -1</clus>
<clus scale="   20.332">  2  5  1 -1</clus>
</clustering>
</event>
<event>
 9    1  0.1610296E-005  0.1240452E+03  0.7546771E-02  0.1236921E+00
         21   -1    0    0  501  502  0.00000000000E+00  0.00000000000E+00  0.29625350096E+03  0.29625350096E+03  0.00000000000E+00 0.  1.
          4   -1    0    0  502    0 -0.00000000000E+00 -0.00000000000E+00 -0.81231335561E+02  0.81231335561E+02  0.00000000000E+00 0. -1.
         23    2    1    2    0    0 -0.58236955786E+02  0.12346343492E+02  0.75790632839E+02  0.13279155136E+03  0.91353165623E+02 0.  0.
         23    2    1    2    0    0  0.10231530804E+03 -0.30584492027E+02  0.62888857312E+02  0.15467253609E+03  0.92545943369E+02 0.  0.
        -11    1    3    3    0    0 -0.18905472764E+01  0.43758107478E+02  0.38270016623E+02  0.58163049365E+02  0.00000000000E+00 0.  1.
         11    1    3    3    0    0 -0.56346408509E+02 -0.31411763987E+02  0.37520616216E+02  0.74628501994E+02  0.00000000000E+00 0. -1.
        -13    1    4    4    0    0  0.17722979905E+02 -0.44571992056E+02 -0.62367831473E+00  0.47970360299E+02  0.00000000000E+00 0.  1.
         13    1    4    4    0    0  0.84592328138E+02  0.13987500029E+02  0.63512535627E+02  0.10670217579E+03  0.00000000000E+00 0. -1.
          4    1    1    2  501    0 -0.44078352258E+02  0.18238148535E+02  0.76342675251E+02  0.90020749076E+02  0.00000000000E+00 0. -1.
<scales pt_clust_5="13000.00000" pt_clust_6="13000.00000" pt_clust_7="13000.00000" pt_clust_8="13000.00000" pt_clust_9="47.70253"></scales>
<clustering>
<clus scale="   47.703">  1  9  2 -1</clus>
<clus scale="   91.353">  5  6 -1 -1</clus>
<clus scale="   92.546">  7  8 -1 -1</clus>
<clus scale="  123.158">  2  5  1 -1</clus>
<clus scale="   47.703">  1  5  2 -1</clus>
</clustering>
</event>
<event>
 9    1  0.1610296E-005  0.9276695E+02  0.7546771E-02  0.1296339E+00
          2   -1    0    0  502    0 -0.00000000000E+00  0.00000000000E+00  0.44626006714E+03  0.44626006714E+03  0.00000000000E+00 0. -1.
         21   -1    0    0  501  502  0.00000000000E+00 -0.00000000000E+00 -0.37817523702E+02  0.37817523702E+02  0.00000000000E+00 0.  1.
         23    2    1    2    0    0 -0.10864122102E+02  0.28262867917E+02  0.21324442975E+03  0.23393966402E+03  0.91311339534E+02 0.  0.
         23    2    1    2    0    0 -0.32569552695E+02  0.89486357754E+01  0.10424988763E+03  0.14270068963E+03  0.91403467688E+02 0.  0.
        -11    1    3    3    0    0  0.29293663340E+02 -0.18379270922E+02  0.72448421953E+02  0.80278827563E+02  0.00000000000E+00 0. -1.
         11    1    3    3    0    0 -0.40157785442E+02  0.46642138838E+02  0.14079600780E+03  0.15366083645E+03  0.00000000000E+00 0.  1.
        -13    1    4    4    0    0 -0.24296362547E+02  0.43645364405E+02  0.25141394991E+02  0.55922453533E+02  0.00000000000E+00 0.  1.
         13    1    4    4    0    0 -0.82731901483E+01 -0.34696728629E+02  0.79108492640E+02  0.86778236100E+02  0.00000000000E+00 0. -1.
          2    1    1    2  501    0  0.43433674797E+02 -0.37211503692E+02  0.90948226049E+02  0.10743723719E+03  0.00000000000E+00 0. -1.
<scales pt_clust_5="13000.00000" pt_clust_6="13000.00000" pt_clust_7="13000.00000" pt_clust_8="13000.00000" pt_clust_9="57.19426"></scales>
<clustering>
<clus scale="   57.194">  2  9  1 -1</clus>
<clus scale="   91.311">  5  6 -1 -1</clus>
<clus scale="   91.403">  7  8 -1 -1</clus>
<clus scale="   92.676">  1  5  2 -1</clus>
<clus scale="   57.194">  2  5  1 -1</clus>
</clustering>
</event>
<event>
 9    1  0.1610296E-005  0.1146311E+03  0.7546771E-02  0.1254069E+00
         -1   -1    0    0    0  501 -0.00000000000E+00  0.00000000000E+00  0.27048314027E+03  0.27048314027E+03  0.00000000000E+00 0.  1.
         21   -1    0    0  501  502  0.00000000000E+00 -0.00000000000E+00 -0.70626260431E+02  0.70626260431E+02  0.00000000000E+00 0. -1.
         23    2    1    2    0    0 -0.37385463451E+02 -0.24491261435E+02  0.92376998209E+02  0.14165264266E+03  0.97644593344E+02 0.  0.
         23    2    1    2    0    0  0.71796351626E+02  0.28033251549E+02  0.11197156553E+03  0.16457366553E+03  0.92770041501E+02 0.  0.
        -11    1    4    4    0    0  0.10820949382E+02  0.53221060662E+02  0.44555526896E+02  0.70247912570E+02  0.00000000000E+00 0. -1.
         11    1    4    4    0    0  0.60975402244E+02 -0.25187809113E+02  0.67416038635E+02  0.94325752962E+02  0.00000000000E+00 0.  1.
        -11    1    3    3    0    0  0.83592633299E+01  0.25586201096E+02 -0.16377745281E+00  0.26917611206E+02  0.00000000000E+00 0.  1.
         11    1    3    3    0    0 -0.45744726781E+02 -0.50077462532E+02  0.92540775661E+02  0.11473503145E+03  0.00000000000E+00 0. -1.
         -1    1    1    2    0  502 -0.34410888175E+02 -0.35419901137E+01 -0.44916839001E+01  0.34883092512E+02  0.00000000000E+00 0.  1.
<scales pt_clust_5="13000.00000" pt_clust_6="13000.00000" pt_clust_7="13000.00000" pt_clust_8="13000.00000" pt_clust_9="34.59270"></scales>
<clustering>
<clus scale="   34.593">  2  9  1 -1</clus>
<clus scale="   92.770">  5  6 -1 -1</clus>
<clus scale="   97.645">  7  8 -1 -1</clus>
<clus scale="  110.508">  2  5  1 -1</clus>
<clus scale="   34.593">  2  5  1 -1</clus>
</clustering>
</event>
<event>
 9    1  0.1610296E-005  0.1110987E+03  0.7546771E-02  0.1259434E+00
         -1   -1    0    0    0  501 -0.00000000000E+00  0.00000000000E+00  0.94490070614E+02  0.94490070614E+02  0.00000000000E+00 0.  1.
         21   -1    0    0  501  502  0.00000000000E+00 -0.00000000000E+00 -0.20023754660E+03  0.20023754660E+03  0.00000000000E+00 0.  1.
         23    2    1    2    0    0  0.67183719943E+02 -0.10550692519E+02  0.78592155404E+01  0.11363754888E+03  0.90701465857E+02 0.  0.
         23    2    1    2    0    0 -0.45419354747E+02  0.20553695570E+02 -0.57699580875E+02  0.12026776417E+03  0.93003877756E+02 0.  0.
        -11    1    3    3    0    0  0.11911434552E+02 -0.24778874915E+02 -0.33364415650E+02  0.43232616701E+02  0.00000000000E+00 0. -1.
         11    1    3    3    0    0  0.55272285391E+02  0.14228182396E+02  0.41223631191E+02  0.70404932180E+02  0.00000000000E+00 0.  1.
        -13    1    4    4    0    0 -0.24931110503E+02 -0.36161310812E+02 -0.33715753116E+02  0.55371045491E+02  0.00000000000E+00 0. -1.
         13    1    4    4    0    0 -0.20488244244E+02  0.56715006382E+02 -0.23983827758E+02  0.64896718677E+02  0.00000000000E+00 0.  1.
         -1    1    1    2    0  502 -0.21764365196E+02 -0.10003003051E+02 -0.55907110649E+02  0.60822304162E+02  0.00000000000E+00 0.  1.
<scales pt_clust_5="13000.00000" pt_clust_6="13000.00000" pt_clust_7="13000.00000" pt_clust_8="13000.00000" pt_clust_9="23.95303"></scales>
<clustering>
<clus scale="   23.953">  2  9  1 -1</clus>
<clus scale="   90.701">  5  6 -1 -1</clus>
<clus scale="   93.004">  7  8 -1 -1</clus>
<clus scale="  109.179">  1  5  2 -1</clus>
<clus scale="   23.953">  2  5  1 -1</clus>
</clustering>
</event>
<event>
 9    1  0.1610296E-005  0.1071319E+03  0.7546771E-02  0.1268595E+00
         -1   -1    0    0    0  501 -0.00000000000E+00  0.00000000000E+00  0.23995996190E+03  0.23995996190E+03  0.00000000000E+00 0.  1.
         21   -1    0    0  501  502  0.00000000000E+00 -0.00000000000E+00 -0.80563121188E+02  0.80563121188E+02  0.00000000000E+00 0.  1.
         23    2    1    2    0    0  0.45034632803E+02 -0.43883988664E+01  0.13693983084E+03  0.17205650240E+03  0.93827216485E+02 0.  0.
         23    2    1    2    0    0 -0.67571587697E+02 -0.15887307101E+02  0.32586131087E+02  0.11650382604E+03  0.87709518020E+02 0.  0.
        -11    1    3    3    0    0 -0.24580321311E+02  0.18805866296E+01  0.73999778584E+02  0.77998051464E+02  0.00000000000E+00 0.  1.
         11    1    3    3    0    0  0.69614954114E+02 -0.62689854960E+01  0.62940052254E+02  0.94058450940E+02  0.00000000000E+00 0. -1.
        -13    1    4    4    0    0 -0.25604797876E+02 -0.20107378479E+02 -0.27823914378E+02  0.42826190058E+02  0.00000000000E+00 0. -1.
         13    1    4    4    0    0 -0.41966789821E+02  0.42200713783E+01  0.60410045465E+02  0.73677635979E+02  0.00000000000E+00 0.  1.
         -1    1    1    2    0  502  0.22536954894E+02  0.20275705967E+02 -0.10129121210E+02  0.31962754650E+02  0.00000000000E+00 0.  1.
<scales pt_clust_5="13000.00000" pt_clust_6="13000.00000" pt_clust_7="13000.00000" pt_clust_8="13000.00000" pt_clust_9="30.31532"></scales>
<clustering>
<clus scale="   30.315">  2  9  1 -1</clus>
<clus scale="   87.710">  7  8 -1 -1</clus>
<clus scale="   93.827">  5  6 -1 -1</clus>
<clus scale="  101.817">  2  7  1 -1</clus>
<clus scale="   30.315">  2  5  1 -1</clus>
</clustering>
</event>
<event>
 9    1  0.1610296E-005  0.3646797E+03  0.7546771E-02  0.1056813E+00
         21   -1    0    0  501  502  0.00000000000E+00  0.00000000000E+00  0.12401135915E+03  0.12401135915E+03  0.00000000000E+00 0.  1.
          2   -1    0    0  502    0 -0.00000000000E+00 -0.00000000000E+00 -0.24712905714E+04  0.24712905714E+04  0.00000000000E+00 0. -1.
         23    2    1    2    0    0 -0.31043707553E+03 -0.14018800756E+03 -0.17444047441E+04  0.17796435076E+04  0.90328552728E+02 0.  0.
         23    2    1    2    0    0  0.38312586842E+03  0.17339624351E+03 -0.36449831256E+03  0.56424315077E+03  0.93057106232E+02 0.  0.
        -11    1    3    3    0    0 -0.60096303221E+02 -0.34447032159E+01 -0.19085292057E+03  0.20012063594E+03  0.00000000000E+00 0. -1.
         11    1    3    3    0    0 -0.25034077231E+03 -0.13674330434E+03 -0.15535518235E+04  0.15795228716E+04  0.00000000000E+00 0.  1.
        -13    1    4    4    0    0  0.20055344876E+03  0.14108784250E+03 -0.21332648714E+03  0.32501639224E+03  0.00000000000E+00 0.  1.
         13    1    4    4    0    0  0.18257241966E+03  0.32308401008E+02 -0.15117182541E+03  0.23922675853E+03  0.00000000000E+00 0. -1.
          2    1    1    2  501    0 -0.72688792884E+02 -0.33208235950E+02 -0.23837615554E+03  0.25141527216E+03  0.00000000000E+00 0. -1.
<scales pt_clust_5="13000.00000" pt_clust_6="13000.00000" pt_clust_7="13000.00000" pt_clust_8="13000.00000" pt_clust_9="79.91529"></scales>
<clustering>
<clus scale="   79.915">  1  9  2 -1</clus>
<clus scale="   90.329">  5  6 -1 -1</clus>
<clus scale="   93.057">  7  8 -1 -1</clus>
<clus scale="  363.993">  2  5  1 -1</clus>
<clus scale="   79.915">  1  5  2 -1</clus>
</clustering>
</event>
<event>
 9    1  0.1610296E-005  0.1680476E+03  0.7546771E-02  0.1210119E+00
         21   -1    0    0  501  502  0.00000000000E+00  0.00000000000E+00  0.43115197845E+03  0.43115197845E+03  0.00000000000E+00 0. -1.
         -3   -1    0    0    0  501 -0.00000000000E+00 -0.00000000000E+00 -0.20287476324E+03  0.20287476324E+03  0.00000000000E+00 0.  1.
         23    2    1    2    0    0  0.13935432083E+02 -0.18967117844E+02 -0.12761934506E+03  0.15427023804E+03  0.83418590771E+02 0.  0.
         23    2    1    2    0    0 -0.72413884645E+02  0.14049788713E+03  0.15922079018E+03  0.24128047585E+03  0.88778268867E+02 0.  0.
        -11    1    3    3    0    0  0.16954027888E+02  0.17432605162E+02 -0.11189106119E+03  0.11450303209E+03  0.00000000000E+00 0. -1.
         11    1    3    3    0    0 -0.30185958050E+01 -0.36399723007E+02 -0.15728283867E+02  0.39767205949E+02  0.00000000000E+00 0.  1.
        -13    1    4    4    0    0  0.70565014620E+01  0.24773185557E+02 -0.39181345572E+01  0.26054878889E+02  0.00000000000E+00 0.  1.
         13    1    4    4    0    0 -0.79470386107E+02  0.11572470158E+03  0.16313892474E+03  0.21522559696E+03  0.00000000000E+00 0. -1.
         -3    1    1    2    0  502  0.58478452561E+02 -0.12153076929E+03  0.19667577008E+03  0.23847602780E+03  0.00000000000E+00 0.  1.
<scales pt_clust_5="13000.00000" pt_clust_6="13000.00000" pt_clust_7="13000.00000" pt_clust_8="13000.00000" pt_clust_9="142.68297"></scales>
<clustering>
<clus scale="   83.419">  5  6 -1 -1</clus>
<clus scale="   86.675">  2  5  1 -1</clus>
<clus scale="   88.778">  7  8 -1 -1</clus>
<clus scale="  142.683">  1  9  2 -1</clus>
<clus scale="  142.683">  1  5  2 -1</clus>
</clustering>
</event>
<event>
 9    1  0.1610296E-005  0.1131839E+03  0.7546771E-02  0.1257980E+00
         21   -1    0    0  501  502  0.00000000000E+00  0.00000000000E+00  0.97491464971E+02  0.97491464971E+02  0.00000000000E+00 0.  1.
          1   -1    0    0  502    0 -0.00000000000E+00 -0.00000000000E+00 -0.23861058874E+03  0.23861058874E+03  0.00000000000E+00 0. -1.
         23    2    1    2    0    0 -0.28516405888E+02  0.21438896232E+02 -0.10246309241E+03  0.14972244356E+03  0.10317612672E+03 0.  0.
         23    2    1    2    0    0  0.44465632779E+02 -0.40347619737E+02 -0.79923064057E+02  0.13826635157E+03  0.95523635256E+02 0.  0.
        -11    1    3    3    0    0  0.19380358057E+02 -0.30008040794E+02 -0.18526222793E+02  0.40240548228E+02  0.00000000000E+00 0.  1.
         11    1    3    3    0    0 -0.47896763946E+02  0.51446937026E+02 -0.83936869614E+02  0.10948189534E+03  0.00000000000E+00 0. -1.
        -13    1    4    4    0    0 -0.44793303275E+01 -0.58312566155E+02 -0.28587135591E+02  0.65097189594E+02  0.00000000000E+00 0.  1.
         13    1    4    4    0    0  0.48944963107E+02  0.17964946419E+02 -0.51335928466E+02  0.73169161980E+02  0.00000000000E+00 0. -1.
          1    1    1    2  501    0 -0.15949226891E+02  0.18908723505E+02  0.41267032695E+02  0.48113258572E+02  0.00000000000E+00 0. -1.
<scales pt_clust_5="13000.00000" pt_clust_6="13000.00000" pt_clust_7="13000.00000" pt_clust_8="13000.00000" pt_clust_9="24.73697"></scales>
<clustering>
<clus scale="   24.737">  1  9  2 -1</clus>
<clus scale="   95.524">  7  8 -1 -1</clus>
<clus scale="  103.176">  5  6 -1 -1</clus>
<clus scale="  106.255">  1  7  2 -1</clus>
<clus scale="   24.737">  1  5  2 -1</clus>
</clustering>
</event>
<event>
 9    1  0.1610296E-005  0.1386702E+03  0.7546771E-02  0.1215579E+00
          1   -1    0    0  502    0 -0.00000000000E+00  0.00000000000E+00  0.21286303598E+03  0.21286303598E+03  0.00000000000E+00 0. -1.
         21   -1    0    0  501  502  0.00000000000E+00 -0.00000000000E+00 -0.28084542106E+03  0.28084542106E+03  0.00000000000E+00 0. -1.
         23    2    1    2    0    0  0.59403723785E+02 -0.83624433507E+02  0.15626038744E+03  0.20781212923E+03  0.90811475555E+02 0.  0.
         23    2    1    2    0    0 -0.85009886526E+02  0.69661500404E+02 -0.15884899849E+03  0.21429336172E+03  0.92785963970E+02 0.  0.
        -11    1    4    4    0    0 -0.37783998506E+02 -0.11843435963E+02 -0.87764382796E+02  0.96283354772E+02  0.00000000000E+00 0.  1.
         11    1    4    4    0    0 -0.47225888020E+02  0.81504936366E+02 -0.71084615694E+02  0.11801000695E+03  0.00000000000E+00 0. -1.
        -11    1    3    3    0    0  0.94864480706E+01 -0.22226988225E+02  0.11701702898E+03  0.11948647109E+03  0.00000000000E+00 0. -1.
         11    1    3    3    0    0  0.49917275715E+02 -0.61397445282E+02  0.39243358459E+02  0.88325658136E+02  0.00000000000E+00 0.  1.
          1    1    1    2  501    0  0.25606162741E+02  0.13962933103E+02 -0.65393774032E+02  0.71602966093E+02  0.00000000000E+00 0. -1.
<scales pt_clust_5="13000.00000" pt_clust_6="13000.00000" pt_clust_7="13000.00000" pt_clust_8="13000.00000" pt_clust_9="29.16572"></scales>
<clustering>
<clus scale="   29.166">  2  9  1 -1</clus>
<clus scale="   90.811">  7  8 -1 -1</clus>
<clus scale="   92.786">  5  6 -1 -1</clus>
<clus scale="  137.357">  1  7  2 -1</clus>
<clus scale="   29.166">  2  5  1 -1</clus>
</clustering>
</event>
<event>
 9    1  0.1610296E-005  0.9439166E+02  0.7546771E-02  0.1292643E+00
         21   -1    0    0  501  502  0.00000000000E+00  0.00000000000E+00  0.49208901895E+02  0.49208901895E+02  0.00000000000E+00 0. -1.
         -1   -1    0    0    0  501 -0.00000000000E+00 -0.00000000000E+00 -0.31922586298E+03  0.31922586298E+03  0.00000000000E+00 0.  1.
         23    2    1    2    0    0 -0.97180849858E+01  0.13703201000E+02 -0.18187398799E+03  0.20454305661E+03  0.92073316474E+02 0.  0.
         23    2    1    2    0    0 -0.11642705678E+02 -0.33893873157E+02 -0.91190471909E+02  0.13434117748E+03  0.91910296309E+02 0.  0.
        -11    1    4    4    0    0 -0.28044149459E+02  0.20691271138E+02 -0.59952132654E+02  0.69345953234E+02  0.00000000000E+00 0.  1.
         11    1    4    4    0    0  0.16401443780E+02 -0.54585144295E+02 -0.31238339254E+02  0.64995224249E+02  0.00000000000E+00 0. -1.
        -13    1    3    3    0    0  0.31098493667E+02  0.35602534765E+02 -0.91426021068E+02  0.10292411825E+03  0.00000000000E+00 0.  1.
         13    1    3    3    0    0 -0.40816578652E+02 -0.21899333765E+02 -0.90447966927E+02  0.10161893836E+03  0.00000000000E+00 0. -1.
         -1    1    1    2    0  502  0.21360790664E+02  0.20190672157E+02  0.30474988236E+01  0.29550530774E+02  0.00000000000E+00 0.  1.
<scales pt_clust_5="13000.00000" pt_clust_6="13000.00000" pt_clust_7="13000.00000" pt_clust_8="13000.00000" pt_clust_9="29.39297"></scales>
<clustering>
<clus scale="   29.393">  1  9  2 -1</clus>
<clus scale="   91.910">  5  6 -1 -1</clus>
<clus scale="   92.073">  7  8 -1 -1</clus>
<clus scale="   94.233">  1  5  2 -1</clus>
<clus scale="   29.393">  1  5  2 -1</clus>
</clustering>
</event>
<event>
 9    1  0.1610296E-005  0.9775459E+02  0.7546771E-02  0.1285716E+00
         21   -1    0    0  501  502  0.00000000000E+00  0.00000000000E+00  0.10923887966E+03  0.10923887966E+03  0.00000000000E+00 0. -1.
          2   -1    0    0  502    0 -0.00000000000E+00 -0.00000000000E+00 -0.59611830588E+03  0.59611830588E+03  0.00000000000E+00 0. -1.
         23    2    1    2    0    0  0.37770199071E+02 -0.43789548716E+01 -0.41842847824E+03  0.42956497052E+03  0.89431031057E+02 0.  0.
         23    2    1    2    0    0 -0.28087904963E+02 -0.50867659817E+02 -0.14517186230E+03  0.18075520146E+03  0.90670414319E+02 0.  0.
        -11    1    3    3    0    0  0.56354647855E+02  0.24195941300E+02 -0.30588811340E+03  0.31197568468E+03  0.00000000000E+00 0. -1.
         11    1    3    3    0    0 -0.18584448784E+02 -0.28574896171E+02 -0.11254036484E+03  0.11758928584E+03  0.00000000000E+00 0.  1.
        -11    1    4    4    0    0  0.24611283181E+02 -0.46508098161E+02 -0.90564785366E+02  0.10474110369E+03  0.00000000000E+00 0. -1.
         11    1    4    4    0    0 -0.52699188144E+02 -0.43595616560E+01 -0.54607076930E+02  0.76014097770E+02  0.00000000000E+00 0.  1.
          2    1    1    2  501    0 -0.96822941081E+01  0.55246614689E+02  0.76720914307E+02  0.95037013558E+02  0.00000000000E+00 0. -1.
<scales pt_clust_5="13000.00000" pt_clust_6="13000.00000" pt_clust_7="13000.00000" pt_clust_8="13000.00000" pt_clust_9="56.08864"></scales>
<clustering>
<clus scale="   56.089">  1  9  2 -1</clus>
<clus scale="   89.431">  5  6 -1 -1</clus>
<clus scale="   90.670">  7  8 -1 -1</clus>
<clus scale="   96.606">  2  5  1 -1</clus>
<clus scale="   56.089">  1  5  2 -1</clus>
</clustering>
</event>
<event>
 9    1  0.1610296E-005  0.1138880E+03  0.7546771E-02  0.1254332E+00
         21   -1    0    0  501  502  0.00000000000E+00  0.00000000000E+00  0.26845496037E+02  0.26845496037E+02  0.00000000000E+00 0.  1.
          1   -1    0    0  502    0 -0.00000000000E+00 -0.00000000000E+00 -0.99260346286E+03  0.99260346286E+03  0.00000000000E+00 0. -1.
         23    2    1    2    0    0 -0.21168243143E+02  0.46696212537E+02 -0.41850578073E+03  0.43096346975E+03  0.89184039857E+02 0.  0.
         23    2    1    2    0    0  0.90830253989E+02 -0.56761172831E+02 -0.42116382419E+03  0.44408197747E+03  0.91421387661E+02 0.  0.
        -11    1    4    4    0    0  0.60074517068E+02 -0.78418738853E+02 -0.34888681410E+03  0.36260233763E+03  0.00000000000E+00 0.  1.
         11    1    4    4    0    0  0.30755736921E+02  0.21657566022E+02 -0.72277010092E+02  0.81479639833E+02  0.00000000000E+00 0. -1.
        -13    1    3    3    0    0  0.65657059606E-02  0.66550969248E+02 -0.35436608921E+03  0.36056116920E+03  0.00000000000E+00 0. -1.
         13    1    3    3    0    0 -0.21174808849E+02 -0.19854756711E+02 -0.64139691522E+02  0.70402300548E+02  0.00000000000E+00 0.  1.
          1    1    1    2  501    0 -0.69662010846E+02  0.10064960294E+02 -0.12608836190E+03  0.14440351168E+03  0.00000000000E+00 0. -1.
<scales pt_clust_5="13000.00000" pt_clust_6="13000.00000" pt_clust_7="13000.00000" pt_clust_8="13000.00000" pt_clust_9="70.38536"></scales>
<clustering>
<clus scale="   70.385">  1  9  2 -1</clus>
<clus scale="   89.184">  7  8 -1 -1</clus>
<clus scale="   91.421">  5  6 -1 -1</clus>
<clus scale="  112.100">  2  7  1 -1</clus>
<clus scale="   70.385">  1  5  2 -1</clus>
</clustering>
</event>
<event>
 9    1  0.1610296E-005  0.1095694E+03  0.7546771E-02  0.1262396E+00
         21   -1    0    0  501  502  0.00000000000E+00  0.00000000000E+00  0.35678828241E+02  0.35678828241E+02  0.00000000000E+00 0. -1.
          1   -1    0    0  502    0 -0.00000000000E+00 -0.00000000000E+00 -0.54826310707E+03  0.54826310707E+03  0.00000000000E+00 0. -1.
         23    2    1    2    0    0  0.57196478754E+02 -0.26835131286E+02 -0.32876055566E+03  0.34695846226E+03  0.91132376927E+02 0.  0.
         23    2    1    2    0    0 -0.22050537367E+02  0.48459730954E+02 -0.14160897793E+03  0.17795004843E+03  0.93693891921E+02 0.  0.
        -11    1    4    4    0    0 -0.54693124972E+02  0.35628601218E+02 -0.12041786804E+03  0.13697152290E+03  0.00000000000E+00 0.  1.
         11    1    4    4    0    0  0.32642587605E+02  0.12831129735E+02 -0.21191109896E+02  0.40978525528E+02  0.00000000000E+00 0. -1.
        -13    1    3    3    0    0  0.27330400722E+02 -0.55905200247E+02 -0.13338044591E+03  0.14718249070E+03  0.00000000000E+00 0.  1.
         13    1    3    3    0    0  0.29866078032E+02  0.29070068961E+02 -0.19538010976E+03  0.19977597156E+03  0.00000000000E+00 0. -1.
          1    1    1    2  501    0 -0.35145941387E+02 -0.21624599668E+02 -0.42214745236E+02  0.59033424618E+02  0.00000000000E+00 0. -1.
<scales pt_clust_5="13000.00000" pt_clust_6="13000.00000" pt_clust_7="13000.00000" pt_clust_8="13000.00000" pt_clust_9="41.26573"></scales>
<clustering>
<clus scale="   41.266">  1  9  2 -1</clus>
<clus scale="   91.132">  7  8 -1 -1</clus>
<clus scale="   93.694">  5  6 -1 -1</clus>
<clus scale="  107.387">  2  7  1 -1</clus>
<clus scale="   41.266">  1  5  2 -1</clus>
</clustering>
</event>
<event>
 9    1  0.1610296E-005  0.9560389E+02  0.7546771E-02  0.1292051E+00
         21   -1    0    0  501  502  0.00000000000E+00  0.00000000000E+00  0.21123201273E+03  0.21123201273E+03  0.00000000000E+00 0. -1.
          1   -1    0    0  502    0 -0.00000000000E+00 -0.00000000000E+00 -0.18962318002E+03  0.18962318002E+03  0.00000000000E+00 0. -1.
         23    2    1    2    0    0 -0.11228652602E+02  0.57984653940E-01 -0.81973906923E+02  0.12392732731E+03  0.92261449355E+02 0.  0.
         23    2    1    2    0    0  0.17516931365E+02  0.55336095095E+02 -0.47576421190E+02  0.11581567340E+03  0.88209002069E+02 0.  0.
        -11    1    3    3    0    0 -0.22990387217E+02 -0.41630154975E+02 -0.55806951489E+02  0.73321508046E+02  0.00000000000E+00 0.  1.
         11    1    3    3    0    0  0.11761734615E+02  0.41688139629E+02 -0.26166955434E+02  0.50605819266E+02  0.00000000000E+00 0. -1.
        -13    1    4    4    0    0  0.34972769721E+02  0.81058418161E+01  0.11961591671E+02  0.37840176649E+02  0.00000000000E+00 0.  1.
         13    1    4    4    0    0 -0.17455838356E+02  0.47230253279E+02 -0.59538012861E+02  0.77975496747E+02  0.00000000000E+00 0. -1.
          1    1    1    2  501    0 -0.62882787635E+01 -0.55394079749E+02  0.15115916082E+03  0.16111219203E+03  0.00000000000E+00 0. -1.
<scales pt_clust_5="13000.00000" pt_clust_6="13000.00000" pt_clust_7="13000.00000" pt_clust_8="13000.00000" pt_clust_9="55.74986"></scales>
<clustering>
<clus scale="   55.750">  1  9  2 -1</clus>
<clus scale="   88.209">  7  8 -1 -1</clus>
<clus scale="   91.699">  1  7  2 -1</clus>
<clus scale="   92.261">  5  6 -1 -1</clus>
<clus scale="   55.750">  1  5  2 -1</clus>
</clustering>
</event>
<event>
 9    1  0.1610296E-005  0.1068967E+03  0.7546771E-02  0.1266503E+00
         21   -1    0    0  501  502  0.00000000000E+00  0.00000000000E+00  0.36549221224E+03  0.36549221224E+03  0.00000000000E+00 0.  1.
         -3   -1    0    0    0  501 -0.00000000000E+00 -0.00000000000E+00 -0.89915783426E+02  0.89915783426E+02  0.00000000000E+00 0.  1.
         23    2    1    2    0    0  0.32945022220E+02 -0.32729957978E+02  0.62256592766E+02  0.12924442061E+03  0.10330349596E+03 0.  0.
         23    2    1    2    0    0 -0.16066701757E+02 -0.72666517689E+02  0.18007521680E+03  0.21436688685E+03  0.89372908499E+02 0.  0.
        -13    1    4    4    0    0 -0.10966076543E+02 -0.92443753045E+02  0.12674214164E+03  0.15725670981E+03  0.00000000000E+00 0.  1.
         13    1    4    4    0    0 -0.51006252143E+01  0.19777235355E+02  0.53333075158E+02  0.57110177042E+02  0.00000000000E+00 0. -1.
        -13    1    3    3    0    0 -0.21562446130E+02  0.13875809146E+02  0.50410195291E+02  0.56556740993E+02  0.00000000000E+00 0.  1.
         13    1    3    3    0    0  0.54507468350E+02 -0.46605767124E+02  0.11846397475E+02  0.72687679618E+02  0.00000000000E+00 0. -1.
         -3    1    1    2    0  502 -0.16878320463E+02  0.10539647567E+03  0.33244619249E+02  0.11179668821E+03  0.00000000000E+00 0.  1.
<scales pt_clust_5="13000.00000" pt_clust_6="13000.00000" pt_clust_7="13000.00000" pt_clust_8="13000.00000" pt_clust_9="106.73943"></scales>
<clustering>
<clus scale="   89.373">  5  6 -1 -1</clus>
<clus scale="  103.303">  7  8 -1 -1</clus>
<clus scale="  106.739">  1  9  2 -1</clus>
<clus scale="  106.739">  1  5  2 -1</clus>
<clus scale="  106.739">  1  5  2 -1</clus>
</clustering>
</event>
<event>
 9    1  0.1610296E-005  0.1020433E+03  0.7546771E-02  0.1276465E+00
         21   -1    0    0  501  502  0.00000000000E+00  0.00000000000E+00  0.11942971971E+03  0.11942971971E+03  0.00000000000E+00 0.  1.
          2   -1    0    0  502    0 -0.00000000000E+00 -0.00000000000E+00 -0.56033568404E+03  0.56033568404E+03  0.00000000000E+00 0. -1.
         23    2    1    2    0    0  0.57170829545E+02  0.36528317970E+02 -0.33866437076E+03  0.35710531531E+03  0.90707378060E+02 0.  0.
         23    2    1    2    0    0 -0.22109062266E+02  0.27827412445E+01 -0.19466049033E+03  0.21628368420E+03  0.91593511088E+02 0.  0.
        -11    1    4    4    0    0  0.90853919889E+01 -0.37496040751E+02 -0.11876737743E+03  0.12487668862E+03  0.00000000000E+00 0. -1.
         11    1    4    4    0    0 -0.31194454255E+02  0.40278781995E+02 -0.75893112896E+02  0.91406995577E+02  0.00000000000E+00 0.  1.
        -11    1    3    3    0    0  0.80185919704E+02  0.26475882422E+02 -0.21648644489E+03  0.23237283595E+03  0.00000000000E+00 0. -1.
         11    1    3    3    0    0 -0.23015090160E+02  0.10052435549E+02 -0.12217792588E+03  0.12473247936E+03  0.00000000000E+00 0.  1.
          2    1    1    2  501    0 -0.35061767278E+02 -0.39311059215E+02  0.92418896759E+02  0.10637640424E+03  0.00000000000E+00 0. -1.
<scales pt_clust_5="13000.00000" pt_clust_6="13000.00000" pt_clust_7="13000.00000" pt_clust_8="13000.00000" pt_clust_9="52.67530"></scales>
<clustering>
<clus scale="   52.675">  1  9  2 -1</clus>
<clus scale="   90.707">  7  8 -1 -1</clus>
<clus scale="   91.594">  5  6 -1 -1</clus>
<clus scale="  101.249">  2  7  1 -1</clus>
<clus scale="   52.675">  1  5  2 -1</clus>
</clustering>
</event>
<event>
 9    1  0.1610296E-005  0.1078214E+03  0.7546771E-02  0.1265166E+00
         21   -1    0    0  501  502  0.00000000000E+00  0.00000000000E+00  0.17739402163E+03  0.17739402163E+03  0.00000000000E+00 0.  1.
          1   -1    0    0  502    0 -0.00000000000E+00 -0.00000000000E+00 -0.98950574281E+02  0.98950574281E+02  0.00000000000E+00 0. -1.
         23    2    1    2    0    0  0.38913910456E+02 -0.49283187824E+02  0.90007704433E+01  0.11109485893E+03  0.91202679689E+02 0.  0.
         23    2    1    2    0    0 -0.50044858913E+02  0.18865215965E+02  0.79405867897E+02  0.13136144696E+03  0.89945281224E+02 0.  0.
        -11    1    4    4    0    0 -0.21879682965E+02  0.53864734725E+02  0.33357478780E+02  0.67028736854E+02  0.00000000000E+00 0. -1.
         11    1    4    4    0    0 -0.28165175948E+02 -0.34999518760E+02  0.46048389116E+02  0.64332710108E+02  0.00000000000E+00 0.  1.
        -11    1    3    3    0    0 -0.25751398965E+02 -0.35983108731E+02  0.85912430481E+01  0.45074694893E+02  0.00000000000E+00 0.  1.
         11    1    3    3    0    0  0.64665309421E+02 -0.13300079094E+02  0.40952739518E+00  0.66020164034E+02  0.00000000000E+00 0. -1.
          1    1    1    2  501    0  0.11130948457E+02  0.30417971860E+02 -0.99631909936E+01  0.33888290018E+02  0.00000000000E+00 0. -1.
<scales pt_clust_5="13000.00000" pt_clust_6="13000.00000" pt_clust_7="13000.00000" pt_clust_8="13000.00000" pt_clust_9="32.39062"></scales>
<clustering>
<clus scale="   32.391">  1  9  2 -1</clus>
<clus scale="   89.945">  5  6 -1 -1</clus>
<clus scale="   91.203">  7  8 -1 -1</clus>
<clus scale="  106.760">  1  5  2 -1</clus>
<clus scale="   32.391">  1  5  2 -1</clus>
</clustering>
</event>
<event>
 9    1  0.1610296E-005  0.1537845E+03  0.7546771E-02  0.1198006E+00
         -1   -1    0    0    0  501 -0.00000000000E+00  0.00000000000E+00  0.21553368637E+03  0.21553368637E+03  0.00000000000E+00 0.  1.
         21   -1    0    0  501  502  0.00000000000E+00 -0.00000000000E+00 -0.41775564518E+03  0.41775564518E+03  0.00000000000E+00 0. -1.
         23    2    1    2    0    0 -0.88201533337E+02 -0.58314404131E+02  0.13261119916E+03  0.19453274097E+03  0.95274219767E+02 0.  0.
         23    2    1    2    0    0  0.99905249141E+02  0.11034056536E+03 -0.12246875176E+03  0.21979919875E+03  0.10562667014E+03 0.  0.
        -11    1    3    3    0    0 -0.50487002624E+02  0.97331660185E+01  0.15076496168E+02  0.53581458466E+02  0.00000000000E+00 0. -1.
         11    1    3    3    0    0 -0.37714530713E+02 -0.68047570150E+02  0.11753470300E+03  0.14095128250E+03  0.00000000000E+00 0.  1.
        -11    1    4    4    0    0  0.38032629985E+02  0.11214753449E+03 -0.96139785815E+02  0.15253330408E+03  0.00000000000E+00 0. -1.
         11    1    4    4    0    0  0.61872619157E+02 -0.18069691303E+01 -0.26328965949E+02  0.67265894677E+02  0.00000000000E+00 0.  1.
         -1    1    1    2    0  502 -0.11703715805E+02 -0.52026161229E+02 -0.21236440621E+03  0.21895739184E+03  0.00000000000E+00 0.  1.
<scales pt_clust_5="13000.00000" pt_clust_6="13000.00000" pt_clust_7="13000.00000" pt_clust_8="13000.00000" pt_clust_9="53.32634"></scales>
<clustering>
<clus scale="   53.326">  2  9  1 -1</clus>
<clus scale="   95.274">  5  6 -1 -1</clus>
<clus scale="  105.627">  7  8 -1 -1</clus>
<clus scale="  146.867">  1  5  2 -1</clus>
<clus scale="   53.326">  2  5  1 -1</clus>
</clustering>
</event>
<event>
 9    1  0.1610296E-005  0.9995902E+02  0.7546771E-02  0.1283449E+00
          2   -1    0    0  502    0 -0.00000000000E+00  0.00000000000E+00  0.15432570472E+03  0.15432570472E+03  0.00000000000E+00 0. -1.
         21   -1    0    0  501  502  0.00000000000E+00 -0.00000000000E+00 -0.95154157142E+02  0.95154157142E+02  0.00000000000E+00 0.  1.
         23    2    1    2    0    0 -0.97396815351E+01  0.41030090259E+01  0.42938070236E+02  0.10336688985E+03  0.93430936861E+02 0.  0.
         23    2    1    2    0    0 -0.20634834955E+02 -0.23101180305E+02  0.29408381237E+02  0.10794073267E+03  0.99130660932E+02 0.  0.
        -11    1    3    3    0    0  0.37193151648E+02 -0.14871948027E+02  0.55618445605E+01  0.40440567288E+02  0.00000000000E+00 0.  1.
         11    1    3    3    0    0 -0.46932833184E+02  0.18974957053E+02  0.37376225676E+02  0.62926322565E+02  0.00000000000E+00 0. -1.
        -13    1    4    4    0    0 -0.33055152684E+02 -0.52542446941E+02  0.40497365920E+02  0.74117396716E+02  0.00000000000E+00 0. -1.
         13    1    4    4    0    0  0.12420317729E+02  0.29441266636E+02 -0.11088984683E+02  0.33823335952E+02  0.00000000000E+00 0.  1.
          2    1    1    2  501    0  0.30374516490E+02  0.18998171279E+02 -0.13174903892E+02  0.38172239344E+02  0.00000000000E+00 0. -1.
<scales pt_clust_5="13000.00000" pt_clust_6="13000.00000" pt_clust_7="13000.00000" pt_clust_8="13000.00000" pt_clust_9="35.82655"></scales>
<clustering>
<clus scale="   35.827">  2  9  1 -1</clus>
<clus scale="   93.431">  5  6 -1 -1</clus>
<clus scale="   94.309">  1  5  2 -1</clus>
<clus scale="   99.131">  7  8 -1 -1</clus>
<clus scale="   35.827">  2  5  1 -1</clus>
</clustering>
</event>
<event>
 9    1  0.1610296E-005  0.1005044E+03  0.7546771E-02  0.1281552E+00
          2   -1    0    0  502    0 -0.00000000000E+00  0.00000000000E+00  0.11780011412E+03  0.11780011412E+03  0.00000000000E+00 0. -1.
         21   -1    0    0  501  502  0.00000000000E+00 -0.00000000000E+00 -0.28463998555E+03  0.28463998555E+03  0.00000000000E+00 0. -1.
         23    2    1    2    0    0 -0.18277268042E+02  0.27025475343E+02  0.41406853642E+02  0.10883744466E+03  0.95218837350E+02 0.  0.
         23    2    1    2    0    0 -0.55562368888E+02 -0.55397276255E+02 -0.16343375606E+03  0.20268811680E+03  0.90641298637E+02 0.  0.
        -11    1    4    4    0    0 -0.55088181072E+02 -0.24358040159E+02 -0.33141180246E+02  0.68748524656E+02  0.00000000000E+00 0. -1.
         11    1    4    4    0    0 -0.47418781643E+00 -0.31039236096E+02 -0.13029257581E+03  0.13393959214E+03  0.00000000000E+00 0.  1.
        -13    1    3    3    0    0 -0.27579986802E+01 -0.29620687390E+02  0.40303416060E+02  0.50093482853E+02  0.00000000000E+00 0.  1.
         13    1    3    3    0    0 -0.15519269361E+02  0.56646162734E+02  0.11034375822E+01  0.58743961804E+02  0.00000000000E+00 0. -1.
          2    1    1    2  501    0  0.73839636930E+02  0.28371800912E+02 -0.44812969017E+02  0.90914538227E+02  0.00000000000E+00 0. -1.
<scales pt_clust_5="13000.00000" pt_clust_6="13000.00000" pt_clust_7="13000.00000" pt_clust_8="13000.00000" pt_clust_9="79.10279"></scales>
<clustering>
<clus scale="   79.103">  2  9  1 -1</clus>
<clus scale="   90.641">  5  6 -1 -1</clus>
<clus scale="   95.219">  7  8 -1 -1</clus>
<clus scale="   96.179">  2  5  1 -1</clus>
<clus scale="   79.103">  2  5  1 -1</clus>
</clustering>
</event>
<event>
 9    1  0.1610296E-005  0.1414401E+03  0.7546771E-02  0.1228056E+00
         21   -1    0    0  501  502  0.00000000000E+00  0.00000000000E+00  0.25873857393E+03  0.25873857393E+03  0.00000000000E+00 0.  1.
          3   -1    0    0  502    0 -0.00000000000E+00 -0.00000000000E+00 -0.15022798727E+03  0.15022798727E+03  0.00000000000E+00 0. -1.
         23    2    1    2    0    0  0.35013081112E+02 -0.37564909413E+01  0.95747762360E+02  0.13822373090E+03  0.93263812460E+02 0.  0.
         23    2    1    2    0    0 -0.10299589627E+03 -0.72999175808E+02 -0.31787179290E+02  0.15894927791E+03  0.91199856707E+02 0.  0.
        -11    1    3    3    0    0  0.49000125142E+02 -0.37628527017E+02  0.49180061939E+02  0.78965795137E+02  0.00000000000E+00 0. -1.
         11    1    3    3    0    0 -0.13987044030E+02  0.33872036076E+02  0.46567700421E+02  0.59257935765E+02  0.00000000000E+00 0.  1.
        -11    1    4    4    0    0 -0.69609942157E+01 -0.56519875145E+02 -0.17037330597E+01  0.56972400627E+02  0.00000000000E+00 0. -1.
         11    1    4    4    0    0 -0.96034902058E+02 -0.16479300664E+02 -0.30083446230E+02  0.10197687728E+03  0.00000000000E+00 0.  1.
          3    1    1    2  501    0  0.67982815162E+02  0.76755666750E+02  0.44550003583E+02  0.11179355238E+03  0.00000000000E+00 0. -1.
<scales pt_clust_5="13000.00000" pt_clust_6="13000.00000" pt_clust_7="13000.00000" pt_clust_8="13000.00000" pt_clust_9="108.11058"></scales>
<clustering>
<clus scale="   91.200">  7  8 -1 -1</clus>
<clus scale="   93.264">  5  6 -1 -1</clus>
<clus scale="   99.690">  2  5  1 -1</clus>
<clus scale="  108.111">  1  9  2 -1</clus>
<clus scale="  108.111">  1  5  2 -1</clus>
</clustering>
</event>
<event>
 9    1  0.1610296E-005  0.1326363E+03  0.7546771E-02  0.1223778E+00
          1   -1    0    0  502    0 -0.00000000000E+00  0.00000000000E+00  0.41679561369E+02  0.41679561369E+02  0.00000000000E+00 0. -1.
         21   -1    0    0  501  502  0.00000000000E+00 -0.00000000000E+00 -0.53599310113E+03  0.53599310113E+03  0.00000000000E+00 0. -1.
         23    2    1    2    0    0 -0.92880723118E+02 -0.37491616776E+02 -0.16499310848E+03  0.21294680551E+03  0.89950909265E+02 0.  0.
         23    2    1    2    0    0  0.76182405661E+02  0.52504197064E+02 -0.30627236685E+03  0.33254784203E+03  0.90690985759E+02 0.  0.
        -11    1    3    3    0    0 -0.57896232474E+02 -0.30484267107E+02 -0.16474884685E+03  0.17726659813E+03  0.00000000000E+00 0.  1.
         11    1    3    3    0    0 -0.34984490644E+02 -0.70073496690E+01 -0.24426163030E+00  0.35680207381E+02  0.00000000000E+00 0. -1.
        -11    1    4    4    0    0  0.96361514391E+02  0.40745700853E+02 -0.22785129010E+03  0.25072288287E+03  0.00000000000E+00 0. -1.
         11    1    4    4    0    0 -0.20179108730E+02  0.11758496210E+02 -0.78421076747E+02  0.81824959153E+02  0.00000000000E+00 0.  1.
          1    1    1    2  501    0  0.16698317457E+02 -0.15012580288E+02 -0.23048064436E+02  0.32178014965E+02  0.00000000000E+00 0. -1.
<scales pt_clust_5="13000.00000" pt_clust_6="13000.00000" pt_clust_7="13000.00000" pt_clust_8="13000.00000" pt_clust_9="22.45466"></scales>
<clustering>
<clus scale="   22.455">  2  9  1 -1</clus>
<clus scale="   89.951">  5  6 -1 -1</clus>
<clus scale="   90.691">  7  8 -1 -1</clus>
<clus scale="  132.131">  1  5  2 -1</clus>
<clus scale="   22.455">  2  5  1 -1</clus>
</clustering>
</event>
<event>
 9    1  0.1610296E-005  0.1326617E+03  0.7546771E-02  0.1223663E+00
         21   -1    0    0  501  502  0.00000000000E+00  0.00000000000E+00  0.49801917362E+03  0.49801917362E+03  0.00000000000E+00 0. -1.
         -3   -1    0    0    0  501 -0.00000000000E+00 -0.00000000000E+00 -0.73434697112E+02  0.73434697112E+02  0.00000000000E+00 0.  1.
         23    2    1    2    0    0 -0.29018995356E+02 -0.95270845586E+02  0.47582416772E+02  0.14232953116E+03  0.89860853237E+02 0.  0.
         23    2    1    2    0    0 -0.33112026152E+00  0.95656061412E+02  0.14700038789E+03  0.19725725107E+03  0.90283538558E+02 0.  0.
        -11    1    3    3    0    0 -0.35651307022E+02  0.21339550641E+01  0.60127844558E+01  0.36217717122E+02  0.00000000000E+00 0.  1.
         11    1    3    3    0    0  0.66323116661E+01 -0.97404800650E+02  0.41569632316E+02  0.10611181404E+03  0.00000000000E+00 0. -1.
        -11    1    4    4    0    0 -0.25820951550E+02  0.37634885858E+01  0.69946313544E+02  0.74655021022E+02  0.00000000000E+00 0. -1.
         11    1    4    4    0    0  0.25489831289E+02  0.91892572826E+02  0.77054074347E+02  0.12260223005E+03  0.00000000000E+00 0.  1.
         -3    1    1    2    0  502  0.29350115617E+02 -0.38521582523E+00  0.23000167185E+03  0.23186708850E+03  0.00000000000E+00 0.  1.
<scales pt_clust_5="13000.00000" pt_clust_6="13000.00000" pt_clust_7="13000.00000" pt_clust_8="13000.00000" pt_clust_9="29.35264"></scales>
<clustering>
<clus scale="   29.353">  1  9  2 -1</clus>
<clus scale="   89.861">  5  6 -1 -1</clus>
<clus scale="   90.284">  7  8 -1 -1</clus>
<clus scale="  132.374">  2  5  1 -1</clus>
<clus scale="   29.353">  1  5  2 -1</clus>
</clustering>
</event>
<event>
 9    1  0.2373529E-005  0.9230911E+02  0.7546771E-02  0.1298664E+00
         21   -1    0    0  501  502  0.00000000000E+00  0.00000000000E+00  0.63350866764E+02  0.63350866764E+02  0.00000000000E+00 0.  1.
          1   -1    0    0  502    0 -0.00000000000E+00 -0.00000000000E+00 -0.34073808852E+03  0.34073808852E+03  0.00000000000E+00 0. -1.
         23    2    1    2    0    0  0.25153477305E+01  0.34732405774E+01 -0.26086318127E+03  0.27665707591E+03  0.92038839278E+02 0.  0.
         23    2    1    2    0    0 -0.62979383018E+01 -0.25257812063E+02  0.86591219720E+01  0.93919684314E+02  0.89823747479E+02 0.  0.
        -11    1    3    3    0    0  0.91179154705E+01 -0.42190244022E+02 -0.92312526910E+02  0.10190562152E+03  0.00000000000E+00 0.  1.
         11    1    3    3    0    0 -0.66025677401E+01  0.45663484599E+02 -0.16855065436E+03  0.17475145439E+03  0.00000000000E+00 0. -1.
        -11    1    4    4    0    0 -0.30455451389E+02 -0.22045587817E+01 -0.30020097311E+02  0.42820565635E+02  0.00000000000E+00 0.  1.
         11    1    4    4    0    0  0.24157513087E+02 -0.23053253281E+02  0.38679219283E+02  0.51099118679E+02  0.00000000000E+00 0. -1.
          1    1    1    2  501    0  0.37825905714E+01  0.21784571485E+02 -0.25183162459E+02  0.33512195059E+02  0.00000000000E+00 0. -1.
<scales pt_clust_5="13000.00000" pt_clust_6="13000.00000" pt_clust_7="13000.00000" pt_clust_8="13000.00000" pt_clust_9="22.11054"></scales>
<clustering>
<clus scale="   22.111">  1  9  2 -1</clus>
<clus scale="   89.824">  7  8 -1 -1</clus>
<clus scale="   90.101">  1  7  2 -1</clus>
<clus scale="   92.039">  5  6 -1 -1</clus>
<clus scale="   22.111">  1  5  2 -1</clus>
</clustering>
</event>
<event>
 9    1  0.1610296E-005  0.1073063E+03  0.7546771E-02  0.1267491E+00
         21   -1    0    0  501  502  0.00000000000E+00  0.00000000000E+00  0.15358619029E+03  0.15358619029E+03  0.00000000000E+00 0. -1.
          1   -1    0    0  502    0 -0.00000000000E+00 -0.00000000000E+00 -0.26462381672E+03  0.26462381672E+03  0.00000000000E+00 0. -1.
         23    2    1    2    0    0  0.43714454463E+02 -0.41780436813E+02 -0.17955246716E+03  0.20982766359E+03  0.90177610955E+02 0.  0.
         23    2    1    2    0    0 -0.43358798074E+02 -0.27263508349E+02 -0.48945663847E+01  0.10760469755E+03  0.94506771699E+02 0.  0.
        -11    1    4    4    0    0 -0.39028344632E+02 -0.53716343625E+02 -0.28149310885E+02  0.72118242910E+02  0.00000000000E+00 0. -1.
         11    1    4    4    0    0 -0.43304534415E+01  0.26452835276E+02  0.23254744501E+02  0.35486454640E+02  0.00000000000E+00 0.  1.
        -13    1    3    3    0    0 -0.27390738044E+02 -0.20938631432E+02 -0.56565850433E+02  0.66244805472E+02  0.00000000000E+00 0.  1.
         13    1    3    3    0    0  0.71105192507E+02 -0.20841805381E+02 -0.12298661672E+03  0.14358285812E+03  0.00000000000E+00 0. -1.
          1    1    1    2  501    0 -0.35565638952E+00  0.69043945162E+02  0.73409407112E+02  0.10077764587E+03  0.00000000000E+00 0. -1.
<scales pt_clust_5="13000.00000" pt_clust_6="13000.00000" pt_clust_7="13000.00000" pt_clust_8="13000.00000" pt_clust_9="69.04486"></scales>
<clustering>
<clus scale="   69.045">  1  9  2 -1</clus>
<clus scale="   90.178">  7  8 -1 -1</clus>
<clus scale="   94.507">  5  6 -1 -1</clus>
<clus scale="  103.514">  2  7  1 -1</clus>
<clus scale="   69.045">  1  5  2 -1</clus>
</clustering>
</event>
<event>
 9    1  0.1610296E-005  0.1010686E+03  0.7546771E-02  0.1278598E+00
          2   -1    0    0  502    0 -0.00000000000E+00  0.00000000000E+00  0.76645604340E+03  0.76645604340E+03  0.00000000000E+00 0. -1.
         21   -1    0    0  501  502  0.00000000000E+00 -0.00000000000E+00 -0.22080226136E+02  0.22080226136E+02  0.00000000000E+00 0.  1.
         23    2    1    2    0    0  0.13127777983E+02  0.48988915926E+02  0.41120159267E+03  0.42393287621E+03  0.89777955419E+02 0.  0.
         23    2    1    2    0    0  0.10033321741E+02 -0.38320262912E+02  0.32170337168E+03  0.33664204207E+03  0.90915867938E+02 0.  0.
        -11    1    4    4    0    0 -0.39388860674E+02 -0.25090317784E+02  0.18092118846E+03  0.18685149939E+03  0.00000000000E+00 0. -1.
         11    1    4    4    0    0  0.49422182415E+02 -0.13229945128E+02  0.14078218322E+03  0.14979054268E+03  0.00000000000E+00 0.  1.
        -13    1    3    3    0    0  0.51433763437E+02  0.20519553161E+02  0.21783358008E+03  0.22476199121E+03  0.00000000000E+00 0.  1.
         13    1    3    3    0    0 -0.38305985454E+02  0.28469362765E+02  0.19336801260E+03  0.19917088500E+03  0.00000000000E+00 0. -1.
          2    1    1    2  501    0 -0.23161099724E+02 -0.10668653014E+02  0.11470852915E+02  0.27961351258E+02  0.00000000000E+00 0. -1.
<scales pt_clust_5="13000.00000" pt_clust_6="13000.00000" pt_clust_7="13000.00000" pt_clust_8="13000.00000" pt_clust_9="25.50013"></scales>
<clustering>
<clus scale="   25.500">  2  9  1 -1</clus>
<clus scale="   89.778">  7  8 -1 -1</clus>
<clus scale="   90.916">  5  6 -1 -1</clus>
<clus scale="  100.046">  1  7  2 -1</clus>
<clus scale="   25.500">  2  5  1 -1</clus>
</clustering>
</event>
<event>
 9    1  0.1610296E-005  0.1054341E+03  0.7546771E-02  0.1271126E+00
          3   -1    0    0  502    0 -0.00000000000E+00  0.00000000000E+00  0.28092823784E+03  0.28092823784E+03  0.00000000000E+00 0. -1.
         21   -1    0    0  501  502  0.00000000000E+00 -0.00000000000E+00 -0.82534474245E+02  0.82534474245E+02  0.00000000000E+00 0. -1.
         23    2    1    2    0    0  0.49694382708E+02 -0.31924148795E+02  0.12500752735E+03  0.16317297144E+03  0.86659412455E+02 0.  0.
         23    2    1    2    0    0 -0.35584489528E+02  0.77937586030E+01 -0.22366333103E+02  0.10054045817E+03  0.91000726945E+02 0.  0.
        -11    1    4    4    0    0 -0.34154374377E+02 -0.28208416992E+02 -0.40662658846E+02  0.60130590407E+02  0.00000000000E+00 0. -1.
         11    1    4    4    0    0 -0.14301151513E+01  0.36002175595E+02  0.18296325743E+02  0.40409867763E+02  0.00000000000E+00 0.  1.
        -11    1    3    3    0    0  0.35397219677E+02  0.13953657808E+02  0.11241086168E+02  0.39674043723E+02  0.00000000000E+00 0. -1.
         11    1    3    3    0    0  0.14297163031E+02 -0.45877806603E+02  0.11376644118E+03  0.12349892772E+03  0.00000000000E+00 0.  1.
          3    1    1    2  501    0 -0.14109893180E+02  0.24130390192E+02  0.95752569344E+02  0.99749282466E+02  0.00000000000E+00 0. -1.
<scales pt_clust_5="13000.00000" pt_clust_6="13000.00000" pt_clust_7="13000.00000" pt_clust_8="13000.00000" pt_clust_9="27.95292"></scales>
<clustering>
<clus scale="   27.953">  2  9  1 -1</clus>
<clus scale="   86.659">  7  8 -1 -1</clus>
<clus scale="   91.001">  5  6 -1 -1</clus>
<clus scale="  101.711">  1  7  2 -1</clus>
<clus scale="   27.953">  2  5  1 -1</clus>
</clustering>
</event>
<event>
 9    1  0.1610296E-005  0.2113490E+03  0.7546771E-02  0.1140590E+00
         21   -1    0    0  501  502  0.00000000000E+00  0.00000000000E+00  0.83851084626E+02  0.83851084626E+02  0.00000000000E+00 0. -1.
          1   -1    0    0  502    0 -0.00000000000E+00 -0.00000000000E+00 -0.85342342834E+03  0.85342342834E+03  0.00000000000E+00 0. -1.
         23    2    1    2    0    0  0.41080079998E+01  0.19468881910E+03 -0.62198937920E+03  0.65819840009E+03  0.91835363672E+02 0.  0.
         23    2    1    2    0    0 -0.17322328840E+02 -0.17631978023E+03 -0.15728134959E+03  0.25445704431E+03  0.92855998681E+02 0.  0.
        -11    1    3    3    0    0  0.30691343076E+02  0.13769185715E+03 -0.31977924616E+03  0.34951362254E+03  0.00000000000E+00 0.  1.
         11    1    3    3    0    0 -0.26583335076E+02  0.56996961950E+02 -0.30221013304E+03  0.30868477755E+03  0.00000000000E+00 0. -1.
        -13    1    4    4    0    0  0.16724042182E+02 -0.14085987378E+03 -0.14691277074E+03  0.20421694306E+03  0.00000000000E+00 0.  1.
         13    1    4    4    0    0 -0.34046371022E+02 -0.35459906455E+02 -0.10368578848E+02  0.50240101243E+02  0.00000000000E+00 0. -1.
          1    1    1    2  501    0  0.13214320841E+02 -0.18369038864E+02  0.96983850802E+01  0.24619068570E+02  0.00000000000E+00 0. -1.
<scales pt_clust_5="13000.00000" pt_clust_6="13000.00000" pt_clust_7="13000.00000" pt_clust_8="13000.00000" pt_clust_9="22.62830"></scales>
<clustering>
<clus scale="   22.628">  1  9  2 -1</clus>
<clus scale="   91.835">  5  6 -1 -1</clus>
<clus scale="   92.856">  7  8 -1 -1</clus>
<clus scale="  210.903">  2  5  1 -1</clus>
<clus scale="   22.628">  1  5  2 -1</clus>
</clustering>
</event>
<event>
 9    1  0.1610296E-005  0.9098483E+02  0.7546771E-02  0.1300975E+00
          2   -1    0    0  502    0 -0.00000000000E+00  0.00000000000E+00  0.44023076198E+03  0.44023076198E+03  0.00000000000E+00 0. -1.
         21   -1    0    0  501  502  0.00000000000E+00 -0.00000000000E+00 -0.12008712057E+03  0.12008712057E+03  0.00000000000E+00 0. -1.
         23    2    1    2    0    0 -0.17331164914E+02 -0.16362255520E+02  0.30599373699E+03  0.31910398402E+03  0.87333228825E+02 0.  0.
         23    2    1    2    0    0  0.26557019359E+02 -0.52358198753E+01  0.10940895287E+03  0.14310233162E+03  0.88177487263E+02 0.  0.
        -11    1    3    3    0    0  0.19796957354E+02  0.26948559765E+02  0.10842964486E+03  0.11346864007E+03  0.00000000000E+00 0.  1.
         11    1    3    3    0    0 -0.37128122267E+02 -0.43310815286E+02  0.19756409213E+03  0.20563534395E+03  0.00000000000E+00 0. -1.
        -13    1    4    4    0    0 -0.88735399607E+01  0.36102103606E+02  0.36409812475E+02  0.52036295417E+02  0.00000000000E+00 0.  1.
         13    1    4    4    0    0  0.35430559319E+02 -0.41337923481E+02  0.72999140391E+02  0.91066036201E+02  0.00000000000E+00 0. -1.
          2    1    1    2  501    0 -0.92258544452E+01  0.21598075396E+02 -0.95259048450E+02  0.98111566916E+02  0.00000000000E+00 0. -1.
<scales pt_clust_5="13000.00000" pt_clust_6="13000.00000" pt_clust_7="13000.00000" pt_clust_8="13000.00000" pt_clust_9="23.48602"></scales>
<clustering>
<clus scale="   23.486">  2  9  1 -1</clus>
<clus scale="   87.333">  5  6 -1 -1</clus>
<clus scale="   88.177">  7  8 -1 -1</clus>
<clus scale="   90.167">  1  5  2 -1</clus>
<clus scale="   23.486">  2  5  1 -1</clus>
</clustering>
</event>
<event>
 9    1  0.1610296E-005  0.9418578E+02  0.7546771E-02  0.1293936E+00
         21   -1    0    0  501  502  0.00000000000E+00  0.00000000000E+00  0.76460745849E+03  0.76460745849E+03  0.00000000000E+00 0.  1.
         -3   -1    0    0    0  501 -0.00000000000E+00 -0.00000000000E+00 -0.65882115027E+02  0.65882115027E+02  0.00000000000E+00 0.  1.
         23    2    1    2    0    0  0.14937230540E+02  0.67544417504E+01  0.36505516011E+02  0.99255549679E+02  0.90830986471E+02 0.  0.
         23    2    1    2    0    0  0.35558730234E+02  0.50749570913E+02  0.64507601389E+02  0.12864257127E+03  0.92453979155E+02 0.  0.
        -11    1    4    4    0    0  0.57593678910E+02  0.15013042723E+02  0.10828885049E+02  0.60495355637E+02  0.00000000000E+00 0. -1.
         11    1    4    4    0    0 -0.22034948676E+02  0.35736528190E+02  0.53678716340E+02  0.68147215630E+02  0.00000000000E+00 0.  1.
        -13    1    3    3    0    0  0.22396268201E+01  0.30200184140E+02 -0.20331497674E+02  0.36475153845E+02  0.00000000000E+00 0.  1.
         13    1    3    3    0    0  0.12697603719E+02 -0.23445742389E+02  0.56837013685E+02  0.62780395834E+02  0.00000000000E+00 0. -1.
         -3    1    1    2    0  502 -0.50495960774E+02 -0.57504012663E+02  0.59771222607E+03  0.60259145258E+03  0.00000000000E+00 0.  1.
<scales pt_clust_5="13000.00000" pt_clust_6="13000.00000" pt_clust_7="13000.00000" pt_clust_8="13000.00000" pt_clust_9="76.52812"></scales>
<clustering>
<clus scale="   76.528">  1  9  2 -1</clus>
<clus scale="   90.831">  7  8 -1 -1</clus>
<clus scale="   92.454">  5  6 -1 -1</clus>
<clus scale="   92.593">  2  7  1 -1</clus>
<clus scale="   76.528">  1  5  2 -1</clus>
</clustering>
</event>
<event>
 9    1  0.1610296E-005  0.1043419E+03  0.7546771E-02  0.1272537E+00
         21   -1    0    0  501  502  0.00000000000E+00  0.00000000000E+00  0.32407077371E+03  0.32407077371E+03  0.00000000000E+00 0. -1.
         -2   -1    0    0    0  501 -0.00000000000E+00 -0.00000000000E+00 -0.45836255772E+02  0.45836255772E+02  0.00000000000E+00 0.  1.
         23    2    1    2    0    0  0.33987473955E+02 -0.52428981063E+02  0.98558325882E+02  0.14723274765E+03  0.89776343982E+02 0.  0.
         23    2    1    2    0    0 -0.23106570407E+02  0.25228161357E+02  0.11307864132E+03  0.14991775347E+03  0.92293986598E+02 0.  0.
        -13    1    3    3    0    0 -0.29451933014E+01 -0.65552070149E+02  0.81111058985E+02  0.10433001464E+03  0.00000000000E+00 0. -1.
         13    1    3    3    0    0  0.36932667257E+02  0.13123089086E+02  0.17447266898E+02  0.42902733014E+02  0.00000000000E+00 0.  1.
        -13    1    4    4    0    0 -0.32557514144E+02 -0.73938990130E+01  0.11097590411E+03  0.11588922626E+03  0.00000000000E+00 0. -1.
         13    1    4    4    0    0  0.94509437371E+01  0.32622060370E+02  0.21027372051E+01  0.34028527210E+02  0.00000000000E+00 0.  1.
         -2    1    1    2    0  502 -0.10880903548E+02  0.27200819706E+02  0.66597550739E+02  0.72756528361E+02  0.00000000000E+00 0.  1.
<scales pt_clust_5="13000.00000" pt_clust_6="13000.00000" pt_clust_7="13000.00000" pt_clust_8="13000.00000" pt_clust_9="29.29639"></scales>
<clustering>
<clus scale="   29.296">  1  9  2 -1</clus>
<clus scale="   89.776">  5  6 -1 -1</clus>
<clus scale="   92.294">  7  8 -1 -1</clus>
<clus scale="  102.122">  2  5  1 -1</clus>
<clus scale="   29.296">  1  5  2 -1</clus>
</clustering>
</event>
<event>
 9    1  0.1610296E-005  0.1429304E+03  0.7546771E-02  0.1210356E+00
         -1   -1    0    0    0  501 -0.00000000000E+00  0.00000000000E+00  0.61924876018E+03  0.61924876018E+03  0.00000000000E+00 0.  1.
         21   -1    0    0  501  502  0.00000000000E+00 -0.00000000000E+00 -0.21391205413E+03  0.21391205413E+03  0.00000000000E+00 0.  1.
         23    2    1    2    0    0 -0.14108453118E+02  0.10286519575E+03  0.39238935481E+03  0.41594533445E+03  0.90889045195E+02 0.  0.
         23    2    1    2    0    0  0.69109587878E+01 -0.12530203630E+03  0.18719280280E+03  0.24138404601E+03  0.86468205709E+02 0.  0.
        -11    1    3    3    0    0 -0.48365174007E+02  0.81254521575E+02  0.31062113454E+03  0.32469520563E+03  0.00000000000E+00 0.  1.
         11    1    3    3    0    0  0.34256720889E+02  0.21610674175E+02  0.81768220270E+02  0.91250128825E+02  0.00000000000E+00 0. -1.
        -13    1    4    4    0    0  0.26834233818E+02 -0.10896348484E+02  0.12340021230E+02  0.31481465004E+02  0.00000000000E+00 0. -1.
         13    1    4    4    0    0 -0.19923275030E+02 -0.11440568782E+03  0.17485278157E+03  0.20990258101E+03  0.00000000000E+00 0.  1.
         -1    1    1    2    0  502  0.71974943301E+01  0.22436840549E+02 -0.17424545156E+03  0.17583143384E+03  0.00000000000E+00 0.  1.
<scales pt_clust_5="13000.00000" pt_clust_6="13000.00000" pt_clust_7="13000.00000" pt_clust_8="13000.00000" pt_clust_9="23.56302"></scales>
<clustering>
<clus scale="   23.563">  2  9  1 -1</clus>
<clus scale="   86.468">  7  8 -1 -1</clus>
<clus scale="   90.889">  5  6 -1 -1</clus>
<clus scale="  140.161">  2  7  1 -1</clus>
<clus scale="   23.563">  2  5  1 -1</clus>
</clustering>
</event>
<event>
 9    1  0.1610296E-005  0.1320507E+03  0.7546771E-02  0.1225267E+00
         -3   -1    0    0    0  501 -0.00000000000E+00  0.00000000000E+00  0.13418182940E+03  0.13418182940E+03  0.00000000000E+00 0.  1.
         21   -1    0    0  501  502  0.00000000000E+00 -0.00000000000E+00 -0.17361424616E+03  0.17361424616E+03  0.00000000000E+00 0. -1.
         23    2    1    2    0    0  0.79526999743E+02 -0.13043026522E+02  0.64986963367E+00  0.12275615793E+03  0.92595830097E+02 0.  0.
         23    2    1    2    0    0 -0.10848446403E+03  0.31429512557E+02 -0.20317635632E+02  0.14545154779E+03  0.89368077308E+02 0.  0.
        -11    1    4    4    0    0 -0.67770089065E+02 -0.26371308298E+02 -0.16956410905E+02  0.74670949799E+02  0.00000000000E+00 0.  1.
         11    1    4    4    0    0 -0.40714374962E+02  0.57800820855E+02 -0.33612247266E+01  0.70780597990E+02  0.00000000000E+00 0. -1.
        -11    1    3    3    0    0  0.49234335928E+02 -0.42023387626E+02  0.30237204512E+02  0.71444198355E+02  0.00000000000E+00 0.  1.
         11    1    3    3    0    0  0.30292663815E+02  0.28980361104E+02 -0.29587334878E+02  0.51311959580E+02  0.00000000000E+00 0. -1.
         -3    1    1    2    0  502  0.28957464283E+02 -0.18386486035E+02 -0.19764650765E+02  0.39588369836E+02  0.00000000000E+00 0.  1.
<scales pt_clust_5="13000.00000" pt_clust_6="13000.00000" pt_clust_7="13000.00000" pt_clust_8="13000.00000" pt_clust_9="34.30157"></scales>
<clustering>
<clus scale="   34.302">  2  9  1 -1</clus>
<clus scale="   89.368">  5  6 -1 -1</clus>
<clus scale="   92.596">  7  8 -1 -1</clus>
<clus scale="  129.808">  2  5  1 -1</clus>
<clus scale="   34.302">  2  5  1 -1</clus>
</clustering>
</event>
<event>
 9    1  0.1610296E-005  0.9707859E+02  0.7546771E-02  0.1294474E+00
         21   -1    0    0  501  502  0.00000000000E+00  0.00000000000E+00  0.11099434464E+03  0.11099434464E+03  0.00000000000E+00 0. -1.
          2   -1    0    0  502    0 -0.00000000000E+00 -0.00000000000E+00 -0.18642827660E+03  0.18642827660E+03  0.00000000000E+00 0. -1.
         23    2    1    2    0    0  0.23732714814E+02  0.37729405647E+02 -0.12798365688E+03  0.16242364692E+03  0.89525833394E+02 0.  0.
         23    2    1    2    0    0 -0.26338694076E+02 -0.47065490760E+01  0.85544445611E+01  0.79927340265E+02  0.74828622800E+02 0.  0.
        -11    1    4    4    0    0 -0.11983086426E+02 -0.20966355238E+02 -0.28275800341E+02  0.37184718598E+02  0.00000000000E+00 0.  1.
         11    1    4    4    0    0 -0.14355607650E+02  0.16259806162E+02  0.36830244902E+02  0.42742621667E+02  0.00000000000E+00 0. -1.
        -13    1    3    3    0    0 -0.65672910406E+01  0.60751892004E+02 -0.68347110797E+02  0.91680146423E+02  0.00000000000E+00 0. -1.
         13    1    3    3    0    0  0.30300005854E+02 -0.23022486357E+02 -0.59636546087E+02  0.70743500493E+02  0.00000000000E+00 0.  1.
          2    1    1    2  501    0  0.26059792618E+01 -0.33022856571E+02  0.43995280363E+02  0.55071634062E+02  0.00000000000E+00 0. -1.
<scales pt_clust_5="13000.00000" pt_clust_6="13000.00000" pt_clust_7="13000.00000" pt_clust_8="13000.00000" pt_clust_9="33.12552"></scales>
<clustering>
<clus scale="   33.126">  1  9  2 -1</clus>
<clus scale="   74.829">  5  6 -1 -1</clus>
<clus scale="   83.718">  1  5  2 -1</clus>
<clus scale="   89.526">  7  8 -1 -1</clus>
<clus scale="   33.126">  1  5  2 -1</clus>
</clustering>
</event>
<event>
 9    1  0.1610296E-005  0.1108226E+03  0.7546771E-02  0.1259360E+00
         21   -1    0    0  501  502  0.00000000000E+00  0.00000000000E+00  0.49054096325E+02  0.49054096325E+02  0.00000000000E+00 0.  1.
          1   -1    0    0  502    0 -0.00000000000E+00 -0.00000000000E+00 -0.60149816663E+03  0.60149816663E+03  0.00000000000E+00 0. -1.
         23    2    1    2    0    0  0.31695982095E+02 -0.45672464599E+02 -0.42908271253E+03  0.44234362108E+03  0.92007041134E+02 0.  0.
         23    2    1    2    0    0 -0.57737169566E+02  0.65238877293E+02 -0.12219819048E+03  0.17561507029E+03  0.91206158204E+02 0.  0.
        -11    1    3    3    0    0 -0.23271257593E+02 -0.37460768718E+02 -0.11095972609E+03  0.11940235105E+03  0.00000000000E+00 0.  1.
         11    1    3    3    0    0  0.54967239688E+02 -0.82116958809E+01 -0.31812298644E+03  0.32294127003E+03  0.00000000000E+00 0. -1.
        -13    1    4    4    0    0 -0.53872402607E+02  0.14160885784E+02 -0.16396588457E+02  0.58065605670E+02  0.00000000000E+00 0.  1.
         13    1    4    4    0    0 -0.38647669591E+01  0.51077991508E+02 -0.10580160203E+03  0.11754946462E+03  0.00000000000E+00 0. -1.
          1    1    1    2  501    0  0.26041187471E+02 -0.19566412693E+02 -0.11631672921E+01  0.32593571586E+02  0.00000000000E+00 0. -1.
<scales pt_clust_5="13000.00000" pt_clust_6="13000.00000" pt_clust_7="13000.00000" pt_clust_8="13000.00000" pt_clust_9="32.57281"></scales>
<clustering>
<clus scale="   32.573">  1  9  2 -1</clus>
<clus scale="   91.206">  7  8 -1 -1</clus>
<clus scale="   92.007">  5  6 -1 -1</clus>
<clus scale="  110.159">  1  7  2 -1</clus>
<clus scale="   32.573">  1  5  2 -1</clus>
</clustering>
</event>
<event>
 9    1  0.1610296E-005  0.1028607E+03  0.7546771E-02  0.1275929E+00
         21   -1    0    0  501  502  0.00000000000E+00  0.00000000000E+00  0.38711341298E+03  0.38711341298E+03  0.00000000000E+00 0. -1.
         -1   -1    0    0    0  501 -0.00000000000E+00 -0.00000000000E+00 -0.62413379159E+02  0.62413379159E+02  0.00000000000E+00 0.  1.
         23    2    1    2    0    0  0.41441786078E+02 -0.12284385628E+01  0.71195505403E+01  0.99559110417E+02  0.90235235759E+02 0.  0.
         23    2    1    2    0    0 -0.45384027713E+02  0.25075914867E+02  0.17302960454E+03  0.20340984352E+03  0.93529722089E+02 0.  0.
        -11    1    3    3    0    0  0.28863114990E+02 -0.42243959440E+02  0.19742268740E+02  0.54839663485E+02  0.00000000000E+00 0.  1.
         11    1    3    3    0    0  0.12578671089E+02  0.41015520877E+02 -0.12622718199E+02  0.44719446932E+02  0.00000000000E+00 0. -1.
        -13    1    4    4    0    0  0.20436968268E+02  0.27389185541E+02  0.96874615619E+02  0.10272549979E+03  0.00000000000E+00 0. -1.
         13    1    4    4    0    0 -0.65820995981E+02 -0.23132706742E+01  0.76154988921E+02  0.10068434372E+03  0.00000000000E+00 0.  1.
         -1    1    1    2    0  502  0.39422416348E+01 -0.23847476304E+02  0.14455087874E+03  0.14655783820E+03  0.00000000000E+00 0.  1.
<scales pt_clust_5="13000.00000" pt_clust_6="13000.00000" pt_clust_7="13000.00000" pt_clust_8="13000.00000" pt_clust_9="24.17113"></scales>
<clustering>
<clus scale="   24.171">  1  9  2 -1</clus>
<clus scale="   90.235">  5  6 -1 -1</clus>
<clus scale="   93.530">  7  8 -1 -1</clus>
<clus scale="   99.874">  2  5  1 -1</clus>
<clus scale="   24.171">  1  5  2 -1</clus>
</clustering>
</event>
<event>
 9    1  0.1610296E-005  0.1174868E+03  0.7546771E-02  0.1250884E+00
          1   -1    0    0  502    0 -0.00000000000E+00  0.00000000000E+00  0.42328849892E+03  0.42328849892E+03  0.00000000000E+00 0. -1.
         21   -1    0    0  501  502  0.00000000000E+00 -0.00000000000E+00 -0.68986870404E+02  0.68986870404E+02  0.00000000000E+00 0. -1.
         23    2    1    2    0    0 -0.89507355937E+00 -0.10340595771E+03  0.24152540287E+03  0.28052099706E+03  0.98305220177E+02 0.  0.
         23    2    1    2    0    0  0.14224416803E+01  0.27100150117E+02  0.96606309318E+02  0.13375231727E+03  0.88433375479E+02 0.  0.
        -11    1    4    4    0    0  0.24326133964E+02 -0.10394316645E+02 -0.12518018425E+01  0.26483383847E+02  0.00000000000E+00 0. -1.
         11    1    4    4    0    0 -0.22903692283E+02  0.37494466762E+02  0.97858111161E+02  0.10726893342E+03  0.00000000000E+00 0.  1.
        -13    1    3    3    0    0 -0.28655891339E+02 -0.63342844826E+02  0.57713922818E+02  0.90356919968E+02  0.00000000000E+00 0.  1.
         13    1    3    3    0    0  0.27760817780E+02 -0.40063112884E+02  0.18381148005E+03  0.19016407709E+03  0.00000000000E+00 0. -1.
          1    1    1    2  501    0 -0.52736812095E+00  0.76305807593E+02  0.16169916335E+02  0.78002054998E+02  0.00000000000E+00 0. -1.
<scales pt_clust_5="13000.00000" pt_clust_6="13000.00000" pt_clust_7="13000.00000" pt_clust_8="13000.00000" pt_clust_9="76.30763"></scales>
<clustering>
<clus scale="   76.308">  2  9  1 -1</clus>
<clus scale="   88.433">  5  6 -1 -1</clus>
<clus scale="   98.305">  7  8 -1 -1</clus>
<clus scale="  109.360">  2  5  1 -1</clus>
<clus scale="   76.308">  2  5  1 -1</clus>
</clustering>
</event>
<event>
 9    1  0.1610296E-005  0.1048463E+03  0.7546771E-02  0.1272243E+00
          1   -1    0    0  502    0 -0.00000000000E+00  0.00000000000E+00  0.39893736553E+03  0.39893736553E+03  0.00000000000E+00 0. -1.
         21   -1    0    0  501  502  0.00000000000E+00 -0.00000000000E+00 -0.67939318915E+02  0.67939318915E+02  0.00000000000E+00 0.  1.
         23    2    1    2    0    0 -0.45107261223E+02  0.53124656477E+01  0.22442460426E+03  0.24754220883E+03  0.94063036546E+02 0.  0.
         23    2    1    2    0    0  0.47369074602E+02  0.20546391207E+02  0.14171487425E+03  0.17564561532E+03  0.90012738977E+02 0.  0.
        -11    1    4    4    0    0 -0.20927514291E+02  0.26998982676E+02  0.59097072384E+02  0.68259577235E+02  0.00000000000E+00 0.  1.
         11    1    4    4    0    0  0.68296588893E+02 -0.64525914683E+01  0.82617801866E+02  0.10738603809E+03  0.00000000000E+00 0. -1.
        -13    1    3    3    0    0 -0.29851698423E+02 -0.34419608585E+02  0.18135951844E+03  0.18699494187E+03  0.00000000000E+00 0. -1.
         13    1    3    3    0    0 -0.15255562801E+02  0.39732074233E+02  0.43065085820E+02  0.60547266957E+02  0.00000000000E+00 0.  1.
          1    1    1    2  501    0 -0.22618133787E+01 -0.25858856855E+02 -0.35141431902E+02  0.43688860294E+02  0.00000000000E+00 0. -1.
<scales pt_clust_5="13000.00000" pt_clust_6="13000.00000" pt_clust_7="13000.00000" pt_clust_8="13000.00000" pt_clust_9="25.95759"></scales>
<clustering>
<clus scale="   25.958">  2  9  1 -1</clus>
<clus scale="   90.013">  5  6 -1 -1</clus>
<clus scale="   94.063">  7  8 -1 -1</clus>
<clus scale="  101.228">  2  5  1 -1</clus>
<clus scale="   25.958">  2  5  1 -1</clus>
</clustering>
</event>
<event>
 9    1  0.1610296E-005  0.1022770E+03  0.7546771E-02  0.1276559E+00
         21   -1    0    0  501  502  0.00000000000E+00  0.00000000000E+00  0.20849670001E+02  0.20849670001E+02  0.00000000000E+00 0.  1.
          1   -1    0    0  502    0 -0.00000000000E+00 -0.00000000000E+00 -0.75707634230E+03  0.75707634230E+03  0.00000000000E+00 0. -1.
         23    2    1    2    0    0  0.78053574897E+01  0.36701825518E+02 -0.40185248410E+03  0.41326455178E+03  0.88849441089E+02 0.  0.
         23    2    1    2    0    0 -0.20678382532E+02 -0.58636997610E+02 -0.31162514422E+03  0.33053836642E+03  0.90991692897E+02 0.  0.
        -11    1    4    4    0    0 -0.54488532736E+02 -0.28379481972E+02 -0.13753734040E+03  0.15063503975E+03  0.00000000000E+00 0.  1.
         11    1    4    4    0    0  0.33810150204E+02 -0.30257515638E+02 -0.17408780382E+03  0.17990332667E+03  0.00000000000E+00 0. -1.
        -11    1    3    3    0    0 -0.38481221692E+02  0.54164731118E+01 -0.12789372698E+03  0.13366730342E+03  0.00000000000E+00 0.  1.
         11    1    3    3    0    0  0.46286579182E+02  0.31285352406E+02 -0.27395875712E+03  0.27959724836E+03  0.00000000000E+00 0. -1.
          1    1    1    2  501    0  0.12873025042E+02  0.21935172092E+02 -0.22749043982E+02  0.34123094094E+02  0.00000000000E+00 0. -1.
<scales pt_clust_5="13000.00000" pt_clust_6="13000.00000" pt_clust_7="13000.00000" pt_clust_8="13000.00000" pt_clust_9="25.43357"></scales>
<clustering>
<clus scale="   25.434">  1  9  2 -1</clus>
<clus scale="   88.849">  7  8 -1 -1</clus>
<clus scale="   90.992">  5  6 -1 -1</clus>
<clus scale="  100.376">  2  7  1 -1</clus>
<clus scale="   25.434">  1  5  2 -1</clus>
</clustering>
</event>
<event>
 9    1  0.1610296E-005  0.1061061E+03  0.7546771E-02  0.1268103E+00
         -4   -1    0    0    0  501 -0.00000000000E+00  0.00000000000E+00  0.26578517422E+03  0.26578517422E+03  0.00000000000E+00 0.  1.
         21   -1    0    0  501  502  0.00000000000E+00 -0.00000000000E+00 -0.65064426180E+02  0.65064426180E+02  0.00000000000E+00 0. -1.
         23    2    1    2    0    0 -0.49731189034E+02  0.49815177752E+02  0.13581284016E+03  0.17776222488E+03  0.90551300063E+02 0.  0.
         23    2    1    2    0    0  0.27151533253E+02 -0.14904389467E+02  0.36529477281E+02  0.10274912648E+03  0.90904530680E+02 0.  0.
        -11    1    3    3    0    0 -0.18188435708E+02 -0.16834994419E+02  0.18578455871E+01  0.24853326152E+02  0.00000000000E+00 0.  1.
         11    1    3    3    0    0 -0.31542753326E+02  0.66650172171E+02  0.13395499457E+03  0.15290889872E+03  0.00000000000E+00 0. -1.
        -11    1    4    4    0    0  0.17244711488E+02 -0.50638649757E+02  0.38032940676E+02  0.65636556125E+02  0.00000000000E+00 0.  1.
         11    1    4    4    0    0  0.99068217647E+01  0.35734260290E+02 -0.15034633946E+01  0.37112570352E+02  0.00000000000E+00 0. -1.
         -4    1    1    2    0  502  0.22579655781E+02 -0.34910788286E+02  0.28378430600E+02  0.50338249048E+02  0.00000000000E+00 0.  1.
<scales pt_clust_5="13000.00000" pt_clust_6="13000.00000" pt_clust_7="13000.00000" pt_clust_8="13000.00000" pt_clust_9="41.57648"></scales>
<clustering>
<clus scale="   41.576">  2  9  1 -1</clus>
<clus scale="   90.551">  5  6 -1 -1</clus>
<clus scale="   90.905">  7  8 -1 -1</clus>
<clus scale="  105.804">  1  5  2 -1</clus>
<clus scale="   41.576">  2  5  1 -1</clus>
</clustering>
</event>
<event>
 9    1  0.1610296E-005  0.9755858E+02  0.7546771E-02  0.1286235E+00
         21   -1    0    0  501  502  0.00000000000E+00  0.00000000000E+00  0.18760280435E+03  0.18760280435E+03  0.00000000000E+00 0.  1.
         -4   -1    0    0    0  501 -0.00000000000E+00 -0.00000000000E+00 -0.29960786853E+03  0.29960786853E+03  0.00000000000E+00 0.  1.
         23    2    1    2    0    0  0.24397405048E+02 -0.22298275430E+02 -0.22191286247E+03  0.24301426403E+03  0.93371127959E+02 0.  0.
         23    2    1    2    0    0  0.80553823353E+01  0.24028482319E+02 -0.30420162009E+02  0.10015435434E+03  0.91995930832E+02 0.  0.
        -11    1    4    4    0    0 -0.41578381764E+02  0.18334925290E+02 -0.15564626711E+02  0.48033206432E+02  0.00000000000E+00 0. -1.
         11    1    4    4    0    0  0.49633764099E+02  0.56935570283E+01 -0.14855535298E+02  0.52121147908E+02  0.00000000000E+00 0.  1.
        -11    1    3    3    0    0  0.59946550187E+02 -0.20466864793E+02 -0.14745441855E+03  0.16048453815E+03  0.00000000000E+00 0.  1.
         11    1    3    3    0    0 -0.35549145139E+02 -0.18314106364E+01 -0.74458443912E+02  0.82529725886E+02  0.00000000000E+00 0. -1.
         -4    1    1    2    0  502 -0.32452787383E+02 -0.17302068889E+01  0.14032796030E+03  0.14404205451E+03  0.00000000000E+00 0.  1.
<scales pt_clust_5="13000.00000" pt_clust_6="13000.00000" pt_clust_7="13000.00000" pt_clust_8="13000.00000" pt_clust_9="32.49888"></scales>
<clustering>
<clus scale="   32.499">  1  9  2 -1</clus>
<clus scale="   91.996">  5  6 -1 -1</clus>
<clus scale="   93.371">  7  8 -1 -1</clus>
<clus scale="   96.243">  1  5  2 -1</clus>
<clus scale="   32.499">  1  5  2 -1</clus>
</clustering>
</event>
<event>
 9    1  0.1610296E-005  0.2746564E+03  0.7546771E-02  0.1098700E+00
          2   -1    0    0  502    0 -0.00000000000E+00  0.00000000000E+00  0.85936186596E+03  0.85936186596E+03  0.00000000000E+00 0. -1.
         21   -1    0    0  501  502  0.00000000000E+00 -0.00000000000E+00 -0.78293494652E+03  0.78293494652E+03  0.00000000000E+00 0.  1.
         23    2    1    2    0    0 -0.18761459875E+03 -0.16807915911E+03  0.72079901276E+03  0.76913973038E+03  0.92600575910E+02 0.  0.
         23    2    1    2    0    0  0.35502795826E+03  0.17876966330E+03 -0.36527116580E+03  0.54752101598E+03  0.91393625118E+02 0.  0.
        -11    1    4    4    0    0  0.99280343319E+02  0.37920883935E+02 -0.15408518365E+03  0.18718125929E+03  0.00000000000E+00 0.  1.
         11    1    4    4    0    0  0.25574761494E+03  0.14084877936E+03 -0.21118598215E+03  0.36033975669E+03  0.00000000000E+00 0. -1.
        -11    1    3    3    0    0 -0.41288650235E+02  0.39895695744E+01  0.13805238594E+03  0.14414968112E+03  0.00000000000E+00 0.  1.
         11    1    3    3    0    0 -0.14632594852E+03 -0.17206872868E+03  0.58274662682E+03  0.62499004926E+03  0.00000000000E+00 0. -1.
          2    1    1    2  501    0 -0.16741335950E+03 -0.10690504187E+02 -0.27910092751E+03  0.32563606612E+03  0.00000000000E+00 0. -1.
<scales pt_clust_5="13000.00000" pt_clust_6="13000.00000" pt_clust_7="13000.00000" pt_clust_8="13000.00000" pt_clust_9="167.75434"></scales>
<clustering>
<clus scale="   91.394">  5  6 -1 -1</clus>
<clus scale="   92.601">  7  8 -1 -1</clus>
<clus scale="  167.754">  2  9  1 -1</clus>
<clus scale="  274.252">  2  5  1 -1</clus>
<clus scale="  167.754">  2  5  1 -1</clus>
</clustering>
</event>
<event>
 9    1  0.1610296E-005  0.9497946E+02  0.7546771E-02  0.1292017E+00
         21   -1    0    0  501  502  0.00000000000E+00  0.00000000000E+00  0.16738794734E+03  0.16738794734E+03  0.00000000000E+00 0.  1.
         -3   -1    0    0    0  501 -0.00000000000E+00 -0.00000000000E+00 -0.25908205954E+03  0.25908205954E+03  0.00000000000E+00 0.  1.
         23    2    1    2    0    0  0.11414964210E+02 -0.68349467800E+01 -0.13548626648E+03  0.16402575130E+03  0.91492626918E+02 0.  0.
         23    2    1    2    0    0 -0.14645580558E+02  0.49606031142E+02 -0.80225676584E+02  0.13121840100E+03  0.90038093167E+02 0.  0.
        -11    1    3    3    0    0 -0.20075912042E+02  0.92971218683E+01  0.18532970813E+01  0.22201653755E+02  0.00000000000E+00 0. -1.
         11    1    3    3    0    0  0.31490876253E+02 -0.16132068648E+02 -0.13733956356E+03  0.14182409755E+03  0.00000000000E+00 0.  1.
        -13    1    4    4    0    0 -0.13419256236E+02  0.75745267162E+02 -0.66420198058E+02  0.10163200601E+03  0.00000000000E+00 0.  1.
         13    1    4    4    0    0 -0.12263243227E+01 -0.26139236020E+02 -0.13805478526E+02  0.29586394988E+02  0.00000000000E+00 0. -1.
         -3    1    1    2    0  502  0.32306163484E+01 -0.42771084362E+02  0.12401783086E+03  0.13122585458E+03  0.00000000000E+00 0.  1.
<scales pt_clust_5="13000.00000" pt_clust_6="13000.00000" pt_clust_7="13000.00000" pt_clust_8="13000.00000" pt_clust_9="42.89292"></scales>
<clustering>
<clus scale="   42.893">  1  9  2 -1</clus>
<clus scale="   90.038">  7  8 -1 -1</clus>
<clus scale="   91.493">  5  6 -1 -1</clus>
<clus scale="   93.579">  1  7  2 -1</clus>
<clus scale="   42.893">  1  5  2 -1</clus>
</clustering>
</event>
<event>
 9    1  0.1610296E-005  0.9858013E+02  0.7546771E-02  0.1285751E+00
          2   -1    0    0  502    0 -0.00000000000E+00  0.00000000000E+00  0.64333031837E+03  0.64333031837E+03  0.00000000000E+00 0. -1.
         21   -1    0    0  501  502  0.00000000000E+00 -0.00000000000E+00 -0.29034864017E+02  0.29034864017E+02  0.00000000000E+00 0.  1.
         23    2    1    2    0    0 -0.33531849830E+02 -0.26972320806E+02  0.44362899511E+03  0.45409844030E+03  0.86872418773E+02 0.  0.
         23    2    1    2    0    0  0.21821438487E+02  0.46352448252E+01  0.16829472612E+03  0.19293486858E+03  0.91668358787E+02 0.  0.
        -13    1    3    3    0    0 -0.38223546025E+02  0.24058203916E+02  0.18416821384E+03  0.18962533489E+03  0.00000000000E+00 0. -1.
         13    1    3    3    0    0  0.46916961955E+01 -0.51030524722E+02  0.25946078127E+03  0.26447310541E+03  0.00000000000E+00 0.  1.
        -13    1    4    4    0    0 -0.35867256868E+02  0.71060141109E+01  0.67927148473E+02  0.77143068720E+02  0.00000000000E+00 0.  1.
         13    1    4    4    0    0  0.57688695355E+02 -0.24707692857E+01  0.10036757765E+03  0.11579179986E+03  0.00000000000E+00 0. -1.
          2    1    1    2  501    0  0.11710411343E+02  0.22337075981E+02  0.23717331285E+01  0.25331873504E+02  0.00000000000E+00 0. -1.
<scales pt_clust_5="13000.00000" pt_clust_6="13000.00000" pt_clust_7="13000.00000" pt_clust_8="13000.00000" pt_clust_9="25.22060"></scales>
<clustering>
<clus scale="   25.221">  2  9  1 -1</clus>
<clus scale="   86.872">  5  6 -1 -1</clus>
<clus scale="   91.668">  7  8 -1 -1</clus>
<clus scale="   94.137">  1  5  2 -1</clus>
<clus scale="   25.221">  2  5  1 -1</clus>
</clustering>
</event>
<event>
 9    1  0.1610296E-005  0.9734709E+02  0.7546771E-02  0.1286170E+00
         21   -1    0    0  501  502  0.00000000000E+00  0.00000000000E+00  0.14080145652E+03  0.14080145652E+03  0.00000000000E+00 0.  1.
          3   -1    0    0  502    0 -0.00000000000E+00 -0.00000000000E+00 -0.97458865613E+02  0.97458865613E+02  0.00000000000E+00 0. -1.
         23    2    1    2    0    0 -0.18346569108E+02  0.11985791893E+02  0.13216835438E+02  0.94875349752E+02  0.91358587152E+02 0.  0.
         23    2    1    2    0    0  0.32230271427E+02 -0.39294053543E+02  0.39346357396E+02  0.11139250695E+03  0.90979897360E+02 0.  0.
        -11    1    3    3    0    0 -0.39335820584E+02 -0.69885086500E+01  0.39554310012E+02  0.56220009558E+02  0.00000000000E+00 0.  1.
         11    1    3    3    0    0  0.20989251476E+02  0.18974300543E+02 -0.26337474574E+02  0.38655340195E+02  0.00000000000E+00 0. -1.
        -13    1    4    4    0    0  0.12563834130E+02  0.20432835425E+02  0.42096877598E+02  0.48450983427E+02  0.00000000000E+00 0. -1.
         13    1    4    4    0    0  0.19666437298E+02 -0.59726888968E+02 -0.27505202020E+01  0.62941523521E+02  0.00000000000E+00 0.  1.
          3    1    1    2  501    0 -0.13883702320E+02  0.27308261650E+02 -0.92206019282E+01  0.31992465431E+02  0.00000000000E+00 0. -1.
<scales pt_clust_5="13000.00000" pt_clust_6="13000.00000" pt_clust_7="13000.00000" pt_clust_8="13000.00000" pt_clust_9="30.63494"></scales>
<clustering>
<clus scale="   30.635">  1  9  2 -1</clus>
<clus scale="   90.980">  7  8 -1 -1</clus>
<clus scale="   91.359">  5  6 -1 -1</clus>
<clus scale="   96.992">  1  7  2 -1</clus>
<clus scale="   30.635">  1  5  2 -1</clus>
</clustering>
</event>
<event>
 9    1  0.1610296E-005  0.1155434E+03  0.7546771E-02  0.1252547E+00
         -1   -1    0    0    0  501 -0.00000000000E+00  0.00000000000E+00  0.14464300472E+03  0.14464300472E+03  0.00000000000E+00 0.  1.
         21   -1    0    0  501  502  0.00000000000E+00 -0.00000000000E+00 -0.35281757689E+03  0.35281757689E+03  0.00000000000E+00 0.  1.
         23    2    1    2    0    0  0.36805925340E+02 -0.52228740590E+02  0.89798395509E+02  0.14561297322E+03  0.95167581934E+02 0.  0.
         23    2    1    2    0    0 -0.61463046169E+02  0.45439906006E+02 -0.10733498577E+03  0.15950182073E+03  0.89875138631E+02 0.  0.
        -11    1    4    4    0    0 -0.70644890932E+02  0.17706204614E+02 -0.33632740683E+02  0.80220767526E+02  0.00000000000E+00 0. -1.
         11    1    4    4    0    0  0.91818447637E+01  0.27733701393E+02 -0.73702245090E+02  0.79281053206E+02  0.00000000000E+00 0.  1.
        -11    1    3    3    0    0  0.61184527031E+02 -0.77261839938E+01  0.63273550322E+02  0.88355998310E+02  0.00000000000E+00 0.  1.
         11    1    3    3    0    0 -0.24378601691E+02 -0.44502556596E+02  0.26524845188E+02  0.57256974913E+02  0.00000000000E+00 0. -1.
         -1    1    1    2    0  502  0.24657120829E+02  0.67888345837E+01 -0.19063798191E+03  0.19234578766E+03  0.00000000000E+00 0.  1.
<scales pt_clust_5="13000.00000" pt_clust_6="13000.00000" pt_clust_7="13000.00000" pt_clust_8="13000.00000" pt_clust_9="25.57463"></scales>
<clustering>
<clus scale="   25.575">  2  9  1 -1</clus>
<clus scale="   89.875">  5  6 -1 -1</clus>
<clus scale="   95.168">  7  8 -1 -1</clus>
<clus scale="  111.225">  2  5  1 -1</clus>
<clus scale="   25.575">  2  5  1 -1</clus>
</clustering>
</event>
<event>
 9    1  0.1610296E-005  0.9847987E+02  0.7546771E-02  0.1283800E+00
          1   -1    0    0  502    0 -0.00000000000E+00  0.00000000000E+00  0.58689900628E+03  0.58689900628E+03  0.00000000000E+00 0. -1.
         21   -1    0    0  501  502  0.00000000000E+00 -0.00000000000E+00 -0.42959695189E+02  0.42959695189E+02  0.00000000000E+00 0.  1.
         23    2    1    2    0    0 -0.11816741473E+02  0.25428444084E+02  0.45186935833E+03  0.46224919542E+03  0.93285371405E+02 0.  0.
         23    2    1    2    0    0  0.32960131739E+02 -0.43925840850E+02  0.54740602507E+02  0.12089037689E+03  0.92747506078E+02 0.  0.
        -11    1    3    3    0    0 -0.32841569024E+02  0.52579589406E+02  0.25653217549E+03  0.26391653783E+03  0.00000000000E+00 0.  1.
         11    1    3    3    0    0  0.21024827551E+02 -0.27151145322E+02  0.19533718285E+03  0.19833265759E+03  0.00000000000E+00 0. -1.
        -13    1    4    4    0    0  0.68943357656E+01  0.19854963691E+02 -0.12633783989E+02  0.24522723069E+02  0.00000000000E+00 0.  1.
         13    1    4    4    0    0  0.26065795973E+02 -0.63780804541E+02  0.67374386496E+02  0.96367653823E+02  0.00000000000E+00 0. -1.
          1    1    1    2  501    0 -0.21143390266E+02  0.18497396766E+02  0.37329350252E+02  0.46719129158E+02  0.00000000000E+00 0. -1.
<scales pt_clust_5="13000.00000" pt_clust_6="13000.00000" pt_clust_7="13000.00000" pt_clust_8="13000.00000" pt_clust_9="28.09264"></scales>
<clustering>
<clus scale="   28.093">  2  9  1 -1</clus>
<clus scale="   92.748">  7  8 -1 -1</clus>
<clus scale="   93.285">  5  6 -1 -1</clus>
<clus scale="   97.971">  2  7  1 -1</clus>
<clus scale="   28.093">  2  5  1 -1</clus>
</clustering>
</event>
<event>
 9    1  0.1610296E-005  0.9783866E+02  0.7546771E-02  0.1286521E+00
         21   -1    0    0  501  502  0.00000000000E+00  0.00000000000E+00  0.49096465498E+02  0.49096465498E+02  0.00000000000E+00 0.  1.
          2   -1    0    0  502    0 -0.00000000000E+00 -0.00000000000E+00 -0.51151843880E+03  0.51151843880E+03  0.00000000000E+00 0. -1.
         23    2    1    2    0    0 -0.24949197755E+02  0.67704540286E+01 -0.33587560455E+03  0.34927800359E+03  0.92273509439E+02 0.  0.
         23    2    1    2    0    0  0.33742140024E+02 -0.57293821627E+02 -0.11242675564E+03  0.15814583020E+03  0.89158365938E+02 0.  0.
        -11    1    3    3    0    0  0.29652440443E+02  0.21967887302E+01 -0.49790301994E+02  0.57992820914E+02  0.00000000000E+00 0.  1.
         11    1    3    3    0    0 -0.54601638198E+02  0.45736652984E+01 -0.28608530256E+03  0.29128518268E+03  0.00000000000E+00 0. -1.
        -13    1    4    4    0    0 -0.26583290736E+02 -0.40759429855E+02 -0.48168070108E+02  0.68470179249E+02  0.00000000000E+00 0. -1.
         13    1    4    4    0    0  0.60325430760E+02 -0.16534391773E+02 -0.64258685533E+02  0.89675650955E+02  0.00000000000E+00 0.  1.
          2    1    1    2  501    0 -0.87929422690E+01  0.50523367599E+02 -0.14119613115E+02  0.53191070508E+02  0.00000000000E+00 0. -1.
<scales pt_clust_5="13000.00000" pt_clust_6="13000.00000" pt_clust_7="13000.00000" pt_clust_8="13000.00000" pt_clust_9="51.28281"></scales>
<clustering>
<clus scale="   51.283">  1  9  2 -1</clus>
<clus scale="   89.158">  7  8 -1 -1</clus>
<clus scale="   92.274">  5  6 -1 -1</clus>
<clus scale="   94.906">  1  7  2 -1</clus>
<clus scale="   51.283">  1  5  2 -1</clus>
</clustering>
</event>
<event>
 9    1  0.1610296E-005  0.1610710E+03  0.7546771E-02  0.1187616E+00
          1   -1    0    0  502    0 -0.00000000000E+00  0.00000000000E+00  0.72877890917E+03  0.72877890917E+03  0.00000000000E+00 0. -1.
         21   -1    0    0  501  502  0.00000000000E+00 -0.00000000000E+00 -0.43170143245E+02  0.43170143245E+02  0.00000000000E+00 0. -1.
         23    2    1    2    0    0  0.65609706314E+02  0.10784372896E+03  0.36544880233E+03  0.39763644749E+03  0.92881719502E+02 0.  0.
         23    2    1    2    0    0 -0.52461236575E+02 -0.13023433023E+03  0.27973654188E+03  0.32626810154E+03  0.92115031918E+02 0.  0.
        -11    1    3    3    0    0  0.88418821733E+02  0.96862370622E+02  0.29750574121E+03  0.32513054752E+03  0.00000000000E+00 0.  1.
         11    1    3    3    0    0 -0.22809115420E+02  0.10981358333E+02  0.67943061119E+02  0.72505899975E+02  0.00000000000E+00 0. -1.
        -13    1    4    4    0    0 -0.15930400407E+02 -0.12674525019E+03  0.18635135839E+03  0.22593132779E+03  0.00000000000E+00 0. -1.
         13    1    4    4    0    0 -0.36530836168E+02 -0.34890800365E+01  0.93385183491E+02  0.10033677375E+03  0.00000000000E+00 0.  1.
          1    1    1    2  501    0 -0.13148469739E+02  0.22390601273E+02  0.40423421716E+02  0.48044503380E+02  0.00000000000E+00 0. -1.
<scales pt_clust_5="13000.00000" pt_clust_6="13000.00000" pt_clust_7="13000.00000" pt_clust_8="13000.00000" pt_clust_9="25.96577"></scales>
<clustering>
<clus scale="   25.966">  2  9  1 -1</clus>
<clus scale="   92.115">  7  8 -1 -1</clus>
<clus scale="   92.882">  5  6 -1 -1</clus>
<clus scale="  160.630">  2  7  1 -1</clus>
<clus scale="   25.966">  2  5  1 -1</clus>
</clustering>
</event>
<event>
 9    1  0.1610296E-005  0.9308208E+02  0.7546771E-02  0.1301889E+00
         21   -1    0    0  501  502  0.00000000000E+00  0.00000000000E+00  0.21359807516E+03  0.21359807516E+03  0.00000000000E+00 0. -1.
          3   -1    0    0  502    0 -0.00000000000E+00 -0.00000000000E+00 -0.57025344874E+02  0.57025344874E+02  0.00000000000E+00 0. -1.
         23    2    1    2    0    0 -0.11513100289E+02 -0.15594615052E+02  0.34333532107E+02  0.10083903287E+03  0.92811505899E+02 0.  0.
         23    2    1    2    0    0 -0.54302061768E+00 -0.13863730240E+02  0.72335388510E+02  0.11059372592E+03  0.82498884199E+02 0.  0.
        -13    1    4    4    0    0 -0.19873503659E+02  0.19854124535E+02 -0.43460409298E+00  0.28095040300E+02  0.00000000000E+00 0.  1.
         13    1    4    4    0    0  0.19330483042E+02 -0.33717854775E+02  0.72769992603E+02  0.82498685618E+02  0.00000000000E+00 0. -1.
        -13    1    3    3    0    0 -0.16399183855E+02  0.25780832312E+02  0.48079644483E+02  0.56966979553E+02  0.00000000000E+00 0.  1.
         13    1    3    3    0    0  0.48860835661E+01 -0.41375447364E+02 -0.13746112376E+02  0.43872053321E+02  0.00000000000E+00 0. -1.
          3    1    1    2  501    0  0.12056120906E+02  0.29458345291E+02  0.49903809667E+02  0.59190661239E+02  0.00000000000E+00 0. -1.
<scales pt_clust_5="13000.00000" pt_clust_6="13000.00000" pt_clust_7="13000.00000" pt_clust_8="13000.00000" pt_clust_9="31.82993"></scales>
<clustering>
<clus scale="   31.830">  1  9  2 -1</clus>
<clus scale="   82.499">  5  6 -1 -1</clus>
<clus scale="   82.803">  1  5  2 -1</clus>
<clus scale="   92.812">  7  8 -1 -1</clus>
<clus scale="   31.830">  1  5  2 -1</clus>
</clustering>
</event>
<event>
 9    1  0.1610296E-005  0.1512097E+03  0.7546771E-02  0.1199240E+00
         21   -1    0    0  501  502  0.00000000000E+00  0.00000000000E+00  0.16100394069E+03  0.16100394069E+03  0.00000000000E+00 0.  1.
          2   -1    0    0  502    0 -0.00000000000E+00 -0.00000000000E+00 -0.26284124999E+03  0.26284124999E+03  0.00000000000E+00 0. -1.
         23    2    1    2    0    0  0.52914553829E+02 -0.91814673809E+02 -0.89163329771E+02  0.16563885796E+03  0.90863895780E+02 0.  0.
         23    2    1    2    0    0 -0.60129661202E+02  0.12892843134E+03 -0.75989981918E+02  0.18446079095E+03  0.89516420182E+02 0.  0.
        -13    1    4    4    0    0 -0.40087663573E+02  0.11856866049E+03 -0.23529353439E+02  0.12735453857E+03  0.00000000000E+00 0. -1.
         13    1    4    4    0    0 -0.20041997629E+02  0.10359770856E+02 -0.52460628479E+02  0.57106252386E+02  0.00000000000E+00 0.  1.
        -13    1    3    3    0    0  0.23650413220E+02 -0.41583315976E+02  0.11675675587E+02  0.49242619888E+02  0.00000000000E+00 0.  1.
         13    1    3    3    0    0  0.29264140609E+02 -0.50231357833E+02 -0.10083900536E+03  0.11639623807E+03  0.00000000000E+00 0. -1.
          2    1    1    2  501    0  0.72151073731E+01 -0.37113757533E+02  0.63316002385E+02  0.73745541768E+02  0.00000000000E+00 0. -1.
<scales pt_clust_5="13000.00000" pt_clust_6="13000.00000" pt_clust_7="13000.00000" pt_clust_8="13000.00000" pt_clust_9="37.80858"></scales>
<clustering>
<clus scale="   37.809">  1  9  2 -1</clus>
<clus scale="   89.516">  5  6 -1 -1</clus>
<clus scale="   90.864">  7  8 -1 -1</clus>
<clus scale="  150.404">  1  5  2 -1</clus>
<clus scale="   37.809">  1  5  2 -1</clus>
</clustering>
</event>
<event>
 9    1  0.1610296E-005  0.1145266E+03  0.7546771E-02  0.1264387E+00
         21   -1    0    0  501  502  0.00000000000E+00  0.00000000000E+00  0.22751930803E+03  0.22751930803E+03  0.00000000000E+00 0.  1.
         -2   -1    0    0    0  501 -0.00000000000E+00 -0.00000000000E+00 -0.13004143511E+03  0.13004143511E+03  0.00000000000E+00 0.  1.
         23    2    1    2    0    0 -0.78544043567E+02  0.41871002464E+02 -0.58478466339E+02  0.14019726549E+03  0.91176721807E+02 0.  0.
         23    2    1    2    0    0  0.10688254304E+02 -0.47938646353E+02  0.48843108026E+02  0.90420700215E+02  0.58119714655E+02 0.  0.
        -13    1    3    3    0    0 -0.97822492559E+02  0.30300985706E+02 -0.58034692416E+02  0.11770902815E+03  0.00000000000E+00 0.  1.
         13    1    3    3    0    0  0.19278448993E+02  0.11570016758E+02 -0.44377392370E+00  0.22488237340E+02  0.00000000000E+00 0. -1.
        -13    1    4    4    0    0 -0.19939960271E+02 -0.38504670733E+02  0.22038307761E+02  0.48640504652E+02  0.00000000000E+00 0.  1.
         13    1    4    4    0    0  0.30628214574E+02 -0.94339756198E+01  0.26804800265E+02  0.41780195563E+02  0.00000000000E+00 0. -1.
         -2    1    1    2    0  502  0.67855789263E+02  0.60676438891E+01  0.10711323123E+03  0.12694277744E+03  0.00000000000E+00 0.  1.
<scales pt_clust_5="13000.00000" pt_clust_6="13000.00000" pt_clust_7="13000.00000" pt_clust_8="13000.00000" pt_clust_9="68.12653"></scales>
<clustering>
<clus scale="   58.120">  7  8 -1 -1</clus>
<clus scale="   68.127">  1  9  2 -1</clus>
<clus scale="   90.449">  1  7  2 -1</clus>
<clus scale="   91.177">  5  6 -1 -1</clus>
<clus scale="   68.127">  1  5  2 -1</clus>
</clustering>
</event>
<event>
 9    1  0.1610296E-005  0.1228292E+03  0.7546771E-02  0.1239326E+00
         -1   -1    0    0    0  501 -0.00000000000E+00  0.00000000000E+00  0.78048526355E+03  0.78048526355E+03  0.00000000000E+00 0.  1.
         21   -1    0    0  501  502  0.00000000000E+00 -0.00000000000E+00 -0.65155775431E+02  0.65155775431E+02  0.00000000000E+00 0.  1.
         23    2    1    2    0    0 -0.70822386115E+02 -0.62741204662E+02  0.59719308566E+03  0.61129260837E+03  0.89926649797E+02 0.  0.
         23    2    1    2    0    0  0.48046814599E+02  0.13783216812E+02  0.14078573913E+03  0.17579415080E+03  0.92652499447E+02 0.  0.
        -11    1    3    3    0    0 -0.16943362906E+02  0.22677839125E+02  0.16872439111E+03  0.17108267618E+03  0.00000000000E+00 0. -1.
         11    1    3    3    0    0 -0.53879023209E+02 -0.85419043787E+02  0.42846869455E+03  0.44020993219E+03  0.00000000000E+00 0.  1.
        -13    1    4    4    0    0 -0.18506924612E+02 -0.12519704499E+02  0.59149802000E+01  0.23113551222E+02  0.00000000000E+00 0.  1.
         13    1    4    4    0    0  0.66553739212E+02  0.26302921311E+02  0.13487075893E+03  0.15268059958E+03  0.00000000000E+00 0. -1.
         -1    1    1    2    0  502  0.22775571516E+02  0.48957987851E+02 -0.22649336678E+02  0.58554279811E+02  0.00000000000E+00 0.  1.
<scales pt_clust_5="13000.00000" pt_clust_6="13000.00000" pt_clust_7="13000.00000" pt_clust_8="13000.00000" pt_clust_9="53.99640"></scales>
<clustering>
<clus scale="   53.996">  2  9  1 -1</clus>
<clus scale="   89.927">  5  6 -1 -1</clus>
<clus scale="   92.652">  7  8 -1 -1</clus>
<clus scale="  120.786">  1  5  2 -1</clus>
<clus scale="   53.996">  2  5  1 -1</clus>
</clustering>
</event>
<event>
 9    1  0.1610296E-005  0.1187194E+03  0.7546771E-02  0.1245447E+00
         -1   -1    0    0    0  501 -0.00000000000E+00  0.00000000000E+00  0.45123975350E+03  0.45123975350E+03  0.00000000000E+00 0.  1.
         21   -1    0    0  501  502  0.00000000000E+00 -0.00000000000E+00 -0.60144200126E+02  0.60144200126E+02  0.00000000000E+00 0. -1.
         23    2    1    2    0    0  0.71849467451E+02 -0.29963872309E+02  0.28656175599E+03  0.31060334707E+03  0.91085781547E+02 0.  0.
         23    2    1    2    0    0 -0.52245732959E+02  0.52936255622E+02  0.30714164479E+02  0.12102237812E+03  0.90394647704E+02 0.  0.
        -11    1    3    3    0    0  0.84809295288E+02 -0.47754170523E+02  0.22218861220E+03  0.24257134365E+03  0.00000000000E+00 0.  1.
         11    1    3    3    0    0 -0.12959827837E+02  0.17790298214E+02  0.64373143789E+02  0.68032003420E+02  0.00000000000E+00 0. -1.
        -13    1    4    4    0    0 -0.21081897779E+02  0.73169943211E+02  0.59684057668E+01  0.76380029267E+02  0.00000000000E+00 0. -1.
         13    1    4    4    0    0 -0.31163835180E+02 -0.20233687589E+02  0.24745758712E+02  0.44642348850E+02  0.00000000000E+00 0.  1.
         -1    1    1    2    0  502 -0.19603734491E+02 -0.22972383313E+02  0.73819632907E+02  0.79758228438E+02  0.00000000000E+00 0.  1.
<scales pt_clust_5="13000.00000" pt_clust_6="13000.00000" pt_clust_7="13000.00000" pt_clust_8="13000.00000" pt_clust_9="30.19996"></scales>
<clustering>
<clus scale="   30.200">  2  9  1 -1</clus>
<clus scale="   90.395">  7  8 -1 -1</clus>
<clus scale="   91.086">  5  6 -1 -1</clus>
<clus scale="  118.190">  2  7  1 -1</clus>
<clus scale="   30.200">  2  5  1 -1</clus>
</clustering>
</event>
<event>
 9    1  0.1610296E-005  0.1662708E+03  0.7546771E-02  0.1181821E+00
          2   -1    0    0  502    0 -0.00000000000E+00  0.00000000000E+00  0.37627534744E+03  0.37627534744E+03  0.00000000000E+00 0. -1.
         21   -1    0    0  501  502  0.00000000000E+00 -0.00000000000E+00 -0.11985428049E+03  0.11985428049E+03  0.00000000000E+00 0. -1.
         23    2    1    2    0    0  0.60297060740E+02  0.13625234064E+03  0.20008577597E+03  0.26572335343E+03  0.91510365232E+02 0.  0.
         23    2    1    2    0    0 -0.11067194612E+02 -0.12765323452E+03  0.78377741015E+02  0.17578582093E+03  0.91322250694E+02 0.  0.
        -11    1    4    4    0    0 -0.51063799675E+02 -0.82082729048E+02  0.46182199815E+02  0.10713487586E+03  0.00000000000E+00 0.  1.
         11    1    4    4    0    0  0.39996605063E+02 -0.45570505474E+02  0.32195541201E+02  0.68650945070E+02  0.00000000000E+00 0. -1.
        -13    1    3    3    0    0 -0.16509907285E+02  0.68473796952E+02  0.10155888813E+03  0.12359387390E+03  0.00000000000E+00 0.  1.
         13    1    3    3    0    0  0.76806968025E+02  0.67778543693E+02  0.98526887841E+02  0.14212947952E+03  0.00000000000E+00 0. -1.
          2    1    1    2  501    0 -0.49229866128E+02 -0.85991061224E+01 -0.22042450035E+02  0.54620453574E+02  0.00000000000E+00 0. -1.
<scales pt_clust_5="13000.00000" pt_clust_6="13000.00000" pt_clust_7="13000.00000" pt_clust_8="13000.00000" pt_clust_9="49.97524"></scales>
<clustering>
<clus scale="   49.975">  2  9  1 -1</clus>
<clus scale="   91.322">  5  6 -1 -1</clus>
<clus scale="   91.510">  7  8 -1 -1</clus>
<clus scale="  166.167">  2  5  1 -1</clus>
<clus scale="   49.975">  2  5  1 -1</clus>
</clustering>
</event>
<event>
 9    1  0.1610296E-005  0.1278446E+03  0.7546771E-02  0.1231127E+00
         21   -1    0    0  501  502  0.00000000000E+00  0.00000000000E+00  0.33764802957E+03  0.33764802957E+03  0.00000000000E+00 0. -1.
         -2   -1    0    0    0  501 -0.00000000000E+00 -0.00000000000E+00 -0.10914277317E+03  0.10914277317E+03  0.00000000000E+00 0.  1.
         23    2    1    2    0    0  0.62973930782E+01  0.11025359449E+03 -0.13042620722E+02  0.14385799381E+03  0.91266095408E+02 0.  0.
         23    2    1    2    0    0  0.11713336823E+02 -0.29967781391E+02  0.15489160084E+03  0.18343591192E+03  0.92855024576E+02 0.  0.
        -11    1    3    3    0    0  0.42468514406E+02  0.78549352513E+02  0.11200954177E+02  0.89994649122E+02  0.00000000000E+00 0. -1.
         11    1    3    3    0    0 -0.36171121328E+02  0.31704241979E+02 -0.24243574899E+02  0.53863344692E+02  0.00000000000E+00 0.  1.
        -13    1    4    4    0    0 -0.22115025324E+02 -0.40959667241E+02  0.13474178390E+03  0.14255566286E+03  0.00000000000E+00 0.  1.
         13    1    4    4    0    0  0.33828362148E+02  0.10991885850E+02  0.20149816943E+02  0.40880249057E+02  0.00000000000E+00 0. -1.
         -2    1    1    2    0  502 -0.18010729902E+02 -0.80285813101E+02  0.86656276282E+02  0.11949689701E+03  0.00000000000E+00 0.  1.
<scales pt_clust_5="13000.00000" pt_clust_6="13000.00000" pt_clust_7="13000.00000" pt_clust_8="13000.00000" pt_clust_9="82.28121"></scales>
<clustering>
<clus scale="   82.281">  1  9  2 -1</clus>
<clus scale="   91.266">  5  6 -1 -1</clus>
<clus scale="   92.855">  7  8 -1 -1</clus>
<clus scale="  126.695">  2  5  1 -1</clus>
<clus scale="   82.281">  1  5  2 -1</clus>
</clustering>
</event>
<event>
 9    1  0.1610296E-005  0.1141792E+03  0.7546771E-02  0.1253222E+00
         21   -1    0    0  501  502  0.00000000000E+00  0.00000000000E+00  0.18766391201E+03  0.18766391201E+03  0.00000000000E+00 0. -1.
          1   -1    0    0  502    0 -0.00000000000E+00 -0.00000000000E+00 -0.33802328087E+03  0.33802328087E+03  0.00000000000E+00 0. -1.
         23    2    1    2    0    0 -0.65258688703E+02  0.28713805317E+02 -0.17010096968E+03  0.20618041635E+03  0.92156633677E+02 0.  0.
         23    2    1    2    0    0  0.63640413550E+02 -0.24618479955E+01 -0.12744658408E+03  0.16998705927E+03  0.92718960267E+02 0.  0.
        -13    1    4    4    0    0  0.64470649589E+02  0.25922108027E+02 -0.12296391739E+03  0.14123931932E+03  0.00000000000E+00 0. -1.
         13    1    4    4    0    0 -0.83023603941E+00 -0.28383956022E+02 -0.44826666910E+01  0.28747739946E+02  0.00000000000E+00 0.  1.
        -13    1    3    3    0    0 -0.12650892989E+02 -0.25248294430E+02 -0.11324399015E+02  0.30426361566E+02  0.00000000000E+00 0.  1.
         13    1    3    3    0    0 -0.52607795714E+02  0.53962099747E+02 -0.15877657067E+03  0.17575405478E+03  0.00000000000E+00 0. -1.
          1    1    1    2  501    0  0.16182751528E+01 -0.26251957321E+02  0.14718818490E+03  0.14951971727E+03  0.00000000000E+00 0. -1.
<scales pt_clust_5="13000.00000" pt_clust_6="13000.00000" pt_clust_7="13000.00000" pt_clust_8="13000.00000" pt_clust_9="26.30179"></scales>
<clustering>
<clus scale="   26.302">  1  9  2 -1</clus>
<clus scale="   92.157">  7  8 -1 -1</clus>
<clus scale="   92.719">  5  6 -1 -1</clus>
<clus scale="  113.723">  2  7  1 -1</clus>
<clus scale="   26.302">  1  5  2 -1</clus>
</clustering>
</event>
<event>
 9    1  0.1610296E-005  0.1080825E+03  0.7546771E-02  0.1267563E+00
         21   -1    0    0  501  502  0.00000000000E+00  0.00000000000E+00  0.49318429369E+03  0.49318429369E+03  0.00000000000E+00 0.  1.
         -1   -1    0    0    0  501 -0.00000000000E+00 -0.00000000000E+00 -0.13756759713E+03  0.13756759713E+03  0.00000000000E+00 0.  1.
         23    2    1    2    0    0 -0.50960359800E+02 -0.28461523614E+02 -0.10956919515E+03  0.14957648909E+03  0.83430815453E+02 0.  0.
         23    2    1    2    0    0  0.32551218905E+02  0.18107342118E+02  0.33603267899E+03  0.35030654410E+03  0.91701994521E+02 0.  0.
        -11    1    3    3    0    0 -0.29774175955E+02 -0.54324053930E+02 -0.94287011476E+02  0.11281686453E+03  0.00000000000E+00 0.  1.
         11    1    3    3    0    0 -0.21186183846E+02  0.25862530317E+02 -0.15282183669E+02  0.36759624563E+02  0.00000000000E+00 0. -1.
        -13    1    4    4    0    0 -0.17528637681E+02 -0.23701684237E+02  0.62522845096E+02  0.69124012713E+02  0.00000000000E+00 0.  1.
         13    1    4    4    0    0  0.50079856586E+02  0.41809026355E+02  0.27350983390E+03  0.28118253139E+03  0.00000000000E+00 0. -1.
         -1    1    1    2    0  502  0.18409140896E+02  0.10354181495E+02  0.12915321271E+03  0.13086885762E+03  0.00000000000E+00 0.  1.
<scales pt_clust_5="13000.00000" pt_clust_6="13000.00000" pt_clust_7="13000.00000" pt_clust_8="13000.00000" pt_clust_9="21.12121"></scales>
<clustering>
<clus scale="   21.121">  1  9  2 -1</clus>
<clus scale="   83.431">  5  6 -1 -1</clus>
<clus scale="   91.702">  7  8 -1 -1</clus>
<clus scale="  101.160">  2  5  1 -1</clus>
<clus scale="   21.121">  1  5  2 -1</clus>
</clustering>
</event>
<event>
 9    1  0.1610296E-005  0.9831465E+02  0.7546771E-02  0.1287416E+00
         21   -1    0    0  501  502  0.00000000000E+00  0.00000000000E+00  0.11613952234E+03  0.11613952234E+03  0.00000000000E+00 0.  1.
         -3   -1    0    0    0  501 -0.00000000000E+00 -0.00000000000E+00 -0.21446206093E+03  0.21446206093E+03  0.00000000000E+00 0.  1.
         23    2    1    2    0    0 -0.97492083320E+01 -0.56176968927E+01 -0.10729557983E+03  0.14450605682E+03  0.96140799991E+02 0.  0.
         23    2    1    2    0    0 -0.44343551281E+01  0.43584471202E+02 -0.52283080767E+02  0.11264512205E+03  0.89644483104E+02 0.  0.
        -11    1    3    3    0    0 -0.46512507852E+01 -0.30400395375E+02 -0.11420872528E+03  0.11827701003E+03  0.00000000000E+00 0.  1.
         11    1    3    3    0    0 -0.50979575467E+01  0.24782698482E+02  0.69131454426E+01  0.26229046783E+02  0.00000000000E+00 0. -1.
        -13    1    4    4    0    0  0.37387283762E+02  0.32310977881E+02 -0.48380071905E+02  0.69155185173E+02  0.00000000000E+00 0.  1.
         13    1    4    4    0    0 -0.41821638890E+02  0.11273493321E+02 -0.39030088616E+01  0.43489936873E+02  0.00000000000E+00 0. -1.
         -3    1    1    2    0  502  0.14183563460E+02 -0.37966774310E+02  0.61256122015E+02  0.73450404412E+02  0.00000000000E+00 0.  1.
<scales pt_clust_5="13000.00000" pt_clust_6="13000.00000" pt_clust_7="13000.00000" pt_clust_8="13000.00000" pt_clust_9="40.52961"></scales>
<clustering>
<clus scale="   40.530">  1  9  2 -1</clus>
<clus scale="   89.644">  7  8 -1 -1</clus>
<clus scale="   91.972">  1  7  2 -1</clus>
<clus scale="   96.141">  5  6 -1 -1</clus>
<clus scale="   40.530">  1  5  2 -1</clus>
</clustering>
</event>
<event>
 9    1  0.1610296E-005  0.1016823E+03  0.7546771E-02  0.1281321E+00
         -1   -1    0    0    0  501 -0.00000000000E+00  0.00000000000E+00  0.29843115497E+03  0.29843115497E+03  0.00000000000E+00 0.  1.
         21   -1    0    0  501  502  0.00000000000E+00 -0.00000000000E+00 -0.64157002669E+02  0.64157002669E+02  0.00000000000E+00 0.  1.
         23    2    1    2    0    0  0.80645968523E+01  0.35980920833E+02  0.16127593936E+03  0.18989584822E+03  0.93224675751E+02 0.  0.
         23    2    1    2    0    0  0.32913896785E+02 -0.46885980108E+02  0.80445224683E+02  0.12963867725E+03  0.83982931205E+02 0.  0.
        -11    1    3    3    0    0 -0.24990232429E+02 -0.18009718868E+02  0.25139046727E+02  0.39759695181E+02  0.00000000000E+00 0. -1.
         11    1    3    3    0    0  0.33054829281E+02  0.53990639701E+02  0.13613689263E+03  0.15013615304E+03  0.00000000000E+00 0.  1.
        -13    1    4    4    0    0  0.48009934462E+02 -0.40947858909E+01  0.66589966304E+02  0.82194553900E+02  0.00000000000E+00 0.  1.
         13    1    4    4    0    0 -0.15096037677E+02 -0.42791194217E+02  0.13855258379E+02  0.47444123354E+02  0.00000000000E+00 0. -1.
         -1    1    1    2    0  502 -0.40978493637E+02  0.10905059275E+02 -0.74470117414E+01  0.43053632163E+02  0.00000000000E+00 0.  1.
<scales pt_clust_5="13000.00000" pt_clust_6="13000.00000" pt_clust_7="13000.00000" pt_clust_8="13000.00000" pt_clust_9="42.40468"></scales>
<clustering>
<clus scale="   42.405">  2  9  1 -1</clus>
<clus scale="   83.983">  7  8 -1 -1</clus>
<clus scale="   93.225">  5  6 -1 -1</clus>
<clus scale="   93.282">  2  7  1 -1</clus>
<clus scale="   42.405">  2  5  1 -1</clus>
</clustering>
</event>
<event>
 9    1  0.1610296E-005  0.1180791E+03  0.7546771E-02  0.1248889E+00
          1   -1    0    0  502    0 -0.00000000000E+00  0.00000000000E+00  0.12985369255E+03  0.12985369255E+03  0.00000000000E+00 0. -1.
         21   -1    0    0  501  502  0.00000000000E+00 -0.00000000000E+00 -0.30966058480E+03  0.30966058480E+03  0.00000000000E+00 0. -1.
         23    2    1    2    0    0 -0.20267828312E+02  0.67389593107E+02  0.38552450121E+02  0.12853883648E+03  0.10041812063E+03 0.  0.
         23    2    1    2    0    0  0.47636085608E+02 -0.32970710458E+02 -0.24960155776E+02  0.11264005227E+03  0.93319384905E+02 0.  0.
        -11    1    3    3    0    0 -0.48722465940E+02  0.22592838593E+02 -0.12236103225E+02  0.55082095685E+02  0.00000000000E+00 0. -1.
         11    1    3    3    0    0  0.28454637627E+02  0.44796754515E+02  0.50788553347E+02  0.73456740797E+02  0.00000000000E+00 0.  1.
        -13    1    4    4    0    0  0.32032357453E+01 -0.52056704496E+02 -0.35571709229E+02  0.63130877545E+02  0.00000000000E+00 0.  1.
         13    1    4    4    0    0  0.44432849863E+02  0.19085994037E+02  0.10611553453E+02  0.49509174726E+02  0.00000000000E+00 0. -1.
          1    1    1    2  501    0 -0.27368257296E+02 -0.34418882649E+02 -0.19339918660E+03  0.19833538860E+03  0.00000000000E+00 0. -1.
<scales pt_clust_5="13000.00000" pt_clust_6="13000.00000" pt_clust_7="13000.00000" pt_clust_8="13000.00000" pt_clust_9="43.97364"></scales>
<clustering>
<clus scale="   43.974">  2  9  1 -1</clus>
<clus scale="   93.319">  7  8 -1 -1</clus>
<clus scale="  100.418">  5  6 -1 -1</clus>
<clus scale="  112.104">  2  7  1 -1</clus>
<clus scale="   43.974">  2  5  1 -1</clus>
</clustering>
</event>
<event>
 9    1  0.1610296E-005  0.1324825E+03  0.7546771E-02  0.1224094E+00
         21   -1    0    0  501  502  0.00000000000E+00  0.00000000000E+00  0.54166489725E+02  0.54166489725E+02  0.00000000000E+00 0. -1.
         -2   -1    0    0    0  501 -0.00000000000E+00 -0.00000000000E+00 -0.69442459706E+03  0.69442459706E+03  0.00000000000E+00 0.  1.
         23    2    1    2    0    0 -0.10717048901E+03 -0.94015425022E+00 -0.43201483503E+03  0.45433249340E+03  0.91075788594E+02 0.  0.
         23    2    1    2    0    0  0.81455395718E+02  0.14593954020E+01 -0.23033328396E+03  0.26035425371E+03  0.89965573419E+02 0.  0.
        -11    1    3    3    0    0  0.45301071933E+01 -0.25613948768E+02 -0.90839252736E+02  0.94490031645E+02  0.00000000000E+00 0. -1.
         11    1    3    3    0    0 -0.11170059620E+03  0.24673794518E+02 -0.34117558229E+03  0.35984246175E+03  0.00000000000E+00 0.  1.
        -13    1    4    4    0    0  0.88906610713E+02 -0.25695936324E+02 -0.18747439579E+03  0.20907251289E+03  0.00000000000E+00 0. -1.
         13    1    4    4    0    0 -0.74512149957E+01  0.27155331726E+02 -0.42858888170E+02  0.51281740818E+02  0.00000000000E+00 0.  1.
         -2    1    1    2    0  502  0.25715093288E+02 -0.51924115182E+00  0.22090011651E+02  0.33904339677E+02  0.00000000000E+00 0.  1.
<scales pt_clust_5="13000.00000" pt_clust_6="13000.00000" pt_clust_7="13000.00000" pt_clust_8="13000.00000" pt_clust_9="25.72034"></scales>
<clustering>
<clus scale="   25.720">  1  9  2 -1</clus>
<clus scale="   89.966">  7  8 -1 -1</clus>
<clus scale="   91.076">  5  6 -1 -1</clus>
<clus scale="  131.722">  1  7  2 -1</clus>
<clus scale="   25.720">  1  5  2 -1</clus>
</clustering>
</event>
<event>
 9    1  0.1610296E-005  0.1051962E+03  0.7546771E-02  0.1270315E+00
         21   -1    0    0  501  502  0.00000000000E+00  0.00000000000E+00  0.60904076009E+02  0.60904076009E+02  0.00000000000E+00 0.  1.
         -3   -1    0    0    0  501 -0.00000000000E+00 -0.00000000000E+00 -0.77450557957E+03  0.77450557957E+03  0.00000000000E+00 0.  1.
         23    2    1    2    0    0  0.62663796726E+02 -0.35630106505E+02 -0.48060604612E+03  0.49468352348E+03  0.92376192468E+02 0.  0.
         23    2    1    2    0    0 -0.22178695196E+02  0.12049634758E+02 -0.26674824532E+03  0.28298245034E+03  0.91034897710E+02 0.  0.
        -13    1    4    4    0    0  0.18143759004E+02 -0.29752255528E+02 -0.12578020424E+03  0.13051839900E+03  0.00000000000E+00 0.  1.
         13    1    4    4    0    0 -0.40322454200E+02  0.41801890286E+02 -0.14096804108E+03  0.15246405134E+03  0.00000000000E+00 0. -1.
        -13    1    3    3    0    0 -0.17345065018E+02 -0.31807545497E+02 -0.17845618323E+03  0.18209662425E+03  0.00000000000E+00 0.  1.
         13    1    3    3    0    0  0.80008861743E+02 -0.38225610076E+01 -0.30214986289E+03  0.31258689924E+03  0.00000000000E+00 0. -1.
         -3    1    1    2    0  502 -0.40485101530E+02  0.23580471747E+02  0.33752787872E+02  0.57743681757E+02  0.00000000000E+00 0.  1.
<scales pt_clust_5="13000.00000" pt_clust_6="13000.00000" pt_clust_7="13000.00000" pt_clust_8="13000.00000" pt_clust_9="46.85170"></scales>
<clustering>
<clus scale="   46.852">  1  9  2 -1</clus>
<clus scale="   91.035">  5  6 -1 -1</clus>
<clus scale="   92.376">  7  8 -1 -1</clus>
<clus scale="  104.020">  1  5  2 -1</clus>
<clus scale="   46.852">  1  5  2 -1</clus>
</clustering>
</event>
<event>
 9    1  0.1610296E-005  0.9657183E+02  0.7546771E-02  0.1288350E+00
         21   -1    0    0  501  502  0.00000000000E+00  0.00000000000E+00  0.28322066987E+02  0.28322066987E+02  0.00000000000E+00 0. -1.
          1   -1    0    0  502    0 -0.00000000000E+00 -0.00000000000E+00 -0.89532502685E+03  0.89532502685E+03  0.00000000000E+00 0. -1.
         23    2    1    2    0    0 -0.20224624501E+02 -0.23586449149E+02 -0.42519001647E+03  0.43619958363E+03  0.92293936058E+02 0.  0.
         23    2    1    2    0    0  0.25728271844E+02 -0.36065048629E+02 -0.11308603275E+03  0.15330686152E+03  0.93551650347E+02 0.  0.
        -11    1    4    4    0    0 -0.61484492244E+01  0.26455019061E+02 -0.10728476970E+02  0.29202254699E+02  0.00000000000E+00 0.  1.
         11    1    4    4    0    0  0.31876721068E+02 -0.62520067691E+02 -0.10235755578E+03  0.12410460683E+03  0.00000000000E+00 0. -1.
        -13    1    3    3    0    0 -0.55967329171E+02 -0.59092671609E+01 -0.21389339217E+03  0.22117333607E+03  0.00000000000E+00 0.  1.
         13    1    3    3    0    0  0.35742704671E+02 -0.17677181988E+02 -0.21129662430E+03  0.21502624756E+03  0.00000000000E+00 0. -1.
          1    1    1    2  501    0 -0.55036473430E+01  0.59651497778E+02 -0.32872691064E+03  0.33414064868E+03  0.00000000000E+00 0. -1.
<scales pt_clust_5="13000.00000" pt_clust_6="13000.00000" pt_clust_7="13000.00000" pt_clust_8="13000.00000" pt_clust_9="59.90488"></scales>
<clustering>
<clus scale="   59.905">  1  9  2 -1</clus>
<clus scale="   92.294">  7  8 -1 -1</clus>
<clus scale="   93.552">  5  6 -1 -1</clus>
<clus scale="   95.354">  2  7  1 -1</clus>
<clus scale="   59.905">  1  5  2 -1</clus>
</clustering>
</event>
<event>
 9    1  0.1610296E-005  0.1233543E+03  0.7546771E-02  0.1237973E+00
         21   -1    0    0  501  502  0.00000000000E+00  0.00000000000E+00  0.31489930551E+02  0.31489930551E+02  0.00000000000E+00 0.  1.
          2   -1    0    0  502    0 -0.00000000000E+00 -0.00000000000E+00 -0.10637269952E+04  0.10637269952E+04  0.00000000000E+00 0. -1.
         23    2    1    2    0    0  0.95341613232E+02  0.24432376084E+02 -0.49587137253E+03  0.51365961220E+03  0.90944020713E+02 0.  0.
         23    2    1    2    0    0 -0.58384508655E+02  0.45284571618E+02 -0.16501301042E+03  0.20191393538E+03  0.89891603705E+02 0.  0.
        -11    1    3    3    0    0  0.88741421452E+02  0.45303622767E+02 -0.46653771062E+03  0.47705858502E+03  0.00000000000E+00 0.  1.
         11    1    3    3    0    0  0.66001917808E+01 -0.20871246683E+02 -0.29333661908E+02  0.36601027179E+02  0.00000000000E+00 0. -1.
        -13    1    4    4    0    0 -0.51584763689E+01 -0.25669844148E+02 -0.52275845764E+02  0.58466356372E+02  0.00000000000E+00 0. -1.
         13    1    4    4    0    0 -0.53226032286E+02  0.70954415766E+02 -0.11273716465E+03  0.14344757901E+03  0.00000000000E+00 0.  1.
          2    1    1    2  501    0 -0.36957104577E+02 -0.69716947702E+02 -0.37135268175E+03  0.37964337821E+03  0.00000000000E+00 0. -1.
<scales pt_clust_5="13000.00000" pt_clust_6="13000.00000" pt_clust_7="13000.00000" pt_clust_8="13000.00000" pt_clust_9="78.90682"></scales>
<clustering>
<clus scale="   78.907">  1  9  2 -1</clus>
<clus scale="   89.892">  7  8 -1 -1</clus>
<clus scale="   90.944">  5  6 -1 -1</clus>
<clus scale="  122.580">  1  7  2 -1</clus>
<clus scale="   78.907">  1  5  2 -1</clus>
</clustering>
</event>
<event>
 9    1  0.1610296E-005  0.9587584E+02  0.7546771E-02  0.1290315E+00
         21   -1    0    0  501  502  0.00000000000E+00  0.00000000000E+00  0.11870290017E+03  0.11870290017E+03  0.00000000000E+00 0.  1.
         -1   -1    0    0    0  501 -0.00000000000E+00 -0.00000000000E+00 -0.19288292695E+03  0.19288292695E+03  0.00000000000E+00 0.  1.
         23    2    1    2    0    0 -0.18921652700E+02 -0.17724298658E+02 -0.12830438751E+03  0.15942335984E+03  0.91003363148E+02 0.  0.
         23    2    1    2    0    0 -0.86336944759E+00  0.20758737486E+02  0.91914167628E+00  0.95316620874E+02  0.93020120429E+02 0.  0.
        -11    1    4    4    0    0  0.39924619391E+02 -0.59912376923E+01  0.17215616950E+02  0.43889037693E+02  0.00000000000E+00 0. -1.
         11    1    4    4    0    0 -0.40787988839E+02  0.26749975179E+02 -0.16296475273E+02  0.51427583182E+02  0.00000000000E+00 0.  1.
        -11    1    3    3    0    0 -0.30932310324E+02  0.15600519568E+02 -0.11733222723E+03  0.12233983644E+03  0.00000000000E+00 0.  1.
         11    1    3    3    0    0  0.12010657624E+02 -0.33324818226E+02 -0.10972160272E+02  0.37083523395E+02  0.00000000000E+00 0. -1.
         -1    1    1    2    0  502  0.19785022148E+02 -0.30344388282E+01  0.53205219045E+02  0.56845846409E+02  0.00000000000E+00 0.  1.
<scales pt_clust_5="13000.00000" pt_clust_6="13000.00000" pt_clust_7="13000.00000" pt_clust_8="13000.00000" pt_clust_9="20.01637"></scales>
<clustering>
<clus scale="   20.016">  1  9  2 -1</clus>
<clus scale="   91.003">  7  8 -1 -1</clus>
<clus scale="   93.020">  5  6 -1 -1</clus>
<clus scale="   93.920">  2  7  1 -1</clus>
<clus scale="   20.016">  1  5  2 -1</clus>
</clustering>
</event>
<event>
 9    1  0.1610296E-005  0.1689746E+03  0.7546771E-02  0.1179010E+00
          1   -1    0    0  502    0 -0.00000000000E+00  0.00000000000E+00  0.95779178204E+03  0.95779178204E+03  0.00000000000E+00 0. -1.
         21   -1    0    0  501  502  0.00000000000E+00 -0.00000000000E+00 -0.50075610747E+02  0.50075610747E+02  0.00000000000E+00 0. -1.
         23    2    1    2    0    0  0.20197559260E+02 -0.14536124816E+03  0.62645320468E+03  0.64988109758E+03  0.91454849336E+02 0.  0.
         23    2    1    2    0    0  0.29028403532E+02  0.13484849303E+03  0.24687281453E+03  0.29702404465E+03  0.90831339640E+02 0.  0.
        -13    1    3    3    0    0  0.45391797056E+02 -0.36309660170E+02  0.27342648303E+03  0.27953684602E+03  0.00000000000E+00 0.  1.
         13    1    3    3    0    0 -0.25194237795E+02 -0.10905158799E+03  0.35302672165E+03  0.37034425156E+03  0.00000000000E+00 0. -1.
        -13    1    4    4    0    0 -0.21059949624E+02  0.10365237809E+03  0.16794592598E+03  0.19847712970E+03  0.00000000000E+00 0. -1.
         13    1    4    4    0    0  0.50088353156E+02  0.31196114948E+02  0.78926888552E+02  0.98546914950E+02  0.00000000000E+00 0.  1.
          1    1    1    2  501    0 -0.49225962792E+02  0.10512755122E+02  0.34390152082E+02  0.60962250560E+02  0.00000000000E+00 0. -1.
<scales pt_clust_5="13000.00000" pt_clust_6="13000.00000" pt_clust_7="13000.00000" pt_clust_8="13000.00000" pt_clust_9="50.33601"></scales>
<clustering>
<clus scale="   50.336">  2  9  1 -1</clus>
<clus scale="   90.831">  7  8 -1 -1</clus>
<clus scale="   91.455">  5  6 -1 -1</clus>
<clus scale="  168.638">  2  7  1 -1</clus>
<clus scale="   50.336">  2  5  1 -1</clus>
</clustering>
</event>
<event>
 9    1  0.1610296E-005  0.9269210E+02  0.7546771E-02  0.1296844E+00
         21   -1    0    0  501  502  0.00000000000E+00  0.00000000000E+00  0.97447180046E+02  0.97447180046E+02  0.00000000000E+00 0. -1.
          1   -1    0    0  502    0 -0.00000000000E+00 -0.00000000000E+00 -0.34801510568E+03  0.34801510568E+03  0.00000000000E+00 0. -1.
         23    2    1    2    0    0 -0.24606162248E+02 -0.14468464020E+02 -0.10470799251E+03  0.14099121708E+03  0.89999777372E+02 0.  0.
         23    2    1    2    0    0 -0.52640600657E+02  0.27304608312E+02  0.29615887094E+02  0.11231594261E+03  0.90670809657E+02 0.  0.
        -11    1    4    4    0    0 -0.36711598578E+02  0.56192642517E+02 -0.12577510454E+01  0.67133720893E+02  0.00000000000E+00 0.  1.
         11    1    4    4    0    0 -0.15929002079E+02 -0.28888034206E+02  0.30873638139E+02  0.45182221719E+02  0.00000000000E+00 0. -1.
        -13    1    3    3    0    0  0.24713499211E+02  0.18236369857E+02 -0.16765157498E+02  0.34991323707E+02  0.00000000000E+00 0. -1.
         13    1    3    3    0    0 -0.49319661459E+02 -0.32704833877E+02 -0.87942835016E+02  0.10599989338E+03  0.00000000000E+00 0.  1.
          1    1    1    2  501    0  0.77246762905E+02 -0.12836144292E+02 -0.17547582021E+03  0.19215512602E+03  0.00000000000E+00 0. -1.
<scales pt_clust_5="13000.00000" pt_clust_6="13000.00000" pt_clust_7="13000.00000" pt_clust_8="13000.00000" pt_clust_9="78.30603"></scales>
<clustering>
<clus scale="   78.306">  1  9  2 -1</clus>
<clus scale="   90.000">  7  8 -1 -1</clus>
<clus scale="   90.671">  5  6 -1 -1</clus>
<clus scale="   92.036">  2  7  1 -1</clus>
<clus scale="   78.306">  1  5  2 -1</clus>
</clustering>
</event>
<event>
 9    1  0.1610296E-005  0.1670358E+03  0.7546771E-02  0.1181605E+00
         21   -1    0    0  501  502  0.00000000000E+00  0.00000000000E+00  0.34062359426E+02  0.34062359426E+02  0.00000000000E+00 0.  1.
          1   -1    0    0  502    0 -0.00000000000E+00 -0.00000000000E+00 -0.11602957868E+04  0.11602957868E+04  0.00000000000E+00 0. -1.
         23    2    1    2    0    0  0.13090683387E+03  0.58628297044E+02 -0.80306711268E+03  0.82115016937E+03  0.93791986975E+02 0.  0.
         23    2    1    2    0    0 -0.12069556457E+03 -0.35112971048E+02 -0.23309047951E+03  0.27955491144E+03  0.89551308365E+02 0.  0.
        -11    1    3    3    0    0  0.11286372806E+03  0.68608176168E+02 -0.77580836503E+03  0.78697136047E+03  0.00000000000E+00 0.  1.
         11    1    3    3    0    0  0.18043105803E+02 -0.99798791245E+01 -0.27258747651E+02  0.34178808900E+02  0.00000000000E+00 0. -1.
        -13    1    4    4    0    0 -0.85779319568E+02 -0.66915942509E+01 -0.21400841642E+03  0.23065660927E+03  0.00000000000E+00 0. -1.
         13    1    4    4    0    0 -0.34916245000E+02 -0.28421376797E+02 -0.19082063093E+02  0.48898302177E+02  0.00000000000E+00 0.  1.
          1    1    1    2  501    0 -0.10211269299E+02 -0.23515325996E+02 -0.90075835148E+02  0.93653065380E+02  0.00000000000E+00 0. -1.
<scales pt_clust_5="13000.00000" pt_clust_6="13000.00000" pt_clust_7="13000.00000" pt_clust_8="13000.00000" pt_clust_9="25.63672"></scales>
<clustering>
<clus scale="   25.637">  1  9  2 -1</clus>
<clus scale="   89.551">  7  8 -1 -1</clus>
<clus scale="   93.792">  5  6 -1 -1</clus>
<clus scale="  164.692">  1  7  2 -1</clus>
<clus scale="   25.637">  1  5  2 -1</clus>
</clustering>
</event>
<event>
 9    1  0.1610296E-005  0.1131602E+03  0.7546771E-02  0.1255140E+00
          3   -1    0    0  502    0 -0.00000000000E+00  0.00000000000E+00  0.31913323246E+03  0.31913323246E+03  0.00000000000E+00 0. -1.
         21   -1    0    0  501  502  0.00000000000E+00 -0.00000000000E+00 -0.69078732832E+02  0.69078732832E+02  0.00000000000E+00 0. -1.
         23    2    1    2    0    0  0.78570910229E+02 -0.22353819870E+01  0.15096729187E+03  0.19284371332E+03  0.90659746781E+02 0.  0.
         23    2    1    2    0    0 -0.45206629195E+02 -0.44152388788E+02  0.52777374920E+02  0.12181826119E+03  0.89783989091E+02 0.  0.
        -11    1    3    3    0    0  0.48832320658E+02  0.38712495543E+02  0.49969537390E+02  0.79876201206E+02  0.00000000000E+00 0.  1.
         11    1    3    3    0    0  0.29738589571E+02 -0.40947877530E+02  0.10099775448E+03  0.11296751211E+03  0.00000000000E+00 0. -1.
        -13    1    4    4    0    0 -0.25379879447E+02 -0.65538928077E+02  0.11405553690E+02  0.71200955255E+02  0.00000000000E+00 0. -1.
         13    1    4    4    0    0 -0.19826749748E+02  0.21386539288E+02  0.41371821230E+02  0.50617305935E+02  0.00000000000E+00 0.  1.
          3    1    1    2  501    0 -0.33364281034E+02  0.46387770775E+02  0.46309832845E+02  0.73549990785E+02  0.00000000000E+00 0. -1.
<scales pt_clust_5="13000.00000" pt_clust_6="13000.00000" pt_clust_7="13000.00000" pt_clust_8="13000.00000" pt_clust_9="57.14018"></scales>
<clustering>
<clus scale="   57.140">  2  9  1 -1</clus>
<clus scale="   89.784">  7  8 -1 -1</clus>
<clus scale="   90.660">  5  6 -1 -1</clus>
<clus scale="  112.460">  2  7  1 -1</clus>
<clus scale="   57.140">  2  5  1 -1</clus>
</clustering>
</event>
<event>
 9    1  0.1610296E-005  0.1108032E+03  0.7546771E-02  0.1261011E+00
         21   -1    0    0  501  502  0.00000000000E+00  0.00000000000E+00  0.34269964193E+02  0.34269964193E+02  0.00000000000E+00 0. -1.
          2   -1    0    0  502    0 -0.00000000000E+00 -0.00000000000E+00 -0.83201595261E+03  0.83201595261E+03  0.00000000000E+00 0. -1.
         23    2    1    2    0    0  0.22873668394E+02  0.81274475352E+02 -0.57647799212E+03  0.58882489646E+03  0.85200576551E+02 0.  0.
         23    2    1    2    0    0 -0.54758151989E+01 -0.27676836134E+02 -0.19182857832E+03  0.21388373229E+03  0.90288734992E+02 0.  0.
        -11    1    3    3    0    0  0.15549072556E+02 -0.14882463245E+02 -0.69497253273E+02  0.72753897367E+02  0.00000000000E+00 0.  1.
         11    1    3    3    0    0  0.73245958376E+01  0.96156938597E+02 -0.50698073885E+03  0.51607099909E+03  0.00000000000E+00 0. -1.
        -11    1    4    4    0    0  0.41676314705E+02 -0.41343607269E+01 -0.86530745639E+02  0.96133126896E+02  0.00000000000E+00 0. -1.
         11    1    4    4    0    0 -0.47152129904E+02 -0.23542475407E+02 -0.10529783268E+03  0.11775060539E+03  0.00000000000E+00 0.  1.
          2    1    1    2  501    0 -0.17397853195E+02 -0.53597639218E+02 -0.29439417976E+02  0.63577288054E+02  0.00000000000E+00 0. -1.
<scales pt_clust_5="13000.00000" pt_clust_6="13000.00000" pt_clust_7="13000.00000" pt_clust_8="13000.00000" pt_clust_9="56.35062"></scales>
<clustering>
<clus scale="   56.351">  1  9  2 -1</clus>
<clus scale="   85.201">  5  6 -1 -1</clus>
<clus scale="   90.289">  7  8 -1 -1</clus>
<clus scale="  106.698">  2  5  1 -1</clus>
<clus scale="   56.351">  1  5  2 -1</clus>
</clustering>
</event>
<event>
 9    1  0.1610296E-005  0.1481468E+03  0.7546771E-02  0.1204978E+00
          2   -1    0    0  502    0 -0.00000000000E+00  0.00000000000E+00  0.78904385987E+03  0.78904385987E+03  0.00000000000E+00 0. -1.
         21   -1    0    0  501  502  0.00000000000E+00 -0.00000000000E+00 -0.41683019450E+02  0.41683019450E+02  0.00000000000E+00 0. -1.
         23    2    1    2    0    0  0.15684189042E+02  0.89575162342E+02  0.40284841731E+03  0.42405328020E+03  0.96252966813E+02 0.  0.
         23    2    1    2    0    0 -0.10929090326E+02 -0.12647742737E+03  0.32492236609E+03  0.36462412277E+03  0.10611419445E+03 0.  0.
        -11    1    3    3    0    0 -0.35760473765E+02  0.41239124553E+02  0.10975497075E+03  0.12257907849E+03  0.00000000000E+00 0.  1.
         11    1    3    3    0    0  0.51444662807E+02  0.48336037788E+02  0.29309344656E+03  0.30147420171E+03  0.00000000000E+00 0. -1.
        -11    1    4    4    0    0 -0.25015523664E+02  0.10951940367E+02  0.53867444184E+02  0.60393898408E+02  0.00000000000E+00 0.  1.
         11    1    4    4    0    0  0.14086433338E+02 -0.13742936774E+03  0.27105492191E+03  0.30423022436E+03  0.00000000000E+00 0. -1.
          2    1    1    2  501    0 -0.47550987163E+01  0.36902265030E+02  0.19590057013E+02  0.42049476357E+02  0.00000000000E+00 0. -1.
<scales pt_clust_5="13000.00000" pt_clust_6="13000.00000" pt_clust_7="13000.00000" pt_clust_8="13000.00000" pt_clust_9="37.20737"></scales>
<clustering>
<clus scale="   37.207">  2  9  1 -1</clus>
<clus scale="   96.253">  5  6 -1 -1</clus>
<clus scale="  106.114">  7  8 -1 -1</clus>
<clus scale="  141.251">  1  5  2 -1</clus>
<clus scale="   37.207">  2  5  1 -1</clus>
</clustering>
</event>
<event>
 9    1  0.1610296E-005  0.1047920E+03  0.7546771E-02  0.1270719E+00
          1   -1    0    0  502    0 -0.00000000000E+00  0.00000000000E+00  0.74895092039E+03  0.74895092039E+03  0.00000000000E+00 0. -1.
         21   -1    0    0  501  502  0.00000000000E+00 -0.00000000000E+00 -0.30509789081E+02  0.30509789081E+02  0.00000000000E+00 0.  1.
         23    2    1    2    0    0 -0.32716259043E+02 -0.36943333593E+02  0.39071619582E+03  0.40389570388E+03  0.89651717435E+02 0.  0.
         23    2    1    2    0    0 -0.89289718034E+01  0.82402076661E+02  0.21586224663E+03  0.24783840799E+03  0.89205034507E+02 0.  0.
        -13    1    4    4    0    0  0.32410877530E+02  0.65279045133E+02  0.10085272578E+03  0.12443106932E+03  0.00000000000E+00 0.  1.
         13    1    4    4    0    0 -0.41339849334E+02  0.17123031528E+02  0.11500952085E+03  0.12340733867E+03  0.00000000000E+00 0. -1.
        -13    1    3    3    0    0  0.55288330318E+01  0.26716939501E+02  0.12857375894E+03  0.13143657915E+03  0.00000000000E+00 0.  1.
         13    1    3    3    0    0 -0.38245092075E+02 -0.63660273094E+02  0.26214243688E+03  0.27245912474E+03  0.00000000000E+00 0. -1.
          1    1    1    2  501    0  0.41645230846E+02 -0.45458743068E+02  0.11186268887E+03  0.12772659760E+03  0.00000000000E+00 0. -1.
<scales pt_clust_5="13000.00000" pt_clust_6="13000.00000" pt_clust_7="13000.00000" pt_clust_8="13000.00000" pt_clust_9="61.65081"></scales>
<clustering>
<clus scale="   61.651">  2  9  1 -1</clus>
<clus scale="   89.205">  5  6 -1 -1</clus>
<clus scale="   89.652">  7  8 -1 -1</clus>
<clus scale="  104.410">  2  5  1 -1</clus>
<clus scale="   61.651">  2  5  1 -1</clus>
</clustering>
</event>
<event>
 9    1  0.1610296E-005  0.1079427E+03  0.7546771E-02  0.1265304E+00
          2   -1    0    0  502    0 -0.00000000000E+00  0.00000000000E+00  0.18807979806E+03  0.18807979806E+03  0.00000000000E+00 0. -1.
         21   -1    0    0  501  502  0.00000000000E+00 -0.00000000000E+00 -0.22703739388E+03  0.22703739388E+03  0.00000000000E+00 0. -1.
         23    2    1    2    0    0  0.66421676026E+02 -0.10351951667E+02  0.11342084758E+03  0.16040040956E+03  0.91350975762E+02 0.  0.
         23    2    1    2    0    0 -0.26962240478E+02 -0.14196240758E+02 -0.30856228312E+01  0.98358197469E+02  0.93468274178E+02 0.  0.
        -11    1    4    4    0    0 -0.87699115840E+00  0.36099216829E+02  0.14681285845E+02  0.38980286341E+02  0.00000000000E+00 0. -1.
         11    1    4    4    0    0 -0.26085249320E+02 -0.50295457587E+02 -0.17766908677E+02  0.59377911128E+02  0.00000000000E+00 0.  1.
        -13    1    3    3    0    0  0.13658642165E+02 -0.27618125093E+02 -0.34602309202E+01  0.31004717987E+02  0.00000000000E+00 0.  1.
         13    1    3    3    0    0  0.52763033861E+02  0.17266173426E+02  0.11688107850E+03  0.12939569157E+03  0.00000000000E+00 0. -1.
          2    1    1    2  501    0 -0.39459435547E+02  0.24548192425E+02 -0.14929282056E+03  0.15635858492E+03  0.00000000000E+00 0. -1.
<scales pt_clust_5="13000.00000" pt_clust_6="13000.00000" pt_clust_7="13000.00000" pt_clust_8="13000.00000" pt_clust_9="46.47215"></scales>
<clustering>
<clus scale="   46.472">  2  9  1 -1</clus>
<clus scale="   91.351">  7  8 -1 -1</clus>
<clus scale="   93.468">  5  6 -1 -1</clus>
<clus scale="  106.115">  1  7  2 -1</clus>
<clus scale="   46.472">  2  5  1 -1</clus>
</clustering>
</event>
<event>
 9    1  0.1610296E-005  0.1027420E+03  0.7546771E-02  0.1276345E+00
         -4   -1    0    0    0  501 -0.00000000000E+00  0.00000000000E+00  0.18162725134E+03  0.18162725134E+03  0.00000000000E+00 0.  1.
         21   -1    0    0  501  502  0.00000000000E+00 -0.00000000000E+00 -0.20083521382E+03  0.20083521382E+03  0.00000000000E+00 0.  1.
         23    2    1    2    0    0 -0.47160522851E+02 -0.30100867847E+02  0.11464080748E+03  0.15877258733E+03  0.94530643632E+02 0.  0.
         23    2    1    2    0    0 -0.14830589160E+02  0.15852293008E+02 -0.23595617250E+02  0.96404067399E+02  0.90916167370E+02 0.  0.
        -11    1    4    4    0    0 -0.50881569192E+02  0.18724627345E+02 -0.19428698252E+01  0.54252377790E+02  0.00000000000E+00 0.  1.
         11    1    4    4    0    0  0.36050980033E+02 -0.28723343367E+01 -0.21652747425E+02  0.42151689609E+02  0.00000000000E+00 0. -1.
        -13    1    3    3    0    0 -0.45513361198E+02  0.61917991393E+01  0.11348057511E+03  0.12242403911E+03  0.00000000000E+00 0.  1.
         13    1    3    3    0    0 -0.16471616528E+01 -0.36292666986E+02  0.11602323732E+01  0.36348548219E+02  0.00000000000E+00 0. -1.
         -4    1    1    2    0  502  0.61991112011E+02  0.14248574839E+02 -0.11025315271E+03  0.12728581043E+03  0.00000000000E+00 0.  1.
<scales pt_clust_5="13000.00000" pt_clust_6="13000.00000" pt_clust_7="13000.00000" pt_clust_8="13000.00000" pt_clust_9="63.60755"></scales>
<clustering>
<clus scale="   63.608">  2  9  1 -1</clus>
<clus scale="   90.916">  5  6 -1 -1</clus>
<clus scale="   94.531">  7  8 -1 -1</clus>
<clus scale="   99.426">  2  5  1 -1</clus>
<clus scale="   63.608">  2  5  1 -1</clus>
</clustering>
</event>
<event>
 9    1  0.1610296E-005  0.1642616E+03  0.7546771E-02  0.1196944E+00
         21   -1    0    0  501  502  0.00000000000E+00  0.00000000000E+00  0.34396704085E+03  0.34396704085E+03  0.00000000000E+00 0. -1.
          3   -1    0    0  502    0 -0.00000000000E+00 -0.00000000000E+00 -0.19392589382E+03  0.19392589382E+03  0.00000000000E+00 0. -1.
         23    2    1    2    0    0  0.28063527951E+02  0.68997742039E+02 -0.93899869480E+01  0.12370190243E+03  0.98314489278E+02 0.  0.
         23    2    1    2    0    0 -0.78875311041E+02  0.67010108628E+02 -0.60121146625E+02  0.15097405585E+03  0.92015998158E+02 0.  0.
        -11    1    4    4    0    0  0.99105756651E+01  0.27390606085E+02  0.10331641212E+02  0.30906433341E+02  0.00000000000E+00 0.  1.
         11    1    4    4    0    0 -0.88785886707E+02  0.39619502542E+02 -0.70452787837E+02  0.12006762250E+03  0.00000000000E+00 0. -1.
        -13    1    3    3    0    0  0.36546618346E+02  0.18251613285E+02  0.36483556655E+02  0.54770672866E+02  0.00000000000E+00 0.  1.
         13    1    3    3    0    0 -0.84830903951E+01  0.50746128755E+02 -0.45873543603E+02  0.68931229562E+02  0.00000000000E+00 0. -1.
          3    1    1    2  501    0  0.50811783090E+02 -0.13600785067E+03  0.21955228061E+03  0.26321697640E+03  0.00000000000E+00 0. -1.
<scales pt_clust_5="13000.00000" pt_clust_6="13000.00000" pt_clust_7="13000.00000" pt_clust_8="13000.00000" pt_clust_9="136.06960"></scales>
<clustering>
<clus scale="   92.016">  5  6 -1 -1</clus>
<clus scale="   98.314">  7  8 -1 -1</clus>
<clus scale="  123.345">  2  7  1 -1</clus>
<clus scale="  136.070">  1  9  2 -1</clus>
<clus scale="  136.070">  1  5  2 -1</clus>
</clustering>
</event>
<event>
 9    1  0.1610296E-005  0.1606483E+03  0.7546771E-02  0.1187988E+00
         21   -1    0    0  501  502  0.00000000000E+00  0.00000000000E+00  0.11080409775E+03  0.11080409775E+03  0.00000000000E+00 0. -1.
          1   -1    0    0  502    0 -0.00000000000E+00 -0.00000000000E+00 -0.39646423024E+03  0.39646423024E+03  0.00000000000E+00 0. -1.
         23    2    1    2    0    0  0.12955082561E+03 -0.61872331355E+00 -0.25206549761E+03  0.29765306483E+03  0.90975450971E+02 0.  0.
         23    2    1    2    0    0 -0.13902889987E+03  0.24193080363E+02 -0.54626320965E+02  0.17663169116E+03  0.91106417138E+02 0.  0.
        -11    1    4    4    0    0 -0.53035157019E+01 -0.23708557411E+02 -0.17110264933E+02  0.29715049039E+02  0.00000000000E+00 0.  1.
         11    1    4    4    0    0 -0.13372538417E+03  0.47901637774E+02 -0.37516056031E+02  0.14691664212E+03  0.00000000000E+00 0. -1.
        -11    1    3    3    0    0  0.29136426049E+02  0.23947796138E+02 -0.18030146823E+02  0.41803282852E+02  0.00000000000E+00 0.  1.
         11    1    3    3    0    0  0.10041439956E+03 -0.24566519452E+02 -0.23403535079E+03  0.25584978197E+03  0.00000000000E+00 0. -1.
          1    1    1    2  501    0  0.94780742575E+01 -0.23574357050E+02  0.21031686088E+02  0.32983571997E+02  0.00000000000E+00 0. -1.
<scales pt_clust_5="13000.00000" pt_clust_6="13000.00000" pt_clust_7="13000.00000" pt_clust_8="13000.00000" pt_clust_9="25.40835"></scales>
<clustering>
<clus scale="   25.408">  1  9  2 -1</clus>
<clus scale="   90.975">  7  8 -1 -1</clus>
<clus scale="   91.106">  5  6 -1 -1</clus>
<clus scale="  160.574">  2  7  1 -1</clus>
<clus scale="   25.408">  1  5  2 -1</clus>
</clustering>
</event>
<event>
 9    1  0.1610296E-005  0.9872580E+02  0.7546771E-02  0.1283385E+00
          3   -1    0    0  502    0 -0.00000000000E+00  0.00000000000E+00  0.25742902641E+03  0.25742902641E+03  0.00000000000E+00 0. -1.
         21   -1    0    0  501  502  0.00000000000E+00 -0.00000000000E+00 -0.11679065702E+03  0.11679065702E+03  0.00000000000E+00 0. -1.
         23    2    1    2    0    0  0.19619040810E+02  0.56018578851E+02  0.12089332316E+03  0.16007938622E+03  0.86528760364E+02 0.  0.
         23    2    1    2    0    0  0.50868121010E+02 -0.29176966906E+02  0.67381490608E+02  0.12493187302E+03  0.87343268125E+02 0.  0.
        -11    1    3    3    0    0  0.12688082390E+02  0.75755099002E+02  0.11509670802E+03  0.13837295493E+03  0.00000000000E+00 0. -1.
         11    1    3    3    0    0  0.69309584202E+01 -0.19736520152E+02  0.57966151405E+01  0.21706431291E+02  0.00000000000E+00 0.  1.
        -11    1    4    4    0    0 -0.15357741808E+02  0.17963199992E+02  0.11467378965E+02  0.26268566153E+02  0.00000000000E+00 0.  1.
         11    1    4    4    0    0  0.66225862818E+02 -0.47140166898E+02  0.55914111643E+02  0.98663306867E+02  0.00000000000E+00 0. -1.
          3    1    1    2  501    0 -0.70487161820E+02 -0.26841611945E+02 -0.47636444377E+02  0.89208424188E+02  0.00000000000E+00 0. -1.
<scales pt_clust_5="13000.00000" pt_clust_6="13000.00000" pt_clust_7="13000.00000" pt_clust_8="13000.00000" pt_clust_9="75.42488"></scales>
<clustering>
<clus scale="   75.425">  2  9  1 -1</clus>
<clus scale="   86.529">  5  6 -1 -1</clus>
<clus scale="   87.343">  7  8 -1 -1</clus>
<clus scale="   98.006">  1  5  2 -1</clus>
<clus scale="   75.425">  2  5  1 -1</clus>
</clustering>
</event>
<event>
 9    1  0.1610296E-005  0.1352967E+03  0.7546771E-02  0.1219989E+00
         21   -1    0    0  501  502  0.00000000000E+00  0.00000000000E+00  0.12929953715E+03  0.12929953715E+03  0.00000000000E+00 0.  1.
         -2   -1    0    0    0  501 -0.00000000000E+00 -0.00000000000E+00 -0.25840676212E+03  0.25840676212E+03  0.00000000000E+00 0.  1.
         23    2    1    2    0    0  0.38300179074E+02 -0.76038840903E+02 -0.99449604865E+02  0.15975896604E+03  0.91563607827E+02 0.  0.
         23    2    1    2    0    0 -0.58526311016E+02  0.12650552822E+03 -0.68809905370E+00  0.16634200804E+03  0.90775615706E+02 0.  0.
        -11    1    3    3    0    0  0.34151904719E+02 -0.38376456316E+02  0.20546876057E+01  0.51413293383E+02  0.00000000000E+00 0. -1.
         11    1    3    3    0    0  0.41482743552E+01 -0.37662384587E+02 -0.10150429247E+03  0.10834567265E+03  0.00000000000E+00 0.  1.
        -11    1    4    4    0    0 -0.51052223889E+02  0.15243419788E+02 -0.10829904314E+02  0.54368908747E+02  0.00000000000E+00 0. -1.
         11    1    4    4    0    0 -0.74740871271E+01  0.11126210843E+03  0.10141805260E+02  0.11197309929E+03  0.00000000000E+00 0.  1.
         -2    1    1    2    0  502  0.20226131943E+02 -0.50466687316E+02 -0.28969521050E+02  0.61605325191E+02  0.00000000000E+00 0.  1.
<scales pt_clust_5="13000.00000" pt_clust_6="13000.00000" pt_clust_7="13000.00000" pt_clust_8="13000.00000" pt_clust_9="54.36898"></scales>
<clustering>
<clus scale="   54.369">  1  9  2 -1</clus>
<clus scale="   90.776">  7  8 -1 -1</clus>
<clus scale="   91.564">  5  6 -1 -1</clus>
<clus scale="  134.765">  1  7  2 -1</clus>
<clus scale="   54.369">  1  5  2 -1</clus>
</clustering>
</event>
<event>
 9    1  0.1610296E-005  0.1433170E+03  0.7546771E-02  0.1208959E+00
          3   -1    0    0  502    0 -0.00000000000E+00  0.00000000000E+00  0.16486783502E+03  0.16486783502E+03  0.00000000000E+00 0. -1.
         21   -1    0    0  501  502  0.00000000000E+00 -0.00000000000E+00 -0.21109115366E+03  0.21109115366E+03  0.00000000000E+00 0.  1.
         23    2    1    2    0    0  0.11192147492E+03 -0.25246208254E+02  0.76434241882E+02  0.16518039884E+03  0.90986720181E+02 0.  0.
         23    2    1    2    0    0 -0.10212864382E+03 -0.76739669959E+01 -0.94440087821E+02  0.16632790656E+03  0.90867445518E+02 0.  0.
        -11    1    4    4    0    0 -0.35996657736E+02  0.30688290534E+01 -0.92495838743E+02  0.99300842215E+02  0.00000000000E+00 0.  1.
         11    1    4    4    0    0 -0.66131986081E+02 -0.10742796049E+02 -0.19442490788E+01  0.67027064343E+02  0.00000000000E+00 0. -1.
        -13    1    3    3    0    0  0.35180953612E+02 -0.39680413377E+02  0.68592284197E+02  0.86701419563E+02  0.00000000000E+00 0.  1.
         13    1    3    3    0    0  0.76740521305E+02  0.14434205123E+02  0.78419576844E+01  0.78478979275E+02  0.00000000000E+00 0. -1.
          3    1    1    2  501    0 -0.97928311006E+01  0.32920175250E+02 -0.28217472702E+02  0.44450683292E+02  0.00000000000E+00 0. -1.
<scales pt_clust_5="13000.00000" pt_clust_6="13000.00000" pt_clust_7="13000.00000" pt_clust_8="13000.00000" pt_clust_9="34.34585"></scales>
<clustering>
<clus scale="   34.346">  2  9  1 -1</clus>
<clus scale="   90.867">  5  6 -1 -1</clus>
<clus scale="   90.987">  7  8 -1 -1</clus>
<clus scale="  143.241">  2  5  1 -1</clus>
<clus scale="   34.346">  2  5  1 -1</clus>
</clustering>
</event>
<event>
 9    1  0.1610296E-005  0.1361360E+03  0.7546771E-02  0.1218660E+00
         21   -1    0    0  501  502  0.00000000000E+00  0.00000000000E+00  0.32328679576E+03  0.32328679576E+03  0.00000000000E+00 0. -1.
          4   -1    0    0  502    0 -0.00000000000E+00 -0.00000000000E+00 -0.24678611233E+03  0.24678611233E+03  0.00000000000E+00 0. -1.
         23    2    1    2    0    0 -0.92874970485E+01  0.83873886623E+02 -0.89031605186E+02  0.15291159913E+03  0.91292080532E+02 0.  0.
         23    2    1    2    0    0 -0.17956317536E+02 -0.12788513971E+03 -0.72150119217E+02  0.17390806063E+03  0.91440338756E+02 0.  0.
        -11    1    4    4    0    0 -0.53850432541E+02 -0.88053787669E+02 -0.58249071264E+02  0.11851705747E+03  0.00000000000E+00 0. -1.
         11    1    4    4    0    0  0.35894115005E+02 -0.39831352038E+02 -0.13901047953E+02  0.55391003162E+02  0.00000000000E+00 0.  1.
        -13    1    3    3    0    0  0.26945287564E+02 -0.40782652138E+01 -0.31877383924E+02  0.41938626288E+02  0.00000000000E+00 0. -1.
         13    1    3    3    0    0 -0.36232784612E+02  0.87952151837E+02 -0.57154221262E+02  0.11097297284E+03  0.00000000000E+00 0.  1.
          4    1    1    2  501    0  0.27243814585E+02  0.44011253083E+02  0.23768240783E+03  0.24325324833E+03  0.00000000000E+00 0. -1.
<scales pt_clust_5="13000.00000" pt_clust_6="13000.00000" pt_clust_7="13000.00000" pt_clust_8="13000.00000" pt_clust_9="51.76114"></scales>
<clustering>
<clus scale="   51.761">  1  9  2 -1</clus>
<clus scale="   91.292">  7  8 -1 -1</clus>
<clus scale="   91.440">  5  6 -1 -1</clus>
<clus scale="  136.036">  2  7  1 -1</clus>
<clus scale="   51.761">  1  5  2 -1</clus>
</clustering>
</event>
<event>
 9    1  0.1610296E-005  0.9686573E+02  0.7546771E-02  0.1288639E+00
         21   -1    0    0  501  502  0.00000000000E+00  0.00000000000E+00  0.10046648843E+03  0.10046648843E+03  0.00000000000E+00 0.  1.
          2   -1    0    0  502    0 -0.00000000000E+00 -0.00000000000E+00 -0.22995944314E+03  0.22995944314E+03  0.00000000000E+00 0. -1.
         23    2    1    2    0    0 -0.17439318120E+02 -0.33611567427E+01 -0.13407169529E+03  0.16521723245E+03  0.94900406900E+02 0.  0.
         23    2    1    2    0    0  0.21182860291E+02 -0.21804070865E+02 -0.47036729197E+02  0.10766341687E+03  0.91950129755E+02 0.  0.
        -11    1    3    3    0    0 -0.30807835318E+02  0.21041031443E+02 -0.10792635318E+02  0.38837207653E+02  0.00000000000E+00 0.  1.
         11    1    3    3    0    0  0.13368517198E+02 -0.24402188186E+02 -0.12327905997E+03  0.12638002480E+03  0.00000000000E+00 0. -1.
        -13    1    4    4    0    0  0.73049080007E+00  0.34586488438E+02 -0.63250896602E+01  0.35167677753E+02  0.00000000000E+00 0.  1.
         13    1    4    4    0    0  0.20452369490E+02 -0.56390559303E+02 -0.40711639537E+02  0.72495739117E+02  0.00000000000E+00 0. -1.
          2    1    1    2  501    0 -0.37435421709E+01  0.25165227608E+02  0.51615469783E+02  0.57545282252E+02  0.00000000000E+00 0. -1.
<scales pt_clust_5="13000.00000" pt_clust_6="13000.00000" pt_clust_7="13000.00000" pt_clust_8="13000.00000" pt_clust_9="25.44215"></scales>
<clustering>
<clus scale="   25.442">  1  9  2 -1</clus>
<clus scale="   91.950">  7  8 -1 -1</clus>
<clus scale="   93.977">  1  7  2 -1</clus>
<clus scale="   94.900">  5  6 -1 -1</clus>
<clus scale="   25.442">  1  5  2 -1</clus>
</clustering>
</event>
<event>
 9    1  0.1610296E-005  0.1196191E+03  0.7546771E-02  0.1246322E+00
         21   -1    0    0  501  502  0.00000000000E+00  0.00000000000E+00  0.21545764281E+03  0.21545764281E+03  0.00000000000E+00 0. -1.
          2   -1    0    0  502    0 -0.00000000000E+00 -0.00000000000E+00 -0.12471591540E+03  0.12471591540E+03  0.00000000000E+00 0. -1.
         23    2    1    2    0    0 -0.20799027692E+02 -0.75036036596E+02 -0.54081784369E+02  0.12775575892E+03  0.85636955782E+02 0.  0.
         23    2    1    2    0    0 -0.33719236436E+01  0.67555874977E+02  0.73803905129E+02  0.13702567614E+03  0.93562029666E+02 0.  0.
        -11    1    4    4    0    0  0.21108562716E+02  0.83413189370E+02  0.58894762021E+02  0.10426852149E+03  0.00000000000E+00 0.  1.
         11    1    4    4    0    0 -0.24480486359E+02 -0.15857314393E+02  0.14909143109E+02  0.32757154644E+02  0.00000000000E+00 0. -1.
        -11    1    3    3    0    0  0.21499829335E+02  0.38985375402E+01 -0.25871124664E+02  0.33863791101E+02  0.00000000000E+00 0.  1.
         11    1    3    3    0    0 -0.42298857026E+02 -0.78934574136E+02 -0.28210659705E+02  0.93891967818E+02  0.00000000000E+00 0. -1.
          2    1    1    2  501    0  0.24170951335E+02  0.74801616187E+01  0.71019606649E+02  0.75392123162E+02  0.00000000000E+00 0. -1.
<scales pt_clust_5="13000.00000" pt_clust_6="13000.00000" pt_clust_7="13000.00000" pt_clust_8="13000.00000" pt_clust_9="25.30193"></scales>
<clustering>
<clus scale="   25.302">  1  9  2 -1</clus>
<clus scale="   85.637">  7  8 -1 -1</clus>
<clus scale="   93.562">  5  6 -1 -1</clus>
<clus scale="  113.528">  2  7  1 -1</clus>
<clus scale="   25.302">  1  5  2 -1</clus>
</clustering>
</event>
<event>
 9    1  0.1610296E-005  0.2972319E+03  0.7546771E-02  0.1132996E+00
          1   -1    0    0  502    0 -0.00000000000E+00  0.00000000000E+00  0.13216456239E+03  0.13216456239E+03  0.00000000000E+00 0. -1.
         21   -1    0    0  501  502  0.00000000000E+00 -0.00000000000E+00 -0.13225737884E+04  0.13225737884E+04  0.00000000000E+00 0. -1.
         23    2    1    2    0    0 -0.90993795170E+01 -0.12193462626E+02  0.35069540908E+02  0.97674346410E+02  0.89882846020E+02 0.  0.
         23    2    1    2    0    0 -0.27573096201E+03 -0.29296979630E+02 -0.54332542251E+03  0.61667021352E+03  0.90519396075E+02 0.  0.
        -11    1    4    4    0    0 -0.14452711172E+03 -0.38303018004E+02 -0.37023716115E+03  0.39928781938E+03  0.00000000000E+00 0. -1.
         11    1    4    4    0    0 -0.13120385030E+03  0.90060383737E+01 -0.17308826136E+03  0.21738239414E+03  0.00000000000E+00 0.  1.
        -13    1    3    3    0    0  0.38742672122E+02  0.74033164801E+01  0.16131094775E+02  0.42614738726E+02  0.00000000000E+00 0.  1.
         13    1    3    3    0    0 -0.47842051639E+02 -0.19596779106E+02  0.18938446132E+02  0.55059607684E+02  0.00000000000E+00 0. -1.
          1    1    1    2  501    0  0.28483034153E+03  0.41490442256E+02 -0.68215334442E+03  0.74039379087E+03  0.00000000000E+00 0. -1.
<scales pt_clust_5="13000.00000" pt_clust_6="13000.00000" pt_clust_7="13000.00000" pt_clust_8="13000.00000" pt_clust_9="283.11307"></scales>
<clustering>
<clus scale="   89.883">  7  8 -1 -1</clus>
<clus scale="   90.519">  5  6 -1 -1</clus>
<clus scale="   91.161">  1  7  2 -1</clus>
<clus scale="  283.113">  2  9  1 -1</clus>
<clus scale="  283.113">  2  5  1 -1</clus>
</clustering>
</event>
<event>
 9    1  0.1610296E-005  0.3380530E+03  0.7546771E-02  0.1067641E+00
         -2   -1    0    0    0  501 -0.00000000000E+00  0.00000000000E+00  0.97488188086E+03  0.97488188086E+03  0.00000000000E+00 0.  1.
         21   -1    0    0  501  502  0.00000000000E+00 -0.00000000000E+00 -0.22976123641E+03  0.22976123641E+03  0.00000000000E+00 0. -1.
         23    2    1    2    0    0 -0.12082700655E+03 -0.19836488641E+03  0.12811957281E+03  0.28031004153E+03  0.90616227962E+02 0.  0.
         23    2    1    2    0    0  0.28097973634E+03  0.35677414567E+03  0.41403240951E+03  0.62111917750E+03  0.90159820811E+02 0.  0.
        -11    1    3    3    0    0 -0.11195204563E+02 -0.68108983880E+02  0.31120510984E+01  0.69093061536E+02  0.00000000000E+00 0. -1.
         11    1    3    3    0    0 -0.10963180199E+03 -0.13025590253E+03  0.12500752172E+03  0.21121697999E+03  0.00000000000E+00 0.  1.
        -11    1    4    4    0    0  0.51364330664E+02  0.40401746085E+02  0.10108319050E+03  0.12036779865E+03  0.00000000000E+00 0.  1.
         11    1    4    4    0    0  0.22961540567E+03  0.31637239959E+03  0.31294921901E+03  0.50075137885E+03  0.00000000000E+00 0. -1.
         -2    1    1    2    0  502 -0.16015272979E+03 -0.15840925926E+03  0.20296866213E+03  0.30321389824E+03  0.00000000000E+00 0.  1.
<scales pt_clust_5="13000.00000" pt_clust_6="13000.00000" pt_clust_7="13000.00000" pt_clust_8="13000.00000" pt_clust_9="225.26083"></scales>
<clustering>
<clus scale="   90.160">  7  8 -1 -1</clus>
<clus scale="   90.616">  5  6 -1 -1</clus>
<clus scale="  225.261">  2  9  1 -1</clus>
<clus scale="  337.931">  2  7  1 -1</clus>
<clus scale="  225.261">  2  5  1 -1</clus>
</clustering>
</event>
<event>
 9    1  0.1610296E-005  0.1251123E+03  0.7546771E-02  0.1235158E+00
         21   -1    0    0  501  502  0.00000000000E+00  0.00000000000E+00  0.55454908078E+02  0.55454908078E+02  0.00000000000E+00 0. -1.
         -3   -1    0    0    0  501 -0.00000000000E+00 -0.00000000000E+00 -0.55556338123E+03  0.55556338123E+03  0.00000000000E+00 0.  1.
         23    2    1    2    0    0  0.98040993713E+01 -0.87222839285E+02 -0.26730533256E+03  0.29575265891E+03  0.91178672834E+02 0.  0.
         23    2    1    2    0    0  0.34597052436E+02  0.80279178114E+02 -0.23827040931E+03  0.26999347848E+03  0.92097708926E+02 0.  0.
        -11    1    4    4    0    0  0.31828760788E+02  0.10096810221E+03 -0.20488694270E+03  0.23062152321E+03  0.00000000000E+00 0.  1.
         11    1    4    4    0    0  0.27682916483E+01 -0.20688924092E+02 -0.33383466609E+02  0.39371955268E+02  0.00000000000E+00 0. -1.
        -11    1    3    3    0    0  0.43984417993E+02 -0.14685086713E+02 -0.98683915864E+02  0.10903575582E+03  0.00000000000E+00 0. -1.
         11    1    3    3    0    0 -0.34180318622E+02 -0.72537752572E+02 -0.16862141670E+03  0.18671690309E+03  0.00000000000E+00 0.  1.
         -3    1    1    2    0  502 -0.44401151808E+02  0.69436611710E+01  0.54672687221E+01  0.45272151921E+02  0.00000000000E+00 0.  1.
<scales pt_clust_5="13000.00000" pt_clust_6="13000.00000" pt_clust_7="13000.00000" pt_clust_8="13000.00000" pt_clust_9="44.94081"></scales>
<clustering>
<clus scale="   44.941">  1  9  2 -1</clus>
<clus scale="   91.179">  7  8 -1 -1</clus>
<clus scale="   92.098">  5  6 -1 -1</clus>
<clus scale="  124.437">  2  7  1 -1</clus>
<clus scale="   44.941">  1  5  2 -1</clus>
</clustering>
</event>
<event>
 9    1  0.1610296E-005  0.1042615E+03  0.7546771E-02  0.1272067E+00
          3   -1    0    0  502    0 -0.00000000000E+00  0.00000000000E+00  0.21227681734E+03  0.21227681734E+03  0.00000000000E+00 0. -1.
         21   -1    0    0  501  502  0.00000000000E+00 -0.00000000000E+00 -0.21353583134E+03  0.21353583134E+03  0.00000000000E+00 0.  1.
         23    2    1    2    0    0  0.42410849841E+02 -0.24095788921E+02  0.17661397551E+03  0.20474116476E+03  0.91362798625E+02 0.  0.
         23    2    1    2    0    0 -0.46528311965E+02 -0.24575334476E+00 -0.16012334913E+03  0.19066566363E+03  0.92460608593E+02 0.  0.
        -11    1    3    3    0    0  0.28574589829E+02 -0.58883591471E+02  0.12330606130E+03  0.13960003324E+03  0.00000000000E+00 0.  1.
         11    1    3    3    0    0  0.13836260012E+02  0.34787802550E+02  0.53307914217E+02  0.65141131519E+02  0.00000000000E+00 0. -1.
        -11    1    4    4    0    0 -0.45332374219E+02 -0.41913795758E+02 -0.99308197907E+02  0.11693548905E+03  0.00000000000E+00 0.  1.
         11    1    4    4    0    0 -0.11959377462E+01  0.41668042413E+02 -0.60815151223E+02  0.73730174582E+02  0.00000000000E+00 0. -1.
          3    1    1    2  501    0  0.41174621240E+01  0.24341542266E+02 -0.17749640385E+02  0.30405820298E+02  0.00000000000E+00 0. -1.
<scales pt_clust_5="13000.00000" pt_clust_6="13000.00000" pt_clust_7="13000.00000" pt_clust_8="13000.00000" pt_clust_9="24.68733"></scales>
<clustering>
<clus scale="   24.687">  2  9  1 -1</clus>
<clus scale="   91.363">  5  6 -1 -1</clus>
<clus scale="   92.461">  7  8 -1 -1</clus>
<clus scale="  103.289">  1  5  2 -1</clus>
<clus scale="   24.687">  2  5  1 -1</clus>
</clustering>
</event>
<event>
 9    1  0.1610296E-005  0.1554148E+03  0.7546771E-02  0.1196459E+00
          1   -1    0    0  502    0 -0.00000000000E+00  0.00000000000E+00  0.62071843207E+03  0.62071843207E+03  0.00000000000E+00 0. -1.
         21   -1    0    0  501  502  0.00000000000E+00 -0.00000000000E+00 -0.11566606940E+03  0.11566606940E+03  0.00000000000E+00 0.  1.
         23    2    1    2    0    0  0.84140219760E+02  0.60201426328E+02  0.39699479363E+03  0.42061756814E+03  0.92792694484E+02 0.  0.
         23    2    1    2    0    0 -0.11651268866E+03 -0.10167433114E+03  0.15673415411E+03  0.24409135513E+03  0.10536659032E+03 0.  0.
        -11    1    4    4    0    0 -0.12132538861E+03 -0.43791364471E+02  0.11075819203E+03  0.17001444240E+03  0.00000000000E+00 0.  1.
         11    1    4    4    0    0  0.48126999440E+01 -0.57882966673E+02  0.45975962072E+02  0.74076912733E+02  0.00000000000E+00 0. -1.
        -11    1    3    3    0    0  0.65382831579E+02  0.41862435274E+02  0.38318715126E+03  0.39097285205E+03  0.00000000000E+00 0. -1.
         11    1    3    3    0    0  0.18757388180E+02  0.18338991054E+02  0.13807642367E+02  0.29644716088E+02  0.00000000000E+00 0.  1.
          1    1    1    2  501    0  0.32372468903E+02  0.41472904816E+02 -0.48676585062E+02  0.71675578198E+02  0.00000000000E+00 0. -1.
<scales pt_clust_5="13000.00000" pt_clust_6="13000.00000" pt_clust_7="13000.00000" pt_clust_8="13000.00000" pt_clust_9="52.61158"></scales>
<clustering>
<clus scale="   52.612">  2  9  1 -1</clus>
<clus scale="   92.793">  7  8 -1 -1</clus>
<clus scale="  105.367">  5  6 -1 -1</clus>
<clus scale="  147.181">  1  7  2 -1</clus>
<clus scale="   52.612">  2  5  1 -1</clus>
</clustering>
</event>
<event>
 9    1  0.1610296E-005  0.1016626E+03  0.7546771E-02  0.1276906E+00
         -3   -1    0    0    0  501 -0.00000000000E+00  0.00000000000E+00  0.11659443660E+03  0.11659443660E+03  0.00000000000E+00 0.  1.
         21   -1    0    0  501  502  0.00000000000E+00 -0.00000000000E+00 -0.11871342667E+03  0.11871342667E+03  0.00000000000E+00 0.  1.
         23    2    1    2    0    0 -0.43626637057E+02 -0.23682526884E+02  0.94444790795E+01  0.10469837277E+03  0.91697358384E+02 0.  0.
         23    2    1    2    0    0  0.40764790303E+02 -0.39198522168E+01 -0.18548986620E+02  0.10199342939E+03  0.91550321491E+02 0.  0.
        -13    1    3    3    0    0  0.17279705959E+02 -0.11094028926E+02 -0.25986459161E+02  0.33120413276E+02  0.00000000000E+00 0. -1.
         13    1    3    3    0    0 -0.60906343016E+02 -0.12588497958E+02  0.35430938240E+02  0.71577959492E+02  0.00000000000E+00 0.  1.
        -13    1    4    4    0    0  0.50533132329E+02 -0.37971464526E+02 -0.20674688156E+02  0.66504678869E+02  0.00000000000E+00 0.  1.
         13    1    4    4    0    0 -0.97683420258E+01  0.34051612309E+02  0.21257015362E+01  0.35488750525E+02  0.00000000000E+00 0. -1.
         -3    1    1    2    0  502  0.28618467547E+01  0.27602379101E+02  0.69855174646E+01  0.28616061104E+02  0.00000000000E+00 0.  1.
<scales pt_clust_5="13000.00000" pt_clust_6="13000.00000" pt_clust_7="13000.00000" pt_clust_8="13000.00000" pt_clust_9="27.75036"></scales>
<clustering>
<clus scale="   27.750">  2  9  1 -1</clus>
<clus scale="   91.550">  7  8 -1 -1</clus>
<clus scale="   91.697">  5  6 -1 -1</clus>
<clus scale="  101.530">  2  7  1 -1</clus>
<clus scale="   27.750">  2  5  1 -1</clus>
</clustering>
</event>
<event>
 9    1  0.1610296E-005  0.1016712E+03  0.7546771E-02  0.1277476E+00
         21   -1    0    0  501  502  0.00000000000E+00  0.00000000000E+00  0.14190444685E+03  0.14190444685E+03  0.00000000000E+00 0.  1.
          2   -1    0    0  502    0 -0.00000000000E+00 -0.00000000000E+00 -0.34260335461E+03  0.34260335461E+03  0.00000000000E+00 0. -1.
         23    2    1    2    0    0  0.16346230066E+02  0.37499262378E+02 -0.29955009698E+03  0.31622304213E+03  0.92700365998E+02 0.  0.
         23    2    1    2    0    0 -0.36873227189E+02 -0.38672781921E+02  0.53637750856E+02  0.11861595859E+03  0.91310012438E+02 0.  0.
        -11    1    4    4    0    0  0.17828571975E+01 -0.59623417223E+02  0.18874327110E+02  0.62564931751E+02  0.00000000000E+00 0.  1.
         11    1    4    4    0    0 -0.38656084387E+02  0.20950635301E+02  0.34763423746E+02  0.56051026844E+02  0.00000000000E+00 0. -1.
        -13    1    3    3    0    0 -0.38082712200E+02  0.15275519152E+02 -0.15061362898E+03  0.15610284971E+03  0.00000000000E+00 0.  1.
         13    1    3    3    0    0  0.54428942265E+02  0.22223743226E+02 -0.14893646800E+03  0.16012019242E+03  0.00000000000E+00 0. -1.
          2    1    1    2  501    0  0.20526997124E+02  0.11735195434E+01  0.45213438363E+02  0.49668800747E+02  0.00000000000E+00 0. -1.
<scales pt_clust_5="13000.00000" pt_clust_6="13000.00000" pt_clust_7="13000.00000" pt_clust_8="13000.00000" pt_clust_9="20.56051"></scales>
<clustering>
<clus scale="   20.561">  1  9  2 -1</clus>
<clus scale="   91.310">  5  6 -1 -1</clus>
<clus scale="   92.700">  7  8 -1 -1</clus>
<clus scale="  100.405">  1  5  2 -1</clus>
<clus scale="   20.561">  1  5  2 -1</clus>
</clustering>
</event>
<event>
 9    1  0.1610296E-005  0.1158711E+03  0.7546771E-02  0.1255353E+00
          2   -1    0    0  502    0 -0.00000000000E+00  0.00000000000E+00  0.51395166622E+03  0.51395166622E+03  0.00000000000E+00 0. -1.
         21   -1    0    0  501  502  0.00000000000E+00 -0.00000000000E+00 -0.14300178648E+03  0.14300178648E+03  0.00000000000E+00 0. -1.
         23    2    1    2    0    0 -0.38670763239E+02  0.18588046434E+02  0.23757126041E+03  0.26259957452E+03  0.10333193778E+03 0.  0.
         23    2    1    2    0    0  0.60061157222E+02 -0.13875363633E+02  0.25151138176E+03  0.27420768434E+03  0.90177661714E+02 0.  0.
        -11    1    3    3    0    0 -0.73063111641E+02  0.99756205948E+01  0.13156287897E+03  0.15081950276E+03  0.00000000000E+00 0.  1.
         11    1    3    3    0    0  0.34392348402E+02  0.86124258390E+01  0.10600838144E+03  0.11178007176E+03  0.00000000000E+00 0. -1.
        -11    1    4    4    0    0  0.63054649376E+02  0.23067021823E+02  0.11926030500E+03  0.13686123137E+03  0.00000000000E+00 0. -1.
         11    1    4    4    0    0 -0.29934921532E+01 -0.36942385456E+02  0.13225107676E+03  0.13734645297E+03  0.00000000000E+00 0.  1.
          2    1    1    2  501    0 -0.21390393983E+02 -0.47126828009E+01 -0.11813276244E+03  0.12014619384E+03  0.00000000000E+00 0. -1.
<scales pt_clust_5="13000.00000" pt_clust_6="13000.00000" pt_clust_7="13000.00000" pt_clust_8="13000.00000" pt_clust_9="21.90339"></scales>
<clustering>
<clus scale="   21.903">  2  9  1 -1</clus>
<clus scale="   90.178">  7  8 -1 -1</clus>
<clus scale="  103.332">  5  6 -1 -1</clus>
<clus scale="  104.310">  2  7  1 -1</clus>
<clus scale="   21.903">  2  5  1 -1</clus>
</clustering>
</event>
<event>
 9    1  0.1610296E-005  0.2486171E+03  0.7546771E-02  0.1140195E+00
          1   -1    0    0  502    0 -0.00000000000E+00  0.00000000000E+00  0.11448960543E+04  0.11448960543E+04  0.00000000000E+00 0. -1.
         21   -1    0    0  501  502  0.00000000000E+00 -0.00000000000E+00 -0.91254876240E+02  0.91254876240E+02  0.00000000000E+00 0.  1.
         23    2    1    2    0    0  0.19715505372E+02  0.92329191111E+02  0.38604253138E+03  0.40760094217E+03  0.90533481890E+02 0.  0.
         23    2    1    2    0    0 -0.22036333595E+03 -0.13807314258E+03  0.30146371765E+03  0.40854183693E+03  0.91661698268E+02 0.  0.
        -11    1    3    3    0    0 -0.11870700705E+02  0.94522004709E+02  0.32713246447E+03  0.34072125296E+03  0.00000000000E+00 0.  1.
         11    1    3    3    0    0  0.31586206077E+02 -0.21928135978E+01  0.58910066913E+02  0.66879689215E+02  0.00000000000E+00 0. -1.
        -13    1    4    4    0    0 -0.12709936428E+03 -0.11267457622E+03  0.23989698468E+03  0.29393940156E+03  0.00000000000E+00 0. -1.
         13    1    4    4    0    0 -0.93263971675E+02 -0.25398566357E+02  0.61566732964E+02  0.11460243537E+03  0.00000000000E+00 0.  1.
          1    1    1    2  501    0  0.20064783058E+03  0.45743951468E+02  0.36613492899E+03  0.42000815140E+03  0.00000000000E+00 0. -1.
<scales pt_clust_5="13000.00000" pt_clust_6="13000.00000" pt_clust_7="13000.00000" pt_clust_8="13000.00000" pt_clust_9="231.10310"></scales>
<clustering>
<clus scale="   90.533">  5  6 -1 -1</clus>
<clus scale="   91.662">  7  8 -1 -1</clus>
<clus scale="  130.804">  1  5  2 -1</clus>
<clus scale="  231.103">  2  9  1 -1</clus>
<clus scale="  231.103">  2  5  1 -1</clus>
</clustering>
</event>
<event>
 9    1  0.1610296E-005  0.1031384E+03  0.7546771E-02  0.1274680E+00
         21   -1    0    0  501  502  0.00000000000E+00  0.00000000000E+00  0.51718465088E+02  0.51718465088E+02  0.00000000000E+00 0. -1.
         -3   -1    0    0    0  501 -0.00000000000E+00 -0.00000000000E+00 -0.34206533372E+03  0.34206533372E+03  0.00000000000E+00 0.  1.
         23    2    1    2    0    0  0.30147647505E+02 -0.32918443745E+02 -0.15688302145E+03  0.18692583205E+03  0.91304324554E+02 0.  0.
         23    2    1    2    0    0 -0.58448640239E+02  0.82226534374E+01 -0.13097483544E+03  0.16921459512E+03  0.89416531505E+02 0.  0.
        -11    1    4    4    0    0 -0.97517258554E+01 -0.35165713670E+02 -0.74426376619E+02  0.82891550304E+02  0.00000000000E+00 0.  1.
         11    1    4    4    0    0 -0.48696914383E+02  0.43388367107E+02 -0.56548458820E+02  0.86323044811E+02  0.00000000000E+00 0. -1.
        -13    1    3    3    0    0  0.46865901372E+02 -0.55845175561E+02 -0.10570523748E+03  0.12840830805E+03  0.00000000000E+00 0.  1.
         13    1    3    3    0    0 -0.16718253867E+02  0.22926731817E+02 -0.51177783969E+02  0.58517524009E+02  0.00000000000E+00 0. -1.
         -3    1    1    2    0  502  0.28300992733E+02  0.24695790307E+02 -0.24890117425E+01  0.37643371635E+02  0.00000000000E+00 0.  1.
<scales pt_clust_5="13000.00000" pt_clust_6="13000.00000" pt_clust_7="13000.00000" pt_clust_8="13000.00000" pt_clust_9="37.56099"></scales>
<clustering>
<clus scale="   37.561">  1  9  2 -1</clus>
<clus scale="   89.417">  5  6 -1 -1</clus>
<clus scale="   91.304">  7  8 -1 -1</clus>
<clus scale="  101.471">  1  5  2 -1</clus>
<clus scale="   37.561">  1  5  2 -1</clus>
</clustering>
</event>
<event>
 9    1  0.1610296E-005  0.9517035E+02  0.7546771E-02  0.1290794E+00
         21   -1    0    0  501  502  0.00000000000E+00  0.00000000000E+00  0.62879633995E+02  0.62879633995E+02  0.00000000000E+00 0.  1.
          1   -1    0    0  502    0 -0.00000000000E+00 -0.00000000000E+00 -0.24446299578E+03  0.24446299578E+03  0.00000000000E+00 0. -1.
         23    2    1    2    0    0  0.23829292887E+02 -0.14792908173E+02 -0.14714019418E+03  0.17568527179E+03  0.91806386751E+02 0.  0.
         23    2    1    2    0    0 -0.23991483874E+02 -0.70795220141E+01 -0.47327741723E+02  0.10627150055E+03  0.91804170718E+02 0.  0.
        -11    1    3    3    0    0 -0.18835172714E+02 -0.25005927209E+02 -0.11872631384E+02  0.33481629333E+02  0.00000000000E+00 0.  1.
         11    1    3    3    0    0  0.42664465601E+02  0.10213019036E+02 -0.13526756280E+03  0.14220364246E+03  0.00000000000E+00 0. -1.
        -11    1    4    4    0    0 -0.18734607065E+02  0.41857928425E+02 -0.24905421090E+02  0.52185742052E+02  0.00000000000E+00 0. -1.
         11    1    4    4    0    0 -0.52568768082E+01 -0.48937450439E+02 -0.22422320633E+02  0.54085758493E+02  0.00000000000E+00 0.  1.
          1    1    1    2  501    0  0.16219098670E+00  0.21872430187E+02  0.12884574113E+02  0.25385857446E+02  0.00000000000E+00 0. -1.
<scales pt_clust_5="13000.00000" pt_clust_6="13000.00000" pt_clust_7="13000.00000" pt_clust_8="13000.00000" pt_clust_9="21.87303"></scales>
<clustering>
<clus scale="   21.873">  1  9  2 -1</clus>
<clus scale="   91.804">  7  8 -1 -1</clus>
<clus scale="   91.806">  5  6 -1 -1</clus>
<clus scale="   95.168">  1  7  2 -1</clus>
<clus scale="   21.873">  1  5  2 -1</clus>
</clustering>
</event>
<event>
 9    1  0.1610296E-005  0.1231324E+03  0.7546771E-02  0.1239399E+00
         21   -1    0    0  501  502  0.00000000000E+00  0.00000000000E+00  0.85202677622E+02  0.85202677622E+02  0.00000000000E+00 0. -1.
         -2   -1    0    0    0  501 -0.00000000000E+00 -0.00000000000E+00 -0.32599813974E+03  0.32599813974E+03  0.00000000000E+00 0.  1.
         23    2    1    2    0    0  0.94911228515E+02  0.20861642897E+02 -0.19254119598E+03  0.23498604419E+03  0.93289760273E+02 0.  0.
         23    2    1    2    0    0 -0.57781083959E+02 -0.89177832382E+01 -0.73990303534E+02  0.12948526387E+03  0.88733804279E+02 0.  0.
        -11    1    3    3    0    0  0.71695860480E+02  0.38810232787E+01 -0.45154765124E+02  0.84819287695E+02  0.00000000000E+00 0. -1.
         11    1    3    3    0    0  0.23215368035E+02  0.16980619618E+02 -0.14738643086E+03  0.15016675649E+03  0.00000000000E+00 0.  1.
        -11    1    4    4    0    0 -0.20419704115E+02  0.39208766195E+02 -0.21939665033E+02  0.49352209317E+02  0.00000000000E+00 0.  1.
         11    1    4    4    0    0 -0.37361379844E+02 -0.48126549433E+02 -0.52050638500E+02  0.80133054556E+02  0.00000000000E+00 0. -1.
         -2    1    1    2    0  502 -0.37130144556E+02 -0.11943859659E+02  0.25736037397E+02  0.46729509298E+02  0.00000000000E+00 0.  1.
<scales pt_clust_5="13000.00000" pt_clust_6="13000.00000" pt_clust_7="13000.00000" pt_clust_8="13000.00000" pt_clust_9="39.00389"></scales>
<clustering>
<clus scale="   39.004">  1  9  2 -1</clus>
<clus scale="   88.734">  7  8 -1 -1</clus>
<clus scale="   93.290">  5  6 -1 -1</clus>
<clus scale="  119.718">  1  7  2 -1</clus>
<clus scale="   39.004">  1  5  2 -1</clus>
</clustering>
</event>
<event>
 9    1  0.4163380E-005  0.1252986E+03  0.7546771E-02  0.1247370E+00
         21   -1    0    0  501  502  0.00000000000E+00  0.00000000000E+00  0.33224231702E+03  0.33224231702E+03  0.00000000000E+00 0. -1.
          3   -1    0    0  502    0 -0.00000000000E+00 -0.00000000000E+00 -0.64087560450E+03  0.64087560450E+03  0.00000000000E+00 0. -1.
         23    2    1    2    0    0  0.22593751039E+02 -0.59671549442E+01 -0.37269378060E+03  0.38432013465E+03  0.90858281273E+02 0.  0.
         23    2    1    2    0    0 -0.38050568357E+02  0.72287949151E+02 -0.23801041848E+03  0.27914605252E+03  0.12083114659E+03 0.  0.
        -11    1    3    3    0    0 -0.33665731249E+02  0.10011180478E+02 -0.15243467054E+03  0.15642868656E+03  0.00000000000E+00 0.  1.
         11    1    3    3    0    0  0.56259482288E+02 -0.15978335423E+02 -0.22025911006E+03  0.22789144810E+03  0.00000000000E+00 0. -1.
        -13    1    4    4    0    0 -0.54142834537E+02  0.99878142003E+02 -0.17802698666E+03  0.21118877281E+03  0.00000000000E+00 0.  1.
         13    1    4    4    0    0  0.16092266180E+02 -0.27590192852E+02 -0.59983431824E+02  0.67957279711E+02  0.00000000000E+00 0. -1.
          3    1    1    2  501    0  0.15456817318E+02 -0.66320794207E+02  0.30207091160E+03  0.30965173434E+03  0.00000000000E+00 0. -1.
<scales pt_clust_5="13000.00000" pt_clust_6="13000.00000" pt_clust_7="13000.00000" pt_clust_8="13000.00000" pt_clust_9="68.09817"></scales>
<clustering>
<clus scale="   68.098">  1  9  2 -1</clus>
<clus scale="   90.858">  5  6 -1 -1</clus>
<clus scale="   96.720">  2  5  1 -1</clus>
<clus scale="  120.831">  7  8 -1 -1</clus>
<clus scale="   68.098">  1  5  2 -1</clus>
</clustering>
</event>
<event>
 9    1  0.1610296E-005  0.9282326E+02  0.7546771E-02  0.1296948E+00
          1   -1    0    0  502    0 -0.00000000000E+00  0.00000000000E+00  0.28865065606E+03  0.28865065606E+03  0.00000000000E+00 0. -1.
         21   -1    0    0  501  502  0.00000000000E+00 -0.00000000000E+00 -0.10844505958E+03  0.10844505958E+03  0.00000000000E+00 0. -1.
         23    2    1    2    0    0 -0.47901225075E+00  0.30617960940E+02  0.13183781115E+03  0.16408789250E+03  0.92768200541E+02 0.  0.
         23    2    1    2    0    0 -0.73556555333E+01  0.34600479900E+02  0.10689316193E+03  0.14503028764E+03  0.91413004480E+02 0.  0.
        -11    1    3    3    0    0  0.15890775629E+02 -0.28858974863E+02  0.66596770716E+02  0.74299980148E+02  0.00000000000E+00 0.  1.
         11    1    3    3    0    0 -0.16369787880E+02  0.59476935803E+02  0.65241040438E+02  0.89787912356E+02  0.00000000000E+00 0. -1.
        -13    1    4    4    0    0 -0.23436920357E+02  0.83448948086E+01 -0.79609644304E+01  0.26120939107E+02  0.00000000000E+00 0.  1.
         13    1    4    4    0    0  0.16081264823E+02  0.26255585092E+02  0.11485412636E+03  0.11890934853E+03  0.00000000000E+00 0. -1.
          1    1    1    2  501    0  0.78346677841E+01 -0.65218440840E+02 -0.58525376608E+02  0.87977535497E+02  0.00000000000E+00 0. -1.
<scales pt_clust_5="13000.00000" pt_clust_6="13000.00000" pt_clust_7="13000.00000" pt_clust_8="13000.00000" pt_clust_9="65.68734"></scales>
<clustering>
<clus scale="   65.687">  2  9  1 -1</clus>
<clus scale="   91.413">  7  8 -1 -1</clus>
<clus scale="   91.469">  2  7  1 -1</clus>
<clus scale="   92.768">  5  6 -1 -1</clus>
<clus scale="   65.687">  2  5  1 -1</clus>
</clustering>
</event>
<event>
 9    1  0.1610296E-005  0.1063530E+03  0.7546771E-02  0.1272708E+00
         21   -1    0    0  501  502  0.00000000000E+00  0.00000000000E+00  0.10604805920E+03  0.10604805920E+03  0.00000000000E+00 0.  1.
         -3   -1    0    0    0  501 -0.00000000000E+00 -0.00000000000E+00 -0.41805620941E+03  0.41805620941E+03  0.00000000000E+00 0.  1.
         23    2    1    2    0    0  0.40426208027E+02 -0.40235710781E+02 -0.20630779200E+03  0.23254858164E+03  0.90899653827E+02 0.  0.
         23    2    1    2    0    0  0.23659583122E+02  0.70845710077E+02 -0.16605504452E+03  0.19835349363E+03  0.78682527394E+02 0.  0.
        -11    1    3    3    0    0  0.57631419939E+02  0.59909331242E+01 -0.10805134154E+03  0.12260654246E+03  0.00000000000E+00 0.  1.
         11    1    3    3    0    0 -0.17205211912E+02 -0.46226643905E+02 -0.98256450459E+02  0.10994203919E+03  0.00000000000E+00 0. -1.
        -11    1    4    4    0    0  0.15570763371E+02  0.41488158443E+02 -0.16161473500E+03  0.16757994669E+03  0.00000000000E+00 0.  1.
         11    1    4    4    0    0  0.80888197507E+01  0.29357551634E+02 -0.44403095159E+01  0.30773546944E+02  0.00000000000E+00 0. -1.
         -3    1    1    2    0  502 -0.64085791149E+02 -0.30609999296E+02  0.60354686305E+02  0.93202193338E+02  0.00000000000E+00 0.  1.
<scales pt_clust_5="13000.00000" pt_clust_6="13000.00000" pt_clust_7="13000.00000" pt_clust_8="13000.00000" pt_clust_9="71.02085"></scales>
<clustering>
<clus scale="   71.021">  1  9  2 -1</clus>
<clus scale="   78.683">  7  8 -1 -1</clus>
<clus scale="   90.900">  5  6 -1 -1</clus>
<clus scale="   96.121">  1  7  2 -1</clus>
<clus scale="   71.021">  1  5  2 -1</clus>
</clustering>
</event>
<event>
 9    1  0.1610296E-005  0.1107456E+03  0.7546771E-02  0.1262394E+00
         21   -1    0    0  501  502  0.00000000000E+00  0.00000000000E+00  0.31265830597E+03  0.31265830597E+03  0.00000000000E+00 0. -1.
          1   -1    0    0  502    0 -0.00000000000E+00 -0.00000000000E+00 -0.18638436121E+03  0.18638436121E+03  0.00000000000E+00 0. -1.
         23    2    1    2    0    0  0.29817539941E+02 -0.38057818222E+02 -0.80492725964E+02  0.12618839444E+03  0.84302720855E+02 0.  0.
         23    2    1    2    0    0 -0.18588258286E+02  0.97190770292E+02 -0.21182350173E+02  0.13709261573E+03  0.92488508219E+02 0.  0.
        -11    1    3    3    0    0 -0.18990997123E+02 -0.31478822290E+02 -0.65459269265E+01  0.37341978841E+02  0.00000000000E+00 0.  1.
         11    1    3    3    0    0  0.48808537063E+02 -0.65789959325E+01 -0.73946799037E+02  0.88846415603E+02  0.00000000000E+00 0. -1.
        -11    1    4    4    0    0 -0.30005273786E+02  0.61595853268E+02  0.29098698158E+02  0.74438564127E+02  0.00000000000E+00 0.  1.
         11    1    4    4    0    0  0.11417015499E+02  0.35594917024E+02 -0.50281048332E+02  0.62654051602E+02  0.00000000000E+00 0. -1.
          1    1    1    2  501    0 -0.11229281654E+02 -0.59132952070E+02  0.22794902090E+03  0.23576165701E+03  0.00000000000E+00 0. -1.
<scales pt_clust_5="13000.00000" pt_clust_6="13000.00000" pt_clust_7="13000.00000" pt_clust_8="13000.00000" pt_clust_9="60.18972"></scales>
<clustering>
<clus scale="   60.190">  1  9  2 -1</clus>
<clus scale="   84.303">  5  6 -1 -1</clus>
<clus scale="   92.489">  7  8 -1 -1</clus>
<clus scale="  104.007">  2  5  1 -1</clus>
<clus scale="   60.190">  1  5  2 -1</clus>
</clustering>
</event>
<event>
 9    1  0.1610296E-005  0.1163788E+03  0.7546771E-02  0.1253066E+00
         21   -1    0    0  501  502  0.00000000000E+00  0.00000000000E+00  0.13689755262E+03  0.13689755262E+03  0.00000000000E+00 0. -1.
          1   -1    0    0  502    0 -0.00000000000E+00 -0.00000000000E+00 -0.43567831109E+03  0.43567831109E+03  0.00000000000E+00 0. -1.
         23    2    1    2    0    0 -0.80212958636E+02 -0.28622954943E+02 -0.25357643779E+03  0.28481546585E+03  0.97803105789E+02 0.  0.
         23    2    1    2    0    0  0.45154189584E+02 -0.11567118518E+02 -0.14443644698E+03  0.17510439856E+03  0.87332491725E+02 0.  0.
        -11    1    3    3    0    0  0.22946062328E+02 -0.87080871401E+01 -0.44174667046E+02  0.50534678851E+02  0.00000000000E+00 0.  1.
         11    1    3    3    0    0 -0.10315902096E+03 -0.19914867803E+02 -0.20940177074E+03  0.23428078699E+03  0.00000000000E+00 0. -1.
        -11    1    4    4    0    0  0.48992855670E+02  0.29226691798E+02 -0.95900137333E+02  0.11158555355E+03  0.00000000000E+00 0.  1.
         11    1    4    4    0    0 -0.38386660854E+01 -0.40793810316E+02 -0.48536309643E+02  0.63518845008E+02  0.00000000000E+00 0. -1.
          1    1    1    2  501    0  0.35058769052E+02  0.40190073461E+02  0.99232126287E+02  0.11265599931E+03  0.00000000000E+00 0. -1.
<scales pt_clust_5="13000.00000" pt_clust_6="13000.00000" pt_clust_7="13000.00000" pt_clust_8="13000.00000" pt_clust_9="53.33254"></scales>
<clustering>
<clus scale="   53.333">  1  9  2 -1</clus>
<clus scale="   87.332">  7  8 -1 -1</clus>
<clus scale="   97.803">  5  6 -1 -1</clus>
<clus scale="  107.729">  1  7  2 -1</clus>
<clus scale="   53.333">  1  5  2 -1</clus>
</clustering>
</event>
<event>
 9    1  0.1610296E-005  0.1228315E+03  0.7546771E-02  0.1242187E+00
          2   -1    0    0  502    0 -0.00000000000E+00  0.00000000000E+00  0.19400010363E+03  0.19400010363E+03  0.00000000000E+00 0. -1.
         21   -1    0    0  501  502  0.00000000000E+00 -0.00000000000E+00 -0.23910486531E+03  0.23910486531E+03  0.00000000000E+00 0.  1.
         23    2    1    2    0    0 -0.47061517758E+02  0.43410120077E+02  0.79115662201E+02  0.13605122874E+03  0.90285236104E+02 0.  0.
         23    2    1    2    0    0  0.35646410620E+02 -0.11286744007E+03 -0.15544317264E+03  0.22005059733E+03  0.10124208536E+03 0.  0.
        -11    1    3    3    0    0 -0.66843842147E+02  0.48599729830E+01  0.53148198183E+02  0.85536246940E+02  0.00000000000E+00 0. -1.
         11    1    3    3    0    0  0.19782324389E+02  0.38550147094E+02  0.25967464018E+02  0.50514981804E+02  0.00000000000E+00 0.  1.
        -13    1    4    4    0    0 -0.70299098869E+00 -0.75512753394E+02 -0.24946236279E+02  0.79529773205E+02  0.00000000000E+00 0. -1.
         13    1    4    4    0    0  0.36349401608E+02 -0.37354686674E+02 -0.13049693636E+03  0.14052082412E+03  0.00000000000E+00 0.  1.
          2    1    1    2  501    0  0.11415107139E+02  0.69457319992E+02  0.31222748760E+02  0.77003142868E+02  0.00000000000E+00 0. -1.
<scales pt_clust_5="13000.00000" pt_clust_6="13000.00000" pt_clust_7="13000.00000" pt_clust_8="13000.00000" pt_clust_9="70.38913"></scales>
<clustering>
<clus scale="   70.389">  2  9  1 -1</clus>
<clus scale="   90.285">  5  6 -1 -1</clus>
<clus scale="  101.242">  7  8 -1 -1</clus>
<clus scale="  113.970">  1  5  2 -1</clus>
<clus scale="   70.389">  2  5  1 -1</clus>
</clustering>
</event>
<event>
 9    1  0.1610296E-005  0.2775219E+03  0.7546771E-02  0.1097344E+00
         21   -1    0    0  501  502  0.00000000000E+00  0.00000000000E+00  0.24584804911E+03  0.24584804911E+03  0.00000000000E+00 0. -1.
         -3   -1    0    0    0  501 -0.00000000000E+00 -0.00000000000E+00 -0.45173450732E+03  0.45173450732E+03  0.00000000000E+00 0.  1.
         23    2    1    2    0    0 -0.18220645958E+03 -0.15413037775E+03 -0.14489460475E+03  0.29532906435E+03  0.96277944014E+02 0.  0.
         23    2    1    2    0    0  0.18776276305E+03  0.23023177446E+03 -0.85730466827E+02  0.32203944044E+03  0.89989794387E+02 0.  0.
        -11    1    4    4    0    0  0.95333084452E+02  0.50996369011E+02 -0.20133261370E+02  0.10997442819E+03  0.00000000000E+00 0. -1.
         11    1    4    4    0    0  0.92429678598E+02  0.17923540545E+03 -0.65597205457E+02  0.21206501224E+03  0.00000000000E+00 0.  1.
        -11    1    3    3    0    0 -0.12221047562E+03 -0.12345454988E+03 -0.14751148680E+03  0.22789485509E+03  0.00000000000E+00 0.  1.
         11    1    3    3    0    0 -0.59995983963E+02 -0.30675827870E+02  0.26168820460E+01  0.67434209263E+02  0.00000000000E+00 0. -1.
         -3    1    1    2    0  502 -0.55563034661E+01 -0.76101396714E+02  0.24738613365E+02  0.80214051644E+02  0.00000000000E+00 0.  1.
<scales pt_clust_5="13000.00000" pt_clust_6="13000.00000" pt_clust_7="13000.00000" pt_clust_8="13000.00000" pt_clust_9="76.30397"></scales>
<clustering>
<clus scale="   76.304">  1  9  2 -1</clus>
<clus scale="   89.990">  5  6 -1 -1</clus>
<clus scale="   96.278">  7  8 -1 -1</clus>
<clus scale="  275.404">  1  5  2 -1</clus>
<clus scale="   76.304">  1  5  2 -1</clus>
</clustering>
</event>
<event>
 9    1  0.1610296E-005  0.1512836E+03  0.7546771E-02  0.1199610E+00
          2   -1    0    0  502    0 -0.00000000000E+00  0.00000000000E+00  0.11358541838E+03  0.11358541838E+03  0.00000000000E+00 0. -1.
         21   -1    0    0  501  502  0.00000000000E+00 -0.00000000000E+00 -0.51642024328E+03  0.51642024328E+03  0.00000000000E+00 0. -1.
         23    2    1    2    0    0 -0.73690737122E+02  0.10363776166E+03  0.69002869172E+01  0.15881704663E+03  0.94890094113E+02 0.  0.
         23    2    1    2    0    0  0.37223944039E+02 -0.57408417613E+02 -0.39411808517E+03  0.41027169809E+03  0.91172653651E+02 0.  0.
        -11    1    3    3    0    0  0.37699248284E+01  0.76361229077E+02  0.59992669839E+01  0.76689248553E+02  0.00000000000E+00 0. -1.
         11    1    3    3    0    0 -0.77460661951E+02  0.27276532580E+02  0.90101993326E+00  0.82127798073E+02  0.00000000000E+00 0.  1.
        -13    1    4    4    0    0  0.55416744834E+02 -0.49901227742E+01 -0.24301335166E+03  0.24930183717E+03  0.00000000000E+00 0.  1.
         13    1    4    4    0    0 -0.18192800795E+02 -0.52418294839E+02 -0.15110473351E+03  0.16096986092E+03  0.00000000000E+00 0. -1.
          2    1    1    2  501    0  0.36466793084E+02 -0.46229344044E+02 -0.15617026649E+02  0.60916916943E+02  0.00000000000E+00 0. -1.
<scales pt_clust_5="13000.00000" pt_clust_6="13000.00000" pt_clust_7="13000.00000" pt_clust_8="13000.00000" pt_clust_9="58.88109"></scales>
<clustering>
<clus scale="   58.881">  2  9  1 -1</clus>
<clus scale="   91.173">  7  8 -1 -1</clus>
<clus scale="   94.890">  5  6 -1 -1</clus>
<clus scale="  148.980">  2  7  1 -1</clus>
<clus scale="   58.881">  2  5  1 -1</clus>
</clustering>
</event>
<event>
 9    1  0.1610296E-005  0.1184302E+03  0.7546771E-02  0.1246035E+00
          1   -1    0    0  502    0 -0.00000000000E+00  0.00000000000E+00  0.60202595742E+03  0.60202595742E+03  0.00000000000E+00 0. -1.
         21   -1    0    0  501  502  0.00000000000E+00 -0.00000000000E+00 -0.47514141642E+02  0.47514141642E+02  0.00000000000E+00 0.  1.
         23    2    1    2    0    0  0.19264247928E+02 -0.76986704456E+02  0.32340262471E+03  0.34525203921E+03  0.91168245550E+02 0.  0.
         23    2    1    2    0    0  0.40619517075E+02  0.70008777829E+02  0.20432909323E+03  0.23831889728E+03  0.92164767225E+02 0.  0.
        -13    1    4    4    0    0 -0.47378641758E+01  0.54555467316E+02  0.17202105008E+03  0.18052697317E+03  0.00000000000E+00 0. -1.
         13    1    4    4    0    0  0.45357381251E+02  0.15453310512E+02  0.32308043152E+02  0.57791924108E+02  0.00000000000E+00 0.  1.
        -13    1    3    3    0    0 -0.19946378667E+02  0.10726893375E+02  0.39496251698E+02  0.45528871737E+02  0.00000000000E+00 0.  1.
         13    1    3    3    0    0  0.39210626595E+02 -0.87713597831E+02  0.28390637301E+03  0.29972316747E+03  0.00000000000E+00 0. -1.
          1    1    1    2  501    0 -0.59883765003E+02  0.69779266275E+01  0.26780097834E+02  0.65969162576E+02  0.00000000000E+00 0. -1.
<scales pt_clust_5="13000.00000" pt_clust_6="13000.00000" pt_clust_7="13000.00000" pt_clust_8="13000.00000" pt_clust_9="60.28894"></scales>
<clustering>
<clus scale="   60.289">  2  9  1 -1</clus>
<clus scale="   91.168">  7  8 -1 -1</clus>
<clus scale="   92.165">  5  6 -1 -1</clus>
<clus scale="  117.656">  1  7  2 -1</clus>
<clus scale="   60.289">  2  5  1 -1</clus>
</clustering>
</event>
<event>
 9    1  0.1610296E-005  0.2926498E+03  0.7546771E-02  0.1088996E+00
         21   -1    0    0  501  502  0.00000000000E+00  0.00000000000E+00  0.39526425847E+03  0.39526425847E+03  0.00000000000E+00 0. -1.
          1   -1    0    0  502    0 -0.00000000000E+00 -0.00000000000E+00 -0.32909377583E+03  0.32909377583E+03  0.00000000000E+00 0. -1.
         23    2    1    2    0    0  0.14746993652E+03  0.25899642639E+03 -0.11910737826E+03  0.33362700093E+03  0.91070726012E+02 0.  0.
         23    2    1    2    0    0 -0.76508205270E+02 -0.23291353121E+03  0.10846248852E+03  0.28295122933E+03  0.90526616346E+02 0.  0.
        -11    1    4    4    0    0  0.47294192287E+01 -0.12765262307E+03  0.62991500004E+02  0.14242713455E+03  0.00000000000E+00 0. -1.
         11    1    4    4    0    0 -0.81237624499E+02 -0.10526090814E+03  0.45470988513E+02  0.14052409478E+03  0.00000000000E+00 0.  1.
        -13    1    3    3    0    0  0.12238076482E+03  0.16314090044E+03 -0.11571947797E+03  0.23448454656E+03  0.00000000000E+00 0. -1.
         13    1    3    3    0    0  0.25089171703E+02  0.95855525946E+02 -0.33879002983E+01  0.99142454375E+02  0.00000000000E+00 0.  1.
          1    1    1    2  501    0 -0.70961731249E+02 -0.26082895178E+02  0.76815372390E+02  0.10777980404E+03  0.00000000000E+00 0. -1.
<scales pt_clust_5="13000.00000" pt_clust_6="13000.00000" pt_clust_7="13000.00000" pt_clust_8="13000.00000" pt_clust_9="75.60347"></scales>
<clustering>
<clus scale="   75.603">  1  9  2 -1</clus>
<clus scale="   90.527">  5  6 -1 -1</clus>
<clus scale="   91.071">  7  8 -1 -1</clus>
<clus scale="  292.481">  1  5  2 -1</clus>
<clus scale="   75.603">  1  5  2 -1</clus>
</clustering>
</event>
<event>
 9    1  0.1610296E-005  0.2018242E+03  0.7546771E-02  0.1148534E+00
          1   -1    0    0  502    0 -0.00000000000E+00  0.00000000000E+00  0.83023800887E+03  0.83023800887E+03  0.00000000000E+00 0. -1.
         21   -1    0    0  501  502  0.00000000000E+00 -0.00000000000E+00 -0.92056419309E+02  0.92056419309E+02  0.00000000000E+00 0. -1.
         23    2    1    2    0    0  0.19292279270E+03  0.50255686417E+02  0.46589025810E+03  0.51342494571E+03  0.82502147371E+02 0.  0.
         23    2    1    2    0    0 -0.16439794167E+03 -0.14571595852E+02  0.30170410268E+03  0.35453595178E+03  0.86205341491E+02 0.  0.
        -11    1    3    3    0    0  0.70243365581E+02 -0.14953584530E+02  0.10990849680E+03  0.13129210855E+03  0.00000000000E+00 0.  1.
         11    1    3    3    0    0  0.12267942712E+03  0.65209270946E+02  0.35598176131E+03  0.38213283716E+03  0.00000000000E+00 0. -1.
        -13    1    4    4    0    0 -0.77325962496E+02 -0.40591221986E+02  0.96739457654E+02  0.13032833324E+03  0.00000000000E+00 0.  1.
         13    1    4    4    0    0 -0.87071979173E+02  0.26019626134E+02  0.20496464502E+03  0.22420761854E+03  0.00000000000E+00 0. -1.
          1    1    1    2  501    0 -0.28524851033E+02 -0.35684090565E+02 -0.29412771222E+02  0.54333530687E+02  0.00000000000E+00 0. -1.
<scales pt_clust_5="13000.00000" pt_clust_6="13000.00000" pt_clust_7="13000.00000" pt_clust_8="13000.00000" pt_clust_9="45.68393"></scales>
<clustering>
<clus scale="   45.684">  2  9  1 -1</clus>
<clus scale="   82.502">  5  6 -1 -1</clus>
<clus scale="   86.205">  7  8 -1 -1</clus>
<clus scale="  200.270">  1  5  2 -1</clus>
<clus scale="   45.684">  2  5  1 -1</clus>
</clustering>
</event>
<event>
 9    1  0.1610296E-005  0.9997684E+02  0.7546771E-02  0.1284895E+00
         -1   -1    0    0    0  501 -0.00000000000E+00  0.00000000000E+00  0.64303750856E+03  0.64303750856E+03  0.00000000000E+00 0.  1.
         21   -1    0    0  501  502  0.00000000000E+00 -0.00000000000E+00 -0.19838146915E+02  0.19838146915E+02  0.00000000000E+00 0. -1.
         23    2    1    2    0    0 -0.25862432237E+02 -0.61647951815E+01  0.34203179458E+03  0.35550542677E+03  0.93228160238E+02 0.  0.
         23    2    1    2    0    0  0.48019902319E+02  0.89490027521E+01  0.25492461074E+03  0.27291158611E+03  0.84310029095E+02 0.  0.
        -11    1    4    4    0    0  0.97995138207E+01  0.31407179397E+02  0.32985331655E+02  0.46588340743E+02  0.00000000000E+00 0. -1.
         11    1    4    4    0    0  0.38220388498E+02 -0.22458176645E+02  0.22193927908E+03  0.22632324537E+03  0.00000000000E+00 0.  1.
        -13    1    3    3    0    0  0.26490327136E+02  0.15743718606E+02  0.56199922618E+02  0.64093942066E+02  0.00000000000E+00 0. -1.
         13    1    3    3    0    0 -0.52352759373E+02 -0.21908513787E+02  0.28583187196E+03  0.29141148471E+03  0.00000000000E+00 0.  1.
         -1    1    1    2    0  502 -0.22157470082E+02 -0.27842075706E+01  0.26242956328E+02  0.34458642589E+02  0.00000000000E+00 0.  1.
<scales pt_clust_5="13000.00000" pt_clust_6="13000.00000" pt_clust_7="13000.00000" pt_clust_8="13000.00000" pt_clust_9="22.33171"></scales>
<clustering>
<clus scale="   22.332">  2  9  1 -1</clus>
<clus scale="   84.310">  5  6 -1 -1</clus>
<clus scale="   91.717">  2  5  1 -1</clus>
<clus scale="   93.228">  7  8 -1 -1</clus>
<clus scale="   22.332">  2  5  1 -1</clus>
</clustering>
</event>
<event>
 9    1  0.1610296E-005  0.1009792E+03  0.7546771E-02  0.1278471E+00
         21   -1    0    0  501  502  0.00000000000E+00  0.00000000000E+00  0.17430485716E+03  0.17430485716E+03  0.00000000000E+00 0. -1.
          2   -1    0    0  502    0 -0.00000000000E+00 -0.00000000000E+00 -0.13577003744E+03  0.13577003744E+03  0.00000000000E+00 0. -1.
         23    2    1    2    0    0  0.27323391797E+02  0.24879238244E+02 -0.41232329564E+02  0.10768321195E+03  0.92358133916E+02 0.  0.
         23    2    1    2    0    0 -0.58103690409E-01 -0.70443003815E+02  0.92017645804E+02  0.14789831302E+03  0.91893654259E+02 0.  0.
        -11    1    3    3    0    0 -0.12086874160E+02 -0.29636609412E+02 -0.10126515384E+02  0.33570335986E+02  0.00000000000E+00 0. -1.
         11    1    3    3    0    0  0.39410265957E+02  0.54515847656E+02 -0.31105814180E+02  0.74112875968E+02  0.00000000000E+00 0.  1.
        -11    1    4    4    0    0 -0.41818496038E+02 -0.37937311423E+02  0.23096970381E+02  0.61004067484E+02  0.00000000000E+00 0.  1.
         11    1    4    4    0    0  0.41760392347E+02 -0.32505692392E+02  0.68920675423E+02  0.86894245538E+02  0.00000000000E+00 0. -1.
          2    1    1    2  501    0 -0.27265288107E+02  0.45563765571E+02 -0.12250496524E+02  0.54493369630E+02  0.00000000000E+00 0. -1.
<scales pt_clust_5="13000.00000" pt_clust_6="13000.00000" pt_clust_7="13000.00000" pt_clust_8="13000.00000" pt_clust_9="53.09855"></scales>
<clustering>
<clus scale="   53.099">  1  9  2 -1</clus>
<clus scale="   91.894">  7  8 -1 -1</clus>
<clus scale="   92.358">  5  6 -1 -1</clus>
<clus scale="  100.555">  1  7  2 -1</clus>
<clus scale="   53.099">  1  5  2 -1</clus>
</clustering>
</event>
<event>
 9    1  0.1610296E-005  0.1098940E+03  0.7546771E-02  0.1261360E+00
          3   -1    0    0  502    0 -0.00000000000E+00  0.00000000000E+00  0.53931502016E+02  0.53931502016E+02  0.00000000000E+00 0. -1.
         21   -1    0    0  501  502  0.00000000000E+00 -0.00000000000E+00 -0.35041788903E+03  0.35041788903E+03  0.00000000000E+00 0.  1.
         23    2    1    2    0    0  0.65912907373E+02 -0.19555924851E+02 -0.56542992045E+02  0.12609123147E+03  0.89302537198E+02 0.  0.
         23    2    1    2    0    0 -0.46849629033E+02 -0.40151182795E+01 -0.21808640276E+03  0.24088529824E+03  0.90846237827E+02 0.  0.
        -11    1    3    3    0    0  0.15557214872E+02 -0.48784476829E+02 -0.11505782298E+02  0.52481760073E+02  0.00000000000E+00 0.  1.
         11    1    3    3    0    0  0.50355692501E+02  0.29228551978E+02 -0.45037209748E+02  0.73609471401E+02  0.00000000000E+00 0. -1.
        -13    1    4    4    0    0 -0.52161729188E+02 -0.39713779267E+02 -0.15316768120E+03  0.16660842962E+03  0.00000000000E+00 0.  1.
         13    1    4    4    0    0  0.53121001552E+01  0.35698660987E+02 -0.64918721558E+02  0.74276868627E+02  0.00000000000E+00 0. -1.
          3    1    1    2  501    0 -0.19063278340E+02  0.23571043130E+02 -0.21856992209E+02  0.37372861327E+02  0.00000000000E+00 0. -1.
<scales pt_clust_5="13000.00000" pt_clust_6="13000.00000" pt_clust_7="13000.00000" pt_clust_8="13000.00000" pt_clust_9="30.31507"></scales>
<clustering>
<clus scale="   30.315">  2  9  1 -1</clus>
<clus scale="   89.303">  5  6 -1 -1</clus>
<clus scale="   90.846">  7  8 -1 -1</clus>
<clus scale="  108.621">  1  5  2 -1</clus>
<clus scale="   30.315">  2  5  1 -1</clus>
</clustering>
</event>
<event>
 9    1  0.1610296E-005  0.9730300E+02  0.7546771E-02  0.1289276E+00
          1   -1    0    0  502    0 -0.00000000000E+00  0.00000000000E+00  0.20998533598E+03  0.20998533598E+03  0.00000000000E+00 0. -1.
         21   -1    0    0  501  502  0.00000000000E+00 -0.00000000000E+00 -0.63645339181E+02  0.63645339181E+02  0.00000000000E+00 0.  1.
         23    2    1    2    0    0 -0.31286592200E+02 -0.29667482947E+01  0.89541795106E+02  0.13421206525E+03  0.94907812849E+02 0.  0.
         23    2    1    2    0    0  0.95476076775E+01 -0.14559761248E+02  0.63424859329E+02  0.11071887862E+03  0.89066345168E+02 0.  0.
        -11    1    4    4    0    0 -0.15309024144E+02  0.24696954120E+02  0.56778270177E+02  0.63781484205E+02  0.00000000000E+00 0. -1.
         11    1    4    4    0    0  0.24856631821E+02 -0.39256715368E+02  0.66465891517E+01  0.46937394414E+02  0.00000000000E+00 0.  1.
        -11    1    3    3    0    0 -0.61314678484E+02 -0.13271567574E+01  0.31741067575E+02  0.69056111340E+02  0.00000000000E+00 0. -1.
         11    1    3    3    0    0  0.30028086283E+02 -0.16395915373E+01  0.57800727531E+02  0.65155953905E+02  0.00000000000E+00 0.  1.
          1    1    1    2  501    0  0.21738984523E+02  0.17526509543E+02 -0.66266576396E+01  0.28699731293E+02  0.00000000000E+00 0. -1.
<scales pt_clust_5="13000.00000" pt_clust_6="13000.00000" pt_clust_7="13000.00000" pt_clust_8="13000.00000" pt_clust_9="27.92422"></scales>
<clustering>
<clus scale="   27.924">  2  9  1 -1</clus>
<clus scale="   89.066">  5  6 -1 -1</clus>
<clus scale="   91.614">  2  5  1 -1</clus>
<clus scale="   94.908">  7  8 -1 -1</clus>
<clus scale="   27.924">  2  5  1 -1</clus>
</clustering>
</event>
<event>
 9    1  0.1610296E-005  0.9954039E+02  0.7546771E-02  0.1286169E+00
         21   -1    0    0  501  502  0.00000000000E+00  0.00000000000E+00  0.85069573310E+02  0.85069573310E+02  0.00000000000E+00 0. -1.
          2   -1    0    0  502    0 -0.00000000000E+00 -0.00000000000E+00 -0.30067072752E+03  0.30067072752E+03  0.00000000000E+00 0. -1.
         23    2    1    2    0    0 -0.10571431378E+02 -0.21830501651E+02 -0.17494608299E+03  0.19804560545E+03  0.89596896817E+02 0.  0.
         23    2    1    2    0    0 -0.94762305749E+01 -0.19361189632E+01 -0.87065965211E+02  0.13183118237E+03  0.98516145096E+02 0.  0.
        -11    1    4    4    0    0  0.10056937725E+02 -0.36531378874E+02 -0.83800385804E+02  0.91968409249E+02  0.00000000000E+00 0. -1.
         11    1    4    4    0    0 -0.19533168300E+02  0.34595259911E+02 -0.32655794076E+01  0.39862773122E+02  0.00000000000E+00 0.  1.
        -11    1    3    3    0    0 -0.22094492946E+01  0.33621192997E+02 -0.42639977589E+02  0.54345505550E+02  0.00000000000E+00 0.  1.
         11    1    3    3    0    0 -0.83619820830E+01 -0.55451694648E+02 -0.13230610540E+03  0.14370009990E+03  0.00000000000E+00 0. -1.
          2    1    1    2  501    0  0.20047661952E+02  0.23766620614E+02  0.46410893990E+02  0.55863513013E+02  0.00000000000E+00 0. -1.
<scales pt_clust_5="13000.00000" pt_clust_6="13000.00000" pt_clust_7="13000.00000" pt_clust_8="13000.00000" pt_clust_9="31.09278"></scales>
<clustering>
<clus scale="   31.093">  1  9  2 -1</clus>
<clus scale="   89.597">  7  8 -1 -1</clus>
<clus scale="   90.722">  2  7  1 -1</clus>
<clus scale="   98.516">  5  6 -1 -1</clus>
<clus scale="   31.093">  1  5  2 -1</clus>
</clustering>
</event>
<event>
 9    1  0.1610296E-005  0.3160747E+03  0.7546771E-02  0.1105646E+00
          2   -1    0    0  502    0 -0.00000000000E+00  0.00000000000E+00  0.59557156654E+03  0.59557156654E+03  0.00000000000E+00 0. -1.
         21   -1    0    0  501  502  0.00000000000E+00 -0.00000000000E+00 -0.26123365100E+03  0.26123365100E+03  0.00000000000E+00 0.  1.
         23    2    1    2    0    0  0.82970001024E+02 -0.85057546642E+02  0.27919332658E+02  0.15295289532E+03  0.92175331520E+02 0.  0.
         23    2    1    2    0    0 -0.23637381755E+03  0.28405334969E+03  0.15806386316E+03  0.41206270036E+03  0.90843806080E+02 0.  0.
        -11    1    3    3    0    0 -0.13593358751E+02 -0.36845115113E+02  0.21640358003E+02  0.44840238674E+02  0.00000000000E+00 0.  1.
         11    1    3    3    0    0  0.96563359775E+02 -0.48212431529E+02  0.62789746558E+01  0.10811265665E+03  0.00000000000E+00 0. -1.
        -13    1    4    4    0    0 -0.74618222507E+02  0.14596867668E+03  0.39733237311E+02  0.16868154567E+03  0.00000000000E+00 0.  1.
         13    1    4    4    0    0 -0.16175559504E+03  0.13808467300E+03  0.11833062585E+03  0.24338115469E+03  0.00000000000E+00 0. -1.
          2    1    1    2  501    0  0.15340381652E+03 -0.19899580305E+03  0.14835471972E+03  0.29178962185E+03  0.00000000000E+00 0. -1.
<scales pt_clust_5="13000.00000" pt_clust_6="13000.00000" pt_clust_7="13000.00000" pt_clust_8="13000.00000" pt_clust_9="302.73854"></scales>
<clustering>
<clus scale="   90.844">  7  8 -1 -1</clus>
<clus scale="   92.175">  5  6 -1 -1</clus>
<clus scale="  150.383">  1  5  2 -1</clus>
<clus scale="  302.739">  2  9  1 -1</clus>
<clus scale="  302.739">  2  5  1 -1</clus>
</clustering>
</event>
<event>
 9    1  0.1610296E-005  0.1817174E+03  0.7546771E-02  0.1167682E+00
          1   -1    0    0  502    0 -0.00000000000E+00  0.00000000000E+00  0.85435371016E+02  0.85435371016E+02  0.00000000000E+00 0. -1.
         21   -1    0    0  501  502  0.00000000000E+00 -0.00000000000E+00 -0.11702469751E+04  0.11702469751E+04  0.00000000000E+00 0.  1.
         23    2    1    2    0    0  0.84177426466E+02 -0.11708295755E+03 -0.62855230306E+02  0.17554537933E+03  0.77917534315E+02 0.  0.
         23    2    1    2    0    0 -0.14955055490E+03  0.18506057172E+03 -0.71717459392E+03  0.76109694534E+03  0.91194179439E+02 0.  0.
        -11    1    4    4    0    0 -0.12668581618E+02  0.83271387272E+02 -0.23566995443E+03  0.25026974312E+03  0.00000000000E+00 0. -1.
         11    1    4    4    0    0 -0.13688197328E+03  0.10178918445E+03 -0.48150463949E+03  0.51082720222E+03  0.00000000000E+00 0.  1.
        -13    1    3    3    0    0  0.63551103449E+02 -0.11788707042E+03 -0.73017581077E+02  0.15253744218E+03  0.00000000000E+00 0. -1.
         13    1    3    3    0    0  0.20626323017E+02  0.80411286951E+00  0.10162350771E+02  0.23007937150E+02  0.00000000000E+00 0.  1.
          1    1    1    2  501    0  0.65373128435E+02 -0.67977614172E+02 -0.30478177989E+03  0.31904002148E+03  0.00000000000E+00 0. -1.
<scales pt_clust_5="13000.00000" pt_clust_6="13000.00000" pt_clust_7="13000.00000" pt_clust_8="13000.00000" pt_clust_9="94.31120"></scales>
<clustering>
<clus scale="   77.918">  7  8 -1 -1</clus>
<clus scale="   91.194">  5  6 -1 -1</clus>
<clus scale="   94.311">  2  9  1 -1</clus>
<clus scale="  175.431">  1  7  2 -1</clus>
<clus scale="   94.311">  2  5  1 -1</clus>
</clustering>
</event>
<event>
 9    1  0.1610296E-005  0.9424020E+02  0.7546771E-02  0.1293320E+00
         21   -1    0    0  501  502  0.00000000000E+00  0.00000000000E+00  0.16024625655E+03  0.16024625655E+03  0.00000000000E+00 0.  1.
         -4   -1    0    0    0  501 -0.00000000000E+00 -0.00000000000E+00 -0.10006866754E+03  0.10006866754E+03  0.00000000000E+00 0.  1.
         23    2    1    2    0    0  0.51608624794E+01 -0.11714202447E+02 -0.19877719251E+02  0.94520618315E+02  0.91515935900E+02 0.  0.
         23    2    1    2    0    0  0.17533934919E+02  0.43933731375E+02  0.40813904712E+02  0.11017920328E+03  0.90752798260E+02 0.  0.
        -13    1    4    4    0    0  0.14641128902E+02 -0.15612731800E+02 -0.16847980837E+02  0.27239209020E+02  0.00000000000E+00 0. -1.
         13    1    4    4    0    0  0.28928060173E+01  0.59546463175E+02  0.57661885549E+02  0.82939994263E+02  0.00000000000E+00 0.  1.
        -13    1    3    3    0    0  0.44780704020E+02 -0.19247057709E+02  0.17197509326E+01  0.48772105001E+02  0.00000000000E+00 0.  1.
         13    1    3    3    0    0 -0.39619841541E+02  0.75328552619E+01 -0.21597470183E+02  0.45748513314E+02  0.00000000000E+00 0. -1.
         -4    1    1    2    0  502 -0.22694797398E+02 -0.32219528929E+02  0.39241403542E+02  0.55615102493E+02  0.00000000000E+00 0.  1.
<scales pt_clust_5="13000.00000" pt_clust_6="13000.00000" pt_clust_7="13000.00000" pt_clust_8="13000.00000" pt_clust_9="39.41005"></scales>
<clustering>
<clus scale="   39.410">  1  9  2 -1</clus>
<clus scale="   90.753">  5  6 -1 -1</clus>
<clus scale="   91.516">  7  8 -1 -1</clus>
<clus scale="   93.499">  1  5  2 -1</clus>
<clus scale="   39.410">  1  5  2 -1</clus>
</clustering>
</event>
<event>
 9    1  0.1610296E-005  0.1098461E+03  0.7546771E-02  0.1262786E+00
         21   -1    0    0  501  502  0.00000000000E+00  0.00000000000E+00  0.12500431854E+03  0.12500431854E+03  0.00000000000E+00 0. -1.
          4   -1    0    0  502    0 -0.00000000000E+00 -0.00000000000E+00 -0.46614229577E+03  0.46614229577E+03  0.00000000000E+00 0. -1.
         23    2    1    2    0    0  0.66341929686E+01 -0.25760863153E+02 -0.18170107215E+03  0.20624792184E+03  0.93889781444E+02 0.  0.
         23    2    1    2    0    0  0.33797898010E+02  0.10905041622E+03 -0.22771529687E+03  0.26986025361E+03  0.89084279558E+02 0.  0.
        -13    1    3    3    0    0 -0.27331322949E+02  0.76733256814E+01 -0.13518200661E+02  0.31442374120E+02  0.00000000000E+00 0. -1.
         13    1    3    3    0    0  0.33965515918E+02 -0.33434188834E+02 -0.16818287148E+03  0.17480554772E+03  0.00000000000E+00 0.  1.
        -13    1    4    4    0    0 -0.68184671145E+01  0.99886042395E+02 -0.13364561564E+03  0.16698761493E+03  0.00000000000E+00 0. -1.
         13    1    4    4    0    0  0.40616365125E+02  0.91643738205E+01 -0.94069681226E+02  0.10287263868E+03  0.00000000000E+00 0.  1.
          4    1    1    2  501    0 -0.40432090979E+02 -0.83289553063E+02  0.68278391780E+02  0.11503843886E+03  0.00000000000E+00 0. -1.
<scales pt_clust_5="13000.00000" pt_clust_6="13000.00000" pt_clust_7="13000.00000" pt_clust_8="13000.00000" pt_clust_9="92.58458"></scales>
<clustering>
<clus scale="   89.084">  7  8 -1 -1</clus>
<clus scale="   92.585">  1  9  2 -1</clus>
<clus scale="   93.890">  5  6 -1 -1</clus>
<clus scale="  105.768">  1  7  2 -1</clus>
<clus scale="   92.585">  1  5  2 -1</clus>
</clustering>
</event>
<event>
 9    1  0.1610296E-005  0.1533576E+03  0.7546771E-02  0.1215841E+00
          2   -1    0    0  502    0 -0.00000000000E+00  0.00000000000E+00  0.35119392064E+03  0.35119392064E+03  0.00000000000E+00 0. -1.
         21   -1    0    0  501  502  0.00000000000E+00 -0.00000000000E+00 -0.32717837344E+03  0.32717837344E+03  0.00000000000E+00 0. -1.
         23    2    1    2    0    0 -0.44691318598E+02 -0.12874521627E+02  0.78854791354E+02  0.12812942753E+03  0.89643766180E+02 0.  0.
         23    2    1    2    0    0 -0.69885536937E+02  0.62515718109E+02  0.21559755000E+03  0.25237013560E+03  0.91739732364E+02 0.  0.
        -11    1    4    4    0    0 -0.19643347407E+02 -0.14571674235E+02  0.87438330925E+01  0.25974014024E+02  0.00000000000E+00 0.  1.
         11    1    4    4    0    0 -0.50242189530E+02  0.77087392344E+02  0.20685371691E+03  0.22639612158E+03  0.00000000000E+00 0. -1.
        -13    1    3    3    0    0 -0.71913506166E+02 -0.39596258520E+01  0.60933342140E+02  0.94340358226E+02  0.00000000000E+00 0. -1.
         13    1    3    3    0    0  0.27222187567E+02 -0.89148957748E+01  0.17921449214E+02  0.33789069306E+02  0.00000000000E+00 0.  1.
          2    1    1    2  501    0  0.11457685554E+03 -0.49641196482E+02 -0.27043679415E+03  0.29787273095E+03  0.00000000000E+00 0. -1.
<scales pt_clust_5="13000.00000" pt_clust_6="13000.00000" pt_clust_7="13000.00000" pt_clust_8="13000.00000" pt_clust_9="122.89166"></scales>
<clustering>
<clus scale="   89.644">  7  8 -1 -1</clus>
<clus scale="   91.740">  5  6 -1 -1</clus>
<clus scale="  100.990">  1  7  2 -1</clus>
<clus scale="  122.892">  2  9  1 -1</clus>
<clus scale="  122.892">  2  5  1 -1</clus>
</clustering>
</event>
<event>
 9    1  0.1610296E-005  0.9743581E+02  0.7546771E-02  0.1290211E+00
         21   -1    0    0  501  502  0.00000000000E+00  0.00000000000E+00  0.26184208841E+03  0.26184208841E+03  0.00000000000E+00 0.  1.
         -1   -1    0    0    0  501 -0.00000000000E+00 -0.00000000000E+00 -0.29117225878E+03  0.29117225878E+03  0.00000000000E+00 0.  1.
         23    2    1    2    0    0 -0.64485775144E+01 -0.11235281367E+02 -0.14638224927E+03  0.17101686906E+03  0.87471086093E+02 0.  0.
         23    2    1    2    0    0  0.43607100830E+02 -0.36513336066E+02 -0.10438757990E+03  0.15244092996E+03  0.95428860086E+02 0.  0.
        -11    1    3    3    0    0  0.28525314250E+02  0.24007941334E+02 -0.47648758077E+02  0.60501892090E+02  0.00000000000E+00 0.  1.
         11    1    3    3    0    0 -0.34973891764E+02 -0.35243222701E+02 -0.98733491192E+02  0.11051497697E+03  0.00000000000E+00 0. -1.
        -13    1    4    4    0    0 -0.16403784288E+02  0.21222358064E+02 -0.17145650926E+02  0.31834666111E+02  0.00000000000E+00 0. -1.
         13    1    4    4    0    0  0.60010885118E+02 -0.57735694130E+02 -0.87241928971E+02  0.12060626385E+03  0.00000000000E+00 0.  1.
         -1    1    1    2    0  502 -0.37158523315E+02  0.47748617433E+02  0.22143965879E+03  0.22955654817E+03  0.00000000000E+00 0.  1.
<scales pt_clust_5="13000.00000" pt_clust_6="13000.00000" pt_clust_7="13000.00000" pt_clust_8="13000.00000" pt_clust_9="60.50361"></scales>
<clustering>
<clus scale="   60.504">  1  9  2 -1</clus>
<clus scale="   87.471">  5  6 -1 -1</clus>
<clus scale="   89.656">  2  5  1 -1</clus>
<clus scale="   95.429">  7  8 -1 -1</clus>
<clus scale="   60.504">  1  5  2 -1</clus>
</clustering>
</event>
<event>
 9    1  0.1610296E-005  0.1051446E+03  0.7546771E-02  0.1270370E+00
          3   -1    0    0  502    0 -0.00000000000E+00  0.00000000000E+00  0.69743702580E+02  0.69743702580E+02  0.00000000000E+00 0. -1.
         21   -1    0    0  501  502  0.00000000000E+00 -0.00000000000E+00 -0.41440976262E+03  0.41440976262E+03  0.00000000000E+00 0. -1.
         23    2    1    2    0    0  0.23450742492E+02  0.48214380543E+02 -0.18819632024E+02  0.10861011256E+03  0.92560327282E+02 0.  0.
         23    2    1    2    0    0 -0.63071296022E+02 -0.48174551723E+01 -0.12965838357E+03  0.17074386490E+03  0.91328936903E+02 0.  0.
        -11    1    4    4    0    0  0.17181283047E+02 -0.23085442184E+02 -0.34718806877E+02  0.45094674618E+02  0.00000000000E+00 0.  1.
         11    1    4    4    0    0 -0.80252579069E+02  0.18267987011E+02 -0.94939576692E+02  0.12564919028E+03  0.00000000000E+00 0. -1.
        -11    1    3    3    0    0  0.50410733385E+02  0.20805632317E+02  0.15901303505E+02  0.56806406590E+02  0.00000000000E+00 0.  1.
         11    1    3    3    0    0 -0.26959990893E+02  0.27408748226E+02 -0.34720935530E+02  0.51803705971E+02  0.00000000000E+00 0. -1.
          3    1    1    2  501    0  0.39620553530E+02 -0.43396925371E+02 -0.19618804444E+03  0.20479948773E+03  0.00000000000E+00 0. -1.
<scales pt_clust_5="13000.00000" pt_clust_6="13000.00000" pt_clust_7="13000.00000" pt_clust_8="13000.00000" pt_clust_9="58.76293"></scales>
<clustering>
<clus scale="   58.763">  2  9  1 -1</clus>
<clus scale="   91.329">  5  6 -1 -1</clus>
<clus scale="   92.560">  7  8 -1 -1</clus>
<clus scale="  104.062">  2  5  1 -1</clus>
<clus scale="   58.763">  2  5  1 -1</clus>
</clustering>
</event>
<event>
 9    1  0.1610296E-005  0.1463610E+03  0.7546771E-02  0.1205686E+00
          1   -1    0    0  502    0 -0.00000000000E+00  0.00000000000E+00  0.42797626844E+03  0.42797626844E+03  0.00000000000E+00 0. -1.
         21   -1    0    0  501  502  0.00000000000E+00 -0.00000000000E+00 -0.30376119106E+03  0.30376119106E+03  0.00000000000E+00 0. -1.
         23    2    1    2    0    0  0.10372869883E+03  0.50322469176E+02  0.36335136824E+03  0.39157132597E+03  0.89509176366E+02 0.  0.
         23    2    1    2    0    0 -0.72042527437E+02 -0.74352165333E+02 -0.51388971624E+02  0.14825340432E+03  0.92843283216E+02 0.  0.
        -11    1    4    4    0    0 -0.30664697651E+02 -0.85292445361E+01 -0.62089477581E+02  0.69772307692E+02  0.00000000000E+00 0.  1.
         11    1    4    4    0    0 -0.41377829786E+02 -0.65822920797E+02  0.10700505957E+02  0.78481096627E+02  0.00000000000E+00 0. -1.
        -13    1    3    3    0    0  0.19839216641E+02  0.57844753116E+02  0.17028860040E+03  0.18093594836E+03  0.00000000000E+00 0.  1.
         13    1    3    3    0    0  0.83889482184E+02 -0.75222839398E+01  0.19306276783E+03  0.21063537761E+03  0.00000000000E+00 0. -1.
          1    1    1    2  501    0 -0.31686171388E+02  0.24029696157E+02 -0.18774731924E+03  0.19191272922E+03  0.00000000000E+00 0. -1.
<scales pt_clust_5="13000.00000" pt_clust_6="13000.00000" pt_clust_7="13000.00000" pt_clust_8="13000.00000" pt_clust_9="39.76732"></scales>
<clustering>
<clus scale="   39.767">  2  9  1 -1</clus>
<clus scale="   89.509">  7  8 -1 -1</clus>
<clus scale="   92.843">  5  6 -1 -1</clus>
<clus scale="  144.269">  1  7  2 -1</clus>
<clus scale="   39.767">  2  5  1 -1</clus>
</clustering>
</event>
<event>
 9    1  0.1610296E-005  0.2870923E+03  0.7546771E-02  0.1091942E+00
          2   -1    0    0  502    0 -0.00000000000E+00  0.00000000000E+00  0.12712017348E+04  0.12712017348E+04  0.00000000000E+00 0. -1.
         21   -1    0    0  501  502  0.00000000000E+00 -0.00000000000E+00 -0.97066188900E+02  0.97066188900E+02  0.00000000000E+00 0. -1.
         23    2    1    2    0    0 -0.55430971765E+02  0.29107766407E+03  0.79560162764E+03  0.85376910547E+03  0.90227137808E+02 0.  0.
         23    2    1    2    0    0 -0.20258009075E+02 -0.23377463877E+03  0.25244029583E+03  0.35666327044E+03  0.91769367749E+02 0.  0.
        -13    1    4    4    0    0 -0.18625538665E+02 -0.10151916001E+03  0.49608033028E+02  0.11451640704E+03  0.00000000000E+00 0. -1.
         13    1    4    4    0    0 -0.16324704102E+01 -0.13225547876E+03  0.20283226281E+03  0.24214686341E+03  0.00000000000E+00 0.  1.
        -13    1    3    3    0    0  0.17368745423E+02  0.21072551071E+02  0.10976656860E+03  0.11311244542E+03  0.00000000000E+00 0.  1.
         13    1    3    3    0    0 -0.72799717188E+02  0.27000511300E+03  0.68583505904E+03  0.74065666005E+03  0.00000000000E+00 0. -1.
          2    1    1    2  501    0  0.75688980840E+02 -0.57303025304E+02  0.12609362243E+03  0.15783554780E+03  0.00000000000E+00 0. -1.
<scales pt_clust_5="13000.00000" pt_clust_6="13000.00000" pt_clust_7="13000.00000" pt_clust_8="13000.00000" pt_clust_9="94.93397"></scales>
<clustering>
<clus scale="   90.227">  7  8 -1 -1</clus>
<clus scale="   91.769">  5  6 -1 -1</clus>
<clus scale="   94.934">  2  9  1 -1</clus>
<clus scale="  286.603">  1  7  2 -1</clus>
<clus scale="   94.934">  2  5  1 -1</clus>
</clustering>
</event>
<event>
 9    1  0.1610296E-005  0.1006973E+03  0.7546771E-02  0.1287025E+00
         21   -1    0    0  501  502  0.00000000000E+00  0.00000000000E+00  0.16307838577E+03  0.16307838577E+03  0.00000000000E+00 0.  1.
          2   -1    0    0  502    0 -0.00000000000E+00 -0.00000000000E+00 -0.86179252156E+02  0.86179252156E+02  0.00000000000E+00 0. -1.
         23    2    1    2    0    0  0.18706184115E+02 -0.34434340152E+02 -0.61925599619E+01  0.84870567744E+02  0.75026797643E+02 0.  0.
         23    2    1    2    0    0 -0.39753264434E+01  0.50979315761E+02  0.33161222646E+02  0.10976302499E+03  0.91288340506E+02 0.  0.
        -11    1    3    3    0    0 -0.16800106770E+01 -0.35196365320E+02  0.28032333039E+02  0.45026861574E+02  0.00000000000E+00 0.  1.
         11    1    3    3    0    0  0.20386194792E+02  0.76202516807E+00 -0.34224893001E+02  0.39843706170E+02  0.00000000000E+00 0. -1.
        -11    1    4    4    0    0  0.22841500784E+02  0.53280415638E+02 -0.10069566942E+02  0.58838193607E+02  0.00000000000E+00 0. -1.
         11    1    4    4    0    0 -0.26816827227E+02 -0.23010998766E+01  0.43230789589E+02  0.50924831385E+02  0.00000000000E+00 0.  1.
          2    1    1    2  501    0 -0.14730857672E+02 -0.16544975609E+02  0.49930470934E+02  0.54624045194E+02  0.00000000000E+00 0. -1.
<scales pt_clust_5="13000.00000" pt_clust_6="13000.00000" pt_clust_7="13000.00000" pt_clust_8="13000.00000" pt_clust_9="22.15253"></scales>
<clustering>
<clus scale="   22.153">  1  9  2 -1</clus>
<clus scale="   75.027">  5  6 -1 -1</clus>
<clus scale="   86.229">  2  5  1 -1</clus>
<clus scale="   91.288">  7  8 -1 -1</clus>
<clus scale="   22.153">  1  5  2 -1</clus>
</clustering>
</event>
<event>
 9    1  0.1610296E-005  0.2150413E+03  0.7546771E-02  0.1137736E+00
          3   -1    0    0  502    0 -0.00000000000E+00  0.00000000000E+00  0.76417835428E+03  0.76417835428E+03  0.00000000000E+00 0. -1.
         21   -1    0    0  501  502  0.00000000000E+00 -0.00000000000E+00 -0.14778077598E+03  0.14778077598E+03  0.00000000000E+00 0. -1.
         23    2    1    2    0    0  0.13334796326E+03 -0.12748740708E+03  0.35845239852E+03  0.41319717206E+03  0.90603878128E+02 0.  0.
         23    2    1    2    0    0 -0.20178951010E+03  0.83031620969E+02  0.31911207705E+03  0.39677200000E+03  0.89343414956E+02 0.  0.
        -11    1    3    3    0    0  0.82958212071E+02 -0.18598684641E+02  0.13416863829E+03  0.15883702188E+03  0.00000000000E+00 0.  1.
         11    1    3    3    0    0  0.50389751187E+02 -0.10888872244E+03  0.22428376023E+03  0.25436015018E+03  0.00000000000E+00 0. -1.
        -13    1    4    4    0    0 -0.47001282137E+02  0.53738465107E+02  0.58742266882E+02  0.92453215591E+02  0.00000000000E+00 0.  1.
         13    1    4    4    0    0 -0.15478822797E+03  0.29293155862E+02  0.26036981016E+03  0.30431878441E+03  0.00000000000E+00 0. -1.
          3    1    1    2  501    0  0.68441546845E+02  0.44455786109E+02 -0.61166897257E+02  0.10198995820E+03  0.00000000000E+00 0. -1.
<scales pt_clust_5="13000.00000" pt_clust_6="13000.00000" pt_clust_7="13000.00000" pt_clust_8="13000.00000" pt_clust_9="81.61227"></scales>
<clustering>
<clus scale="   81.612">  2  9  1 -1</clus>
<clus scale="   89.343">  7  8 -1 -1</clus>
<clus scale="   90.604">  5  6 -1 -1</clus>
<clus scale="  214.513">  2  7  1 -1</clus>
<clus scale="   81.612">  2  5  1 -1</clus>
</clustering>
</event>
<event>
 9    1  0.1610296E-005  0.9812695E+02  0.7546771E-02  0.1284372E+00
         21   -1    0    0  501  502  0.00000000000E+00  0.00000000000E+00  0.33474655565E+03  0.33474655565E+03  0.00000000000E+00 0. -1.
          3   -1    0    0  502    0 -0.00000000000E+00 -0.00000000000E+00 -0.12146032794E+03  0.12146032794E+03  0.00000000000E+00 0. -1.
         23    2    1    2    0    0 -0.28804221029E+02 -0.57055013313E+00 -0.61574122049E+02  0.11349556078E+03  0.90883778163E+02 0.  0.
         23    2    1    2    0    0  0.76131197583E+02 -0.34648514789E+02  0.10208841141E+03  0.16014525828E+03  0.90708220036E+02 0.  0.
        -13    1    3    3    0    0 -0.54141297370E+02  0.23542571143E+02 -0.47572026187E+02  0.75819723111E+02  0.00000000000E+00 0. -1.
         13    1    3    3    0    0  0.25337076342E+02 -0.24113121276E+02 -0.14002095861E+02  0.37675837665E+02  0.00000000000E+00 0.  1.
        -13    1    4    4    0    0  0.32504626331E+02  0.28931394155E+02  0.53674969166E+02  0.69098325708E+02  0.00000000000E+00 0.  1.
         13    1    4    4    0    0  0.43626571252E+02 -0.63579908943E+02  0.48413442246E+02  0.91046932570E+02  0.00000000000E+00 0. -1.
          3    1    1    2  501    0 -0.47326976554E+02  0.35219064922E+02  0.17277193835E+03  0.18256606454E+03  0.00000000000E+00 0. -1.
<scales pt_clust_5="13000.00000" pt_clust_6="13000.00000" pt_clust_7="13000.00000" pt_clust_8="13000.00000" pt_clust_9="58.99343"></scales>
<clustering>
<clus scale="   58.993">  1  9  2 -1</clus>
<clus scale="   90.708">  7  8 -1 -1</clus>
<clus scale="   90.884">  5  6 -1 -1</clus>
<clus scale="   97.964">  1  7  2 -1</clus>
<clus scale="   58.993">  1  5  2 -1</clus>
</clustering>
</event>
<event>
 9    1  0.1610296E-005  0.2870190E+03  0.7546771E-02  0.1092436E+00
         -1   -1    0    0    0  501 -0.00000000000E+00  0.00000000000E+00  0.87876835900E+03  0.87876835900E+03  0.00000000000E+00 0.  1.
         21   -1    0    0  501  502  0.00000000000E+00 -0.00000000000E+00 -0.28581887738E+03  0.28581887738E+03  0.00000000000E+00 0. -1.
         23    2    1    2    0    0  0.23628765589E+03  0.12732777481E+03  0.74591170510E+03  0.79755237374E+03  0.87528843831E+02 0.  0.
         23    2    1    2    0    0 -0.23218892766E+03 -0.15060207469E+03 -0.10269432789E+03  0.31148890028E+03  0.99431016219E+02 0.  0.
        -11    1    4    4    0    0 -0.53161571289E+02  0.54593765336E+01 -0.18686826065E+01  0.53473820031E+02  0.00000000000E+00 0.  1.
         11    1    4    4    0    0 -0.17902735637E+03 -0.15606145122E+03 -0.10082564529E+03  0.25801508024E+03  0.00000000000E+00 0. -1.
        -13    1    3    3    0    0  0.72476469375E+02  0.85376711575E+01  0.12787605938E+03  0.14723456458E+03  0.00000000000E+00 0. -1.
         13    1    3    3    0    0  0.16381118651E+03  0.11879010365E+03  0.61803564571E+03  0.65031780917E+03  0.00000000000E+00 0.  1.
         -1    1    1    2    0  502 -0.40987282313E+01  0.23274299882E+02 -0.50267895585E+02  0.55545962361E+02  0.00000000000E+00 0.  1.
<scales pt_clust_5="13000.00000" pt_clust_6="13000.00000" pt_clust_7="13000.00000" pt_clust_8="13000.00000" pt_clust_9="23.63245"></scales>
<clustering>
<clus scale="   23.632">  2  9  1 -1</clus>
<clus scale="   87.529">  7  8 -1 -1</clus>
<clus scale="   99.431">  5  6 -1 -1</clus>
<clus scale="  283.116">  1  7  2 -1</clus>
<clus scale="   23.632">  2  5  1 -1</clus>
</clustering>
</event>
<event>
 9    1  0.1610296E-005  0.2123296E+03  0.7546771E-02  0.1165568E+00
         21   -1    0    0  501  502  0.00000000000E+00  0.00000000000E+00  0.13355088961E+03  0.13355088961E+03  0.00000000000E+00 0. -1.
          2   -1    0    0  502    0 -0.00000000000E+00 -0.00000000000E+00 -0.77747722450E+03  0.77747722450E+03  0.00000000000E+00 0. -1.
         23    2    1    2    0    0 -0.72192124445E+02 -0.53063994307E+01 -0.10269532923E+03  0.15451394396E+03  0.89935351920E+02 0.  0.
         23    2    1    2    0    0  0.13647385268E+03  0.18209941073E+03 -0.51074800195E+03  0.56594365054E+03  0.87426461862E+02 0.  0.
        -11    1    4    4    0    0  0.44581191330E+02  0.94154928179E+01 -0.13237653143E+03  0.13999885784E+03  0.00000000000E+00 0.  1.
         11    1    4    4    0    0  0.91892661354E+02  0.17268391791E+03 -0.37837147053E+03  0.42594479270E+03  0.00000000000E+00 0. -1.
        -11    1    3    3    0    0 -0.24557887110E+02 -0.42754755909E+02 -0.23016462002E+02  0.54413385258E+02  0.00000000000E+00 0.  1.
         11    1    3    3    0    0 -0.47634237335E+02  0.37448356478E+02 -0.79678867224E+02  0.10010055870E+03  0.00000000000E+00 0. -1.
          2    1    1    2  501    0 -0.64281728238E+02 -0.17679301130E+03 -0.30483003719E+02  0.19057051961E+03  0.00000000000E+00 0. -1.
<scales pt_clust_5="13000.00000" pt_clust_6="13000.00000" pt_clust_7="13000.00000" pt_clust_8="13000.00000" pt_clust_9="193.49542"></scales>
<clustering>
<clus scale="   87.426">  5  6 -1 -1</clus>
<clus scale="   89.935">  7  8 -1 -1</clus>
<clus scale="  115.448">  2  7  1 -1</clus>
<clus scale="  193.495">  1  9  2 -1</clus>
<clus scale="  193.495">  1  5  2 -1</clus>
</clustering>
</event>
<event>
 9    1  0.1610296E-005  0.1107854E+03  0.7546771E-02  0.1259565E+00
          3   -1    0    0  502    0 -0.00000000000E+00  0.00000000000E+00  0.29454470972E+02  0.29454470972E+02  0.00000000000E+00 0. -1.
         21   -1    0    0  501  502  0.00000000000E+00 -0.00000000000E+00 -0.74217459720E+03  0.74217459720E+03  0.00000000000E+00 0.  1.
         23    2    1    2    0    0 -0.33107343290E+02 -0.37427487337E+02 -0.14563358373E+03  0.17879723443E+03  0.90897730124E+02 0.  0.
         23    2    1    2    0    0  0.50334981086E+02  0.73281600413E+02 -0.36283645764E+03  0.38474433750E+03  0.92054912768E+02 0.  0.
        -11    1    4    4    0    0  0.67456522883E+02  0.31593236161E+02 -0.28717026417E+03  0.29667368551E+03  0.00000000000E+00 0.  1.
         11    1    4    4    0    0 -0.17121541797E+02  0.41688364252E+02 -0.75666193468E+02  0.88070651987E+02  0.00000000000E+00 0. -1.
        -11    1    3    3    0    0 -0.28284037936E+02  0.26838140751E+02 -0.48520243089E+02  0.62245374048E+02  0.00000000000E+00 0. -1.
         11    1    3    3    0    0 -0.48233053539E+01 -0.64265628087E+02 -0.97113340646E+02  0.11655186039E+03  0.00000000000E+00 0.  1.
          3    1    1    2  501    0 -0.17227637796E+02 -0.35854113076E+02 -0.20425008486E+03  0.20808749624E+03  0.00000000000E+00 0. -1.
<scales pt_clust_5="13000.00000" pt_clust_6="13000.00000" pt_clust_7="13000.00000" pt_clust_8="13000.00000" pt_clust_9="39.77825"></scales>
<clustering>
<clus scale="   39.778">  2  9  1 -1</clus>
<clus scale="   90.898">  7  8 -1 -1</clus>
<clus scale="   92.055">  5  6 -1 -1</clus>
<clus scale="  109.826">  1  7  2 -1</clus>
<clus scale="   39.778">  2  5  1 -1</clus>
</clustering>
</event>
<event>
 9    1  0.1610296E-005  0.1027438E+03  0.7546771E-02  0.1278123E+00
         21   -1    0    0  501  502  0.00000000000E+00  0.00000000000E+00  0.63326201569E+02  0.63326201569E+02  0.00000000000E+00 0.  1.
          1   -1    0    0  502    0 -0.00000000000E+00 -0.00000000000E+00 -0.25841359076E+03  0.25841359076E+03  0.00000000000E+00 0. -1.
         23    2    1    2    0    0 -0.21686541123E+02 -0.10675553406E+02 -0.13553397373E+03  0.16842404858E+03  0.97020248384E+02 0.  0.
         23    2    1    2    0    0  0.55133273595E+02  0.18619732524E+01 -0.53109607036E+02  0.11813214281E+03  0.89952365195E+02 0.  0.
        -11    1    4    4    0    0  0.76533420590E+02 -0.92891417202E+01 -0.24915476502E+02  0.81021192230E+02  0.00000000000E+00 0.  1.
         11    1    4    4    0    0 -0.21400146995E+02  0.11151114973E+02 -0.28194130534E+02  0.37110950582E+02  0.00000000000E+00 0. -1.
        -13    1    3    3    0    0 -0.56529874592E+02 -0.22383781864E+02 -0.10157057537E+03  0.11837754091E+03  0.00000000000E+00 0. -1.
         13    1    3    3    0    0  0.34843333468E+02  0.11708228458E+02 -0.33963398364E+02  0.50046507663E+02  0.00000000000E+00 0.  1.
          1    1    1    2  501    0 -0.33446732471E+02  0.88135801540E+01 -0.64438084200E+01  0.35183600940E+02  0.00000000000E+00 0. -1.
<scales pt_clust_5="13000.00000" pt_clust_6="13000.00000" pt_clust_7="13000.00000" pt_clust_8="13000.00000" pt_clust_9="34.58848"></scales>
<clustering>
<clus scale="   34.588">  1  9  2 -1</clus>
<clus scale="   89.952">  5  6 -1 -1</clus>
<clus scale="   96.098">  1  5  2 -1</clus>
<clus scale="   97.020">  7  8 -1 -1</clus>
<clus scale="   34.588">  1  5  2 -1</clus>
</clustering>
</event>
<event>
 9    1  0.1610296E-005  0.1221541E+03  0.7546771E-02  0.1242983E+00
         21   -1    0    0  501  502  0.00000000000E+00  0.00000000000E+00  0.24028649498E+03  0.24028649498E+03  0.00000000000E+00 0. -1.
          1   -1    0    0  502    0 -0.00000000000E+00 -0.00000000000E+00 -0.65982716599E+03  0.65982716599E+03  0.00000000000E+00 0. -1.
         23    2    1    2    0    0 -0.17614942987E+02  0.65792083285E+02 -0.38238432565E+03  0.39912896527E+03  0.91909052747E+02 0.  0.
         23    2    1    2    0    0 -0.47635317553E+02 -0.11908678681E+03 -0.23857302646E+03  0.28265787337E+03  0.80793552682E+02 0.  0.
        -11    1    4    4    0    0 -0.12304420580E+02 -0.11468326958E+03 -0.19280610848E+03  0.22467275437E+03  0.00000000000E+00 0. -1.
         11    1    4    4    0    0 -0.35330896973E+02 -0.44035172302E+01 -0.45766917974E+02  0.57985119002E+02  0.00000000000E+00 0.  1.
        -13    1    3    3    0    0  0.14698995789E+02  0.75003347933E+02 -0.20942181416E+03  0.22293285744E+03  0.00000000000E+00 0.  1.
         13    1    3    3    0    0 -0.32313938777E+02 -0.92112646484E+01 -0.17296251149E+03  0.17619610783E+03  0.00000000000E+00 0. -1.
          1    1    1    2  501    0  0.65250260540E+02  0.53294703529E+02  0.20141668109E+03  0.21832682233E+03  0.00000000000E+00 0. -1.
<scales pt_clust_5="13000.00000" pt_clust_6="13000.00000" pt_clust_7="13000.00000" pt_clust_8="13000.00000" pt_clust_9="84.24917"></scales>
<clustering>
<clus scale="   80.794">  5  6 -1 -1</clus>
<clus scale="   84.249">  1  9  2 -1</clus>
<clus scale="   91.909">  7  8 -1 -1</clus>
<clus scale="  114.026">  1  5  2 -1</clus>
<clus scale="   84.249">  1  5  2 -1</clus>
</clustering>
</event>
<event>
 9    1  0.1610296E-005  0.3386303E+03  0.7546771E-02  0.1067492E+00
         -3   -1    0    0    0  501 -0.00000000000E+00  0.00000000000E+00  0.48168229604E+03  0.48168229604E+03  0.00000000000E+00 0.  1.
         21   -1    0    0  501  502  0.00000000000E+00 -0.00000000000E+00 -0.63673705471E+03  0.63673705471E+03  0.00000000000E+00 0. -1.
         23    2    1    2    0    0 -0.21955328234E+03 -0.23675816327E+03  0.33664225177E+03  0.47466836648E+03  0.87886180926E+02 0.  0.
         23    2    1    2    0    0  0.24540180247E+03  0.24274568764E+03 -0.35169991297E+03  0.50126174349E+03  0.91776866252E+02 0.  0.
        -11    1    4    4    0    0  0.14549262310E+03  0.12414453985E+03 -0.25407869419E+03  0.31801879346E+03  0.00000000000E+00 0. -1.
         11    1    4    4    0    0  0.99909179368E+02  0.11860114780E+03 -0.97621218780E+02  0.18324295003E+03  0.00000000000E+00 0.  1.
        -13    1    3    3    0    0 -0.68595962572E+02 -0.37621576666E+02  0.43657124992E+02  0.89592040241E+02  0.00000000000E+00 0. -1.
         13    1    3    3    0    0 -0.15095731977E+03 -0.19913658661E+03  0.29298512678E+03  0.38507632624E+03  0.00000000000E+00 0.  1.
         -3    1    1    2    0  502 -0.25848520125E+02 -0.59875243686E+01 -0.13999709746E+03  0.14248924078E+03  0.00000000000E+00 0.  1.
<scales pt_clust_5="13000.00000" pt_clust_6="13000.00000" pt_clust_7="13000.00000" pt_clust_8="13000.00000" pt_clust_9="26.53293"></scales>
<clustering>
<clus scale="   26.533">  2  9  1 -1</clus>
<clus scale="   87.886">  7  8 -1 -1</clus>
<clus scale="   91.777">  5  6 -1 -1</clus>
<clus scale="  337.597">  1  7  2 -1</clus>
<clus scale="   26.533">  2  5  1 -1</clus>
</clustering>
</event>
<event>
 9    1  0.1610296E-005  0.1730094E+03  0.7546771E-02  0.1175068E+00
          1   -1    0    0  502    0 -0.00000000000E+00  0.00000000000E+00  0.34077535243E+03  0.34077535243E+03  0.00000000000E+00 0. -1.
         21   -1    0    0  501  502  0.00000000000E+00 -0.00000000000E+00 -0.11493965792E+03  0.11493965792E+03  0.00000000000E+00 0.  1.
         23    2    1    2    0    0 -0.42464239894E+02  0.13397204077E+03  0.11284433091E+03  0.20174063107E+03  0.90629574813E+02 0.  0.
         23    2    1    2    0    0  0.24077470405E+02 -0.15327571623E+03  0.13135828481E+03  0.22160079478E+03  0.88197185292E+02 0.  0.
        -11    1    4    4    0    0 -0.14839865145E+02 -0.13263028026E+03  0.10833010679E+03  0.17189073528E+03  0.00000000000E+00 0. -1.
         11    1    4    4    0    0  0.38917335550E+02 -0.20645435979E+02  0.23028178014E+02  0.49710059502E+02  0.00000000000E+00 0.  1.
        -13    1    3    3    0    0 -0.10243058752E+02  0.10617195250E+03  0.33668283058E+02  0.11185238949E+03  0.00000000000E+00 0.  1.
         13    1    3    3    0    0 -0.32221181142E+02  0.27800088265E+02  0.79176047850E+02  0.89888241582E+02  0.00000000000E+00 0. -1.
          1    1    1    2  501    0  0.18386769489E+02  0.19303675469E+02 -0.18366921207E+02  0.32373584501E+02  0.00000000000E+00 0. -1.
<scales pt_clust_5="13000.00000" pt_clust_6="13000.00000" pt_clust_7="13000.00000" pt_clust_8="13000.00000" pt_clust_9="26.65905"></scales>
<clustering>
<clus scale="   26.659">  2  9  1 -1</clus>
<clus scale="   88.197">  5  6 -1 -1</clus>
<clus scale="   90.630">  7  8 -1 -1</clus>
<clus scale="  171.748">  2  5  1 -1</clus>
<clus scale="   26.659">  2  5  1 -1</clus>
</clustering>
</event>
<event>
 9    1  0.1610296E-005  0.1015558E+03  0.7546771E-02  0.1277265E+00
         -4   -1    0    0    0  501 -0.00000000000E+00  0.00000000000E+00  0.28877872280E+03  0.28877872280E+03  0.00000000000E+00 0.  1.
         21   -1    0    0  501  502  0.00000000000E+00 -0.00000000000E+00 -0.68009636966E+02  0.68009636966E+02  0.00000000000E+00 0. -1.
         23    2    1    2    0    0  0.43556346200E+02  0.11238364330E+02  0.14997731720E+03  0.18140441389E+03  0.91601908143E+02 0.  0.
         23    2    1    2    0    0 -0.28846761680E+02 -0.39215412513E+02  0.91141526086E+02  0.13779139701E+03  0.91157594721E+02 0.  0.
        -11    1    4    4    0    0 -0.41674204894E+02 -0.16306942728E+02  0.19257103194E+01  0.44792455781E+02  0.00000000000E+00 0. -1.
         11    1    4    4    0    0  0.12827443214E+02 -0.22908469785E+02  0.89215815767E+02  0.92998941232E+02  0.00000000000E+00 0.  1.
        -13    1    3    3    0    0  0.40443425226E+01  0.43547227430E+02  0.36454120195E+02  0.56935231645E+02  0.00000000000E+00 0. -1.
         13    1    3    3    0    0  0.39512003678E+02 -0.32308863100E+02  0.11352319700E+03  0.12446918224E+03  0.00000000000E+00 0.  1.
         -4    1    1    2    0  502 -0.14709584520E+02  0.27977048183E+02 -0.20349757454E+02  0.37592548866E+02  0.00000000000E+00 0.  1.
<scales pt_clust_5="13000.00000" pt_clust_6="13000.00000" pt_clust_7="13000.00000" pt_clust_8="13000.00000" pt_clust_9="31.60834"></scales>
<clustering>
<clus scale="   31.608">  2  9  1 -1</clus>
<clus scale="   91.158">  5  6 -1 -1</clus>
<clus scale="   91.602">  7  8 -1 -1</clus>
<clus scale="  101.155">  2  5  1 -1</clus>
<clus scale="   31.608">  2  5  1 -1</clus>
</clustering>
</event>
<event>
 9    1  0.1610296E-005  0.1791818E+03  0.7546771E-02  0.1168921E+00
          2   -1    0    0  502    0 -0.00000000000E+00  0.00000000000E+00  0.62873738731E+02  0.62873738731E+02  0.00000000000E+00 0. -1.
         21   -1    0    0  501  502  0.00000000000E+00 -0.00000000000E+00 -0.67759932211E+03  0.67759932211E+03  0.00000000000E+00 0. -1.
         23    2    1    2    0    0 -0.66541587596E+02  0.14270991454E+03 -0.23561389744E+03  0.29726316125E+03  0.89764000479E+02 0.  0.
         23    2    1    2    0    0  0.18523465980E+02 -0.15537472668E+03 -0.31171505247E+03  0.35949345155E+03  0.87091005778E+02 0.  0.
        -11    1    4    4    0    0 -0.27584238958E+02 -0.20911400298E+02 -0.40439360544E+02  0.53230806705E+02  0.00000000000E+00 0.  1.
         11    1    4    4    0    0  0.46107704938E+02 -0.13446332638E+03 -0.27127569193E+03  0.30626264485E+03  0.00000000000E+00 0. -1.
        -13    1    3    3    0    0 -0.31038215214E+02  0.16127479766E+02 -0.11001908117E+03  0.11544550502E+03  0.00000000000E+00 0.  1.
         13    1    3    3    0    0 -0.35503372382E+02  0.12658243478E+03 -0.12559481627E+03  0.18181765623E+03  0.00000000000E+00 0. -1.
          2    1    1    2  501    0  0.48018121616E+02  0.12664812134E+02 -0.67396633474E+02  0.83716448047E+02  0.00000000000E+00 0. -1.
<scales pt_clust_5="13000.00000" pt_clust_6="13000.00000" pt_clust_7="13000.00000" pt_clust_8="13000.00000" pt_clust_9="49.66025"></scales>
<clustering>
<clus scale="   49.660">  2  9  1 -1</clus>
<clus scale="   87.091">  5  6 -1 -1</clus>
<clus scale="   89.764">  7  8 -1 -1</clus>
<clus scale="  177.858">  2  5  1 -1</clus>
<clus scale="   49.660">  2  5  1 -1</clus>
</clustering>
</event>
<event>
 9    1  0.1610296E-005  0.1148345E+03  0.7546771E-02  0.1252150E+00
          1   -1    0    0  502    0 -0.00000000000E+00  0.00000000000E+00  0.33311180310E+03  0.33311180310E+03  0.00000000000E+00 0. -1.
         21   -1    0    0  501  502  0.00000000000E+00 -0.00000000000E+00 -0.65177380944E+02  0.65177380944E+02  0.00000000000E+00 0.  1.
         23    2    1    2    0    0  0.23832485400E+02 -0.70800557775E+02  0.22752984006E+03  0.25609853583E+03  0.90752000503E+02 0.  0.
         23    2    1    2    0    0 -0.31231265485E+02  0.48015398187E+02  0.46327490459E+02  0.11751300068E+03  0.91554347520E+02 0.  0.
        -13    1    3    3    0    0  0.21345412423E+02 -0.91855457882E+02  0.20188856490E+03  0.22282738704E+03  0.00000000000E+00 0. -1.
         13    1    3    3    0    0  0.24870729771E+01  0.21054900107E+02  0.25641275155E+02  0.33271148794E+02  0.00000000000E+00 0.  1.
        -13    1    4    4    0    0 -0.15699909000E+02  0.75025270267E+02  0.36050494258E+02  0.84704878593E+02  0.00000000000E+00 0.  1.
         13    1    4    4    0    0 -0.15531356485E+02 -0.27009872080E+02  0.10276996200E+02  0.32808122088E+02  0.00000000000E+00 0. -1.
          1    1    1    2  501    0  0.73987800850E+01  0.22785159588E+02 -0.59229083644E+01  0.24677647531E+02  0.00000000000E+00 0. -1.
<scales pt_clust_5="13000.00000" pt_clust_6="13000.00000" pt_clust_7="13000.00000" pt_clust_8="13000.00000" pt_clust_9="23.95632"></scales>
<clustering>
<clus scale="   23.956">  2  9  1 -1</clus>
<clus scale="   90.752">  5  6 -1 -1</clus>
<clus scale="   91.554">  7  8 -1 -1</clus>
<clus scale="  114.196">  1  5  2 -1</clus>
<clus scale="   23.956">  2  5  1 -1</clus>
</clustering>
</event>
<event>
 9    1  0.1610296E-005  0.1269241E+03  0.7546771E-02  0.1232706E+00
         -1   -1    0    0    0  501 -0.00000000000E+00  0.00000000000E+00  0.14205001684E+03  0.14205001684E+03  0.00000000000E+00 0.  1.
         21   -1    0    0  501  502  0.00000000000E+00 -0.00000000000E+00 -0.26762845442E+03  0.26762845442E+03  0.00000000000E+00 0.  1.
         23    2    1    2    0    0 -0.83988041284E+02  0.21844307266E+02  0.80712425920E+02  0.15014680235E+03  0.92186776272E+02 0.  0.
         23    2    1    2    0    0  0.91216937552E+02 -0.28627224010E+01 -0.13821741945E+03  0.18849258607E+03  0.89981526362E+02 0.  0.
        -11    1    4    4    0    0  0.21374536522E+02  0.59766887001E+01  0.10047543150E+02  0.24362773707E+02  0.00000000000E+00 0.  1.
         11    1    4    4    0    0  0.69842401030E+02 -0.88394111011E+01 -0.14826496260E+03  0.16412981236E+03  0.00000000000E+00 0. -1.
        -11    1    3    3    0    0 -0.53692672750E+02  0.52802591642E+02  0.75299859267E+02  0.10649453318E+03  0.00000000000E+00 0.  1.
         11    1    3    3    0    0 -0.30295368534E+02 -0.30958284376E+02  0.54125666528E+01  0.43652269172E+02  0.00000000000E+00 0. -1.
         -1    1    1    2    0  502 -0.72288962680E+01 -0.18981584865E+02 -0.68073444054E+02  0.71039082839E+02  0.00000000000E+00 0.  1.
<scales pt_clust_5="13000.00000" pt_clust_6="13000.00000" pt_clust_7="13000.00000" pt_clust_8="13000.00000" pt_clust_9="20.31151"></scales>
<clustering>
<clus scale="   20.312">  2  9  1 -1</clus>
<clus scale="   89.982">  5  6 -1 -1</clus>
<clus scale="   92.187">  7  8 -1 -1</clus>
<clus scale="  125.332">  2  5  1 -1</clus>
<clus scale="   20.312">  2  5  1 -1</clus>
</clustering>
</event>
<event>
 9    1  0.1610296E-005  0.9285989E+02  0.7546771E-02  0.1296717E+00
         21   -1    0    0  501  502  0.00000000000E+00  0.00000000000E+00  0.32844136882E+02  0.32844136882E+02  0.00000000000E+00 0. -1.
          1   -1    0    0  502    0 -0.00000000000E+00 -0.00000000000E+00 -0.53902688326E+03  0.53902688326E+03  0.00000000000E+00 0. -1.
         23    2    1    2    0    0 -0.28661688243E+02  0.15582208958E+00 -0.34460779954E+03  0.35739761852E+03  0.90316142368E+02 0.  0.
         23    2    1    2    0    0 -0.16570106854E+02  0.11095544594E+02 -0.11855484248E+03  0.15104440258E+03  0.91441135835E+02 0.  0.
        -13    1    4    4    0    0  0.35105163156E+02 -0.90949654662E+01 -0.32736986599E+02  0.48854899126E+02  0.00000000000E+00 0.  1.
         13    1    4    4    0    0 -0.51675270010E+02  0.20190510060E+02 -0.85817855885E+02  0.10218950345E+03  0.00000000000E+00 0. -1.
        -13    1    3    3    0    0  0.32243388948E+02  0.10015947535E+01 -0.90048137352E+02  0.95652006584E+02  0.00000000000E+00 0.  1.
         13    1    3    3    0    0 -0.60905077191E+02 -0.84577266394E+00 -0.25455966218E+03  0.26174561194E+03  0.00000000000E+00 0. -1.
          1    1    1    2  501    0  0.45231795097E+02 -0.11251366684E+02 -0.43020104353E+02  0.63428999034E+02  0.00000000000E+00 0. -1.
<scales pt_clust_5="13000.00000" pt_clust_6="13000.00000" pt_clust_7="13000.00000" pt_clust_8="13000.00000" pt_clust_9="46.61018"></scales>
<clustering>
<clus scale="   46.610">  1  9  2 -1</clus>
<clus scale="   90.316">  7  8 -1 -1</clus>
<clus scale="   91.441">  5  6 -1 -1</clus>
<clus scale="   91.752">  2  7  1 -1</clus>
<clus scale="   46.610">  1  5  2 -1</clus>
</clustering>
</event>
<event>
 9    1  0.1610296E-005  0.9568428E+02  0.7546771E-02  0.1289927E+00
         21   -1    0    0  501  502  0.00000000000E+00  0.00000000000E+00  0.48625970853E+03  0.48625970853E+03  0.00000000000E+00 0. -1.
          3   -1    0    0  502    0 -0.00000000000E+00 -0.00000000000E+00 -0.50580037906E+02  0.50580037906E+02  0.00000000000E+00 0. -1.
         23    2    1    2    0    0 -0.10387431706E+02 -0.27218228959E+02  0.32282310451E+02  0.10067065336E+03  0.90794835506E+02 0.  0.
         23    2    1    2    0    0  0.36961082717E+02  0.93991956603E+01  0.14356456778E+03  0.17437383553E+03  0.91328981589E+02 0.  0.
        -13    1    4    4    0    0  0.39981437410E+02  0.30534530935E+02  0.14449631430E+03  0.15300345670E+03  0.00000000000E+00 0. -1.
         13    1    4    4    0    0 -0.30203546924E+01 -0.21135335275E+02 -0.93174651077E+00  0.21370378827E+02  0.00000000000E+00 0.  1.
        -13    1    3    3    0    0  0.36747553521E+02 -0.10725224943E+02  0.33278521391E+02  0.50723496783E+02  0.00000000000E+00 0. -1.
         13    1    3    3    0    0 -0.47134985227E+02 -0.16493004016E+02 -0.99621093972E+00  0.49947156577E+02  0.00000000000E+00 0.  1.
          3    1    1    2  501    0 -0.26573651011E+02  0.17819033298E+02  0.25983279238E+03  0.26179525755E+03  0.00000000000E+00 0. -1.
<scales pt_clust_5="13000.00000" pt_clust_6="13000.00000" pt_clust_7="13000.00000" pt_clust_8="13000.00000" pt_clust_9="31.99495"></scales>
<clustering>
<clus scale="   31.995">  1  9  2 -1</clus>
<clus scale="   90.795">  7  8 -1 -1</clus>
<clus scale="   91.329">  5  6 -1 -1</clus>
<clus scale="   95.175">  2  7  1 -1</clus>
<clus scale="   31.995">  1  5  2 -1</clus>
</clustering>
</event>
<event>
 9    1  0.1610296E-005  0.1434124E+03  0.7546771E-02  0.1208889E+00
         -3   -1    0    0    0  501 -0.00000000000E+00  0.00000000000E+00  0.11124894127E+03  0.11124894127E+03  0.00000000000E+00 0.  1.
         21   -1    0    0  501  502  0.00000000000E+00 -0.00000000000E+00 -0.33602648697E+03  0.33602648697E+03  0.00000000000E+00 0.  1.
         23    2    1    2    0    0  0.35820815454E+01  0.11354530717E+03  0.14682748451E+02  0.14741581292E+03  0.92792622060E+02 0.  0.
         23    2    1    2    0    0  0.32499249489E+01 -0.92728314612E+02 -0.24451444717E+03  0.27737477699E+03  0.92414012420E+02 0.  0.
        -11    1    3    3    0    0 -0.44407042904E+02  0.54310600538E+02  0.11697476582E+02  0.71122835634E+02  0.00000000000E+00 0.  1.
         11    1    3    3    0    0  0.47989124450E+02  0.59234706631E+02  0.29852718691E+01  0.76292977287E+02  0.00000000000E+00 0. -1.
        -11    1    4    4    0    0  0.43831569330E+02 -0.47202596471E+02 -0.16526730125E+03  0.17737692196E+03  0.00000000000E+00 0. -1.
         11    1    4    4    0    0 -0.40581644381E+02 -0.45525718141E+02 -0.79247145929E+02  0.99997855031E+02  0.00000000000E+00 0.  1.
         -3    1    1    2    0  502 -0.68320064943E+01 -0.20816992557E+02  0.50541530179E+01  0.22484838327E+02  0.00000000000E+00 0.  1.
<scales pt_clust_5="13000.00000" pt_clust_6="13000.00000" pt_clust_7="13000.00000" pt_clust_8="13000.00000" pt_clust_9="21.90945"></scales>
<clustering>
<clus scale="   21.909">  2  9  1 -1</clus>
<clus scale="   92.414">  7  8 -1 -1</clus>
<clus scale="   92.793">  5  6 -1 -1</clus>
<clus scale="  143.168">  2  7  1 -1</clus>
<clus scale="   21.909">  2  5  1 -1</clus>
</clustering>
</event>
<event>
 9    1  0.1610296E-005  0.9564241E+02  0.7546771E-02  0.1290064E+00
         -3   -1    0    0    0  501 -0.00000000000E+00  0.00000000000E+00  0.38315951132E+03  0.38315951132E+03  0.00000000000E+00 0.  1.
         21   -1    0    0  501  502  0.00000000000E+00 -0.00000000000E+00 -0.17142444111E+03  0.17142444111E+03  0.00000000000E+00 0.  1.
         23    2    1    2    0    0  0.61120045968E+01 -0.18379184433E+02  0.20535332749E+03  0.22552699630E+03  0.91199155298E+02 0.  0.
         23    2    1    2    0    0 -0.50174980841E+02  0.75387806504E+01  0.14740187865E+03  0.18091601322E+03  0.91809193939E+02 0.  0.
        -11    1    3    3    0    0  0.19981208468E+02  0.18428750537E+02  0.14787562988E+02  0.30944136074E+02  0.00000000000E+00 0.  1.
         11    1    3    3    0    0 -0.13869203872E+02 -0.36807934970E+02  0.19056576450E+03  0.19458286022E+03  0.00000000000E+00 0. -1.
        -13    1    4    4    0    0 -0.45914532812E+02 -0.27564215396E+02  0.13180380827E+03  0.14226796607E+03  0.00000000000E+00 0.  1.
         13    1    4    4    0    0 -0.42604480297E+01  0.35102996047E+02  0.15598070379E+02  0.38648047149E+02  0.00000000000E+00 0. -1.
         -3    1    1    2    0  502  0.44062976245E+02  0.10840403782E+02 -0.14102013593E+03  0.14814094291E+03  0.00000000000E+00 0.  1.
<scales pt_clust_5="13000.00000" pt_clust_6="13000.00000" pt_clust_7="13000.00000" pt_clust_8="13000.00000" pt_clust_9="45.37687"></scales>
<clustering>
<clus scale="   45.377">  2  9  1 -1</clus>
<clus scale="   91.199">  5  6 -1 -1</clus>
<clus scale="   91.809">  7  8 -1 -1</clus>
<clus scale="   95.057">  1  5  2 -1</clus>
<clus scale="   45.377">  2  5  1 -1</clus>
</clustering>
</event>
<event>
 9    1  0.1610296E-005  0.1192391E+03  0.7546771E-02  0.1244906E+00
          3   -1    0    0  502    0 -0.00000000000E+00  0.00000000000E+00  0.78378424293E+02  0.78378424293E+02  0.00000000000E+00 0. -1.
         21   -1    0    0  501  502  0.00000000000E+00 -0.00000000000E+00 -0.27733176384E+03  0.27733176384E+03  0.00000000000E+00 0.  1.
         23    2    1    2    0    0 -0.10138745357E+02  0.55068243253E+02 -0.56314051011E+02  0.12209780039E+03  0.92743166575E+02 0.  0.
         23    2    1    2    0    0  0.13440485308E+02 -0.10048912103E+03 -0.86833437740E+02  0.16158287569E+03  0.91050918253E+02 0.  0.
        -11    1    3    3    0    0  0.15639581987E+02  0.27726225960E+02  0.19606316677E+02  0.37386465256E+02  0.00000000000E+00 0. -1.
         11    1    3    3    0    0 -0.25778327344E+02  0.27342017292E+02 -0.75920367687E+02  0.84711335133E+02  0.00000000000E+00 0.  1.
        -13    1    4    4    0    0 -0.26374393956E+02 -0.90866270587E+02 -0.52959863978E+02  0.10842986203E+03  0.00000000000E+00 0.  1.
         13    1    4    4    0    0  0.39814879264E+02 -0.96228504406E+01 -0.33873573762E+02  0.53153013657E+02  0.00000000000E+00 0. -1.
          3    1    1    2  501    0 -0.33017399512E+01  0.45420877775E+02 -0.55805850799E+02  0.72029512062E+02  0.00000000000E+00 0. -1.
<scales pt_clust_5="13000.00000" pt_clust_6="13000.00000" pt_clust_7="13000.00000" pt_clust_8="13000.00000" pt_clust_9="45.54072"></scales>
<clustering>
<clus scale="   45.541">  2  9  1 -1</clus>
<clus scale="   91.051">  7  8 -1 -1</clus>
<clus scale="   92.743">  5  6 -1 -1</clus>
<clus scale="  117.928">  2  7  1 -1</clus>
<clus scale="   45.541">  2  5  1 -1</clus>
</clustering>
</event>
<event>
 9    1  0.1610296E-005  0.1067416E+03  0.7546771E-02  0.1266817E+00
         21   -1    0    0  501  502  0.00000000000E+00  0.00000000000E+00  0.26375741636E+03  0.26375741636E+03  0.00000000000E+00 0.  1.
         -4   -1    0    0    0  501 -0.00000000000E+00 -0.00000000000E+00 -0.10659081360E+03  0.10659081360E+03  0.00000000000E+00 0.  1.
         23    2    1    2    0    0 -0.30780885526E+01 -0.61814101645E+02  0.22593133776E+02  0.11190114630E+03  0.90448654265E+02 0.  0.
         23    2    1    2    0    0  0.60677466982E+02  0.30208723338E+02  0.15289116866E+03  0.19024058503E+03  0.90672205083E+02 0.  0.
        -11    1    3    3    0    0  0.32581987821E+02  0.56020074150E+01  0.10461684043E+02  0.34675859766E+02  0.00000000000E+00 0.  1.
         11    1    3    3    0    0 -0.35660076374E+02 -0.67416109060E+02  0.12131449733E+02  0.77225286535E+02  0.00000000000E+00 0. -1.
        -13    1    4    4    0    0 -0.16498367806E+02  0.18106567272E+02  0.82426061003E+01  0.25845395605E+02  0.00000000000E+00 0. -1.
         13    1    4    4    0    0  0.77175834788E+02  0.12102156066E+02  0.14464856256E+03  0.16439518943E+03  0.00000000000E+00 0.  1.
         -4    1    1    2    0  502 -0.57599378429E+02  0.31605378306E+02 -0.18317699681E+02  0.68206498627E+02  0.00000000000E+00 0.  1.
<scales pt_clust_5="13000.00000" pt_clust_6="13000.00000" pt_clust_7="13000.00000" pt_clust_8="13000.00000" pt_clust_9="65.70078"></scales>
<clustering>
<clus scale="   65.701">  1  9  2 -1</clus>
<clus scale="   90.449">  5  6 -1 -1</clus>
<clus scale="   90.672">  7  8 -1 -1</clus>
<clus scale="  106.552">  2  5  1 -1</clus>
<clus scale="   65.701">  1  5  2 -1</clus>
</clustering>
</event>
<event>
 9    1  0.1610296E-005  0.1153189E+03  0.7546771E-02  0.1252006E+00
         21   -1    0    0  501  502  0.00000000000E+00  0.00000000000E+00  0.24150480519E+02  0.24150480519E+02  0.00000000000E+00 0.  1.
          1   -1    0    0  502    0 -0.00000000000E+00 -0.00000000000E+00 -0.99991101285E+03  0.99991101285E+03  0.00000000000E+00 0. -1.
         23    2    1    2    0    0  0.27726150904E+02  0.68903391033E+02 -0.50231226857E+03  0.51588689015E+03  0.91133152727E+02 0.  0.
         23    2    1    2    0    0 -0.57890758305E+02 -0.33435186967E+02 -0.42748029224E+03  0.44274562306E+03  0.93888417095E+02 0.  0.
        -11    1    3    3    0    0 -0.28990255447E+02  0.44298762355E+02 -0.17682867309E+03  0.18458384242E+03  0.00000000000E+00 0.  1.
         11    1    3    3    0    0  0.56716406351E+02  0.24604628679E+02 -0.32548359548E+03  0.33130304772E+03  0.00000000000E+00 0. -1.
        -11    1    4    4    0    0 -0.56782835707E+02  0.16604239635E+02 -0.30027653243E+03  0.30604899466E+03  0.00000000000E+00 0.  1.
         11    1    4    4    0    0 -0.11079225976E+01 -0.50039426602E+02 -0.12720375981E+03  0.13669662840E+03  0.00000000000E+00 0. -1.
          1    1    1    2  501    0  0.30164607401E+02 -0.35468204066E+02 -0.45967971521E+02  0.65428980162E+02  0.00000000000E+00 0. -1.
<scales pt_clust_5="13000.00000" pt_clust_6="13000.00000" pt_clust_7="13000.00000" pt_clust_8="13000.00000" pt_clust_9="46.56068"></scales>
<clustering>
<clus scale="   46.561">  1  9  2 -1</clus>
<clus scale="   91.133">  5  6 -1 -1</clus>
<clus scale="   93.888">  7  8 -1 -1</clus>
<clus scale="  113.087">  2  5  1 -1</clus>
<clus scale="   46.561">  1  5  2 -1</clus>
</clustering>
</event>
<event>
 9    1  0.1610296E-005  0.1327601E+03  0.7546771E-02  0.1224531E+00
         21   -1    0    0  501  502  0.00000000000E+00  0.00000000000E+00  0.15602056954E+03  0.15602056954E+03  0.00000000000E+00 0.  1.
          2   -1    0    0  502    0 -0.00000000000E+00 -0.00000000000E+00 -0.20609654637E+03  0.20609654637E+03  0.00000000000E+00 0. -1.
         23    2    1    2    0    0 -0.86433482828E+02 -0.55607189183E+02 -0.52189806532E+02  0.14737204693E+03  0.91825039446E+02 0.  0.
         23    2    1    2    0    0  0.10127796938E+03 -0.17014680705E+02 -0.22395029657E+02  0.13667472279E+03  0.87359693546E+02 0.  0.
        -11    1    3    3    0    0 -0.13412391633E+02 -0.62800458939E+02 -0.28611022321E+02  0.70302066047E+02  0.00000000000E+00 0.  1.
         11    1    3    3    0    0 -0.73021091195E+02  0.71932697565E+01 -0.23578784211E+02  0.77069980887E+02  0.00000000000E+00 0. -1.
        -13    1    4    4    0    0  0.98907007393E+02 -0.43581181962E+02 -0.19740688770E+02  0.10987088025E+03  0.00000000000E+00 0.  1.
         13    1    4    4    0    0  0.23709619831E+01  0.26566501257E+02 -0.26543408865E+01  0.26803842547E+02  0.00000000000E+00 0. -1.
          2    1    1    2  501    0 -0.14844486549E+02  0.72621869888E+02  0.24508859354E+02  0.78070346187E+02  0.00000000000E+00 0. -1.
<scales pt_clust_5="13000.00000" pt_clust_6="13000.00000" pt_clust_7="13000.00000" pt_clust_8="13000.00000" pt_clust_9="74.12351"></scales>
<clustering>
<clus scale="   74.124">  1  9  2 -1</clus>
<clus scale="   87.360">  7  8 -1 -1</clus>
<clus scale="   91.825">  5  6 -1 -1</clus>
<clus scale="  129.712">  1  7  2 -1</clus>
<clus scale="   74.124">  1  5  2 -1</clus>
</clustering>
</event>
<event>
 9    1  0.1610296E-005  0.1056774E+03  0.7546771E-02  0.1269914E+00
          1   -1    0    0  502    0 -0.00000000000E+00  0.00000000000E+00  0.30667321468E+03  0.30667321468E+03  0.00000000000E+00 0. -1.
         21   -1    0    0  501  502  0.00000000000E+00 -0.00000000000E+00 -0.14173191029E+03  0.14173191029E+03  0.00000000000E+00 0. -1.
         23    2    1    2    0    0 -0.22571376361E+02  0.48953449442E+02  0.25709920580E+03  0.27771899129E+03  0.90121746845E+02 0.  0.
         23    2    1    2    0    0  0.22173331341E+02 -0.23026730382E+02 -0.28783908424E+02  0.10221266299E+03  0.92720160467E+02 0.  0.
        -11    1    4    4    0    0 -0.14010863221E+02  0.18136719832E+02  0.18791759127E+02  0.29637393703E+02  0.00000000000E+00 0. -1.
         11    1    4    4    0    0  0.36184194561E+02 -0.41163450213E+02 -0.47575667551E+02  0.72575269289E+02  0.00000000000E+00 0.  1.
        -11    1    3    3    0    0  0.15314334804E+02  0.62197074118E+02  0.17451685594E+03  0.18590088189E+03  0.00000000000E+00 0.  1.
         11    1    3    3    0    0 -0.37885711165E+02 -0.13243624676E+02  0.82582349861E+02  0.91818109398E+02  0.00000000000E+00 0. -1.
          1    1    1    2  501    0  0.39804502046E+00 -0.25926719061E+02 -0.63373992989E+02  0.68473470690E+02  0.00000000000E+00 0. -1.
<scales pt_clust_5="13000.00000" pt_clust_6="13000.00000" pt_clust_7="13000.00000" pt_clust_8="13000.00000" pt_clust_9="25.92977"></scales>
<clustering>
<clus scale="   25.930">  2  9  1 -1</clus>
<clus scale="   90.122">  7  8 -1 -1</clus>
<clus scale="   92.720">  5  6 -1 -1</clus>
<clus scale="  103.405">  1  7  2 -1</clus>
<clus scale="   25.930">  2  5  1 -1</clus>
</clustering>
</event>
<event>
 9    1  0.1610296E-005  0.1012598E+03  0.7546771E-02  0.1281691E+00
          1   -1    0    0  502    0 -0.00000000000E+00  0.00000000000E+00  0.31884461791E+03  0.31884461791E+03  0.00000000000E+00 0. -1.
         21   -1    0    0  501  502  0.00000000000E+00 -0.00000000000E+00 -0.15604933102E+03  0.15604933102E+03  0.00000000000E+00 0.  1.
         23    2    1    2    0    0  0.25228719727E+02 -0.36759693888E+02  0.27509075203E+03  0.29042603329E+03  0.81759376018E+02 0.  0.
         23    2    1    2    0    0 -0.32485042929E+02  0.62445805805E+02 -0.10815462353E+03  0.15745722995E+03  0.90225273591E+02 0.  0.
        -11    1    3    3    0    0  0.31053287607E+02  0.12495673267E+02  0.51660953287E+02  0.61557311638E+02  0.00000000000E+00 0. -1.
         11    1    3    3    0    0 -0.58245678803E+01 -0.49255367155E+02  0.22342979875E+03  0.22886872166E+03  0.00000000000E+00 0.  1.
        -13    1    4    4    0    0 -0.24705723788E+02  0.34603495475E+02 -0.11916482014E+03  0.12652284002E+03  0.00000000000E+00 0.  1.
         13    1    4    4    0    0 -0.77793191414E+01  0.27842310331E+02  0.11010196610E+02  0.30934389928E+02  0.00000000000E+00 0. -1.
          1    1    1    2  501    0  0.72563232022E+01 -0.25686111917E+02 -0.41408416089E+01  0.27010685683E+02  0.00000000000E+00 0. -1.
<scales pt_clust_5="13000.00000" pt_clust_6="13000.00000" pt_clust_7="13000.00000" pt_clust_8="13000.00000" pt_clust_9="26.69140"></scales>
<clustering>
<clus scale="   26.691">  2  9  1 -1</clus>
<clus scale="   81.759">  5  6 -1 -1</clus>
<clus scale="   90.225">  7  8 -1 -1</clus>
<clus scale="   93.795">  1  5  2 -1</clus>
<clus scale="   26.691">  2  5  1 -1</clus>
</clustering>
</event>
<event>
 9    1  0.1610296E-005  0.9591561E+02  0.7546771E-02  0.1290515E+00
         21   -1    0    0  501  502  0.00000000000E+00  0.00000000000E+00  0.21462856273E+02  0.21462856273E+02  0.00000000000E+00 0.  1.
         -4   -1    0    0    0  501 -0.00000000000E+00 -0.00000000000E+00 -0.66653744728E+03  0.66653744728E+03  0.00000000000E+00 0.  1.
         23    2    1    2    0    0 -0.58191780447E+01 -0.13554650361E+02 -0.33475964407E+03  0.34760997090E+03  0.92472056305E+02 0.  0.
         23    2    1    2    0    0  0.43213659211E+02  0.18614088183E+02 -0.24039551948E+03  0.26093801066E+03  0.89915154453E+02 0.  0.
        -13    1    4    4    0    0  0.34605358723E+02 -0.27290238814E+02 -0.59099344336E+02  0.73722591434E+02  0.00000000000E+00 0. -1.
         13    1    4    4    0    0  0.86083004881E+01  0.45904326997E+02 -0.18129617514E+03  0.18721541923E+03  0.00000000000E+00 0.  1.
        -13    1    3    3    0    0  0.27475208583E+02 -0.40179658737E+02 -0.13942565713E+03  0.14767804823E+03  0.00000000000E+00 0. -1.
         13    1    3    3    0    0 -0.33294386627E+02  0.26625008375E+02 -0.19533398694E+03  0.19993192268E+03  0.00000000000E+00 0.  1.
         -4    1    1    2    0  502 -0.37394481166E+02 -0.50594378219E+01 -0.69919427459E+02  0.79452321986E+02  0.00000000000E+00 0.  1.
<scales pt_clust_5="13000.00000" pt_clust_6="13000.00000" pt_clust_7="13000.00000" pt_clust_8="13000.00000" pt_clust_9="37.73520"></scales>
<clustering>
<clus scale="   37.735">  1  9  2 -1</clus>
<clus scale="   89.915">  5  6 -1 -1</clus>
<clus scale="   92.472">  7  8 -1 -1</clus>
<clus scale="   93.453">  1  5  2 -1</clus>
<clus scale="   37.735">  1  5  2 -1</clus>
</clustering>
</event>
<event>
 9    1  0.1610296E-005  0.1229510E+03  0.7546771E-02  0.1238406E+00
         21   -1    0    0  501  502  0.00000000000E+00  0.00000000000E+00  0.12028820238E+03  0.12028820238E+03  0.00000000000E+00 0. -1.
          1   -1    0    0  502    0 -0.00000000000E+00 -0.00000000000E+00 -0.59040143185E+03  0.59040143185E+03  0.00000000000E+00 0. -1.
         23    2    1    2    0    0  0.51634664771E+02 -0.32295713274E+02 -0.28376307582E+03  0.30420670735E+03  0.91165157262E+02 0.  0.
         23    2    1    2    0    0 -0.13613809441E+03  0.31522090125E+02 -0.25015706477E+03  0.30059265339E+03  0.90830409547E+02 0.  0.
        -13    1    3    3    0    0  0.18512031659E+02 -0.60439209359E+02 -0.20128517184E+03  0.21097704554E+03  0.00000000000E+00 0.  1.
         13    1    3    3    0    0  0.33122633112E+02  0.28143496085E+02 -0.82477903976E+02  0.93229661806E+02  0.00000000000E+00 0. -1.
        -13    1    4    4    0    0 -0.10811276510E+03  0.40543840102E+02 -0.24480441345E+03  0.27066838344E+03  0.00000000000E+00 0. -1.
         13    1    4    4    0    0 -0.28025329313E+02 -0.90217499774E+01 -0.53526513200E+01  0.29924269948E+02  0.00000000000E+00 0.  1.
          1    1    1    2  501    0  0.84503429641E+02  0.77362314916E+00  0.63806911113E+02  0.10589027349E+03  0.00000000000E+00 0. -1.
<scales pt_clust_5="13000.00000" pt_clust_6="13000.00000" pt_clust_7="13000.00000" pt_clust_8="13000.00000" pt_clust_9="84.50697"></scales>
<clustering>
<clus scale="   84.507">  1  9  2 -1</clus>
<clus scale="   90.830">  7  8 -1 -1</clus>
<clus scale="   91.165">  5  6 -1 -1</clus>
<clus scale="  122.703">  1  7  2 -1</clus>
<clus scale="   84.507">  1  5  2 -1</clus>
</clustering>
</event>
<event>
 9    1  0.1610296E-005  0.1233763E+03  0.7546771E-02  0.1238727E+00
          3   -1    0    0  502    0 -0.00000000000E+00  0.00000000000E+00  0.79719088290E+02  0.79719088290E+02  0.00000000000E+00 0. -1.
         21   -1    0    0  501  502  0.00000000000E+00 -0.00000000000E+00 -0.44331943038E+03  0.44331943038E+03  0.00000000000E+00 0.  1.
         23    2    1    2    0    0  0.19145533846E+02  0.81592834536E+02  0.60965164896E+01  0.12404810383E+03  0.91251424294E+02 0.  0.
         23    2    1    2    0    0 -0.35361471698E+02 -0.46992107954E+02 -0.28532739930E+03  0.30637091052E+03  0.94829943247E+02 0.  0.
        -11    1    3    3    0    0 -0.32085296586E+02  0.13371358695E+02  0.15799835931E+02  0.38182382139E+02  0.00000000000E+00 0.  1.
         11    1    3    3    0    0  0.51230830432E+02  0.68221475841E+02 -0.97033194413E+01  0.85865721687E+02  0.00000000000E+00 0. -1.
        -13    1    4    4    0    0 -0.19369109677E+02 -0.75787919544E+02 -0.21252606385E+03  0.22646478529E+03  0.00000000000E+00 0.  1.
         13    1    4    4    0    0 -0.15992362021E+02  0.28795811590E+02 -0.72801335442E+02  0.79906125236E+02  0.00000000000E+00 0. -1.
          3    1    1    2  501    0  0.16215937852E+02 -0.34600726582E+02 -0.84369459283E+02  0.92619504319E+02  0.00000000000E+00 0. -1.
<scales pt_clust_5="13000.00000" pt_clust_6="13000.00000" pt_clust_7="13000.00000" pt_clust_8="13000.00000" pt_clust_9="38.21213"></scales>
<clustering>
<clus scale="   38.212">  2  9  1 -1</clus>
<clus scale="   91.251">  5  6 -1 -1</clus>
<clus scale="   94.830">  7  8 -1 -1</clus>
<clus scale="  120.648">  1  5  2 -1</clus>
<clus scale="   38.212">  2  5  1 -1</clus>
</clustering>
</event>
<event>
 9    1  0.1610296E-005  0.1652708E+03  0.7546771E-02  0.1210181E+00
          1   -1    0    0  502    0 -0.00000000000E+00  0.00000000000E+00  0.11338013292E+04  0.11338013292E+04  0.00000000000E+00 0. -1.
         21   -1    0    0  501  502  0.00000000000E+00 -0.00000000000E+00 -0.45376777347E+02  0.45376777347E+02  0.00000000000E+00 0. -1.
         23    2    1    2    0    0 -0.73112576405E+01 -0.10504581639E+02  0.13053127890E+03  0.15911989011E+03  0.90093972789E+02 0.  0.
         23    2    1    2    0    0 -0.68357695650E+02  0.12325725125E+03  0.76979570392E+03  0.78806759062E+03  0.92736061323E+02 0.  0.
        -11    1    4    4    0    0 -0.65348693338E+02  0.30537077071E+02  0.25618248883E+03  0.26614363111E+03  0.00000000000E+00 0.  1.
         11    1    4    4    0    0 -0.30090023117E+01  0.92720174180E+02  0.51361321509E+03  0.52192395951E+03  0.00000000000E+00 0. -1.
        -11    1    3    3    0    0  0.32883689867E+02  0.17564882447E+02  0.32270269635E+02  0.49307529414E+02  0.00000000000E+00 0. -1.
         11    1    3    3    0    0 -0.40194947508E+02 -0.28069464086E+02  0.98261009265E+02  0.10981236069E+03  0.00000000000E+00 0.  1.
          1    1    1    2  501    0  0.75668953290E+02 -0.11275266961E+03  0.18809756908E+03  0.23199062587E+03  0.00000000000E+00 0. -1.
<scales pt_clust_5="13000.00000" pt_clust_6="13000.00000" pt_clust_7="13000.00000" pt_clust_8="13000.00000" pt_clust_9="136.80078"></scales>
<clustering>
<clus scale="   90.094">  7  8 -1 -1</clus>
<clus scale="   90.999">  1  7  2 -1</clus>
<clus scale="   92.736">  5  6 -1 -1</clus>
<clus scale="  136.801">  2  9  1 -1</clus>
<clus scale="  136.801">  2  5  1 -1</clus>
</clustering>
</event>
<event>
 9    1  0.1610296E-005  0.1243189E+03  0.7546771E-02  0.1236595E+00
         21   -1    0    0  501  502  0.00000000000E+00  0.00000000000E+00  0.46929520727E+03  0.46929520727E+03  0.00000000000E+00 0.  1.
         -3   -1    0    0    0  501 -0.00000000000E+00 -0.00000000000E+00 -0.11199363665E+03  0.11199363665E+03  0.00000000000E+00 0.  1.
         23    2    1    2    0    0  0.14961045466E+02  0.65215730381E+02  0.10824055171E+02  0.11395909118E+03  0.91611079693E+02 0.  0.
         23    2    1    2    0    0 -0.78100047799E+02 -0.87621057148E+02  0.39481631622E+02  0.15310848520E+03  0.90035225786E+02 0.  0.
        -11    1    4    4    0    0 -0.48603488350E+02 -0.96578909519E+02  0.70276828376E+01  0.10834746499E+03  0.00000000000E+00 0.  1.
         11    1    4    4    0    0 -0.29496559449E+02  0.89578523707E+01  0.32453948784E+02  0.44761020209E+02  0.00000000000E+00 0. -1.
        -13    1    3    3    0    0  0.52881395236E+02  0.26135474558E+02  0.60229313540E+01  0.59294019046E+02  0.00000000000E+00 0. -1.
         13    1    3    3    0    0 -0.37920349770E+02  0.39080255824E+02  0.48011238166E+01  0.54665072138E+02  0.00000000000E+00 0.  1.
         -3    1    1    2    0  502  0.63139002333E+02  0.22405326766E+02  0.30699588383E+03  0.31422126754E+03  0.00000000000E+00 0.  1.
<scales pt_clust_5="13000.00000" pt_clust_6="13000.00000" pt_clust_7="13000.00000" pt_clust_8="13000.00000" pt_clust_9="66.99651"></scales>
<clustering>
<clus scale="   66.997">  1  9  2 -1</clus>
<clus scale="   90.035">  5  6 -1 -1</clus>
<clus scale="   91.611">  7  8 -1 -1</clus>
<clus scale="  123.162">  1  5  2 -1</clus>
<clus scale="   66.997">  1  5  2 -1</clus>
</clustering>
</event>
<event>
 9    1  0.1610296E-005  0.9650745E+02  0.7546771E-02  0.1290915E+00
         21   -1    0    0  501  502  0.00000000000E+00  0.00000000000E+00  0.36732099956E+02  0.36732099956E+02  0.00000000000E+00 0.  1.
         -2   -1    0    0    0  501 -0.00000000000E+00 -0.00000000000E+00 -0.30581205807E+03  0.30581205807E+03  0.00000000000E+00 0.  1.
         23    2    1    2    0    0  0.24502674885E+01 -0.26588640812E+02 -0.13846906202E+03  0.16799693758E+03  0.91303506332E+02 0.  0.
         23    2    1    2    0    0  0.16846512749E+02  0.35132729435E+02 -0.11362323925E+03  0.14745575199E+03  0.85526864950E+02 0.  0.
        -11    1    3    3    0    0 -0.35480737094E+02 -0.33504905871E+01 -0.18727191197E+02  0.40259361422E+02  0.00000000000E+00 0. -1.
         11    1    3    3    0    0  0.37931004583E+02 -0.23238150224E+02 -0.11974187083E+03  0.12773757616E+03  0.00000000000E+00 0.  1.
        -13    1    4    4    0    0 -0.26088114218E+02  0.12861199037E+02 -0.88079245457E+02  0.92757499020E+02  0.00000000000E+00 0. -1.
         13    1    4    4    0    0  0.42934626967E+02  0.22271530398E+02 -0.25543993788E+02  0.54698252968E+02  0.00000000000E+00 0.  1.
         -2    1    1    2    0  502 -0.19296780237E+02 -0.85440886233E+01 -0.16987656839E+02  0.27091468451E+02  0.00000000000E+00 0.  1.
<scales pt_clust_5="13000.00000" pt_clust_6="13000.00000" pt_clust_7="13000.00000" pt_clust_8="13000.00000" pt_clust_9="21.10372"></scales>
<clustering>
<clus scale="   21.104">  1  9  2 -1</clus>
<clus scale="   85.527">  7  8 -1 -1</clus>
<clus scale="   91.062">  1  7  2 -1</clus>
<clus scale="   91.304">  5  6 -1 -1</clus>
<clus scale="   21.104">  1  5  2 -1</clus>
</clustering>
</event>
<event>
 9    1  0.1610296E-005  0.9226054E+02  0.7546771E-02  0.1297530E+00
          1   -1    0    0  502    0 -0.00000000000E+00  0.00000000000E+00  0.55438923762E+03  0.55438923762E+03  0.00000000000E+00 0. -1.
         21   -1    0    0  501  502  0.00000000000E+00 -0.00000000000E+00 -0.24623778350E+02  0.24623778350E+02  0.00000000000E+00 0.  1.
         23    2    1    2    0    0  0.45163567696E+01  0.15939085884E+02  0.34402943187E+03  0.35639599155E+03  0.91582754204E+02 0.  0.
         23    2    1    2    0    0 -0.10976582486E+02  0.40692897426E+01  0.17751489200E+03  0.20004144738E+03  0.91476769205E+02 0.  0.
        -11    1    4    4    0    0  0.30283349552E+02  0.70812088154E+01  0.14246517134E+03  0.14582026547E+03  0.00000000000E+00 0.  1.
         11    1    4    4    0    0 -0.41259932039E+02 -0.30119190728E+01  0.35049720662E+02  0.54221181902E+02  0.00000000000E+00 0. -1.
        -13    1    3    3    0    0 -0.30789111498E+02 -0.20038624340E+02  0.86462575313E+02  0.93943029449E+02  0.00000000000E+00 0.  1.
         13    1    3    3    0    0  0.35305468267E+02  0.35977710224E+02  0.25756685656E+03  0.26245296211E+03  0.00000000000E+00 0. -1.
          1    1    1    2  501    0  0.64602257165E+01 -0.20008375627E+02  0.82211354052E+01  0.22575577044E+02  0.00000000000E+00 0. -1.
<scales pt_clust_5="13000.00000" pt_clust_6="13000.00000" pt_clust_7="13000.00000" pt_clust_8="13000.00000" pt_clust_9="21.02545"></scales>
<clustering>
<clus scale="   21.025">  2  9  1 -1</clus>
<clus scale="   91.477">  5  6 -1 -1</clus>
<clus scale="   91.583">  7  8 -1 -1</clus>
<clus scale="   92.155">  2  5  1 -1</clus>
<clus scale="   21.025">  2  5  1 -1</clus>
</clustering>
</event>
<event>
 9    1  0.1610296E-005  0.1258458E+03  0.7546771E-02  0.1234362E+00
          1   -1    0    0  502    0 -0.00000000000E+00  0.00000000000E+00  0.29996494159E+03  0.29996494159E+03  0.00000000000E+00 0. -1.
         21   -1    0    0  501  502  0.00000000000E+00 -0.00000000000E+00 -0.12919326990E+03  0.12919326990E+03  0.00000000000E+00 0. -1.
         23    2    1    2    0    0  0.12068912125E+02 -0.49392180723E+02  0.73667066721E+02  0.13100768909E+03  0.95660502428E+02 0.  0.
         23    2    1    2    0    0 -0.88522451911E+02  0.12029817708E+03  0.75033504175E+02  0.19156751458E+03  0.93595993452E+02 0.  0.
        -11    1    4    4    0    0  0.42466198134E+01  0.21403034239E+02  0.48800965591E+02  0.53457065923E+02  0.00000000000E+00 0.  1.
         11    1    4    4    0    0 -0.92769071724E+02  0.98895142845E+02  0.26232538585E+02  0.13811044865E+03  0.00000000000E+00 0. -1.
        -11    1    3    3    0    0  0.18928290613E+02  0.17407208009E+02 -0.64090586466E+01  0.26502209510E+02  0.00000000000E+00 0. -1.
         11    1    3    3    0    0 -0.68593784880E+01 -0.66799388731E+02  0.80076125368E+02  0.10450547958E+03  0.00000000000E+00 0.  1.
          1    1    1    2  501    0  0.76453539786E+02 -0.70905996361E+02  0.22071100798E+02  0.10658300782E+03  0.00000000000E+00 0. -1.
<scales pt_clust_5="13000.00000" pt_clust_6="13000.00000" pt_clust_7="13000.00000" pt_clust_8="13000.00000" pt_clust_9="104.27274"></scales>
<clustering>
<clus scale="   93.596">  5  6 -1 -1</clus>
<clus scale="   95.661">  7  8 -1 -1</clus>
<clus scale="  104.273">  2  9  1 -1</clus>
<clus scale="  124.284">  2  5  1 -1</clus>
<clus scale="  104.273">  2  5  1 -1</clus>
</clustering>
</event>
<event>
 9    1  0.1610296E-005  0.9751339E+02  0.7546771E-02  0.1289658E+00
         21   -1    0    0  501  502  0.00000000000E+00  0.00000000000E+00  0.39077181408E+03  0.39077181408E+03  0.00000000000E+00 0. -1.
          3   -1    0    0  502    0 -0.00000000000E+00 -0.00000000000E+00 -0.14868307427E+03  0.14868307427E+03  0.00000000000E+00 0. -1.
         23    2    1    2    0    0 -0.28857780891E+02 -0.27088395925E+02 -0.12171695664E+03  0.15181964716E+03  0.81655587791E+02 0.  0.
         23    2    1    2    0    0  0.17742843366E+02  0.81573115553E+01  0.34980145859E+03  0.36159591574E+03  0.89494109470E+02 0.  0.
        -13    1    3    3    0    0  0.18010175382E+02 -0.13866025571E+02 -0.92010939412E+02  0.94776822345E+02  0.00000000000E+00 0. -1.
         13    1    3    3    0    0 -0.46867956273E+02 -0.13222370354E+02 -0.29706017228E+02  0.57042824812E+02  0.00000000000E+00 0.  1.
        -13    1    4    4    0    0  0.19538407854E+02 -0.36627067929E+02  0.22933245684E+03  0.23305936421E+03  0.00000000000E+00 0. -1.
         13    1    4    4    0    0 -0.17955644875E+01  0.44784379484E+02  0.12046900175E+03  0.12853655153E+03  0.00000000000E+00 0.  1.
          3    1    1    2  501    0  0.11114937525E+02  0.18931084369E+02  0.14004237870E+02  0.26039325450E+02  0.00000000000E+00 0. -1.
<scales pt_clust_5="13000.00000" pt_clust_6="13000.00000" pt_clust_7="13000.00000" pt_clust_8="13000.00000" pt_clust_9="21.95285"></scales>
<clustering>
<clus scale="   21.953">  1  9  2 -1</clus>
<clus scale="   81.656">  5  6 -1 -1</clus>
<clus scale="   89.494">  7  8 -1 -1</clus>
<clus scale="   90.373">  2  5  1 -1</clus>
<clus scale="   21.953">  1  5  2 -1</clus>
</clustering>
</event>
<event>
 9    1  0.1610296E-005  0.1190060E+03  0.7546771E-02  0.1245259E+00
         21   -1    0    0  501  502  0.00000000000E+00  0.00000000000E+00  0.77669495436E+02  0.77669495436E+02  0.00000000000E+00 0. -1.
          2   -1    0    0  502    0 -0.00000000000E+00 -0.00000000000E+00 -0.26684888540E+03  0.26684888540E+03  0.00000000000E+00 0. -1.
         23    2    1    2    0    0  0.85308345335E+01 -0.56868624959E+02 -0.70750995751E+02  0.12869235591E+03  0.90825125530E+02 0.  0.
         23    2    1    2    0    0 -0.39736583061E+02  0.89954767212E+02 -0.89360615386E+02  0.16184985133E+03  0.92407784382E+02 0.  0.
        -11    1    3    3    0    0 -0.77241650102E+01 -0.70143055841E+02 -0.79192670015E+02  0.10607162671E+03  0.00000000000E+00 0. -1.
         11    1    3    3    0    0  0.16254999544E+02  0.13274430882E+02  0.84416742633E+01  0.22620729205E+02  0.00000000000E+00 0.  1.
        -13    1    4    4    0    0 -0.61756229259E+02  0.78563918446E+02 -0.42010155050E+02  0.10840191078E+03  0.00000000000E+00 0. -1.
         13    1    4    4    0    0  0.22019646198E+02  0.11390848765E+02 -0.47350460336E+02  0.53447940543E+02  0.00000000000E+00 0.  1.
          2    1    1    2  501    0  0.31205748528E+02 -0.33086142253E+02 -0.29067778824E+02  0.53976173596E+02  0.00000000000E+00 0. -1.
<scales pt_clust_5="13000.00000" pt_clust_6="13000.00000" pt_clust_7="13000.00000" pt_clust_8="13000.00000" pt_clust_9="45.48067"></scales>
<clustering>
<clus scale="   45.481">  1  9  2 -1</clus>
<clus scale="   90.825">  5  6 -1 -1</clus>
<clus scale="   92.408">  7  8 -1 -1</clus>
<clus scale="  117.781">  2  5  1 -1</clus>
<clus scale="   45.481">  1  5  2 -1</clus>
</clustering>
</event>
<event>
 9    1  0.1610296E-005  0.1004358E+03  0.7546771E-02  0.1281031E+00
         21   -1    0    0  501  502  0.00000000000E+00  0.00000000000E+00  0.17288039863E+03  0.17288039863E+03  0.00000000000E+00 0.  1.
          2   -1    0    0  502    0 -0.00000000000E+00 -0.00000000000E+00 -0.94642095200E+02  0.94642095200E+02  0.00000000000E+00 0. -1.
         23    2    1    2    0    0  0.35594965669E+01  0.43040484742E+02  0.45198875913E+01  0.98409223028E+02  0.88310771996E+02 0.  0.
         23    2    1    2    0    0 -0.28745165769E+02 -0.31057728558E+02  0.91288587649E+02  0.13614942217E+03  0.91718001854E+02 0.  0.
        -13    1    4    4    0    0  0.15010785191E+02 -0.21408083012E+02 -0.78966848597E+01  0.27312768481E+02  0.00000000000E+00 0. -1.
         13    1    4    4    0    0 -0.43755950961E+02 -0.96496455455E+01  0.99185272509E+02  0.10883665369E+03  0.00000000000E+00 0.  1.
        -13    1    3    3    0    0  0.25949109643E+02  0.48275102069E+02 -0.25620165668E+02  0.60499873222E+02  0.00000000000E+00 0.  1.
         13    1    3    3    0    0 -0.22389613076E+02 -0.52346173269E+01  0.30140053259E+02  0.37909349806E+02  0.00000000000E+00 0. -1.
          2    1    1    2  501    0  0.25185669202E+02 -0.11982756184E+02 -0.17570171814E+02  0.32963848630E+02  0.00000000000E+00 0. -1.
<scales pt_clust_5="13000.00000" pt_clust_6="13000.00000" pt_clust_7="13000.00000" pt_clust_8="13000.00000" pt_clust_9="27.89095"></scales>
<clustering>
<clus scale="   27.891">  1  9  2 -1</clus>
<clus scale="   88.311">  7  8 -1 -1</clus>
<clus scale="   91.718">  5  6 -1 -1</clus>
<clus scale="   97.334">  2  7  1 -1</clus>
<clus scale="   27.891">  1  5  2 -1</clus>
</clustering>
</event>
<event>
 9    1  0.1610296E-005  0.2857081E+03  0.7546771E-02  0.1092625E+00
         21   -1    0    0  501  502  0.00000000000E+00  0.00000000000E+00  0.11843522003E+03  0.11843522003E+03  0.00000000000E+00 0.  1.
          1   -1    0    0  502    0 -0.00000000000E+00 -0.00000000000E+00 -0.10793972804E+04  0.10793972804E+04  0.00000000000E+00 0. -1.
         23    2    1    2    0    0 -0.12049230254E+03  0.23259219211E+03 -0.61402130409E+03  0.67384884457E+03  0.91829083933E+02 0.  0.
         23    2    1    2    0    0  0.12365473318E+03 -0.25712305361E+03 -0.37915109237E+03  0.48337245196E+03  0.92144553457E+02 0.  0.
        -11    1    3    3    0    0 -0.15212179231E+02  0.12650639993E+03 -0.25882393584E+03  0.28848762431E+03  0.00000000000E+00 0.  1.
         11    1    3    3    0    0 -0.10528012331E+03  0.10608579218E+03 -0.35519736825E+03  0.38536122026E+03  0.00000000000E+00 0. -1.
        -13    1    4    4    0    0  0.12253802558E+03 -0.18438459006E+03 -0.24109586666E+03  0.32732317621E+03  0.00000000000E+00 0.  1.
         13    1    4    4    0    0  0.11167076014E+01 -0.72738463548E+02 -0.13805522571E+03  0.15604927575E+03  0.00000000000E+00 0. -1.
          1    1    1    2  501    0 -0.31624306394E+01  0.24530861499E+02  0.32210336080E+02  0.40611203920E+02  0.00000000000E+00 0. -1.
<scales pt_clust_5="13000.00000" pt_clust_6="13000.00000" pt_clust_7="13000.00000" pt_clust_8="13000.00000" pt_clust_9="24.73387"></scales>
<clustering>
<clus scale="   24.734">  1  9  2 -1</clus>
<clus scale="   91.829">  5  6 -1 -1</clus>
<clus scale="   92.145">  7  8 -1 -1</clus>
<clus scale="  285.606">  2  5  1 -1</clus>
<clus scale="   24.734">  1  5  2 -1</clus>
</clustering>
</event>
<event>
 9    1  0.1610296E-005  0.1031024E+03  0.7546771E-02  0.1274928E+00
         21   -1    0    0  501  502  0.00000000000E+00  0.00000000000E+00  0.25296253479E+03  0.25296253479E+03  0.00000000000E+00 0. -1.
          3   -1    0    0  502    0 -0.00000000000E+00 -0.00000000000E+00 -0.14707963440E+03  0.14707963440E+03  0.00000000000E+00 0. -1.
         23    2    1    2    0    0 -0.56913252748E+02 -0.14702754048E+02 -0.10823746257E+03  0.14968778734E+03  0.85063482537E+02 0.  0.
         23    2    1    2    0    0  0.20556355849E+02  0.23581136475E+00  0.16122933856E+03  0.18456246103E+03  0.87440168337E+02 0.  0.
        -11    1    4    4    0    0 -0.29326950235E+02  0.14265318121E+02  0.95178908993E+02  0.10061110291E+03  0.00000000000E+00 0.  1.
         11    1    4    4    0    0  0.49883306085E+02 -0.14029506756E+02  0.66050429563E+02  0.83951358126E+02  0.00000000000E+00 0. -1.
        -11    1    3    3    0    0  0.82494857682E+01  0.24220346373E+02 -0.15764832743E+02  0.30053438161E+02  0.00000000000E+00 0.  1.
         11    1    3    3    0    0 -0.65162738516E+02 -0.38923100421E+02 -0.92472629825E+02  0.11963434918E+03  0.00000000000E+00 0. -1.
          3    1    1    2  501    0  0.36356896899E+02  0.14466942683E+02  0.52891024394E+02  0.65791920812E+02  0.00000000000E+00 0. -1.
<scales pt_clust_5="13000.00000" pt_clust_6="13000.00000" pt_clust_7="13000.00000" pt_clust_8="13000.00000" pt_clust_9="39.12948"></scales>
<clustering>
<clus scale="   39.129">  1  9  2 -1</clus>
<clus scale="   85.063">  7  8 -1 -1</clus>
<clus scale="   87.440">  5  6 -1 -1</clus>
<clus scale="  101.095">  2  7  1 -1</clus>
<clus scale="   39.129">  1  5  2 -1</clus>
</clustering>
</event>
<event>
 9    1  0.1610296E-005  0.1908220E+03  0.7546771E-02  0.1157780E+00
         -3   -1    0    0    0  501 -0.00000000000E+00  0.00000000000E+00  0.82014519658E+02  0.82014519658E+02  0.00000000000E+00 0.  1.
         21   -1    0    0  501  502  0.00000000000E+00 -0.00000000000E+00 -0.60059913075E+03  0.60059913075E+03  0.00000000000E+00 0.  1.
         23    2    1    2    0    0  0.36474346939E+02 -0.16103519955E+03 -0.11692984557E+03  0.22200741246E+03  0.91389216669E+02 0.  0.
         23    2    1    2    0    0 -0.60230627537E+02  0.16252773416E+03 -0.38313094071E+03  0.43044466284E+03  0.91925497949E+02 0.  0.
        -11    1    3    3    0    0  0.44916975971E+01 -0.14263391799E+03 -0.11788199122E+03  0.18509666059E+03  0.00000000000E+00 0. -1.
         11    1    3    3    0    0  0.31982649342E+02 -0.18401281555E+02  0.95214565069E+00  0.36910751864E+02  0.00000000000E+00 0.  1.
        -13    1    4    4    0    0 -0.84361218843E+02  0.13647265649E+03 -0.30514688085E+03  0.34475530468E+03  0.00000000000E+00 0.  1.
         13    1    4    4    0    0  0.24130591306E+02  0.26055077669E+02 -0.77984059866E+02  0.85689358162E+02  0.00000000000E+00 0. -1.
         -3    1    1    2    0  502  0.23756280598E+02 -0.14925346166E+01 -0.18523824814E+02  0.30161575111E+02  0.00000000000E+00 0.  1.
<scales pt_clust_5="13000.00000" pt_clust_6="13000.00000" pt_clust_7="13000.00000" pt_clust_8="13000.00000" pt_clust_9="23.80313"></scales>
<clustering>
<clus scale="   23.803">  2  9  1 -1</clus>
<clus scale="   91.389">  5  6 -1 -1</clus>
<clus scale="   91.925">  7  8 -1 -1</clus>
<clus scale="  190.564">  1  5  2 -1</clus>
<clus scale="   23.803">  2  5  1 -1</clus>
</clustering>
</event>
<event>
 9    1  0.1610296E-005  0.1062096E+03  0.7546771E-02  0.1270266E+00
         21   -1    0    0  501  502  0.00000000000E+00  0.00000000000E+00  0.11728242587E+03  0.11728242587E+03  0.00000000000E+00 0.  1.
         -1   -1    0    0    0  501 -0.00000000000E+00 -0.00000000000E+00 -0.19391743215E+03  0.19391743215E+03  0.00000000000E+00 0.  1.
         23    2    1    2    0    0  0.25316260791E+02  0.36157992641E+02 -0.61830728954E+02  0.11408661653E+03  0.85114061918E+02 0.  0.
         23    2    1    2    0    0 -0.63351445836E+02 -0.33767704193E+02 -0.65902384874E+02  0.13336839562E+03  0.91051310166E+02 0.  0.
        -13    1    4    4    0    0 -0.30901421177E+02  0.29105932713E+01 -0.77116529102E+02  0.83128385313E+02  0.00000000000E+00 0.  1.
         13    1    4    4    0    0 -0.32450024660E+02 -0.36678297464E+02  0.11214144228E+02  0.50240010311E+02  0.00000000000E+00 0. -1.
        -13    1    3    3    0    0  0.31662325688E+02  0.61304125975E+02 -0.37520875398E+02  0.78539893177E+02  0.00000000000E+00 0.  1.
         13    1    3    3    0    0 -0.63460648977E+01 -0.25146133334E+02 -0.24309853555E+02  0.35546723354E+02  0.00000000000E+00 0. -1.
         -1    1    1    2    0  502  0.38035185046E+02 -0.23902884487E+01  0.51098107540E+02  0.63744845866E+02  0.00000000000E+00 0.  1.
<scales pt_clust_5="13000.00000" pt_clust_6="13000.00000" pt_clust_7="13000.00000" pt_clust_8="13000.00000" pt_clust_9="38.11022"></scales>
<clustering>
<clus scale="   38.110">  1  9  2 -1</clus>
<clus scale="   85.114">  7  8 -1 -1</clus>
<clus scale="   91.051">  5  6 -1 -1</clus>
<clus scale="  101.166">  2  7  1 -1</clus>
<clus scale="   38.110">  1  5  2 -1</clus>
</clustering>
</event>
<event>
 9    1  0.1610296E-005  0.2412366E+03  0.7546771E-02  0.1119082E+00
         21   -1    0    0  501  502  0.00000000000E+00  0.00000000000E+00  0.28392536632E+03  0.28392536632E+03  0.00000000000E+00 0. -1.
          1   -1    0    0  502    0 -0.00000000000E+00 -0.00000000000E+00 -0.55512408871E+03  0.55512408871E+03  0.00000000000E+00 0. -1.
         23    2    1    2    0    0  0.13152861651E+03  0.18378229116E+03 -0.44379745338E+03  0.50660822284E+03  0.92843978343E+02 0.  0.
         23    2    1    2    0    0 -0.12472366772E+03 -0.16347131076E+03  0.82059039098E+02  0.23940210569E+03  0.91108833702E+02 0.  0.
        -11    1    3    3    0    0  0.10079116323E+03  0.66233783459E+02 -0.25516521102E+03  0.28223227592E+03  0.00000000000E+00 0.  1.
         11    1    3    3    0    0  0.30737453280E+02  0.11754850770E+03 -0.18863224236E+03  0.22437594692E+03  0.00000000000E+00 0. -1.
        -13    1    4    4    0    0 -0.10609262720E+03 -0.17207304607E+03  0.83748614488E+02  0.21881181220E+03  0.00000000000E+00 0.  1.
         13    1    4    4    0    0 -0.18631040518E+02  0.86017353032E+01 -0.16895753904E+01  0.20590293490E+02  0.00000000000E+00 0. -1.
          1    1    1    2  501    0 -0.68049487868E+01 -0.20310980399E+02  0.90539691893E+02  0.93039126505E+02  0.00000000000E+00 0. -1.
<scales pt_clust_5="13000.00000" pt_clust_6="13000.00000" pt_clust_7="13000.00000" pt_clust_8="13000.00000" pt_clust_9="21.42063"></scales>
<clustering>
<clus scale="   21.421">  1  9  2 -1</clus>
<clus scale="   91.109">  7  8 -1 -1</clus>
<clus scale="   92.844">  5  6 -1 -1</clus>
<clus scale="  240.574">  1  7  2 -1</clus>
<clus scale="   21.421">  1  5  2 -1</clus>
</clustering>
</event>
<event>
 9    1  0.1610296E-005  0.1150804E+03  0.7546771E-02  0.1255061E+00
         21   -1    0    0  501  502  0.00000000000E+00  0.00000000000E+00  0.14754619266E+03  0.14754619266E+03  0.00000000000E+00 0.  1.
         -3   -1    0    0    0  501 -0.00000000000E+00 -0.00000000000E+00 -0.90316716092E+03  0.90316716092E+03  0.00000000000E+00 0.  1.
         23    2    1    2    0    0 -0.15565312338E+02 -0.76370430281E+02 -0.64860801447E+03  0.66081247666E+03  0.99529148046E+02 0.  0.
         23    2    1    2    0    0  0.84178967369E+01  0.26407394933E+02 -0.23451196555E+03  0.25277542906E+03  0.90173965513E+02 0.  0.
        -11    1    3    3    0    0  0.25531260456E+02 -0.81078409248E+02 -0.42780461072E+03  0.43616778728E+03  0.00000000000E+00 0.  1.
         11    1    3    3    0    0 -0.41096572793E+02  0.47079789671E+01 -0.22080340375E+03  0.22464468938E+03  0.00000000000E+00 0. -1.
        -11    1    4    4    0    0 -0.11932807455E+02  0.53738918269E+02 -0.18228060560E+03  0.19041135053E+03  0.00000000000E+00 0. -1.
         11    1    4    4    0    0  0.20350704192E+02 -0.27331523337E+02 -0.52231359949E+02  0.62364078532E+02  0.00000000000E+00 0.  1.
         -3    1    1    2    0  502  0.71474156009E+01  0.49963035348E+02  0.12749901175E+03  0.13712544786E+03  0.00000000000E+00 0.  1.
<scales pt_clust_5="13000.00000" pt_clust_6="13000.00000" pt_clust_7="13000.00000" pt_clust_8="13000.00000" pt_clust_9="50.47168"></scales>
<clustering>
<clus scale="   50.472">  1  9  2 -1</clus>
<clus scale="   90.174">  7  8 -1 -1</clus>
<clus scale="   99.529">  5  6 -1 -1</clus>
<clus scale="  107.092">  1  7  2 -1</clus>
<clus scale="   50.472">  1  5  2 -1</clus>
</clustering>
</event>
<event>
 9    1  0.1610296E-005  0.1105315E+03  0.7546771E-02  0.1259615E+00
          1   -1    0    0  502    0 -0.00000000000E+00  0.00000000000E+00  0.66661556601E+03  0.66661556601E+03  0.00000000000E+00 0. -1.
         21   -1    0    0  501  502  0.00000000000E+00 -0.00000000000E+00 -0.39370463286E+02  0.39370463286E+02  0.00000000000E+00 0.  1.
         23    2    1    2    0    0  0.35693388557E+02 -0.35481147068E+02  0.34504382960E+03  0.36061910731E+03  0.91967203006E+02 0.  0.
         23    2    1    2    0    0 -0.21313673893E+02  0.87674818159E+02  0.25290885766E+03  0.28381205947E+03  0.91898032539E+02 0.  0.
        -11    1    4    4    0    0 -0.51603741731E+02  0.51382359171E+02  0.20008389859E+03  0.21292406973E+03  0.00000000000E+00 0.  1.
         11    1    4    4    0    0  0.30290067838E+02  0.36292458988E+02  0.52824959067E+02  0.70887989741E+02  0.00000000000E+00 0. -1.
        -13    1    3    3    0    0  0.60357568016E+02 -0.15579063761E+00  0.17164333178E+03  0.18194640319E+03  0.00000000000E+00 0.  1.
         13    1    3    3    0    0 -0.24664179459E+02 -0.35325356431E+02  0.17340049782E+03  0.17867270412E+03  0.00000000000E+00 0. -1.
          1    1    1    2  501    0 -0.14379714664E+02 -0.52193671091E+02  0.29292415471E+02  0.61554862520E+02  0.00000000000E+00 0. -1.
<scales pt_clust_5="13000.00000" pt_clust_6="13000.00000" pt_clust_7="13000.00000" pt_clust_8="13000.00000" pt_clust_9="54.13830"></scales>
<clustering>
<clus scale="   54.138">  2  9  1 -1</clus>
<clus scale="   91.898">  5  6 -1 -1</clus>
<clus scale="   91.967">  7  8 -1 -1</clus>
<clus scale="  110.474">  2  5  1 -1</clus>
<clus scale="   54.138">  2  5  1 -1</clus>
</clustering>
</event>
<event>
 9    1  0.1610296E-005  0.9510903E+02  0.7546771E-02  0.1291921E+00
         21   -1    0    0  501  502  0.00000000000E+00  0.00000000000E+00  0.45275555887E+02  0.45275555887E+02  0.00000000000E+00 0.  1.
          4   -1    0    0  502    0 -0.00000000000E+00 -0.00000000000E+00 -0.32706027851E+03  0.32706027851E+03  0.00000000000E+00 0. -1.
         23    2    1    2    0    0  0.22353153138E+02  0.85334181624E+01 -0.18635962389E+03  0.20749811177E+03  0.88051543368E+02 0.  0.
         23    2    1    2    0    0 -0.45421480107E+02 -0.24115132713E+02 -0.59686226785E+02  0.11953645879E+03  0.89899214852E+02 0.  0.
        -11    1    3    3    0    0  0.24713084713E+02  0.28888168676E+02 -0.18278619004E+03  0.18669776141E+03  0.00000000000E+00 0. -1.
         11    1    3    3    0    0 -0.23599315747E+01 -0.20354750514E+02 -0.35734338489E+01  0.20800350357E+02  0.00000000000E+00 0.  1.
        -13    1    4    4    0    0 -0.21374391200E+02 -0.28180682377E+02  0.16871827025E+02  0.39187676706E+02  0.00000000000E+00 0.  1.
         13    1    4    4    0    0 -0.24047088907E+02  0.40655496637E+01 -0.76558053810E+02  0.80348782083E+02  0.00000000000E+00 0. -1.
          4    1    1    2  501    0  0.23068326969E+02  0.15581714551E+02 -0.35738871941E+02  0.45301263836E+02  0.00000000000E+00 0. -1.
<scales pt_clust_5="13000.00000" pt_clust_6="13000.00000" pt_clust_7="13000.00000" pt_clust_8="13000.00000" pt_clust_9="27.83771"></scales>
<clustering>
<clus scale="   27.838">  1  9  2 -1</clus>
<clus scale="   88.052">  5  6 -1 -1</clus>
<clus scale="   89.899">  7  8 -1 -1</clus>
<clus scale="   93.365">  2  5  1 -1</clus>
<clus scale="   27.838">  1  5  2 -1</clus>
</clustering>
</event>
<event>
 9    1  0.1610296E-005  0.1508316E+03  0.7546771E-02  0.1199468E+00
         21   -1    0    0  501  502  0.00000000000E+00  0.00000000000E+00  0.13164358795E+03  0.13164358795E+03  0.00000000000E+00 0. -1.
          2   -1    0    0  502    0 -0.00000000000E+00 -0.00000000000E+00 -0.59699117824E+03  0.59699117824E+03  0.00000000000E+00 0. -1.
         23    2    1    2    0    0  0.11533793160E+03 -0.39912680064E+02 -0.52251874836E+03  0.54426509125E+03  0.91119628338E+02 0.  0.
         23    2    1    2    0    0 -0.10755011309E+03  0.81080761621E+01  0.37022519321E+02  0.14592295090E+03  0.91049837653E+02 0.  0.
        -11    1    4    4    0    0  0.94657534700E+01  0.18123620215E+02  0.17406321886E+02  0.26852302323E+02  0.00000000000E+00 0.  1.
         11    1    4    4    0    0 -0.11701586656E+03 -0.10015544053E+02  0.19616197434E+02  0.11907064858E+03  0.00000000000E+00 0. -1.
        -11    1    3    3    0    0  0.79097002927E+02  0.64844942128E+01 -0.17993770949E+03  0.19666205489E+03  0.00000000000E+00 0.  1.
         11    1    3    3    0    0  0.36240928668E+02 -0.46397174277E+02 -0.34258103887E+03  0.34760303636E+03  0.00000000000E+00 0. -1.
          2    1    1    2  501    0 -0.77878185012E+01  0.31804603902E+02  0.20148638753E+02  0.38446724047E+02  0.00000000000E+00 0. -1.
<scales pt_clust_5="13000.00000" pt_clust_6="13000.00000" pt_clust_7="13000.00000" pt_clust_8="13000.00000" pt_clust_9="32.74420"></scales>
<clustering>
<clus scale="   32.744">  1  9  2 -1</clus>
<clus scale="   91.050">  5  6 -1 -1</clus>
<clus scale="   91.120">  7  8 -1 -1</clus>
<clus scale="  150.789">  1  5  2 -1</clus>
<clus scale="   32.744">  1  5  2 -1</clus>
</clustering>
</event>
<event>
 9    1  0.1610296E-005  0.1978125E+03  0.7546771E-02  0.1151882E+00
         -1   -1    0    0    0  501 -0.00000000000E+00  0.00000000000E+00  0.49741357951E+03  0.49741357951E+03  0.00000000000E+00 0.  1.
         21   -1    0    0  501  502  0.00000000000E+00 -0.00000000000E+00 -0.34945490095E+03  0.34945490095E+03  0.00000000000E+00 0.  1.
         23    2    1    2    0    0 -0.92200355297E+02  0.10381801360E+03  0.17849041775E+03  0.24340777370E+03  0.90052371463E+02 0.  0.
         23    2    1    2    0    0  0.92809625955E+02 -0.25699736264E+03  0.18220938521E+03  0.34130985288E+03  0.92902553988E+02 0.  0.
        -11    1    3    3    0    0  0.82074372286E+01  0.19221656035E+02 -0.11146167888E+01  0.20930276089E+02  0.00000000000E+00 0. -1.
         11    1    3    3    0    0 -0.10040779253E+03  0.84596357564E+02  0.17960503454E+03  0.22247749761E+03  0.00000000000E+00 0.  1.
        -13    1    4    4    0    0  0.56877754866E+02 -0.52013741570E+02  0.26891881816E+02  0.81631376433E+02  0.00000000000E+00 0. -1.
         13    1    4    4    0    0  0.35931871088E+02 -0.20498362107E+03  0.15531750339E+03  0.25967847644E+03  0.00000000000E+00 0.  1.
         -1    1    1    2    0  502 -0.60927065811E+00  0.15317934905E+03 -0.21274112439E+03  0.26215085388E+03  0.00000000000E+00 0.  1.
<scales pt_clust_5="13000.00000" pt_clust_6="13000.00000" pt_clust_7="13000.00000" pt_clust_8="13000.00000" pt_clust_9="153.18056"></scales>
<clustering>
<clus scale="   90.052">  5  6 -1 -1</clus>
<clus scale="   92.903">  7  8 -1 -1</clus>
<clus scale="  153.181">  2  9  1 -1</clus>
<clus scale="  196.490">  1  5  2 -1</clus>
<clus scale="  153.181">  2  5  1 -1</clus>
</clustering>
</event>
<event>
 9    1  0.1610296E-005  0.9740857E+02  0.7546771E-02  0.1286728E+00
         21   -1    0    0  501  502  0.00000000000E+00  0.00000000000E+00  0.21658138690E+02  0.21658138690E+02  0.00000000000E+00 0.  1.
          1   -1    0    0  502    0 -0.00000000000E+00 -0.00000000000E+00 -0.95879750819E+03  0.95879750819E+03  0.00000000000E+00 0. -1.
         23    2    1    2    0    0 -0.90415021110E+00 -0.26530630912E+02 -0.40118661931E+03  0.41239601128E+03  0.91733716477E+02 0.  0.
         23    2    1    2    0    0  0.54540573673E+02  0.32992508264E+02 -0.20561015499E+03  0.23332862123E+03  0.90019608266E+02 0.  0.
        -13    1    3    3    0    0  0.24760381036E+02 -0.51673607750E+02 -0.20086240605E+03  0.20887542787E+03  0.00000000000E+00 0.  1.
         13    1    3    3    0    0 -0.25664531247E+02  0.25142976838E+02 -0.20032421326E+03  0.20352058340E+03  0.00000000000E+00 0. -1.
        -13    1    4    4    0    0  0.61640288341E+02 -0.88009710320E+01 -0.84138197075E+02  0.10467195634E+03  0.00000000000E+00 0.  1.
         13    1    4    4    0    0 -0.70997146680E+01  0.41793479296E+02 -0.12147195792E+03  0.12865666489E+03  0.00000000000E+00 0. -1.
          1    1    1    2  501    0 -0.53636423461E+02 -0.64618773521E+01 -0.33034259520E+03  0.33473101437E+03  0.00000000000E+00 0. -1.
<scales pt_clust_5="13000.00000" pt_clust_6="13000.00000" pt_clust_7="13000.00000" pt_clust_8="13000.00000" pt_clust_9="54.02430"></scales>
<clustering>
<clus scale="   54.024">  1  9  2 -1</clus>
<clus scale="   90.020">  7  8 -1 -1</clus>
<clus scale="   91.734">  5  6 -1 -1</clus>
<clus scale="   95.796">  1  7  2 -1</clus>
<clus scale="   54.024">  1  5  2 -1</clus>
</clustering>
</event>
<event>
 9    1  0.1610296E-005  0.1199035E+03  0.7546771E-02  0.1244849E+00
          1   -1    0    0  502    0 -0.00000000000E+00  0.00000000000E+00  0.13410939819E+03  0.13410939819E+03  0.00000000000E+00 0. -1.
         21   -1    0    0  501  502  0.00000000000E+00 -0.00000000000E+00 -0.47139005116E+03  0.47139005116E+03  0.00000000000E+00 0. -1.
         23    2    1    2    0    0  0.66688031314E+02 -0.27358707773E+02  0.89645765561E+02  0.14960874147E+03  0.95658872203E+02 0.  0.
         23    2    1    2    0    0 -0.80385505337E+02  0.78798507755E+00 -0.38970071095E+03  0.40814788219E+03  0.90860328131E+02 0.  0.
        -13    1    4    4    0    0 -0.38356150530E+02  0.38045204711E+02 -0.27709336755E+03  0.28231076180E+03  0.00000000000E+00 0.  1.
         13    1    4    4    0    0 -0.42029354807E+02 -0.37257219634E+02 -0.11260734340E+03  0.12583712039E+03  0.00000000000E+00 0. -1.
        -13    1    3    3    0    0  0.76653227724E+02 -0.45207717197E+02  0.43324278721E+02  0.98977008145E+02  0.00000000000E+00 0. -1.
         13    1    3    3    0    0 -0.99651964100E+01  0.17849009424E+02  0.46321486840E+02  0.50631733330E+02  0.00000000000E+00 0.  1.
          1    1    1    2  501    0  0.13697474023E+02  0.26570722695E+02 -0.37225707587E+02  0.47742825686E+02  0.00000000000E+00 0. -1.
<scales pt_clust_5="13000.00000" pt_clust_6="13000.00000" pt_clust_7="13000.00000" pt_clust_8="13000.00000" pt_clust_9="29.89355"></scales>
<clustering>
<clus scale="   29.894">  2  9  1 -1</clus>
<clus scale="   90.860">  5  6 -1 -1</clus>
<clus scale="   95.659">  7  8 -1 -1</clus>
<clus scale="  116.111">  2  5  1 -1</clus>
<clus scale="   29.894">  2  5  1 -1</clus>
</clustering>
</event>
<event>
 9    1  0.1610296E-005  0.2429980E+03  0.7546771E-02  0.1117822E+00
         21   -1    0    0  501  502  0.00000000000E+00  0.00000000000E+00  0.29370355141E+03  0.29370355141E+03  0.00000000000E+00 0. -1.
          2   -1    0    0  502    0 -0.00000000000E+00 -0.00000000000E+00 -0.25842632167E+03  0.25842632167E+03  0.00000000000E+00 0. -1.
         23    2    1    2    0    0  0.22692282523E+03  0.10585638721E+03 -0.26084976431E+02  0.26752941923E+03  0.90509783103E+02 0.  0.
         23    2    1    2    0    0 -0.18849510609E+03 -0.66543856808E+02  0.30666797160E+02  0.22163718854E+03  0.90686829235E+02 0.  0.
        -11    1    3    3    0    0  0.52794161211E+02  0.53593216063E+01 -0.39320569419E+02  0.66045839881E+02  0.00000000000E+00 0. -1.
         11    1    3    3    0    0  0.17412866401E+03  0.10049706560E+03  0.13235592989E+02  0.20148357935E+03  0.00000000000E+00 0.  1.
        -11    1    4    4    0    0 -0.38004919119E+02 -0.76996876707E+01 -0.30011547669E+02  0.49034192774E+02  0.00000000000E+00 0.  1.
         11    1    4    4    0    0 -0.15049018697E+03 -0.58844169137E+02  0.60678344830E+02  0.17260299577E+03  0.00000000000E+00 0. -1.
          2    1    1    2  501    0 -0.38427719134E+02 -0.39312530398E+02  0.30695409013E+02  0.62963265311E+02  0.00000000000E+00 0. -1.
<scales pt_clust_5="13000.00000" pt_clust_6="13000.00000" pt_clust_7="13000.00000" pt_clust_8="13000.00000" pt_clust_9="54.97422"></scales>
<clustering>
<clus scale="   54.974">  1  9  2 -1</clus>
<clus scale="   90.510">  5  6 -1 -1</clus>
<clus scale="   90.687">  7  8 -1 -1</clus>
<clus scale="  242.932">  2  5  1 -1</clus>
<clus scale="   54.974">  1  5  2 -1</clus>
</clustering>
</event>
<event>
 9    1  0.1610296E-005  0.9380429E+02  0.7546771E-02  0.1295647E+00
         21   -1    0    0  501  502  0.00000000000E+00  0.00000000000E+00  0.15639039624E+03  0.15639039624E+03  0.00000000000E+00 0. -1.
          1   -1    0    0  502    0 -0.00000000000E+00 -0.00000000000E+00 -0.31985640037E+03  0.31985640037E+03  0.00000000000E+00 0. -1.
         23    2    1    2    0    0 -0.31538111909E+01 -0.12200752903E+02 -0.27276480080E+03  0.28832725369E+03  0.92591380646E+02 0.  0.
         23    2    1    2    0    0  0.16054472517E+02  0.30834221772E+02  0.23099427552E+02  0.98790622472E+02  0.89540539506E+02 0.  0.
        -11    1    4    4    0    0  0.22731964226E+02  0.60759133748E+02  0.20432493630E+02  0.68013978911E+02  0.00000000000E+00 0. -1.
         11    1    4    4    0    0 -0.66774917089E+01 -0.29924911976E+02  0.26669339223E+01  0.30776643561E+02  0.00000000000E+00 0.  1.
        -11    1    3    3    0    0 -0.94957783022E+01  0.38556087648E+02 -0.15356566921E+03  0.15861638143E+03  0.00000000000E+00 0.  1.
         11    1    3    3    0    0  0.63419671113E+01 -0.50756840550E+02 -0.11919913159E+03  0.12971087226E+03  0.00000000000E+00 0. -1.
          1    1    1    2  501    0 -0.12900661326E+02 -0.18633468869E+02  0.86199369110E+02  0.89128920445E+02  0.00000000000E+00 0. -1.
<scales pt_clust_5="13000.00000" pt_clust_6="13000.00000" pt_clust_7="13000.00000" pt_clust_8="13000.00000" pt_clust_9="22.66348"></scales>
<clustering>
<clus scale="   22.663">  1  9  2 -1</clus>
<clus scale="   89.541">  5  6 -1 -1</clus>
<clus scale="   90.794">  1  5  2 -1</clus>
<clus scale="   92.591">  7  8 -1 -1</clus>
<clus scale="   22.663">  1  5  2 -1</clus>
</clustering>
</event>
<event>
 9    1  0.1610296E-005  0.4124312E+03  0.7546771E-02  0.1039610E+00
         21   -1    0    0  501  502  0.00000000000E+00  0.00000000000E+00  0.16912788548E+03  0.16912788548E+03  0.00000000000E+00 0. -1.
          2   -1    0    0  502    0 -0.00000000000E+00 -0.00000000000E+00 -0.24572987989E+04  0.24572987989E+04  0.00000000000E+00 0. -1.
         23    2    1    2    0    0 -0.39842416526E+03  0.56827239502E+01 -0.19579777768E+04  0.20001688136E+04  0.90687370989E+02 0.  0.
         23    2    1    2    0    0  0.41606528856E+03 -0.24746196651E+02 -0.37894931759E+03  0.57101485843E+03  0.93448834411E+02 0.  0.
        -11    1    4    4    0    0  0.34552758441E+03 -0.62543844842E+01 -0.26399001728E+03  0.43487832567E+03  0.00000000000E+00 0.  1.
         11    1    4    4    0    0  0.70537704148E+02 -0.18491812166E+02 -0.11495930031E+03  0.13613653276E+03  0.00000000000E+00 0. -1.
        -13    1    3    3    0    0 -0.10806687844E+02  0.17652321612E+02 -0.87791204585E+02  0.90198029706E+02  0.00000000000E+00 0.  1.
         13    1    3    3    0    0 -0.38761747742E+03 -0.11969597662E+02 -0.18701865723E+04  0.19099707838E+04  0.00000000000E+00 0. -1.
          2    1    1    2  501    0 -0.17641123297E+02  0.19063472700E+02  0.48756181061E+02  0.55243012357E+02  0.00000000000E+00 0. -1.
<scales pt_clust_5="13000.00000" pt_clust_6="13000.00000" pt_clust_7="13000.00000" pt_clust_8="13000.00000" pt_clust_9="25.97355"></scales>
<clustering>
<clus scale="   25.974">  1  9  2 -1</clus>
<clus scale="   90.687">  7  8 -1 -1</clus>
<clus scale="   93.449">  5  6 -1 -1</clus>
<clus scale="  411.814">  2  7  1 -1</clus>
<clus scale="   25.974">  1  5  2 -1</clus>
</clustering>
</event>
<event>
 9    1  0.1610296E-005  0.9337279E+02  0.7546771E-02  0.1297393E+00
         -2   -1    0    0    0  501 -0.00000000000E+00  0.00000000000E+00  0.13440089863E+03  0.13440089863E+03  0.00000000000E+00 0.  1.
         21   -1    0    0  501  502  0.00000000000E+00 -0.00000000000E+00 -0.11535781134E+03  0.11535781134E+03  0.00000000000E+00 0. -1.
         23    2    1    2    0    0 -0.73557392297E+01 -0.10069217571E+02  0.68434793459E+02  0.11597803783E+03  0.92801337598E+02 0.  0.
         23    2    1    2    0    0  0.16592971073E+02 -0.16038613438E+02 -0.53195016088E+02  0.10582695220E+03  0.88527228949E+02 0.  0.
        -11    1    4    4    0    0  0.47762436037E+02 -0.21704024959E+02 -0.52382113253E+02  0.74136366140E+02  0.00000000000E+00 0. -1.
         11    1    4    4    0    0 -0.31169464964E+02  0.56654115212E+01 -0.81290283460E+00  0.31690586060E+02  0.00000000000E+00 0.  1.
        -11    1    3    3    0    0 -0.47599102370E+02 -0.40219881194E+01  0.17708864486E+02  0.50945606447E+02  0.00000000000E+00 0.  1.
         11    1    3    3    0    0  0.40243363140E+02 -0.60472294514E+01  0.50725928972E+02  0.65032431379E+02  0.00000000000E+00 0. -1.
         -2    1    1    2    0  502 -0.92372318435E+01  0.26107831009E+02  0.38033099149E+01  0.27953719939E+02  0.00000000000E+00 0.  1.
<scales pt_clust_5="13000.00000" pt_clust_6="13000.00000" pt_clust_7="13000.00000" pt_clust_8="13000.00000" pt_clust_9="27.69379"></scales>
<clustering>
<clus scale="   27.694">  2  9  1 -1</clus>
<clus scale="   88.527">  5  6 -1 -1</clus>
<clus scale="   89.126">  2  5  1 -1</clus>
<clus scale="   92.801">  7  8 -1 -1</clus>
<clus scale="   27.694">  2  5  1 -1</clus>
</clustering>
</event>
<event>
 9    1  0.1610296E-005  0.9615933E+02  0.7546771E-02  0.1289723E+00
          2   -1    0    0  502    0 -0.00000000000E+00  0.00000000000E+00  0.25264936821E+03  0.25264936821E+03  0.00000000000E+00 0. -1.
         21   -1    0    0  501  502  0.00000000000E+00 -0.00000000000E+00 -0.10609652329E+03  0.10609652329E+03  0.00000000000E+00 0. -1.
         23    2    1    2    0    0 -0.43040434210E+02 -0.19392063851E+02  0.12399450779E+03  0.16138463554E+03  0.91879440075E+02 0.  0.
         23    2    1    2    0    0 -0.21075599380E+01  0.17596780533E+02  0.81889860824E+02  0.12278381887E+03  0.89754266627E+02 0.  0.
        -11    1    3    3    0    0  0.26356380580E+02  0.61631872360E+01  0.19462974187E+02  0.33338431852E+02  0.00000000000E+00 0.  1.
         11    1    3    3    0    0 -0.69396814790E+02 -0.25555251087E+02  0.10453153360E+03  0.12804620369E+03  0.00000000000E+00 0. -1.
        -13    1    4    4    0    0 -0.28649824254E+02  0.39414073448E+02  0.72166392639E+02  0.87076230063E+02  0.00000000000E+00 0. -1.
         13    1    4    4    0    0  0.26542264316E+02 -0.21817292915E+02  0.97234681851E+01  0.35707588811E+02  0.00000000000E+00 0.  1.
          2    1    1    2  501    0  0.45147994148E+02  0.17952833176E+01 -0.59331523699E+02  0.74577437086E+02  0.00000000000E+00 0. -1.
<scales pt_clust_5="13000.00000" pt_clust_6="13000.00000" pt_clust_7="13000.00000" pt_clust_8="13000.00000" pt_clust_9="45.18367"></scales>
<clustering>
<clus scale="   45.184">  2  9  1 -1</clus>
<clus scale="   89.754">  7  8 -1 -1</clus>
<clus scale="   91.879">  5  6 -1 -1</clus>
<clus scale="   94.131">  2  7  1 -1</clus>
<clus scale="   45.184">  2  5  1 -1</clus>
</clustering>
</event>
<event>
 9    1  0.1610296E-005  0.1200071E+03  0.7546771E-02  0.1243426E+00
         21   -1    0    0  501  502  0.00000000000E+00  0.00000000000E+00  0.51501280273E+02  0.51501280273E+02  0.00000000000E+00 0. -1.
          4   -1    0    0  502    0 -0.00000000000E+00 -0.00000000000E+00 -0.92179708923E+03  0.92179708923E+03  0.00000000000E+00 0. -1.
         23    2    1    2    0    0 -0.74155153812E+01 -0.65899755671E+02 -0.57826161442E+03  0.58933416854E+03  0.92360704999E+02 0.  0.
         23    2    1    2    0    0  0.63969670275E+02  0.10211021683E+03 -0.27636437188E+03  0.31500687158E+03  0.91287720989E+02 0.  0.
        -13    1    4    4    0    0  0.16502018972E+02  0.28094237338E+02 -0.18633577121E+03  0.18916295207E+03  0.00000000000E+00 0.  1.
         13    1    4    4    0    0  0.47467651303E+02  0.74015979496E+02 -0.90028600668E+02  0.12584391952E+03  0.00000000000E+00 0. -1.
        -13    1    3    3    0    0 -0.39598050613E+02  0.58954636972E-01 -0.17227397120E+03  0.17676631535E+03  0.00000000000E+00 0.  1.
         13    1    3    3    0    0  0.32182535232E+02 -0.65958710308E+02 -0.40598764322E+03  0.41256785319E+03  0.00000000000E+00 0. -1.
          4    1    1    2  501    0 -0.56554154894E+02 -0.36210461162E+02 -0.15669822657E+02  0.68957329382E+02  0.00000000000E+00 0. -1.
<scales pt_clust_5="13000.00000" pt_clust_6="13000.00000" pt_clust_7="13000.00000" pt_clust_8="13000.00000" pt_clust_9="67.15333"></scales>
<clustering>
<clus scale="   67.153">  1  9  2 -1</clus>
<clus scale="   91.288">  5  6 -1 -1</clus>
<clus scale="   92.361">  7  8 -1 -1</clus>
<clus scale="  119.183">  1  5  2 -1</clus>
<clus scale="   67.153">  1  5  2 -1</clus>
</clustering>
</event>
<event>
 9    1  0.1610296E-005  0.1979253E+03  0.7546771E-02  0.1151972E+00
         21   -1    0    0  501  502  0.00000000000E+00  0.00000000000E+00  0.27771017416E+03  0.27771017416E+03  0.00000000000E+00 0. -1.
          2   -1    0    0  502    0 -0.00000000000E+00 -0.00000000000E+00 -0.48962266538E+03  0.48962266538E+03  0.00000000000E+00 0. -1.
         23    2    1    2    0    0  0.16914574222E+03  0.56942853910E+02 -0.41619257392E+03  0.46190615177E+03  0.91039901871E+02 0.  0.
         23    2    1    2    0    0 -0.13759867308E+03 -0.17860733796E+02  0.11849310839E+03  0.20601826435E+03  0.95658286970E+02 0.  0.
        -11    1    3    3    0    0  0.10986956744E+03 -0.58900760105E+01 -0.18689149582E+03  0.21687426324E+03  0.00000000000E+00 0.  1.
         11    1    3    3    0    0  0.59276174777E+02  0.62832929921E+02 -0.22930107810E+03  0.24503188853E+03  0.00000000000E+00 0. -1.
        -11    1    4    4    0    0 -0.98986905739E+01  0.30430129348E+02  0.21809630333E+02  0.38725144577E+02  0.00000000000E+00 0.  1.
         11    1    4    4    0    0 -0.12769998250E+03 -0.48290863145E+02  0.96683478055E+02  0.16729311977E+03  0.00000000000E+00 0. -1.
          2    1    1    2  501    0 -0.31547069141E+02 -0.39082120114E+02  0.85786974319E+02  0.99408423420E+02  0.00000000000E+00 0. -1.
<scales pt_clust_5="13000.00000" pt_clust_6="13000.00000" pt_clust_7="13000.00000" pt_clust_8="13000.00000" pt_clust_9="50.22579"></scales>
<clustering>
<clus scale="   50.226">  1  9  2 -1</clus>
<clus scale="   91.040">  5  6 -1 -1</clus>
<clus scale="   95.658">  7  8 -1 -1</clus>
<clus scale="  195.735">  2  5  1 -1</clus>
<clus scale="   50.226">  1  5  2 -1</clus>
</clustering>
</event>
<event>
 9    1  0.1610296E-005  0.1358718E+03  0.7546771E-02  0.1219491E+00
         -3   -1    0    0    0  501 -0.00000000000E+00  0.00000000000E+00  0.31518373920E+03  0.31518373920E+03  0.00000000000E+00 0.  1.
         21   -1    0    0  501  502  0.00000000000E+00 -0.00000000000E+00 -0.18520334880E+03  0.18520334880E+03  0.00000000000E+00 0.  1.
         23    2    1    2    0    0 -0.12157477387E+03 -0.16834436077E+02  0.16991741312E+03  0.22894194760E+03  0.92079662290E+02 0.  0.
         23    2    1    2    0    0  0.70949376538E+02  0.86680198869E+01  0.78838825740E+02  0.14207233265E+03  0.94127778374E+02 0.  0.
        -11    1    4    4    0    0  0.71531163916E+02 -0.23407443068E+02  0.24829170835E+02  0.79253413343E+02  0.00000000000E+00 0. -1.
         11    1    4    4    0    0 -0.58178737835E+00  0.32075462955E+02  0.54009654905E+02  0.62818919310E+02  0.00000000000E+00 0.  1.
        -13    1    3    3    0    0 -0.43486412286E+02  0.29699307548E+02  0.10427096682E+03  0.11681417484E+03  0.00000000000E+00 0.  1.
         13    1    3    3    0    0 -0.78088361585E+02 -0.46533743625E+02  0.65646446300E+02  0.11212777275E+03  0.00000000000E+00 0. -1.
         -3    1    1    2    0  502  0.50625397334E+02  0.81664161903E+01 -0.11877584846E+03  0.12937280775E+03  0.00000000000E+00 0.  1.
<scales pt_clust_5="13000.00000" pt_clust_6="13000.00000" pt_clust_7="13000.00000" pt_clust_8="13000.00000" pt_clust_9="51.27983"></scales>
<clustering>
<clus scale="   51.280">  2  9  1 -1</clus>
<clus scale="   92.080">  7  8 -1 -1</clus>
<clus scale="   94.128">  5  6 -1 -1</clus>
<clus scale="  134.461">  1  7  2 -1</clus>
<clus scale="   51.280">  2  5  1 -1</clus>
</clustering>
</event>
<event>
 9    1  0.1610296E-005  0.1640802E+03  0.7546771E-02  0.1184658E+00
         21   -1    0    0  501  502  0.00000000000E+00  0.00000000000E+00  0.22863672796E+03  0.22863672796E+03  0.00000000000E+00 0.  1.
         -1   -1    0    0    0  501 -0.00000000000E+00 -0.00000000000E+00 -0.30150857464E+03  0.30150857464E+03  0.00000000000E+00 0.  1.
         23    2    1    2    0    0  0.13333280466E+03  0.38377860448E+02 -0.17072160195E+03  0.23798197441E+03  0.90769255798E+02 0.  0.
         23    2    1    2    0    0 -0.13463865275E+03  0.58335231709E+02  0.37685462987E+02  0.17825604353E+03  0.93938580251E+02 0.  0.
        -13    1    3    3    0    0  0.11578548038E+03 -0.45251468617E+01 -0.98075972108E+02  0.15180794026E+03  0.00000000000E+00 0.  1.
         13    1    3    3    0    0  0.17547324279E+02  0.42903007309E+02 -0.72645629842E+02  0.86174034144E+02  0.00000000000E+00 0. -1.
        -13    1    4    4    0    0 -0.13808575080E+02  0.25737994916E+02 -0.24852666830E+02  0.38350699819E+02  0.00000000000E+00 0. -1.
         13    1    4    4    0    0 -0.12083007767E+03  0.32597236793E+02  0.62538129817E+02  0.13990534371E+03  0.00000000000E+00 0.  1.
         -1    1    1    2    0  502  0.13058480908E+01 -0.96713092157E+02  0.60164292282E+02  0.11390728466E+03  0.00000000000E+00 0.  1.
<scales pt_clust_5="13000.00000" pt_clust_6="13000.00000" pt_clust_7="13000.00000" pt_clust_8="13000.00000" pt_clust_9="96.72191"></scales>
<clustering>
<clus scale="   90.769">  5  6 -1 -1</clus>
<clus scale="   93.939">  7  8 -1 -1</clus>
<clus scale="   96.722">  1  9  2 -1</clus>
<clus scale="  162.287">  2  5  1 -1</clus>
<clus scale="   96.722">  1  5  2 -1</clus>
</clustering>
</event>
<event>
 9    1  0.1610296E-005  0.9853193E+02  0.7546771E-02  0.1286502E+00
         21   -1    0    0  501  502  0.00000000000E+00  0.00000000000E+00  0.46229462038E+02  0.46229462038E+02  0.00000000000E+00 0. -1.
          1   -1    0    0  502    0 -0.00000000000E+00 -0.00000000000E+00 -0.46951616420E+03  0.46951616420E+03  0.00000000000E+00 0. -1.
         23    2    1    2    0    0  0.12707211217E+02  0.57255361671E+01 -0.25307848266E+03  0.27102032818E+03  0.95963768796E+02 0.  0.
         23    2    1    2    0    0 -0.22450076564E+02 -0.25809214244E+02 -0.19114631716E+03  0.21412004551E+03  0.90223931676E+02 0.  0.
        -11    1    3    3    0    0 -0.16192958491E+02 -0.37426068694E+02 -0.15206313336E+03  0.15743607925E+03  0.00000000000E+00 0. -1.
         11    1    3    3    0    0  0.28900169708E+02  0.43151604861E+02 -0.10101534929E+03  0.11358424892E+03  0.00000000000E+00 0.  1.
        -13    1    4    4    0    0 -0.56976883878E+02 -0.22353839179E+02 -0.13299989192E+03  0.14640707180E+03  0.00000000000E+00 0. -1.
         13    1    4    4    0    0  0.34526807314E+02 -0.34553750652E+01 -0.58146425242E+02  0.67712973710E+02  0.00000000000E+00 0.  1.
          1    1    1    2  501    0  0.97428653472E+01  0.20083678077E+02  0.20938097654E+02  0.30605252550E+02  0.00000000000E+00 0. -1.
<scales pt_clust_5="13000.00000" pt_clust_6="13000.00000" pt_clust_7="13000.00000" pt_clust_8="13000.00000" pt_clust_9="22.32213"></scales>
<clustering>
<clus scale="   22.322">  1  9  2 -1</clus>
<clus scale="   90.224">  7  8 -1 -1</clus>
<clus scale="   92.951">  1  7  2 -1</clus>
<clus scale="   95.964">  5  6 -1 -1</clus>
<clus scale="   22.322">  1  5  2 -1</clus>
</clustering>
</event>
<event>
 9    1  0.1610296E-005  0.9689538E+02  0.7546771E-02  0.1287652E+00
         21   -1    0    0  501  502  0.00000000000E+00  0.00000000000E+00  0.59054982123E+02  0.59054982123E+02  0.00000000000E+00 0. -1.
         -4   -1    0    0    0  501 -0.00000000000E+00 -0.00000000000E+00 -0.30332819933E+03  0.30332819933E+03  0.00000000000E+00 0.  1.
         23    2    1    2    0    0  0.25124610606E+02 -0.47811490136E+01 -0.15501160179E+03  0.18096709556E+03  0.89813069996E+02 0.  0.
         23    2    1    2    0    0 -0.44744514701E+02 -0.25075867093E+02 -0.99394686904E+02  0.14428037282E+03  0.91140833272E+02 0.  0.
        -13    1    4    4    0    0 -0.35896757237E+02 -0.49301620617E+02 -0.10149081420E+03  0.11840444393E+03  0.00000000000E+00 0. -1.
         13    1    4    4    0    0 -0.88477574649E+01  0.24225753524E+02  0.20961273002E+01  0.25875928884E+02  0.00000000000E+00 0.  1.
        -13    1    3    3    0    0  0.95569950787E+00 -0.35133483008E+02 -0.19887793935E+02  0.40383156606E+02  0.00000000000E+00 0. -1.
         13    1    3    3    0    0  0.24168911098E+02  0.30352333995E+02 -0.13512380786E+03  0.14058393896E+03  0.00000000000E+00 0.  1.
         -4    1    1    2    0  502  0.19619904095E+02  0.29857016107E+02  0.10133071490E+02  0.37135713072E+02  0.00000000000E+00 0.  1.
<scales pt_clust_5="13000.00000" pt_clust_6="13000.00000" pt_clust_7="13000.00000" pt_clust_8="13000.00000" pt_clust_9="35.72649"></scales>
<clustering>
<clus scale="   35.726">  1  9  2 -1</clus>
<clus scale="   89.813">  7  8 -1 -1</clus>
<clus scale="   91.141">  5  6 -1 -1</clus>
<clus scale="   95.648">  2  7  1 -1</clus>
<clus scale="   35.726">  1  5  2 -1</clus>
</clustering>
</event>
<event>
 9    1  0.1610296E-005  0.1369691E+03  0.7546771E-02  0.1217713E+00
         21   -1    0    0  501  502  0.00000000000E+00  0.00000000000E+00  0.11512244674E+03  0.11512244674E+03  0.00000000000E+00 0. -1.
          1   -1    0    0  502    0 -0.00000000000E+00 -0.00000000000E+00 -0.44302219810E+03  0.44302219810E+03  0.00000000000E+00 0. -1.
         23    2    1    2    0    0 -0.16957958429E+02  0.11826812383E+03 -0.30255732610E+03  0.33808931846E+03  0.92133219899E+02 0.  0.
         23    2    1    2    0    0  0.64932557502E+02 -0.29078526393E+02  0.36147706213E+00  0.11557070052E+03  0.91075015406E+02 0.  0.
        -11    1    4    4    0    0 -0.62433385198E+00  0.26196875111E+02 -0.12200568123E+02  0.28905361455E+02  0.00000000000E+00 0.  1.
         11    1    4    4    0    0  0.65556891354E+02 -0.55275401504E+02  0.12562045185E+02  0.86665339062E+02  0.00000000000E+00 0. -1.
        -11    1    3    3    0    0  0.35497523865E+02  0.30801254411E+02 -0.12165078106E+03  0.13041358827E+03  0.00000000000E+00 0. -1.
         11    1    3    3    0    0 -0.52455482294E+02  0.87466869421E+02 -0.18090654505E+03  0.20767573019E+03  0.00000000000E+00 0.  1.
          1    1    1    2  501    0 -0.47974599073E+02 -0.89189597439E+02 -0.25703902325E+02  0.10448462587E+03  0.00000000000E+00 0. -1.
<scales pt_clust_5="13000.00000" pt_clust_6="13000.00000" pt_clust_7="13000.00000" pt_clust_8="13000.00000" pt_clust_9="101.27362"></scales>
<clustering>
<clus scale="   91.075">  5  6 -1 -1</clus>
<clus scale="   92.133">  7  8 -1 -1</clus>
<clus scale="  101.274">  1  9  2 -1</clus>
<clus scale="  136.260">  1  5  2 -1</clus>
<clus scale="  101.274">  1  5  2 -1</clus>
</clustering>
</event>
<event>
 9    1  0.1610296E-005  0.1037236E+03  0.7546771E-02  0.1277288E+00
         21   -1    0    0  501  502  0.00000000000E+00  0.00000000000E+00  0.29398948480E+03  0.29398948480E+03  0.00000000000E+00 0.  1.
          3   -1    0    0  502    0 -0.00000000000E+00 -0.00000000000E+00 -0.46119528774E+02  0.46119528774E+02  0.00000000000E+00 0. -1.
         23    2    1    2    0    0  0.12420844703E+02  0.22402396326E+02  0.83192342457E+02  0.13391461109E+03  0.10176449516E+03 0.  0.
         23    2    1    2    0    0  0.10668910580E+02 -0.17327955948E+02  0.10277626408E+03  0.13993231820E+03  0.92757800263E+02 0.  0.
        -11    1    3    3    0    0  0.49777515565E+02  0.34102370675E+02  0.70426248114E+02  0.92739577122E+02  0.00000000000E+00 0.  1.
         11    1    3    3    0    0 -0.37356670862E+02 -0.11699974349E+02  0.12766094343E+02  0.41175033970E+02  0.00000000000E+00 0. -1.
        -11    1    4    4    0    0 -0.21408749053E+01  0.33872660985E+02  0.70027356534E+02  0.77818835578E+02  0.00000000000E+00 0.  1.
         11    1    4    4    0    0  0.12809785485E+02 -0.51200616933E+02  0.32748907544E+02  0.62113482625E+02  0.00000000000E+00 0. -1.
          3    1    1    2  501    0 -0.23089755283E+02 -0.50744403783E+01  0.61901349487E+02  0.66262084275E+02  0.00000000000E+00 0. -1.
<scales pt_clust_5="13000.00000" pt_clust_6="13000.00000" pt_clust_7="13000.00000" pt_clust_8="13000.00000" pt_clust_9="23.64079"></scales>
<clustering>
<clus scale="   23.641">  1  9  2 -1</clus>
<clus scale="   92.758">  7  8 -1 -1</clus>
<clus scale="   94.903">  1  7  2 -1</clus>
<clus scale="  101.764">  5  6 -1 -1</clus>
<clus scale="   23.641">  1  5  2 -1</clus>
</clustering>
</event>
<event>
 9    1  0.1610296E-005  0.9594947E+02  0.7546771E-02  0.1291311E+00
         21   -1    0    0  501  502  0.00000000000E+00  0.00000000000E+00  0.39873898881E+02  0.39873898881E+02  0.00000000000E+00 0. -1.
          2   -1    0    0  502    0 -0.00000000000E+00 -0.00000000000E+00 -0.64974779699E+03  0.64974779699E+03  0.00000000000E+00 0. -1.
         23    2    1    2    0    0  0.58598501991E+01  0.18497046621E+02 -0.37868352434E+03  0.39091086293E+03  0.95045318509E+02 0.  0.
         23    2    1    2    0    0  0.44313974171E+02  0.15912541126E+02 -0.21106007118E+03  0.23462759440E+03  0.91031956654E+02 0.  0.
        -13    1    3    3    0    0 -0.38746931457E+02 -0.10486993004E+02 -0.11206563191E+03  0.11903784094E+03  0.00000000000E+00 0.  1.
         13    1    3    3    0    0  0.44606781656E+02  0.28984039625E+02 -0.26661789242E+03  0.27187302199E+03  0.00000000000E+00 0. -1.
        -13    1    4    4    0    0  0.11655631199E+02 -0.29905177953E+02 -0.26316428147E+02  0.41505756196E+02  0.00000000000E+00 0.  1.
         13    1    4    4    0    0  0.32658342972E+02  0.45817719078E+02 -0.18474364304E+03  0.19312183820E+03  0.00000000000E+00 0. -1.
          2    1    1    2  501    0 -0.50173824370E+02 -0.34409587747E+02 -0.20130302591E+02  0.64083238551E+02  0.00000000000E+00 0. -1.
<scales pt_clust_5="13000.00000" pt_clust_6="13000.00000" pt_clust_7="13000.00000" pt_clust_8="13000.00000" pt_clust_9="60.83940"></scales>
<clustering>
<clus scale="   60.839">  1  9  2 -1</clus>
<clus scale="   91.032">  7  8 -1 -1</clus>
<clus scale="   91.976">  1  7  2 -1</clus>
<clus scale="   95.045">  5  6 -1 -1</clus>
<clus scale="   60.839">  1  5  2 -1</clus>
</clustering>
</event>
<event>
 9    1  0.1610296E-005  0.1017823E+03  0.7546771E-02  0.1276957E+00
          2   -1    0    0  502    0 -0.00000000000E+00  0.00000000000E+00  0.68283568097E+03  0.68283568097E+03  0.00000000000E+00 0. -1.
         21   -1    0    0  501  502  0.00000000000E+00 -0.00000000000E+00 -0.42756343358E+02  0.42756343358E+02  0.00000000000E+00 0.  1.
         23    2    1    2    0    0 -0.39712265298E+02 -0.28698238665E+02  0.51351588982E+03  0.52397816235E+03  0.91945052078E+02 0.  0.
         23    2    1    2    0    0  0.38997829223E+02 -0.24102917222E+02  0.98450709137E+02  0.14179080157E+03  0.91160890614E+02 0.  0.
        -13    1    4    4    0    0  0.17675927746E+02  0.34951331917E+02  0.34988213277E+02  0.52518654712E+02  0.00000000000E+00 0. -1.
         13    1    4    4    0    0  0.21321901477E+02 -0.59054249138E+02  0.63462495861E+02  0.89272146859E+02  0.00000000000E+00 0.  1.
        -13    1    3    3    0    0 -0.10592105385E+02 -0.59656680386E+02  0.26358162408E+03  0.27045588321E+03  0.00000000000E+00 0.  1.
         13    1    3    3    0    0 -0.29120159913E+02  0.30958441721E+02  0.24993426574E+03  0.25352227914E+03  0.00000000000E+00 0. -1.
          2    1    1    2  501    0  0.71443607488E+00  0.52801155887E+02  0.28112738651E+02  0.59823060406E+02  0.00000000000E+00 0. -1.
<scales pt_clust_5="13000.00000" pt_clust_6="13000.00000" pt_clust_7="13000.00000" pt_clust_8="13000.00000" pt_clust_9="52.80599"></scales>
<clustering>
<clus scale="   52.806">  2  9  1 -1</clus>
<clus scale="   91.161">  5  6 -1 -1</clus>
<clus scale="   91.945">  7  8 -1 -1</clus>
<clus scale="  101.074">  2  5  1 -1</clus>
<clus scale="   52.806">  2  5  1 -1</clus>
</clustering>
</event>
<event>
 9    1  0.1610296E-005  0.9650639E+02  0.7546771E-02  0.1291080E+00
         21   -1    0    0  501  502  0.00000000000E+00  0.00000000000E+00  0.98944121095E+02  0.98944121095E+02  0.00000000000E+00 0.  1.
          2   -1    0    0  502    0 -0.00000000000E+00 -0.00000000000E+00 -0.21691188213E+03  0.21691188213E+03  0.00000000000E+00 0. -1.
         23    2    1    2    0    0  0.28570217112E+02  0.10763496849E+02 -0.14967565443E+03  0.17769629934E+03  0.90780301275E+02 0.  0.
         23    2    1    2    0    0 -0.28394652230E+02 -0.42923661680E+02  0.36601439160E+02  0.10562889057E+03  0.84670538955E+02 0.  0.
        -11    1    4    4    0    0 -0.32122997275E+02 -0.66196707298E+02  0.36325460671E+02  0.82057480487E+02  0.00000000000E+00 0.  1.
         11    1    4    4    0    0  0.37283450447E+01  0.23273045618E+02  0.27597848876E+00  0.23571410081E+02  0.00000000000E+00 0. -1.
        -13    1    3    3    0    0 -0.26946124568E+02 -0.54846228567E+01 -0.15461319712E+02  0.31547220549E+02  0.00000000000E+00 0.  1.
         13    1    3    3    0    0  0.55516341680E+02  0.16248119706E+02 -0.13421433472E+03  0.14614907879E+03  0.00000000000E+00 0. -1.
          2    1    1    2  501    0 -0.17556488244E+00  0.32160164831E+02 -0.48935457656E+01  0.32530813318E+02  0.00000000000E+00 0. -1.
<scales pt_clust_5="13000.00000" pt_clust_6="13000.00000" pt_clust_7="13000.00000" pt_clust_8="13000.00000" pt_clust_9="32.16064"></scales>
<clustering>
<clus scale="   32.161">  1  9  2 -1</clus>
<clus scale="   84.671">  5  6 -1 -1</clus>
<clus scale="   90.780">  7  8 -1 -1</clus>
<clus scale="   90.783">  1  5  2 -1</clus>
<clus scale="   32.161">  1  5  2 -1</clus>
</clustering>
</event>
<event>
 9    1  0.1610296E-005  0.1170287E+03  0.7546771E-02  0.1248546E+00
         21   -1    0    0  501  502  0.00000000000E+00  0.00000000000E+00  0.78590676137E+02  0.78590676137E+02  0.00000000000E+00 0.  1.
          1   -1    0    0  502    0 -0.00000000000E+00 -0.00000000000E+00 -0.22560466888E+03  0.22560466888E+03  0.00000000000E+00 0. -1.
         23    2    1    2    0    0  0.53466102991E+02 -0.30919336728E+02 -0.91556319415E+02  0.14460613626E+03  0.93347444886E+02 0.  0.
         23    2    1    2    0    0 -0.77311299911E+02  0.35295504020E+02 -0.49184610658E+02  0.13454733240E+03  0.91983960735E+02 0.  0.
        -11    1    3    3    0    0 -0.95193869795E+01 -0.42619058962E+02 -0.18462476866E+02  0.47411664887E+02  0.00000000000E+00 0.  1.
         11    1    3    3    0    0  0.62985489970E+02  0.11699722234E+02 -0.73093842549E+02  0.97194471375E+02  0.00000000000E+00 0. -1.
        -11    1    4    4    0    0  0.15686658495E+02  0.19017772284E+02  0.57529963760E+01  0.25314894523E+02  0.00000000000E+00 0. -1.
         11    1    4    4    0    0 -0.92997958405E+02  0.16277731735E+02 -0.54937607034E+02  0.10923243788E+03  0.00000000000E+00 0.  1.
          1    1    1    2  501    0  0.23845196920E+02 -0.43761672915E+01 -0.62730626745E+01  0.25041876360E+02  0.00000000000E+00 0. -1.
<scales pt_clust_5="13000.00000" pt_clust_6="13000.00000" pt_clust_7="13000.00000" pt_clust_8="13000.00000" pt_clust_9="24.24344"></scales>
<clustering>
<clus scale="   24.243">  1  9  2 -1</clus>
<clus scale="   91.984">  7  8 -1 -1</clus>
<clus scale="   93.347">  5  6 -1 -1</clus>
<clus scale="  115.944">  1  7  2 -1</clus>
<clus scale="   24.243">  1  5  2 -1</clus>
</clustering>
</event>
<event>
 9    1  0.1610296E-005  0.1336766E+03  0.7546771E-02  0.1222713E+00
         21   -1    0    0  501  502  0.00000000000E+00  0.00000000000E+00  0.18887846120E+03  0.18887846120E+03  0.00000000000E+00 0. -1.
          2   -1    0    0  502    0 -0.00000000000E+00 -0.00000000000E+00 -0.33267485508E+03  0.33267485508E+03  0.00000000000E+00 0. -1.
         23    2    1    2    0    0 -0.84309533687E+02 -0.30317250808E+02 -0.26437161431E+03  0.29445721076E+03  0.93730813233E+02 0.  0.
         23    2    1    2    0    0  0.11212577596E+03  0.39957913200E+02  0.69265353221E+02  0.16794047875E+03  0.96111865982E+02 0.  0.
        -11    1    4    4    0    0  0.64055854488E+02  0.58586364799E+02  0.69799983973E+01  0.87087513526E+02  0.00000000000E+00 0. -1.
         11    1    4    4    0    0  0.48069921472E+02 -0.18628451598E+02  0.62285354824E+02  0.80852965219E+02  0.00000000000E+00 0.  1.
        -11    1    3    3    0    0 -0.18429947153E+02  0.33287531889E+02 -0.74247876015E+02  0.83429430204E+02  0.00000000000E+00 0. -1.
         11    1    3    3    0    0 -0.65879586534E+02 -0.63604782697E+02 -0.19012373830E+03  0.21102778056E+03  0.00000000000E+00 0.  1.
          2    1    1    2  501    0 -0.27816242272E+02 -0.96406623921E+01  0.51309867211E+02  0.59155626771E+02  0.00000000000E+00 0. -1.
<scales pt_clust_5="13000.00000" pt_clust_6="13000.00000" pt_clust_7="13000.00000" pt_clust_8="13000.00000" pt_clust_9="29.43953"></scales>
<clustering>
<clus scale="   29.440">  1  9  2 -1</clus>
<clus scale="   93.731">  7  8 -1 -1</clus>
<clus scale="   96.112">  5  6 -1 -1</clus>
<clus scale="  131.975">  2  7  1 -1</clus>
<clus scale="   29.440">  1  5  2 -1</clus>
</clustering>
</event>
<event>
 9    1  0.1610296E-005  0.1757147E+03  0.7546771E-02  0.1197994E+00
          2   -1    0    0  502    0 -0.00000000000E+00  0.00000000000E+00  0.83978463014E+03  0.83978463014E+03  0.00000000000E+00 0.  1.
         21   -1    0    0  501  502  0.00000000000E+00 -0.00000000000E+00 -0.65128848299E+02  0.65128848299E+02  0.00000000000E+00 0.  1.
         23    2    1    2    0    0 -0.28309292022E+02  0.76592681566E+01  0.36295301911E+03  0.37607646918E+03  0.94013489387E+02 0.  0.
         23    2    1    2    0    0  0.13494103197E+03 -0.99963991285E+02  0.25430141283E+03  0.31749445598E+03  0.89059751565E+02 0.  0.
        -11    1    3    3    0    0 -0.41567938300E+02  0.40773751654E+02  0.27630393832E+03  0.28237255293E+03  0.00000000000E+00 0.  1.
         11    1    3    3    0    0  0.13258646278E+02 -0.33114483498E+02  0.86649080787E+02  0.93703916245E+02  0.00000000000E+00 0. -1.
        -13    1    4    4    0    0  0.50983726380E+02 -0.29276217337E+02  0.26205670036E+02  0.64367494896E+02  0.00000000000E+00 0. -1.
         13    1    4    4    0    0  0.83957305588E+02 -0.70687773948E+02  0.22809574279E+03  0.25312696108E+03  0.00000000000E+00 0.  1.
          2    1    1    2  501    0 -0.10663173995E+03  0.92304723128E+02  0.15740134990E+03  0.21134255328E+03  0.00000000000E+00 0.  1.
<scales pt_clust_5="13000.00000" pt_clust_6="13000.00000" pt_clust_7="13000.00000" pt_clust_8="13000.00000" pt_clust_9="151.47283"></scales>
<clustering>
<clus scale="   89.060">  7  8 -1 -1</clus>
<clus scale="   94.013">  5  6 -1 -1</clus>
<clus scale="   98.482">  1  5  2 -1</clus>
<clus scale="  151.473">  2  9  1 -1</clus>
<clus scale="  151.473">  2  5  1 -1</clus>
</clustering>
</event>
<event>
 9    1  0.1610296E-005  0.1140936E+03  0.7546771E-02  0.1254062E+00
         -3   -1    0    0    0  501 -0.00000000000E+00  0.00000000000E+00  0.11880592580E+03  0.11880592580E+03  0.00000000000E+00 0.  1.
         21   -1    0    0  501  502  0.00000000000E+00 -0.00000000000E+00 -0.13848862243E+03  0.13848862243E+03  0.00000000000E+00 0. -1.
         23    2    1    2    0    0 -0.10612568159E+02 -0.73596364827E+02  0.11644695646E+02  0.12077317579E+03  0.94453742829E+02 0.  0.
         23    2    1    2    0    0 -0.40076675796E+01  0.51304518775E+02 -0.30843819594E+02  0.10985844806E+03  0.92028921312E+02 0.  0.
        -11    1    4    4    0    0  0.38481817427E+02  0.29766254553E+01 -0.23258102129E+02  0.45062732787E+02  0.00000000000E+00 0. -1.
         11    1    4    4    0    0 -0.42489485006E+02  0.48327893320E+02 -0.75857174643E+01  0.64795715277E+02  0.00000000000E+00 0.  1.
        -13    1    3    3    0    0 -0.23764395013E+02  0.13573520657E+02  0.17397358360E+02  0.32429230815E+02  0.00000000000E+00 0.  1.
         13    1    3    3    0    0  0.13151826854E+02 -0.87169885484E+02 -0.57526627137E+01  0.88343944972E+02  0.00000000000E+00 0. -1.
         -3    1    1    2    0  502  0.14620235739E+02  0.22291846052E+02 -0.48357268263E+00  0.26662924371E+02  0.00000000000E+00 0.  1.
<scales pt_clust_5="13000.00000" pt_clust_6="13000.00000" pt_clust_7="13000.00000" pt_clust_8="13000.00000" pt_clust_9="26.65855"></scales>
<clustering>
<clus scale="   26.659">  2  9  1 -1</clus>
<clus scale="   92.029">  5  6 -1 -1</clus>
<clus scale="   94.454">  7  8 -1 -1</clus>
<clus scale="  112.094">  2  5  1 -1</clus>
<clus scale="   26.659">  2  5  1 -1</clus>
</clustering>
</event>
<event>
 9    1  0.1610296E-005  0.9546863E+02  0.7546771E-02  0.1290653E+00
         -3   -1    0    0    0  501 -0.00000000000E+00  0.00000000000E+00  0.79635189275E+02  0.79635189275E+02  0.00000000000E+00 0.  1.
         21   -1    0    0  501  502  0.00000000000E+00 -0.00000000000E+00 -0.25833273620E+03  0.25833273620E+03  0.00000000000E+00 0.  1.
         23    2    1    2    0    0  0.86714784157E+01 -0.42314936484E+02 -0.45997371358E+02  0.11153117255E+03  0.91965732159E+02 0.  0.
         23    2    1    2    0    0  0.50043904204E+02 -0.10638766952E+02 -0.77339828384E+02  0.12991546561E+03  0.90989029231E+02 0.  0.
        -11    1    4    4    0    0  0.76937551733E+02 -0.85757291371E+01 -0.57340444360E+02  0.96337202349E+02  0.00000000000E+00 0.  1.
         11    1    4    4    0    0 -0.26893647529E+02 -0.20630378152E+01 -0.19999384024E+02  0.33578263264E+02  0.00000000000E+00 0. -1.
        -13    1    3    3    0    0 -0.27367334450E+02 -0.56525829504E+02 -0.30342202983E+02  0.69748044259E+02  0.00000000000E+00 0.  1.
         13    1    3    3    0    0  0.36038812866E+02  0.14210893020E+02 -0.15655168375E+02  0.41783128294E+02  0.00000000000E+00 0. -1.
         -3    1    1    2    0  502 -0.58715382620E+02  0.52953703437E+02 -0.55360347182E+02  0.96521287310E+02  0.00000000000E+00 0.  1.
<scales pt_clust_5="13000.00000" pt_clust_6="13000.00000" pt_clust_7="13000.00000" pt_clust_8="13000.00000" pt_clust_9="79.06700"></scales>
<clustering>
<clus scale="   79.067">  2  9  1 -1</clus>
<clus scale="   90.989">  5  6 -1 -1</clus>
<clus scale="   91.966">  7  8 -1 -1</clus>
<clus scale="   94.528">  2  5  1 -1</clus>
<clus scale="   79.067">  2  5  1 -1</clus>
</clustering>
</event>
<event>
 9    1  0.1610296E-005  0.1375322E+03  0.7546771E-02  0.1233036E+00
         21   -1    0    0  501  502  0.00000000000E+00  0.00000000000E+00  0.35486686520E+03  0.35486686520E+03  0.00000000000E+00 0.  1.
          3   -1    0    0  502    0 -0.00000000000E+00 -0.00000000000E+00 -0.32202277141E+03  0.32202277141E+03  0.00000000000E+00 0. -1.
         23    2    1    2    0    0  0.25091862016E+02 -0.12651193505E+02 -0.24441380440E+03  0.26327092842E+03  0.93722034396E+02 0.  0.
         23    2    1    2    0    0 -0.39185144691E+02 -0.91219829385E+02  0.20032398889E+02  0.13585483814E+03  0.90546712824E+02 0.  0.
        -11    1    3    3    0    0 -0.32924547623E+02 -0.96721828472E+01 -0.52192676370E+02  0.62463208562E+02  0.00000000000E+00 0.  1.
         11    1    3    3    0    0  0.58016409639E+02 -0.29790106580E+01 -0.19222112803E+03  0.20080771986E+03  0.00000000000E+00 0. -1.
        -13    1    4    4    0    0 -0.14039077221E+02 -0.72508368232E+02 -0.27592513785E+02  0.78841017053E+02  0.00000000000E+00 0. -1.
         13    1    4    4    0    0 -0.25146067470E+02 -0.18711461153E+02  0.47624912675E+02  0.57013821087E+02  0.00000000000E+00 0.  1.
          3    1    1    2  501    0  0.14093282676E+02  0.10387102289E+03  0.25722549930E+03  0.27776387005E+03  0.00000000000E+00 0. -1.
<scales pt_clust_5="13000.00000" pt_clust_6="13000.00000" pt_clust_7="13000.00000" pt_clust_8="13000.00000" pt_clust_9="103.52003"></scales>
<clustering>
<clus scale="   90.547">  7  8 -1 -1</clus>
<clus scale="   93.722">  5  6 -1 -1</clus>
<clus scale="   97.844">  2  5  1 -1</clus>
<clus scale="  103.520">  1  9  2 -1</clus>
<clus scale="  103.520">  1  5  2 -1</clus>
</clustering>
</event>
<event>
 9    1  0.1610296E-005  0.1008182E+03  0.7546771E-02  0.1279995E+00
         -3   -1    0    0    0  501 -0.00000000000E+00  0.00000000000E+00  0.63919367473E+02  0.63919367473E+02  0.00000000000E+00 0.  1.
         21   -1    0    0  501  502  0.00000000000E+00 -0.00000000000E+00 -0.27129930860E+03  0.27129930860E+03  0.00000000000E+00 0. -1.
         23    2    1    2    0    0 -0.18426619429E+02  0.17724524015E+02 -0.55055520007E+02  0.10710914974E+03  0.88247156445E+02 0.  0.
         23    2    1    2    0    0  0.59300203970E+02 -0.24765080928E+02 -0.59521101280E+02  0.12645975738E+03  0.91211212653E+02 0.  0.
        -11    1    3    3    0    0  0.28997230084E+02  0.20216737579E+02 -0.12883322059E+01  0.35372526497E+02  0.00000000000E+00 0.  1.
         11    1    3    3    0    0 -0.47423849512E+02 -0.24922135644E+01 -0.53767187801E+02  0.71736623248E+02  0.00000000000E+00 0. -1.
        -11    1    4    4    0    0  0.21487804797E+02 -0.25014994141E+02  0.19886163770E+02  0.38508897626E+02  0.00000000000E+00 0.  1.
         11    1    4    4    0    0  0.37812399174E+02  0.24991321374E+00 -0.79407265050E+02  0.87950859749E+02  0.00000000000E+00 0. -1.
         -3    1    1    2    0  502 -0.40873584542E+02  0.70405569126E+01 -0.92803319836E+02  0.10164976895E+03  0.00000000000E+00 0.  1.
<scales pt_clust_5="13000.00000" pt_clust_6="13000.00000" pt_clust_7="13000.00000" pt_clust_8="13000.00000" pt_clust_9="41.47553"></scales>
<clustering>
<clus scale="   41.476">  2  9  1 -1</clus>
<clus scale="   88.247">  5  6 -1 -1</clus>
<clus scale="   91.211">  7  8 -1 -1</clus>
<clus scale="   98.145">  1  5  2 -1</clus>
<clus scale="   41.476">  2  5  1 -1</clus>
</clustering>
</event>
<event>
 9    1  0.1610296E-005  0.1621977E+03  0.7546771E-02  0.1188966E+00
         21   -1    0    0  501  502  0.00000000000E+00  0.00000000000E+00  0.17526509464E+03  0.17526509464E+03  0.00000000000E+00 0. -1.
          1   -1    0    0  502    0 -0.00000000000E+00 -0.00000000000E+00 -0.19403388987E+03  0.19403388987E+03  0.00000000000E+00 0. -1.
         23    2    1    2    0    0  0.52811733705E+02 -0.93890726530E+02  0.26332866204E+01  0.15142034909E+03  0.10637969813E+03 0.  0.
         23    2    1    2    0    0 -0.99242809529E+02  0.99474096627E+02 -0.27681782369E+01  0.16753738804E+03  0.91196943133E+02 0.  0.
        -11    1    3    3    0    0 -0.23309398959E+02 -0.86722132336E+01  0.24690815529E+02  0.35045281190E+02  0.00000000000E+00 0. -1.
         11    1    3    3    0    0  0.76121132664E+02 -0.85218513297E+02 -0.22057528909E+02  0.11637506790E+03  0.00000000000E+00 0.  1.
        -13    1    4    4    0    0  0.10692648184E+02  0.42016876908E+02 -0.34200782522E+01  0.43490776097E+02  0.00000000000E+00 0.  1.
         13    1    4    4    0    0 -0.10993545771E+03  0.57457219720E+02  0.65190001527E+00  0.12404661194E+03  0.00000000000E+00 0. -1.
          1    1    1    2  501    0  0.46431075823E+02 -0.55833700970E+01 -0.18633903611E+02  0.50341247378E+02  0.00000000000E+00 0. -1.
<scales pt_clust_5="13000.00000" pt_clust_6="13000.00000" pt_clust_7="13000.00000" pt_clust_8="13000.00000" pt_clust_9="46.76560"></scales>
<clustering>
<clus scale="   46.766">  1  9  2 -1</clus>
<clus scale="   91.197">  7  8 -1 -1</clus>
<clus scale="  106.380">  5  6 -1 -1</clus>
<clus scale="  152.671">  1  7  2 -1</clus>
<clus scale="   46.766">  1  5  2 -1</clus>
</clustering>
</event>
<event>
 9    1  0.1610296E-005  0.1206352E+03  0.7546771E-02  0.1242441E+00
          3   -1    0    0  502    0 -0.00000000000E+00  0.00000000000E+00  0.56246456577E+03  0.56246456577E+03  0.00000000000E+00 0. -1.
         21   -1    0    0  501  502  0.00000000000E+00 -0.00000000000E+00 -0.74150112926E+02  0.74150112926E+02  0.00000000000E+00 0.  1.
         23    2    1    2    0    0  0.83095090505E+02  0.37734316645E+02  0.28698563805E+03  0.31474712449E+03  0.91522255269E+02 0.  0.
         23    2    1    2    0    0 -0.33083957700E+02 -0.67818061181E+02  0.22886339903E+03  0.25733617875E+03  0.90275222513E+02 0.  0.
        -13    1    4    4    0    0 -0.71249569744E+01 -0.72594105129E+02  0.89328146685E+02  0.11532643626E+03  0.00000000000E+00 0.  1.
         13    1    4    4    0    0 -0.25959000726E+02  0.47760439477E+01  0.13953525234E+03  0.14200974248E+03  0.00000000000E+00 0. -1.
        -13    1    3    3    0    0  0.92144782456E+02  0.56422039810E+02  0.24960878929E+03  0.27199017483E+03  0.00000000000E+00 0.  1.
         13    1    3    3    0    0 -0.90496919518E+01 -0.18687723165E+02  0.37376848755E+02  0.42756949662E+02  0.00000000000E+00 0. -1.
          3    1    1    2  501    0 -0.50011132804E+02  0.30083744536E+02 -0.27534584231E+02  0.64531375458E+02  0.00000000000E+00 0. -1.
<scales pt_clust_5="13000.00000" pt_clust_6="13000.00000" pt_clust_7="13000.00000" pt_clust_8="13000.00000" pt_clust_9="58.36219"></scales>
<clustering>
<clus scale="   58.362">  2  9  1 -1</clus>
<clus scale="   90.275">  5  6 -1 -1</clus>
<clus scale="   91.522">  7  8 -1 -1</clus>
<clus scale="  119.692">  2  5  1 -1</clus>
<clus scale="   58.362">  2  5  1 -1</clus>
</clustering>
</event>
<event>
 9    1  0.1610296E-005  0.9612047E+02  0.7546771E-02  0.1293380E+00
          3   -1    0    0  502    0 -0.00000000000E+00  0.00000000000E+00  0.40507017055E+02  0.40507017055E+02  0.00000000000E+00 0. -1.
         21   -1    0    0  501  502  0.00000000000E+00 -0.00000000000E+00 -0.31219564120E+03  0.31219564120E+03  0.00000000000E+00 0. -1.
         23    2    1    2    0    0  0.19392498457E+02  0.19690438373E+02 -0.49831978691E+02  0.10172600002E+03  0.84268443802E+02 0.  0.
         23    2    1    2    0    0 -0.25567570876E+02  0.27330407224E+00 -0.18862280089E+03  0.21171890796E+03  0.92696060308E+02 0.  0.
        -11    1    4    4    0    0  0.96973322252E+01 -0.28810458692E+02 -0.18552799747E+02  0.35613019540E+02  0.00000000000E+00 0.  1.
         11    1    4    4    0    0 -0.35264903102E+02  0.29083762764E+02 -0.17007000115E+03  0.17610588842E+03  0.00000000000E+00 0. -1.
        -13    1    3    3    0    0  0.32277934125E+02 -0.10032895886E+01  0.12630053991E+02  0.34675494015E+02  0.00000000000E+00 0. -1.
         13    1    3    3    0    0 -0.12885435668E+02  0.20693727962E+02 -0.62462032681E+02  0.67050506008E+02  0.00000000000E+00 0.  1.
          3    1    1    2  501    0  0.61750724193E+01 -0.19963742446E+02 -0.33233844558E+02  0.39257750265E+02  0.00000000000E+00 0. -1.
<scales pt_clust_5="13000.00000" pt_clust_6="13000.00000" pt_clust_7="13000.00000" pt_clust_8="13000.00000" pt_clust_9="20.89695"></scales>
<clustering>
<clus scale="   20.897">  2  9  1 -1</clus>
<clus scale="   84.268">  7  8 -1 -1</clus>
<clus scale="   88.021">  1  7  2 -1</clus>
<clus scale="   92.696">  5  6 -1 -1</clus>
<clus scale="   20.897">  2  5  1 -1</clus>
</clustering>
</event>
<event>
 9    1  0.1610296E-005  0.1207140E+03  0.7546771E-02  0.1242646E+00
         21   -1    0    0  501  502  0.00000000000E+00  0.00000000000E+00  0.38664969788E+03  0.38664969788E+03  0.00000000000E+00 0. -1.
          3   -1    0    0  502    0 -0.00000000000E+00 -0.00000000000E+00 -0.99450789072E+02  0.99450789072E+02  0.00000000000E+00 0. -1.
         23    2    1    2    0    0  0.13793484020E+02 -0.66495884458E+02  0.28619699706E+02  0.11842809947E+03  0.92704717682E+02 0.  0.
         23    2    1    2    0    0  0.48433044698E+02  0.88043167207E+02  0.42372601639E+02  0.14165972549E+03  0.90413944427E+02 0.  0.
        -11    1    3    3    0    0  0.31724015600E+02  0.52538758912E+01  0.30678626161E+02  0.44443160113E+02  0.00000000000E+00 0.  1.
         11    1    3    3    0    0 -0.17930531580E+02 -0.71749760349E+02 -0.20589264551E+01  0.73984939353E+02  0.00000000000E+00 0. -1.
        -11    1    4    4    0    0 -0.26944559654E+02  0.26102736681E+02  0.93780578532E+01  0.38669240054E+02  0.00000000000E+00 0.  1.
         11    1    4    4    0    0  0.75377604353E+02  0.61940430526E+02  0.32994543786E+02  0.10299048544E+03  0.00000000000E+00 0. -1.
          3    1    1    2  501    0 -0.62226528718E+02 -0.21547282750E+02  0.21620660746E+03  0.22601266199E+03  0.00000000000E+00 0. -1.
<scales pt_clust_5="13000.00000" pt_clust_6="13000.00000" pt_clust_7="13000.00000" pt_clust_8="13000.00000" pt_clust_9="65.85155"></scales>
<clustering>
<clus scale="   65.852">  1  9  2 -1</clus>
<clus scale="   90.414">  7  8 -1 -1</clus>
<clus scale="   92.705">  5  6 -1 -1</clus>
<clus scale="  118.964">  1  7  2 -1</clus>
<clus scale="   65.852">  1  5  2 -1</clus>
</clustering>
</event>
<event>
 9    1  0.1610296E-005  0.1222408E+03  0.7546771E-02  0.1243065E+00
         21   -1    0    0  501  502  0.00000000000E+00  0.00000000000E+00  0.52047287870E+02  0.52047287870E+02  0.00000000000E+00 0. -1.
         -1   -1    0    0    0  501 -0.00000000000E+00 -0.00000000000E+00 -0.43712944117E+03  0.43712944117E+03  0.00000000000E+00 0.  1.
         23    2    1    2    0    0 -0.25418995425E+01 -0.82952797381E+02 -0.28515925148E+03  0.30751564562E+03  0.79764940598E+02 0.  0.
         23    2    1    2    0    0 -0.19640031967E+02  0.75413605905E+02 -0.10255183697E+03  0.15808591017E+03  0.91658785275E+02 0.  0.
        -11    1    4    4    0    0 -0.15689049443E+02 -0.13706530349E+02 -0.50912697713E+02  0.55010163016E+02  0.00000000000E+00 0.  1.
         11    1    4    4    0    0 -0.39509825243E+01  0.89120136254E+02 -0.51639139257E+02  0.10307574716E+03  0.00000000000E+00 0. -1.
        -13    1    3    3    0    0 -0.30041963301E+02 -0.66909440281E+01 -0.11474650674E+03  0.11880256352E+03  0.00000000000E+00 0. -1.
         13    1    3    3    0    0  0.27500063758E+02 -0.76261853353E+02 -0.17041274474E+03  0.18871308210E+03  0.00000000000E+00 0.  1.
         -1    1    1    2    0  502  0.22181931510E+02  0.75391914755E+01  0.26289351520E+01  0.23575173247E+02  0.00000000000E+00 0.  1.
<scales pt_clust_5="13000.00000" pt_clust_6="13000.00000" pt_clust_7="13000.00000" pt_clust_8="13000.00000" pt_clust_9="23.42813"></scales>
<clustering>
<clus scale="   23.428">  1  9  2 -1</clus>
<clus scale="   79.765">  7  8 -1 -1</clus>
<clus scale="   91.659">  5  6 -1 -1</clus>
<clus scale="  113.595">  2  7  1 -1</clus>
<clus scale="   23.428">  1  5  2 -1</clus>
</clustering>
</event>
<event>
 9    1  0.1610296E-005  0.1551635E+03  0.7546771E-02  0.1218398E+00
          1   -1    0    0  502    0 -0.00000000000E+00  0.00000000000E+00  0.19318768479E+03  0.19318768479E+03  0.00000000000E+00 0. -1.
         21   -1    0    0  501  502  0.00000000000E+00 -0.00000000000E+00 -0.25552852030E+03  0.25552852030E+03  0.00000000000E+00 0. -1.
         23    2    1    2    0    0  0.10242512114E+02 -0.14470037923E+02  0.80063029290E+02  0.12225004285E+03  0.90668038831E+02 0.  0.
         23    2    1    2    0    0  0.12659693498E+02 -0.11846082638E+03 -0.11430914358E+03  0.18868213173E+03  0.91329794163E+02 0.  0.
        -13    1    4    4    0    0  0.50025737244E+02 -0.50990371901E+02 -0.41472127748E+02  0.82598606486E+02  0.00000000000E+00 0. -1.
         13    1    4    4    0    0 -0.37366043747E+02 -0.67470454476E+02 -0.72837015828E+02  0.10608352524E+03  0.00000000000E+00 0.  1.
        -13    1    3    3    0    0 -0.42509267671E+00  0.37133580825E+02  0.47546202485E+02  0.60330132599E+02  0.00000000000E+00 0.  1.
         13    1    3    3    0    0  0.10667604790E+02 -0.51603618748E+02  0.32516826805E+02  0.61919910250E+02  0.00000000000E+00 0. -1.
          1    1    1    2  501    0 -0.22902205611E+02  0.13293086430E+03 -0.28094721222E+02  0.13778403052E+03  0.00000000000E+00 0. -1.
<scales pt_clust_5="13000.00000" pt_clust_6="13000.00000" pt_clust_7="13000.00000" pt_clust_8="13000.00000" pt_clust_9="125.43760"></scales>
<clustering>
<clus scale="   90.668">  7  8 -1 -1</clus>
<clus scale="   91.330">  5  6 -1 -1</clus>
<clus scale="   92.385">  1  7  2 -1</clus>
<clus scale="  125.438">  2  9  1 -1</clus>
<clus scale="  125.438">  2  5  1 -1</clus>
</clustering>
</event>
<event>
 9    1  0.1610296E-005  0.2528931E+03  0.7546771E-02  0.1111535E+00
         21   -1    0    0  501  502  0.00000000000E+00  0.00000000000E+00  0.48344893491E+02  0.48344893491E+02  0.00000000000E+00 0.  1.
          2   -1    0    0  502    0 -0.00000000000E+00 -0.00000000000E+00 -0.16405998024E+04  0.16405998024E+04  0.00000000000E+00 0. -1.
         23    2    1    2    0    0 -0.24063756920E+03 -0.54666159584E+02 -0.97799770240E+03  0.10127121852E+04  0.90618074125E+02 0.  0.
         23    2    1    2    0    0  0.21290839192E+03  0.60515161055E+02 -0.59653003424E+03  0.64280541504E+03  0.91425662588E+02 0.  0.
        -13    1    3    3    0    0 -0.12209858742E+03 -0.58575685313E+02 -0.38917843799E+03  0.41206678167E+03  0.00000000000E+00 0.  1.
         13    1    3    3    0    0 -0.11853898178E+03  0.39095257285E+01 -0.58881926441E+03  0.60064540349E+03  0.00000000000E+00 0. -1.
        -13    1    4    4    0    0  0.12817797518E+02  0.31669349214E+02 -0.54726737840E+02  0.64515575232E+02  0.00000000000E+00 0.  1.
         13    1    4    4    0    0  0.20009059441E+03  0.28845811841E+02 -0.54180329640E+03  0.57828983981E+03  0.00000000000E+00 0. -1.
          2    1    1    2  501    0  0.27729177272E+02 -0.58490014708E+01 -0.17727172281E+02  0.33427095708E+02  0.00000000000E+00 0. -1.
<scales pt_clust_5="13000.00000" pt_clust_6="13000.00000" pt_clust_7="13000.00000" pt_clust_8="13000.00000" pt_clust_9="28.33934"></scales>
<clustering>
<clus scale="   28.339">  1  9  2 -1</clus>
<clus scale="   90.618">  5  6 -1 -1</clus>
<clus scale="   91.426">  7  8 -1 -1</clus>
<clus scale="  252.602">  2  5  1 -1</clus>
<clus scale="   28.339">  1  5  2 -1</clus>
</clustering>
</event>
<event>
 9    1  0.1610296E-005  0.9264997E+02  0.7546771E-02  0.1297927E+00
         21   -1    0    0  501  502  0.00000000000E+00  0.00000000000E+00  0.20868149490E+03  0.20868149490E+03  0.00000000000E+00 0.  1.
          1   -1    0    0  502    0 -0.00000000000E+00 -0.00000000000E+00 -0.76492449047E+02  0.76492449047E+02  0.00000000000E+00 0. -1.
         23    2    1    2    0    0 -0.43159986446E+00 -0.19729923347E+01 -0.16506786281E+02  0.93837894864E+02  0.92352571930E+02 0.  0.
         23    2    1    2    0    0 -0.69084639432E+01  0.26652115203E+02  0.12371950190E+03  0.15546471353E+03  0.90026106679E+02 0.  0.
        -13    1    4    4    0    0  0.21972397583E+02 -0.14591065518E+02  0.54629291634E+01  0.26935646336E+02  0.00000000000E+00 0. -1.
         13    1    4    4    0    0 -0.28880861526E+02  0.41243180721E+02  0.11825657274E+03  0.12852906719E+03  0.00000000000E+00 0.  1.
        -13    1    3    3    0    0  0.34460849831E+02 -0.31171755387E+02 -0.12751538066E+02  0.48185373590E+02  0.00000000000E+00 0. -1.
         13    1    3    3    0    0 -0.34892449695E+02  0.29198763053E+02 -0.37552482155E+01  0.45652521274E+02  0.00000000000E+00 0.  1.
          1    1    1    2  501    0  0.73400638077E+01 -0.24679122868E+02  0.24976330230E+02  0.35871335548E+02  0.00000000000E+00 0. -1.
<scales pt_clust_5="13000.00000" pt_clust_6="13000.00000" pt_clust_7="13000.00000" pt_clust_8="13000.00000" pt_clust_9="25.74754"></scales>
<clustering>
<clus scale="   25.748">  1  9  2 -1</clus>
<clus scale="   90.026">  5  6 -1 -1</clus>
<clus scale="   90.331">  1  5  2 -1</clus>
<clus scale="   92.353">  7  8 -1 -1</clus>
<clus scale="   25.748">  1  5  2 -1</clus>
</clustering>
</event>
<event>
 9    1  0.1610296E-005  0.1019913E+03  0.7546771E-02  0.1276530E+00
          3   -1    0    0  502    0 -0.00000000000E+00  0.00000000000E+00  0.14425348945E+03  0.14425348945E+03  0.00000000000E+00 0. -1.
         21   -1    0    0  501  502  0.00000000000E+00 -0.00000000000E+00 -0.16300112546E+03  0.16300112546E+03  0.00000000000E+00 0. -1.
         23    2    1    2    0    0 -0.33188406458E+02  0.30642575056E+02  0.32383632529E+02  0.10686585598E+03  0.91275263845E+02 0.  0.
         23    2    1    2    0    0  0.52189795647E+02 -0.12113246424E+01  0.32762385056E+02  0.10947453338E+03  0.90476834095E+02 0.  0.
        -11    1    4    4    0    0  0.58469587104E+02 -0.34766285062E+02  0.32371900981E+02  0.75334767314E+02  0.00000000000E+00 0. -1.
         11    1    4    4    0    0 -0.62797914568E+01  0.33554960419E+02  0.39048407509E+00  0.34139766070E+02  0.00000000000E+00 0.  1.
        -13    1    3    3    0    0  0.14895379131E+02 -0.23593629456E+02  0.17303068641E+02  0.32831811628E+02  0.00000000000E+00 0. -1.
         13    1    3    3    0    0 -0.48083785589E+02  0.54236204512E+02  0.15080563888E+02  0.74034044355E+02  0.00000000000E+00 0.  1.
          3    1    1    2  501    0 -0.19001389190E+02 -0.29431250414E+02 -0.83893653598E+02  0.90914225543E+02  0.00000000000E+00 0. -1.
<scales pt_clust_5="13000.00000" pt_clust_6="13000.00000" pt_clust_7="13000.00000" pt_clust_8="13000.00000" pt_clust_9="35.03215"></scales>
<clustering>
<clus scale="   35.032">  2  9  1 -1</clus>
<clus scale="   90.477">  5  6 -1 -1</clus>
<clus scale="   91.275">  7  8 -1 -1</clus>
<clus scale="  101.277">  2  5  1 -1</clus>
<clus scale="   35.032">  2  5  1 -1</clus>
</clustering>
</event>
<event>
 9    1  0.1610296E-005  0.1000867E+03  0.7546771E-02  0.1281492E+00
         -1   -1    0    0    0  501 -0.00000000000E+00  0.00000000000E+00  0.17604356162E+03  0.17604356162E+03  0.00000000000E+00 0.  1.
         21   -1    0    0  501  502  0.00000000000E+00 -0.00000000000E+00 -0.27174111069E+03  0.27174111069E+03  0.00000000000E+00 0.  1.
         23    2    1    2    0    0  0.23124835343E+02  0.19679393365E+02  0.13029453729E+03  0.16224949751E+03  0.91794316068E+02 0.  0.
         23    2    1    2    0    0 -0.29576035605E+02 -0.39028811856E+02 -0.68219209367E+02  0.12644935301E+03  0.94538819077E+02 0.  0.
        -13    1    4    4    0    0  0.21577064507E+01 -0.36054516116E+02  0.13636321292E+02  0.38607422704E+02  0.00000000000E+00 0.  1.
         13    1    4    4    0    0 -0.31733742056E+02 -0.29742957404E+01 -0.81855530659E+02  0.87841930304E+02  0.00000000000E+00 0. -1.
        -13    1    3    3    0    0  0.31747510976E+02 -0.29819175399E+02  0.80403287786E+02  0.91442749092E+02  0.00000000000E+00 0.  1.
         13    1    3    3    0    0 -0.86226756335E+01  0.49498568764E+02  0.49891249507E+02  0.70806748423E+02  0.00000000000E+00 0. -1.
         -1    1    1    2    0  502  0.64512002623E+01  0.19349418491E+02 -0.15777287699E+03  0.15908582179E+03  0.00000000000E+00 0.  1.
<scales pt_clust_5="13000.00000" pt_clust_6="13000.00000" pt_clust_7="13000.00000" pt_clust_8="13000.00000" pt_clust_9="20.39652"></scales>
<clustering>
<clus scale="   20.397">  2  9  1 -1</clus>
<clus scale="   91.794">  7  8 -1 -1</clus>
<clus scale="   94.539">  5  6 -1 -1</clus>
<clus scale="   97.499">  1  7  2 -1</clus>
<clus scale="   20.397">  2  5  1 -1</clus>
</clustering>
</event>
<event>
 9    1  0.1610296E-005  0.1258301E+03  0.7546771E-02  0.1237496E+00
          1   -1    0    0  502    0 -0.00000000000E+00  0.00000000000E+00  0.71411446192E+03  0.71411446192E+03  0.00000000000E+00 0. -1.
         21   -1    0    0  501  502  0.00000000000E+00 -0.00000000000E+00 -0.28524083182E+02  0.28524083182E+02  0.00000000000E+00 0.  1.
         23    2    1    2    0    0  0.72984359483E+02 -0.10415251494E+02  0.41671244302E+03  0.43299164623E+03  0.91636844910E+02 0.  0.
         23    2    1    2    0    0 -0.70411700745E+02 -0.15659711905E+02  0.23741703123E+03  0.26870412417E+03  0.10311171344E+03 0.  0.
        -11    1    4    4    0    0 -0.40353534605E+01  0.28654381351E+02  0.13906822731E+03  0.14204692708E+03  0.00000000000E+00 0. -1.
         11    1    4    4    0    0 -0.66376347284E+02 -0.44314093255E+02  0.98348803926E+02  0.12665719709E+03  0.00000000000E+00 0.  1.
        -13    1    3    3    0    0 -0.17006242540E+02 -0.18003486238E+02  0.57615805160E+02  0.62712987541E+02  0.00000000000E+00 0.  1.
         13    1    3    3    0    0  0.89990602023E+02  0.75882347435E+01  0.35909663786E+03  0.37027865869E+03  0.00000000000E+00 0. -1.
          1    1    1    2  501    0 -0.25726587378E+01  0.26074963399E+02  0.31460904486E+02  0.40942774702E+02  0.00000000000E+00 0. -1.
<scales pt_clust_5="13000.00000" pt_clust_6="13000.00000" pt_clust_7="13000.00000" pt_clust_8="13000.00000" pt_clust_9="26.20157"></scales>
<clustering>
<clus scale="   26.202">  2  9  1 -1</clus>
<clus scale="   91.637">  7  8 -1 -1</clus>
<clus scale="  103.112">  5  6 -1 -1</clus>
<clus scale="  116.613">  1  7  2 -1</clus>
<clus scale="   26.202">  2  5  1 -1</clus>
</clustering>
</event>
<event>
 9    1  0.1610296E-005  0.1556432E+03  0.7546771E-02  0.1193814E+00
          2   -1    0    0  502    0 -0.00000000000E+00  0.00000000000E+00  0.13078555714E+04  0.13078555714E+04  0.00000000000E+00 0. -1.
         21   -1    0    0  501  502  0.00000000000E+00 -0.00000000000E+00 -0.32241308421E+02  0.32241308421E+02  0.00000000000E+00 0.  1.
         23    2    1    2    0    0 -0.11928946887E+03 -0.12163354294E+02  0.77420793784E+03  0.78878731497E+03  0.91703722296E+02 0.  0.
         23    2    1    2    0    0  0.13578661604E+03 -0.62117664766E+01  0.50029599818E+03  0.52659046788E+03  0.92330081362E+02 0.  0.
        -11    1    3    3    0    0 -0.53584006276E+02  0.39255092718E+02  0.39098141009E+03  0.39658375039E+03  0.00000000000E+00 0. -1.
         11    1    3    3    0    0 -0.65705462590E+02 -0.51418447012E+02  0.38322652774E+03  0.39220356459E+03  0.00000000000E+00 0.  1.
        -13    1    4    4    0    0  0.71065272025E+02 -0.37931046501E+02  0.16473115439E+03  0.18337227272E+03  0.00000000000E+00 0.  1.
         13    1    4    4    0    0  0.64721344016E+02  0.31719280025E+02  0.33556484380E+03  0.34321819516E+03  0.00000000000E+00 0. -1.
          2    1    1    2  501    0 -0.16497147175E+02  0.18375120770E+02  0.11103269417E+01  0.24719096952E+02  0.00000000000E+00 0. -1.
<scales pt_clust_5="13000.00000" pt_clust_6="13000.00000" pt_clust_7="13000.00000" pt_clust_8="13000.00000" pt_clust_9="24.69415"></scales>
<clustering>
<clus scale="   24.694">  2  9  1 -1</clus>
<clus scale="   91.704">  5  6 -1 -1</clus>
<clus scale="   92.330">  7  8 -1 -1</clus>
<clus scale="  155.272">  1  5  2 -1</clus>
<clus scale="   24.694">  2  5  1 -1</clus>
</clustering>
</event>
<event>
 9    1  0.1610296E-005  0.1104590E+03  0.7546771E-02  0.1261335E+00
         21   -1    0    0  501  502  0.00000000000E+00  0.00000000000E+00  0.20986892976E+03  0.20986892976E+03  0.00000000000E+00 0.  1.
          4   -1    0    0  502    0 -0.00000000000E+00 -0.00000000000E+00 -0.83797149133E+02  0.83797149133E+02  0.00000000000E+00 0. -1.
         23    2    1    2    0    0  0.73109864927E+02  0.16796116325E+02  0.10629389452E+02  0.11761858695E+03  0.89966583809E+02 0.  0.
         23    2    1    2    0    0 -0.46885925629E+02  0.60510738243E+01  0.89873463193E+02  0.13287968950E+03  0.85702199377E+02 0.  0.
        -11    1    3    3    0    0 -0.17479951405E+02  0.19890043116E+02  0.31964028291E+01  0.26671698621E+02  0.00000000000E+00 0.  1.
         11    1    3    3    0    0  0.90589816332E+02 -0.30939267910E+01  0.74329866228E+01  0.90946888326E+02  0.00000000000E+00 0. -1.
        -11    1    4    4    0    0 -0.10548454552E+02  0.28260140290E+02  0.84783336766E+02  0.89989552815E+02  0.00000000000E+00 0.  1.
         11    1    4    4    0    0 -0.36337471078E+02 -0.22209066466E+02  0.50901264272E+01  0.42890136683E+02  0.00000000000E+00 0. -1.
          4    1    1    2  501    0 -0.26223939297E+02 -0.22847190150E+02  0.25568927981E+02  0.43167802447E+02  0.00000000000E+00 0. -1.
<scales pt_clust_5="13000.00000" pt_clust_6="13000.00000" pt_clust_7="13000.00000" pt_clust_8="13000.00000" pt_clust_9="34.78058"></scales>
<clustering>
<clus scale="   34.781">  1  9  2 -1</clus>
<clus scale="   85.702">  7  8 -1 -1</clus>
<clus scale="   89.967">  5  6 -1 -1</clus>
<clus scale="  107.014">  1  7  2 -1</clus>
<clus scale="   34.781">  1  5  2 -1</clus>
</clustering>
</event>
<event>
 9    1  0.1610296E-005  0.1242029E+03  0.7546771E-02  0.1237091E+00
         21   -1    0    0  501  502  0.00000000000E+00  0.00000000000E+00  0.20730696983E+03  0.20730696983E+03  0.00000000000E+00 0.  1.
          3   -1    0    0  502    0 -0.00000000000E+00 -0.00000000000E+00 -0.13770998538E+03  0.13770998538E+03  0.00000000000E+00 0. -1.
         23    2    1    2    0    0 -0.38451404592E+02  0.60352773310E+02 -0.33270850157E+02  0.11972550008E+03  0.90034871786E+02 0.  0.
         23    2    1    2    0    0  0.59164544132E+02 -0.86202377753E+02  0.26690812719E+02  0.14222416396E+03  0.92649987139E+02 0.  0.
        -11    1    4    4    0    0  0.13671442089E+02 -0.92616667114E+02  0.14970002212E+02  0.94809579275E+02  0.00000000000E+00 0.  1.
         11    1    4    4    0    0  0.45493102044E+02  0.64142893608E+01  0.11720810507E+02  0.47414584681E+02  0.00000000000E+00 0. -1.
        -13    1    3    3    0    0  0.25374337185E+02  0.44894792098E+00 -0.17384443373E+02  0.30761622408E+02  0.00000000000E+00 0. -1.
         13    1    3    3    0    0 -0.63825741777E+02  0.59903825389E+02 -0.15886406784E+02  0.88963877670E+02  0.00000000000E+00 0.  1.
          3    1    1    2  501    0 -0.20713139540E+02  0.25849604444E+02  0.76177021888E+02  0.83067291175E+02  0.00000000000E+00 0. -1.
<scales pt_clust_5="13000.00000" pt_clust_6="13000.00000" pt_clust_7="13000.00000" pt_clust_8="13000.00000" pt_clust_9="33.12456"></scales>
<clustering>
<clus scale="   33.125">  1  9  2 -1</clus>
<clus scale="   90.035">  7  8 -1 -1</clus>
<clus scale="   92.650">  5  6 -1 -1</clus>
<clus scale="  122.264">  2  7  1 -1</clus>
<clus scale="   33.125">  1  5  2 -1</clus>
</clustering>
</event>
<event>
 9    1  0.1610296E-005  0.9398703E+02  0.7546771E-02  0.1294066E+00
         21   -1    0    0  501  502  0.00000000000E+00  0.00000000000E+00  0.28711361752E+03  0.28711361752E+03  0.00000000000E+00 0. -1.
         -1   -1    0    0    0  501 -0.00000000000E+00 -0.00000000000E+00 -0.63589431157E+02  0.63589431157E+02  0.00000000000E+00 0.  1.
         23    2    1    2    0    0 -0.13476078240E+02  0.54880148894E+01  0.79598001362E+01  0.92814201311E+02  0.91320285560E+02 0.  0.
         23    2    1    2    0    0  0.30721685126E+02 -0.33461354888E+02  0.12024718808E+03  0.15706579955E+03  0.90259597497E+02 0.  0.
        -13    1    3    3    0    0 -0.14036422866E+02  0.47952826851E+02  0.56423274242E+01  0.50282508178E+02  0.00000000000E+00 0. -1.
         13    1    3    3    0    0  0.56034462588E+00 -0.42464811962E+02  0.23174727120E+01  0.42531693134E+02  0.00000000000E+00 0.  1.
        -13    1    4    4    0    0  0.62087200889E+02 -0.13143863376E+02  0.70708405335E+02  0.95011895275E+02  0.00000000000E+00 0. -1.
         13    1    4    4    0    0 -0.31365515763E+02 -0.20317491512E+02  0.49538782746E+02  0.62053904279E+02  0.00000000000E+00 0.  1.
         -1    1    1    2    0  502 -0.17245606887E+02  0.27973339999E+02  0.95317198146E+02  0.10082304781E+03  0.00000000000E+00 0.  1.
<scales pt_clust_5="13000.00000" pt_clust_6="13000.00000" pt_clust_7="13000.00000" pt_clust_8="13000.00000" pt_clust_9="32.86212"></scales>
<clustering>
<clus scale="   32.862">  1  9  2 -1</clus>
<clus scale="   90.260">  7  8 -1 -1</clus>
<clus scale="   91.320">  5  6 -1 -1</clus>
<clus scale="   92.957">  1  7  2 -1</clus>
<clus scale="   32.862">  1  5  2 -1</clus>
</clustering>
</event>
<event>
 9    1  0.1610296E-005  0.1959411E+03  0.7546771E-02  0.1153647E+00
          3   -1    0    0  502    0 -0.00000000000E+00  0.00000000000E+00  0.26101185104E+03  0.26101185104E+03  0.00000000000E+00 0. -1.
         21   -1    0    0  501  502  0.00000000000E+00 -0.00000000000E+00 -0.38286442144E+03  0.38286442144E+03  0.00000000000E+00 0. -1.
         23    2    1    2    0    0 -0.10242953903E+03 -0.14207492754E+03  0.13990582288E+03  0.24223460952E+03  0.91797991634E+02 0.  0.
         23    2    1    2    0    0  0.74701243974E+02  0.15224181644E+03 -0.63330984125E+02  0.20102845134E+03  0.87428703368E+02 0.  0.
        -11    1    3    3    0    0 -0.57759627090E+02 -0.14910677983E+02  0.64240983628E+02  0.87666452061E+02  0.00000000000E+00 0.  1.
         11    1    3    3    0    0 -0.44669911936E+02 -0.12716424956E+03  0.75664839257E+02  0.15456815745E+03  0.00000000000E+00 0. -1.
        -11    1    4    4    0    0  0.87561803145E+02  0.88540392472E+02 -0.52525731485E+02  0.13514963166E+03  0.00000000000E+00 0.  1.
         11    1    4    4    0    0 -0.12860559171E+02  0.63701423969E+02 -0.10805252641E+02  0.65878819681E+02  0.00000000000E+00 0. -1.
          3    1    1    2  501    0  0.27728295053E+02 -0.10166888897E+02 -0.19842740916E+03  0.20061321163E+03  0.00000000000E+00 0. -1.
<scales pt_clust_5="13000.00000" pt_clust_6="13000.00000" pt_clust_7="13000.00000" pt_clust_8="13000.00000" pt_clust_9="29.53344"></scales>
<clustering>
<clus scale="   29.533">  2  9  1 -1</clus>
<clus scale="   87.429">  7  8 -1 -1</clus>
<clus scale="   91.798">  5  6 -1 -1</clus>
<clus scale="  193.932">  2  7  1 -1</clus>
<clus scale="   29.533">  2  5  1 -1</clus>
</clustering>
</event>
<event>
 9    1  0.1610296E-005  0.9346439E+02  0.7546771E-02  0.1295048E+00
         21   -1    0    0  501  502  0.00000000000E+00  0.00000000000E+00  0.31789745396E+02  0.31789745396E+02  0.00000000000E+00 0. -1.
          1   -1    0    0  502    0 -0.00000000000E+00 -0.00000000000E+00 -0.59004400846E+03  0.59004400846E+03  0.00000000000E+00 0. -1.
         23    2    1    2    0    0 -0.18301405268E+02 -0.95773392345E+00 -0.37044656997E+03  0.38184554999E+03  0.90771714528E+02 0.  0.
         23    2    1    2    0    0  0.25339349845E+02  0.23004663797E+02 -0.19348191627E+03  0.21615972114E+03  0.90102585480E+02 0.  0.
        -11    1    4    4    0    0 -0.28605323573E+02 -0.80703136138E+01 -0.95990376944E+02  0.10048655116E+03  0.00000000000E+00 0.  1.
         11    1    4    4    0    0  0.53944673418E+02  0.31074977411E+02 -0.97491539328E+02  0.11567316997E+03  0.00000000000E+00 0. -1.
        -13    1    3    3    0    0  0.29410982676E+02  0.21706684376E+02 -0.10462925768E+03  0.11083080624E+03  0.00000000000E+00 0. -1.
         13    1    3    3    0    0 -0.47712387944E+02 -0.22664418300E+02 -0.26581731228E+03  0.27101474375E+03  0.00000000000E+00 0.  1.
          1    1    1    2  501    0 -0.70379445770E+01 -0.22046929873E+02  0.56742231720E+01  0.23828482732E+02  0.00000000000E+00 0. -1.
<scales pt_clust_5="13000.00000" pt_clust_6="13000.00000" pt_clust_7="13000.00000" pt_clust_8="13000.00000" pt_clust_9="23.14303"></scales>
<clustering>
<clus scale="   23.143">  1  9  2 -1</clus>
<clus scale="   90.103">  5  6 -1 -1</clus>
<clus scale="   90.772">  7  8 -1 -1</clus>
<clus scale="   92.815">  1  5  2 -1</clus>
<clus scale="   23.143">  1  5  2 -1</clus>
</clustering>
</event>
<event>
 9    1  0.1610296E-005  0.1877662E+03  0.7546771E-02  0.1161849E+00
          2   -1    0    0  502    0 -0.00000000000E+00  0.00000000000E+00  0.99296174817E+03  0.99296174817E+03  0.00000000000E+00 0. -1.
         21   -1    0    0  501  502  0.00000000000E+00 -0.00000000000E+00 -0.10682079369E+04  0.10682079369E+04  0.00000000000E+00 0. -1.
         23    2    1    2    0    0 -0.18186911071E+03 -0.97495108888E+02  0.80409597355E+03  0.83389675909E+03  0.78941753571E+02 0.  0.
         23    2    1    2    0    0  0.99630482596E+02 -0.96026681816E+01  0.14238052296E+03  0.19666612836E+03  0.91580065660E+02 0.  0.
        -11    1    4    4    0    0  0.10042333486E+03  0.11918718714E+02  0.14297141629E+03  0.17512203720E+03  0.00000000000E+00 0.  1.
         11    1    4    4    0    0 -0.79285225932E+00 -0.21521386896E+02 -0.59089332985E+00  0.21544091152E+02  0.00000000000E+00 0. -1.
        -11    1    3    3    0    0 -0.85150692178E+02 -0.12509913056E+02  0.42215340760E+03  0.43083713611E+03  0.00000000000E+00 0.  1.
         11    1    3    3    0    0 -0.96718418529E+02 -0.84985195832E+02  0.38194256595E+03  0.40305962298E+03  0.00000000000E+00 0. -1.
          2    1    1    2  501    0  0.82238628111E+02  0.10709777707E+03 -0.10217226852E+04  0.10306067976E+04  0.00000000000E+00 0. -1.
<scales pt_clust_5="13000.00000" pt_clust_6="13000.00000" pt_clust_7="13000.00000" pt_clust_8="13000.00000" pt_clust_9="135.03009"></scales>
<clustering>
<clus scale="   78.942">  7  8 -1 -1</clus>
<clus scale="   91.580">  5  6 -1 -1</clus>
<clus scale="  135.030">  2  9  1 -1</clus>
<clus scale="  181.937">  1  7  2 -1</clus>
<clus scale="  135.030">  2  5  1 -1</clus>
</clustering>
</event>
<event>
 9    1  0.1610296E-005  0.1517642E+03  0.7546771E-02  0.1200078E+00
         21   -1    0    0  501  502  0.00000000000E+00  0.00000000000E+00  0.24809416010E+03  0.24809416010E+03  0.00000000000E+00 0. -1.
          2   -1    0    0  502    0 -0.00000000000E+00 -0.00000000000E+00 -0.33373950418E+03  0.33373950418E+03  0.00000000000E+00 0. -1.
         23    2    1    2    0    0  0.10351731816E+03 -0.31302285540E+02 -0.16647068060E+03  0.22754276479E+03  0.11120950529E+03 0.  0.
         23    2    1    2    0    0 -0.38186970312E+02  0.12673902853E+03 -0.54257249495E+02  0.17646083650E+03  0.10331288227E+03 0.  0.
        -13    1    3    3    0    0  0.12403171822E+03 -0.43235566881E+02 -0.13912610014E+03  0.19133544655E+03  0.00000000000E+00 0. -1.
         13    1    3    3    0    0 -0.20514400054E+02  0.11933281341E+02 -0.27344580457E+02  0.36207318231E+02  0.00000000000E+00 0.  1.
        -13    1    4    4    0    0 -0.73855807712E+02  0.76873701178E+02 -0.34435121344E+02  0.11202688895E+03  0.00000000000E+00 0. -1.
         13    1    4    4    0    0  0.35668837400E+02  0.49865327347E+02 -0.19822128151E+02  0.64433947554E+02  0.00000000000E+00 0.  1.
          2    1    1    2  501    0 -0.65330347852E+02 -0.95436742986E+02  0.13508258601E+03  0.17783006299E+03  0.00000000000E+00 0. -1.
<scales pt_clust_5="13000.00000" pt_clust_6="13000.00000" pt_clust_7="13000.00000" pt_clust_8="13000.00000" pt_clust_9="115.65564"></scales>
<clustering>
<clus scale="  103.313">  7  8 -1 -1</clus>
<clus scale="  111.210">  5  6 -1 -1</clus>
<clus scale="  115.656">  1  9  2 -1</clus>
<clus scale="  146.077">  1  7  2 -1</clus>
<clus scale="  115.656">  1  5  2 -1</clus>
</clustering>
</event>
<event>
 9    1  0.1610296E-005  0.1158894E+03  0.7546771E-02  0.1256469E+00
         21   -1    0    0  501  502  0.00000000000E+00  0.00000000000E+00  0.66171985798E+02  0.66171985798E+02  0.00000000000E+00 0. -1.
         -1   -1    0    0    0  501 -0.00000000000E+00 -0.00000000000E+00 -0.30269784511E+03  0.30269784511E+03  0.00000000000E+00 0.  1.
         23    2    1    2    0    0 -0.27880477400E+02 -0.37409361479E+02 -0.16541701057E+03  0.19664474315E+03  0.95548868526E+02 0.  0.
         23    2    1    2    0    0 -0.49674201067E+01  0.20242282921E+02 -0.74971439285E+02  0.13496099562E+03  0.11026934456E+03 0.  0.
        -11    1    3    3    0    0 -0.20217640472E+01 -0.26401184390E+02  0.23103703305E+01  0.26579087233E+02  0.00000000000E+00 0. -1.
         11    1    3    3    0    0 -0.25858713353E+02 -0.11008177089E+02 -0.16772738090E+03  0.17006565592E+03  0.00000000000E+00 0.  1.
        -11    1    4    4    0    0 -0.35170872215E+01 -0.45186874983E+02 -0.20202700191E+02  0.49622300111E+02  0.00000000000E+00 0.  1.
         11    1    4    4    0    0 -0.14503328852E+01  0.65429157905E+02 -0.54768739094E+02  0.85338695511E+02  0.00000000000E+00 0. -1.
         -1    1    1    2    0  502  0.32847897507E+02  0.17167078558E+02  0.38625905443E+01  0.37264092134E+02  0.00000000000E+00 0.  1.
<scales pt_clust_5="13000.00000" pt_clust_6="13000.00000" pt_clust_7="13000.00000" pt_clust_8="13000.00000" pt_clust_9="37.06336"></scales>
<clustering>
<clus scale="   37.063">  1  9  2 -1</clus>
<clus scale="   95.549">  5  6 -1 -1</clus>
<clus scale="  101.983">  2  5  1 -1</clus>
<clus scale="  110.269">  7  8 -1 -1</clus>
<clus scale="   37.063">  1  5  2 -1</clus>
</clustering>
</event>
<event>
 9    1  0.1744724E-005  0.3437590E+03  0.7546771E-02  0.1065309E+00
         21   -1    0    0  501  502  0.00000000000E+00  0.00000000000E+00  0.94577076594E+03  0.94577076594E+03  0.00000000000E+00 0. -1.
          2   -1    0    0  502    0 -0.00000000000E+00 -0.00000000000E+00 -0.85392616096E+03  0.85392616096E+03  0.00000000000E+00 0. -1.
         23    2    1    2    0    0 -0.13602272568E+03  0.32145416572E+03 -0.75247552289E+03  0.83447286413E+03  0.91052654335E+02 0.  0.
         23    2    1    2    0    0 -0.39837119708E+02 -0.21778831779E+03  0.29395360044E+03  0.37821758261E+03  0.87298757775E+02 0.  0.
        -11    1    3    3    0    0 -0.77345210640E+02  0.21824418252E+03 -0.58524386578E+03  0.62938317998E+03  0.00000000000E+00 0. -1.
         11    1    3    3    0    0 -0.58677515037E+02  0.10320998321E+03 -0.16723165711E+03  0.20508968415E+03  0.00000000000E+00 0.  1.
        -13    1    4    4    0    0 -0.21453171837E+02 -0.20751827988E+03  0.22827993197E+03  0.30925038788E+03  0.00000000000E+00 0.  1.
         13    1    4    4    0    0 -0.18383947871E+02 -0.10270037915E+02  0.65673668471E+02  0.68967194727E+02  0.00000000000E+00 0. -1.
          2    1    1    2  501    0  0.17585984538E+03 -0.10366584793E+03  0.55036652742E+03  0.58700648016E+03  0.00000000000E+00 0. -1.
<scales pt_clust_5="13000.00000" pt_clust_6="13000.00000" pt_clust_7="13000.00000" pt_clust_8="13000.00000" pt_clust_9="204.14038"></scales>
<clustering>
<clus scale="   87.299">  7  8 -1 -1</clus>
<clus scale="   91.053">  5  6 -1 -1</clus>
<clus scale="  204.140">  1  9  2 -1</clus>
<clus scale="  342.784">  1  7  2 -1</clus>
<clus scale="  204.140">  1  5  2 -1</clus>
</clustering>
</event>
<event>
 9    1  0.1610296E-005  0.9636269E+02  0.7546771E-02  0.1289382E+00
         21   -1    0    0  501  502  0.00000000000E+00  0.00000000000E+00  0.21624081583E+02  0.21624081583E+02  0.00000000000E+00 0.  1.
          2   -1    0    0  502    0 -0.00000000000E+00 -0.00000000000E+00 -0.61170222320E+03  0.61170222320E+03  0.00000000000E+00 0. -1.
         23    2    1    2    0    0 -0.20651586226E+02  0.17377098375E+02 -0.36248190859E+03  0.37567261635E+03  0.94912217644E+02 0.  0.
         23    2    1    2    0    0 -0.96561553545E+00 -0.58956259494E+00 -0.18693238046E+03  0.20863661309E+03  0.92651181644E+02 0.  0.
        -11    1    3    3    0    0 -0.10655229283E+01 -0.36336819945E+02 -0.20353114549E+03  0.20675209069E+03  0.00000000000E+00 0.  1.
         11    1    3    3    0    0 -0.19586063297E+02  0.53713918320E+02 -0.15895076310E+03  0.16892052565E+03  0.00000000000E+00 0. -1.
        -13    1    4    4    0    0  0.38946763051E+02 -0.93505327160E+01 -0.14357805182E+03  0.14906018844E+03  0.00000000000E+00 0.  1.
         13    1    4    4    0    0 -0.39912378586E+02  0.87609701211E+01 -0.43354328634E+02  0.59576424643E+02  0.00000000000E+00 0. -1.
          2    1    1    2  501    0  0.21617201761E+02 -0.16787535780E+02 -0.40663852570E+02  0.49017075345E+02  0.00000000000E+00 0. -1.
<scales pt_clust_5="13000.00000" pt_clust_6="13000.00000" pt_clust_7="13000.00000" pt_clust_8="13000.00000" pt_clust_9="27.37014"></scales>
<clustering>
<clus scale="   27.370">  1  9  2 -1</clus>
<clus scale="   92.651">  7  8 -1 -1</clus>
<clus scale="   94.136">  1  7  2 -1</clus>
<clus scale="   94.912">  5  6 -1 -1</clus>
<clus scale="   27.370">  1  5  2 -1</clus>
</clustering>
</event>
<event>
 9    1  0.1610296E-005  0.1742338E+03  0.7546771E-02  0.1174443E+00
          1   -1    0    0  502    0 -0.00000000000E+00  0.00000000000E+00  0.61726062372E+03  0.61726062372E+03  0.00000000000E+00 0. -1.
         21   -1    0    0  501  502  0.00000000000E+00 -0.00000000000E+00 -0.27650829696E+03  0.27650829696E+03  0.00000000000E+00 0.  1.
         23    2    1    2    0    0  0.15985895881E+02 -0.14317678473E+03  0.51456315616E+03  0.54139439660E+03  0.87048896802E+02 0.  0.
         23    2    1    2    0    0  0.14752925502E+02  0.17023156859E+03 -0.23347270999E+02  0.19643825865E+03  0.94055614631E+02 0.  0.
        -11    1    4    4    0    0  0.48980419381E+02  0.13742254360E+03 -0.28823178344E+02  0.14871049923E+03  0.00000000000E+00 0.  1.
         11    1    4    4    0    0 -0.34227493879E+02  0.32809024993E+02  0.54759073447E+01  0.47727759422E+02  0.00000000000E+00 0. -1.
        -11    1    3    3    0    0 -0.27697136525E+02 -0.16592371921E+02  0.13810672230E+03  0.14183055003E+03  0.00000000000E+00 0.  1.
         11    1    3    3    0    0  0.43683032406E+02 -0.12658441281E+03  0.37645643386E+03  0.39956384656E+03  0.00000000000E+00 0. -1.
          1    1    1    2  501    0 -0.30738821383E+02 -0.27054783855E+02 -0.15046355840E+03  0.15593626543E+03  0.00000000000E+00 0. -1.
<scales pt_clust_5="13000.00000" pt_clust_6="13000.00000" pt_clust_7="13000.00000" pt_clust_8="13000.00000" pt_clust_9="40.94919"></scales>
<clustering>
<clus scale="   40.949">  2  9  1 -1</clus>
<clus scale="   87.049">  7  8 -1 -1</clus>
<clus scale="   94.056">  5  6 -1 -1</clus>
<clus scale="  170.553">  1  7  2 -1</clus>
<clus scale="   40.949">  2  5  1 -1</clus>
</clustering>
</event>
<event>
 9    1  0.1610296E-005  0.1369074E+03  0.7546771E-02  0.1218169E+00
         21   -1    0    0  501  502  0.00000000000E+00  0.00000000000E+00  0.28082838497E+03  0.28082838497E+03  0.00000000000E+00 0. -1.
          1   -1    0    0  502    0 -0.00000000000E+00 -0.00000000000E+00 -0.64833494850E+03  0.64833494850E+03  0.00000000000E+00 0. -1.
         23    2    1    2    0    0  0.98114584627E+02  0.63597309092E+02 -0.40967168980E+03  0.43516327512E+03  0.88685360398E+02 0.  0.
         23    2    1    2    0    0 -0.56477700909E+02 -0.61710930268E+02 -0.20707598846E+03  0.24129801683E+03  0.91358077465E+02 0.  0.
        -13    1    3    3    0    0  0.11079661099E+03  0.41537965456E+02 -0.36562320085E+03  0.38429365930E+03  0.00000000000E+00 0. -1.
         13    1    3    3    0    0 -0.12682026366E+02  0.22059343636E+02 -0.44048488953E+02  0.50869615818E+02  0.00000000000E+00 0.  1.
        -13    1    4    4    0    0 -0.15443737026E+02 -0.76763764017E+02 -0.15203118401E+03  0.17101071718E+03  0.00000000000E+00 0.  1.
         13    1    4    4    0    0 -0.41033963883E+02  0.15052833749E+02 -0.55044804445E+02  0.70287299651E+02  0.00000000000E+00 0. -1.
          1    1    1    2  501    0 -0.41636883718E+02 -0.18863788243E+01  0.24924111473E+03  0.25270204151E+03  0.00000000000E+00 0. -1.
<scales pt_clust_5="13000.00000" pt_clust_6="13000.00000" pt_clust_7="13000.00000" pt_clust_8="13000.00000" pt_clust_9="41.67959"></scales>
<clustering>
<clus scale="   41.680">  1  9  2 -1</clus>
<clus scale="   88.685">  5  6 -1 -1</clus>
<clus scale="   91.358">  7  8 -1 -1</clus>
<clus scale="  135.139">  2  5  1 -1</clus>
<clus scale="   41.680">  1  5  2 -1</clus>
</clustering>
</event>
<event>
 9    1  0.1610296E-005  0.1008537E+03  0.7546771E-02  0.1282412E+00
         21   -1    0    0  501  502  0.00000000000E+00  0.00000000000E+00  0.48208065342E+03  0.48208065342E+03  0.00000000000E+00 0. -1.
          1   -1    0    0  502    0 -0.00000000000E+00 -0.00000000000E+00 -0.15874712171E+03  0.15874712171E+03  0.00000000000E+00 0. -1.
         23    2    1    2    0    0 -0.36194431055E+02 -0.54030637782E+01 -0.10353986882E+03  0.14757530929E+03  0.98583657571E+02 0.  0.
         23    2    1    2    0    0 -0.40496547367E+02  0.70678899900E+01  0.56223102662E+02  0.11474761629E+03  0.91192394162E+02 0.  0.
        -11    1    4    4    0    0  0.24289580889E+02 -0.14718877841E+02  0.38983627202E+01  0.28667513610E+02  0.00000000000E+00 0.  1.
         11    1    4    4    0    0 -0.64786128256E+02  0.21786767831E+02  0.52324739942E+02  0.86080102677E+02  0.00000000000E+00 0. -1.
        -13    1    3    3    0    0  0.60888248438E+01  0.27941532689E+02  0.24382543200E+01  0.28701012545E+02  0.00000000000E+00 0.  1.
         13    1    3    3    0    0 -0.42283255899E+02 -0.33344596467E+02 -0.10597812314E+03  0.11887429675E+03  0.00000000000E+00 0. -1.
          1    1    1    2  501    0  0.76690978422E+02 -0.16648262118E+01  0.37065029787E+03  0.37850484955E+03  0.00000000000E+00 0. -1.
<scales pt_clust_5="13000.00000" pt_clust_6="13000.00000" pt_clust_7="13000.00000" pt_clust_8="13000.00000" pt_clust_9="76.70905"></scales>
<clustering>
<clus scale="   76.709">  1  9  2 -1</clus>
<clus scale="   91.192">  5  6 -1 -1</clus>
<clus scale="   93.642">  1  5  2 -1</clus>
<clus scale="   98.584">  7  8 -1 -1</clus>
<clus scale="   76.709">  1  5  2 -1</clus>
</clustering>
</event>
<event>
 9    1  0.1610296E-005  0.2689748E+03  0.7546771E-02  0.1101904E+00
         -3   -1    0    0    0  501 -0.00000000000E+00  0.00000000000E+00  0.65890317168E+03  0.65890317168E+03  0.00000000000E+00 0.  1.
         21   -1    0    0  501  502  0.00000000000E+00 -0.00000000000E+00 -0.33121475083E+03  0.33121475083E+03  0.00000000000E+00 0.  1.
         23    2    1    2    0    0 -0.22321425294E+03 -0.14480148117E+03  0.53613229959E+03  0.60516882463E+03  0.89439320059E+02 0.  0.
         23    2    1    2    0    0  0.17673326485E+03  0.42466392912E+02 -0.17426150879E+03  0.26746979351E+03  0.90194099382E+02 0.  0.
        -13    1    4    4    0    0  0.22274532580E+02  0.16247331422E+02  0.64361322043E+01  0.28311735689E+02  0.00000000000E+00 0. -1.
         13    1    4    4    0    0  0.15445873227E+03  0.26219061490E+02 -0.18069764100E+03  0.23915805782E+03  0.00000000000E+00 0.  1.
        -13    1    3    3    0    0 -0.19523144936E+03 -0.15099807790E+03  0.50909335954E+03  0.56576654822E+03  0.00000000000E+00 0.  1.
         13    1    3    3    0    0 -0.27982803583E+02  0.61965967380E+01  0.27038940046E+02  0.39402276410E+02  0.00000000000E+00 0. -1.
         -3    1    1    2    0  502  0.46480988094E+02  0.10233508825E+03 -0.34182369945E+02  0.11747930438E+03  0.00000000000E+00 0.  1.
<scales pt_clust_5="13000.00000" pt_clust_6="13000.00000" pt_clust_7="13000.00000" pt_clust_8="13000.00000" pt_clust_9="112.39641"></scales>
<clustering>
<clus scale="   89.439">  7  8 -1 -1</clus>
<clus scale="   90.194">  5  6 -1 -1</clus>
<clus scale="  112.396">  2  9  1 -1</clus>
<clus scale="  268.723">  1  7  2 -1</clus>
<clus scale="  112.396">  2  5  1 -1</clus>
</clustering>
</event>
<event>
 9    1  0.1610296E-005  0.1057174E+03  0.7546771E-02  0.1269749E+00
         21   -1    0    0  501  502  0.00000000000E+00  0.00000000000E+00  0.85443610523E+02  0.85443610523E+02  0.00000000000E+00 0.  1.
          1   -1    0    0  502    0 -0.00000000000E+00 -0.00000000000E+00 -0.37832032691E+03  0.37832032691E+03  0.00000000000E+00 0. -1.
         23    2    1    2    0    0  0.34727973234E+02  0.35189135994E+02 -0.27166334594E+03  0.28976574281E+03  0.87857297730E+02 0.  0.
         23    2    1    2    0    0 -0.40268270733E+02 -0.77278678229E+02 -0.33317490255E+02  0.12985372523E+03  0.90323900832E+02 0.  0.
        -11    1    4    4    0    0  0.26448742555E+02 -0.32832622184E+02  0.20988402523E+01  0.42212820240E+02  0.00000000000E+00 0. -1.
         11    1    4    4    0    0 -0.66717013288E+02 -0.44446056045E+02 -0.35416330507E+02  0.87640904985E+02  0.00000000000E+00 0.  1.
        -11    1    3    3    0    0 -0.33343077890E+01 -0.26601225675E+02 -0.53374727530E+02  0.59729426205E+02  0.00000000000E+00 0.  1.
         11    1    3    3    0    0  0.38062281023E+02  0.61790361669E+02 -0.21828861841E+03  0.23003631661E+03  0.00000000000E+00 0. -1.
          1    1    1    2  501    0  0.55402974985E+01  0.42089542235E+02  0.12104119805E+02  0.44144469395E+02  0.00000000000E+00 0. -1.
<scales pt_clust_5="13000.00000" pt_clust_6="13000.00000" pt_clust_7="13000.00000" pt_clust_8="13000.00000" pt_clust_9="42.45261"></scales>
<clustering>
<clus scale="   42.453">  1  9  2 -1</clus>
<clus scale="   87.857">  7  8 -1 -1</clus>
<clus scale="   90.324">  5  6 -1 -1</clus>
<clus scale="  103.618">  2  7  1 -1</clus>
<clus scale="   42.453">  1  5  2 -1</clus>
</clustering>
</event>
<event>
 9    1  0.1610296E-005  0.1306767E+03  0.7546771E-02  0.1226767E+00
          1   -1    0    0  502    0 -0.00000000000E+00  0.00000000000E+00  0.39300669081E+03  0.39300669081E+03  0.00000000000E+00 0. -1.
         21   -1    0    0  501  502  0.00000000000E+00 -0.00000000000E+00 -0.86097824582E+02  0.86097824582E+02  0.00000000000E+00 0.  1.
         23    2    1    2    0    0  0.62121346562E+02 -0.72102462123E+02  0.26191748706E+03  0.29293429304E+03  0.90287891027E+02 0.  0.
         23    2    1    2    0    0 -0.76284827141E+02  0.55786833488E+02  0.74412467327E+02  0.14966810805E+03  0.89060550358E+02 0.  0.
        -11    1    3    3    0    0  0.41380999541E+02 -0.38967263654E+02  0.44929900944E+02  0.72453645585E+02  0.00000000000E+00 0.  1.
         11    1    3    3    0    0  0.20740347021E+02 -0.33135198469E+02  0.21698758612E+03  0.22048064745E+03  0.00000000000E+00 0. -1.
        -13    1    4    4    0    0  0.44028725890E+00  0.43935697553E+02  0.27653648481E+01  0.44024840886E+02  0.00000000000E+00 0.  1.
         13    1    4    4    0    0 -0.76725114400E+02  0.11851135935E+02  0.71647102479E+02  0.10564326716E+03  0.00000000000E+00 0. -1.
          1    1    1    2  501    0  0.14163480579E+02  0.16315628635E+02 -0.29421088165E+02  0.36502114304E+02  0.00000000000E+00 0. -1.
<scales pt_clust_5="13000.00000" pt_clust_6="13000.00000" pt_clust_7="13000.00000" pt_clust_8="13000.00000" pt_clust_9="21.60565"></scales>
<clustering>
<clus scale="   21.606">  2  9  1 -1</clus>
<clus scale="   89.061">  7  8 -1 -1</clus>
<clus scale="   90.288">  5  6 -1 -1</clus>
<clus scale="  129.832">  2  7  1 -1</clus>
<clus scale="   21.606">  2  5  1 -1</clus>
</clustering>
</event>
<event>
 9    1  0.1610296E-005  0.1018504E+03  0.7546771E-02  0.1276733E+00
         21   -1    0    0  501  502  0.00000000000E+00  0.00000000000E+00  0.64459108642E+02  0.64459108642E+02  0.00000000000E+00 0. -1.
          1   -1    0    0  502    0 -0.00000000000E+00 -0.00000000000E+00 -0.40084480294E+03  0.40084480294E+03  0.00000000000E+00 0. -1.
         23    2    1    2    0    0 -0.93489188902E+01  0.36052279060E+01 -0.11596705934E+03  0.14830393569E+03  0.91898305401E+02 0.  0.
         23    2    1    2    0    0  0.25288423483E+02 -0.85419858734E+02 -0.18880157202E+03  0.22785211954E+03  0.91293472665E+02 0.  0.
        -11    1    4    4    0    0 -0.32556619543E+02 -0.13785115331E+02 -0.57027331768E+02  0.67097536835E+02  0.00000000000E+00 0.  1.
         11    1    4    4    0    0  0.57845043027E+02 -0.71634743403E+02 -0.13177424026E+03  0.16075458270E+03  0.00000000000E+00 0. -1.
        -11    1    3    3    0    0 -0.46737554358E+02  0.17930809035E+02 -0.80606126560E+02  0.94885512799E+02  0.00000000000E+00 0.  1.
         11    1    3    3    0    0  0.37388635468E+02 -0.14325581129E+02 -0.35360932779E+02  0.53418422888E+02  0.00000000000E+00 0. -1.
          1    1    1    2  501    0 -0.15939504593E+02  0.81814630828E+02 -0.31617062933E+02  0.89147856355E+02  0.00000000000E+00 0. -1.
<scales pt_clust_5="13000.00000" pt_clust_6="13000.00000" pt_clust_7="13000.00000" pt_clust_8="13000.00000" pt_clust_9="83.35287"></scales>
<clustering>
<clus scale="   83.353">  1  9  2 -1</clus>
<clus scale="   91.293">  5  6 -1 -1</clus>
<clus scale="   91.898">  7  8 -1 -1</clus>
<clus scale="  101.305">  1  5  2 -1</clus>
<clus scale="   83.353">  1  5  2 -1</clus>
</clustering>
</event>
<event>
 9    1  0.1610296E-005  0.9855066E+02  0.7546771E-02  0.1283811E+00
          1   -1    0    0  502    0 -0.00000000000E+00  0.00000000000E+00  0.14633056580E+03  0.14633056580E+03  0.00000000000E+00 0. -1.
         21   -1    0    0  501  502  0.00000000000E+00 -0.00000000000E+00 -0.28174856204E+03  0.28174856204E+03  0.00000000000E+00 0.  1.
         23    2    1    2    0    0 -0.28631965462E+02 -0.11025336864E+02  0.97705763708E+02  0.13730767383E+03  0.91463837282E+02 0.  0.
         23    2    1    2    0    0  0.68294442252E+02  0.34502872631E+02 -0.20279945415E+03  0.23560017278E+03  0.92332246517E+02 0.  0.
        -13    1    4    4    0    0 -0.20678807402E+02  0.18928618529E+02 -0.33247454013E+02  0.43489066135E+02  0.00000000000E+00 0. -1.
         13    1    4    4    0    0  0.88973249653E+02  0.15574254102E+02 -0.16955200014E+03  0.19211110665E+03  0.00000000000E+00 0.  1.
        -13    1    3    3    0    0  0.20545496108E+02  0.24028562317E+02  0.15248218668E+02  0.35099820368E+02  0.00000000000E+00 0.  1.
         13    1    3    3    0    0 -0.49177461570E+02 -0.35053899181E+02  0.82457545040E+02  0.10220785346E+03  0.00000000000E+00 0. -1.
          1    1    1    2  501    0 -0.39662476790E+02 -0.23477535767E+02 -0.30324305797E+02  0.55171281233E+02  0.00000000000E+00 0. -1.
<scales pt_clust_5="13000.00000" pt_clust_6="13000.00000" pt_clust_7="13000.00000" pt_clust_8="13000.00000" pt_clust_9="46.09020"></scales>
<clustering>
<clus scale="   46.090">  2  9  1 -1</clus>
<clus scale="   91.464">  7  8 -1 -1</clus>
<clus scale="   92.332">  5  6 -1 -1</clus>
<clus scale="   97.738">  1  7  2 -1</clus>
<clus scale="   46.090">  2  5  1 -1</clus>
</clustering>
</event>
<event>
 9    1  0.1610296E-005  0.2097587E+03  0.7546771E-02  0.1141837E+00
         21   -1    0    0  501  502  0.00000000000E+00  0.00000000000E+00  0.11755134506E+03  0.11755134506E+03  0.00000000000E+00 0.  1.
         -3   -1    0    0    0  501 -0.00000000000E+00 -0.00000000000E+00 -0.79657680128E+03  0.79657680128E+03  0.00000000000E+00 0.  1.
         23    2    1    2    0    0 -0.15483477280E+03  0.93693677030E+01 -0.31456681171E+03  0.36271458103E+03  0.92455374878E+02 0.  0.
         23    2    1    2    0    0  0.25361798101E+03  0.39157717284E+02 -0.34505715599E+03  0.43965750079E+03  0.91536167617E+02 0.  0.
        -13    1    3    3    0    0 -0.15117012846E+03 -0.17883288354E+02 -0.25262399955E+03  0.29494254507E+03  0.00000000000E+00 0. -1.
         13    1    3    3    0    0 -0.36646443332E+01  0.27252656057E+02 -0.61942812155E+02  0.67772035958E+02  0.00000000000E+00 0.  1.
        -13    1    4    4    0    0  0.19410605305E+03  0.67077450199E+02 -0.27930897268E+03  0.34668436131E+03  0.00000000000E+00 0.  1.
         13    1    4    4    0    0  0.59511927958E+02 -0.27919732916E+02 -0.65748183307E+02  0.92973139473E+02  0.00000000000E+00 0. -1.
         -3    1    1    2    0  502 -0.98783208217E+02 -0.48527084987E+02 -0.19401488517E+02  0.11175606453E+03  0.00000000000E+00 0.  1.
<scales pt_clust_5="13000.00000" pt_clust_6="13000.00000" pt_clust_7="13000.00000" pt_clust_8="13000.00000" pt_clust_9="110.05908"></scales>
<clustering>
<clus scale="   91.536">  7  8 -1 -1</clus>
<clus scale="   92.455">  5  6 -1 -1</clus>
<clus scale="  110.059">  1  9  2 -1</clus>
<clus scale="  209.355">  1  7  2 -1</clus>
<clus scale="  110.059">  1  5  2 -1</clus>
</clustering>
</event>
<event>
 9    1  0.1610296E-005  0.1016991E+03  0.7546771E-02  0.1277732E+00
          1   -1    0    0  502    0 -0.00000000000E+00  0.00000000000E+00  0.21478351090E+03  0.21478351090E+03  0.00000000000E+00 0. -1.
         21   -1    0    0  501  502  0.00000000000E+00 -0.00000000000E+00 -0.15019523554E+03  0.15019523554E+03  0.00000000000E+00 0. -1.
         23    2    1    2    0    0 -0.34923874104E+02  0.27982354585E+02  0.98281480747E+02  0.14023113427E+03  0.89458551359E+02 0.  0.
         23    2    1    2    0    0  0.20031469911E+02 -0.41790062255E+02  0.66665267054E+02  0.12235493917E+03  0.91535808393E+02 0.  0.
        -11    1    3    3    0    0 -0.40005656803E+02 -0.11811945970E+02  0.90100745123E+02  0.99288060287E+02  0.00000000000E+00 0. -1.
         11    1    3    3    0    0  0.50817826994E+01  0.39794300555E+02  0.81807356243E+01  0.40943073986E+02  0.00000000000E+00 0.  1.
        -11    1    4    4    0    0  0.42228516335E+02 -0.99947711101E+01 -0.20607905565E+01  0.43444100856E+02  0.00000000000E+00 0.  1.
         11    1    4    4    0    0 -0.22197046425E+02 -0.31795291145E+02  0.68726057611E+02  0.78910838315E+02  0.00000000000E+00 0. -1.
          1    1    1    2  501    0  0.14892404193E+02  0.13807707670E+02 -0.10035847243E+03  0.10239267299E+03  0.00000000000E+00 0. -1.
<scales pt_clust_5="13000.00000" pt_clust_6="13000.00000" pt_clust_7="13000.00000" pt_clust_8="13000.00000" pt_clust_9="20.30853"></scales>
<clustering>
<clus scale="   20.309">  2  9  1 -1</clus>
<clus scale="   89.459">  5  6 -1 -1</clus>
<clus scale="   91.536">  7  8 -1 -1</clus>
<clus scale="   99.834">  1  5  2 -1</clus>
<clus scale="   20.309">  2  5  1 -1</clus>
</clustering>
</event>
<event>
 9    1  0.1610296E-005  0.1591673E+03  0.7546771E-02  0.1189824E+00
          1   -1    0    0  502    0 -0.00000000000E+00  0.00000000000E+00  0.96993630023E+03  0.96993630023E+03  0.00000000000E+00 0. -1.
         21   -1    0    0  501  502  0.00000000000E+00 -0.00000000000E+00 -0.15230623392E+03  0.15230623392E+03  0.00000000000E+00 0. -1.
         23    2    1    2    0    0  0.11052054405E+03 -0.99229619042E+02  0.67773238606E+03  0.70003984101E+03  0.93130467270E+02 0.  0.
         23    2    1    2    0    0 -0.52880997708E+02  0.87319847385E+02  0.25683086434E+03  0.29129230584E+03  0.92021513239E+02 0.  0.
        -11    1    4    4    0    0 -0.77162608440E+02  0.65972001260E+02  0.16281672933E+03  0.19187407444E+03  0.00000000000E+00 0.  1.
         11    1    4    4    0    0  0.24281610732E+02  0.21347846125E+02  0.94014135004E+02  0.99418231399E+02  0.00000000000E+00 0. -1.
        -11    1    3    3    0    0 -0.16842602267E+02 -0.15172352497E+02  0.93001486570E+02  0.95724344007E+02  0.00000000000E+00 0.  1.
         11    1    3    3    0    0  0.12736314631E+03 -0.84057266544E+02  0.58473089949E+03  0.60431549701E+03  0.00000000000E+00 0. -1.
          1    1    1    2  501    0 -0.57639546338E+02  0.11909771657E+02 -0.11693318409E+03  0.13091038730E+03  0.00000000000E+00 0. -1.
<scales pt_clust_5="13000.00000" pt_clust_6="13000.00000" pt_clust_7="13000.00000" pt_clust_8="13000.00000" pt_clust_9="58.85711"></scales>
<clustering>
<clus scale="   58.857">  2  9  1 -1</clus>
<clus scale="   92.022">  5  6 -1 -1</clus>
<clus scale="   93.130">  7  8 -1 -1</clus>
<clus scale="  158.521">  2  5  1 -1</clus>
<clus scale="   58.857">  2  5  1 -1</clus>
</clustering>
</event>
<event>
 9    1  0.1610296E-005  0.1308689E+03  0.7546771E-02  0.1234952E+00
         21   -1    0    0  501  502  0.00000000000E+00  0.00000000000E+00  0.20233573368E+03  0.20233573368E+03  0.00000000000E+00 0.  1.
          3   -1    0    0  502    0 -0.00000000000E+00 -0.00000000000E+00 -0.15711777682E+03  0.15711777682E+03  0.00000000000E+00 0. -1.
         23    2    1    2    0    0  0.59059910231E+02  0.22999107245E+02 -0.61377072305E+02  0.12703301520E+03  0.91395897155E+02 0.  0.
         23    2    1    2    0    0 -0.57005008349E+02  0.97575397538E+01  0.99907234316E+01  0.13039298709E+03  0.11643769136E+03 0.  0.
        -11    1    4    4    0    0 -0.53225499474E+02  0.58868123799E+02  0.15393922511E+02  0.80841713516E+02  0.00000000000E+00 0.  1.
         11    1    4    4    0    0 -0.37795088746E+01 -0.49110584046E+02 -0.54031990796E+01  0.49551273575E+02  0.00000000000E+00 0. -1.
        -13    1    3    3    0    0  0.12302815492E+02  0.53827709517E+02 -0.30592252873E+02  0.63124222900E+02  0.00000000000E+00 0.  1.
         13    1    3    3    0    0  0.46757094739E+02 -0.30828602272E+02 -0.30784819431E+02  0.63908792305E+02  0.00000000000E+00 0. -1.
          3    1    1    2  501    0 -0.20549018819E+01 -0.32756646999E+02  0.96604305731E+02  0.10202750820E+03  0.00000000000E+00 0. -1.
<scales pt_clust_5="13000.00000" pt_clust_6="13000.00000" pt_clust_7="13000.00000" pt_clust_8="13000.00000" pt_clust_9="32.82104"></scales>
<clustering>
<clus scale="   32.821">  1  9  2 -1</clus>
<clus scale="   91.396">  7  8 -1 -1</clus>
<clus scale="  109.189">  2  7  1 -1</clus>
<clus scale="  116.438">  5  6 -1 -1</clus>
<clus scale="   32.821">  1  5  2 -1</clus>
</clustering>
</event>
<event>
 9    1  0.1610296E-005  0.1112058E+03  0.7546771E-02  0.1258696E+00
         21   -1    0    0  501  502  0.00000000000E+00  0.00000000000E+00  0.81543233995E+02  0.81543233995E+02  0.00000000000E+00 0.  1.
          2   -1    0    0  502    0 -0.00000000000E+00 -0.00000000000E+00 -0.20960738527E+03  0.20960738527E+03  0.00000000000E+00 0. -1.
         23    2    1    2    0    0  0.17360480947E+02  0.45421916956E+02 -0.39030529688E+02  0.10943658818E+03  0.89935797917E+02 0.  0.
         23    2    1    2    0    0 -0.34359808396E+02 -0.74064860266E+02 -0.54568865521E+02  0.13378476293E+03  0.90853738215E+02 0.  0.
        -11    1    3    3    0    0  0.42477370554E+02  0.58616451454E+02 -0.36165192266E+02  0.80920556856E+02  0.00000000000E+00 0. -1.
         11    1    3    3    0    0 -0.25116889607E+02 -0.13194534498E+02 -0.28653374220E+01  0.28516031328E+02  0.00000000000E+00 0.  1.
        -13    1    4    4    0    0  0.17167866755E+02 -0.18851067581E+02  0.16264064078E+02  0.30242654946E+02  0.00000000000E+00 0.  1.
         13    1    4    4    0    0 -0.51527675151E+02 -0.55213792686E+02 -0.70832929600E+02  0.10354210798E+03  0.00000000000E+00 0. -1.
          2    1    1    2  501    0  0.16999327449E+02  0.28642943311E+02 -0.34464756066E+02  0.47929268155E+02  0.00000000000E+00 0. -1.
<scales pt_clust_5="13000.00000" pt_clust_6="13000.00000" pt_clust_7="13000.00000" pt_clust_8="13000.00000" pt_clust_9="33.30760"></scales>
<clustering>
<clus scale="   33.308">  1  9  2 -1</clus>
<clus scale="   89.936">  5  6 -1 -1</clus>
<clus scale="   90.854">  7  8 -1 -1</clus>
<clus scale="  110.457">  2  5  1 -1</clus>
<clus scale="   33.308">  1  5  2 -1</clus>
</clustering>
</event>
<event>
 9    1  0.1610296E-005  0.2666885E+03  0.7546771E-02  0.1103351E+00
         21   -1    0    0  501  502  0.00000000000E+00  0.00000000000E+00  0.25782847128E+03  0.25782847128E+03  0.00000000000E+00 0. -1.
          1   -1    0    0  502    0 -0.00000000000E+00 -0.00000000000E+00 -0.85271069867E+03  0.85271069867E+03  0.00000000000E+00 0. -1.
         23    2    1    2    0    0 -0.24122028172E+03 -0.94621513858E+02 -0.62926049848E+03  0.68671897947E+03  0.92052846876E+02 0.  0.
         23    2    1    2    0    0  0.20492258640E+03  0.97763332187E+02 -0.11536107422E+03  0.26971222429E+03  0.88800737322E+02 0.  0.
        -13    1    4    4    0    0  0.81001147201E+01  0.30580652299E+02 -0.33863961548E+02  0.46341731142E+02  0.00000000000E+00 0. -1.
         13    1    4    4    0    0  0.19682247168E+03  0.67182679888E+02 -0.81497112673E+02  0.22337049315E+03  0.00000000000E+00 0.  1.
        -13    1    3    3    0    0 -0.62576602320E+02  0.15781325424E+02 -0.13199550423E+03  0.14692751453E+03  0.00000000000E+00 0.  1.
         13    1    3    3    0    0 -0.17864367940E+03 -0.11040283928E+03 -0.49726499425E+03  0.53979146494E+03  0.00000000000E+00 0. -1.
          1    1    1    2  501    0  0.36297695322E+02 -0.31418183283E+01  0.14973934531E+03  0.15410796618E+03  0.00000000000E+00 0. -1.
<scales pt_clust_5="13000.00000" pt_clust_6="13000.00000" pt_clust_7="13000.00000" pt_clust_8="13000.00000" pt_clust_9="36.43341"></scales>
<clustering>
<clus scale="   36.433">  1  9  2 -1</clus>
<clus scale="   88.801">  5  6 -1 -1</clus>
<clus scale="   92.053">  7  8 -1 -1</clus>
<clus scale="  265.583">  1  5  2 -1</clus>
<clus scale="   36.433">  1  5  2 -1</clus>
</clustering>
</event>
<event>
 9    1  0.1610296E-005  0.1287024E+03  0.7546771E-02  0.1230084E+00
          1   -1    0    0  502    0 -0.00000000000E+00  0.00000000000E+00  0.12398069582E+03  0.12398069582E+03  0.00000000000E+00 0. -1.
         21   -1    0    0  501  502  0.00000000000E+00 -0.00000000000E+00 -0.18409242203E+03  0.18409242203E+03  0.00000000000E+00 0.  1.
         23    2    1    2    0    0  0.81121222262E+02  0.63995350805E+02  0.14332256104E+02  0.13581588430E+03  0.86974037715E+02 0.  0.
         23    2    1    2    0    0 -0.66166504976E+02 -0.33583285286E+02 -0.74890779287E+02  0.13836421176E+03  0.89611287479E+02 0.  0.
        -11    1    4    4    0    0 -0.46689975800E+02 -0.98754984605E+01 -0.91703217610E+02  0.10337775114E+03  0.00000000000E+00 0.  1.
         11    1    4    4    0    0 -0.19476529177E+02 -0.23707786826E+02  0.16812438323E+02  0.34986460629E+02  0.00000000000E+00 0. -1.
        -13    1    3    3    0    0  0.44216437308E+02 -0.15757495257E+02  0.88508914860E+01  0.47767460317E+02  0.00000000000E+00 0.  1.
         13    1    3    3    0    0  0.36904784954E+02  0.79752846061E+02  0.54813646177E+01  0.88048423981E+02  0.00000000000E+00 0. -1.
          1    1    1    2  501    0 -0.14954717286E+02 -0.30412065519E+02  0.44679696957E+00  0.33893021785E+02  0.00000000000E+00 0. -1.
<scales pt_clust_5="13000.00000" pt_clust_6="13000.00000" pt_clust_7="13000.00000" pt_clust_8="13000.00000" pt_clust_9="33.89009"></scales>
<clustering>
<clus scale="   33.890">  2  9  1 -1</clus>
<clus scale="   86.974">  7  8 -1 -1</clus>
<clus scale="   89.611">  5  6 -1 -1</clus>
<clus scale="  126.880">  1  7  2 -1</clus>
<clus scale="   33.890">  2  5  1 -1</clus>
</clustering>
</event>
<event>
 9    1  0.1610296E-005  0.1228569E+03  0.7546771E-02  0.1239566E+00
          1   -1    0    0  502    0 -0.00000000000E+00  0.00000000000E+00  0.21385054600E+03  0.21385054600E+03  0.00000000000E+00 0. -1.
         21   -1    0    0  501  502  0.00000000000E+00 -0.00000000000E+00 -0.10552422918E+03  0.10552422918E+03  0.00000000000E+00 0. -1.
         23    2    1    2    0    0 -0.49280727115E+02 -0.65318315042E+02  0.12030303211E+03  0.17417659746E+03  0.95758003444E+02 0.  0.
         23    2    1    2    0    0  0.23733521047E+02  0.64838930533E+02  0.36299932413E+01  0.11525725424E+03  0.92215458957E+02 0.  0.
        -11    1    4    4    0    0 -0.23045075619E+02 -0.20675279163E+00  0.23285436004E+02  0.32761712209E+02  0.00000000000E+00 0. -1.
         11    1    4    4    0    0  0.46778596666E+02  0.65045683325E+02 -0.19655442763E+02  0.82495542033E+02  0.00000000000E+00 0.  1.
        -13    1    3    3    0    0 -0.47970735880E+02  0.18821559760E+01  0.86529822478E+02  0.98955263580E+02  0.00000000000E+00 0. -1.
         13    1    3    3    0    0 -0.13099912343E+01 -0.67200471018E+02  0.33773209631E+02  0.75221333881E+02  0.00000000000E+00 0.  1.
          1    1    1    2  501    0  0.25547206068E+02  0.47938450928E+00 -0.15606708535E+02  0.29940923477E+02  0.00000000000E+00 0. -1.
<scales pt_clust_5="13000.00000" pt_clust_6="13000.00000" pt_clust_7="13000.00000" pt_clust_8="13000.00000" pt_clust_9="25.55170"></scales>
<clustering>
<clus scale="   25.552">  2  9  1 -1</clus>
<clus scale="   92.215">  5  6 -1 -1</clus>
<clus scale="   95.758">  7  8 -1 -1</clus>
<clus scale="  120.116">  2  5  1 -1</clus>
<clus scale="   25.552">  2  5  1 -1</clus>
</clustering>
</event>
<event>
 9    1  0.1610296E-005  0.1649566E+03  0.7546771E-02  0.1204335E+00
         21   -1    0    0  501  502  0.00000000000E+00  0.00000000000E+00  0.11274455827E+04  0.11274455827E+04  0.00000000000E+00 0. -1.
          1   -1    0    0  502    0 -0.00000000000E+00 -0.00000000000E+00 -0.54555116911E+02  0.54555116911E+02  0.00000000000E+00 0. -1.
         23    2    1    2    0    0 -0.35120496509E+02  0.33206200081E+02  0.53218123346E+02  0.11659975585E+03  0.91799964129E+02 0.  0.
         23    2    1    2    0    0  0.15158508407E+03 -0.64365566155E+02  0.67413388749E+03  0.69943410086E+03  0.87353301983E+02 0.  0.
        -11    1    3    3    0    0 -0.62799124900E+02  0.27211816449E+02  0.16812736125E+02  0.70476103316E+02  0.00000000000E+00 0. -1.
         11    1    3    3    0    0  0.27678628391E+02  0.59943836311E+01  0.36405387221E+02  0.46123652538E+02  0.00000000000E+00 0.  1.
        -13    1    4    4    0    0  0.14758878105E+03 -0.28486362878E+02  0.54535774524E+03  0.56569337229E+03  0.00000000000E+00 0. -1.
         13    1    4    4    0    0  0.39963030188E+01 -0.35879203277E+02  0.12877614226E+03  0.13374072858E+03  0.00000000000E+00 0.  1.
          1    1    1    2  501    0 -0.11646458756E+03  0.31159366074E+02  0.34553845499E+03  0.36596684294E+03  0.00000000000E+00 0. -1.
<scales pt_clust_5="13000.00000" pt_clust_6="13000.00000" pt_clust_7="13000.00000" pt_clust_8="13000.00000" pt_clust_9="139.92889"></scales>
<clustering>
<clus scale="   87.353">  7  8 -1 -1</clus>
<clus scale="   91.800">  5  6 -1 -1</clus>
<clus scale="  103.746">  2  5  1 -1</clus>
<clus scale="  139.929">  1  9  2 -1</clus>
<clus scale="  139.929">  1  5  2 -1</clus>
</clustering>
</event>
<event>
 9    1  0.1610296E-005  0.2109738E+03  0.7546771E-02  0.1140801E+00
         21   -1    0    0  501  502  0.00000000000E+00  0.00000000000E+00  0.98012863176E+02  0.98012863176E+02  0.00000000000E+00 0. -1.
          1   -1    0    0  502    0 -0.00000000000E+00 -0.00000000000E+00 -0.69299343004E+03  0.69299343004E+03  0.00000000000E+00 0. -1.
         23    2    1    2    0    0 -0.95279830068E+02  0.15978103303E+03 -0.32063479794E+03  0.38000203633E+03  0.83586179652E+02 0.  0.
         23    2    1    2    0    0  0.16601299842E+03 -0.13497175603E+03 -0.22311688365E+03  0.32021284751E+03  0.83531032389E+02 0.  0.
        -11    1    3    3    0    0  0.27667060464E+00  0.60692042275E+02 -0.60537284847E+02  0.85722595614E+02  0.00000000000E+00 0.  1.
         11    1    3    3    0    0 -0.95556500672E+02  0.99088990759E+02 -0.26009751309E+03  0.29427944071E+03  0.00000000000E+00 0. -1.
        -13    1    4    4    0    0  0.12797754979E+03 -0.87797898932E+02 -0.10476526471E+03  0.18724979305E+03  0.00000000000E+00 0. -1.
         13    1    4    4    0    0  0.38035448625E+02 -0.47173857097E+02 -0.11835161894E+03  0.13296305446E+03  0.00000000000E+00 0.  1.
          1    1    1    2  501    0 -0.70733168351E+02 -0.24809277005E+02 -0.51228885277E+02  0.90791409380E+02  0.00000000000E+00 0. -1.
<scales pt_clust_5="13000.00000" pt_clust_6="13000.00000" pt_clust_7="13000.00000" pt_clust_8="13000.00000" pt_clust_9="74.95786"></scales>
<clustering>
<clus scale="   74.958">  1  9  2 -1</clus>
<clus scale="   83.531">  7  8 -1 -1</clus>
<clus scale="   83.586">  5  6 -1 -1</clus>
<clus scale="  210.952">  1  7  2 -1</clus>
<clus scale="   74.958">  1  5  2 -1</clus>
</clustering>
</event>
<event>
 9    1  0.1610296E-005  0.1433577E+03  0.7546771E-02  0.1209225E+00
          2   -1    0    0  502    0 -0.00000000000E+00  0.00000000000E+00  0.57295407223E+03  0.57295407223E+03  0.00000000000E+00 0. -1.
         21   -1    0    0  501  502  0.00000000000E+00 -0.00000000000E+00 -0.10451927103E+03  0.10451927103E+03  0.00000000000E+00 0.  1.
         23    2    1    2    0    0 -0.13956277704E+02 -0.10986325283E+03  0.38853142699E+03  0.41377568300E+03  0.89380837279E+02 0.  0.
         23    2    1    2    0    0 -0.18137601669E+02  0.11255563219E+03  0.13571323434E+03  0.19926159514E+03  0.91045913639E+02 0.  0.
        -11    1    3    3    0    0 -0.41428584816E+02 -0.59520220537E+02  0.29728728251E+03  0.30600443238E+03  0.00000000000E+00 0. -1.
         11    1    3    3    0    0  0.27472307112E+02 -0.50343032295E+02  0.91244144481E+02  0.10777125062E+03  0.00000000000E+00 0.  1.
        -11    1    4    4    0    0  0.26999497242E+02  0.67155356898E+02  0.36183480363E+02  0.80920078242E+02  0.00000000000E+00 0.  1.
         11    1    4    4    0    0 -0.45137098911E+02  0.45400275287E+02  0.99529753977E+02  0.11834151690E+03  0.00000000000E+00 0. -1.
          2    1    1    2  501    0  0.32093879373E+02 -0.26923793528E+01 -0.55809860133E+02  0.64436065117E+02  0.00000000000E+00 0. -1.
<scales pt_clust_5="13000.00000" pt_clust_6="13000.00000" pt_clust_7="13000.00000" pt_clust_8="13000.00000" pt_clust_9="32.20661"></scales>
<clustering>
<clus scale="   32.207">  2  9  1 -1</clus>
<clus scale="   89.381">  5  6 -1 -1</clus>
<clus scale="   91.046">  7  8 -1 -1</clus>
<clus scale="  142.306">  1  5  2 -1</clus>
<clus scale="   32.207">  2  5  1 -1</clus>
</clustering>
</event>
<event>
 9    1  0.1610296E-005  0.1175897E+03  0.7546771E-02  0.1247599E+00
         21   -1    0    0  501  502  0.00000000000E+00  0.00000000000E+00  0.21594480718E+03  0.21594480718E+03  0.00000000000E+00 0.  1.
         -1   -1    0    0    0  501 -0.00000000000E+00 -0.00000000000E+00 -0.17495063980E+03  0.17495063980E+03  0.00000000000E+00 0.  1.
         23    2    1    2    0    0  0.20614801428E+02  0.75905429110E+02 -0.78096608123E+02  0.14496918440E+03  0.93436502601E+02 0.  0.
         23    2    1    2    0    0  0.34469036617E+02 -0.63275257826E+02  0.31319980558E+01  0.11692940794E+03  0.92036972416E+02 0.  0.
        -13    1    4    4    0    0 -0.10682039891E+02 -0.56447416201E+02  0.29098703478E+02  0.64398379763E+02  0.00000000000E+00 0. -1.
         13    1    4    4    0    0  0.45151076508E+02 -0.68278416251E+01 -0.25966705422E+02  0.52531028179E+02  0.00000000000E+00 0.  1.
        -13    1    3    3    0    0  0.51769571262E+02  0.17059630270E+02 -0.44626637440E+02  0.70446123121E+02  0.00000000000E+00 0. -1.
         13    1    3    3    0    0 -0.31154769834E+02  0.58845798840E+02 -0.33469970683E+02  0.74523061277E+02  0.00000000000E+00 0.  1.
         -1    1    1    2    0  502 -0.55083838045E+02 -0.12630171284E+02  0.11595877745E+03  0.12899685464E+03  0.00000000000E+00 0.  1.
<scales pt_clust_5="13000.00000" pt_clust_6="13000.00000" pt_clust_7="13000.00000" pt_clust_8="13000.00000" pt_clust_9="56.51328"></scales>
<clustering>
<clus scale="   56.513">  1  9  2 -1</clus>
<clus scale="   92.037">  5  6 -1 -1</clus>
<clus scale="   93.437">  7  8 -1 -1</clus>
<clus scale="  116.481">  1  5  2 -1</clus>
<clus scale="   56.513">  1  5  2 -1</clus>
</clustering>
</event>
<event>
 9    1  0.1610296E-005  0.1071410E+03  0.7546771E-02  0.1266094E+00
          2   -1    0    0  502    0 -0.00000000000E+00  0.00000000000E+00  0.67029048963E+02  0.67029048963E+02  0.00000000000E+00 0. -1.
         21   -1    0    0  501  502  0.00000000000E+00 -0.00000000000E+00 -0.27334372314E+03  0.27334372314E+03  0.00000000000E+00 0. -1.
         23    2    1    2    0    0  0.29214539495E+02 -0.29143658976E+02 -0.55342545756E+02  0.11512340919E+03  0.92129038835E+02 0.  0.
         23    2    1    2    0    0 -0.41972410744E+02  0.56186595895E+02 -0.61418942642E+02  0.13083613927E+03  0.91799738567E+02 0.  0.
        -11    1    4    4    0    0 -0.59796926423E+02  0.58054703545E+01 -0.44557173612E+02  0.74797844996E+02  0.00000000000E+00 0. -1.
         11    1    4    4    0    0  0.17824515679E+02  0.50381125541E+02 -0.16861769030E+02  0.56038294271E+02  0.00000000000E+00 0.  1.
        -13    1    3    3    0    0  0.42229584855E+02 -0.55620742380E+02 -0.29164157620E+02  0.75680597974E+02  0.00000000000E+00 0. -1.
         13    1    3    3    0    0 -0.13015045360E+02  0.26477083405E+02 -0.26178388136E+02  0.39442811217E+02  0.00000000000E+00 0.  1.
          2    1    1    2  501    0  0.12757871249E+02 -0.27042936919E+02 -0.89553185783E+02  0.94413223649E+02  0.00000000000E+00 0. -1.
<scales pt_clust_5="13000.00000" pt_clust_6="13000.00000" pt_clust_7="13000.00000" pt_clust_8="13000.00000" pt_clust_9="29.90123"></scales>
<clustering>
<clus scale="   29.901">  2  9  1 -1</clus>
<clus scale="   91.800">  5  6 -1 -1</clus>
<clus scale="   92.129">  7  8 -1 -1</clus>
<clus scale="  106.858">  2  5  1 -1</clus>
<clus scale="   29.901">  2  5  1 -1</clus>
</clustering>
</event>
<event>
 9    1  0.1610296E-005  0.1126261E+03  0.7546771E-02  0.1255796E+00
         21   -1    0    0  501  502  0.00000000000E+00  0.00000000000E+00  0.96985222882E+02  0.96985222882E+02  0.00000000000E+00 0. -1.
          4   -1    0    0  502    0 -0.00000000000E+00 -0.00000000000E+00 -0.20737720917E+03  0.20737720917E+03  0.00000000000E+00 0. -1.
         23    2    1    2    0    0 -0.76495310820E+02 -0.30529682148E+01 -0.97536890708E+02  0.15488234184E+03  0.92812938601E+02 0.  0.
         23    2    1    2    0    0  0.43950280982E+02 -0.21751358454E+02 -0.22616315248E+02  0.10741210954E+03  0.92849958357E+02 0.  0.
        -13    1    4    4    0    0  0.36623233363E+02  0.12955069866E+02 -0.49486242840E+02  0.62912505018E+02  0.00000000000E+00 0.  1.
         13    1    4    4    0    0  0.73270476194E+01 -0.34706428320E+02  0.26869927592E+02  0.44499604519E+02  0.00000000000E+00 0. -1.
        -13    1    3    3    0    0 -0.54869844564E+01 -0.34599357999E+02 -0.72674145242E+01  0.35777617113E+02  0.00000000000E+00 0. -1.
         13    1    3    3    0    0 -0.71008326364E+02  0.31546389784E+02 -0.90269476184E+02  0.11910472473E+03  0.00000000000E+00 0.  1.
          4    1    1    2  501    0  0.32545029838E+02  0.24804326669E+02  0.97612196702E+01  0.42067980675E+02  0.00000000000E+00 0. -1.
<scales pt_clust_5="13000.00000" pt_clust_6="13000.00000" pt_clust_7="13000.00000" pt_clust_8="13000.00000" pt_clust_9="40.91984"></scales>
<clustering>
<clus scale="   40.920">  1  9  2 -1</clus>
<clus scale="   92.813">  7  8 -1 -1</clus>
<clus scale="   92.850">  5  6 -1 -1</clus>
<clus scale="  112.596">  2  7  1 -1</clus>
<clus scale="   40.920">  1  5  2 -1</clus>
</clustering>
</event>
<event>
 9    1  0.1610296E-005  0.9792003E+02  0.7546771E-02  0.1284829E+00
         21   -1    0    0  501  502  0.00000000000E+00  0.00000000000E+00  0.50925499963E+03  0.50925499963E+03  0.00000000000E+00 0. -1.
          2   -1    0    0  502    0 -0.00000000000E+00 -0.00000000000E+00 -0.32209247442E+02  0.32209247442E+02  0.00000000000E+00 0. -1.
         23    2    1    2    0    0 -0.13098624904E+02  0.48661247860E+02  0.11448266528E+03  0.15476891822E+03  0.91146291098E+02 0.  0.
         23    2    1    2    0    0  0.37944187865E+01 -0.73238397059E+01  0.23400789073E+03  0.25133732934E+03  0.91338513001E+02 0.  0.
        -11    1    3    3    0    0  0.24196678758E+02 -0.16277973826E+02  0.29085606470E+02  0.41187670467E+02  0.00000000000E+00 0.  1.
         11    1    3    3    0    0 -0.37295303662E+02  0.64939221686E+02  0.85397058806E+02  0.11358124775E+03  0.00000000000E+00 0. -1.
        -11    1    4    4    0    0  0.39912123894E+02 -0.16295093207E+02  0.18410849755E+03  0.18908846228E+03  0.00000000000E+00 0.  1.
         11    1    4    4    0    0 -0.36117705107E+02  0.89712535008E+01  0.49899393176E+02  0.62248867065E+02  0.00000000000E+00 0. -1.
          2    1    1    2  501    0  0.93042061172E+01 -0.41337408154E+02  0.12855519618E+03  0.13535799950E+03  0.00000000000E+00 0. -1.
<scales pt_clust_5="13000.00000" pt_clust_6="13000.00000" pt_clust_7="13000.00000" pt_clust_8="13000.00000" pt_clust_9="42.37157"></scales>
<clustering>
<clus scale="   42.372">  1  9  2 -1</clus>
<clus scale="   91.146">  5  6 -1 -1</clus>
<clus scale="   91.339">  7  8 -1 -1</clus>
<clus scale="   97.741">  2  5  1 -1</clus>
<clus scale="   42.372">  1  5  2 -1</clus>
</clustering>
</event>
<event>
 9    1  0.1610296E-005  0.1199386E+03  0.7546771E-02  0.1244114E+00
          1   -1    0    0  502    0 -0.00000000000E+00  0.00000000000E+00  0.43924239072E+03  0.43924239072E+03  0.00000000000E+00 0. -1.
         21   -1    0    0  501  502  0.00000000000E+00 -0.00000000000E+00 -0.13039491617E+03  0.13039491617E+03  0.00000000000E+00 0. -1.
         23    2    1    2    0    0  0.75519245794E+02 -0.40042381067E+02  0.16112307738E+03  0.20431607077E+03  0.92075305840E+02 0.  0.
         23    2    1    2    0    0 -0.66407896440E+02 -0.79549681533E+02  0.19204913208E+03  0.23745427303E+03  0.93613578643E+02 0.  0.
        -13    1    4    4    0    0 -0.75279378280E+02 -0.18445777010E+02  0.97937661456E+02  0.12489602482E+03  0.00000000000E+00 0.  1.
         13    1    4    4    0    0  0.88714818391E+01 -0.61103904523E+02  0.94111470625E+02  0.11255824821E+03  0.00000000000E+00 0. -1.
        -13    1    3    3    0    0  0.19425033016E+02 -0.59158125601E+02  0.56520780844E+02  0.84092891492E+02  0.00000000000E+00 0.  1.
         13    1    3    3    0    0  0.56094212777E+02  0.19115744534E+02  0.10460229653E+03  0.12022317928E+03  0.00000000000E+00 0. -1.
          1    1    1    2  501    0 -0.91113493535E+01  0.11959206260E+03 -0.44324734907E+02  0.12786696309E+03  0.00000000000E+00 0. -1.
<scales pt_clust_5="13000.00000" pt_clust_6="13000.00000" pt_clust_7="13000.00000" pt_clust_8="13000.00000" pt_clust_9="119.93864"></scales>
<clustering>
<clus scale="   92.075">  7  8 -1 -1</clus>
<clus scale="   93.614">  5  6 -1 -1</clus>
<clus scale="  119.939">  2  9  1 -1</clus>
<clus scale="  117.743">  1  7  2 -1</clus>
<clus scale="  119.939">  2  5  1 -1</clus>
</clustering>
</event>
<event>
 9    1  0.1610296E-005  0.3167003E+03  0.7546771E-02  0.1077208E+00
          1   -1    0    0  502    0 -0.00000000000E+00  0.00000000000E+00  0.88378010825E+03  0.88378010825E+03  0.00000000000E+00 0. -1.
         21   -1    0    0  501  502  0.00000000000E+00 -0.00000000000E+00 -0.18514876182E+03  0.18514876182E+03  0.00000000000E+00 0.  1.
         23    2    1    2    0    0 -0.57889813576E+00  0.29696858286E+03  0.47923321604E+03  0.57108448584E+03  0.91007363900E+02 0.  0.
         23    2    1    2    0    0  0.38635641686E+02 -0.32151483607E+03  0.72146350997E+02  0.34378621076E+03  0.90107492069E+02 0.  0.
        -11    1    4    4    0    0  0.20517803392E+00 -0.25617616284E+03  0.32464356380E+02  0.25822510130E+03  0.00000000000E+00 0.  1.
         11    1    4    4    0    0  0.38430463653E+02 -0.65338673229E+02  0.39681994617E+02  0.85561109463E+02  0.00000000000E+00 0. -1.
        -13    1    3    3    0    0 -0.17045581170E+02  0.50118137740E+02  0.15132159568E+03  0.16031408200E+03  0.00000000000E+00 0.  1.
         13    1    3    3    0    0  0.16466683034E+02  0.24685044512E+03  0.32791162036E+03  0.41077040384E+03  0.00000000000E+00 0. -1.
          1    1    1    2  501    0 -0.38056743551E+02  0.24546253206E+02  0.14725177939E+03  0.15405817346E+03  0.00000000000E+00 0. -1.
<scales pt_clust_5="13000.00000" pt_clust_6="13000.00000" pt_clust_7="13000.00000" pt_clust_8="13000.00000" pt_clust_9="45.28616"></scales>
<clustering>
<clus scale="   45.286">  2  9  1 -1</clus>
<clus scale="   90.107">  5  6 -1 -1</clus>
<clus scale="   91.007">  7  8 -1 -1</clus>
<clus scale="  316.443">  2  5  1 -1</clus>
<clus scale="   45.286">  2  5  1 -1</clus>
</clustering>
</event>
<event>
 9    1  0.1610296E-005  0.1565790E+03  0.7546771E-02  0.1192981E+00
         21   -1    0    0  501  502  0.00000000000E+00  0.00000000000E+00  0.21357897079E+03  0.21357897079E+03  0.00000000000E+00 0. -1.
         -1   -1    0    0    0  501 -0.00000000000E+00 -0.00000000000E+00 -0.50988582774E+03  0.50988582774E+03  0.00000000000E+00 0.  1.
         23    2    1    2    0    0  0.12633694640E+03 -0.15569075475E+02 -0.45945734613E+03  0.48572154740E+03  0.92849063307E+02 0.  0.
         23    2    1    2    0    0 -0.10838135862E+03  0.66557576288E+01  0.16529592370E+03  0.21758256520E+03  0.90711698701E+02 0.  0.
        -11    1    3    3    0    0  0.12232959139E+03  0.17852294082E+02 -0.37237357274E+03  0.39235865100E+03  0.00000000000E+00 0.  1.
         11    1    3    3    0    0  0.40073550092E+01 -0.33421369558E+02 -0.87083773391E+02  0.93362896406E+02  0.00000000000E+00 0. -1.
        -13    1    4    4    0    0 -0.62936270394E+02 -0.38000504957E+02  0.11462635619E+03  0.13617714214E+03  0.00000000000E+00 0. -1.
         13    1    4    4    0    0 -0.45445088222E+02  0.44656262586E+02  0.50669567514E+02  0.81405423061E+02  0.00000000000E+00 0.  1.
         -1    1    1    2    0  502 -0.17955587784E+02  0.89133178466E+01 -0.21454345204E+01  0.20160685926E+02  0.00000000000E+00 0.  1.
<scales pt_clust_5="13000.00000" pt_clust_6="13000.00000" pt_clust_7="13000.00000" pt_clust_8="13000.00000" pt_clust_9="20.04621"></scales>
<clustering>
<clus scale="   20.046">  1  9  2 -1</clus>
<clus scale="   90.712">  7  8 -1 -1</clus>
<clus scale="   92.849">  5  6 -1 -1</clus>
<clus scale="  155.321">  1  7  2 -1</clus>
<clus scale="   20.046">  1  5  2 -1</clus>
</clustering>
</event>
<event>
 9    1  0.1610296E-005  0.1200153E+03  0.7546771E-02  0.1244075E+00
          2   -1    0    0  502    0 -0.00000000000E+00  0.00000000000E+00  0.18717683094E+03  0.18717683094E+03  0.00000000000E+00 0. -1.
         21   -1    0    0  501  502  0.00000000000E+00 -0.00000000000E+00 -0.18402054969E+03  0.18402054969E+03  0.00000000000E+00 0. -1.
         23    2    1    2    0    0  0.68383471983E+01 -0.89482885002E+02  0.71484709271E+02  0.14609126658E+03  0.90435860198E+02 0.  0.
         23    2    1    2    0    0  0.54089727885E+02  0.48791179165E+02  0.85966881742E+01  0.11887279179E+03  0.93544426634E+02 0.  0.
        -11    1    3    3    0    0  0.27288820442E+02  0.21130361435E+01  0.37177657846E+02  0.46166252672E+02  0.00000000000E+00 0.  1.
         11    1    3    3    0    0 -0.20450473244E+02 -0.91595921146E+02  0.34307051424E+02  0.99925013905E+02  0.00000000000E+00 0. -1.
        -13    1    4    4    0    0  0.40025482472E+01  0.63173471643E+02 -0.88561313368E+01  0.63916656469E+02  0.00000000000E+00 0.  1.
         13    1    4    4    0    0  0.50087179638E+02 -0.14382292477E+02  0.17452819511E+02  0.54956135325E+02  0.00000000000E+00 0. -1.
          2    1    1    2  501    0 -0.60928075083E+02  0.40691705837E+02 -0.76925116197E+02  0.10623332226E+03  0.00000000000E+00 0. -1.
<scales pt_clust_5="13000.00000" pt_clust_6="13000.00000" pt_clust_7="13000.00000" pt_clust_8="13000.00000" pt_clust_9="73.26695"></scales>
<clustering>
<clus scale="   73.267">  2  9  1 -1</clus>
<clus scale="   90.436">  5  6 -1 -1</clus>
<clus scale="   93.544">  7  8 -1 -1</clus>
<clus scale="  117.608">  1  5  2 -1</clus>
<clus scale="   73.267">  2  5  1 -1</clus>
</clustering>
</event>
<event>
 9    1  0.1968661E-005  0.1668428E+03  0.7546771E-02  0.1182058E+00
         21   -1    0    0  501  502  0.00000000000E+00  0.00000000000E+00  0.16907936500E+03  0.16907936500E+03  0.00000000000E+00 0. -1.
          2   -1    0    0  502    0 -0.00000000000E+00 -0.00000000000E+00 -0.10501505171E+04  0.10501505171E+04  0.00000000000E+00 0. -1.
         23    2    1    2    0    0  0.11138341144E+03  0.97435879085E+02 -0.85231459286E+03  0.87049232561E+03  0.97039728259E+02 0.  0.
         23    2    1    2    0    0 -0.86425718321E+02 -0.54660459003E+02 -0.15866925405E+03  0.20970543329E+03  0.91341480210E+02 0.  0.
        -11    1    4    4    0    0  0.42120098478E+01 -0.45705476433E+02 -0.48803148179E+02  0.66996110896E+02  0.00000000000E+00 0.  1.
         11    1    4    4    0    0 -0.90637728169E+02 -0.89549825696E+01 -0.10986610587E+03  0.14270932240E+03  0.00000000000E+00 0. -1.
        -13    1    3    3    0    0  0.29815158689E+02 -0.78569277331E+01 -0.64412323575E+02  0.71411640714E+02  0.00000000000E+00 0.  1.
         13    1    3    3    0    0  0.81568252749E+02  0.10529280682E+03 -0.78790226929E+03  0.79908068490E+03  0.00000000000E+00 0. -1.
          2    1    1    2  501    0 -0.24957693117E+02 -0.42775420082E+02  0.12991269481E+03  0.13903212320E+03  0.00000000000E+00 0. -1.
<scales pt_clust_5="13000.00000" pt_clust_6="13000.00000" pt_clust_7="13000.00000" pt_clust_8="13000.00000" pt_clust_9="49.52396"></scales>
<clustering>
<clus scale="   49.524">  1  9  2 -1</clus>
<clus scale="   91.341">  5  6 -1 -1</clus>
<clus scale="   97.040">  7  8 -1 -1</clus>
<clus scale="  163.594">  1  5  2 -1</clus>
<clus scale="   49.524">  1  5  2 -1</clus>
</clustering>
</event>
<event>
 9    1  0.1610296E-005  0.9289418E+02  0.7546771E-02  0.1298037E+00
         21   -1    0    0  501  502  0.00000000000E+00  0.00000000000E+00  0.17766442326E+03  0.17766442326E+03  0.00000000000E+00 0. -1.
         -1   -1    0    0    0  501 -0.00000000000E+00 -0.00000000000E+00 -0.17868797967E+03  0.17868797967E+03  0.00000000000E+00 0.  1.
         23    2    1    2    0    0 -0.17633528593E+02  0.10359709413E+02 -0.74735346815E+02  0.12014858332E+03  0.91826167843E+02 0.  0.
         23    2    1    2    0    0 -0.86815147858E+01 -0.16036938878E+02 -0.54377278686E+02  0.10531637918E+03  0.88329492124E+02 0.  0.
        -11    1    4    4    0    0  0.30472288399E+02  0.18057139408E+02 -0.35293654671E+02  0.50002626970E+02  0.00000000000E+00 0.  1.
         11    1    4    4    0    0 -0.39153803185E+02 -0.34094078287E+02 -0.19083624015E+02  0.55313752211E+02  0.00000000000E+00 0. -1.
        -11    1    3    3    0    0  0.45032435911E+01 -0.31020979511E+02 -0.65080401699E+02  0.72235995583E+02  0.00000000000E+00 0.  1.
         11    1    3    3    0    0 -0.22136772184E+02  0.41380688924E+02 -0.96549451161E+01  0.47912587738E+02  0.00000000000E+00 0. -1.
         -1    1    1    2    0  502  0.26315043379E+02  0.56772294652E+01  0.12808906909E+03  0.13088744043E+03  0.00000000000E+00 0.  1.
<scales pt_clust_5="13000.00000" pt_clust_6="13000.00000" pt_clust_7="13000.00000" pt_clust_8="13000.00000" pt_clust_9="26.92048"></scales>
<clustering>
<clus scale="   26.920">  1  9  2 -1</clus>
<clus scale="   88.329">  5  6 -1 -1</clus>
<clus scale="   89.439">  1  5  2 -1</clus>
<clus scale="   91.826">  7  8 -1 -1</clus>
<clus scale="   26.920">  1  5  2 -1</clus>
</clustering>
</event>
<event>
 9    1  0.1610296E-005  0.1099992E+03  0.7546771E-02  0.1263355E+00
         21   -1    0    0  501  502  0.00000000000E+00  0.00000000000E+00  0.14857578578E+03  0.14857578578E+03  0.00000000000E+00 0.  1.
         -2   -1    0    0    0  501 -0.00000000000E+00 -0.00000000000E+00 -0.22724148396E+03  0.22724148396E+03  0.00000000000E+00 0.  1.
         23    2    1    2    0    0 -0.50025722190E+02 -0.38811316089E+02 -0.17931224940E+03  0.21072658998E+03  0.90796045090E+02 0.  0.
         23    2    1    2    0    0  0.56053076456E+02  0.16909449113E+02  0.59687992168E+02  0.11825453628E+03  0.83627759100E+02 0.  0.
        -11    1    4    4    0    0  0.36944816001E+02 -0.27981199120E+02  0.50618984401E+02  0.68630521747E+02  0.00000000000E+00 0.  1.
         11    1    4    4    0    0  0.19108260456E+02  0.44890648233E+02  0.90690077667E+01  0.49624014532E+02  0.00000000000E+00 0. -1.
        -11    1    3    3    0    0 -0.41656359054E+02 -0.87029119259E+01 -0.17387511871E+03  0.17900712229E+03  0.00000000000E+00 0.  1.
         11    1    3    3    0    0 -0.83693631362E+01 -0.30108404163E+02 -0.54371306937E+01  0.31719467693E+02  0.00000000000E+00 0. -1.
         -2    1    1    2    0  502 -0.60273542661E+01  0.21901866976E+02  0.40958559048E+02  0.46836143477E+02  0.00000000000E+00 0.  1.
<scales pt_clust_5="13000.00000" pt_clust_6="13000.00000" pt_clust_7="13000.00000" pt_clust_8="13000.00000" pt_clust_9="22.71609"></scales>
<clustering>
<clus scale="   22.716">  1  9  2 -1</clus>
<clus scale="   83.628">  5  6 -1 -1</clus>
<clus scale="   90.796">  7  8 -1 -1</clus>
<clus scale="  104.161">  1  5  2 -1</clus>
<clus scale="   22.716">  1  5  2 -1</clus>
</clustering>
</event>
<event>
 9    1  0.1610296E-005  0.1524111E+03  0.7546771E-02  0.1197799E+00
         21   -1    0    0  501  502  0.00000000000E+00  0.00000000000E+00  0.98449971377E+02  0.98449971377E+02  0.00000000000E+00 0. -1.
          1   -1    0    0  502    0 -0.00000000000E+00 -0.00000000000E+00 -0.69430372373E+03  0.69430372373E+03  0.00000000000E+00 0. -1.
         23    2    1    2    0    0  0.12146545024E+03  0.25673951960E+02 -0.49479146146E+03  0.51821693906E+03  0.91198674253E+02 0.  0.
         23    2    1    2    0    0 -0.82673766124E+02 -0.85672439082E+02 -0.81169698993E-01  0.15083631122E+03  0.92611380345E+02 0.  0.
        -11    1    4    4    0    0 -0.54848347120E+02 -0.22969121042E+02 -0.39812847867E+02  0.71561054761E+02  0.00000000000E+00 0.  1.
         11    1    4    4    0    0 -0.27825419004E+02 -0.62703318040E+02  0.39731678168E+02  0.79275256455E+02  0.00000000000E+00 0. -1.
        -13    1    3    3    0    0  0.57947676879E+02  0.48433623288E+02 -0.35563423922E+03  0.36356493398E+03  0.00000000000E+00 0. -1.
         13    1    3    3    0    0  0.63517773361E+02 -0.22759671327E+02 -0.13915722224E+03  0.15465200507E+03  0.00000000000E+00 0.  1.
          1    1    1    2  501    0 -0.38791684116E+02  0.59998487122E+02 -0.10098112120E+03  0.12370044483E+03  0.00000000000E+00 0. -1.
<scales pt_clust_5="13000.00000" pt_clust_6="13000.00000" pt_clust_7="13000.00000" pt_clust_8="13000.00000" pt_clust_9="71.44661"></scales>
<clustering>
<clus scale="   71.447">  1  9  2 -1</clus>
<clus scale="   91.199">  7  8 -1 -1</clus>
<clus scale="   92.611">  5  6 -1 -1</clus>
<clus scale="  151.557">  2  7  1 -1</clus>
<clus scale="   71.447">  1  5  2 -1</clus>
</clustering>
</event>
<event>
 9    1  0.1610296E-005  0.1186170E+03  0.7546771E-02  0.1245623E+00
          1   -1    0    0  502    0 -0.00000000000E+00  0.00000000000E+00  0.66220216994E+03  0.66220216994E+03  0.00000000000E+00 0. -1.
         21   -1    0    0  501  502  0.00000000000E+00 -0.00000000000E+00 -0.83386779080E+02  0.83386779080E+02  0.00000000000E+00 0. -1.
         23    2    1    2    0    0 -0.84806213955E+02 -0.38351173797E+02  0.52601529209E+03  0.54197412256E+03  0.91547558984E+02 0.  0.
         23    2    1    2    0    0 -0.89612394540E+01  0.29956104291E+02  0.49878783722E+02  0.10942700032E+03  0.92242632968E+02 0.  0.
        -11    1    4    4    0    0 -0.14739263649E+02  0.58311576934E+02  0.11294764774E+02  0.61196875808E+02  0.00000000000E+00 0. -1.
         11    1    4    4    0    0  0.57780241950E+01 -0.28355472642E+02  0.38584018948E+02  0.48230124513E+02  0.00000000000E+00 0.  1.
        -13    1    3    3    0    0 -0.23799917202E+02  0.27894543559E+02  0.21804216134E+03  0.22110387998E+03  0.00000000000E+00 0.  1.
         13    1    3    3    0    0 -0.61006296753E+02 -0.66245717356E+02  0.30797313075E+03  0.32087024258E+03  0.00000000000E+00 0. -1.
          1    1    1    2  501    0  0.93767453409E+02  0.83950695055E+01  0.29213150472E+01  0.94187826137E+02  0.00000000000E+00 0. -1.
<scales pt_clust_5="13000.00000" pt_clust_6="13000.00000" pt_clust_7="13000.00000" pt_clust_8="13000.00000" pt_clust_9="94.14251"></scales>
<clustering>
<clus scale="   91.548">  7  8 -1 -1</clus>
<clus scale="   92.243">  5  6 -1 -1</clus>
<clus scale="   94.143">  2  9  1 -1</clus>
<clus scale="  118.077">  1  7  2 -1</clus>
<clus scale="   94.143">  2  5  1 -1</clus>
</clustering>
</event>
<event>
 9    1  0.1610296E-005  0.9841167E+02  0.7546771E-02  0.1283989E+00
         21   -1    0    0  501  502  0.00000000000E+00  0.00000000000E+00  0.54641066956E+03  0.54641066956E+03  0.00000000000E+00 0.  1.
          1   -1    0    0  502    0 -0.00000000000E+00 -0.00000000000E+00 -0.59037078294E+02  0.59037078294E+02  0.00000000000E+00 0. -1.
         23    2    1    2    0    0  0.33112598255E+02 -0.10790185205E+02  0.50075835380E+01  0.97252969316E+02  0.90665273881E+02 0.  0.
         23    2    1    2    0    0 -0.41881002679E+02  0.54229245918E+02  0.30290571480E+03  0.32334393691E+03  0.90025551824E+02 0.  0.
        -11    1    3    3    0    0  0.50694791878E+02 -0.30949496364E+02 -0.17901092255E+02  0.62034525489E+02  0.00000000000E+00 0. -1.
         11    1    3    3    0    0 -0.17582193623E+02  0.20159311159E+02  0.22908675793E+02  0.35218443827E+02  0.00000000000E+00 0.  1.
        -11    1    4    4    0    0  0.20165052399E+02 -0.34961392430E+01  0.22517479395E+02  0.30428427599E+02  0.00000000000E+00 0. -1.
         11    1    4    4    0    0 -0.62046055077E+02  0.57725385161E+02  0.28038823540E+03  0.29291550931E+03  0.00000000000E+00 0.  1.
          1    1    1    2  501    0  0.87684044232E+01 -0.43439060712E+02  0.17946029293E+03  0.18485084163E+03  0.00000000000E+00 0. -1.
<scales pt_clust_5="13000.00000" pt_clust_6="13000.00000" pt_clust_7="13000.00000" pt_clust_8="13000.00000" pt_clust_9="44.31520"></scales>
<clustering>
<clus scale="   44.315">  1  9  2 -1</clus>
<clus scale="   90.026">  7  8 -1 -1</clus>
<clus scale="   90.665">  5  6 -1 -1</clus>
<clus scale="   97.823">  1  7  2 -1</clus>
<clus scale="   44.315">  1  5  2 -1</clus>
</clustering>
</event>
<event>
 9    1  0.1610296E-005  0.9417683E+02  0.7546771E-02  0.1295664E+00
         21   -1    0    0  501  502  0.00000000000E+00  0.00000000000E+00  0.12908332235E+03  0.12908332235E+03  0.00000000000E+00 0.  1.
          3   -1    0    0  502    0 -0.00000000000E+00 -0.00000000000E+00 -0.10726338258E+03  0.10726338258E+03  0.00000000000E+00 0. -1.
         23    2    1    2    0    0 -0.10287669879E+02  0.19912477372E+02  0.11105717157E+02  0.96952226731E+02  0.93669922643E+02 0.  0.
         23    2    1    2    0    0 -0.19793812055E+01  0.62591775739E+01  0.40271671788E+02  0.98053471122E+02  0.89160419450E+02 0.  0.
        -13    1    4    4    0    0 -0.10394594168E+02 -0.31794475964E+02  0.47817937457E+02  0.58356588595E+02  0.00000000000E+00 0.  1.
         13    1    4    4    0    0  0.84152129627E+01  0.38053653538E+02 -0.75462656689E+01  0.39696882527E+02  0.00000000000E+00 0. -1.
        -13    1    3    3    0    0 -0.44547198857E+02 -0.15116526718E+02  0.90970516667E+01  0.47913658335E+02  0.00000000000E+00 0.  1.
         13    1    3    3    0    0  0.34259528978E+02  0.35029004090E+02  0.20086654899E+01  0.49038568396E+02  0.00000000000E+00 0. -1.
          3    1    1    2  501    0  0.12267051084E+02 -0.26171654946E+02 -0.29557449169E+02  0.41341007079E+02  0.00000000000E+00 0. -1.
<scales pt_clust_5="13000.00000" pt_clust_6="13000.00000" pt_clust_7="13000.00000" pt_clust_8="13000.00000" pt_clust_9="28.90393"></scales>
<clustering>
<clus scale="   28.904">  1  9  2 -1</clus>
<clus scale="   89.160">  5  6 -1 -1</clus>
<clus scale="   89.693">  1  5  2 -1</clus>
<clus scale="   93.670">  7  8 -1 -1</clus>
<clus scale="   28.904">  1  5  2 -1</clus>
</clustering>
</event>
<event>
 9    1  0.1610296E-005  0.1363216E+03  0.7546771E-02  0.1218471E+00
          1   -1    0    0  502    0 -0.00000000000E+00  0.00000000000E+00  0.25975017237E+03  0.25975017237E+03  0.00000000000E+00 0. -1.
         21   -1    0    0  501  502  0.00000000000E+00 -0.00000000000E+00 -0.90312941067E+02  0.90312941067E+02  0.00000000000E+00 0.  1.
         23    2    1    2    0    0  0.97212328351E+02  0.51925229649E+02  0.10099431007E+03  0.17507380317E+03  0.91129137119E+02 0.  0.
         23    2    1    2    0    0 -0.73720580191E+02 -0.49614320324E+02  0.31976502688E+02  0.13154967151E+03  0.91577915603E+02 0.  0.
        -11    1    3    3    0    0  0.49135447689E+02  0.73090045521E+02  0.47345104383E+02  0.99990028918E+02  0.00000000000E+00 0.  1.
         11    1    3    3    0    0  0.48076880662E+02 -0.21164815872E+02  0.53649205685E+02  0.75083774250E+02  0.00000000000E+00 0. -1.
        -13    1    4    4    0    0 -0.37935148606E+02 -0.52090961002E+02  0.58424499246E+02  0.86982560493E+02  0.00000000000E+00 0. -1.
         13    1    4    4    0    0 -0.35785431585E+02  0.24766406774E+01 -0.26447996558E+02  0.44567111020E+02  0.00000000000E+00 0.  1.
          1    1    1    2  501    0 -0.23491748160E+02 -0.23109093253E+01  0.36466418542E+02  0.43439638751E+02  0.00000000000E+00 0. -1.
<scales pt_clust_5="13000.00000" pt_clust_6="13000.00000" pt_clust_7="13000.00000" pt_clust_8="13000.00000" pt_clust_9="23.60515"></scales>
<clustering>
<clus scale="   23.605">  2  9  1 -1</clus>
<clus scale="   91.129">  5  6 -1 -1</clus>
<clus scale="   91.578">  7  8 -1 -1</clus>
<clus scale="  136.021">  1  5  2 -1</clus>
<clus scale="   23.605">  2  5  1 -1</clus>
</clustering>
</event>
<event>
 9    1  0.1610296E-005  0.1198812E+03  0.7546771E-02  0.1244309E+00
          1   -1    0    0  502    0 -0.00000000000E+00  0.00000000000E+00  0.10835646649E+03  0.10835646649E+03  0.00000000000E+00 0. -1.
         21   -1    0    0  501  502  0.00000000000E+00 -0.00000000000E+00 -0.25241473508E+03  0.25241473508E+03  0.00000000000E+00 0.  1.
         23    2    1    2    0    0  0.92904058008E+02  0.36050087652E+02 -0.37845219599E+02  0.13838799339E+03  0.88250797475E+02 0.  0.
         23    2    1    2    0    0 -0.19620356158E+02 -0.63494544262E+02 -0.84576393530E+02  0.14119303627E+03  0.91464701504E+02 0.  0.
        -11    1    4    4    0    0  0.33192771207E+02 -0.37754031288E+02 -0.57871436510E+02  0.76656572469E+02  0.00000000000E+00 0.  1.
         11    1    4    4    0    0 -0.52813127365E+02 -0.25740512974E+02 -0.26704957019E+02  0.64536463799E+02  0.00000000000E+00 0. -1.
        -11    1    3    3    0    0  0.39876074083E+02  0.36449223274E+02 -0.60157898899E+02  0.80855549973E+02  0.00000000000E+00 0.  1.
         11    1    3    3    0    0  0.53027983925E+02 -0.39913562124E+00  0.22312679300E+02  0.57532443421E+02  0.00000000000E+00 0. -1.
          1    1    1    2  501    0 -0.73283701850E+02  0.27444456610E+02 -0.21636655459E+02  0.81190171911E+02  0.00000000000E+00 0. -1.
<scales pt_clust_5="13000.00000" pt_clust_6="13000.00000" pt_clust_7="13000.00000" pt_clust_8="13000.00000" pt_clust_9="78.25411"></scales>
<clustering>
<clus scale="   78.254">  2  9  1 -1</clus>
<clus scale="   88.251">  7  8 -1 -1</clus>
<clus scale="   91.465">  5  6 -1 -1</clus>
<clus scale="  117.447">  1  7  2 -1</clus>
<clus scale="   78.254">  2  5  1 -1</clus>
</clustering>
</event>
<event>
 9    1  0.1610296E-005  0.1165126E+03  0.7546771E-02  0.1249216E+00
          1   -1    0    0  502    0 -0.00000000000E+00  0.00000000000E+00  0.37220161739E+02  0.37220161739E+02  0.00000000000E+00 0. -1.
         21   -1    0    0  501  502  0.00000000000E+00 -0.00000000000E+00 -0.86551484117E+03  0.86551484117E+03  0.00000000000E+00 0. -1.
         23    2    1    2    0    0  0.26887282079E+02 -0.39240317942E+02 -0.17372494560E+03  0.20146303629E+03  0.90245608072E+02 0.  0.
         23    2    1    2    0    0 -0.93212033290E+01  0.12517202963E+03 -0.32273029181E+03  0.35803700122E+03  0.90998522828E+02 0.  0.
        -13    1    3    3    0    0  0.44741099719E+02 -0.55317445104E+02 -0.92123174284E+02  0.11639787359E+03  0.00000000000E+00 0.  1.
         13    1    3    3    0    0 -0.17853817641E+02  0.16077127162E+02 -0.81601771316E+02  0.85065162693E+02  0.00000000000E+00 0. -1.
        -13    1    4    4    0    0 -0.45450261342E+02  0.35861812424E+02 -0.10397601815E+03  0.11900759722E+03  0.00000000000E+00 0.  1.
         13    1    4    4    0    0  0.36129058013E+02  0.89310217202E+02 -0.21875427367E+03  0.23902940400E+03  0.00000000000E+00 0. -1.
          1    1    1    2  501    0 -0.17566078750E+02 -0.85931711684E+02 -0.33183944201E+03  0.34323496540E+03  0.00000000000E+00 0. -1.
<scales pt_clust_5="13000.00000" pt_clust_6="13000.00000" pt_clust_7="13000.00000" pt_clust_8="13000.00000" pt_clust_9="87.70876"></scales>
<clustering>
<clus scale="   87.709">  2  9  1 -1</clus>
<clus scale="   90.246">  5  6 -1 -1</clus>
<clus scale="   90.999">  7  8 -1 -1</clus>
<clus scale="  115.925">  1  5  2 -1</clus>
<clus scale="   87.709">  2  5  1 -1</clus>
</clustering>
</event>
<event>
 9    1  0.1610296E-005  0.1104221E+03  0.7546771E-02  0.1261290E+00
         -1   -1    0    0    0  501 -0.00000000000E+00  0.00000000000E+00  0.36524472005E+03  0.36524472005E+03  0.00000000000E+00 0.  1.
         21   -1    0    0  501  502  0.00000000000E+00 -0.00000000000E+00 -0.60579667356E+02  0.60579667356E+02  0.00000000000E+00 0.  1.
         23    2    1    2    0    0 -0.40102471071E+02 -0.52896116027E+02  0.23315442429E+03  0.25895945186E+03  0.91064838782E+02 0.  0.
         23    2    1    2    0    0  0.13048261191E+02  0.37453194779E+02  0.84558100255E+02  0.13309141618E+03  0.94816949032E+02 0.  0.
        -11    1    4    4    0    0 -0.39605475967E+02  0.11779467939E+02  0.19962176885E+02  0.45889411605E+02  0.00000000000E+00 0.  1.
         11    1    4    4    0    0  0.52653737157E+02  0.25673726840E+02  0.64595923370E+02  0.87202004579E+02  0.00000000000E+00 0. -1.
        -13    1    3    3    0    0 -0.43466472529E+01 -0.71450210277E+02  0.16373749897E+03  0.17870085187E+03  0.00000000000E+00 0.  1.
         13    1    3    3    0    0 -0.35755823819E+02  0.18554094250E+02  0.69416925324E+02  0.80258599987E+02  0.00000000000E+00 0. -1.
         -1    1    1    2    0  502  0.27054209881E+02  0.15442921248E+02 -0.13047471849E+02  0.33773519369E+02  0.00000000000E+00 0.  1.
<scales pt_clust_5="13000.00000" pt_clust_6="13000.00000" pt_clust_7="13000.00000" pt_clust_8="13000.00000" pt_clust_9="31.15147"></scales>
<clustering>
<clus scale="   31.151">  2  9  1 -1</clus>
<clus scale="   91.065">  7  8 -1 -1</clus>
<clus scale="   94.817">  5  6 -1 -1</clus>
<clus scale="  107.218">  1  7  2 -1</clus>
<clus scale="   31.151">  2  5  1 -1</clus>
</clustering>
</event>
<event>
 9    1  0.1610296E-005  0.1020072E+03  0.7546771E-02  0.1276561E+00
         21   -1    0    0  501  502  0.00000000000E+00  0.00000000000E+00  0.21197024277E+02  0.21197024277E+02  0.00000000000E+00 0.  1.
         -1   -1    0    0    0  501 -0.00000000000E+00 -0.00000000000E+00 -0.75171620947E+03  0.75171620947E+03  0.00000000000E+00 0.  1.
         23    2    1    2    0    0 -0.42058698530E+02 -0.11240110140E+02 -0.39931067323E+03  0.41220492288E+03  0.92566789357E+02 0.  0.
         23    2    1    2    0    0  0.38636146433E+02 -0.25179946281E+02 -0.26971801116E+03  0.28915961374E+03  0.93480988253E+02 0.  0.
        -11    1    4    4    0    0  0.24434729872E+02 -0.54628031854E+02 -0.10178674131E+03  0.11807547838E+03  0.00000000000E+00 0.  1.
         11    1    4    4    0    0  0.14201416561E+02  0.29448085574E+02 -0.16793126985E+03  0.17108413536E+03  0.00000000000E+00 0. -1.
        -11    1    3    3    0    0 -0.27089397503E+02  0.38798838361E+02 -0.14297451063E+03  0.15060177955E+03  0.00000000000E+00 0.  1.
         11    1    3    3    0    0 -0.14969301027E+02 -0.50038948501E+02 -0.25633616260E+03  0.26160314332E+03  0.00000000000E+00 0. -1.
         -1    1    1    2    0  502  0.34225520968E+01  0.36420056421E+02 -0.61490500797E+02  0.71548697129E+02  0.00000000000E+00 0.  1.
<scales pt_clust_5="13000.00000" pt_clust_6="13000.00000" pt_clust_7="13000.00000" pt_clust_8="13000.00000" pt_clust_9="36.58052"></scales>
<clustering>
<clus scale="   36.581">  1  9  2 -1</clus>
<clus scale="   92.567">  7  8 -1 -1</clus>
<clus scale="   93.481">  5  6 -1 -1</clus>
<clus scale="  101.170">  2  7  1 -1</clus>
<clus scale="   36.581">  1  5  2 -1</clus>
</clustering>
</event>
<event>
 9    1  0.1610296E-005  0.1462407E+03  0.7546771E-02  0.1206294E+00
         21   -1    0    0  501  502  0.00000000000E+00  0.00000000000E+00  0.72707367718E+02  0.72707367718E+02  0.00000000000E+00 0. -1.
          1   -1    0    0  502    0 -0.00000000000E+00 -0.00000000000E+00 -0.57272225585E+03  0.57272225585E+03  0.00000000000E+00 0. -1.
         23    2    1    2    0    0  0.12323386012E+03  0.22652828372E+02 -0.31638286864E+03  0.35198158227E+03  0.89962101887E+02 0.  0.
         23    2    1    2    0    0 -0.95325287207E+02 -0.33296276356E+01 -0.21059161112E+03  0.25009952217E+03  0.95409368055E+02 0.  0.
        -11    1    3    3    0    0  0.37904494338E+02  0.18775379375E+01 -0.20076056441E+02  0.42933947896E+02  0.00000000000E+00 0. -1.
         11    1    3    3    0    0  0.85329365785E+02  0.20775290434E+02 -0.29630681220E+03  0.30904763438E+03  0.00000000000E+00 0.  1.
        -11    1    4    4    0    0 -0.72238675480E+01 -0.27073518851E+02 -0.10037324333E+02  0.29764199386E+02  0.00000000000E+00 0.  1.
         11    1    4    4    0    0 -0.88101419659E+02  0.23743891216E+02 -0.20055428679E+03  0.22033532278E+03  0.00000000000E+00 0. -1.
          1    1    1    2  501    0 -0.27908572915E+02 -0.19323200736E+02  0.26959591636E+02  0.43348519122E+02  0.00000000000E+00 0. -1.
<scales pt_clust_5="13000.00000" pt_clust_6="13000.00000" pt_clust_7="13000.00000" pt_clust_8="13000.00000" pt_clust_9="33.94517"></scales>
<clustering>
<clus scale="   33.945">  1  9  2 -1</clus>
<clus scale="   89.962">  5  6 -1 -1</clus>
<clus scale="   95.409">  7  8 -1 -1</clus>
<clus scale="  142.746">  2  5  1 -1</clus>
<clus scale="   33.945">  1  5  2 -1</clus>
</clustering>
</event>
<event>
 9    1  0.1610296E-005  0.1099677E+03  0.7546771E-02  0.1260803E+00
         21   -1    0    0  501  502  0.00000000000E+00  0.00000000000E+00  0.20652127240E+03  0.20652127240E+03  0.00000000000E+00 0.  1.
         -4   -1    0    0    0  501 -0.00000000000E+00 -0.00000000000E+00 -0.16901659532E+03  0.16901659532E+03  0.00000000000E+00 0.  1.
         23    2    1    2    0    0  0.61308755775E+02 -0.54269516925E+02 -0.21741402670E+02  0.12476389077E+03  0.91593645245E+02 0.  0.
         23    2    1    2    0    0  0.45193250185E+02  0.64844325321E+02 -0.12443963979E+02  0.12195640743E+03  0.92039647355E+02 0.  0.
        -11    1    4    4    0    0  0.58365702647E+02  0.12005296840E+02 -0.27250658155E+02  0.65523131546E+02  0.00000000000E+00 0.  1.
         11    1    4    4    0    0 -0.13172452462E+02  0.52839028481E+02  0.14806694176E+02  0.56433275885E+02  0.00000000000E+00 0. -1.
        -13    1    3    3    0    0 -0.55947358161E+01 -0.37495506138E+02 -0.38236566926E+02  0.53844675686E+02  0.00000000000E+00 0. -1.
         13    1    3    3    0    0  0.66903491591E+02 -0.16774010787E+02  0.16495164257E+02  0.70919215089E+02  0.00000000000E+00 0.  1.
         -4    1    1    2    0  502 -0.10650200596E+03 -0.10574808396E+02  0.71690043728E+02  0.12881756952E+03  0.00000000000E+00 0.  1.
<scales pt_clust_5="13000.00000" pt_clust_6="13000.00000" pt_clust_7="13000.00000" pt_clust_8="13000.00000" pt_clust_9="107.02572"></scales>
<clustering>
<clus scale="   91.594">  7  8 -1 -1</clus>
<clus scale="   92.040">  5  6 -1 -1</clus>
<clus scale="  107.026">  1  9  2 -1</clus>
<clus scale="  109.595">  2  7  1 -1</clus>
<clus scale="  107.026">  1  5  2 -1</clus>
</clustering>
</event>
<event>
 9    1  0.1610296E-005  0.1030452E+03  0.7546771E-02  0.1278397E+00
         21   -1    0    0  501  502  0.00000000000E+00  0.00000000000E+00  0.77733979379E+02  0.77733979379E+02  0.00000000000E+00 0.  1.
          1   -1    0    0  502    0 -0.00000000000E+00 -0.00000000000E+00 -0.18257671655E+03  0.18257671655E+03  0.00000000000E+00 0. -1.
         23    2    1    2    0    0  0.45244253410E+02  0.26879710899E+02 -0.63209074499E+02  0.11587223075E+03  0.81617555922E+02 0.  0.
         23    2    1    2    0    0 -0.21226757951E+02 -0.41991707880E+02 -0.51046215251E+02  0.11454183181E+03  0.91105632977E+02 0.  0.
        -11    1    3    3    0    0 -0.12030358988E+02  0.36898111925E+02 -0.28572910578E+02  0.48193479019E+02  0.00000000000E+00 0. -1.
         11    1    3    3    0    0  0.57274612398E+02 -0.10018401026E+02 -0.34636163921E+02  0.67678751729E+02  0.00000000000E+00 0.  1.
        -13    1    4    4    0    0  0.93822210818E+01 -0.64055544118E+02 -0.30242520034E+02  0.71454522759E+02  0.00000000000E+00 0.  1.
         13    1    4    4    0    0 -0.30608979033E+02  0.22063836238E+02 -0.20803695217E+02  0.43087309056E+02  0.00000000000E+00 0. -1.
          1    1    1    2  501    0 -0.24017495459E+02  0.15111996981E+02  0.94125525758E+01  0.29896633370E+02  0.00000000000E+00 0. -1.
<scales pt_clust_5="13000.00000" pt_clust_6="13000.00000" pt_clust_7="13000.00000" pt_clust_8="13000.00000" pt_clust_9="28.37627"></scales>
<clustering>
<clus scale="   28.376">  1  9  2 -1</clus>
<clus scale="   81.618">  5  6 -1 -1</clus>
<clus scale="   91.106">  7  8 -1 -1</clus>
<clus scale="   94.760">  2  5  1 -1</clus>
<clus scale="   28.376">  1  5  2 -1</clus>
</clustering>
</event>
<event>
 9    1  0.1610296E-005  0.1284537E+03  0.7546771E-02  0.1229903E+00
         21   -1    0    0  501  502  0.00000000000E+00  0.00000000000E+00  0.48985222023E+02  0.48985222023E+02  0.00000000000E+00 0. -1.
         -1   -1    0    0    0  501 -0.00000000000E+00 -0.00000000000E+00 -0.55393739377E+03  0.55393739377E+03  0.00000000000E+00 0.  1.
         23    2    1    2    0    0 -0.10323291627E+03  0.29215832577E+02 -0.33891800411E+03  0.36655166459E+03  0.89353843950E+02 0.  0.
         23    2    1    2    0    0  0.67535618222E+02 -0.27521151484E+02 -0.16440174857E+03  0.20059618601E+03  0.88839301001E+02 0.  0.
        -13    1    3    3    0    0 -0.30052554685E+02 -0.30532988472E+02 -0.76996690114E+02  0.88113050773E+02  0.00000000000E+00 0. -1.
         13    1    3    3    0    0 -0.73180361588E+02  0.59748821048E+02 -0.26192131400E+03  0.27843861382E+03  0.00000000000E+00 0.  1.
        -13    1    4    4    0    0  0.13532564637E+02 -0.51639053696E+02 -0.57753419978E+02  0.78645913380E+02  0.00000000000E+00 0. -1.
         13    1    4    4    0    0  0.54003053585E+02  0.24117902212E+02 -0.10664832859E+03  0.12195027263E+03  0.00000000000E+00 0.  1.
         -1    1    1    2    0  502  0.35697298052E+02 -0.16946810925E+01 -0.16324190637E+01  0.35774765187E+02  0.00000000000E+00 0.  1.
<scales pt_clust_5="13000.00000" pt_clust_6="13000.00000" pt_clust_7="13000.00000" pt_clust_8="13000.00000" pt_clust_9="35.73750"></scales>
<clustering>
<clus scale="   35.738">  1  9  2 -1</clus>
<clus scale="   88.839">  7  8 -1 -1</clus>
<clus scale="   89.354">  5  6 -1 -1</clus>
<clus scale="  128.096">  1  7  2 -1</clus>
<clus scale="   35.738">  1  5  2 -1</clus>
</clustering>
</event>
<event>
 9    1  0.1610296E-005  0.1053860E+03  0.7546771E-02  0.1269567E+00
         21   -1    0    0  501  502  0.00000000000E+00  0.00000000000E+00  0.64444576063E+02  0.64444576063E+02  0.00000000000E+00 0. -1.
          1   -1    0    0  502    0 -0.00000000000E+00 -0.00000000000E+00 -0.40374036873E+03  0.40374036873E+03  0.00000000000E+00 0. -1.
         23    2    1    2    0    0 -0.13200624737E+02 -0.51273070441E+02 -0.32548204752E+03  0.34248586920E+03  0.92492286701E+02 0.  0.
         23    2    1    2    0    0 -0.80953832476E+01  0.40049948991E+02 -0.84201621201E+01  0.10102988126E+03  0.92014151812E+02 0.  0.
        -11    1    4    4    0    0  0.32403282319E+02 -0.73492740842E+01 -0.18260776008E+02  0.37913592220E+02  0.00000000000E+00 0.  1.
         11    1    4    4    0    0 -0.40498665567E+02  0.47399223075E+02  0.98406138880E+01  0.63116289043E+02  0.00000000000E+00 0. -1.
        -11    1    3    3    0    0  0.20641312185E+02  0.11436016975E+02 -0.28140997656E+02  0.36725495259E+02  0.00000000000E+00 0.  1.
         11    1    3    3    0    0 -0.33841936922E+02 -0.62709087416E+02 -0.29734104986E+03  0.30576037394E+03  0.00000000000E+00 0. -1.
          1    1    1    2  501    0  0.21296007984E+02  0.11223121450E+02 -0.53935830320E+01  0.24669194334E+02  0.00000000000E+00 0. -1.
<scales pt_clust_5="13000.00000" pt_clust_6="13000.00000" pt_clust_7="13000.00000" pt_clust_8="13000.00000" pt_clust_9="24.07236"></scales>
<clustering>
<clus scale="   24.072">  1  9  2 -1</clus>
<clus scale="   92.014">  5  6 -1 -1</clus>
<clus scale="   92.492">  7  8 -1 -1</clus>
<clus scale="  104.967">  1  5  2 -1</clus>
<clus scale="   24.072">  1  5  2 -1</clus>
</clustering>
</event>
<event>
 9    1  0.1610296E-005  0.1337949E+03  0.7546771E-02  0.1225913E+00
         21   -1    0    0  501  502  0.00000000000E+00  0.00000000000E+00  0.12939087787E+03  0.12939087787E+03  0.00000000000E+00 0.  1.
          4   -1    0    0  502    0 -0.00000000000E+00 -0.00000000000E+00 -0.25872063821E+03  0.25872063821E+03  0.00000000000E+00 0. -1.
         23    2    1    2    0    0  0.21383848403E+02 -0.98288221034E+02 -0.81636273081E+02  0.15937525416E+03  0.92833976485E+02 0.  0.
         23    2    1    2    0    0  0.43356524754E+02  0.92441407732E+02  0.26174647324E+02  0.13033909504E+03  0.76667890485E+02 0.  0.
        -11    1    4    4    0    0  0.51063042950E+02  0.22079925730E+02  0.20651263029E+02  0.59341656029E+02  0.00000000000E+00 0.  1.
         11    1    4    4    0    0 -0.77065181964E+01  0.70361482002E+02  0.55233842943E+01  0.70997439012E+02  0.00000000000E+00 0. -1.
        -13    1    3    3    0    0 -0.31071699438E+02 -0.71064802985E+02 -0.41842254940E+02  0.88127356864E+02  0.00000000000E+00 0. -1.
         13    1    3    3    0    0  0.52455547841E+02 -0.27223418048E+02 -0.39794018141E+02  0.71247897298E+02  0.00000000000E+00 0.  1.
          4    1    1    2  501    0 -0.64740373156E+02  0.58468133016E+01 -0.73868134582E+02  0.98397166874E+02  0.00000000000E+00 0. -1.
<scales pt_clust_5="13000.00000" pt_clust_6="13000.00000" pt_clust_7="13000.00000" pt_clust_8="13000.00000" pt_clust_9="65.00389"></scales>
<clustering>
<clus scale="   65.004">  1  9  2 -1</clus>
<clus scale="   76.668">  5  6 -1 -1</clus>
<clus scale="   92.834">  7  8 -1 -1</clus>
<clus scale="  123.130">  1  5  2 -1</clus>
<clus scale="   65.004">  1  5  2 -1</clus>
</clustering>
</event>
<event>
 9    1  0.1610296E-005  0.9512029E+02  0.7546771E-02  0.1294541E+00
          1   -1    0    0  502    0 -0.00000000000E+00  0.00000000000E+00  0.77457864982E+02  0.77457864982E+02  0.00000000000E+00 0. -1.
         21   -1    0    0  501  502  0.00000000000E+00 -0.00000000000E+00 -0.24711645588E+03  0.24711645588E+03  0.00000000000E+00 0. -1.
         23    2    1    2    0    0  0.16133890123E+02 -0.19885648476E+01 -0.29771824026E+02  0.97825685057E+02  0.91756451273E+02 0.  0.
         23    2    1    2    0    0  0.39356586996E+01  0.45607002602E+02 -0.21710722813E+02  0.99191071187E+02  0.85276169136E+02 0.  0.
        -11    1    4    4    0    0  0.38687233855E+02  0.16573778142E+01 -0.18906984672E+02  0.43092029820E+02  0.00000000000E+00 0.  1.
         11    1    4    4    0    0 -0.34751575156E+02  0.43949624788E+02 -0.28037381406E+01  0.56099041368E+02  0.00000000000E+00 0. -1.
        -11    1    3    3    0    0  0.28461783366E+02  0.38699694132E+02 -0.27265150513E+02  0.55237015404E+02  0.00000000000E+00 0. -1.
         11    1    3    3    0    0 -0.12327893244E+02 -0.40688258980E+02 -0.25066735137E+01  0.42588669652E+02  0.00000000000E+00 0.  1.
          1    1    1    2  501    0 -0.20069548822E+02 -0.43618437755E+02 -0.11817604406E+03  0.12755756462E+03  0.00000000000E+00 0. -1.
<scales pt_clust_5="13000.00000" pt_clust_6="13000.00000" pt_clust_7="13000.00000" pt_clust_8="13000.00000" pt_clust_9="48.01411"></scales>
<clustering>
<clus scale="   48.014">  2  9  1 -1</clus>
<clus scale="   85.276">  5  6 -1 -1</clus>
<clus scale="   88.886">  2  5  1 -1</clus>
<clus scale="   91.756">  7  8 -1 -1</clus>
<clus scale="   48.014">  2  5  1 -1</clus>
</clustering>
</event>
<event>
 9    1  0.1610296E-005  0.1077891E+03  0.7546771E-02  0.1266818E+00
         21   -1    0    0  501  502  0.00000000000E+00  0.00000000000E+00  0.32265046691E+03  0.32265046691E+03  0.00000000000E+00 0.  1.
         -3   -1    0    0    0  501 -0.00000000000E+00 -0.00000000000E+00 -0.11585646814E+03  0.11585646814E+03  0.00000000000E+00 0.  1.
         23    2    1    2    0    0 -0.47470232678E+02  0.25829999938E+02 -0.73893310712E+02  0.13058538836E+03  0.93122018865E+02 0.  0.
         23    2    1    2    0    0  0.39540143181E+02 -0.44506114063E+02  0.23564081350E+03  0.25851638139E+03  0.88090347658E+02 0.  0.
        -13    1    3    3    0    0 -0.45377997250E+02  0.57308328337E+02 -0.64974078578E+02  0.97801012358E+02  0.00000000000E+00 0.  1.
         13    1    3    3    0    0 -0.20922354278E+01 -0.31478328399E+02 -0.89192321338E+01  0.32784376000E+02  0.00000000000E+00 0. -1.
        -13    1    4    4    0    0 -0.28320913752E+02 -0.10766381336E+02  0.75316699228E+02  0.81182475360E+02  0.00000000000E+00 0. -1.
         13    1    4    4    0    0  0.67861056933E+02 -0.33739732727E+02  0.16032411427E+03  0.17733390603E+03  0.00000000000E+00 0.  1.
         -3    1    1    2    0  502  0.79300894972E+01  0.18676114125E+02  0.45046495980E+02  0.49405165300E+02  0.00000000000E+00 0.  1.
<scales pt_clust_5="13000.00000" pt_clust_6="13000.00000" pt_clust_7="13000.00000" pt_clust_8="13000.00000" pt_clust_9="20.28999"></scales>
<clustering>
<clus scale="   20.290">  1  9  2 -1</clus>
<clus scale="   88.090">  7  8 -1 -1</clus>
<clus scale="   93.122">  5  6 -1 -1</clus>
<clus scale="  103.473">  1  7  2 -1</clus>
<clus scale="   20.290">  1  5  2 -1</clus>
</clustering>
</event>
<event>
 9    1  0.1610296E-005  0.9968568E+02  0.7546771E-02  0.1281609E+00
         21   -1    0    0  501  502  0.00000000000E+00  0.00000000000E+00  0.48241842373E+02  0.48241842373E+02  0.00000000000E+00 0. -1.
          2   -1    0    0  502    0 -0.00000000000E+00 -0.00000000000E+00 -0.62880937044E+03  0.62880937044E+03  0.00000000000E+00 0.  1.
         23    2    1    2    0    0 -0.73903000805E+01  0.29185386429E+02 -0.45976109578E+03  0.46972643178E+03  0.91412538576E+02 0.  0.
         23    2    1    2    0    0  0.29780485626E+02 -0.59132462473E+02 -0.12565246352E+03  0.16962024826E+03  0.92730586046E+02 0.  0.
        -13    1    3    3    0    0 -0.53213707075E+00  0.61435428564E+02 -0.34016602133E+03  0.34566966474E+03  0.00000000000E+00 0.  1.
         13    1    3    3    0    0 -0.68581630097E+01 -0.32250042134E+02 -0.11959507444E+03  0.12405676704E+03  0.00000000000E+00 0. -1.
        -13    1    4    4    0    0  0.12716161661E+02 -0.81807611211E+02 -0.75762043816E+02  0.11222331889E+03  0.00000000000E+00 0. -1.
         13    1    4    4    0    0  0.17064323965E+02  0.22675148738E+02 -0.49890419708E+02  0.57396929372E+02  0.00000000000E+00 0.  1.
          2    1    1    2  501    0 -0.22390185546E+02  0.29947076044E+02  0.48460312364E+01  0.37704532766E+02  0.00000000000E+00 0.  1.
<scales pt_clust_5="13000.00000" pt_clust_6="13000.00000" pt_clust_7="13000.00000" pt_clust_8="13000.00000" pt_clust_9="37.39181"></scales>
<clustering>
<clus scale="   37.392">  1  9  2 -1</clus>
<clus scale="   91.413">  5  6 -1 -1</clus>
<clus scale="   92.731">  7  8 -1 -1</clus>
<clus scale="   98.461">  2  5  1 -1</clus>
<clus scale="   37.392">  1  5  2 -1</clus>
</clustering>
</event>
<event>
 9    1  0.1610296E-005  0.9223816E+02  0.7546771E-02  0.1300315E+00
         21   -1    0    0  501  502  0.00000000000E+00  0.00000000000E+00  0.38781273355E+02  0.38781273355E+02  0.00000000000E+00 0. -1.
         -2   -1    0    0    0  501 -0.00000000000E+00 -0.00000000000E+00 -0.34455140592E+03  0.34455140592E+03  0.00000000000E+00 0.  1.
         23    2    1    2    0    0 -0.85553068992E+01 -0.26280335114E+02 -0.17049640951E+03  0.19532537448E+03  0.91209248260E+02 0.  0.
         23    2    1    2    0    0  0.38253993543E+01 -0.22654036677E+01 -0.13333797460E+03  0.15900767808E+03  0.86513932314E+02 0.  0.
        -11    1    4    4    0    0 -0.32438184775E+02 -0.15052205976E+02 -0.23901954739E+02  0.43012883844E+02  0.00000000000E+00 0. -1.
         11    1    4    4    0    0  0.36263584130E+02  0.12786802308E+02 -0.10943601986E+03  0.11599479424E+03  0.00000000000E+00 0.  1.
        -13    1    3    3    0    0  0.22099566702E+02 -0.38287659448E+02 -0.15038014766E+03  0.15674349914E+03  0.00000000000E+00 0. -1.
         13    1    3    3    0    0 -0.30654873601E+02  0.12007324334E+02 -0.20116261855E+02  0.38581875333E+02  0.00000000000E+00 0.  1.
         -2    1    1    2    0  502  0.47299075449E+01  0.28545738781E+02 -0.19357484582E+01  0.28999626722E+02  0.00000000000E+00 0.  1.
<scales pt_clust_5="13000.00000" pt_clust_6="13000.00000" pt_clust_7="13000.00000" pt_clust_8="13000.00000" pt_clust_9="28.93495"></scales>
<clustering>
<clus scale="   28.935">  1  9  2 -1</clus>
<clus scale="   86.514">  5  6 -1 -1</clus>
<clus scale="   87.598">  1  5  2 -1</clus>
<clus scale="   91.209">  7  8 -1 -1</clus>
<clus scale="   28.935">  1  5  2 -1</clus>
</clustering>
</event>
<event>
 9    1  0.1610296E-005  0.1254280E+03  0.7546771E-02  0.1236346E+00
          1   -1    0    0  502    0 -0.00000000000E+00  0.00000000000E+00  0.50423195228E+03  0.50423195228E+03  0.00000000000E+00 0. -1.
         21   -1    0    0  501  502  0.00000000000E+00 -0.00000000000E+00 -0.83814506372E+02  0.83814506372E+02  0.00000000000E+00 0. -1.
         23    2    1    2    0    0  0.86873140809E+01  0.74034857241E+02  0.27352290564E+03  0.29605881290E+03  0.85319465965E+02 0.  0.
         23    2    1    2    0    0 -0.48736900110E+02 -0.10192616856E+03  0.18103713515E+03  0.23242581759E+03  0.92103675873E+02 0.  0.
        -11    1    4    4    0    0 -0.33654999446E+02 -0.65625613261E+02  0.17838205319E+03  0.19302729601E+03  0.00000000000E+00 0. -1.
         11    1    4    4    0    0 -0.15081900664E+02 -0.36300555300E+02  0.26550819608E+01  0.39398521583E+02  0.00000000000E+00 0.  1.
        -13    1    3    3    0    0  0.36160088744E+02  0.77486463486E+02  0.21181605772E+03  0.22842448719E+03  0.00000000000E+00 0. -1.
         13    1    3    3    0    0 -0.27472774663E+02 -0.34516062452E+01  0.61706847924E+02  0.67634325709E+02  0.00000000000E+00 0.  1.
          1    1    1    2  501    0  0.40049586029E+02  0.27891311319E+02 -0.34142594886E+02  0.59561828160E+02  0.00000000000E+00 0. -1.
<scales pt_clust_5="13000.00000" pt_clust_6="13000.00000" pt_clust_7="13000.00000" pt_clust_8="13000.00000" pt_clust_9="48.80466"></scales>
<clustering>
<clus scale="   48.805">  2  9  1 -1</clus>
<clus scale="   85.319">  7  8 -1 -1</clus>
<clus scale="   92.104">  5  6 -1 -1</clus>
<clus scale="  120.534">  1  7  2 -1</clus>
<clus scale="   48.805">  2  5  1 -1</clus>
</clustering>
</event>
<event>
 9    1  0.1610296E-005  0.9788976E+02  0.7546771E-02  0.1285188E+00
          1   -1    0    0  502    0 -0.00000000000E+00  0.00000000000E+00  0.41877595641E+03  0.41877595641E+03  0.00000000000E+00 0. -1.
         21   -1    0    0  501  502  0.00000000000E+00 -0.00000000000E+00 -0.30553090665E+02  0.30553090665E+02  0.00000000000E+00 0.  1.
         23    2    1    2    0    0 -0.16804275054E+01  0.39724067830E+02  0.20513153528E+03  0.22870270314E+03  0.92979321650E+02 0.  0.
         23    2    1    2    0    0  0.14929076124E+02 -0.16390115389E+02  0.12762773399E+03  0.15901294798E+03  0.92221287929E+02 0.  0.
        -11    1    3    3    0    0 -0.46634573028E+02  0.28968435935E+02  0.11191488927E+03  0.12465510868E+03  0.00000000000E+00 0.  1.
         11    1    3    3    0    0  0.44954145522E+02  0.10755631895E+02  0.93216646016E+02  0.10404759445E+03  0.00000000000E+00 0. -1.
        -13    1    4    4    0    0 -0.16539232595E+02 -0.13379282473E+02  0.12554261339E+03  0.12733223940E+03  0.00000000000E+00 0. -1.
         13    1    4    4    0    0  0.31468308719E+02 -0.30108329158E+01  0.20851206002E+01  0.31680708584E+02  0.00000000000E+00 0.  1.
          1    1    1    2  501    0 -0.13248648618E+02 -0.23333952441E+02  0.55463596481E+02  0.61613395957E+02  0.00000000000E+00 0. -1.
<scales pt_clust_5="13000.00000" pt_clust_6="13000.00000" pt_clust_7="13000.00000" pt_clust_8="13000.00000" pt_clust_9="26.83283"></scales>
<clustering>
<clus scale="   26.833">  2  9  1 -1</clus>
<clus scale="   92.221">  7  8 -1 -1</clus>
<clus scale="   92.979">  5  6 -1 -1</clus>
<clus scale="   97.170">  2  7  1 -1</clus>
<clus scale="   26.833">  2  5  1 -1</clus>
</clustering>
</event>
<event>
 9    1  0.1610296E-005  0.1381884E+03  0.7546771E-02  0.1231318E+00
         -2   -1    0    0    0  501 -0.00000000000E+00  0.00000000000E+00  0.21128623891E+03  0.21128623891E+03  0.00000000000E+00 0.  1.
         21   -1    0    0  501  502  0.00000000000E+00 -0.00000000000E+00 -0.18226145332E+03  0.18226145332E+03  0.00000000000E+00 0.  1.
         23    2    1    2    0    0 -0.47071195768E+02 -0.15582957048E+02 -0.58112200302E+01  0.10009590597E+03  0.86757674540E+02 0.  0.
         23    2    1    2    0    0  0.11546881780E+03 -0.62597666953E+02  0.84482566856E+02  0.17832044513E+03  0.86077646685E+02 0.  0.
        -11    1    3    3    0    0  0.16861136216E+02  0.18770391601E+02  0.74683010580E+01  0.26313514323E+02  0.00000000000E+00 0. -1.
         11    1    3    3    0    0 -0.63932331983E+02 -0.34353348649E+02 -0.13279521088E+02  0.73782391643E+02  0.00000000000E+00 0.  1.
        -13    1    4    4    0    0  0.65211265438E+00 -0.27298914953E+02 -0.59708906996E+01  0.27951879083E+02  0.00000000000E+00 0. -1.
         13    1    4    4    0    0  0.11481670514E+03 -0.35298752000E+02  0.90453457556E+02  0.15036856605E+03  0.00000000000E+00 0.  1.
         -2    1    1    2    0  502 -0.68397622029E+02  0.78180624001E+02 -0.49646561237E+02  0.11513134113E+03  0.00000000000E+00 0.  1.
<scales pt_clust_5="13000.00000" pt_clust_6="13000.00000" pt_clust_7="13000.00000" pt_clust_8="13000.00000" pt_clust_9="108.10491"></scales>
<clustering>
<clus scale="   86.078">  7  8 -1 -1</clus>
<clus scale="   86.758">  5  6 -1 -1</clus>
<clus scale="   99.927">  1  5  2 -1</clus>
<clus scale="  108.105">  2  9  1 -1</clus>
<clus scale="  108.105">  2  5  1 -1</clus>
</clustering>
</event>
<event>
 9    1  0.1610296E-005  0.1818048E+03  0.7546771E-02  0.1192601E+00
         -3   -1    0    0    0  501 -0.00000000000E+00  0.00000000000E+00  0.92330186378E+02  0.92330186378E+02  0.00000000000E+00 0.  1.
         21   -1    0    0  501  502  0.00000000000E+00 -0.00000000000E+00 -0.75494074199E+03  0.75494074199E+03  0.00000000000E+00 0. -1.
         23    2    1    2    0    0  0.24576813990E+02 -0.24267720233E+02  0.71464010422E+00  0.10005785684E+03  0.93904855962E+02 0.  0.
         23    2    1    2    0    0 -0.16596099988E+03  0.24037938882E+01 -0.46424092901E+03  0.50205584740E+03  0.94824058296E+02 0.  0.
        -11    1    3    3    0    0 -0.19831695546E+02 -0.37829989967E+02 -0.22354988640E+02  0.48209436901E+02  0.00000000000E+00 0. -1.
         11    1    3    3    0    0  0.44408509536E+02  0.13562269735E+02  0.23069628745E+02  0.51848419937E+02  0.00000000000E+00 0.  1.
        -13    1    4    4    0    0 -0.81105780670E+02  0.40314916028E+02 -0.15909120952E+03  0.18306679945E+03  0.00000000000E+00 0. -1.
         13    1    4    4    0    0 -0.84855219210E+02 -0.37911122139E+02 -0.30514971949E+03  0.31898904795E+03  0.00000000000E+00 0.  1.
         -3    1    1    2    0  502  0.14138418589E+03  0.21863926344E+02 -0.19908426671E+03  0.24515722413E+03  0.00000000000E+00 0.  1.
<scales pt_clust_5="13000.00000" pt_clust_6="13000.00000" pt_clust_7="13000.00000" pt_clust_8="13000.00000" pt_clust_9="155.11738"></scales>
<clustering>
<clus scale="   93.905">  5  6 -1 -1</clus>
<clus scale="   94.824">  7  8 -1 -1</clus>
<clus scale="  100.055">  1  5  2 -1</clus>
<clus scale="  155.117">  2  9  1 -1</clus>
<clus scale="  155.117">  2  5  1 -1</clus>
</clustering>
</event>
<event>
 9    1  0.1610296E-005  0.9961458E+02  0.7546771E-02  0.1281538E+00
         21   -1    0    0  501  502  0.00000000000E+00  0.00000000000E+00  0.13796754393E+03  0.13796754393E+03  0.00000000000E+00 0.  1.
         -1   -1    0    0    0  501 -0.00000000000E+00 -0.00000000000E+00 -0.13707885487E+03  0.13707885487E+03  0.00000000000E+00 0.  1.
         23    2    1    2    0    0  0.33585003455E+02 -0.24623286783E+02 -0.45230629601E+02  0.11003134733E+03  0.91251459343E+02 0.  0.
         23    2    1    2    0    0 -0.43641918625E+02 -0.32525006930E+01 -0.10657290542E+02  0.10096987661E+03  0.90366710231E+02 0.  0.
        -11    1    4    4    0    0  0.69941314433E+01  0.35747731804E+02 -0.21087503659E+01  0.36486504792E+02  0.00000000000E+00 0. -1.
         11    1    4    4    0    0 -0.50636050068E+02 -0.39000232497E+02 -0.85485401761E+01  0.64483371814E+02  0.00000000000E+00 0.  1.
        -13    1    3    3    0    0 -0.30255604310E+02 -0.17752412922E+01 -0.24953030620E+02  0.39258206925E+02  0.00000000000E+00 0. -1.
         13    1    3    3    0    0  0.63840607765E+02 -0.22848045491E+02 -0.20277598981E+02  0.70773140407E+02  0.00000000000E+00 0.  1.
         -1    1    1    2    0  502  0.10056915170E+02  0.27875787476E+02  0.56776609206E+02  0.64045174861E+02  0.00000000000E+00 0.  1.
<scales pt_clust_5="13000.00000" pt_clust_6="13000.00000" pt_clust_7="13000.00000" pt_clust_8="13000.00000" pt_clust_9="29.63446"></scales>
<clustering>
<clus scale="   29.634">  1  9  2 -1</clus>
<clus scale="   90.367">  5  6 -1 -1</clus>
<clus scale="   91.251">  7  8 -1 -1</clus>
<clus scale="   98.805">  1  5  2 -1</clus>
<clus scale="   29.634">  1  5  2 -1</clus>
</clustering>
</event>
<event>
 9    1  0.1610296E-005  0.9234906E+02  0.7546771E-02  0.1298641E+00
         21   -1    0    0  501  502  0.00000000000E+00  0.00000000000E+00  0.44185087587E+02  0.44185087587E+02  0.00000000000E+00 0.  1.
          2   -1    0    0  502    0 -0.00000000000E+00 -0.00000000000E+00 -0.24884947672E+03  0.24884947672E+03  0.00000000000E+00 0. -1.
         23    2    1    2    0    0  0.17659310391E+02  0.99687173383E+01 -0.96843231121E+02  0.13350408148E+03  0.89629804138E+02 0.  0.
         23    2    1    2    0    0  0.23760962320E+01  0.53584986357E+01 -0.88357865683E+02  0.12766889441E+03  0.91966705010E+02 0.  0.
        -11    1    3    3    0    0  0.14294036085E+02  0.48781957923E+02 -0.68615994407E+02  0.85394107378E+02  0.00000000000E+00 0.  1.
         11    1    3    3    0    0  0.33652743058E+01 -0.38813240585E+02 -0.28227236714E+02  0.48109974105E+02  0.00000000000E+00 0. -1.
        -13    1    4    4    0    0  0.57311843371E+01 -0.41580166159E+02 -0.58272404330E+02  0.71815247672E+02  0.00000000000E+00 0. -1.
         13    1    4    4    0    0 -0.33550881051E+01  0.46938664795E+02 -0.30085461353E+02  0.55853646736E+02  0.00000000000E+00 0.  1.
          2    1    1    2  501    0 -0.20035406623E+02 -0.15327215974E+02 -0.19463292327E+02  0.31861588414E+02  0.00000000000E+00 0. -1.
<scales pt_clust_5="13000.00000" pt_clust_6="13000.00000" pt_clust_7="13000.00000" pt_clust_8="13000.00000" pt_clust_9="25.22580"></scales>
<clustering>
<clus scale="   25.226">  1  9  2 -1</clus>
<clus scale="   89.630">  5  6 -1 -1</clus>
<clus scale="   90.022">  2  5  1 -1</clus>
<clus scale="   91.967">  7  8 -1 -1</clus>
<clus scale="   25.226">  1  5  2 -1</clus>
</clustering>
</event>
<event>
 9    1  0.1610296E-005  0.1421118E+03  0.7546771E-02  0.1211718E+00
          2   -1    0    0  502    0 -0.00000000000E+00  0.00000000000E+00  0.31528738199E+03  0.31528738199E+03  0.00000000000E+00 0. -1.
         21   -1    0    0  501  502  0.00000000000E+00 -0.00000000000E+00 -0.32521075931E+03  0.32521075931E+03  0.00000000000E+00 0. -1.
         23    2    1    2    0    0  0.64990773092E+02 -0.88663278388E+02  0.26531579296E+03  0.30011791635E+03  0.87139636227E+02 0.  0.
         23    2    1    2    0    0 -0.44241159550E+02  0.79607061523E+02 -0.10084005030E+03  0.16451773725E+03  0.92751310948E+02 0.  0.
        -11    1    4    4    0    0 -0.14247107892E+02  0.95137746330E+02 -0.73537575121E+02  0.12108652202E+03  0.00000000000E+00 0.  1.
         11    1    4    4    0    0 -0.29994051658E+02 -0.15530684807E+02 -0.27302475182E+02  0.43431215232E+02  0.00000000000E+00 0. -1.
        -13    1    3    3    0    0  0.73724830170E+02 -0.53097299722E+02  0.23702205069E+03  0.25383878020E+03  0.00000000000E+00 0. -1.
         13    1    3    3    0    0 -0.87340570776E+01 -0.35565978666E+02  0.28293742273E+02  0.46279136156E+02  0.00000000000E+00 0.  1.
          2    1    1    2  501    0 -0.20749613542E+02  0.90562168656E+01 -0.17439911998E+03  0.17586248768E+03  0.00000000000E+00 0. -1.
<scales pt_clust_5="13000.00000" pt_clust_6="13000.00000" pt_clust_7="13000.00000" pt_clust_8="13000.00000" pt_clust_9="22.63982"></scales>
<clustering>
<clus scale="   22.640">  2  9  1 -1</clus>
<clus scale="   87.140">  7  8 -1 -1</clus>
<clus scale="   92.751">  5  6 -1 -1</clus>
<clus scale="  138.515">  1  7  2 -1</clus>
<clus scale="   22.640">  2  5  1 -1</clus>
</clustering>
</event>
<event>
 9    1  0.1610296E-005  0.9749027E+02  0.7546771E-02  0.1287312E+00
         21   -1    0    0  501  502  0.00000000000E+00  0.00000000000E+00  0.62052530124E+03  0.62052530124E+03  0.00000000000E+00 0. -1.
          2   -1    0    0  502    0 -0.00000000000E+00 -0.00000000000E+00 -0.29949862818E+03  0.29949862818E+03  0.00000000000E+00 0. -1.
         23    2    1    2    0    0 -0.47252690673E+01  0.22644163352E+02 -0.19340621232E+03  0.21392247082E+03  0.88440795205E+02 0.  0.
         23    2    1    2    0    0 -0.46662564891E+02 -0.77717119360E+02 -0.48830019869E+02  0.13782437796E+03  0.91617917001E+02 0.  0.
        -11    1    4    4    0    0 -0.11709401074E+02 -0.44100160107E+02  0.23046027430E+02  0.51118035714E+02  0.00000000000E+00 0. -1.
         11    1    4    4    0    0 -0.34953163817E+02 -0.33616959253E+02 -0.71876047298E+02  0.86706342245E+02  0.00000000000E+00 0.  1.
        -11    1    3    3    0    0 -0.69414658335E+01 -0.22613408760E+02 -0.11210523282E+02  0.26176822495E+02  0.00000000000E+00 0.  1.
         11    1    3    3    0    0  0.22161967662E+01  0.45257572112E+02 -0.18219568903E+03  0.18774564832E+03  0.00000000000E+00 0. -1.
          2    1    1    2  501    0  0.51387833958E+02  0.55072956008E+02  0.56326290524E+03  0.56827708064E+03  0.00000000000E+00 0. -1.
<scales pt_clust_5="13000.00000" pt_clust_6="13000.00000" pt_clust_7="13000.00000" pt_clust_8="13000.00000" pt_clust_9="75.32423"></scales>
<clustering>
<clus scale="   75.324">  1  9  2 -1</clus>
<clus scale="   88.441">  7  8 -1 -1</clus>
<clus scale="   91.618">  5  6 -1 -1</clus>
<clus scale="   94.511">  2  7  1 -1</clus>
<clus scale="   75.324">  1  5  2 -1</clus>
</clustering>
</event>
<event>
 9    1  0.1610296E-005  0.1036847E+03  0.7546771E-02  0.1273715E+00
         -1   -1    0    0    0  501 -0.00000000000E+00  0.00000000000E+00  0.32442496976E+03  0.32442496976E+03  0.00000000000E+00 0.  1.
         21   -1    0    0  501  502  0.00000000000E+00 -0.00000000000E+00 -0.67243278419E+02  0.67243278419E+02  0.00000000000E+00 0.  1.
         23    2    1    2    0    0  0.72632009663E+01  0.30685612464E+02  0.13598433958E+03  0.16688757502E+03  0.91462348452E+02 0.  0.
         23    2    1    2    0    0 -0.37099031159E+02 -0.64148008494E+02  0.13488065481E+03  0.17790699725E+03  0.89256952219E+02 0.  0.
        -13    1    4    4    0    0 -0.56708968323E+02 -0.33057037267E+02  0.12274983417E+03  0.13919840728E+03  0.00000000000E+00 0.  1.
         13    1    4    4    0    0  0.19609937164E+02 -0.31090971228E+02  0.12130820643E+02  0.38708589963E+02  0.00000000000E+00 0. -1.
        -13    1    3    3    0    0  0.31028956500E+02 -0.22566605356E+02  0.51021499717E+02  0.63837616279E+02  0.00000000000E+00 0. -1.
         13    1    3    3    0    0 -0.23765755534E+02  0.53252217820E+02  0.84962839860E+02  0.10304995874E+03  0.00000000000E+00 0.  1.
         -1    1    1    2    0  502  0.29835830193E+02  0.33462396030E+02 -0.13683303051E+02  0.46873675915E+02  0.00000000000E+00 0.  1.
<scales pt_clust_5="13000.00000" pt_clust_6="13000.00000" pt_clust_7="13000.00000" pt_clust_8="13000.00000" pt_clust_9="44.83201"></scales>
<clustering>
<clus scale="   44.832">  2  9  1 -1</clus>
<clus scale="   89.257">  5  6 -1 -1</clus>
<clus scale="   91.462">  7  8 -1 -1</clus>
<clus scale="  101.745">  2  5  1 -1</clus>
<clus scale="   44.832">  2  5  1 -1</clus>
</clustering>
</event>
<event>
 9    1  0.1610296E-005  0.1730298E+03  0.7546771E-02  0.1174806E+00
         21   -1    0    0  501  502  0.00000000000E+00  0.00000000000E+00  0.29399206148E+03  0.29399206148E+03  0.00000000000E+00 0. -1.
          3   -1    0    0  502    0 -0.00000000000E+00 -0.00000000000E+00 -0.28522405620E+03  0.28522405620E+03  0.00000000000E+00 0. -1.
         23    2    1    2    0    0  0.77073034411E+02 -0.13000706466E+03 -0.21620080917E+03  0.27848184492E+03  0.89259501280E+02 0.  0.
         23    2    1    2    0    0 -0.71714734555E+02  0.10841512612E+03  0.13434958382E+03  0.20742420821E+03  0.89878522206E+02 0.  0.
        -13    1    3    3    0    0  0.54399390442E+02 -0.24000166392E+02 -0.11835062720E+03  0.13244686718E+03  0.00000000000E+00 0.  1.
         13    1    3    3    0    0  0.22673643969E+02 -0.10600689827E+03 -0.97850181972E+02  0.14603497774E+03  0.00000000000E+00 0. -1.
        -13    1    4    4    0    0 -0.65023277169E+02  0.44791582949E+02  0.28889403734E+02  0.84076810864E+02  0.00000000000E+00 0.  1.
         13    1    4    4    0    0 -0.66914573860E+01  0.63623543176E+02  0.10546018009E+03  0.12334739735E+03  0.00000000000E+00 0. -1.
          3    1    1    2  501    0 -0.53582998559E+01  0.21591938540E+02  0.90619230629E+02  0.93310064554E+02  0.00000000000E+00 0. -1.
<scales pt_clust_5="13000.00000" pt_clust_6="13000.00000" pt_clust_7="13000.00000" pt_clust_8="13000.00000" pt_clust_9="22.24687"></scales>
<clustering>
<clus scale="   22.247">  1  9  2 -1</clus>
<clus scale="   89.260">  5  6 -1 -1</clus>
<clus scale="   89.879">  7  8 -1 -1</clus>
<clus scale="  172.709">  2  5  1 -1</clus>
<clus scale="   22.247">  1  5  2 -1</clus>
</clustering>
</event>
<event>
 9    1  0.1610296E-005  0.1630167E+03  0.7546771E-02  0.1185945E+00
         21   -1    0    0  501  502  0.00000000000E+00  0.00000000000E+00  0.72452699040E+02  0.72452699040E+02  0.00000000000E+00 0. -1.
          2   -1    0    0  502    0 -0.00000000000E+00 -0.00000000000E+00 -0.69776088971E+03  0.69776088971E+03  0.00000000000E+00 0. -1.
         23    2    1    2    0    0  0.98602900538E+02  0.74668621807E+02 -0.38858574582E+03  0.41869515852E+03  0.94914797760E+02 0.  0.
         23    2    1    2    0    0 -0.89401187847E+02 -0.12599607921E+03 -0.23961442078E+03  0.29929254657E+03  0.91067960451E+02 0.  0.
        -13    1    3    3    0    0 -0.18678980736E+02  0.88309510881E+01 -0.67095570902E+02  0.70204740959E+02  0.00000000000E+00 0.  1.
         13    1    3    3    0    0  0.11728188127E+03  0.65837670719E+02 -0.32149017492E+03  0.34849041756E+03  0.00000000000E+00 0. -1.
        -13    1    4    4    0    0 -0.40308100079E+02 -0.10326568745E+03 -0.21038044290E+03  0.23779923442E+03  0.00000000000E+00 0. -1.
         13    1    4    4    0    0 -0.49093087769E+02 -0.22730391756E+02 -0.29233977883E+02  0.61493312148E+02  0.00000000000E+00 0.  1.
          2    1    1    2  501    0 -0.92017126902E+01  0.51327457401E+02  0.28919759321E+01  0.52225883664E+02  0.00000000000E+00 0. -1.
<scales pt_clust_5="13000.00000" pt_clust_6="13000.00000" pt_clust_7="13000.00000" pt_clust_8="13000.00000" pt_clust_9="52.14575"></scales>
<clustering>
<clus scale="   52.146">  1  9  2 -1</clus>
<clus scale="   91.068">  7  8 -1 -1</clus>
<clus scale="   94.915">  5  6 -1 -1</clus>
<clus scale="  160.807">  1  7  2 -1</clus>
<clus scale="   52.146">  1  5  2 -1</clus>
</clustering>
</event>
<event>
 9    1  0.1610296E-005  0.2064381E+03  0.7546771E-02  0.1172781E+00
         -2   -1    0    0    0  501 -0.00000000000E+00  0.00000000000E+00  0.24283453908E+03  0.24283453908E+03  0.00000000000E+00 0.  1.
         21   -1    0    0  501  502  0.00000000000E+00 -0.00000000000E+00 -0.34306919454E+03  0.34306919454E+03  0.00000000000E+00 0.  1.
         23    2    1    2    0    0 -0.16142464764E+02 -0.37515956751E+02  0.98447482856E+02  0.14502118510E+03  0.98342315758E+02 0.  0.
         23    2    1    2    0    0  0.17742884104E+03  0.94428067005E+02 -0.13168163418E+03  0.25719435885E+03  0.91712768856E+02 0.  0.
        -13    1    3    3    0    0 -0.85438129469E+01  0.25404439878E+02 -0.13089861516E+01  0.26834599866E+02  0.00000000000E+00 0.  1.
         13    1    3    3    0    0 -0.75986518176E+01 -0.62920396629E+02  0.99756469008E+02  0.11818658524E+03  0.00000000000E+00 0. -1.
        -13    1    4    4    0    0  0.12816854837E+03  0.75591945996E+02 -0.44515827853E+02  0.15531573655E+03  0.00000000000E+00 0.  1.
         13    1    4    4    0    0  0.49260292677E+02  0.18836121009E+02 -0.87165806329E+02  0.10187862230E+03  0.00000000000E+00 0. -1.
         -2    1    1    2    0  502 -0.16128637628E+03 -0.56912110254E+02 -0.67000504131E+02  0.18368818966E+03  0.00000000000E+00 0.  1.
<scales pt_clust_5="13000.00000" pt_clust_6="13000.00000" pt_clust_7="13000.00000" pt_clust_8="13000.00000" pt_clust_9="184.94729"></scales>
<clustering>
<clus scale="   91.713">  7  8 -1 -1</clus>
<clus scale="   98.342">  5  6 -1 -1</clus>
<clus scale="  106.486">  1  5  2 -1</clus>
<clus scale="  184.947">  2  9  1 -1</clus>
<clus scale="  184.947">  2  5  1 -1</clus>
</clustering>
</event>
<event>
 9    1  0.1610296E-005  0.1068231E+03  0.7546771E-02  0.1266613E+00
          1   -1    0    0  502    0 -0.00000000000E+00  0.00000000000E+00  0.25731967152E+03  0.25731967152E+03  0.00000000000E+00 0. -1.
         21   -1    0    0  501  502  0.00000000000E+00 -0.00000000000E+00 -0.17866946878E+03  0.17866946878E+03  0.00000000000E+00 0.  1.
         23    2    1    2    0    0  0.21305043964E+02 -0.56616144546E+02  0.17567398370E+03  0.20694146021E+03  0.91126981094E+02 0.  0.
         23    2    1    2    0    0  0.70156308414E+01  0.47387704643E+02  0.22989112355E+02  0.10539364949E+03  0.91019275089E+02 0.  0.
        -13    1    3    3    0    0 -0.31318734125E+02 -0.34792108649E+02  0.11262748008E+03  0.12196845166E+03  0.00000000000E+00 0.  1.
         13    1    3    3    0    0  0.52623778090E+02 -0.21824035897E+02  0.63046503622E+02  0.84973008551E+02  0.00000000000E+00 0. -1.
        -13    1    4    4    0    0 -0.22754835845E+02 -0.18042709414E+02 -0.24432038113E+01  0.29142600470E+02  0.00000000000E+00 0.  1.
         13    1    4    4    0    0  0.29770466686E+02  0.65430414057E+02  0.25432316166E+02  0.76251049015E+02  0.00000000000E+00 0. -1.
          1    1    1    2  501    0 -0.28320674806E+02  0.92284399029E+01 -0.12001289332E+03  0.12365403061E+03  0.00000000000E+00 0. -1.
<scales pt_clust_5="13000.00000" pt_clust_6="13000.00000" pt_clust_7="13000.00000" pt_clust_8="13000.00000" pt_clust_9="29.78632"></scales>
<clustering>
<clus scale="   29.786">  2  9  1 -1</clus>
<clus scale="   91.019">  7  8 -1 -1</clus>
<clus scale="   91.127">  5  6 -1 -1</clus>
<clus scale="  106.731">  2  7  1 -1</clus>
<clus scale="   29.786">  2  5  1 -1</clus>
</clustering>
</event>
<event>
 9    1  0.1610296E-005  0.2044171E+03  0.7546771E-02  0.1146592E+00
          2   -1    0    0  502    0 -0.00000000000E+00  0.00000000000E+00  0.13142660316E+03  0.13142660316E+03  0.00000000000E+00 0. -1.
         21   -1    0    0  501  502  0.00000000000E+00 -0.00000000000E+00 -0.72731744382E+03  0.72731744382E+03  0.00000000000E+00 0. -1.
         23    2    1    2    0    0 -0.16763920718E+03  0.82579300149E+02  0.14348670096E+02  0.20750215813E+03  0.89045026230E+02 0.  0.
         23    2    1    2    0    0  0.14682873501E+03 -0.40738101977E+02 -0.51027986493E+03  0.54089836884E+03  0.94695482901E+02 0.  0.
        -11    1    3    3    0    0 -0.13659722980E+03  0.22188752218E+02  0.17716692772E+02  0.13951711407E+03  0.00000000000E+00 0. -1.
         11    1    3    3    0    0 -0.31041977378E+02  0.60390547931E+02 -0.33680226767E+01  0.67985044059E+02  0.00000000000E+00 0.  1.
        -13    1    4    4    0    0  0.15042262111E+03 -0.18859472824E+02 -0.38687682220E+03  0.41551933796E+03  0.00000000000E+00 0. -1.
         13    1    4    4    0    0 -0.35938861006E+01 -0.21878629153E+02 -0.12340304273E+03  0.12537903088E+03  0.00000000000E+00 0.  1.
          2    1    1    2  501    0  0.20810472171E+02 -0.41841198173E+02 -0.99959645824E+02  0.11034352002E+03  0.00000000000E+00 0. -1.
<scales pt_clust_5="13000.00000" pt_clust_6="13000.00000" pt_clust_7="13000.00000" pt_clust_8="13000.00000" pt_clust_9="46.73074"></scales>
<clustering>
<clus scale="   46.731">  2  9  1 -1</clus>
<clus scale="   89.045">  5  6 -1 -1</clus>
<clus scale="   94.695">  7  8 -1 -1</clus>
<clus scale="  201.862">  1  5  2 -1</clus>
<clus scale="   46.731">  2  5  1 -1</clus>
</clustering>
</event>
<event>
 9    1  0.1610296E-005  0.1163079E+03  0.7546771E-02  0.1249486E+00
         -2   -1    0    0    0  501 -0.00000000000E+00  0.00000000000E+00  0.18672837634E+03  0.18672837634E+03  0.00000000000E+00 0.  1.
         21   -1    0    0  501  502  0.00000000000E+00 -0.00000000000E+00 -0.29323608395E+03  0.29323608395E+03  0.00000000000E+00 0.  1.
         23    2    1    2    0    0  0.71830373003E+02  0.13335583917E+02  0.71542280155E+02  0.13709975680E+03  0.91326913787E+02 0.  0.
         23    2    1    2    0    0 -0.23753427347E+02 -0.11843147494E+03 -0.28377542917E+02  0.15376584108E+03  0.90820754093E+02 0.  0.
        -11    1    4    4    0    0  0.37361019915E+01 -0.85369455279E+02  0.21298935228E+02  0.88065583485E+02  0.00000000000E+00 0.  1.
         11    1    4    4    0    0 -0.27489529339E+02 -0.33062019662E+02 -0.49676478145E+02  0.65700257597E+02  0.00000000000E+00 0. -1.
        -11    1    3    3    0    0  0.58928245080E+02  0.43505993689E+02  0.74092558547E+02  0.10418741185E+03  0.00000000000E+00 0. -1.
         11    1    3    3    0    0  0.12902127923E+02 -0.30170409772E+02 -0.25502783922E+01  0.32912344958E+02  0.00000000000E+00 0.  1.
         -2    1    1    2    0  502 -0.48076945656E+02  0.10509589103E+03 -0.14967244485E+03  0.18909886240E+03  0.00000000000E+00 0.  1.
<scales pt_clust_5="13000.00000" pt_clust_6="13000.00000" pt_clust_7="13000.00000" pt_clust_8="13000.00000" pt_clust_9="115.57049"></scales>
<clustering>
<clus scale="   90.821">  5  6 -1 -1</clus>
<clus scale="   91.327">  7  8 -1 -1</clus>
<clus scale="  115.570">  2  9  1 -1</clus>
<clus scale="  115.911">  2  5  1 -1</clus>
<clus scale="  115.570">  2  5  1 -1</clus>
</clustering>
</event>
<event>
 9    1  0.1610296E-005  0.2319337E+03  0.7546771E-02  0.1153054E+00
         21   -1    0    0  501  502  0.00000000000E+00  0.00000000000E+00  0.56558506958E+03  0.56558506958E+03  0.00000000000E+00 0. -1.
          2   -1    0    0  502    0 -0.00000000000E+00 -0.00000000000E+00 -0.23838657194E+03  0.23838657194E+03  0.00000000000E+00 0. -1.
         23    2    1    2    0    0 -0.40213801550E+02 -0.57690424502E+02  0.26082347749E+02  0.12141246296E+03  0.95474406953E+02 0.  0.
         23    2    1    2    0    0  0.23601929076E+03  0.11778272244E+03 -0.42602868603E+02  0.28244214874E+03  0.91546095779E+02 0.  0.
        -11    1    3    3    0    0 -0.64972188248E+02 -0.11594948552E+02  0.18497566523E+02  0.68541870742E+02  0.00000000000E+00 0.  1.
         11    1    3    3    0    0  0.24758386698E+02 -0.46095475950E+02  0.75847812252E+01  0.52870592215E+02  0.00000000000E+00 0. -1.
        -13    1    4    4    0    0  0.45759781003E+02 -0.11252538012E+02  0.59049782110E+01  0.47491535423E+02  0.00000000000E+00 0.  1.
         13    1    4    4    0    0  0.19025950976E+03  0.12903526045E+03 -0.48507846814E+02  0.23495061331E+03  0.00000000000E+00 0. -1.
          2    1    1    2  501    0 -0.19580548921E+03 -0.60092297939E+02  0.34371901850E+03  0.40011702983E+03  0.00000000000E+00 0. -1.
<scales pt_clust_5="13000.00000" pt_clust_6="13000.00000" pt_clust_7="13000.00000" pt_clust_8="13000.00000" pt_clust_9="213.10224"></scales>
<clustering>
<clus scale="   91.546">  7  8 -1 -1</clus>
<clus scale="   95.474">  5  6 -1 -1</clus>
<clus scale="  118.578">  2  5  1 -1</clus>
<clus scale="  213.102">  1  9  2 -1</clus>
<clus scale="  213.102">  1  5  2 -1</clus>
</clustering>
</event>
<event>
 9    1  0.1610296E-005  0.9711431E+02  0.7546771E-02  0.1288559E+00
          3   -1    0    0  502    0 -0.00000000000E+00  0.00000000000E+00  0.71993687770E+02  0.71993687770E+02  0.00000000000E+00 0. -1.
         21   -1    0    0  501  502  0.00000000000E+00 -0.00000000000E+00 -0.20684394070E+03  0.20684394070E+03  0.00000000000E+00 0. -1.
         23    2    1    2    0    0  0.24016821377E+02 -0.64714561702E+01 -0.21790877597E+02  0.92552415579E+02  0.86443159527E+02 0.  0.
         23    2    1    2    0    0 -0.46765984016E+02  0.16465850330E+02 -0.42638200041E+02  0.11160888301E+03  0.90445260658E+02 0.  0.
        -13    1    3    3    0    0  0.18354553226E+01  0.39153590709E+02 -0.84662410794E+01  0.40100496252E+02  0.00000000000E+00 0. -1.
         13    1    3    3    0    0  0.22181366055E+02 -0.45625046879E+02 -0.13324636517E+02  0.52451919327E+02  0.00000000000E+00 0.  1.
        -13    1    4    4    0    0 -0.46789635632E+02 -0.21353590410E+02  0.39723224763E+01  0.51585125490E+02  0.00000000000E+00 0. -1.
         13    1    4    4    0    0  0.23651616619E-01  0.37819440739E+02 -0.46610522517E+02  0.60023757518E+02  0.00000000000E+00 0.  1.
          3    1    1    2  501    0  0.22749162638E+02 -0.99943941594E+01 -0.70421175294E+02  0.74676329885E+02  0.00000000000E+00 0. -1.
<scales pt_clust_5="13000.00000" pt_clust_6="13000.00000" pt_clust_7="13000.00000" pt_clust_8="13000.00000" pt_clust_9="24.84778"></scales>
<clustering>
<clus scale="   24.848">  2  9  1 -1</clus>
<clus scale="   86.443">  5  6 -1 -1</clus>
<clus scale="   90.445">  7  8 -1 -1</clus>
<clus scale="   93.398">  1  5  2 -1</clus>
<clus scale="   24.848">  2  5  1 -1</clus>
</clustering>
</event>
<event>
 9    1  0.1610296E-005  0.1045593E+03  0.7546771E-02  0.1271184E+00
         21   -1    0    0  501  502  0.00000000000E+00  0.00000000000E+00  0.20846916830E+02  0.20846916830E+02  0.00000000000E+00 0.  1.
          2   -1    0    0  502    0 -0.00000000000E+00 -0.00000000000E+00 -0.79344041248E+03  0.79344041248E+03  0.00000000000E+00 0. -1.
         23    2    1    2    0    0  0.30511769973E+02 -0.49608289778E+02 -0.54381594011E+03  0.55441665503E+03  0.90830061854E+02 0.  0.
         23    2    1    2    0    0 -0.11621984625E+02  0.33634722908E+02 -0.19195640694E+03  0.21551105510E+03  0.91276435050E+02 0.  0.
        -13    1    4    4    0    0  0.11873604608E+02 -0.24409759852E+02 -0.10437070071E+03  0.10784276530E+03  0.00000000000E+00 0.  1.
         13    1    4    4    0    0 -0.23495589233E+02  0.58044482760E+02 -0.87585706233E+02  0.10766828980E+03  0.00000000000E+00 0. -1.
        -13    1    3    3    0    0  0.62629480494E+02 -0.25584316060E+02 -0.35469522964E+03  0.36108962182E+03  0.00000000000E+00 0. -1.
         13    1    3    3    0    0 -0.32117710521E+02 -0.24023973718E+02 -0.18912071047E+03  0.19332703321E+03  0.00000000000E+00 0.  1.
          2    1    1    2  501    0 -0.18889785348E+02  0.15973566870E+02 -0.36821148598E+02  0.44359619173E+02  0.00000000000E+00 0. -1.
<scales pt_clust_5="13000.00000" pt_clust_6="13000.00000" pt_clust_7="13000.00000" pt_clust_8="13000.00000" pt_clust_9="24.73821"></scales>
<clustering>
<clus scale="   24.738">  1  9  2 -1</clus>
<clus scale="   90.830">  7  8 -1 -1</clus>
<clus scale="   91.276">  5  6 -1 -1</clus>
<clus scale="  104.170">  2  7  1 -1</clus>
<clus scale="   24.738">  1  5  2 -1</clus>
</clustering>
</event>
<event>
 9    1  0.1610296E-005  0.1107220E+03  0.7546771E-02  0.1259814E+00
         21   -1    0    0  501  502  0.00000000000E+00  0.00000000000E+00  0.32065751700E+03  0.32065751700E+03  0.00000000000E+00 0. -1.
          1   -1    0    0  502    0 -0.00000000000E+00 -0.00000000000E+00 -0.53648321229E+02  0.53648321229E+02  0.00000000000E+00 0. -1.
         23    2    1    2    0    0  0.26590754207E+02  0.44460296632E+02  0.10368552926E+03  0.14805753747E+03  0.92122522972E+02 0.  0.
         23    2    1    2    0    0 -0.50043000322E+01 -0.75671663818E+02  0.11599555311E+03  0.16558468099E+03  0.90620497199E+02 0.  0.
        -11    1    4    4    0    0 -0.19092181430E+02  0.10020531456E+02  0.56070241727E+02  0.60073242377E+02  0.00000000000E+00 0.  1.
         11    1    4    4    0    0  0.14087881398E+02 -0.85692195274E+02  0.59925311387E+02  0.10551143861E+03  0.00000000000E+00 0. -1.
        -13    1    3    3    0    0  0.31170141359E+02  0.20478193912E+02 -0.41197379624E+01  0.37522078555E+02  0.00000000000E+00 0. -1.
         13    1    3    3    0    0 -0.45793871517E+01  0.23982102720E+02  0.10780526722E+03  0.11053545892E+03  0.00000000000E+00 0.  1.
          1    1    1    2  501    0 -0.21586454175E+02  0.31211367186E+02  0.47328113401E+02  0.60663619769E+02  0.00000000000E+00 0. -1.
<scales pt_clust_5="13000.00000" pt_clust_6="13000.00000" pt_clust_7="13000.00000" pt_clust_8="13000.00000" pt_clust_9="37.94897"></scales>
<clustering>
<clus scale="   37.949">  1  9  2 -1</clus>
<clus scale="   90.620">  5  6 -1 -1</clus>
<clus scale="   92.123">  7  8 -1 -1</clus>
<clus scale="  109.475">  1  5  2 -1</clus>
<clus scale="   37.949">  1  5  2 -1</clus>
</clustering>
</event>
<event>
 9    1  0.1610296E-005  0.1209926E+03  0.7546771E-02  0.1241789E+00
         21   -1    0    0  501  502  0.00000000000E+00  0.00000000000E+00  0.10729761195E+03  0.10729761195E+03  0.00000000000E+00 0.  1.
          1   -1    0    0  502    0 -0.00000000000E+00 -0.00000000000E+00 -0.20883648230E+03  0.20883648230E+03  0.00000000000E+00 0. -1.
         23    2    1    2    0    0  0.50387833471E+02 -0.77440717921E+02 -0.10095674786E+03  0.16469666842E+03  0.91633667918E+02 0.  0.
         23    2    1    2    0    0 -0.32444549099E+02  0.38786370642E+02  0.13807665848E+02  0.10645758561E+03  0.92658159837E+02 0.  0.
        -11    1    3    3    0    0  0.31133182815E+02  0.98490885405E+01 -0.41238970520E+01  0.32913312567E+02  0.00000000000E+00 0.  1.
         11    1    3    3    0    0  0.19254650656E+02 -0.87289806462E+02 -0.96832850812E+02  0.13178335585E+03  0.00000000000E+00 0. -1.
        -11    1    4    4    0    0  0.19053280796E+02  0.10945396402E+02 -0.27211247343E+02  0.34975437002E+02  0.00000000000E+00 0. -1.
         11    1    4    4    0    0 -0.51497829895E+02  0.27840974240E+02  0.41018913191E+02  0.71482148610E+02  0.00000000000E+00 0.  1.
          1    1    1    2  501    0 -0.17943284373E+02  0.38654347279E+02 -0.14389788329E+02  0.44979840215E+02  0.00000000000E+00 0. -1.
<scales pt_clust_5="13000.00000" pt_clust_6="13000.00000" pt_clust_7="13000.00000" pt_clust_8="13000.00000" pt_clust_9="42.61596"></scales>
<clustering>
<clus scale="   42.616">  1  9  2 -1</clus>
<clus scale="   91.634">  5  6 -1 -1</clus>
<clus scale="   92.658">  7  8 -1 -1</clus>
<clus scale="  120.210">  2  5  1 -1</clus>
<clus scale="   42.616">  1  5  2 -1</clus>
</clustering>
</event>
<event>
 9    1  0.1610296E-005  0.2104695E+03  0.7546771E-02  0.1141743E+00
          2   -1    0    0  502    0 -0.00000000000E+00  0.00000000000E+00  0.71635372907E+03  0.71635372907E+03  0.00000000000E+00 0. -1.
         21   -1    0    0  501  502  0.00000000000E+00 -0.00000000000E+00 -0.16134611125E+03  0.16134611125E+03  0.00000000000E+00 0. -1.
         23    2    1    2    0    0  0.17379931845E+03 -0.66930283300E+02  0.48780905404E+03  0.53071506111E+03  0.94947021928E+02 0.  0.
         23    2    1    2    0    0 -0.19253446119E+03  0.50934438486E+02 -0.52946250415E+02  0.22434037858E+03  0.88664898686E+02 0.  0.
        -13    1    4    4    0    0 -0.13572842761E+03  0.62267703183E+02 -0.54457825094E+01  0.14942934608E+03  0.00000000000E+00 0. -1.
         13    1    4    4    0    0 -0.56806033582E+02 -0.11333264697E+02 -0.47500467906E+02  0.74911032507E+02  0.00000000000E+00 0.  1.
        -13    1    3    3    0    0  0.73045658856E+02  0.83829442435E+01  0.10828449153E+03  0.13088725353E+03  0.00000000000E+00 0.  1.
         13    1    3    3    0    0  0.10075365959E+03 -0.75313227544E+02  0.37952456251E+03  0.39982780758E+03  0.00000000000E+00 0. -1.
          2    1    1    2  501    0  0.18735142746E+02  0.15995844814E+02  0.12014481419E+03  0.12264440062E+03  0.00000000000E+00 0. -1.
<scales pt_clust_5="13000.00000" pt_clust_6="13000.00000" pt_clust_7="13000.00000" pt_clust_8="13000.00000" pt_clust_9="24.63480"></scales>
<clustering>
<clus scale="   24.635">  2  9  1 -1</clus>
<clus scale="   88.665">  5  6 -1 -1</clus>
<clus scale="   94.947">  7  8 -1 -1</clus>
<clus scale="  207.711">  2  5  1 -1</clus>
<clus scale="   24.635">  2  5  1 -1</clus>
</clustering>
</event>
<event>
 9    1  0.1610296E-005  0.1491230E+03  0.7546771E-02  0.1202953E+00
         -1   -1    0    0    0  501 -0.00000000000E+00  0.00000000000E+00  0.22631619807E+03  0.22631619807E+03  0.00000000000E+00 0.  1.
         21   -1    0    0  501  502  0.00000000000E+00 -0.00000000000E+00 -0.18704341667E+03  0.18704341667E+03  0.00000000000E+00 0.  1.
         23    2    1    2    0    0  0.27117707409E+02  0.10693000462E+03  0.14128218121E+03  0.20378567848E+03  0.96946129795E+02 0.  0.
         23    2    1    2    0    0 -0.51408148334E+02 -0.11702606166E+03 -0.92382494378E+02  0.18156263146E+03  0.89958696374E+02 0.  0.
        -11    1    4    4    0    0  0.18473900509E+02 -0.11877530837E+02  0.45029854186E+01  0.22419581095E+02  0.00000000000E+00 0. -1.
         11    1    4    4    0    0 -0.69882048843E+02 -0.10514853083E+03 -0.96885479796E+02  0.15914305037E+03  0.00000000000E+00 0.  1.
        -13    1    3    3    0    0 -0.14646524023E+02  0.98733219267E+02  0.74325636987E+02  0.12444705527E+03  0.00000000000E+00 0.  1.
         13    1    3    3    0    0  0.41764231433E+02  0.81967853479E+01  0.66956544225E+02  0.79338623203E+02  0.00000000000E+00 0. -1.
         -1    1    1    2    0  502  0.24290440924E+02  0.10096057049E+02 -0.96269054353E+01  0.28011304798E+02  0.00000000000E+00 0.  1.
<scales pt_clust_5="13000.00000" pt_clust_6="13000.00000" pt_clust_7="13000.00000" pt_clust_8="13000.00000" pt_clust_9="26.30505"></scales>
<clustering>
<clus scale="   26.305">  2  9  1 -1</clus>
<clus scale="   89.959">  5  6 -1 -1</clus>
<clus scale="   96.946">  7  8 -1 -1</clus>
<clus scale="  144.678">  2  5  1 -1</clus>
<clus scale="   26.305">  2  5  1 -1</clus>
</clustering>
</event>
<event>
 9    1  0.1610296E-005  0.9652945E+02  0.7546771E-02  0.1288475E+00
          1   -1    0    0  502    0 -0.00000000000E+00  0.00000000000E+00  0.39991947335E+03  0.39991947335E+03  0.00000000000E+00 0. -1.
         21   -1    0    0  501  502  0.00000000000E+00 -0.00000000000E+00 -0.77615004743E+02  0.77615004743E+02  0.00000000000E+00 0. -1.
         23    2    1    2    0    0 -0.72950459972E+01 -0.29881463500E+02  0.33532871741E+03  0.34907532511E+03  0.91989751196E+02 0.  0.
         23    2    1    2    0    0  0.27089905262E+02  0.88109893877E+01 -0.23192893473E+02  0.97812739374E+02  0.90652772573E+02 0.  0.
        -11    1    3    3    0    0  0.38023614820E+02 -0.76823503045E+01  0.21692576394E+03  0.22036696860E+03  0.00000000000E+00 0. -1.
         11    1    3    3    0    0 -0.45318660817E+02 -0.22199113195E+02  0.11840295347E+03  0.12870835651E+03  0.00000000000E+00 0.  1.
        -11    1    4    4    0    0 -0.31479203071E+02  0.91668872062E+00  0.57405740413E+01  0.32011478168E+02  0.00000000000E+00 0.  1.
         11    1    4    4    0    0  0.58569108332E+02  0.78943006670E+01 -0.28933467514E+02  0.65801261206E+02  0.00000000000E+00 0. -1.
          1    1    1    2  501    0 -0.19794859265E+02  0.21070474112E+02  0.10168644672E+02  0.30646413609E+02  0.00000000000E+00 0. -1.
<scales pt_clust_5="13000.00000" pt_clust_6="13000.00000" pt_clust_7="13000.00000" pt_clust_8="13000.00000" pt_clust_9="28.91023"></scales>
<clustering>
<clus scale="   28.910">  2  9  1 -1</clus>
<clus scale="   90.653">  7  8 -1 -1</clus>
<clus scale="   91.990">  5  6 -1 -1</clus>
<clus scale="   95.256">  2  7  1 -1</clus>
<clus scale="   28.910">  2  5  1 -1</clus>
</clustering>
</event>
<event>
 9    1  0.1610296E-005  0.9413906E+02  0.7546771E-02  0.1301617E+00
         -1   -1    0    0    0  501 -0.00000000000E+00  0.00000000000E+00  0.46519347915E+02  0.46519347915E+02  0.00000000000E+00 0.  1.
         21   -1    0    0  501  502  0.00000000000E+00 -0.00000000000E+00 -0.37962181044E+03  0.37962181044E+03  0.00000000000E+00 0.  1.
         23    2    1    2    0    0 -0.28921725341E+02 -0.14796755377E+02 -0.40130625585E+02  0.10224552499E+03  0.88251176222E+02 0.  0.
         23    2    1    2    0    0  0.41405352235E+02 -0.27715825222E+02 -0.15089717402E+03  0.17507234791E+03  0.73469719705E+02 0.  0.
        -13    1    3    3    0    0 -0.16161505604E+02 -0.49763553338E+02 -0.38549294919E+02  0.64989642582E+02  0.00000000000E+00 0.  1.
         13    1    3    3    0    0 -0.12760219738E+02  0.34966797961E+02 -0.15813306656E+01  0.37255882409E+02  0.00000000000E+00 0. -1.
        -13    1    4    4    0    0  0.37380360433E+02  0.17195727165E+02 -0.51445576444E+02  0.65875881129E+02  0.00000000000E+00 0. -1.
         13    1    4    4    0    0  0.40249918020E+01 -0.44911552387E+02 -0.99451597578E+02  0.10919646678E+03  0.00000000000E+00 0.  1.
         -1    1    1    2    0  502 -0.12483626893E+02  0.42512580599E+02 -0.14207466292E+03  0.14882328545E+03  0.00000000000E+00 0.  1.
<scales pt_clust_5="13000.00000" pt_clust_6="13000.00000" pt_clust_7="13000.00000" pt_clust_8="13000.00000" pt_clust_9="44.30757"></scales>
<clustering>
<clus scale="   44.308">  2  9  1 -1</clus>
<clus scale="   73.470">  7  8 -1 -1</clus>
<clus scale="   80.447">  2  7  1 -1</clus>
<clus scale="   88.251">  5  6 -1 -1</clus>
<clus scale="   44.308">  2  5  1 -1</clus>
</clustering>
</event>
<event>
 9    1  0.1610296E-005  0.9777810E+02  0.7546771E-02  0.1285462E+00
         21   -1    0    0  501  502  0.00000000000E+00  0.00000000000E+00  0.10670415431E+03  0.10670415431E+03  0.00000000000E+00 0.  1.
          1   -1    0    0  502    0 -0.00000000000E+00 -0.00000000000E+00 -0.28139177924E+03  0.28139177924E+03  0.00000000000E+00 0. -1.
         23    2    1    2    0    0 -0.31345681774E+02 -0.13599394876E+02 -0.17259599478E+03  0.19778464236E+03  0.90343190296E+02 0.  0.
         23    2    1    2    0    0  0.55147731310E+02 -0.52010583474E+02  0.11761117458E+02  0.11915578939E+03  0.91177876698E+02 0.  0.
        -11    1    4    4    0    0  0.43440035902E+02  0.13705753526E+01  0.38729272637E+02  0.58214016826E+02  0.00000000000E+00 0.  1.
         11    1    4    4    0    0  0.11707695408E+02 -0.53381158827E+02 -0.26968155179E+02  0.60941772564E+02  0.00000000000E+00 0. -1.
        -13    1    3    3    0    0  0.31656234350E+02  0.18743211821E+01 -0.55967202808E+02  0.64326962024E+02  0.00000000000E+00 0.  1.
         13    1    3    3    0    0 -0.63001916124E+02 -0.15473716058E+02 -0.11662879197E+03  0.13345768033E+03  0.00000000000E+00 0. -1.
          1    1    1    2  501    0 -0.23802049537E+02  0.65609978350E+02 -0.13852747615E+02  0.71155501809E+02  0.00000000000E+00 0. -1.
<scales pt_clust_5="13000.00000" pt_clust_6="13000.00000" pt_clust_7="13000.00000" pt_clust_8="13000.00000" pt_clust_9="69.79403"></scales>
<clustering>
<clus scale="   69.794">  1  9  2 -1</clus>
<clus scale="   90.343">  7  8 -1 -1</clus>
<clus scale="   91.178">  5  6 -1 -1</clus>
<clus scale="   97.000">  2  7  1 -1</clus>
<clus scale="   69.794">  1  5  2 -1</clus>
</clustering>
</event>
<event>
 9    1  0.1610296E-005  0.1119818E+03  0.7546771E-02  0.1260987E+00
         21   -1    0    0  501  502  0.00000000000E+00  0.00000000000E+00  0.19011047365E+03  0.19011047365E+03  0.00000000000E+00 0. -1.
          1   -1    0    0  502    0 -0.00000000000E+00 -0.00000000000E+00 -0.21535630971E+03  0.21535630971E+03  0.00000000000E+00 0. -1.
         23    2    1    2    0    0 -0.29203009450E+02  0.10396263788E+02 -0.88039305480E+02  0.13851136672E+03  0.10234051660E+03 0.  0.
         23    2    1    2    0    0  0.52790559984E+02 -0.37672055062E+02 -0.67427612570E+02  0.13183372510E+03  0.92884989000E+02 0.  0.
        -11    1    4    4    0    0  0.59597253475E+02  0.10378940116E+02 -0.54947975045E+02  0.81724139526E+02  0.00000000000E+00 0. -1.
         11    1    4    4    0    0 -0.68066934910E+01 -0.48050995178E+02 -0.12479637524E+02  0.50109585576E+02  0.00000000000E+00 0.  1.
        -13    1    3    3    0    0  0.10774161321E+02 -0.30755998431E+02  0.98217721243E+00  0.32603353566E+02  0.00000000000E+00 0.  1.
         13    1    3    3    0    0 -0.39977170771E+02  0.41152262219E+02 -0.89021482692E+02  0.10590801315E+03  0.00000000000E+00 0. -1.
          1    1    1    2  501    0 -0.23587550534E+02  0.27275791274E+02  0.13022108199E+03  0.13512169154E+03  0.00000000000E+00 0. -1.
<scales pt_clust_5="13000.00000" pt_clust_6="13000.00000" pt_clust_7="13000.00000" pt_clust_8="13000.00000" pt_clust_9="36.06025"></scales>
<clustering>
<clus scale="   36.060">  1  9  2 -1</clus>
<clus scale="   92.885">  5  6 -1 -1</clus>
<clus scale="  102.341">  7  8 -1 -1</clus>
<clus scale="  103.412">  1  5  2 -1</clus>
<clus scale="   36.060">  1  5  2 -1</clus>
</clustering>
</event>
<event>
 9    1  0.1610296E-005  0.1331987E+03  0.7546771E-02  0.1223943E+00
         21   -1    0    0  501  502  0.00000000000E+00  0.00000000000E+00  0.46265430359E+02  0.46265430359E+02  0.00000000000E+00 0.  1.
          1   -1    0    0  502    0 -0.00000000000E+00 -0.00000000000E+00 -0.94086719732E+03  0.94086719732E+03  0.00000000000E+00 0. -1.
         23    2    1    2    0    0 -0.23443012192E+02  0.95850569518E+02 -0.71067163586E+03  0.72386851303E+03  0.95888183053E+02 0.  0.
         23    2    1    2    0    0 -0.32589661090E+02 -0.78225863584E+02 -0.15142141445E+03  0.19612912084E+03  0.91415619808E+02 0.  0.
        -11    1    3    3    0    0 -0.75495035735E+01  0.11321628165E+03 -0.61178295033E+03  0.62221644124E+03  0.00000000000E+00 0.  1.
         11    1    3    3    0    0 -0.15893508619E+02 -0.17365712135E+02 -0.98888685528E+02  0.10165207179E+03  0.00000000000E+00 0. -1.
        -13    1    4    4    0    0 -0.64045419419E+02 -0.61430602778E+02 -0.10228005455E+03  0.13541323519E+03  0.00000000000E+00 0. -1.
         13    1    4    4    0    0  0.31455758329E+02 -0.16795260806E+02 -0.49141359902E+02  0.60715885653E+02  0.00000000000E+00 0.  1.
          1    1    1    2  501    0  0.56032673282E+02 -0.17624705934E+02 -0.32508716649E+02  0.67134993800E+02  0.00000000000E+00 0. -1.
<scales pt_clust_5="13000.00000" pt_clust_6="13000.00000" pt_clust_7="13000.00000" pt_clust_8="13000.00000" pt_clust_9="58.73918"></scales>
<clustering>
<clus scale="   58.739">  1  9  2 -1</clus>
<clus scale="   91.416">  7  8 -1 -1</clus>
<clus scale="   95.888">  5  6 -1 -1</clus>
<clus scale="  130.016">  1  7  2 -1</clus>
<clus scale="   58.739">  1  5  2 -1</clus>
</clustering>
</event>
<event>
 9    1  0.1610296E-005  0.1039033E+03  0.7546771E-02  0.1273108E+00
         -2   -1    0    0    0  501 -0.00000000000E+00  0.00000000000E+00  0.70427596565E+02  0.70427596565E+02  0.00000000000E+00 0.  1.
         21   -1    0    0  501  502  0.00000000000E+00 -0.00000000000E+00 -0.58388674843E+03  0.58388674843E+03  0.00000000000E+00 0.  1.
         23    2    1    2    0    0  0.48457788236E+02 -0.16444534943E+02 -0.30295377814E+02  0.11216629233E+03  0.95104612130E+02 0.  0.
         23    2    1    2    0    0 -0.52922854933E+01  0.46016596096E+02 -0.69645693703E+02  0.12533278159E+03  0.93339424076E+02 0.  0.
        -11    1    4    4    0    0  0.28329597597E+02  0.15134466996E+02  0.99066855641E+01  0.33611911729E+02  0.00000000000E+00 0.  1.
         11    1    4    4    0    0 -0.33621883090E+02  0.30882129100E+02 -0.79552379267E+02  0.91720869857E+02  0.00000000000E+00 0. -1.
        -11    1    3    3    0    0  0.67612153487E+02 -0.18854866382E+01  0.67705855254E+01  0.67976460538E+02  0.00000000000E+00 0.  1.
         11    1    3    3    0    0 -0.19154365251E+02 -0.14559048305E+02 -0.37065963339E+02  0.44189831794E+02  0.00000000000E+00 0. -1.
         -2    1    1    2    0  502 -0.43165502743E+02 -0.29572061153E+02 -0.41351808035E+03  0.41681527108E+03  0.00000000000E+00 0.  1.
<scales pt_clust_5="13000.00000" pt_clust_6="13000.00000" pt_clust_7="13000.00000" pt_clust_8="13000.00000" pt_clust_9="52.32368"></scales>
<clustering>
<clus scale="   52.324">  2  9  1 -1</clus>
<clus scale="   93.339">  5  6 -1 -1</clus>
<clus scale="   95.105">  7  8 -1 -1</clus>
<clus scale="  102.290">  2  5  1 -1</clus>
<clus scale="   52.324">  2  5  1 -1</clus>
</clustering>
</event>
<event>
 9    1  0.1610296E-005  0.9130627E+02  0.7546771E-02  0.1299734E+00
         21   -1    0    0  501  502  0.00000000000E+00  0.00000000000E+00  0.24536324696E+03  0.24536324696E+03  0.00000000000E+00 0. -1.
         -3   -1    0    0    0  501 -0.00000000000E+00 -0.00000000000E+00 -0.79888542157E+02  0.79888542157E+02  0.00000000000E+00 0.  1.
         23    2    1    2    0    0  0.35790656153E+01  0.10162007778E+02 -0.32392733577E+02  0.97170165809E+02  0.90976237677E+02 0.  0.
         23    2    1    2    0    0  0.90706261814E+01  0.68492365428E+01  0.16914503489E+03  0.19238325362E+03  0.90951004098E+02 0.  0.
        -11    1    4    4    0    0  0.32008652666E+02  0.40067379601E+02  0.95835940711E+02  0.10869441699E+03  0.00000000000E+00 0. -1.
         11    1    4    4    0    0 -0.22938026484E+02 -0.33218143058E+02  0.73309094179E+02  0.83688836630E+02  0.00000000000E+00 0.  1.
        -13    1    3    3    0    0 -0.20894718201E+02 -0.22325095101E+02 -0.45160999340E+02  0.54539114234E+02  0.00000000000E+00 0.  1.
         13    1    3    3    0    0  0.24473783817E+02  0.32487102879E+02  0.12768265763E+02  0.42631051575E+02  0.00000000000E+00 0. -1.
         -3    1    1    2    0  502 -0.12649691797E+02 -0.17011244320E+02  0.28722403494E+02  0.35698369687E+02  0.00000000000E+00 0.  1.
<scales pt_clust_5="13000.00000" pt_clust_6="13000.00000" pt_clust_7="13000.00000" pt_clust_8="13000.00000" pt_clust_9="21.19899"></scales>
<clustering>
<clus scale="   21.199">  1  9  2 -1</clus>
<clus scale="   90.951">  5  6 -1 -1</clus>
<clus scale="   90.976">  7  8 -1 -1</clus>
<clus scale="   91.281">  1  5  2 -1</clus>
<clus scale="   21.199">  1  5  2 -1</clus>
</clustering>
</event>
<event>
 9    1  0.1610296E-005  0.1128800E+03  0.7546771E-02  0.1255520E+00
          2   -1    0    0  502    0 -0.00000000000E+00  0.00000000000E+00  0.18359221455E+03  0.18359221455E+03  0.00000000000E+00 0. -1.
         21   -1    0    0  501  502  0.00000000000E+00 -0.00000000000E+00 -0.20506844082E+03  0.20506844082E+03  0.00000000000E+00 0. -1.
         23    2    1    2    0    0  0.77649104317E+02 -0.39331212629E+02  0.11113673549E+03  0.16729610840E+03  0.89779096798E+02 0.  0.
         23    2    1    2    0    0 -0.19471411339E+02  0.17660209727E+02 -0.25332170490E+02  0.97415184314E+02  0.90316003045E+02 0.  0.
        -11    1    3    3    0    0 -0.20486184843E+02 -0.68905981205E+01  0.21444798665E+02  0.30447389078E+02  0.00000000000E+00 0.  1.
         11    1    3    3    0    0  0.98135289160E+02 -0.32440614509E+02  0.89691936823E+02  0.13684871932E+03  0.00000000000E+00 0. -1.
        -11    1    4    4    0    0  0.10397591798E+02  0.37163962451E+02 -0.42855869314E+02  0.57670577897E+02  0.00000000000E+00 0. -1.
         11    1    4    4    0    0 -0.29869003137E+02 -0.19503752724E+02  0.17523698824E+02  0.39744606417E+02  0.00000000000E+00 0.  1.
          2    1    1    2  501    0 -0.58177692977E+02  0.21671002903E+02 -0.10728079127E+03  0.12394936265E+03  0.00000000000E+00 0. -1.
<scales pt_clust_5="13000.00000" pt_clust_6="13000.00000" pt_clust_7="13000.00000" pt_clust_8="13000.00000" pt_clust_9="62.08282"></scales>
<clustering>
<clus scale="   62.083">  2  9  1 -1</clus>
<clus scale="   89.779">  5  6 -1 -1</clus>
<clus scale="   90.316">  7  8 -1 -1</clus>
<clus scale="  112.451">  1  5  2 -1</clus>
<clus scale="   62.083">  2  5  1 -1</clus>
</clustering>
</event>
<event>
 9    1  0.1610296E-005  0.1520158E+03  0.7546771E-02  0.1198158E+00
         21   -1    0    0  501  502  0.00000000000E+00  0.00000000000E+00  0.82177884621E+02  0.82177884621E+02  0.00000000000E+00 0. -1.
          1   -1    0    0  502    0 -0.00000000000E+00 -0.00000000000E+00 -0.63431036748E+03  0.63431036748E+03  0.00000000000E+00 0. -1.
         23    2    1    2    0    0  0.27407957217E+02 -0.10755875507E+03 -0.36203713472E+03  0.38934349294E+03  0.90539420525E+02 0.  0.
         23    2    1    2    0    0 -0.27279804868E+02  0.14139168343E+03 -0.22248247439E+03  0.28030877500E+03  0.91316822296E+02 0.  0.
        -11    1    3    3    0    0 -0.16951399474E+02 -0.69817603908E+02 -0.27774595225E+03  0.28688789056E+03  0.00000000000E+00 0.  1.
         11    1    3    3    0    0  0.44359356691E+02 -0.37741151160E+02 -0.84291182472E+02  0.10245560238E+03  0.00000000000E+00 0. -1.
        -11    1    4    4    0    0 -0.19150353209E+02  0.86985859253E+01 -0.90743316335E+02  0.93149078818E+02  0.00000000000E+00 0. -1.
         11    1    4    4    0    0 -0.81294516580E+01  0.13269309751E+03 -0.13173915806E+03  0.18715969618E+03  0.00000000000E+00 0.  1.
          1    1    1    2  501    0 -0.12815234981E+00 -0.33832928363E+02  0.32387126256E+02  0.46835984154E+02  0.00000000000E+00 0. -1.
<scales pt_clust_5="13000.00000" pt_clust_6="13000.00000" pt_clust_7="13000.00000" pt_clust_8="13000.00000" pt_clust_9="33.83317"></scales>
<clustering>
<clus scale="   33.833">  1  9  2 -1</clus>
<clus scale="   90.539">  5  6 -1 -1</clus>
<clus scale="   91.317">  7  8 -1 -1</clus>
<clus scale="  151.550">  2  5  1 -1</clus>
<clus scale="   33.833">  1  5  2 -1</clus>
</clustering>
</event>
<event>
 9    1  0.1610296E-005  0.1818617E+03  0.7546771E-02  0.1166257E+00
          1   -1    0    0  502    0 -0.00000000000E+00  0.00000000000E+00  0.50527874123E+03  0.50527874123E+03  0.00000000000E+00 0. -1.
         21   -1    0    0  501  502  0.00000000000E+00 -0.00000000000E+00 -0.98870336645E+02  0.98870336645E+02  0.00000000000E+00 0. -1.
         23    2    1    2    0    0 -0.89641988325E+02  0.13408213184E+03  0.29968604659E+03  0.35302255640E+03  0.93805621659E+02 0.  0.
         23    2    1    2    0    0  0.55035173483E+02 -0.13799201716E+03  0.12206100022E+03  0.21307139328E+03  0.91814289413E+02 0.  0.
        -11    1    4    4    0    0 -0.23219334719E+02 -0.34412502125E+02  0.12938048072E+02  0.43482765496E+02  0.00000000000E+00 0.  1.
         11    1    4    4    0    0  0.78254508203E+02 -0.10357951504E+03  0.10912295214E+03  0.16958862779E+03  0.00000000000E+00 0. -1.
        -11    1    3    3    0    0 -0.63317913525E+02  0.10341641676E+03  0.28551031007E+03  0.31019389192E+03  0.00000000000E+00 0. -1.
         11    1    3    3    0    0 -0.26324074800E+02  0.30665715075E+02  0.14175736527E+02  0.42828664481E+02  0.00000000000E+00 0.  1.
          1    1    1    2  501    0  0.34606814842E+02  0.39098853283E+01 -0.15338642223E+02  0.38055128196E+02  0.00000000000E+00 0. -1.
<scales pt_clust_5="13000.00000" pt_clust_6="13000.00000" pt_clust_7="13000.00000" pt_clust_8="13000.00000" pt_clust_9="34.82698"></scales>
<clustering>
<clus scale="   34.827">  2  9  1 -1</clus>
<clus scale="   91.814">  5  6 -1 -1</clus>
<clus scale="   93.806">  7  8 -1 -1</clus>
<clus scale="  180.843">  2  5  1 -1</clus>
<clus scale="   34.827">  2  5  1 -1</clus>
</clustering>
</event>
<event>
 9    1  0.1610296E-005  0.1169733E+03  0.7546771E-02  0.1248560E+00
         21   -1    0    0  501  502  0.00000000000E+00  0.00000000000E+00  0.88618616619E+02  0.88618616619E+02  0.00000000000E+00 0.  1.
         -3   -1    0    0    0  501 -0.00000000000E+00 -0.00000000000E+00 -0.54813596576E+03  0.54813596576E+03  0.00000000000E+00 0.  1.
         23    2    1    2    0    0 -0.14654251678E+00  0.76549857937E+02 -0.46699494566E+03  0.48183508722E+03  0.90669012258E+02 0.  0.
         23    2    1    2    0    0  0.19447888711E+02 -0.58296766592E+02 -0.26527810682E+02  0.11176761191E+03  0.89507211789E+02 0.  0.
        -11    1    4    4    0    0 -0.28830711495E+02  0.31309806106E+01 -0.15443388101E+02  0.32855915768E+02  0.00000000000E+00 0.  1.
         11    1    4    4    0    0  0.48278600206E+02 -0.61427747202E+02 -0.11084422581E+02  0.78911696143E+02  0.00000000000E+00 0. -1.
        -11    1    3    3    0    0 -0.27996653637E+02 -0.81341398534E+01 -0.13203487902E+03  0.13521533242E+03  0.00000000000E+00 0.  1.
         11    1    3    3    0    0  0.27850111120E+02  0.84683997790E+02 -0.33496006664E+03  0.34661975480E+03  0.00000000000E+00 0. -1.
         -3    1    1    2    0  502 -0.19301346194E+02 -0.18253091345E+02  0.34005407202E+02  0.43151883244E+02  0.00000000000E+00 0.  1.
<scales pt_clust_5="13000.00000" pt_clust_6="13000.00000" pt_clust_7="13000.00000" pt_clust_8="13000.00000" pt_clust_9="26.56534"></scales>
<clustering>
<clus scale="   26.565">  1  9  2 -1</clus>
<clus scale="   89.507">  5  6 -1 -1</clus>
<clus scale="   90.669">  7  8 -1 -1</clus>
<clus scale="  116.075">  1  5  2 -1</clus>
<clus scale="   26.565">  1  5  2 -1</clus>
</clustering>
</event>
<event>
 9    1  0.1610296E-005  0.1671944E+03  0.7546771E-02  0.1181979E+00
          2   -1    0    0  502    0 -0.00000000000E+00  0.00000000000E+00  0.15585548819E+03  0.15585548819E+03  0.00000000000E+00 0. -1.
         21   -1    0    0  501  502  0.00000000000E+00 -0.00000000000E+00 -0.54549699135E+03  0.54549699135E+03  0.00000000000E+00 0. -1.
         23    2    1    2    0    0  0.13881162993E+03 -0.45725034249E+02  0.80441094582E+02  0.19220493235E+03  0.95459514763E+02 0.  0.
         23    2    1    2    0    0 -0.93955761364E+02  0.25078693933E+02 -0.23562714606E+03  0.26954855067E+03  0.87633573597E+02 0.  0.
        -11    1    3    3    0    0  0.11463038184E+03 -0.41625938618E+02  0.10243132373E+03  0.15926399243E+03  0.00000000000E+00 0. -1.
         11    1    3    3    0    0  0.24181248094E+02 -0.40990956316E+01 -0.21990229144E+02  0.32940939910E+02  0.00000000000E+00 0.  1.
        -13    1    4    4    0    0 -0.71001743171E+02  0.41275786995E+02 -0.92532621146E+02  0.12372236702E+03  0.00000000000E+00 0.  1.
         13    1    4    4    0    0 -0.22954018193E+02 -0.16197093063E+02 -0.14309452492E+03  0.14582618364E+03  0.00000000000E+00 0. -1.
          2    1    1    2  501    0 -0.44855868568E+02  0.20646340317E+02 -0.23445545168E+03  0.23959899653E+03  0.00000000000E+00 0. -1.
<scales pt_clust_5="13000.00000" pt_clust_6="13000.00000" pt_clust_7="13000.00000" pt_clust_8="13000.00000" pt_clust_9="49.37935"></scales>
<clustering>
<clus scale="   49.379">  2  9  1 -1</clus>
<clus scale="   87.634">  7  8 -1 -1</clus>
<clus scale="   95.460">  5  6 -1 -1</clus>
<clus scale="  162.853">  2  7  1 -1</clus>
<clus scale="   49.379">  2  5  1 -1</clus>
</clustering>
</event>
<event>
 9    1  0.1610296E-005  0.1022513E+03  0.7546771E-02  0.1277164E+00
          1   -1    0    0  502    0 -0.00000000000E+00  0.00000000000E+00  0.18182604931E+03  0.18182604931E+03  0.00000000000E+00 0. -1.
         21   -1    0    0  501  502  0.00000000000E+00 -0.00000000000E+00 -0.33203166061E+03  0.33203166061E+03  0.00000000000E+00 0. -1.
         23    2    1    2    0    0 -0.20018902015E+02 -0.32807681993E+02  0.96079618845E+02  0.13878215514E+03  0.92477526952E+02 0.  0.
         23    2    1    2    0    0  0.51467223177E+02 -0.67706774232E+01  0.14186727619E+02  0.10974352841E+03  0.95643408834E+02 0.  0.
        -11    1    4    4    0    0  0.56817475992E+01 -0.37399968964E+02 -0.22070071240E+02  0.43796437970E+02  0.00000000000E+00 0.  1.
         11    1    4    4    0    0  0.45785475577E+02  0.30629291541E+02  0.36256798859E+02  0.65947090441E+02  0.00000000000E+00 0. -1.
        -11    1    3    3    0    0  0.12793796567E+02 -0.41613021520E+02  0.95329790580E+02  0.10480025650E+03  0.00000000000E+00 0.  1.
         11    1    3    3    0    0 -0.32812698582E+02  0.88053395267E+01  0.74982826482E+00  0.33981898635E+02  0.00000000000E+00 0. -1.
          1    1    1    2  501    0 -0.31448321161E+02  0.39578359416E+02 -0.26047195776E+03  0.26533202637E+03  0.00000000000E+00 0. -1.
<scales pt_clust_5="13000.00000" pt_clust_6="13000.00000" pt_clust_7="13000.00000" pt_clust_8="13000.00000" pt_clust_9="50.55139"></scales>
<clustering>
<clus scale="   50.551">  2  9  1 -1</clus>
<clus scale="   92.478">  7  8 -1 -1</clus>
<clus scale="   95.643">  5  6 -1 -1</clus>
<clus scale="   99.296">  1  7  2 -1</clus>
<clus scale="   50.551">  2  5  1 -1</clus>
</clustering>
</event>
<event>
 9    1  0.1610296E-005  0.1304202E+03  0.7546771E-02  0.1226949E+00
         -3   -1    0    0    0  501 -0.00000000000E+00  0.00000000000E+00  0.16635312538E+03  0.16635312538E+03  0.00000000000E+00 0.  1.
         21   -1    0    0  501  502  0.00000000000E+00 -0.00000000000E+00 -0.18509157609E+03  0.18509157609E+03  0.00000000000E+00 0.  1.
         23    2    1    2    0    0 -0.33037452793E+02  0.80237911730E+02  0.36679501191E+02  0.13151822328E+03  0.91771790231E+02 0.  0.
         23    2    1    2    0    0  0.29124914449E+01 -0.10385648329E+03  0.15640969428E+02  0.13921265956E+03  0.91328379648E+02 0.  0.
        -11    1    4    4    0    0 -0.38972613723E+02 -0.18365876698E+02  0.31749230653E+01  0.43200117867E+02  0.00000000000E+00 0. -1.
         11    1    4    4    0    0  0.41885105168E+02 -0.85490606587E+02  0.12466046363E+02  0.96012541689E+02  0.00000000000E+00 0.  1.
        -13    1    3    3    0    0  0.23909260082E+02  0.60059382873E+02  0.97595777845E+01  0.65376077790E+02  0.00000000000E+00 0. -1.
         13    1    3    3    0    0 -0.56946712876E+02  0.20178528857E+02  0.26919923407E+02  0.66142145493E+02  0.00000000000E+00 0.  1.
         -3    1    1    2    0  502  0.30124961348E+02  0.23618571556E+02 -0.71058921323E+02  0.80713818632E+02  0.00000000000E+00 0.  1.
<scales pt_clust_5="13000.00000" pt_clust_6="13000.00000" pt_clust_7="13000.00000" pt_clust_8="13000.00000" pt_clust_9="38.27989"></scales>
<clustering>
<clus scale="   38.280">  2  9  1 -1</clus>
<clus scale="   91.328">  5  6 -1 -1</clus>
<clus scale="   91.772">  7  8 -1 -1</clus>
<clus scale="  130.109">  2  5  1 -1</clus>
<clus scale="   38.280">  2  5  1 -1</clus>
</clustering>
</event>
<event>
 9    1  0.1610296E-005  0.9634945E+02  0.7546771E-02  0.1289867E+00
         21   -1    0    0  501  502  0.00000000000E+00  0.00000000000E+00  0.38654849602E+02  0.38654849602E+02  0.00000000000E+00 0.  1.
         -1   -1    0    0    0  501 -0.00000000000E+00 -0.00000000000E+00 -0.52025730196E+03  0.52025730196E+03  0.00000000000E+00 0.  1.
         23    2    1    2    0    0 -0.14089961884E+02 -0.28774141394E+02 -0.33178130647E+03  0.34647447061E+03  0.94547581792E+02 0.  0.
         23    2    1    2    0    0 -0.58952751767E+00 -0.55766815118E+01 -0.14918180656E+03  0.17507626773E+03  0.91460599128E+02 0.  0.
        -11    1    3    3    0    0  0.40350339339E+02 -0.65416940728E+01 -0.12691985777E+03  0.13334014378E+03  0.00000000000E+00 0.  1.
         11    1    3    3    0    0 -0.54440301223E+02 -0.22232447321E+02 -0.20486144869E+03  0.21313432683E+03  0.00000000000E+00 0. -1.
        -11    1    4    4    0    0 -0.28455095239E+02 -0.33427745534E+02 -0.11435771758E+03  0.12249405776E+03  0.00000000000E+00 0.  1.
         11    1    4    4    0    0  0.27865567722E+02  0.27851064022E+02 -0.34824088985E+02  0.52582209970E+02  0.00000000000E+00 0. -1.
         -1    1    1    2    0  502  0.14679489402E+02  0.34350822906E+02 -0.63933932505E+00  0.37361413225E+02  0.00000000000E+00 0.  1.
<scales pt_clust_5="13000.00000" pt_clust_6="13000.00000" pt_clust_7="13000.00000" pt_clust_8="13000.00000" pt_clust_9="37.35594"></scales>
<clustering>
<clus scale="   37.356">  1  9  2 -1</clus>
<clus scale="   91.461">  7  8 -1 -1</clus>
<clus scale="   93.322">  1  7  2 -1</clus>
<clus scale="   94.548">  5  6 -1 -1</clus>
<clus scale="   37.356">  1  5  2 -1</clus>
</clustering>
</event>
<event>
 9    1  0.1610296E-005  0.1024188E+03  0.7546771E-02  0.1275985E+00
          2   -1    0    0  502    0 -0.00000000000E+00  0.00000000000E+00  0.63485504468E+03  0.63485504468E+03  0.00000000000E+00 0. -1.
         21   -1    0    0  501  502  0.00000000000E+00 -0.00000000000E+00 -0.28712801931E+02  0.28712801931E+02  0.00000000000E+00 0.  1.
         23    2    1    2    0    0 -0.22939267467E+02 -0.33101407933E+02  0.41590796442E+03  0.42790726839E+03  0.92213243476E+02 0.  0.
         23    2    1    2    0    0  0.26039401388E+02  0.54311925146E+02  0.11911321526E+03  0.16137933912E+03  0.90705553339E+02 0.  0.
        -11    1    4    4    0    0 -0.12707822219E+02 -0.16188865043E+02  0.40386784435E+01  0.20973293029E+02  0.00000000000E+00 0. -1.
         11    1    4    4    0    0  0.38747223608E+02  0.70500790189E+02  0.11507453681E+03  0.14040604609E+03  0.00000000000E+00 0.  1.
        -11    1    3    3    0    0 -0.55765450542E+01 -0.64451786053E+02  0.25866631350E+03  0.26663344187E+03  0.00000000000E+00 0. -1.
         11    1    3    3    0    0 -0.17362722413E+02  0.31350378121E+02  0.15724165092E+03  0.16127382652E+03  0.00000000000E+00 0.  1.
          2    1    1    2  501    0 -0.31001339212E+01 -0.21210517213E+02  0.71121063065E+02  0.74281239100E+02  0.00000000000E+00 0. -1.
<scales pt_clust_5="13000.00000" pt_clust_6="13000.00000" pt_clust_7="13000.00000" pt_clust_8="13000.00000" pt_clust_9="21.43589"></scales>
<clustering>
<clus scale="   21.436">  2  9  1 -1</clus>
<clus scale="   90.706">  5  6 -1 -1</clus>
<clus scale="   92.213">  7  8 -1 -1</clus>
<clus scale="  101.063">  2  5  1 -1</clus>
<clus scale="   21.436">  2  5  1 -1</clus>
</clustering>
</event>
<event>
 9    1  0.1610296E-005  0.1173642E+03  0.7546771E-02  0.1248410E+00
          1   -1    0    0  502    0 -0.00000000000E+00  0.00000000000E+00  0.29505383645E+03  0.29505383645E+03  0.00000000000E+00 0. -1.
         21   -1    0    0  501  502  0.00000000000E+00 -0.00000000000E+00 -0.78064880443E+02  0.78064880443E+02  0.00000000000E+00 0. -1.
         23    2    1    2    0    0  0.30257121737E+02 -0.61708782730E+02  0.13773936349E+03  0.18475124132E+03  0.10216370018E+03 0.  0.
         23    2    1    2    0    0 -0.19223469822E+02  0.42762323041E+02  0.10658713558E+03  0.15332391596E+03  0.99745915561E+02 0.  0.
        -11    1    4    4    0    0  0.27231297697E+02  0.49520246346E+02  0.83968632523E+02  0.10121526377E+03  0.00000000000E+00 0.  1.
         11    1    4    4    0    0 -0.46454767519E+02 -0.67579233052E+01  0.22618503055E+02  0.52108652190E+02  0.00000000000E+00 0. -1.
        -13    1    3    3    0    0 -0.32893249475E+00 -0.47787270126E+02  0.14296636794E+03  0.15074187787E+03  0.00000000000E+00 0. -1.
         13    1    3    3    0    0  0.30586054232E+02 -0.13921512604E+02 -0.52270044512E+01  0.34009363449E+02  0.00000000000E+00 0.  1.
          1    1    1    2  501    0 -0.11033651915E+02  0.18946459689E+02 -0.27337543063E+02  0.35043559608E+02  0.00000000000E+00 0. -1.
<scales pt_clust_5="13000.00000" pt_clust_6="13000.00000" pt_clust_7="13000.00000" pt_clust_8="13000.00000" pt_clust_9="21.92510"></scales>
<clustering>
<clus scale="   21.925">  2  9  1 -1</clus>
<clus scale="   99.746">  5  6 -1 -1</clus>
<clus scale="  102.164">  7  8 -1 -1</clus>
<clus scale="  115.266">  2  5  1 -1</clus>
<clus scale="   21.925">  2  5  1 -1</clus>
</clustering>
</event>
<event>
 9    1  0.1610296E-005  0.1633910E+03  0.7546771E-02  0.1185069E+00
         -1   -1    0    0    0  501 -0.00000000000E+00  0.00000000000E+00  0.11013109004E+03  0.11013109004E+03  0.00000000000E+00 0.  1.
         21   -1    0    0  501  502  0.00000000000E+00 -0.00000000000E+00 -0.40490693506E+03  0.40490693506E+03  0.00000000000E+00 0. -1.
         23    2    1    2    0    0 -0.12302629536E+03 -0.83347298849E+01 -0.44874483643E+02  0.16093539640E+03  0.93174811305E+02 0.  0.
         23    2    1    2    0    0  0.14986746442E+03  0.13610197723E+02 -0.10232815361E+03  0.20401555209E+03  0.92226894655E+02 0.  0.
        -11    1    3    3    0    0 -0.14457055964E+02  0.28695914918E+02 -0.32261833934E+02  0.45533371596E+02  0.00000000000E+00 0.  1.
         11    1    3    3    0    0 -0.10856923939E+03 -0.37030644803E+02 -0.12612649710E+02  0.11540202481E+03  0.00000000000E+00 0. -1.
        -11    1    4    4    0    0  0.11990727014E+03  0.21415298866E+02 -0.30154561068E+02  0.12548173577E+03  0.00000000000E+00 0.  1.
         11    1    4    4    0    0  0.29960194284E+02 -0.78051011427E+01 -0.72173592544E+02  0.78533816322E+02  0.00000000000E+00 0. -1.
         -1    1    1    2    0  502 -0.26841169067E+02 -0.52754678381E+01 -0.14757320776E+03  0.15008707661E+03  0.00000000000E+00 0.  1.
<scales pt_clust_5="13000.00000" pt_clust_6="13000.00000" pt_clust_7="13000.00000" pt_clust_8="13000.00000" pt_clust_9="27.35469"></scales>
<clustering>
<clus scale="   27.355">  2  9  1 -1</clus>
<clus scale="   92.227">  7  8 -1 -1</clus>
<clus scale="   93.175">  5  6 -1 -1</clus>
<clus scale="  162.852">  2  7  1 -1</clus>
<clus scale="   27.355">  2  5  1 -1</clus>
</clustering>
</event>
<event>
 9    1  0.1610296E-005  0.9556826E+02  0.7546771E-02  0.1291022E+00
         21   -1    0    0  501  502  0.00000000000E+00  0.00000000000E+00  0.23708678590E+03  0.23708678590E+03  0.00000000000E+00 0.  1.
         -1   -1    0    0    0  501 -0.00000000000E+00 -0.00000000000E+00 -0.13084788975E+03  0.13084788975E+03  0.00000000000E+00 0.  1.
         23    2    1    2    0    0 -0.12778296674E+01 -0.19077740134E+02 -0.60921900620E+02  0.11077037727E+03  0.90515222407E+02 0.  0.
         23    2    1    2    0    0  0.31821230007E+02  0.27026767774E+02  0.16063925519E+02  0.10280643221E+03  0.92563901956E+02 0.  0.
        -11    1    4    4    0    0  0.64286272837E+02  0.25020441827E+02  0.12137652821E+02  0.70043343727E+02  0.00000000000E+00 0.  1.
         11    1    4    4    0    0 -0.32465042829E+02  0.20063259472E+01  0.39262726975E+01  0.32763088484E+02  0.00000000000E+00 0. -1.
        -11    1    3    3    0    0 -0.19994120863E+02  0.30218360601E+02 -0.10288072060E+02  0.37666412269E+02  0.00000000000E+00 0. -1.
         11    1    3    3    0    0  0.18716291196E+02 -0.49296100735E+02 -0.50633828559E+02  0.73103964998E+02  0.00000000000E+00 0.  1.
         -1    1    1    2    0  502 -0.30543400340E+02 -0.79490276404E+01  0.15109687125E+03  0.15435786617E+03  0.00000000000E+00 0.  1.
<scales pt_clust_5="13000.00000" pt_clust_6="13000.00000" pt_clust_7="13000.00000" pt_clust_8="13000.00000" pt_clust_9="31.56084"></scales>
<clustering>
<clus scale="   31.561">  1  9  2 -1</clus>
<clus scale="   90.515">  7  8 -1 -1</clus>
<clus scale="   92.564">  5  6 -1 -1</clus>
<clus scale="   93.585">  2  7  1 -1</clus>
<clus scale="   31.561">  1  5  2 -1</clus>
</clustering>
</event>
<event>
 9    1  0.1610296E-005  0.1627542E+03  0.7546771E-02  0.1198901E+00
         -1   -1    0    0    0  501 -0.00000000000E+00  0.00000000000E+00  0.92136991972E+03  0.92136991972E+03  0.00000000000E+00 0.  1.
         21   -1    0    0  501  502  0.00000000000E+00 -0.00000000000E+00 -0.52946474585E+02  0.52946474585E+02  0.00000000000E+00 0.  1.
         23    2    1    2    0    0 -0.68044861043E+02 -0.48631528255E+02  0.20805860598E+03  0.24094037805E+03  0.88140533226E+02 0.  0.
         23    2    1    2    0    0 -0.54046012672E+02  0.12622009628E+03  0.26452404625E+03  0.31193076399E+03  0.92061643944E+02 0.  0.
        -11    1    3    3    0    0 -0.42679186288E+02 -0.21316423817E+02  0.19605973501E+03  0.20178038200E+03  0.00000000000E+00 0.  1.
         11    1    3    3    0    0 -0.25365674755E+02 -0.27315104438E+02  0.11998870969E+02  0.39159996052E+02  0.00000000000E+00 0. -1.
        -13    1    4    4    0    0 -0.10055362285E+02  0.95658758921E+02  0.22697928896E+03  0.24651836866E+03  0.00000000000E+00 0.  1.
         13    1    4    4    0    0 -0.43990650388E+02  0.30561337360E+02  0.37544757293E+02  0.65412395331E+02  0.00000000000E+00 0. -1.
         -1    1    1    2    0  502  0.12209087372E+03 -0.77588568026E+02  0.39584079291E+03  0.42144525227E+03  0.00000000000E+00 0.  1.
<scales pt_clust_5="13000.00000" pt_clust_6="13000.00000" pt_clust_7="13000.00000" pt_clust_8="13000.00000" pt_clust_9="134.21481"></scales>
<clustering>
<clus scale="   88.141">  5  6 -1 -1</clus>
<clus scale="   92.062">  7  8 -1 -1</clus>
<clus scale="  121.507">  1  5  2 -1</clus>
<clus scale="  134.215">  2  9  1 -1</clus>
<clus scale="  134.215">  2  5  1 -1</clus>
</clustering>
</event>
<event>
 9    1  0.1610296E-005  0.1301790E+03  0.7546771E-02  0.1228171E+00
          3   -1    0    0  502    0 -0.00000000000E+00  0.00000000000E+00  0.23573250070E+03  0.23573250070E+03  0.00000000000E+00 0. -1.
         21   -1    0    0  501  502  0.00000000000E+00 -0.00000000000E+00 -0.90422698196E+02  0.90422698196E+02  0.00000000000E+00 0.  1.
         23    2    1    2    0    0  0.63141389290E+02  0.50454651426E+02  0.69725590545E+02  0.14232501813E+03  0.94139502431E+02 0.  0.
         23    2    1    2    0    0 -0.84145019932E+02 -0.58902513141E+02  0.41725442872E+02  0.14310015361E+03  0.90480666148E+02 0.  0.
        -11    1    4    4    0    0 -0.36454469999E+02 -0.25388457082E+02 -0.27775098762E+02  0.52392349128E+02  0.00000000000E+00 0.  1.
         11    1    4    4    0    0 -0.47690549933E+02 -0.33514056059E+02  0.69500541634E+02  0.90707804481E+02  0.00000000000E+00 0. -1.
        -13    1    3    3    0    0 -0.24697201989E+02  0.16694940797E+02  0.19932491749E+02  0.35860522327E+02  0.00000000000E+00 0. -1.
         13    1    3    3    0    0  0.87838591279E+02  0.33759710630E+02  0.49793098796E+02  0.10646449581E+03  0.00000000000E+00 0.  1.
          3    1    1    2  501    0  0.21003630642E+02  0.84478617151E+01  0.33858769083E+02  0.40730027149E+02  0.00000000000E+00 0. -1.
<scales pt_clust_5="13000.00000" pt_clust_6="13000.00000" pt_clust_7="13000.00000" pt_clust_8="13000.00000" pt_clust_9="22.63889"></scales>
<clustering>
<clus scale="   22.639">  2  9  1 -1</clus>
<clus scale="   90.481">  5  6 -1 -1</clus>
<clus scale="   94.140">  7  8 -1 -1</clus>
<clus scale="  127.558">  2  5  1 -1</clus>
<clus scale="   22.639">  2  5  1 -1</clus>
</clustering>
</event>
<event>
 9    1  0.1610296E-005  0.1571589E+03  0.7546771E-02  0.1192003E+00
         21   -1    0    0  501  502  0.00000000000E+00  0.00000000000E+00  0.53315915669E+03  0.53315915669E+03  0.00000000000E+00 0.  1.
         -1   -1    0    0    0  501 -0.00000000000E+00 -0.00000000000E+00 -0.14935574525E+03  0.14935574525E+03  0.00000000000E+00 0.  1.
         23    2    1    2    0    0  0.57951831103E+02  0.11607179586E+03 -0.82859058206E+02  0.17941767242E+03  0.92162905375E+02 0.  0.
         23    2    1    2    0    0 -0.16701005649E+02 -0.11265344467E+03  0.35155655130E+03  0.38077516215E+03  0.91804102116E+02 0.  0.
        -11    1    3    3    0    0  0.26239141397E+02  0.65036850859E+02 -0.95036103257E+02  0.11811073378E+03  0.00000000000E+00 0.  1.
         11    1    3    3    0    0  0.31712689706E+02  0.51034944998E+02  0.12177045051E+02  0.61306938641E+02  0.00000000000E+00 0. -1.
        -13    1    4    4    0    0  0.24495869415E+02 -0.98937326282E+02  0.26532623195E+03  0.28422992719E+03  0.00000000000E+00 0.  1.
         13    1    4    4    0    0 -0.41196875064E+02 -0.13716118387E+02  0.86230319352E+02  0.96545234964E+02  0.00000000000E+00 0. -1.
         -1    1    1    2    0  502 -0.41250825455E+02 -0.34183511873E+01  0.11510591835E+03  0.12232206737E+03  0.00000000000E+00 0.  1.
<scales pt_clust_5="13000.00000" pt_clust_6="13000.00000" pt_clust_7="13000.00000" pt_clust_8="13000.00000" pt_clust_9="41.39222"></scales>
<clustering>
<clus scale="   41.392">  1  9  2 -1</clus>
<clus scale="   91.804">  7  8 -1 -1</clus>
<clus scale="   92.163">  5  6 -1 -1</clus>
<clus scale="  156.949">  1  7  2 -1</clus>
<clus scale="   41.392">  1  5  2 -1</clus>
</clustering>
</event>
<event>
 9    1  0.1610296E-005  0.1349972E+03  0.7546771E-02  0.1222331E+00
         -4   -1    0    0    0  501 -0.00000000000E+00  0.00000000000E+00  0.11787150585E+03  0.11787150585E+03  0.00000000000E+00 0.  1.
         21   -1    0    0  501  502  0.00000000000E+00 -0.00000000000E+00 -0.31565832035E+03  0.31565832035E+03  0.00000000000E+00 0.  1.
         23    2    1    2    0    0  0.89299795167E+02  0.28409723556E+02  0.26969445536E+02  0.12665864754E+03  0.80830045129E+02 0.  0.
         23    2    1    2    0    0 -0.12521535449E+03 -0.47801245526E+02 -0.20673456276E+03  0.26225346807E+03  0.89854649293E+02 0.  0.
        -11    1    3    3    0    0  0.71150829968E+02 -0.18261222128E+02  0.19747807837E+02  0.76065029765E+02  0.00000000000E+00 0.  1.
         11    1    3    3    0    0  0.18148965199E+02  0.46670945684E+02  0.72216376992E+01  0.50593617778E+02  0.00000000000E+00 0. -1.
        -13    1    4    4    0    0 -0.72206113062E+02  0.15068416280E+02 -0.13160646405E+03  0.15086762845E+03  0.00000000000E+00 0.  1.
         13    1    4    4    0    0 -0.53009241429E+02 -0.62869661807E+02 -0.75128098708E+02  0.11138583962E+03  0.00000000000E+00 0. -1.
         -4    1    1    2    0  502  0.35915559325E+02  0.19391521971E+02 -0.18021697278E+02  0.44617710595E+02  0.00000000000E+00 0.  1.
<scales pt_clust_5="13000.00000" pt_clust_6="13000.00000" pt_clust_7="13000.00000" pt_clust_8="13000.00000" pt_clust_9="40.81618"></scales>
<clustering>
<clus scale="   40.816">  2  9  1 -1</clus>
<clus scale="   80.830">  5  6 -1 -1</clus>
<clus scale="   89.855">  7  8 -1 -1</clus>
<clus scale="  129.166">  1  5  2 -1</clus>
<clus scale="   40.816">  2  5  1 -1</clus>
</clustering>
</event>
<event>
 9    1  0.1610296E-005  0.1374205E+03  0.7546771E-02  0.1219139E+00
          1   -1    0    0  502    0 -0.00000000000E+00  0.00000000000E+00  0.89856523487E+02  0.89856523487E+02  0.00000000000E+00 0. -1.
         21   -1    0    0  501  502  0.00000000000E+00 -0.00000000000E+00 -0.39602236822E+03  0.39602236822E+03  0.00000000000E+00 0.  1.
         23    2    1    2    0    0 -0.63616904948E+02  0.37744620631E+01 -0.67646029369E+02  0.13835912424E+03  0.10249831614E+03 0.  0.
         23    2    1    2    0    0  0.12424573642E+03 -0.26370519107E+02 -0.81285041418E+02  0.17749267805E+03  0.93616160500E+02 0.  0.
        -11    1    4    4    0    0  0.95645642300E+02  0.21553860534E+02 -0.32279651048E+02  0.10322128495E+03  0.00000000000E+00 0. -1.
         11    1    4    4    0    0  0.28600094116E+02 -0.47924379641E+02 -0.49005390370E+02  0.74271393099E+02  0.00000000000E+00 0.  1.
        -13    1    3    3    0    0 -0.57762405388E+02 -0.32219362861E+02 -0.76201438142E+02  0.10090214068E+03  0.00000000000E+00 0.  1.
         13    1    3    3    0    0 -0.58544995607E+01  0.35993824924E+02  0.85554087734E+01  0.37456983555E+02  0.00000000000E+00 0. -1.
          1    1    1    2  501    0 -0.60628831468E+02  0.22596057044E+02 -0.15723477395E+03  0.17002708942E+03  0.00000000000E+00 0. -1.
<scales pt_clust_5="13000.00000" pt_clust_6="13000.00000" pt_clust_7="13000.00000" pt_clust_8="13000.00000" pt_clust_9="64.70268"></scales>
<clustering>
<clus scale="   64.703">  2  9  1 -1</clus>
<clus scale="   93.616">  5  6 -1 -1</clus>
<clus scale="  102.498">  7  8 -1 -1</clus>
<clus scale="  130.929">  2  5  1 -1</clus>
<clus scale="   64.703">  2  5  1 -1</clus>
</clustering>
</event>
<event>
 9    1  0.1610296E-005  0.1177009E+03  0.7546771E-02  0.1253232E+00
         21   -1    0    0  501  502  0.00000000000E+00  0.00000000000E+00  0.47843526747E+02  0.47843526747E+02  0.00000000000E+00 0. -1.
          1   -1    0    0  502    0 -0.00000000000E+00 -0.00000000000E+00 -0.52389807813E+03  0.52389807813E+03  0.00000000000E+00 0. -1.
         23    2    1    2    0    0  0.14268342541E+02  0.81483277043E+02 -0.32806532515E+03  0.34609183882E+03  0.72866956163E+02 0.  0.
         23    2    1    2    0    0 -0.60884516178E+01 -0.57731117300E+02 -0.16345114980E+03  0.19615151546E+03  0.91592507876E+02 0.  0.
        -11    1    3    3    0    0 -0.22540100198E+02  0.15023902785E+02 -0.40974864183E+02  0.49119377711E+02  0.00000000000E+00 0.  1.
         11    1    3    3    0    0  0.36808442739E+02  0.66459374257E+02 -0.28709046096E+03  0.29697246111E+03  0.00000000000E+00 0. -1.
        -13    1    4    4    0    0  0.42029752010E+02 -0.36947077396E+02 -0.87761455152E+02  0.10408486726E+03  0.00000000000E+00 0. -1.
         13    1    4    4    0    0 -0.48118203628E+02 -0.20784039904E+02 -0.75689694644E+02  0.92066648198E+02  0.00000000000E+00 0.  1.
          1    1    1    2  501    0 -0.81798909231E+01 -0.23752159743E+02  0.15461923560E+02  0.29498250594E+02  0.00000000000E+00 0. -1.
<scales pt_clust_5="13000.00000" pt_clust_6="13000.00000" pt_clust_7="13000.00000" pt_clust_8="13000.00000" pt_clust_9="25.12122"></scales>
<clustering>
<clus scale="   25.121">  1  9  2 -1</clus>
<clus scale="   72.867">  5  6 -1 -1</clus>
<clus scale="   91.593">  7  8 -1 -1</clus>
<clus scale="  103.797">  2  5  1 -1</clus>
<clus scale="   25.121">  1  5  2 -1</clus>
</clustering>
</event>
<event>
 9    1  0.1610296E-005  0.9570153E+02  0.7546771E-02  0.1290826E+00
         -1   -1    0    0    0  501 -0.00000000000E+00  0.00000000000E+00  0.55464298095E+03  0.55464298095E+03  0.00000000000E+00 0.  1.
         21   -1    0    0  501  502  0.00000000000E+00 -0.00000000000E+00 -0.53599634659E+02  0.53599634659E+02  0.00000000000E+00 0.  1.
         23    2    1    2    0    0 -0.12031709979E+02 -0.38214991553E+02  0.42126941620E+03  0.43253496925E+03  0.89517769050E+02 0.  0.
         23    2    1    2    0    0  0.24072393629E+02  0.60495246112E+01  0.10069204420E+03  0.13549368331E+03  0.87198472280E+02 0.  0.
        -11    1    3    3    0    0 -0.25892407057E+02 -0.62956879352E+02  0.25847677415E+03  0.26729053140E+03  0.00000000000E+00 0. -1.
         11    1    3    3    0    0  0.13860697079E+02  0.24741887799E+02  0.16279264205E+03  0.16524443785E+03  0.00000000000E+00 0.  1.
        -13    1    4    4    0    0  0.52867875627E+02  0.21711311242E+02  0.72040092612E+02  0.91957426305E+02  0.00000000000E+00 0.  1.
         13    1    4    4    0    0 -0.28795481998E+02 -0.15661786631E+02  0.28651951586E+02  0.43536257001E+02  0.00000000000E+00 0. -1.
         -1    1    1    2    0  502 -0.12040683650E+02  0.32165466941E+02 -0.20918114108E+02  0.40213963050E+02  0.00000000000E+00 0.  1.
<scales pt_clust_5="13000.00000" pt_clust_6="13000.00000" pt_clust_7="13000.00000" pt_clust_8="13000.00000" pt_clust_9="34.34524"></scales>
<clustering>
<clus scale="   34.345">  2  9  1 -1</clus>
<clus scale="   87.198">  7  8 -1 -1</clus>
<clus scale="   89.518">  5  6 -1 -1</clus>
<clus scale="   93.536">  2  7  1 -1</clus>
<clus scale="   34.345">  2  5  1 -1</clus>
</clustering>
</event>
<event>
 9    1  0.1610296E-005  0.3271932E+03  0.7546771E-02  0.1091466E+00
         -2   -1    0    0    0  501 -0.00000000000E+00  0.00000000000E+00  0.33347796643E+03  0.33347796643E+03  0.00000000000E+00 0.  1.
         21   -1    0    0  501  502  0.00000000000E+00 -0.00000000000E+00 -0.66848414553E+03  0.66848414553E+03  0.00000000000E+00 0.  1.
         23    2    1    2    0    0  0.56440038307E+02 -0.16350501323E+03  0.43391935495E+02  0.20079879047E+03  0.92292615694E+02 0.  0.
         23    2    1    2    0    0  0.26800289999E+03  0.44069952610E+02  0.25362602789E+01  0.28673261491E+03  0.91877335131E+02 0.  0.
        -13    1    4    4    0    0  0.49588155005E+02  0.15886319230E+00 -0.35149819511E+02  0.60782564655E+02  0.00000000000E+00 0. -1.
         13    1    4    4    0    0  0.21841474498E+03  0.43911089418E+02  0.37686079790E+02  0.22595005025E+03  0.00000000000E+00 0.  1.
        -13    1    3    3    0    0  0.58957834396E+01 -0.13482278715E+03  0.14006266532E+02  0.13567652597E+03  0.00000000000E+00 0.  1.
         13    1    3    3    0    0  0.50544254867E+02 -0.28682226084E+02  0.29385668963E+02  0.65122264500E+02  0.00000000000E+00 0. -1.
         -2    1    1    2    0  502 -0.32444293829E+03  0.11943506062E+03 -0.38093437488E+03  0.51443070658E+03  0.00000000000E+00 0.  1.
<scales pt_clust_5="13000.00000" pt_clust_6="13000.00000" pt_clust_7="13000.00000" pt_clust_8="13000.00000" pt_clust_9="314.02853"></scales>
<clustering>
<clus scale="   91.877">  5  6 -1 -1</clus>
<clus scale="   92.293">  7  8 -1 -1</clus>
<clus scale="  196.054">  1  7  2 -1</clus>
<clus scale="  314.029">  2  9  1 -1</clus>
<clus scale="  314.029">  2  5  1 -1</clus>
</clustering>
</event>
<event>
 9    1  0.1610296E-005  0.1511929E+03  0.7546771E-02  0.1199532E+00
          2   -1    0    0  502    0 -0.00000000000E+00  0.00000000000E+00  0.58149394233E+03  0.58149394233E+03  0.00000000000E+00 0. -1.
         21   -1    0    0  501  502  0.00000000000E+00 -0.00000000000E+00 -0.60200861591E+02  0.60200861591E+02  0.00000000000E+00 0. -1.
         23    2    1    2    0    0 -0.12650096199E+03  0.20915563506E+02  0.37728254135E+03  0.40778312419E+03  0.86631438804E+02 0.  0.
         23    2    1    2    0    0  0.11034366804E+03 -0.75057407778E+01  0.15483866120E+03  0.21028691062E+03  0.89518224721E+02 0.  0.
        -11    1    3    3    0    0 -0.40811793103E+02  0.47208846463E+02  0.19339289855E+03  0.20321193580E+03  0.00000000000E+00 0.  1.
         11    1    3    3    0    0 -0.85689168892E+02 -0.26293282957E+02  0.18388964280E+03  0.20457118840E+03  0.00000000000E+00 0. -1.
        -13    1    4    4    0    0  0.10019198548E+03 -0.32617085242E+02  0.84995358286E+02  0.13537547464E+03  0.00000000000E+00 0.  1.
         13    1    4    4    0    0  0.10151682561E+02  0.25111344464E+02  0.69843302911E+02  0.74911435983E+02  0.00000000000E+00 0. -1.
          2    1    1    2  501    0  0.16157293956E+02 -0.13409822729E+02 -0.10828121802E+02  0.23624769107E+02  0.00000000000E+00 0. -1.
<scales pt_clust_5="13000.00000" pt_clust_6="13000.00000" pt_clust_7="13000.00000" pt_clust_8="13000.00000" pt_clust_9="20.99718"></scales>
<clustering>
<clus scale="   20.997">  2  9  1 -1</clus>
<clus scale="   86.631">  5  6 -1 -1</clus>
<clus scale="   89.518">  7  8 -1 -1</clus>
<clus scale="  149.502">  1  5  2 -1</clus>
<clus scale="   20.997">  2  5  1 -1</clus>
</clustering>
</event>
<event>
 9    1  0.1610296E-005  0.1039809E+03  0.7546771E-02  0.1272918E+00
         21   -1    0    0  501  502  0.00000000000E+00  0.00000000000E+00  0.20723349002E+02  0.20723349002E+02  0.00000000000E+00 0.  1.
          1   -1    0    0  502    0 -0.00000000000E+00 -0.00000000000E+00 -0.82862289360E+03  0.82862289360E+03  0.00000000000E+00 0. -1.
         23    2    1    2    0    0  0.32983855197E+02 -0.24058684112E+02 -0.53931153121E+03  0.54875390738E+03  0.92774825188E+02 0.  0.
         23    2    1    2    0    0 -0.49706057722E+02  0.40653300941E+02 -0.22106643251E+03  0.24755165258E+03  0.91038838212E+02 0.  0.
        -11    1    4    4    0    0 -0.59388622880E+01 -0.28748459896E+02 -0.58801640887E+02  0.65721967428E+02  0.00000000000E+00 0. -1.
         11    1    4    4    0    0 -0.43767195434E+02  0.69401760838E+02 -0.16226479162E+03  0.18182968516E+03  0.00000000000E+00 0.  1.
        -13    1    3    3    0    0  0.13403920439E+01  0.33930081918E+02 -0.14315114276E+03  0.14712340665E+03  0.00000000000E+00 0.  1.
         13    1    3    3    0    0  0.31643463153E+02 -0.57988766030E+02 -0.39616038845E+03  0.40163050074E+03  0.00000000000E+00 0. -1.
          1    1    1    2  501    0  0.16722202526E+02 -0.16594616829E+02 -0.47521580886E+02  0.53040682640E+02  0.00000000000E+00 0. -1.
<scales pt_clust_5="13000.00000" pt_clust_6="13000.00000" pt_clust_7="13000.00000" pt_clust_8="13000.00000" pt_clust_9="23.55872"></scales>
<clustering>
<clus scale="   23.559">  1  9  2 -1</clus>
<clus scale="   91.039">  5  6 -1 -1</clus>
<clus scale="   92.775">  7  8 -1 -1</clus>
<clus scale="  102.435">  1  5  2 -1</clus>
<clus scale="   23.559">  1  5  2 -1</clus>
</clustering>
</event>
<event>
 9    1  0.1610296E-005  0.9809348E+02  0.7546771E-02  0.1286891E+00
         -2   -1    0    0    0  501 -0.00000000000E+00  0.00000000000E+00  0.35147815271E+02  0.35147815271E+02  0.00000000000E+00 0.  1.
         21   -1    0    0  501  502  0.00000000000E+00 -0.00000000000E+00 -0.51967119180E+03  0.51967119180E+03  0.00000000000E+00 0. -1.
         23    2    1    2    0    0  0.31852680660E+01 -0.10920397104E+02 -0.17049461178E+03  0.19552186572E+03  0.95031501742E+02 0.  0.
         23    2    1    2    0    0  0.50531946238E+02 -0.28562024108E+02 -0.17931329933E+03  0.20898860094E+03  0.90297891416E+02 0.  0.
        -11    1    3    3    0    0 -0.43817303508E+02  0.46138280768E+01 -0.10106628225E+03  0.11025260498E+03  0.00000000000E+00 0.  1.
         11    1    3    3    0    0  0.47002571574E+02 -0.15534225181E+02 -0.69428329526E+02  0.85269260741E+02  0.00000000000E+00 0. -1.
        -11    1    4    4    0    0  0.15736684465E+02 -0.40831878442E+02 -0.16277832297E+03  0.16855761022E+03  0.00000000000E+00 0. -1.
         11    1    4    4    0    0  0.34795261773E+02  0.12269854334E+02 -0.16534976363E+02  0.40430990719E+02  0.00000000000E+00 0.  1.
         -2    1    1    2    0  502 -0.53717214304E+02  0.39482421212E+02 -0.13471546542E+03  0.15030854041E+03  0.00000000000E+00 0.  1.
<scales pt_clust_5="13000.00000" pt_clust_6="13000.00000" pt_clust_7="13000.00000" pt_clust_8="13000.00000" pt_clust_9="66.66634"></scales>
<clustering>
<clus scale="   66.666">  2  9  1 -1</clus>
<clus scale="   90.298">  7  8 -1 -1</clus>
<clus scale="   93.515">  2  7  1 -1</clus>
<clus scale="   95.032">  5  6 -1 -1</clus>
<clus scale="   66.666">  2  5  1 -1</clus>
</clustering>
</event>
<event>
 9    1  0.1610296E-005  0.1378609E+03  0.7546771E-02  0.1216478E+00
          2   -1    0    0  502    0 -0.00000000000E+00  0.00000000000E+00  0.80837770832E+03  0.80837770832E+03  0.00000000000E+00 0. -1.
         21   -1    0    0  501  502  0.00000000000E+00 -0.00000000000E+00 -0.47628466502E+02  0.47628466502E+02  0.00000000000E+00 0. -1.
         23    2    1    2    0    0 -0.13370158685E+02 -0.91198227930E+02  0.37613404586E+03  0.39779497939E+03  0.90929353106E+02 0.  0.
         23    2    1    2    0    0  0.85713351587E+02  0.10033490998E+03  0.32997033075E+03  0.36708996952E+03  0.91982355614E+02 0.  0.
        -13    1    4    4    0    0  0.55480708157E+01  0.73053991011E+02  0.18816381877E+03  0.20192396932E+03  0.00000000000E+00 0.  1.
         13    1    4    4    0    0  0.80165280771E+02  0.27280918966E+02  0.14180651199E+03  0.16516600020E+03  0.00000000000E+00 0. -1.
        -13    1    3    3    0    0 -0.21084283503E+02  0.78262208730E+01  0.28814161978E+02  0.36552054313E+02  0.00000000000E+00 0.  1.
         13    1    3    3    0    0  0.77141248177E+01 -0.99024448803E+02  0.34731988388E+03  0.36124292508E+03  0.00000000000E+00 0. -1.
          2    1    1    2  501    0 -0.72343192901E+02 -0.91366820465E+01  0.54644865210E+02  0.91121225913E+02  0.00000000000E+00 0. -1.
<scales pt_clust_5="13000.00000" pt_clust_6="13000.00000" pt_clust_7="13000.00000" pt_clust_8="13000.00000" pt_clust_9="72.91788"></scales>
<clustering>
<clus scale="   72.918">  2  9  1 -1</clus>
<clus scale="   90.929">  7  8 -1 -1</clus>
<clus scale="   91.982">  5  6 -1 -1</clus>
<clus scale="  137.161">  1  7  2 -1</clus>
<clus scale="   72.918">  2  5  1 -1</clus>
</clustering>
</event>
<event>
 9    1  0.1610296E-005  0.1006487E+03  0.7546771E-02  0.1279761E+00
          1   -1    0    0  502    0 -0.00000000000E+00  0.00000000000E+00  0.23036816531E+03  0.23036816531E+03  0.00000000000E+00 0. -1.
         21   -1    0    0  501  502  0.00000000000E+00 -0.00000000000E+00 -0.69972915600E+02  0.69972915600E+02  0.00000000000E+00 0.  1.
         23    2    1    2    0    0  0.32515515046E+02 -0.23233852741E+01  0.10333637020E+03  0.14190996318E+03  0.91637194441E+02 0.  0.
         23    2    1    2    0    0 -0.51377211631E+02  0.25005075658E+02  0.68649749784E+02  0.12673615047E+03  0.89913247111E+02 0.  0.
        -11    1    4    4    0    0 -0.22082180073E+02  0.51361358705E+02  0.11116809447E+02  0.57001713107E+02  0.00000000000E+00 0.  1.
         11    1    4    4    0    0 -0.29295031559E+02 -0.26356283047E+02  0.57532940337E+02  0.69734437360E+02  0.00000000000E+00 0. -1.
        -11    1    3    3    0    0  0.41319397419E+02 -0.40544338838E+02  0.57678843064E+02  0.81718938760E+02  0.00000000000E+00 0. -1.
         11    1    3    3    0    0 -0.88038823733E+01  0.38220953564E+02  0.45657527136E+02  0.60191024417E+02  0.00000000000E+00 0.  1.
          1    1    1    2  501    0  0.18861696586E+02 -0.22681690384E+02 -0.11590870269E+02  0.31694967272E+02  0.00000000000E+00 0. -1.
<scales pt_clust_5="13000.00000" pt_clust_6="13000.00000" pt_clust_7="13000.00000" pt_clust_8="13000.00000" pt_clust_9="29.49954"></scales>
<clustering>
<clus scale="   29.500">  2  9  1 -1</clus>
<clus scale="   89.913">  5  6 -1 -1</clus>
<clus scale="   91.637">  7  8 -1 -1</clus>
<clus scale="   99.082">  2  5  1 -1</clus>
<clus scale="   29.500">  2  5  1 -1</clus>
</clustering>
</event>
<event>
 9    1  0.1610296E-005  0.2375060E+03  0.7546771E-02  0.1121594E+00
         21   -1    0    0  501  502  0.00000000000E+00  0.00000000000E+00  0.17932859220E+03  0.17932859220E+03  0.00000000000E+00 0.  1.
         -1   -1    0    0    0  501 -0.00000000000E+00 -0.00000000000E+00 -0.50777505372E+03  0.50777505372E+03  0.00000000000E+00 0.  1.
         23    2    1    2    0    0 -0.20475160590E+03  0.10686102874E+03 -0.33424053980E+03  0.41602886772E+03  0.89558811687E+02 0.  0.
         23    2    1    2    0    0  0.14688554583E+03 -0.12068507402E+03  0.11446514319E+02  0.21131245589E+03  0.91551519148E+02 0.  0.
        -11    1    3    3    0    0 -0.14406246429E+03  0.47258541193E+02 -0.26916350798E+03  0.30892775428E+03  0.00000000000E+00 0.  1.
         11    1    3    3    0    0 -0.60689141608E+02  0.59602487549E+02 -0.65077031819E+02  0.10710111345E+03  0.00000000000E+00 0. -1.
        -11    1    4    4    0    0  0.12006028445E+03 -0.13490466052E+03  0.82074881188E+01  0.18077915310E+03  0.00000000000E+00 0.  1.
         11    1    4    4    0    0  0.26825261384E+02  0.14219586505E+02  0.32390262002E+01  0.30533302793E+02  0.00000000000E+00 0. -1.
         -1    1    1    2    0  502  0.57866060065E+02  0.13824045276E+02 -0.56524360395E+01  0.59762322314E+02  0.00000000000E+00 0.  1.
<scales pt_clust_5="13000.00000" pt_clust_6="13000.00000" pt_clust_7="13000.00000" pt_clust_8="13000.00000" pt_clust_9="59.49441"></scales>
<clustering>
<clus scale="   59.494">  1  9  2 -1</clus>
<clus scale="   89.559">  5  6 -1 -1</clus>
<clus scale="   91.552">  7  8 -1 -1</clus>
<clus scale="  236.745">  2  5  1 -1</clus>
<clus scale="   59.494">  1  5  2 -1</clus>
</clustering>
</event>
<event>
 9    1  0.1610296E-005  0.9523863E+02  0.7546771E-02  0.1290863E+00
         21   -1    0    0  501  502  0.00000000000E+00  0.00000000000E+00  0.25725209307E+03  0.25725209307E+03  0.00000000000E+00 0.  1.
         -3   -1    0    0    0  501 -0.00000000000E+00 -0.00000000000E+00 -0.78697066021E+02  0.78697066021E+02  0.00000000000E+00 0.  1.
         23    2    1    2    0    0 -0.31318884855E+02 -0.16415011080E+02 -0.14077623784E+02  0.98563920267E+02  0.90919424490E+02 0.  0.
         23    2    1    2    0    0  0.23811593489E+01  0.17293375307E+02  0.83132921772E+02  0.12412291435E+03  0.90502400160E+02 0.  0.
        -13    1    3    3    0    0 -0.36544627911E+02  0.49270711900E+01  0.31156611858E+02  0.48275462941E+02  0.00000000000E+00 0.  1.
         13    1    3    3    0    0  0.52257430562E+01 -0.21342082270E+02 -0.45234235642E+02  0.50288457326E+02  0.00000000000E+00 0. -1.
        -13    1    4    4    0    0 -0.17610800377E+02  0.50458954184E+02  0.47842468584E+02  0.71729688048E+02  0.00000000000E+00 0.  1.
         13    1    4    4    0    0  0.19991959725E+02 -0.33165578878E+02  0.35290453188E+02  0.52393226301E+02  0.00000000000E+00 0. -1.
         -3    1    1    2    0  502  0.28937725506E+02 -0.87836422659E+00  0.10949972906E+03  0.11326232448E+03  0.00000000000E+00 0.  1.
<scales pt_clust_5="13000.00000" pt_clust_6="13000.00000" pt_clust_7="13000.00000" pt_clust_8="13000.00000" pt_clust_9="28.95105"></scales>
<clustering>
<clus scale="   28.951">  1  9  2 -1</clus>
<clus scale="   90.502">  7  8 -1 -1</clus>
<clus scale="   90.919">  5  6 -1 -1</clus>
<clus scale="   94.841">  1  7  2 -1</clus>
<clus scale="   28.951">  1  5  2 -1</clus>
</clustering>
</event>
<event>
 9    1  0.1610296E-005  0.1250318E+03  0.7546771E-02  0.1235644E+00
          3   -1    0    0  502    0 -0.00000000000E+00  0.00000000000E+00  0.63499466587E+03  0.63499466587E+03  0.00000000000E+00 0. -1.
         21   -1    0    0  501  502  0.00000000000E+00 -0.00000000000E+00 -0.56866798194E+02  0.56866798194E+02  0.00000000000E+00 0. -1.
         23    2    1    2    0    0 -0.60834174092E+02  0.44101117432E+02  0.35460371306E+03  0.37349663379E+03  0.90056853410E+02 0.  0.
         23    2    1    2    0    0  0.12375636764E+03 -0.27508522776E+02  0.19135708216E+03  0.24577531871E+03  0.87838585114E+02 0.  0.
        -11    1    4    4    0    0  0.43313289420E+02 -0.62044233689E+01  0.14296591246E+03  0.14951183243E+03  0.00000000000E+00 0. -1.
         11    1    4    4    0    0  0.80443078224E+02 -0.21304099407E+02  0.48391169696E+02  0.96263486277E+02  0.00000000000E+00 0.  1.
        -11    1    3    3    0    0 -0.23447558682E+02 -0.14060279379E+02  0.26108428595E+02  0.37803829278E+02  0.00000000000E+00 0. -1.
         11    1    3    3    0    0 -0.37386615409E+02  0.58161396811E+02  0.32849528446E+03  0.33569280452E+03  0.00000000000E+00 0.  1.
          3    1    1    2  501    0 -0.62922193552E+02 -0.16592594656E+02  0.32167072466E+02  0.72589511570E+02  0.00000000000E+00 0. -1.
<scales pt_clust_5="13000.00000" pt_clust_6="13000.00000" pt_clust_7="13000.00000" pt_clust_8="13000.00000" pt_clust_9="65.07316"></scales>
<clustering>
<clus scale="   65.073">  2  9  1 -1</clus>
<clus scale="   87.839">  5  6 -1 -1</clus>
<clus scale="   90.057">  7  8 -1 -1</clus>
<clus scale="  123.444">  2  5  1 -1</clus>
<clus scale="   65.073">  2  5  1 -1</clus>
</clustering>
</event>
<event>
 9    1  0.1610296E-005  0.1978287E+03  0.7546771E-02  0.1151781E+00
         21   -1    0    0  501  502  0.00000000000E+00  0.00000000000E+00  0.54880629911E+03  0.54880629911E+03  0.00000000000E+00 0. -1.
          2   -1    0    0  502    0 -0.00000000000E+00 -0.00000000000E+00 -0.37348579809E+03  0.37348579809E+03  0.00000000000E+00 0. -1.
         23    2    1    2    0    0  0.12333060720E+03  0.12575780817E+03 -0.31974502655E+03  0.37643597624E+03  0.91878709273E+02 0.  0.
         23    2    1    2    0    0 -0.12806963374E+03 -0.96662630687E+02  0.47713274533E+03  0.51135144875E+03  0.89884104337E+02 0.  0.
        -11    1    3    3    0    0 -0.84546416530E+01  0.22781673202E+02 -0.83630420524E+02  0.87089223423E+02  0.00000000000E+00 0. -1.
         11    1    3    3    0    0  0.13178524885E+03  0.10297613497E+03 -0.23611460603E+03  0.28934675282E+03  0.00000000000E+00 0.  1.
        -13    1    4    4    0    0  0.23066270791E+01 -0.24969993685E+02  0.14854836087E+03  0.15065004689E+03  0.00000000000E+00 0.  1.
         13    1    4    4    0    0 -0.13037626082E+03 -0.71692637002E+02  0.32858438447E+03  0.36070140186E+03  0.00000000000E+00 0. -1.
          2    1    1    2  501    0  0.47390265431E+01 -0.29095177481E+02  0.17932782245E+02  0.34504672210E+02  0.00000000000E+00 0. -1.
<scales pt_clust_5="13000.00000" pt_clust_6="13000.00000" pt_clust_7="13000.00000" pt_clust_8="13000.00000" pt_clust_9="29.47860"></scales>
<clustering>
<clus scale="   29.479">  1  9  2 -1</clus>
<clus scale="   89.884">  7  8 -1 -1</clus>
<clus scale="   91.879">  5  6 -1 -1</clus>
<clus scale="  196.910">  1  7  2 -1</clus>
<clus scale="   29.479">  1  5  2 -1</clus>
</clustering>
</event>
<event>
 9    1  0.1610296E-005  0.9494151E+02  0.7546771E-02  0.1292681E+00
         21   -1    0    0  501  502  0.00000000000E+00  0.00000000000E+00  0.46987291542E+02  0.46987291542E+02  0.00000000000E+00 0. -1.
          1   -1    0    0  502    0 -0.00000000000E+00 -0.00000000000E+00 -0.51138291152E+03  0.51138291152E+03  0.00000000000E+00 0. -1.
         23    2    1    2    0    0 -0.27719616106E+01 -0.32071017764E+02 -0.41239215021E+03  0.42355543875E+03  0.91080679520E+02 0.  0.
         23    2    1    2    0    0  0.64047543299E+01  0.22937182058E+01 -0.55292851538E+02  0.10463687863E+03  0.88573669435E+02 0.  0.
        -11    1    4    4    0    0 -0.78551807013E+01  0.43981492987E+02 -0.25383740662E+02  0.51384918791E+02  0.00000000000E+00 0. -1.
         11    1    4    4    0    0  0.14259935031E+02 -0.41687774781E+02 -0.29909110877E+02  0.53251959839E+02  0.00000000000E+00 0.  1.
        -11    1    3    3    0    0  0.37977541151E+02 -0.35368438155E+02 -0.17017098659E+03  0.17790836047E+03  0.00000000000E+00 0.  1.
         11    1    3    3    0    0 -0.40749502762E+02  0.32974203902E+01 -0.24222116362E+03  0.24564707827E+03  0.00000000000E+00 0. -1.
          1    1    1    2  501    0 -0.36327927194E+01  0.29777299559E+02  0.32893817749E+01  0.30177885685E+02  0.00000000000E+00 0. -1.
<scales pt_clust_5="13000.00000" pt_clust_6="13000.00000" pt_clust_7="13000.00000" pt_clust_8="13000.00000" pt_clust_9="29.99808"></scales>
<clustering>
<clus scale="   29.998">  1  9  2 -1</clus>
<clus scale="   88.574">  5  6 -1 -1</clus>
<clus scale="   91.081">  7  8 -1 -1</clus>
<clus scale="   92.539">  1  5  2 -1</clus>
<clus scale="   29.998">  1  5  2 -1</clus>
</clustering>
</event>
<event>
 9    1  0.1610296E-005  0.9119582E+02  0.7546771E-02  0.1302289E+00
         -1   -1    0    0    0  501 -0.00000000000E+00  0.00000000000E+00  0.91875765968E+02  0.91875765968E+02  0.00000000000E+00 0.  1.
         21   -1    0    0  501  502  0.00000000000E+00 -0.00000000000E+00 -0.17322874174E+03  0.17322874174E+03  0.00000000000E+00 0. -1.
         23    2    1    2    0    0  0.21582571366E+01 -0.50602718226E+01  0.27649722224E+02  0.94400410570E+02  0.90092541045E+02 0.  0.
         23    2    1    2    0    0 -0.27077037619E+02  0.30838381546E+02 -0.79120277432E+02  0.12403059695E+03  0.86251950327E+02 0.  0.
        -11    1    3    3    0    0  0.14140134004E+02  0.40315815144E+02  0.77333024054E+01  0.43417880032E+02  0.00000000000E+00 0.  1.
         11    1    3    3    0    0 -0.11981876867E+02 -0.45376086967E+02  0.19916419818E+02  0.50982530538E+02  0.00000000000E+00 0. -1.
        -13    1    4    4    0    0 -0.31836939761E+02  0.57988977826E+02 -0.44283183371E+02  0.79607239696E+02  0.00000000000E+00 0. -1.
         13    1    4    4    0    0  0.47599021414E+01 -0.27150596279E+02 -0.34837094061E+02  0.44423357249E+02  0.00000000000E+00 0.  1.
         -1    1    1    2    0  502  0.24918780483E+02 -0.25778109724E+02 -0.29882420568E+02  0.46673500197E+02  0.00000000000E+00 0.  1.
<scales pt_clust_5="13000.00000" pt_clust_6="13000.00000" pt_clust_7="13000.00000" pt_clust_8="13000.00000" pt_clust_9="35.85326"></scales>
<clustering>
<clus scale="   35.853">  2  9  1 -1</clus>
<clus scale="   86.252">  7  8 -1 -1</clus>
<clus scale="   87.404">  2  7  1 -1</clus>
<clus scale="   90.093">  5  6 -1 -1</clus>
<clus scale="   35.853">  2  5  1 -1</clus>
</clustering>
</event>
<event>
 9    1  0.1610296E-005  0.1251452E+03  0.7546771E-02  0.1235068E+00
         -3   -1    0    0    0  501 -0.00000000000E+00  0.00000000000E+00  0.24934375707E+03  0.24934375707E+03  0.00000000000E+00 0.  1.
         21   -1    0    0  501  502  0.00000000000E+00 -0.00000000000E+00 -0.12166093555E+03  0.12166093555E+03  0.00000000000E+00 0.  1.
         23    2    1    2    0    0 -0.26513279600E+02  0.98797772443E+02  0.14312413516E+03  0.19701119398E+03  0.88684489355E+02 0.  0.
         23    2    1    2    0    0  0.32814505720E+02 -0.56272139051E+02  0.26623006938E+02  0.11384749286E+03  0.89493696493E+02 0.  0.
        -11    1    4    4    0    0  0.42601980570E+02  0.99316032364E+01  0.93843762599E+01  0.44739602246E+02  0.00000000000E+00 0. -1.
         11    1    4    4    0    0 -0.97874748497E+01 -0.66203742288E+02  0.17238630678E+02  0.69107890609E+02  0.00000000000E+00 0.  1.
        -11    1    3    3    0    0  0.16784826528E+01  0.87440684149E+02  0.14178494967E+03  0.16658830242E+03  0.00000000000E+00 0.  1.
         11    1    3    3    0    0 -0.28191762252E+02  0.11357088294E+02  0.13391854941E+01  0.30422891565E+02  0.00000000000E+00 0. -1.
         -3    1    1    2    0  502 -0.63012261207E+01 -0.42525633392E+02 -0.42064320576E+02  0.60146005782E+02  0.00000000000E+00 0.  1.
<scales pt_clust_5="13000.00000" pt_clust_6="13000.00000" pt_clust_7="13000.00000" pt_clust_8="13000.00000" pt_clust_9="42.98994"></scales>
<clustering>
<clus scale="   42.990">  2  9  1 -1</clus>
<clus scale="   88.684">  7  8 -1 -1</clus>
<clus scale="   89.494">  5  6 -1 -1</clus>
<clus scale="  124.568">  1  7  2 -1</clus>
<clus scale="   42.990">  2  5  1 -1</clus>
</clustering>
</event>
<event>
 9    1  0.1610296E-005  0.1694240E+03  0.7546771E-02  0.1179143E+00
         -2   -1    0    0    0  501 -0.00000000000E+00  0.00000000000E+00  0.31450580356E+03  0.31450580356E+03  0.00000000000E+00 0.  1.
         21   -1    0    0  501  502  0.00000000000E+00 -0.00000000000E+00 -0.39882302337E+03  0.39882302337E+03  0.00000000000E+00 0.  1.
         23    2    1    2    0    0 -0.12247524808E+03 -0.65201339134E+02  0.22519090328E+03  0.27900371348E+03  0.88773465610E+02 0.  0.
         23    2    1    2    0    0  0.17352726854E+03  0.35541378587E+01 -0.12572441304E+03  0.23386779057E+03  0.93611808064E+02 0.  0.
        -13    1    4    4    0    0  0.15343240991E+02  0.29366011821E+02 -0.40551698361E+02  0.52366190757E+02  0.00000000000E+00 0.  1.
         13    1    4    4    0    0  0.15818402755E+03 -0.25811873962E+02 -0.85172714679E+02  0.18150159982E+03  0.00000000000E+00 0. -1.
        -13    1    3    3    0    0 -0.11551039292E+03 -0.85091025420E+02  0.20048746794E+03  0.24653267183E+03  0.00000000000E+00 0.  1.
         13    1    3    3    0    0 -0.69648551640E+01  0.19889686286E+02  0.24703435343E+02  0.32471041649E+02  0.00000000000E+00 0. -1.
         -2    1    1    2    0  502 -0.51052020459E+02  0.61647201275E+02 -0.18378371004E+03  0.20045732288E+03  0.00000000000E+00 0.  1.
<scales pt_clust_5="13000.00000" pt_clust_6="13000.00000" pt_clust_7="13000.00000" pt_clust_8="13000.00000" pt_clust_9="80.04178"></scales>
<clustering>
<clus scale="   80.042">  2  9  1 -1</clus>
<clus scale="   88.773">  7  8 -1 -1</clus>
<clus scale="   93.612">  5  6 -1 -1</clus>
<clus scale="  166.799">  1  7  2 -1</clus>
<clus scale="   80.042">  2  5  1 -1</clus>
</clustering>
</event>
<event>
 9    1  0.1610296E-005  0.9304455E+02  0.7546771E-02  0.1296155E+00
         21   -1    0    0  501  502  0.00000000000E+00  0.00000000000E+00  0.10052952721E+03  0.10052952721E+03  0.00000000000E+00 0. -1.
          1   -1    0    0  502    0 -0.00000000000E+00 -0.00000000000E+00 -0.31818273955E+03  0.31818273955E+03  0.00000000000E+00 0. -1.
         23    2    1    2    0    0 -0.25516285718E+01 -0.14057810233E+02 -0.23917993822E+03  0.25604785694E+03  0.90273635996E+02 0.  0.
         23    2    1    2    0    0  0.26366170396E+01  0.36520697734E+02 -0.33037857285E+02  0.10365693339E+03  0.91173168822E+02 0.  0.
        -13    1    3    3    0    0  0.40545882419E+02 -0.18274242619E+02 -0.15673290573E+03  0.16292059496E+03  0.00000000000E+00 0. -1.
         13    1    3    3    0    0 -0.43097510991E+02  0.42164323862E+01 -0.82447032494E+02  0.93127261974E+02  0.00000000000E+00 0.  1.
        -13    1    4    4    0    0 -0.34162677653E+02  0.47057847656E+02 -0.10068831088E+02  0.59016192100E+02  0.00000000000E+00 0.  1.
         13    1    4    4    0    0  0.36799294692E+02 -0.10537149922E+02 -0.22969026197E+02  0.44640741289E+02  0.00000000000E+00 0. -1.
          1    1    1    2  501    0 -0.84988467859E-01 -0.22462887501E+02  0.54564583170E+02  0.59007476429E+02  0.00000000000E+00 0. -1.
<scales pt_clust_5="13000.00000" pt_clust_6="13000.00000" pt_clust_7="13000.00000" pt_clust_8="13000.00000" pt_clust_9="22.46305"></scales>
<clustering>
<clus scale="   22.463">  1  9  2 -1</clus>
<clus scale="   90.274">  5  6 -1 -1</clus>
<clus scale="   91.173">  7  8 -1 -1</clus>
<clus scale="   92.163">  2  5  1 -1</clus>
<clus scale="   22.463">  1  5  2 -1</clus>
</clustering>
</event>
<event>
 9    1  0.1610296E-005  0.1139898E+03  0.7546771E-02  0.1253999E+00
          2   -1    0    0  502    0 -0.00000000000E+00  0.00000000000E+00  0.20562722138E+03  0.20562722138E+03  0.00000000000E+00 0. -1.
         21   -1    0    0  501  502  0.00000000000E+00 -0.00000000000E+00 -0.12141811741E+03  0.12141811741E+03  0.00000000000E+00 0. -1.
         23    2    1    2    0    0 -0.51328871626E+02  0.30954346662E+02  0.63428905736E+02  0.12760722413E+03  0.93099693484E+02 0.  0.
         23    2    1    2    0    0  0.48000263266E+02 -0.55211007106E+02  0.75661892036E+02  0.13934264458E+03  0.91320151736E+02 0.  0.
        -11    1    4    4    0    0  0.71289150774E+02 -0.35216806102E+02  0.31420712311E+02  0.85496360228E+02  0.00000000000E+00 0. -1.
         11    1    4    4    0    0 -0.23288887508E+02 -0.19994201004E+02  0.44241179725E+02  0.53846284353E+02  0.00000000000E+00 0.  1.
        -13    1    3    3    0    0  0.18450229182E+02  0.14071229729E+02 -0.96803432198E+01  0.25141986950E+02  0.00000000000E+00 0.  1.
         13    1    3    3    0    0 -0.69779100808E+02  0.16883116933E+02  0.73109248956E+02  0.10246523718E+03  0.00000000000E+00 0. -1.
          2    1    1    2  501    0  0.33286083603E+01  0.24256660444E+02 -0.54881693804E+02  0.60095470081E+02  0.00000000000E+00 0. -1.
<scales pt_clust_5="13000.00000" pt_clust_6="13000.00000" pt_clust_7="13000.00000" pt_clust_8="13000.00000" pt_clust_9="24.48398"></scales>
<clustering>
<clus scale="   24.484">  2  9  1 -1</clus>
<clus scale="   91.320">  5  6 -1 -1</clus>
<clus scale="   93.100">  7  8 -1 -1</clus>
<clus scale="  112.541">  2  5  1 -1</clus>
<clus scale="   24.484">  2  5  1 -1</clus>
</clustering>
</event>
<event>
 9    1  0.1610296E-005  0.1110366E+03  0.7546771E-02  0.1259953E+00
         -1   -1    0    0    0  501 -0.00000000000E+00  0.00000000000E+00  0.26966418797E+03  0.26966418797E+03  0.00000000000E+00 0.  1.
         21   -1    0    0  501  502  0.00000000000E+00 -0.00000000000E+00 -0.80525941222E+02  0.80525941222E+02  0.00000000000E+00 0. -1.
         23    2    1    2    0    0  0.93512431886E+01 -0.36084181827E+02  0.41022056815E+02  0.10620323020E+03  0.90591407058E+02 0.  0.
         23    2    1    2    0    0 -0.25573461329E+01  0.87544126731E+02  0.60031358692E+02  0.14174590691E+03  0.93902204210E+02 0.  0.
        -11    1    4    4    0    0  0.37329283709E+02  0.72815856801E+02  0.22080714958E+02  0.84753657130E+02  0.00000000000E+00 0. -1.
         11    1    4    4    0    0 -0.39886629842E+02  0.14728269929E+02  0.37950643735E+02  0.56992249781E+02  0.00000000000E+00 0.  1.
        -13    1    3    3    0    0  0.31439584242E+02 -0.33248535439E+02  0.61020575999E+02  0.76272034595E+02  0.00000000000E+00 0.  1.
         13    1    3    3    0    0 -0.22088341053E+02 -0.28356463880E+01 -0.19998519183E+02  0.29931195607E+02  0.00000000000E+00 0. -1.
         -1    1    1    2    0  502 -0.67938970557E+01 -0.51459944904E+02  0.88084831239E+02  0.10224099208E+03  0.00000000000E+00 0.  1.
<scales pt_clust_5="13000.00000" pt_clust_6="13000.00000" pt_clust_7="13000.00000" pt_clust_8="13000.00000" pt_clust_9="51.90651"></scales>
<clustering>
<clus scale="   51.907">  2  9  1 -1</clus>
<clus scale="   90.591">  7  8 -1 -1</clus>
<clus scale="   93.902">  5  6 -1 -1</clus>
<clus scale="  108.251">  1  7  2 -1</clus>
<clus scale="   51.907">  2  5  1 -1</clus>
</clustering>
</event>
<event>
 9    1  0.1610296E-005  0.1129820E+03  0.7546771E-02  0.1256008E+00
          2   -1    0    0  502    0 -0.00000000000E+00  0.00000000000E+00  0.47526463388E+03  0.47526463388E+03  0.00000000000E+00 0. -1.
         21   -1    0    0  501  502  0.00000000000E+00 -0.00000000000E+00 -0.35029249839E+02  0.35029249839E+02  0.00000000000E+00 0.  1.
         23    2    1    2    0    0  0.29028867754E+02  0.66942249943E+02  0.24811302822E+03  0.27432861594E+03  0.91499588848E+02 0.  0.
         23    2    1    2    0    0 -0.15495685402E+02 -0.49673972179E+02  0.18316343808E+03  0.21226711071E+03  0.93812906699E+02 0.  0.
        -11    1    3    3    0    0  0.40273961597E+02  0.13585653872E+02  0.37209283235E+02  0.56489757768E+02  0.00000000000E+00 0.  1.
         11    1    3    3    0    0 -0.11245093843E+02  0.53356596071E+02  0.21090374498E+03  0.21783885817E+03  0.00000000000E+00 0. -1.
        -13    1    4    4    0    0  0.30498317109E+02 -0.12036905660E+02  0.19502140882E+02  0.38149284965E+02  0.00000000000E+00 0. -1.
         13    1    4    4    0    0 -0.45994002511E+02 -0.37637066519E+02  0.16366129720E+03  0.17411782575E+03  0.00000000000E+00 0.  1.
          2    1    1    2  501    0 -0.13533182352E+02 -0.17268277763E+02  0.89589177462E+01  0.23698157073E+02  0.00000000000E+00 0. -1.
<scales pt_clust_5="13000.00000" pt_clust_6="13000.00000" pt_clust_7="13000.00000" pt_clust_8="13000.00000" pt_clust_9="21.93947"></scales>
<clustering>
<clus scale="   21.939">  2  9  1 -1</clus>
<clus scale="   91.500">  5  6 -1 -1</clus>
<clus scale="   93.813">  7  8 -1 -1</clus>
<clus scale="  111.069">  1  5  2 -1</clus>
<clus scale="   21.939">  2  5  1 -1</clus>
</clustering>
</event>
<event>
 9    1  0.1610296E-005  0.2838766E+03  0.7546771E-02  0.1093644E+00
         21   -1    0    0  501  502  0.00000000000E+00  0.00000000000E+00  0.30159538920E+03  0.30159538920E+03  0.00000000000E+00 0. -1.
          1   -1    0    0  502    0 -0.00000000000E+00 -0.00000000000E+00 -0.15656255106E+04  0.15656255106E+04  0.00000000000E+00 0. -1.
         23    2    1    2    0    0  0.14432491132E+03  0.23442919965E+03 -0.79617158397E+03  0.84762059040E+03  0.93726967747E+02 0.  0.
         23    2    1    2    0    0 -0.25830136712E+03 -0.12040879284E+03 -0.68586637215E+03  0.74845698628E+03  0.92505709093E+02 0.  0.
        -11    1    4    4    0    0 -0.13598073930E+03 -0.11026391774E+03 -0.36195140836E+03  0.40206680418E+03  0.00000000000E+00 0.  1.
         11    1    4    4    0    0 -0.12232062782E+03 -0.10144875092E+02 -0.32391496380E+03  0.34639018210E+03  0.00000000000E+00 0. -1.
        -13    1    3    3    0    0  0.22501873709E+02  0.11552490383E+03 -0.26833030712E+03  0.29300766448E+03  0.00000000000E+00 0.  1.
         13    1    3    3    0    0  0.12182303761E+03  0.11890429582E+03 -0.52784127685E+03  0.55461292593E+03  0.00000000000E+00 0. -1.
          1    1    1    2  501    0  0.11397645580E+03 -0.11402040681E+03  0.21800783475E+03  0.27114332309E+03  0.00000000000E+00 0. -1.
<scales pt_clust_5="13000.00000" pt_clust_6="13000.00000" pt_clust_7="13000.00000" pt_clust_8="13000.00000" pt_clust_9="161.21813"></scales>
<clustering>
<clus scale="   92.506">  5  6 -1 -1</clus>
<clus scale="   93.727">  7  8 -1 -1</clus>
<clus scale="  161.218">  1  9  2 -1</clus>
<clus scale="  283.476">  1  5  2 -1</clus>
<clus scale="  161.218">  1  5  2 -1</clus>
</clustering>
</event>
<event>
 9    1  0.1610296E-005  0.1150177E+03  0.7546771E-02  0.1252612E+00
         21   -1    0    0  501  502  0.00000000000E+00  0.00000000000E+00  0.39597307752E+02  0.39597307752E+02  0.00000000000E+00 0.  1.
          2   -1    0    0  502    0 -0.00000000000E+00 -0.00000000000E+00 -0.41945295297E+03  0.41945295297E+03  0.00000000000E+00 0. -1.
         23    2    1    2    0    0  0.40299878542E+02  0.44676446064E+02 -0.17094893647E+03  0.20216238764E+03  0.89588096594E+02 0.  0.
         23    2    1    2    0    0 -0.37727653914E+02 -0.70671048178E+02 -0.16035314620E+03  0.20175363586E+03  0.92593872177E+02 0.  0.
        -13    1    4    4    0    0  0.23077195649E+02 -0.38048007279E+02 -0.28235832386E+02  0.52701708202E+02  0.00000000000E+00 0.  1.
         13    1    4    4    0    0 -0.60804849563E+02 -0.32623040899E+02 -0.13211731382E+03  0.14905192766E+03  0.00000000000E+00 0. -1.
        -13    1    3    3    0    0  0.64925458213E+01  0.62451278109E+02 -0.13841153429E+03  0.15198706561E+03  0.00000000000E+00 0. -1.
         13    1    3    3    0    0  0.33807332720E+02 -0.17774832045E+02 -0.32537402188E+02  0.50175322032E+02  0.00000000000E+00 0.  1.
          2    1    1    2  501    0 -0.25722246276E+01  0.25994602114E+02 -0.48553562536E+02  0.55134237218E+02  0.00000000000E+00 0. -1.
<scales pt_clust_5="13000.00000" pt_clust_6="13000.00000" pt_clust_7="13000.00000" pt_clust_8="13000.00000" pt_clust_9="26.12157"></scales>
<clustering>
<clus scale="   26.122">  1  9  2 -1</clus>
<clus scale="   89.588">  7  8 -1 -1</clus>
<clus scale="   92.594">  5  6 -1 -1</clus>
<clus scale="  112.612">  2  7  1 -1</clus>
<clus scale="   26.122">  1  5  2 -1</clus>
</clustering>
</event>
<event>
 9    1  0.1610296E-005  0.1259795E+03  0.7546771E-02  0.1257212E+00
         -1   -1    0    0    0  501 -0.00000000000E+00  0.00000000000E+00  0.12653948112E+03  0.12653948112E+03  0.00000000000E+00 0.  1.
         21   -1    0    0  501  502  0.00000000000E+00 -0.00000000000E+00 -0.43515172234E+03  0.43515172234E+03  0.00000000000E+00 0.  1.
         23    2    1    2    0    0 -0.94155501168E+01 -0.38094313545E+02  0.41825611098E+02  0.88710636874E+02  0.67678401594E+02 0.  0.
         23    2    1    2    0    0  0.96499340348E+02  0.36719027947E+02 -0.29193378197E+02  0.14013902760E+03  0.90145904088E+02 0.  0.
        -11    1    4    4    0    0  0.45714542475E+02 -0.27849332614E+02 -0.21306728895E+02  0.57614073080E+02  0.00000000000E+00 0. -1.
         11    1    4    4    0    0  0.50784797873E+02  0.64568360560E+02 -0.78866493024E+01  0.82524954515E+02  0.00000000000E+00 0.  1.
        -13    1    3    3    0    0 -0.21794316348E+02  0.12988642260E+02  0.10038921132E+02  0.27285105650E+02  0.00000000000E+00 0. -1.
         13    1    3    3    0    0  0.12378766231E+02 -0.51082955805E+02  0.31786689965E+02  0.61425531224E+02  0.00000000000E+00 0.  1.
         -1    1    1    2    0  502 -0.87083790231E+02  0.13752855982E+01 -0.32124447412E+03  0.33284153900E+03  0.00000000000E+00 0.  1.
<scales pt_clust_5="13000.00000" pt_clust_6="13000.00000" pt_clust_7="13000.00000" pt_clust_8="13000.00000" pt_clust_9="88.00310"></scales>
<clustering>
<clus scale="   67.678">  7  8 -1 -1</clus>
<clus scale="   78.232">  1  7  2 -1</clus>
<clus scale="   88.003">  2  9  1 -1</clus>
<clus scale="   90.146">  5  6 -1 -1</clus>
<clus scale="   88.003">  2  5  1 -1</clus>
</clustering>
</event>
<event>
 9    1  0.1610296E-005  0.1966087E+03  0.7546771E-02  0.1177198E+00
         21   -1    0    0  501  502  0.00000000000E+00  0.00000000000E+00  0.26239014069E+03  0.26239014069E+03  0.00000000000E+00 0. -1.
          1   -1    0    0  502    0 -0.00000000000E+00 -0.00000000000E+00 -0.40544571031E+03  0.40544571031E+03  0.00000000000E+00 0. -1.
         23    2    1    2    0    0 -0.50934136100E+02  0.36125929299E+02  0.10793288011E+02  0.11204180302E+03  0.92398601555E+02 0.  0.
         23    2    1    2    0    0  0.13399446331E+03 -0.18146708587E+03 -0.26138051925E+03  0.35683141834E+03  0.90133599827E+02 0.  0.
        -13    1    4    4    0    0  0.83779578408E+02 -0.61876087639E+02 -0.69451750755E+02  0.12518471817E+03  0.00000000000E+00 0. -1.
         13    1    4    4    0    0  0.50214884898E+02 -0.11959099823E+03 -0.19192876850E+03  0.23164670017E+03  0.00000000000E+00 0.  1.
        -13    1    3    3    0    0 -0.15330851082E+02 -0.25961349007E+02  0.24888937700E+02  0.39095854729E+02  0.00000000000E+00 0. -1.
         13    1    3    3    0    0 -0.35603285018E+02  0.62087278306E+02 -0.14095649689E+02  0.72945948288E+02  0.00000000000E+00 0.  1.
          1    1    1    2  501    0 -0.83060327205E+02  0.14534115657E+03  0.10753166161E+03  0.19896262965E+03  0.00000000000E+00 0. -1.
<scales pt_clust_5="13000.00000" pt_clust_6="13000.00000" pt_clust_7="13000.00000" pt_clust_8="13000.00000" pt_clust_9="174.73102"></scales>
<clustering>
<clus scale="   90.134">  5  6 -1 -1</clus>
<clus scale="   92.399">  7  8 -1 -1</clus>
<clus scale="  111.521">  2  7  1 -1</clus>
<clus scale="  174.731">  1  9  2 -1</clus>
<clus scale="  174.731">  1  5  2 -1</clus>
</clustering>
</event>
<event>
 9    1  0.1610296E-005  0.1484791E+03  0.7546771E-02  0.1221163E+00
         -1   -1    0    0    0  501 -0.00000000000E+00  0.00000000000E+00  0.61525480274E+03  0.61525480274E+03  0.00000000000E+00 0.  1.
         21   -1    0    0  501  502  0.00000000000E+00 -0.00000000000E+00 -0.74520389998E+02  0.74520389998E+02  0.00000000000E+00 0.  1.
         23    2    1    2    0    0 -0.16877285453E+02 -0.32269117339E+02  0.10836240762E+03  0.14710245102E+03  0.92577432533E+02 0.  0.
         23    2    1    2    0    0 -0.10351239502E+03  0.25965326291E+02  0.39077854753E+03  0.41514459321E+03  0.90819303934E+02 0.  0.
        -11    1    4    4    0    0 -0.22589796274E+02 -0.46905150371E+01  0.10867665785E+02  0.25503058378E+02  0.00000000000E+00 0. -1.
         11    1    4    4    0    0 -0.80922598747E+02  0.30655841328E+02  0.37991088175E+03  0.38964153483E+03  0.00000000000E+00 0.  1.
        -13    1    3    3    0    0 -0.44767441301E+02  0.85744933854E+01  0.73883999811E+02  0.86812966575E+02  0.00000000000E+00 0.  1.
         13    1    3    3    0    0  0.27890155848E+02 -0.40843610725E+02  0.34478407807E+02  0.60289484449E+02  0.00000000000E+00 0. -1.
         -1    1    1    2    0  502  0.12038968047E+03  0.63037910479E+01  0.41593457591E+02  0.12752814850E+03  0.00000000000E+00 0.  1.
<scales pt_clust_5="13000.00000" pt_clust_6="13000.00000" pt_clust_7="13000.00000" pt_clust_8="13000.00000" pt_clust_9="117.46444"></scales>
<clustering>
<clus scale="   90.819">  5  6 -1 -1</clus>
<clus scale="   92.577">  7  8 -1 -1</clus>
<clus scale="   99.482">  1  7  2 -1</clus>
<clus scale="  117.464">  2  9  1 -1</clus>
<clus scale="  117.464">  2  5  1 -1</clus>
</clustering>
</event>
<event>
 9    1  0.1610296E-005  0.1118248E+03  0.7546771E-02  0.1258910E+00
         21   -1    0    0  501  502  0.00000000000E+00  0.00000000000E+00  0.36742442365E+03  0.36742442365E+03  0.00000000000E+00 0.  1.
          3   -1    0    0  502    0 -0.00000000000E+00 -0.00000000000E+00 -0.61026971381E+02  0.61026971381E+02  0.00000000000E+00 0. -1.
         23    2    1    2    0    0  0.47228109550E+02 -0.37082239209E+02  0.60995896167E+02  0.12478784726E+03  0.90807051925E+02 0.  0.
         23    2    1    2    0    0 -0.61029336279E+02  0.91660514253E+01  0.88874301031E+02  0.14406853224E+03  0.95123625948E+02 0.  0.
        -11    1    4    4    0    0 -0.70339858311E+02  0.37724976473E+02  0.47307268014E+02  0.92783873190E+02  0.00000000000E+00 0.  1.
         11    1    4    4    0    0  0.93105220318E+01 -0.28558925048E+02  0.41567033017E+02  0.51284659053E+02  0.00000000000E+00 0. -1.
        -11    1    3    3    0    0 -0.19067672018E+01 -0.33709848236E+02 -0.12764673356E+02  0.36096073403E+02  0.00000000000E+00 0. -1.
         11    1    3    3    0    0  0.49134876752E+02 -0.33723909728E+01  0.73760569523E+02  0.88691773862E+02  0.00000000000E+00 0.  1.
          3    1    1    2  501    0  0.13801226729E+02  0.27916187784E+02  0.15652725507E+03  0.15959501552E+03  0.00000000000E+00 0. -1.
<scales pt_clust_5="13000.00000" pt_clust_6="13000.00000" pt_clust_7="13000.00000" pt_clust_8="13000.00000" pt_clust_9="31.14141"></scales>
<clustering>
<clus scale="   31.141">  1  9  2 -1</clus>
<clus scale="   90.807">  7  8 -1 -1</clus>
<clus scale="   95.124">  5  6 -1 -1</clus>
<clus scale="  108.177">  2  7  1 -1</clus>
<clus scale="   31.141">  1  5  2 -1</clus>
</clustering>
</event>
<event>
 9    1  0.1610296E-005  0.1143066E+03  0.7546771E-02  0.1254533E+00
         21   -1    0    0  501  502  0.00000000000E+00  0.00000000000E+00  0.52847550653E+02  0.52847550653E+02  0.00000000000E+00 0. -1.
         -1   -1    0    0    0  501 -0.00000000000E+00 -0.00000000000E+00 -0.38600272273E+03  0.38600272273E+03  0.00000000000E+00 0.  1.
         23    2    1    2    0    0 -0.59831652869E+01  0.68269679221E+02 -0.24181263792E+03  0.26718535806E+03  0.90653826916E+02 0.  0.
         23    2    1    2    0    0 -0.13133815396E+02 -0.52895470420E+02 -0.96963914604E+02  0.14649697609E+03  0.95335908088E+02 0.  0.
        -11    1    4    4    0    0  0.30661722705E+02 -0.54877679363E+02 -0.39588944202E+02  0.74289874374E+02  0.00000000000E+00 0. -1.
         11    1    4    4    0    0 -0.43795538101E+02  0.19822089423E+01 -0.57374970402E+02  0.72207101718E+02  0.00000000000E+00 0.  1.
        -11    1    3    3    0    0 -0.38594378922E+02  0.32703585080E+02 -0.18897795657E+03  0.19563158904E+03  0.00000000000E+00 0. -1.
         11    1    3    3    0    0  0.32611213635E+02  0.35566094141E+02 -0.52834681356E+02  0.71553769022E+02  0.00000000000E+00 0.  1.
         -1    1    1    2    0  502  0.19116980683E+02 -0.15374208801E+02  0.56213804546E+01  0.25167939226E+02  0.00000000000E+00 0.  1.
<scales pt_clust_5="13000.00000" pt_clust_6="13000.00000" pt_clust_7="13000.00000" pt_clust_8="13000.00000" pt_clust_9="24.53213"></scales>
<clustering>
<clus scale="   24.532">  1  9  2 -1</clus>
<clus scale="   90.654">  7  8 -1 -1</clus>
<clus scale="   95.336">  5  6 -1 -1</clus>
<clus scale="  110.432">  2  7  1 -1</clus>
<clus scale="   24.532">  1  5  2 -1</clus>
</clustering>
</event>
<event>
 9    1  0.1610296E-005  0.1047909E+03  0.7546771E-02  0.1270869E+00
         21   -1    0    0  501  502  0.00000000000E+00  0.00000000000E+00  0.95028317349E+02  0.95028317349E+02  0.00000000000E+00 0.  1.
          1   -1    0    0  502    0 -0.00000000000E+00 -0.00000000000E+00 -0.21573398369E+03  0.21573398369E+03  0.00000000000E+00 0. -1.
         23    2    1    2    0    0  0.26439072468E+02  0.50563246213E+02 -0.13668450300E+03  0.17425076773E+03  0.91787854722E+02 0.  0.
         23    2    1    2    0    0 -0.32779951929E+02 -0.15012852836E+02  0.20808185018E+02  0.10007858356E+03  0.91010061669E+02 0.  0.
        -13    1    3    3    0    0 -0.97565922297E+01 -0.23248577924E+02 -0.24379659996E+02  0.35072144060E+02  0.00000000000E+00 0.  1.
         13    1    3    3    0    0  0.36195664697E+02  0.73811824137E+02 -0.11230484300E+03  0.13917862367E+03  0.00000000000E+00 0. -1.
        -13    1    4    4    0    0 -0.29647504232E+01 -0.47434314333E+02  0.28424658400E+02  0.55378381400E+02  0.00000000000E+00 0.  1.
         13    1    4    4    0    0 -0.29815201506E+02  0.32421461497E+02 -0.76164733818E+01  0.44700202161E+02  0.00000000000E+00 0. -1.
          1    1    1    2  501    0  0.63408794617E+01 -0.35550393376E+02 -0.48293483567E+01  0.36432949745E+02  0.00000000000E+00 0. -1.
<scales pt_clust_5="13000.00000" pt_clust_6="13000.00000" pt_clust_7="13000.00000" pt_clust_8="13000.00000" pt_clust_9="36.11146"></scales>
<clustering>
<clus scale="   36.111">  1  9  2 -1</clus>
<clus scale="   91.010">  7  8 -1 -1</clus>
<clus scale="   91.788">  5  6 -1 -1</clus>
<clus scale="  104.110">  1  7  2 -1</clus>
<clus scale="   36.111">  1  5  2 -1</clus>
</clustering>
</event>
<event>
 9    1  0.1610296E-005  0.1056060E+03  0.7546771E-02  0.1269097E+00
         21   -1    0    0  501  502  0.00000000000E+00  0.00000000000E+00  0.30191618656E+02  0.30191618656E+02  0.00000000000E+00 0.  1.
          1   -1    0    0  502    0 -0.00000000000E+00 -0.00000000000E+00 -0.55823710225E+03  0.55823710225E+03  0.00000000000E+00 0. -1.
         23    2    1    2    0    0  0.50798182098E+02  0.49719432399E+02 -0.26759132525E+03  0.29152354500E+03  0.91259973025E+02 0.  0.
         23    2    1    2    0    0 -0.11394355008E+02 -0.31404731265E+02 -0.15904845897E+03  0.18658198826E+03  0.91653355481E+02 0.  0.
        -11    1    3    3    0    0  0.24462833252E+02 -0.24457679168E+02 -0.56671703320E+02  0.66394956421E+02  0.00000000000E+00 0.  1.
         11    1    3    3    0    0  0.26335348846E+02  0.74177111567E+02 -0.21091962193E+03  0.22512858858E+03  0.00000000000E+00 0. -1.
        -13    1    4    4    0    0 -0.42209671365E+02 -0.45847013182E+02 -0.11627081075E+03  0.13191855975E+03  0.00000000000E+00 0. -1.
         13    1    4    4    0    0  0.30815316358E+02  0.14442281916E+02 -0.42777648220E+02  0.54663428510E+02  0.00000000000E+00 0.  1.
          1    1    1    2  501    0 -0.39403827090E+02 -0.18314701134E+02 -0.10140569937E+03  0.11032318764E+03  0.00000000000E+00 0. -1.
<scales pt_clust_5="13000.00000" pt_clust_6="13000.00000" pt_clust_7="13000.00000" pt_clust_8="13000.00000" pt_clust_9="43.45218"></scales>
<clustering>
<clus scale="   43.452">  1  9  2 -1</clus>
<clus scale="   91.260">  5  6 -1 -1</clus>
<clus scale="   91.653">  7  8 -1 -1</clus>
<clus scale="  105.265">  2  5  1 -1</clus>
<clus scale="   43.452">  1  5  2 -1</clus>
</clustering>
</event>
<event>
 9    1  0.1610296E-005  0.1047610E+03  0.7546771E-02  0.1272192E+00
          1   -1    0    0  502    0 -0.00000000000E+00  0.00000000000E+00  0.60477892171E+03  0.60477892171E+03  0.00000000000E+00 0. -1.
         21   -1    0    0  501  502  0.00000000000E+00 -0.00000000000E+00 -0.43373962250E+02  0.43373962250E+02  0.00000000000E+00 0. -1.
         23    2    1    2    0    0 -0.54925202798E+02  0.20795825808E+02  0.42680985513E+03  0.44057645403E+03  0.92150502626E+02 0.  0.
         23    2    1    2    0    0  0.34397413706E+02  0.43634817688E+01  0.14508403141E+03  0.17345314647E+03  0.88512122383E+02 0.  0.
        -11    1    4    4    0    0  0.44436306030E+02 -0.30729949951E+02  0.11128677076E+03  0.12370796443E+03  0.00000000000E+00 0.  1.
         11    1    4    4    0    0 -0.10038892324E+02  0.35093431720E+02  0.33797260649E+02  0.49745182041E+02  0.00000000000E+00 0. -1.
        -13    1    3    3    0    0  0.17733384518E+01  0.43980259932E+02  0.23930992770E+03  0.24332416545E+03  0.00000000000E+00 0. -1.
         13    1    3    3    0    0 -0.56698541250E+02 -0.23184434124E+02  0.18749992743E+03  0.19725228858E+03  0.00000000000E+00 0.  1.
          1    1    1    2  501    0  0.20527789092E+02 -0.25159307577E+02 -0.10488927079E+02  0.34123283459E+02  0.00000000000E+00 0. -1.
<scales pt_clust_5="13000.00000" pt_clust_6="13000.00000" pt_clust_7="13000.00000" pt_clust_8="13000.00000" pt_clust_9="32.47123"></scales>
<clustering>
<clus scale="   32.471">  2  9  1 -1</clus>
<clus scale="   88.512">  5  6 -1 -1</clus>
<clus scale="   92.151">  7  8 -1 -1</clus>
<clus scale="  101.575">  2  5  1 -1</clus>
<clus scale="   32.471">  2  5  1 -1</clus>
</clustering>
</event>
<event>
 9    1  0.1610296E-005  0.1045167E+03  0.7546771E-02  0.1273471E+00
         -1   -1    0    0    0  501 -0.00000000000E+00  0.00000000000E+00  0.23127308457E+03  0.23127308457E+03  0.00000000000E+00 0.  1.
         21   -1    0    0  501  502  0.00000000000E+00 -0.00000000000E+00 -0.69579742713E+02  0.69579742713E+02  0.00000000000E+00 0. -1.
         23    2    1    2    0    0  0.70151397703E+01  0.28444766075E+02  0.84230346603E+02  0.13034194487E+03  0.95057637258E+02 0.  0.
         23    2    1    2    0    0 -0.79971429379E+01 -0.66345636401E+02  0.45287061887E+02  0.12078432020E+03  0.89845624635E+02 0.  0.
        -11    1    3    3    0    0  0.66546160163E+01  0.52914299575E+02  0.90530952838E+02  0.10507169189E+03  0.00000000000E+00 0.  1.
         11    1    3    3    0    0  0.36052375396E+00 -0.24469533500E+02 -0.63006062351E+01  0.25270252987E+02  0.00000000000E+00 0. -1.
        -13    1    4    4    0    0  0.19009061104E+02 -0.20219444426E+02  0.59347289252E+02  0.65515426264E+02  0.00000000000E+00 0.  1.
         13    1    4    4    0    0 -0.27006204042E+02 -0.46126191975E+02 -0.14060227365E+02  0.55268893932E+02  0.00000000000E+00 0. -1.
         -1    1    1    2    0  502  0.98200316765E+00  0.37900870326E+02  0.32175933362E+02  0.49726562211E+02  0.00000000000E+00 0.  1.
<scales pt_clust_5="13000.00000" pt_clust_6="13000.00000" pt_clust_7="13000.00000" pt_clust_8="13000.00000" pt_clust_9="37.91361"></scales>
<clustering>
<clus scale="   37.914">  2  9  1 -1</clus>
<clus scale="   89.846">  7  8 -1 -1</clus>
<clus scale="   95.058">  5  6 -1 -1</clus>
<clus scale="   99.800">  2  7  1 -1</clus>
<clus scale="   37.914">  2  5  1 -1</clus>
</clustering>
</event>
<event>
 9    1  0.1610296E-005  0.9842363E+02  0.7546771E-02  0.1285181E+00
         -3   -1    0    0    0  501 -0.00000000000E+00  0.00000000000E+00  0.18382690895E+03  0.18382690895E+03  0.00000000000E+00 0.  1.
         21   -1    0    0  501  502  0.00000000000E+00 -0.00000000000E+00 -0.11258647471E+03  0.11258647471E+03  0.00000000000E+00 0. -1.
         23    2    1    2    0    0  0.27122311037E+02 -0.21522540495E+02  0.12157103854E+03  0.15599505964E+03  0.91411715424E+02 0.  0.
         23    2    1    2    0    0 -0.98726421420E+01 -0.94162969804E+01 -0.32181388127E+02  0.10061685685E+03  0.94350275196E+02 0.  0.
        -11    1    4    4    0    0  0.13492173065E+02 -0.37004835623E+02  0.14147188937E+02  0.41851398403E+02  0.00000000000E+00 0.  1.
         11    1    4    4    0    0 -0.23364815207E+02  0.27588538642E+02 -0.46328577064E+02  0.58765458450E+02  0.00000000000E+00 0. -1.
        -13    1    3    3    0    0  0.58554667306E+02  0.16736524146E+01  0.76465785408E+02  0.96324796983E+02  0.00000000000E+00 0.  1.
         13    1    3    3    0    0 -0.31432356269E+02 -0.23196192909E+02  0.45105253129E+02  0.59670262660E+02  0.00000000000E+00 0. -1.
         -3    1    1    2    0  502 -0.17249668895E+02  0.30938837475E+02 -0.18149216164E+02  0.39801467167E+02  0.00000000000E+00 0.  1.
<scales pt_clust_5="13000.00000" pt_clust_6="13000.00000" pt_clust_7="13000.00000" pt_clust_8="13000.00000" pt_clust_9="35.42263"></scales>
<clustering>
<clus scale="   35.423">  2  9  1 -1</clus>
<clus scale="   91.412">  7  8 -1 -1</clus>
<clus scale="   94.350">  5  6 -1 -1</clus>
<clus scale="   95.610">  1  7  2 -1</clus>
<clus scale="   35.423">  2  5  1 -1</clus>
</clustering>
</event>
<event>
 9    1  0.1654409E-005  0.1266753E+03  0.7546771E-02  0.1237299E+00
         21   -1    0    0  501  502  0.00000000000E+00  0.00000000000E+00  0.12697549141E+03  0.12697549141E+03  0.00000000000E+00 0.  1.
          1   -1    0    0  502    0 -0.00000000000E+00 -0.00000000000E+00 -0.52159785821E+03  0.52159785821E+03  0.00000000000E+00 0. -1.
         23    2    1    2    0    0  0.60980272089E+02 -0.25811501228E+02 -0.35169004126E+03  0.36884637751E+03  0.89313704999E+02 0.  0.
         23    2    1    2    0    0 -0.94300830293E+02  0.11094605502E+03 -0.75765678423E+00  0.17904502470E+03  0.10418672233E+03 0.  0.
        -11    1    3    3    0    0 -0.10188061614E+02 -0.29627668095E+02 -0.18386103716E+03  0.18651133022E+03  0.00000000000E+00 0.  1.
         11    1    3    3    0    0  0.71168333703E+02  0.38161668676E+01 -0.16782900411E+03  0.18233504729E+03  0.00000000000E+00 0. -1.
        -13    1    4    4    0    0 -0.85513205208E+02  0.61139380362E+02  0.41620884356E+02  0.11306117862E+03  0.00000000000E+00 0.  1.
         13    1    4    4    0    0 -0.87876250852E+01  0.49806674655E+02 -0.42378541141E+02  0.65983846084E+02  0.00000000000E+00 0. -1.
          1    1    1    2  501    0  0.33320558205E+02 -0.85134553789E+02 -0.42174668759E+02  0.10068194740E+03  0.00000000000E+00 0. -1.
<scales pt_clust_5="13000.00000" pt_clust_6="13000.00000" pt_clust_7="13000.00000" pt_clust_8="13000.00000" pt_clust_9="91.42293"></scales>
<clustering>
<clus scale="   89.314">  5  6 -1 -1</clus>
<clus scale="   91.423">  1  9  2 -1</clus>
<clus scale="  104.187">  7  8 -1 -1</clus>
<clus scale="  114.755">  2  5  1 -1</clus>
<clus scale="   91.423">  1  5  2 -1</clus>
</clustering>
</event>
<event>
 9    1  0.1610296E-005  0.8853722E+02  0.7546771E-02  0.1308071E+00
          1   -1    0    0  502    0 -0.00000000000E+00  0.00000000000E+00  0.30314072707E+02  0.30314072707E+02  0.00000000000E+00 0. -1.
         21   -1    0    0  501  502  0.00000000000E+00 -0.00000000000E+00 -0.32802034772E+03  0.32802034772E+03  0.00000000000E+00 0.  1.
         23    2    1    2    0    0  0.21201098063E+02  0.27308522771E+01 -0.10335682689E+03  0.13516010813E+03  0.84431493246E+02 0.  0.
         23    2    1    2    0    0 -0.37428036947E+01 -0.14852503544E+02 -0.15884547835E+03  0.18179486883E+03  0.87079750237E+02 0.  0.
        -11    1    4    4    0    0 -0.38949531540E+00 -0.41315549209E+02 -0.14684160162E+03  0.15254370613E+03  0.00000000000E+00 0. -1.
         11    1    4    4    0    0 -0.33533083793E+01  0.26463045666E+02 -0.12003876726E+02  0.29251162702E+02  0.00000000000E+00 0.  1.
        -11    1    3    3    0    0  0.11535520327E+02  0.26651575493E+02 -0.42481292668E+00  0.29044021269E+02  0.00000000000E+00 0. -1.
         11    1    3    3    0    0  0.96655777356E+01 -0.23920723216E+02 -0.10293201396E+03  0.10611608686E+03  0.00000000000E+00 0.  1.
          1    1    1    2  501    0 -0.17458294368E+02  0.12121651266E+02 -0.35503969779E+02  0.41379443468E+02  0.00000000000E+00 0. -1.
<scales pt_clust_5="13000.00000" pt_clust_6="13000.00000" pt_clust_7="13000.00000" pt_clust_8="13000.00000" pt_clust_9="21.25386"></scales>
<clustering>
<clus scale="   21.254">  2  9  1 -1</clus>
<clus scale="   84.431">  7  8 -1 -1</clus>
<clus scale="   85.934">  1  7  2 -1</clus>
<clus scale="   87.080">  5  6 -1 -1</clus>
<clus scale="   21.254">  2  5  1 -1</clus>
</clustering>
</event>
<event>
 9    1  0.1610296E-005  0.9657821E+02  0.7546771E-02  0.1287920E+00
          1   -1    0    0  502    0 -0.00000000000E+00  0.00000000000E+00  0.24371635363E+03  0.24371635363E+03  0.00000000000E+00 0. -1.
         21   -1    0    0  501  502  0.00000000000E+00 -0.00000000000E+00 -0.74905991020E+02  0.74905991020E+02  0.00000000000E+00 0.  1.
         23    2    1    2    0    0 -0.96305632475E+01  0.36970473500E+02  0.12195963116E+03  0.15706013946E+03  0.91291687001E+02 0.  0.
         23    2    1    2    0    0  0.17034668698E+02 -0.14654701185E+02  0.78003237485E+02  0.12253281749E+03  0.91786960398E+02 0.  0.
        -11    1    3    3    0    0 -0.16434126874E+02 -0.23604151219E+02  0.74336998852E+02  0.79707125649E+02  0.00000000000E+00 0.  1.
         11    1    3    3    0    0  0.68035636265E+01  0.60574624719E+02  0.47622632309E+02  0.77353013813E+02  0.00000000000E+00 0. -1.
        -13    1    4    4    0    0 -0.36686213405E+02  0.48937288559E+01  0.25794432696E+02  0.45112964812E+02  0.00000000000E+00 0.  1.
         13    1    4    4    0    0  0.53720882102E+02 -0.19548430041E+02  0.52208804789E+02  0.77419852676E+02  0.00000000000E+00 0. -1.
          1    1    1    2  501    0 -0.74041054501E+01 -0.22315772315E+02 -0.31152506039E+02  0.39029387697E+02  0.00000000000E+00 0. -1.
<scales pt_clust_5="13000.00000" pt_clust_6="13000.00000" pt_clust_7="13000.00000" pt_clust_8="13000.00000" pt_clust_9="23.51201"></scales>
<clustering>
<clus scale="   23.512">  2  9  1 -1</clus>
<clus scale="   91.292">  5  6 -1 -1</clus>
<clus scale="   91.787">  7  8 -1 -1</clus>
<clus scale="   96.108">  1  5  2 -1</clus>
<clus scale="   23.512">  2  5  1 -1</clus>
</clustering>
</event>
<event>
 9    1  0.1610296E-005  0.1149310E+03  0.7546771E-02  0.1255280E+00
         -1   -1    0    0    0  501 -0.00000000000E+00  0.00000000000E+00  0.27595077195E+03  0.27595077195E+03  0.00000000000E+00 0.  1.
         21   -1    0    0  501  502  0.00000000000E+00 -0.00000000000E+00 -0.98451021678E+02  0.98451021678E+02  0.00000000000E+00 0.  1.
         23    2    1    2    0    0  0.23343716016E+02 -0.64892262728E+02  0.14284821463E+03  0.18690830775E+03  0.98859335640E+02 0.  0.
         23    2    1    2    0    0  0.10502919257E+01  0.49156774495E+02  0.82636185271E+02  0.13141140484E+03  0.89569674638E+02 0.  0.
        -11    1    3    3    0    0 -0.31976505769E+02  0.39093364606E+01  0.36118147592E+02  0.48397318296E+02  0.00000000000E+00 0. -1.
         11    1    3    3    0    0  0.55320221785E+02 -0.68801599189E+02  0.10673006704E+03  0.13851098945E+03  0.00000000000E+00 0.  1.
        -13    1    4    4    0    0  0.30705195641E+02  0.43693229593E+02  0.85831227272E+02  0.10108860928E+03  0.00000000000E+00 0.  1.
         13    1    4    4    0    0 -0.29654903715E+02  0.54635449019E+01 -0.31950420002E+01  0.30322795561E+02  0.00000000000E+00 0. -1.
         -1    1    1    2    0  502 -0.24394007942E+02  0.15735488234E+02 -0.47984649629E+02  0.56082081037E+02  0.00000000000E+00 0.  1.
<scales pt_clust_5="13000.00000" pt_clust_6="13000.00000" pt_clust_7="13000.00000" pt_clust_8="13000.00000" pt_clust_9="29.02883"></scales>
<clustering>
<clus scale="   29.029">  2  9  1 -1</clus>
<clus scale="   89.570">  7  8 -1 -1</clus>
<clus scale="   98.859">  5  6 -1 -1</clus>
<clus scale="  107.045">  2  7  1 -1</clus>
<clus scale="   29.029">  2  5  1 -1</clus>
</clustering>
</event>
<event>
 9    1  0.1610296E-005  0.1445996E+03  0.7546771E-02  0.1208015E+00
          3   -1    0    0  502    0 -0.00000000000E+00  0.00000000000E+00  0.17260118183E+03  0.17260118183E+03  0.00000000000E+00 0. -1.
         21   -1    0    0  501  502  0.00000000000E+00 -0.00000000000E+00 -0.17295600124E+03  0.17295600124E+03  0.00000000000E+00 0.  1.
         23    2    1    2    0    0 -0.42350557343E+02  0.95104653138E+02  0.62653827769E+02  0.15076067468E+03  0.89245807404E+02 0.  0.
         23    2    1    2    0    0  0.55947393493E+02 -0.11576447383E+03 -0.61204182143E+02  0.16999815686E+03  0.92854171598E+02 0.  0.
        -11    1    4    4    0    0  0.99919343670E+00 -0.60900983642E+02 -0.68907554409E+02  0.91968360052E+02  0.00000000000E+00 0.  1.
         11    1    4    4    0    0  0.54948200057E+02 -0.54863490191E+02  0.77033722661E+01  0.78029796806E+02  0.00000000000E+00 0. -1.
        -11    1    3    3    0    0 -0.69245462479E+02  0.79650151479E+02  0.42547745563E+02  0.11379539251E+03  0.00000000000E+00 0. -1.
         11    1    3    3    0    0  0.26894905136E+02  0.15454501659E+02  0.20106082206E+02  0.36965282164E+02  0.00000000000E+00 0.  1.
          3    1    1    2  501    0 -0.13596836150E+02  0.20659820695E+02 -0.18044650395E+01  0.24798351529E+02  0.00000000000E+00 0. -1.
<scales pt_clust_5="13000.00000" pt_clust_6="13000.00000" pt_clust_7="13000.00000" pt_clust_8="13000.00000" pt_clust_9="24.73261"></scales>
<clustering>
<clus scale="   24.733">  2  9  1 -1</clus>
<clus scale="   89.246">  7  8 -1 -1</clus>
<clus scale="   92.854">  5  6 -1 -1</clus>
<clus scale="  142.309">  1  7  2 -1</clus>
<clus scale="   24.733">  2  5  1 -1</clus>
</clustering>
</event>
<event>
 9    1  0.1610296E-005  0.1132696E+03  0.7546771E-02  0.1258313E+00
         21   -1    0    0  501  502  0.00000000000E+00  0.00000000000E+00  0.86333134889E+02  0.86333134889E+02  0.00000000000E+00 0. -1.
          4   -1    0    0  502    0 -0.00000000000E+00 -0.00000000000E+00 -0.37601206398E+03  0.37601206398E+03  0.00000000000E+00 0. -1.
         23    2    1    2    0    0 -0.23340128105E+02 -0.11667569374E+02 -0.10938571540E+03  0.14901438374E+03  0.97770946974E+02 0.  0.
         23    2    1    2    0    0  0.18797563320E+02  0.10036344475E+03 -0.17932777670E+03  0.22451344480E+03  0.88440183025E+02 0.  0.
        -11    1    4    4    0    0  0.43426627922E+02  0.72019681137E+02 -0.16330597007E+03  0.18368872133E+03  0.00000000000E+00 0. -1.
         11    1    4    4    0    0 -0.24629064602E+02  0.28343763610E+02 -0.16021806625E+02  0.40824723469E+02  0.00000000000E+00 0.  1.
        -11    1    3    3    0    0 -0.77459900487E+01  0.43304737920E+02 -0.45051662114E+02  0.62967872343E+02  0.00000000000E+00 0.  1.
         11    1    3    3    0    0 -0.15594138056E+02 -0.54972307295E+02 -0.64334053285E+02  0.86046511394E+02  0.00000000000E+00 0. -1.
          4    1    1    2  501    0  0.45425647846E+01 -0.88695875373E+02 -0.96543699097E+00  0.88817370326E+02  0.00000000000E+00 0. -1.
<scales pt_clust_5="13000.00000" pt_clust_6="13000.00000" pt_clust_7="13000.00000" pt_clust_8="13000.00000" pt_clust_9="88.81212"></scales>
<clustering>
<clus scale="   88.440">  5  6 -1 -1</clus>
<clus scale="   88.812">  1  9  2 -1</clus>
<clus scale="   97.771">  7  8 -1 -1</clus>
<clus scale="  105.321">  1  5  2 -1</clus>
<clus scale="   88.812">  1  5  2 -1</clus>
</clustering>
</event>
<event>
 9    1  0.1610296E-005  0.1000834E+03  0.7546771E-02  0.1285435E+00
          1   -1    0    0  502    0 -0.00000000000E+00  0.00000000000E+00  0.15455675192E+03  0.15455675192E+03  0.00000000000E+00 0. -1.
         21   -1    0    0  501  502  0.00000000000E+00 -0.00000000000E+00 -0.16797712840E+03  0.16797712840E+03  0.00000000000E+00 0. -1.
         23    2    1    2    0    0  0.18048061538E+02 -0.68975634545E+01  0.97218168156E+02  0.14044436026E+03  0.99498428145E+02 0.  0.
         23    2    1    2    0    0  0.13239866647E+02 -0.60287725900E+01 -0.32011717289E+02  0.96484598508E+02  0.89849248955E+02 0.  0.
        -11    1    4    4    0    0 -0.19491080959E+02  0.75937319009E+01 -0.51813527253E+02  0.55876726886E+02  0.00000000000E+00 0.  1.
         11    1    4    4    0    0  0.32730947606E+02 -0.13622504491E+02  0.19801809964E+02  0.40607871622E+02  0.00000000000E+00 0. -1.
        -13    1    3    3    0    0  0.41549292632E+02 -0.30072595558E+02  0.94253848324E+02  0.10730560398E+03  0.00000000000E+00 0.  1.
         13    1    3    3    0    0 -0.23501231094E+02  0.23175032103E+02  0.29643198323E+01  0.33138756283E+02  0.00000000000E+00 0. -1.
          1    1    1    2  501    0 -0.31287928185E+02  0.12926336044E+02 -0.78626827351E+02  0.85604921547E+02  0.00000000000E+00 0. -1.
<scales pt_clust_5="13000.00000" pt_clust_6="13000.00000" pt_clust_7="13000.00000" pt_clust_8="13000.00000" pt_clust_9="33.85299"></scales>
<clustering>
<clus scale="   33.853">  2  9  1 -1</clus>
<clus scale="   89.849">  5  6 -1 -1</clus>
<clus scale="   90.497">  2  5  1 -1</clus>
<clus scale="   99.498">  7  8 -1 -1</clus>
<clus scale="   33.853">  2  5  1 -1</clus>
</clustering>
</event>
<event>
 9    1  0.1610296E-005  0.1391374E+03  0.7546771E-02  0.1216129E+00
         21   -1    0    0  501  502  0.00000000000E+00  0.00000000000E+00  0.19296093343E+03  0.19296093343E+03  0.00000000000E+00 0. -1.
          1   -1    0    0  502    0 -0.00000000000E+00 -0.00000000000E+00 -0.46160014087E+03  0.46160014087E+03  0.00000000000E+00 0. -1.
         23    2    1    2    0    0 -0.25570344535E+02 -0.85208046490E+02 -0.27367336348E+03  0.30418449929E+03  0.98574063642E+02 0.  0.
         23    2    1    2    0    0  0.41555271838E+02  0.18572870210E+03  0.77903562355E+02  0.22519722174E+03  0.91775989510E+02 0.  0.
        -11    1    3    3    0    0 -0.52026419405E+02 -0.80608069092E+02 -0.15325139537E+03  0.18080486526E+03  0.00000000000E+00 0. -1.
         11    1    3    3    0    0  0.26456074869E+02 -0.45999773981E+01 -0.12042196812E+03  0.12337963403E+03  0.00000000000E+00 0.  1.
        -11    1    4    4    0    0 -0.27040456920E+02  0.86737303963E+02  0.34125993061E+02  0.97052200447E+02  0.00000000000E+00 0.  1.
         11    1    4    4    0    0  0.68595728758E+02  0.98991398141E+02  0.43777569294E+02  0.12814502130E+03  0.00000000000E+00 0. -1.
          1    1    1    2  501    0 -0.15984927302E+02 -0.10052065561E+03 -0.72869406309E+02  0.12517935326E+03  0.00000000000E+00 0. -1.
<scales pt_clust_5="13000.00000" pt_clust_6="13000.00000" pt_clust_7="13000.00000" pt_clust_8="13000.00000" pt_clust_9="101.78374"></scales>
<clustering>
<clus scale="   91.776">  7  8 -1 -1</clus>
<clus scale="   98.574">  5  6 -1 -1</clus>
<clus scale="  101.784">  1  9  2 -1</clus>
<clus scale="  134.407">  1  7  2 -1</clus>
<clus scale="  101.784">  1  5  2 -1</clus>
</clustering>
</event>
<event>
 9    1  0.1610296E-005  0.1057339E+03  0.7546771E-02  0.1269310E+00
         21   -1    0    0  501  502  0.00000000000E+00  0.00000000000E+00  0.30971490226E+02  0.30971490226E+02  0.00000000000E+00 0.  1.
          2   -1    0    0  502    0 -0.00000000000E+00 -0.00000000000E+00 -0.53442698056E+03  0.53442698056E+03  0.00000000000E+00 0. -1.
         23    2    1    2    0    0 -0.35632302074E+02  0.24638228468E+02 -0.29944453016E+03  0.31624501421E+03  0.92017276210E+02 0.  0.
         23    2    1    2    0    0  0.53485276946E+02 -0.44023893876E+02 -0.18228491908E+03  0.21499860923E+03  0.90541880727E+02 0.  0.
        -13    1    3    3    0    0 -0.41629144800E+02 -0.25977149783E+02 -0.17547035200E+03  0.18220220207E+03  0.00000000000E+00 0. -1.
         13    1    3    3    0    0  0.59968427263E+01  0.50615378251E+02 -0.12397417816E+03  0.13404281215E+03  0.00000000000E+00 0.  1.
        -13    1    4    4    0    0 -0.25274493117E+02 -0.67955238948E+01 -0.32563786478E+02  0.41777737338E+02  0.00000000000E+00 0. -1.
         13    1    4    4    0    0  0.78759770063E+02 -0.37228369981E+02 -0.14972113260E+03  0.17322087190E+03  0.00000000000E+00 0.  1.
          2    1    1    2  501    0 -0.17852974872E+02  0.19385665408E+02 -0.21726041095E+02  0.34154847339E+02  0.00000000000E+00 0. -1.
<scales pt_clust_5="13000.00000" pt_clust_6="13000.00000" pt_clust_7="13000.00000" pt_clust_8="13000.00000" pt_clust_9="26.35399"></scales>
<clustering>
<clus scale="   26.354">  1  9  2 -1</clus>
<clus scale="   90.542">  7  8 -1 -1</clus>
<clus scale="   92.017">  5  6 -1 -1</clus>
<clus scale="  104.452">  1  7  2 -1</clus>
<clus scale="   26.354">  1  5  2 -1</clus>
</clustering>
</event>
<event>
 9    1  0.1610296E-005  0.1716640E+03  0.7546771E-02  0.1176923E+00
          1   -1    0    0  502    0 -0.00000000000E+00  0.00000000000E+00  0.25471692553E+03  0.25471692553E+03  0.00000000000E+00 0. -1.
         21   -1    0    0  501  502  0.00000000000E+00 -0.00000000000E+00 -0.26525404563E+03  0.26525404563E+03  0.00000000000E+00 0.  1.
         23    2    1    2    0    0 -0.15077879926E+03 -0.33592809126E+02  0.16814221492E+03  0.24402467960E+03  0.86101780970E+02 0.  0.
         23    2    1    2    0    0  0.11331027753E+03 -0.15418135410E+02 -0.10852504240E+03  0.18252473313E+03  0.91981821475E+02 0.  0.
        -11    1    3    3    0    0 -0.26256434443E+02  0.21838194754E+02  0.63812812346E+02  0.72376668335E+02  0.00000000000E+00 0. -1.
         11    1    3    3    0    0 -0.12452236482E+03 -0.55431003880E+02  0.10432940257E+03  0.17164801127E+03  0.00000000000E+00 0.  1.
        -11    1    4    4    0    0  0.23737633250E+01  0.27339735586E+02 -0.15131819591E+02  0.31337961937E+02  0.00000000000E+00 0.  1.
         11    1    4    4    0    0  0.11093651421E+03 -0.42757870996E+02 -0.93393222809E+02  0.15118677119E+03  0.00000000000E+00 0. -1.
          1    1    1    2  501    0  0.37468521728E+02  0.49010944535E+02 -0.70154292622E+02  0.93421558423E+02  0.00000000000E+00 0. -1.
<scales pt_clust_5="13000.00000" pt_clust_6="13000.00000" pt_clust_7="13000.00000" pt_clust_8="13000.00000" pt_clust_9="61.69249"></scales>
<clustering>
<clus scale="   61.692">  2  9  1 -1</clus>
<clus scale="   86.102">  5  6 -1 -1</clus>
<clus scale="   91.982">  7  8 -1 -1</clus>
<clus scale="  168.586">  1  5  2 -1</clus>
<clus scale="   61.692">  2  5  1 -1</clus>
</clustering>
</event>
<event>
 9    1  0.1610296E-005  0.1010912E+03  0.7546771E-02  0.1281837E+00
          3   -1    0    0  502    0 -0.00000000000E+00  0.00000000000E+00  0.14790022022E+03  0.14790022022E+03  0.00000000000E+00 0. -1.
         21   -1    0    0  501  502  0.00000000000E+00 -0.00000000000E+00 -0.19317754655E+03  0.19317754655E+03  0.00000000000E+00 0. -1.
         23    2    1    2    0    0 -0.15761521995E+02  0.36995189789E+01  0.63517527419E+02  0.11224305555E+03  0.91114846289E+02 0.  0.
         23    2    1    2    0    0  0.73723451437E+01 -0.56667348419E+02 -0.72877655037E+01  0.11403201871E+03  0.98410618916E+02 0.  0.
        -13    1    3    3    0    0 -0.40998940832E+02  0.20271695784E+02  0.67763137555E+02  0.81753884377E+02  0.00000000000E+00 0. -1.
         13    1    3    3    0    0  0.25237418837E+02 -0.16572176805E+02 -0.42456101369E+01  0.30489171177E+02  0.00000000000E+00 0.  1.
        -13    1    4    4    0    0 -0.38118994031E+02 -0.32800264297E+02  0.22008512860E+02  0.54893439337E+02  0.00000000000E+00 0.  1.
         13    1    4    4    0    0  0.45491339175E+02 -0.23867084123E+02 -0.29296278364E+02  0.59138579374E+02  0.00000000000E+00 0. -1.
          3    1    1    2  501    0  0.83891768512E+01  0.52967829440E+02 -0.10150708824E+03  0.11480269251E+03  0.00000000000E+00 0. -1.
<scales pt_clust_5="13000.00000" pt_clust_6="13000.00000" pt_clust_7="13000.00000" pt_clust_8="13000.00000" pt_clust_9="53.62806"></scales>
<clustering>
<clus scale="   53.628">  2  9  1 -1</clus>
<clus scale="   91.115">  5  6 -1 -1</clus>
<clus scale="   94.004">  1  5  2 -1</clus>
<clus scale="   98.411">  7  8 -1 -1</clus>
<clus scale="   53.628">  2  5  1 -1</clus>
</clustering>
</event>
<event>
 9    1  0.1610296E-005  0.1240978E+03  0.7546771E-02  0.1240414E+00
         -3   -1    0    0    0  501 -0.00000000000E+00  0.00000000000E+00  0.62113071804E+03  0.62113071804E+03  0.00000000000E+00 0.  1.
         21   -1    0    0  501  502  0.00000000000E+00 -0.00000000000E+00 -0.87895641083E+02  0.87895641083E+02  0.00000000000E+00 0.  1.
         23    2    1    2    0    0 -0.82457896586E+02 -0.50889809761E+02  0.44784257105E+03  0.46475754246E+03  0.77765849666E+02 0.  0.
         23    2    1    2    0    0  0.35388155670E+02  0.46850749780E+02  0.13670106146E+03  0.17452326205E+03  0.91235269916E+02 0.  0.
        -13    1    3    3    0    0 -0.45321237769E+02 -0.12125076127E+01  0.82039425823E+02  0.93733410036E+02  0.00000000000E+00 0. -1.
         13    1    3    3    0    0 -0.37136658817E+02 -0.49677302148E+02  0.36580314523E+03  0.37102413242E+03  0.00000000000E+00 0.  1.
        -13    1    4    4    0    0 -0.24552528170E+02  0.11364341560E+02  0.80798172751E+02  0.85207509168E+02  0.00000000000E+00 0.  1.
         13    1    4    4    0    0  0.59940683839E+02  0.35486408220E+02  0.55902888710E+02  0.89315752886E+02  0.00000000000E+00 0. -1.
         -3    1    1    2    0  502  0.47069740917E+02  0.40390599814E+01 -0.51308555556E+02  0.69745554616E+02  0.00000000000E+00 0.  1.
<scales pt_clust_5="13000.00000" pt_clust_6="13000.00000" pt_clust_7="13000.00000" pt_clust_8="13000.00000" pt_clust_9="47.24272"></scales>
<clustering>
<clus scale="   47.243">  2  9  1 -1</clus>
<clus scale="   77.766">  5  6 -1 -1</clus>
<clus scale="   91.235">  7  8 -1 -1</clus>
<clus scale="  114.560">  1  5  2 -1</clus>
<clus scale="   47.243">  2  5  1 -1</clus>
</clustering>
</event>
<event>
 9    1  0.1610296E-005  0.1987995E+03  0.7546771E-02  0.1161490E+00
         21   -1    0    0  501  502  0.00000000000E+00  0.00000000000E+00  0.32896154297E+03  0.32896154297E+03  0.00000000000E+00 0. -1.
          3   -1    0    0  502    0 -0.00000000000E+00 -0.00000000000E+00 -0.29609881592E+03  0.29609881592E+03  0.00000000000E+00 0. -1.
         23    2    1    2    0    0  0.10428085738E+03  0.53295810229E+02 -0.12037347660E+03  0.19592025680E+03  0.10089614734E+03 0.  0.
         23    2    1    2    0    0 -0.39721859932E+02  0.14256188172E+03  0.12131716768E+01  0.17293881033E+03  0.89468676395E+02 0.  0.
        -13    1    3    3    0    0  0.33417897724E+02  0.29076084345E+02  0.10145245968E+02  0.45443377789E+02  0.00000000000E+00 0.  1.
         13    1    3    3    0    0  0.70862959661E+02  0.24219725884E+02 -0.13051872257E+03  0.15047687901E+03  0.00000000000E+00 0. -1.
        -13    1    4    4    0    0 -0.31142350135E+02  0.88659987236E+02 -0.42381224844E+02  0.10308543800E+03  0.00000000000E+00 0. -1.
         13    1    4    4    0    0 -0.85795097966E+01  0.53901894487E+02  0.43594396521E+02  0.69853372329E+02  0.00000000000E+00 0.  1.
          3    1    1    2  501    0 -0.64558997453E+02 -0.19585769195E+03  0.15202303197E+03  0.25620129176E+03  0.00000000000E+00 0. -1.
<scales pt_clust_5="13000.00000" pt_clust_6="13000.00000" pt_clust_7="13000.00000" pt_clust_8="13000.00000" pt_clust_9="177.52910"></scales>
<clustering>
<clus scale="   89.469">  7  8 -1 -1</clus>
<clus scale="  100.896">  5  6 -1 -1</clus>
<clus scale="  154.580">  2  5  1 -1</clus>
<clus scale="  177.529">  1  9  2 -1</clus>
<clus scale="  177.529">  1  5  2 -1</clus>
</clustering>
</event>
<event>
 9    1  0.1610296E-005  0.1027039E+03  0.7546771E-02  0.1279360E+00
         21   -1    0    0  501  502  0.00000000000E+00  0.00000000000E+00  0.16777508921E+03  0.16777508921E+03  0.00000000000E+00 0.  1.
         -1   -1    0    0    0  501 -0.00000000000E+00 -0.00000000000E+00 -0.22116071584E+03  0.22116071584E+03  0.00000000000E+00 0.  1.
         23    2    1    2    0    0  0.10645890254E+02 -0.96099667071E+01 -0.86608984073E+02  0.12712102383E+03  0.91939937669E+02 0.  0.
         23    2    1    2    0    0 -0.28983361688E+02 -0.25688132834E+01 -0.89003892164E+02  0.13762103706E+03  0.10085248121E+03 0.  0.
        -11    1    3    3    0    0  0.20847735760E+02 -0.40796800460E+02 -0.14759940915E+02  0.48133801739E+02  0.00000000000E+00 0.  1.
         11    1    3    3    0    0 -0.10201845506E+02  0.31186833753E+02 -0.71849043158E+02  0.78987222093E+02  0.00000000000E+00 0. -1.
        -13    1    4    4    0    0 -0.59517712158E+02  0.23295943441E+02 -0.45148427839E+02  0.78252409405E+02  0.00000000000E+00 0. -1.
         13    1    4    4    0    0  0.30534350470E+02 -0.25864756724E+02 -0.43855464325E+02  0.59368627659E+02  0.00000000000E+00 0.  1.
         -1    1    1    2    0  502  0.18337471434E+02  0.12178779990E+02  0.12222724961E+03  0.12419374415E+03  0.00000000000E+00 0.  1.
<scales pt_clust_5="13000.00000" pt_clust_6="13000.00000" pt_clust_7="13000.00000" pt_clust_8="13000.00000" pt_clust_9="22.01330"></scales>
<clustering>
<clus scale="   22.013">  1  9  2 -1</clus>
<clus scale="   91.940">  5  6 -1 -1</clus>
<clus scale="   93.967">  2  5  1 -1</clus>
<clus scale="  100.852">  7  8 -1 -1</clus>
<clus scale="   22.013">  1  5  2 -1</clus>
</clustering>
</event>
<event>
 9    1  0.1610296E-005  0.1768371E+03  0.7546771E-02  0.1170957E+00
          1   -1    0    0  502    0 -0.00000000000E+00  0.00000000000E+00  0.12701477535E+04  0.12701477535E+04  0.00000000000E+00 0. -1.
         21   -1    0    0  501  502  0.00000000000E+00 -0.00000000000E+00 -0.30482673334E+02  0.30482673334E+02  0.00000000000E+00 0.  1.
         23    2    1    2    0    0  0.14118682898E+03  0.86381346353E+02  0.63564265149E+03  0.66304576732E+03  0.90513266944E+02 0.  0.
         23    2    1    2    0    0 -0.12570394529E+03 -0.55051478582E+02  0.43792824176E+03  0.46785381603E+03  0.90960986642E+02 0.  0.
        -11    1    4    4    0    0 -0.64896285650E+02  0.20077083728E+02  0.18672017333E+03  0.19869333232E+03  0.00000000000E+00 0.  1.
         11    1    4    4    0    0 -0.60807659637E+02 -0.75128562310E+02  0.25120806843E+03  0.26916048371E+03  0.00000000000E+00 0. -1.
        -11    1    3    3    0    0  0.15874488798E+02 -0.18415914771E+02  0.62007432213E+02  0.66603805905E+02  0.00000000000E+00 0. -1.
         11    1    3    3    0    0  0.12531234018E+03  0.10479726112E+03  0.57363521928E+03  0.59644196141E+03  0.00000000000E+00 0.  1.
          1    1    1    2  501    0 -0.15482883692E+02 -0.31329867771E+02  0.16609418696E+03  0.16973084352E+03  0.00000000000E+00 0. -1.
<scales pt_clust_5="13000.00000" pt_clust_6="13000.00000" pt_clust_7="13000.00000" pt_clust_8="13000.00000" pt_clust_9="34.94684"></scales>
<clustering>
<clus scale="   34.947">  2  9  1 -1</clus>
<clus scale="   90.513">  7  8 -1 -1</clus>
<clus scale="   90.961">  5  6 -1 -1</clus>
<clus scale="  176.607">  1  7  2 -1</clus>
<clus scale="   34.947">  2  5  1 -1</clus>
</clustering>
</event>
<event>
 9    1  0.1610296E-005  0.1293507E+03  0.7546771E-02  0.1228899E+00
         21   -1    0    0  501  502  0.00000000000E+00  0.00000000000E+00  0.37723747456E+03  0.37723747456E+03  0.00000000000E+00 0. -1.
          2   -1    0    0  502    0 -0.00000000000E+00 -0.00000000000E+00 -0.40530231685E+03  0.40530231685E+03  0.00000000000E+00 0. -1.
         23    2    1    2    0    0  0.42431157860E+01 -0.11023040929E+03 -0.29256599850E+03  0.32616227108E+03  0.92834349423E+02 0.  0.
         23    2    1    2    0    0 -0.54201801577E+02  0.40179952993E+02 -0.54659690620E+02  0.12582255840E+03  0.91056962980E+02 0.  0.
        -11    1    3    3    0    0  0.28042905191E+02 -0.30592068824E+01 -0.10603397986E+03  0.10972223185E+03  0.00000000000E+00 0.  1.
         11    1    3    3    0    0 -0.23799789405E+02 -0.10717120241E+03 -0.18653201864E+03  0.21644003923E+03  0.00000000000E+00 0. -1.
        -11    1    4    4    0    0  0.20768211564E+02 -0.80074995827E+01 -0.20866559993E+02  0.30509867044E+02  0.00000000000E+00 0.  1.
         11    1    4    4    0    0 -0.74970013140E+02  0.48187452576E+02 -0.33793130627E+02  0.95312691356E+02  0.00000000000E+00 0. -1.
          2    1    1    2  501    0  0.49958685791E+02  0.70050456296E+02  0.31916084683E+03  0.33055496194E+03  0.00000000000E+00 0. -1.
<scales pt_clust_5="13000.00000" pt_clust_6="13000.00000" pt_clust_7="13000.00000" pt_clust_8="13000.00000" pt_clust_9="86.04032"></scales>
<clustering>
<clus scale="   86.040">  1  9  2 -1</clus>
<clus scale="   91.057">  7  8 -1 -1</clus>
<clus scale="   92.834">  5  6 -1 -1</clus>
<clus scale="  128.081">  1  7  2 -1</clus>
<clus scale="   86.040">  1  5  2 -1</clus>
</clustering>
</event>
<event>
 9    1  0.1610296E-005  0.1052012E+03  0.7546771E-02  0.1270205E+00
         -3   -1    0    0    0  501 -0.00000000000E+00  0.00000000000E+00  0.48059335024E+02  0.48059335024E+02  0.00000000000E+00 0.  1.
         21   -1    0    0  501  502  0.00000000000E+00 -0.00000000000E+00 -0.52632217138E+03  0.52632217138E+03  0.00000000000E+00 0. -1.
         23    2    1    2    0    0  0.20080989919E+02 -0.29348287362E+02 -0.62072888760E+02  0.11832754624E+03  0.94253894104E+02 0.  0.
         23    2    1    2    0    0 -0.62529682581E+01  0.82198154079E+02 -0.22371220257E+03  0.25597396384E+03  0.93165897417E+02 0.  0.
        -11    1    4    4    0    0 -0.39502906158E+02  0.77621142551E+01 -0.10017005759E+03  0.10795726215E+03  0.00000000000E+00 0.  1.
         11    1    4    4    0    0  0.33249937900E+02  0.74436039824E+02 -0.12354214497E+03  0.14801670169E+03  0.00000000000E+00 0. -1.
        -11    1    3    3    0    0  0.20456752435E+02 -0.50143144824E+02 -0.13833288291E+01  0.54173123333E+02  0.00000000000E+00 0.  1.
         11    1    3    3    0    0 -0.37576251569E+00  0.20794857462E+02 -0.60689559931E+02  0.64154422910E+02  0.00000000000E+00 0. -1.
         -3    1    1    2    0  502 -0.13828021661E+02 -0.52849866717E+02 -0.19247774503E+03  0.20007999632E+03  0.00000000000E+00 0.  1.
<scales pt_clust_5="13000.00000" pt_clust_6="13000.00000" pt_clust_7="13000.00000" pt_clust_8="13000.00000" pt_clust_9="54.62895"></scales>
<clustering>
<clus scale="   54.629">  2  9  1 -1</clus>
<clus scale="   93.166">  5  6 -1 -1</clus>
<clus scale="   94.254">  7  8 -1 -1</clus>
<clus scale="  104.228">  2  5  1 -1</clus>
<clus scale="   54.629">  2  5  1 -1</clus>
</clustering>
</event>
<event>
 9    1  0.1610296E-005  0.1004121E+03  0.7546771E-02  0.1279733E+00
         21   -1    0    0  501  502  0.00000000000E+00  0.00000000000E+00  0.13169573438E+03  0.13169573438E+03  0.00000000000E+00 0.  1.
         -1   -1    0    0    0  501 -0.00000000000E+00 -0.00000000000E+00 -0.21946102024E+03  0.21946102024E+03  0.00000000000E+00 0.  1.
         23    2    1    2    0    0 -0.99621310236E+00 -0.21216437672E+02 -0.81337294006E+02  0.12361992530E+03  0.90636641964E+02 0.  0.
         23    2    1    2    0    0 -0.10859616727E+02  0.72269122225E+02 -0.76728342881E+02  0.13984944907E+03  0.91268135192E+02 0.  0.
        -11    1    4    4    0    0 -0.43667508629E+02  0.71873517913E+02 -0.56096006263E+02  0.10109112625E+03  0.00000000000E+00 0.  1.
         11    1    4    4    0    0  0.32807891902E+02  0.39560431201E+00 -0.20632336618E+02  0.38758322824E+02  0.00000000000E+00 0. -1.
        -13    1    3    3    0    0  0.22934637090E+02 -0.43214067116E+02 -0.17455288807E+02  0.51943626005E+02  0.00000000000E+00 0. -1.
         13    1    3    3    0    0 -0.23930850193E+02  0.21997629444E+02 -0.63882005199E+02  0.71676299293E+02  0.00000000000E+00 0.  1.
         -1    1    1    2    0  502  0.11855829830E+02 -0.51052684553E+02  0.70300351024E+02  0.87687380250E+02  0.00000000000E+00 0.  1.
<scales pt_clust_5="13000.00000" pt_clust_6="13000.00000" pt_clust_7="13000.00000" pt_clust_8="13000.00000" pt_clust_9="52.41123"></scales>
<clustering>
<clus scale="   52.411">  1  9  2 -1</clus>
<clus scale="   90.637">  7  8 -1 -1</clus>
<clus scale="   91.268">  5  6 -1 -1</clus>
<clus scale="   99.838">  2  7  1 -1</clus>
<clus scale="   52.411">  1  5  2 -1</clus>
</clustering>
</event>
<event>
 9    1  0.1610296E-005  0.1167936E+03  0.7546771E-02  0.1256170E+00
          2   -1    0    0  502    0 -0.00000000000E+00  0.00000000000E+00  0.21120402704E+03  0.21120402704E+03  0.00000000000E+00 0. -1.
         21   -1    0    0  501  502  0.00000000000E+00 -0.00000000000E+00 -0.74078746311E+02  0.74078746311E+02  0.00000000000E+00 0.  1.
         23    2    1    2    0    0 -0.50537050740E+02 -0.18271478033E+02  0.87440171042E+02  0.13601718866E+03  0.89258342431E+02 0.  0.
         23    2    1    2    0    0  0.28147643695E+02  0.20309982913E+02  0.55722100417E+02  0.12598713313E+03  0.10753148370E+03 0.  0.
        -11    1    4    4    0    0 -0.22845909615E+02 -0.32228841934E+02  0.15389989039E+02  0.42396764041E+02  0.00000000000E+00 0.  1.
         11    1    4    4    0    0  0.50993553310E+02  0.52538824847E+02  0.40332111378E+02  0.83590369084E+02  0.00000000000E+00 0. -1.
        -13    1    3    3    0    0 -0.75808190607E+02 -0.16503098168E+02  0.56219505617E+02  0.95811621550E+02  0.00000000000E+00 0.  1.
         13    1    3    3    0    0  0.25271139867E+02 -0.17683798652E+01  0.31220665424E+02  0.40205567115E+02  0.00000000000E+00 0. -1.
          2    1    1    2  501    0  0.22389407045E+02 -0.20385048796E+01 -0.60369907307E+01  0.23278451560E+02  0.00000000000E+00 0. -1.
<scales pt_clust_5="13000.00000" pt_clust_6="13000.00000" pt_clust_7="13000.00000" pt_clust_8="13000.00000" pt_clust_9="22.48202"></scales>
<clustering>
<clus scale="   22.482">  2  9  1 -1</clus>
<clus scale="   89.258">  7  8 -1 -1</clus>
<clus scale="  100.224">  1  7  2 -1</clus>
<clus scale="  107.531">  5  6 -1 -1</clus>
<clus scale="   22.482">  2  5  1 -1</clus>
</clustering>
</event>
<event>
 9    1  0.1610296E-005  0.1947167E+03  0.7546771E-02  0.1175063E+00
          1   -1    0    0  502    0 -0.00000000000E+00  0.00000000000E+00  0.34937970584E+03  0.34937970584E+03  0.00000000000E+00 0. -1.
         21   -1    0    0  501  502  0.00000000000E+00 -0.00000000000E+00 -0.37205791791E+03  0.37205791791E+03  0.00000000000E+00 0. -1.
         23    2    1    2    0    0 -0.46407423931E+02  0.65850757935E+02 -0.24475778989E+03  0.27280723398E+03  0.89595981420E+02 0.  0.
         23    2    1    2    0    0 -0.54100120576E+02  0.10139982186E+03  0.20346350965E+03  0.25261742862E+03  0.95965715545E+02 0.  0.
        -11    1    3    3    0    0 -0.37590883534E+02 -0.11921216591E+02 -0.11143434028E+03  0.11820660779E+03  0.00000000000E+00 0.  1.
         11    1    3    3    0    0 -0.88165403968E+01  0.77771974526E+02 -0.13332344960E+03  0.15460062619E+03  0.00000000000E+00 0. -1.
        -11    1    4    4    0    0  0.23017784878E+02  0.30596698836E+02  0.92249771111E+02  0.99879911245E+02  0.00000000000E+00 0.  1.
         11    1    4    4    0    0 -0.77117905455E+02  0.70803123026E+02  0.11121373854E+03  0.15273751737E+03  0.00000000000E+00 0. -1.
          1    1    1    2  501    0  0.10050754451E+03 -0.16725057980E+03  0.18616068162E+02  0.19601296115E+03  0.00000000000E+00 0. -1.
<scales pt_clust_5="13000.00000" pt_clust_6="13000.00000" pt_clust_7="13000.00000" pt_clust_8="13000.00000" pt_clust_9="169.42604"></scales>
<clustering>
<clus scale="   89.596">  5  6 -1 -1</clus>
<clus scale="   95.966">  7  8 -1 -1</clus>
<clus scale="  120.488">  1  5  2 -1</clus>
<clus scale="  169.426">  2  9  1 -1</clus>
<clus scale="  169.426">  2  5  1 -1</clus>
</clustering>
</event>
<event>
 9    1  0.1610296E-005  0.1129765E+03  0.7546771E-02  0.1255514E+00
         21   -1    0    0  501  502  0.00000000000E+00  0.00000000000E+00  0.50318637477E+02  0.50318637477E+02  0.00000000000E+00 0.  1.
          1   -1    0    0  502    0 -0.00000000000E+00 -0.00000000000E+00 -0.41752682544E+03  0.41752682544E+03  0.00000000000E+00 0. -1.
         23    2    1    2    0    0 -0.20426173892E+01 -0.91526856162E+02 -0.19178448937E+03  0.23097989429E+03  0.90493555123E+02 0.  0.
         23    2    1    2    0    0 -0.53217325718E+01  0.36536569434E+02 -0.82337653075E+02  0.12849962769E+03  0.91484553117E+02 0.  0.
        -11    1    3    3    0    0 -0.30971960217E+02 -0.76905556047E+02 -0.82388977322E+02  0.11688314872E+03  0.00000000000E+00 0.  1.
         11    1    3    3    0    0  0.28929342828E+02 -0.14621300115E+02 -0.10939551204E+03  0.11409674557E+03  0.00000000000E+00 0. -1.
        -13    1    4    4    0    0 -0.46038060754E+02  0.34770030493E+02 -0.52319029952E+02  0.77882854041E+02  0.00000000000E+00 0.  1.
         13    1    4    4    0    0  0.40716328182E+02  0.17665389415E+01 -0.30018623123E+02  0.50616773649E+02  0.00000000000E+00 0. -1.
          1    1    1    2  501    0  0.73643499610E+01  0.54990286727E+02 -0.93086045519E+02  0.10836594094E+03  0.00000000000E+00 0. -1.
<scales pt_clust_5="13000.00000" pt_clust_6="13000.00000" pt_clust_7="13000.00000" pt_clust_8="13000.00000" pt_clust_9="55.48124"></scales>
<clustering>
<clus scale="   55.481">  1  9  2 -1</clus>
<clus scale="   90.494">  5  6 -1 -1</clus>
<clus scale="   91.485">  7  8 -1 -1</clus>
<clus scale="  112.176">  2  5  1 -1</clus>
<clus scale="   55.481">  1  5  2 -1</clus>
</clustering>
</event>
<event>
 9    1  0.1610296E-005  0.1164275E+03  0.7546771E-02  0.1249748E+00
         21   -1    0    0  501  502  0.00000000000E+00  0.00000000000E+00  0.29995790032E+03  0.29995790032E+03  0.00000000000E+00 0.  1.
         -1   -1    0    0    0  501 -0.00000000000E+00 -0.00000000000E+00 -0.68509895636E+02  0.68509895636E+02  0.00000000000E+00 0.  1.
         23    2    1    2    0    0  0.79148687882E+02 -0.82878845401E+01  0.49281655848E+02  0.13070449813E+03  0.91223792975E+02 0.  0.
         23    2    1    2    0    0 -0.61041951601E+02  0.19304124785E+02  0.86732657702E+02  0.14000440641E+03  0.89330346539E+02 0.  0.
        -11    1    4    4    0    0 -0.59111795502E+02 -0.77821198248E+01  0.94521470080E+02  0.11175452591E+03  0.00000000000E+00 0. -1.
         11    1    4    4    0    0 -0.19301560988E+01  0.27086244610E+02 -0.77888123777E+01  0.28249880494E+02  0.00000000000E+00 0.  1.
        -11    1    3    3    0    0  0.19114694761E+02 -0.16489965211E+02 -0.24535954637E+02  0.35203743813E+02  0.00000000000E+00 0.  1.
         11    1    3    3    0    0  0.60033993121E+02  0.82020806711E+01  0.73817610485E+02  0.95500754317E+02  0.00000000000E+00 0. -1.
         -1    1    1    2    0  502 -0.18106736281E+02 -0.11016240245E+02  0.95433691137E+02  0.97758891421E+02  0.00000000000E+00 0.  1.
<scales pt_clust_5="13000.00000" pt_clust_6="13000.00000" pt_clust_7="13000.00000" pt_clust_8="13000.00000" pt_clust_9="21.19461"></scales>
<clustering>
<clus scale="   21.195">  1  9  2 -1</clus>
<clus scale="   89.330">  5  6 -1 -1</clus>
<clus scale="   91.224">  7  8 -1 -1</clus>
<clus scale="  114.950">  1  5  2 -1</clus>
<clus scale="   21.195">  1  5  2 -1</clus>
</clustering>
</event>
<event>
 9    1  0.1610296E-005  0.9467426E+02  0.7546771E-02  0.1293591E+00
         21   -1    0    0  501  502  0.00000000000E+00  0.00000000000E+00  0.95110129562E+02  0.95110129562E+02  0.00000000000E+00 0.  1.
          1   -1    0    0  502    0 -0.00000000000E+00 -0.00000000000E+00 -0.22238642495E+03  0.22238642495E+03  0.00000000000E+00 0. -1.
         23    2    1    2    0    0 -0.22317399820E+02 -0.19388842485E+02 -0.16786862440E+03  0.19187748325E+03  0.88108455734E+02 0.  0.
         23    2    1    2    0    0  0.47169371187E+01  0.61139984741E+01  0.16473999283E+02  0.92943520768E+02  0.91145350553E+02 0.  0.
        -11    1    3    3    0    0  0.29789019621E+02 -0.64291237654E+01 -0.25554892837E+02  0.39771495701E+02  0.00000000000E+00 0.  1.
         11    1    3    3    0    0 -0.52106419440E+02 -0.12959718720E+02 -0.14231373157E+03  0.15210598755E+03  0.00000000000E+00 0. -1.
        -13    1    4    4    0    0 -0.17436564344E+01  0.40215506100E+02 -0.17936676038E+02  0.44068714708E+02  0.00000000000E+00 0. -1.
         13    1    4    4    0    0  0.64605935531E+01 -0.34101507626E+02  0.34410675321E+02  0.48874806061E+02  0.00000000000E+00 0.  1.
          1    1    1    2  501    0  0.17600462701E+02  0.13274844011E+02  0.24118329734E+02  0.32675550492E+02  0.00000000000E+00 0. -1.
<scales pt_clust_5="13000.00000" pt_clust_6="13000.00000" pt_clust_7="13000.00000" pt_clust_8="13000.00000" pt_clust_9="22.04536"></scales>
<clustering>
<clus scale="   22.045">  1  9  2 -1</clus>
<clus scale="   88.108">  5  6 -1 -1</clus>
<clus scale="   91.145">  7  8 -1 -1</clus>
<clus scale="   91.754">  2  5  1 -1</clus>
<clus scale="   22.045">  1  5  2 -1</clus>
</clustering>
</event>
<event>
 9    1  0.1610296E-005  0.1100702E+03  0.7546771E-02  0.1272958E+00
         21   -1    0    0  501  502  0.00000000000E+00  0.00000000000E+00  0.25271395871E+02  0.25271395871E+02  0.00000000000E+00 0. -1.
         -3   -1    0    0    0  501 -0.00000000000E+00 -0.00000000000E+00 -0.69443464703E+03  0.69443464703E+03  0.00000000000E+00 0.  1.
         23    2    1    2    0    0  0.63128887721E+02  0.34284785372E+02 -0.50779564675E+03  0.52132753131E+03  0.93623037073E+02 0.  0.
         23    2    1    2    0    0 -0.27835480976E+02 -0.26833292502E+02 -0.13264745582E+03  0.15226998483E+03  0.63999696521E+02 0.  0.
        -13    1    3    3    0    0 -0.12543202782E+02  0.39482719894E+02 -0.20799739956E+03  0.21208285016E+03  0.00000000000E+00 0.  1.
         13    1    3    3    0    0  0.75672090502E+02 -0.51979345220E+01 -0.29979824719E+03  0.30924468116E+03  0.00000000000E+00 0. -1.
        -13    1    4    4    0    0 -0.46230982015E+02 -0.18229413783E+02 -0.11532851770E+03  0.12557978428E+03  0.00000000000E+00 0.  1.
         13    1    4    4    0    0  0.18395501039E+02 -0.86038787191E+01 -0.17318938125E+02  0.26690200547E+02  0.00000000000E+00 0. -1.
         -3    1    1    2    0  502 -0.35293406745E+02 -0.74514928705E+01 -0.28720148583E+02  0.46108526763E+02  0.00000000000E+00 0.  1.
<scales pt_clust_5="13000.00000" pt_clust_6="13000.00000" pt_clust_7="13000.00000" pt_clust_8="13000.00000" pt_clust_9="36.07145"></scales>
<clustering>
<clus scale="   36.071">  1  9  2 -1</clus>
<clus scale="   64.000">  7  8 -1 -1</clus>
<clus scale="   86.291">  1  7  2 -1</clus>
<clus scale="   93.623">  5  6 -1 -1</clus>
<clus scale="   36.071">  1  5  2 -1</clus>
</clustering>
</event>
<event>
 9    1  0.1610296E-005  0.1631428E+03  0.7546771E-02  0.1203941E+00
         21   -1    0    0  501  502  0.00000000000E+00  0.00000000000E+00  0.16851499810E+03  0.16851499810E+03  0.00000000000E+00 0. -1.
          1   -1    0    0  502    0 -0.00000000000E+00 -0.00000000000E+00 -0.47153135150E+03  0.47153135150E+03  0.00000000000E+00 0. -1.
         23    2    1    2    0    0 -0.39558327601E+02 -0.47766308321E+02 -0.25058675711E+03  0.27293340387E+03  0.88613986550E+02 0.  0.
         23    2    1    2    0    0  0.94912892453E+02 -0.82989102998E+02 -0.13315008146E+03  0.20378229287E+03  0.88896739675E+02 0.  0.
        -13    1    4    4    0    0 -0.15611545560E+02 -0.24738038348E+02 -0.22739908730E+02  0.37051239454E+02  0.00000000000E+00 0.  1.
         13    1    4    4    0    0  0.11052443801E+03 -0.58251064650E+02 -0.11041017273E+03  0.16673105342E+03  0.00000000000E+00 0. -1.
        -13    1    3    3    0    0  0.19712209887E+02  0.12047367491E+02 -0.69185417974E+02  0.72940608322E+02  0.00000000000E+00 0. -1.
         13    1    3    3    0    0 -0.59270537487E+02 -0.59813675812E+02 -0.18140133914E+03  0.19999279554E+03  0.00000000000E+00 0.  1.
          1    1    1    2  501    0 -0.55354564852E+02  0.13075541132E+03  0.80720485164E+02  0.16333065286E+03  0.00000000000E+00 0. -1.
<scales pt_clust_5="13000.00000" pt_clust_6="13000.00000" pt_clust_7="13000.00000" pt_clust_8="13000.00000" pt_clust_9="136.79531"></scales>
<clustering>
<clus scale="   88.614">  7  8 -1 -1</clus>
<clus scale="   88.897">  5  6 -1 -1</clus>
<clus scale="  108.162">  2  7  1 -1</clus>
<clus scale="  136.795">  1  9  2 -1</clus>
<clus scale="  136.795">  1  5  2 -1</clus>
</clustering>
</event>
<event>
 9    1  0.1610296E-005  0.1261713E+03  0.7546771E-02  0.1233685E+00
          4   -1    0    0  502    0 -0.00000000000E+00  0.00000000000E+00  0.94043291123E+02  0.94043291123E+02  0.00000000000E+00 0. -1.
         21   -1    0    0  501  502  0.00000000000E+00 -0.00000000000E+00 -0.22878520411E+03  0.22878520411E+03  0.00000000000E+00 0.  1.
         23    2    1    2    0    0 -0.30623015651E+01  0.10080011715E+03 -0.33341940506E+02  0.13931298626E+03  0.90146446612E+02 0.  0.
         23    2    1    2    0    0 -0.94367793445E-01 -0.66553521354E+02 -0.96397781463E+02  0.14876186455E+03  0.91696128402E+02 0.  0.
        -11    1    4    4    0    0  0.29298780563E+02  0.97970538812E+01 -0.19842152795E+02  0.36716642477E+02  0.00000000000E+00 0.  1.
         11    1    4    4    0    0 -0.29393148356E+02 -0.76350575235E+02 -0.76555628668E+02  0.11204522207E+03  0.00000000000E+00 0. -1.
        -11    1    3    3    0    0  0.21341134931E+02  0.10721582050E+03 -0.32572374084E+02  0.11406855728E+03  0.00000000000E+00 0.  1.
         11    1    3    3    0    0 -0.24403436496E+02 -0.64157033520E+01 -0.76956642175E+00  0.25244428986E+02  0.00000000000E+00 0. -1.
          4    1    1    2  501    0  0.31566693585E+01 -0.34246595796E+02 -0.50021910135E+01  0.34753644413E+02  0.00000000000E+00 0. -1.
<scales pt_clust_5="13000.00000" pt_clust_6="13000.00000" pt_clust_7="13000.00000" pt_clust_8="13000.00000" pt_clust_9="34.39179"></scales>
<clustering>
<clus scale="   34.392">  2  9  1 -1</clus>
<clus scale="   90.146">  7  8 -1 -1</clus>
<clus scale="   91.696">  5  6 -1 -1</clus>
<clus scale="  125.050">  1  7  2 -1</clus>
<clus scale="   34.392">  2  5  1 -1</clus>
</clustering>
</event>
<event>
 9    1  0.1610296E-005  0.1082486E+03  0.7546771E-02  0.1263934E+00
         21   -1    0    0  501  502  0.00000000000E+00  0.00000000000E+00  0.32881354187E+03  0.32881354187E+03  0.00000000000E+00 0.  1.
          2   -1    0    0  502    0 -0.00000000000E+00 -0.00000000000E+00 -0.23949993213E+03  0.23949993213E+03  0.00000000000E+00 0. -1.
         23    2    1    2    0    0  0.38767623436E+02 -0.32744384583E+02 -0.19047910180E+03  0.21798470207E+03  0.93058684517E+02 0.  0.
         23    2    1    2    0    0 -0.83842108876E+02  0.59045861760E+02  0.12385310097E+03  0.18588839038E+03  0.93268376462E+02 0.  0.
        -11    1    3    3    0    0 -0.20233933022E+02  0.18426184077E+02 -0.59428726814E+02  0.65427134095E+02  0.00000000000E+00 0.  1.
         11    1    3    3    0    0  0.59001556457E+02 -0.51170568661E+02 -0.13105037499E+03  0.15255756797E+03  0.00000000000E+00 0. -1.
        -13    1    4    4    0    0 -0.46925574879E+02 -0.46952945183E+01  0.68858500081E+01  0.47659944384E+02  0.00000000000E+00 0. -1.
         13    1    4    4    0    0 -0.36916533997E+02  0.63741156278E+02  0.11696725096E+03  0.13822844600E+03  0.00000000000E+00 0.  1.
          2    1    1    2  501    0  0.45074485440E+02 -0.26301477177E+02  0.15593961057E+03  0.16444038155E+03  0.00000000000E+00 0. -1.
<scales pt_clust_5="13000.00000" pt_clust_6="13000.00000" pt_clust_7="13000.00000" pt_clust_8="13000.00000" pt_clust_9="52.18694"></scales>
<clustering>
<clus scale="   52.187">  1  9  2 -1</clus>
<clus scale="   93.059">  5  6 -1 -1</clus>
<clus scale="   93.268">  7  8 -1 -1</clus>
<clus scale="  108.068">  2  5  1 -1</clus>
<clus scale="   52.187">  1  5  2 -1</clus>
</clustering>
</event>
<event>
 9    1  0.1610296E-005  0.1358456E+03  0.7546771E-02  0.1219052E+00
         21   -1    0    0  501  502  0.00000000000E+00  0.00000000000E+00  0.17834356903E+03  0.17834356903E+03  0.00000000000E+00 0. -1.
          1   -1    0    0  502    0 -0.00000000000E+00 -0.00000000000E+00 -0.40014867150E+03  0.40014867150E+03  0.00000000000E+00 0. -1.
         23    2    1    2    0    0  0.15662173428E+02  0.10246960239E+03 -0.24020578682E+03  0.27762832340E+03  0.92915783600E+02 0.  0.
         23    2    1    2    0    0 -0.49419922932E+02 -0.82011087484E+02 -0.10593525486E+03  0.17041253820E+03  0.93005417594E+02 0.  0.
        -11    1    3    3    0    0  0.38146141004E+02  0.15192237337E+02 -0.36752061299E+02  0.55105772461E+02  0.00000000000E+00 0.  1.
         11    1    3    3    0    0 -0.22483967575E+02  0.87277365057E+02 -0.20345372552E+03  0.22252255094E+03  0.00000000000E+00 0. -1.
        -13    1    4    4    0    0 -0.37839198700E+02 -0.49352814400E+02 -0.11827663004E+03  0.13362958677E+03  0.00000000000E+00 0. -1.
         13    1    4    4    0    0 -0.11580724232E+02 -0.32658273085E+02  0.12341375180E+02  0.36782951431E+02  0.00000000000E+00 0.  1.
          1    1    1    2  501    0  0.33757749503E+02 -0.20458514910E+02  0.12433593921E+03  0.13045137892E+03  0.00000000000E+00 0. -1.
<scales pt_clust_5="13000.00000" pt_clust_6="13000.00000" pt_clust_7="13000.00000" pt_clust_8="13000.00000" pt_clust_9="39.47324"></scales>
<clustering>
<clus scale="   39.473">  1  9  2 -1</clus>
<clus scale="   92.916">  5  6 -1 -1</clus>
<clus scale="   93.005">  7  8 -1 -1</clus>
<clus scale="  135.784">  2  5  1 -1</clus>
<clus scale="   39.473">  1  5  2 -1</clus>
</clustering>
</event>
<event>
 9    1  0.1610296E-005  0.1092622E+03  0.7546771E-02  0.1264223E+00
          3   -1    0    0  502    0 -0.00000000000E+00  0.00000000000E+00  0.14433204427E+03  0.14433204427E+03  0.00000000000E+00 0. -1.
         21   -1    0    0  501  502  0.00000000000E+00 -0.00000000000E+00 -0.51204795003E+03  0.51204795003E+03  0.00000000000E+00 0. -1.
         23    2    1    2    0    0  0.40029166223E+02  0.47356303824E+02  0.95646085199E+02  0.14229161579E+03  0.85169106193E+02 0.  0.
         23    2    1    2    0    0 -0.70227729123E+02 -0.43314187800E+01 -0.11805549829E+03  0.16480387011E+03  0.90953393558E+02 0.  0.
        -11    1    4    4    0    0  0.51406196342E+01  0.21424750329E+02 -0.66182128513E+02  0.69753279718E+02  0.00000000000E+00 0.  1.
         11    1    4    4    0    0 -0.75368348757E+02 -0.25756169109E+02 -0.51873369779E+02  0.95050590392E+02  0.00000000000E+00 0. -1.
        -13    1    3    3    0    0 -0.20268762410E+02  0.51053994100E+01 -0.84410693881E+00  0.20918899333E+02  0.00000000000E+00 0. -1.
         13    1    3    3    0    0  0.60297928633E+02  0.42250904414E+02  0.96490192138E+02  0.12137271646E+03  0.00000000000E+00 0.  1.
          3    1    1    2  501    0  0.30198562900E+02 -0.43024885044E+02 -0.34530649266E+03  0.34928450840E+03  0.00000000000E+00 0. -1.
<scales pt_clust_5="13000.00000" pt_clust_6="13000.00000" pt_clust_7="13000.00000" pt_clust_8="13000.00000" pt_clust_9="52.56514"></scales>
<clustering>
<clus scale="   52.565">  2  9  1 -1</clus>
<clus scale="   85.169">  7  8 -1 -1</clus>
<clus scale="   90.953">  5  6 -1 -1</clus>
<clus scale="  104.496">  1  7  2 -1</clus>
<clus scale="   52.565">  2  5  1 -1</clus>
</clustering>
</event>
<event>
 9    1  0.1610296E-005  0.9345968E+02  0.7546771E-02  0.1299198E+00
         21   -1    0    0  501  502  0.00000000000E+00  0.00000000000E+00  0.17002733432E+03  0.17002733432E+03  0.00000000000E+00 0.  1.
          2   -1    0    0  502    0 -0.00000000000E+00 -0.00000000000E+00 -0.22424454769E+03  0.22424454769E+03  0.00000000000E+00 0. -1.
         23    2    1    2    0    0 -0.52010137789E+01  0.69271716424E+01 -0.13951269971E+03  0.16723018143E+03  0.91799258990E+02 0.  0.
         23    2    1    2    0    0  0.54973818147E+02  0.23872976160E+02 -0.21250367270E+02  0.10547690271E+03  0.84153189033E+02 0.  0.
        -11    1    4    4    0    0  0.64076515386E+02 -0.12415331481E+02 -0.78579233266E+01  0.65739540908E+02  0.00000000000E+00 0.  1.
         11    1    4    4    0    0 -0.91026972391E+01  0.36288307641E+02 -0.13392443943E+02  0.39737361805E+02  0.00000000000E+00 0. -1.
        -13    1    3    3    0    0 -0.87631033713E+01 -0.18546875642E+02  0.44480263526E+01  0.20989604932E+02  0.00000000000E+00 0.  1.
         13    1    3    3    0    0  0.35620895925E+01  0.25474047285E+02 -0.14396072606E+03  0.14624057650E+03  0.00000000000E+00 0. -1.
          2    1    1    2  501    0 -0.49772804368E+02 -0.30800147802E+02  0.10654585361E+03  0.12156479787E+03  0.00000000000E+00 0. -1.
<scales pt_clust_5="13000.00000" pt_clust_6="13000.00000" pt_clust_7="13000.00000" pt_clust_8="13000.00000" pt_clust_9="58.53188"></scales>
<clustering>
<clus scale="   58.532">  1  9  2 -1</clus>
<clus scale="   84.153">  5  6 -1 -1</clus>
<clus scale="   85.961">  1  5  2 -1</clus>
<clus scale="   91.799">  7  8 -1 -1</clus>
<clus scale="   58.532">  1  5  2 -1</clus>
</clustering>
</event>
<event>
 9    1  0.8951526E-005  0.4368034E+03  0.7546771E-02  0.1046543E+00
         21   -1    0    0  501  502  0.00000000000E+00  0.00000000000E+00  0.12145805105E+03  0.12145805105E+03  0.00000000000E+00 0. -1.
          2   -1    0    0  502    0 -0.00000000000E+00 -0.00000000000E+00 -0.33387739225E+04  0.33387739225E+04  0.00000000000E+00 0. -1.
         23    2    1    2    0    0  0.62456280482E+02 -0.26349791759E+03 -0.12658245453E+04  0.12972204438E+04  0.84481718117E+02 0.  0.
         23    2    1    2    0    0  0.14395506471E+03 -0.29291658891E+03 -0.74346484892E+03  0.81708035912E+03  0.91417410600E+02 0.  0.
        -11    1    3    3    0    0 -0.45775277323E+01 -0.66489029856E+02 -0.18732941788E+03  0.19883172698E+03  0.00000000000E+00 0.  1.
         11    1    3    3    0    0  0.67033808214E+02 -0.19700888773E+03 -0.10784951275E+04  0.10983887168E+04  0.00000000000E+00 0. -1.
        -13    1    4    4    0    0  0.26363779554E+01 -0.85590251420E+02 -0.14937331181E+03  0.17217731531E+03  0.00000000000E+00 0.  1.
         13    1    4    4    0    0  0.14131868676E+03 -0.20732633748E+03 -0.59409153711E+03  0.64490304381E+03  0.00000000000E+00 0. -1.
          2    1    1    2  501    0 -0.20641134519E+03  0.55641450649E+03 -0.12080264772E+04  0.13459311706E+04  0.00000000000E+00 0. -1.
<scales pt_clust_5="13000.00000" pt_clust_6="13000.00000" pt_clust_7="13000.00000" pt_clust_8="13000.00000" pt_clust_9="427.13022"></scales>
<clustering>
<clus scale="   84.482">  5  6 -1 -1</clus>
<clus scale="   91.417">  7  8 -1 -1</clus>
<clus scale="  283.671">  2  5  1 -1</clus>
<clus scale="  427.130">  1  9  2 -1</clus>
<clus scale="  427.130">  1  5  2 -1</clus>
</clustering>
</event>
<event>
 9    1  0.1610296E-005  0.2403071E+03  0.7546771E-02  0.1119659E+00
         21   -1    0    0  501  502  0.00000000000E+00  0.00000000000E+00  0.46656447254E+03  0.46656447254E+03  0.00000000000E+00 0. -1.
         -4   -1    0    0    0  501 -0.00000000000E+00 -0.00000000000E+00 -0.35318427922E+03  0.35318427922E+03  0.00000000000E+00 0.  1.
         23    2    1    2    0    0  0.21985654230E+03  0.23838495716E+02 -0.24704686968E+03  0.34379841718E+03  0.90884667387E+02 0.  0.
         23    2    1    2    0    0 -0.21921391184E+03 -0.82453233992E+02  0.28038190284E+03  0.37673678619E+03  0.91996302575E+02 0.  0.
        -11    1    4    4    0    0 -0.85439787870E+02  0.14016619072E+02  0.91128722429E+02  0.12570149964E+03  0.00000000000E+00 0.  1.
         11    1    4    4    0    0 -0.13377412397E+03 -0.96469853064E+02  0.18925318042E+03  0.25103528655E+03  0.00000000000E+00 0. -1.
        -13    1    3    3    0    0  0.19589831213E+03  0.10411526046E+02 -0.16197160939E+03  0.25439998195E+03  0.00000000000E+00 0.  1.
         13    1    3    3    0    0  0.23958230173E+02  0.13426969670E+02 -0.85075260293E+02  0.89398435229E+02  0.00000000000E+00 0. -1.
         -4    1    1    2    0  502 -0.64263046282E+00  0.58614738276E+02  0.80045160158E+02  0.99213548378E+02  0.00000000000E+00 0.  1.
<scales pt_clust_5="13000.00000" pt_clust_6="13000.00000" pt_clust_7="13000.00000" pt_clust_8="13000.00000" pt_clust_9="58.61826"></scales>
<clustering>
<clus scale="   58.618">  1  9  2 -1</clus>
<clus scale="   90.885">  7  8 -1 -1</clus>
<clus scale="   91.996">  5  6 -1 -1</clus>
<clus scale="  239.884">  2  7  1 -1</clus>
<clus scale="   58.618">  1  5  2 -1</clus>
</clustering>
</event>
<event>
 9    1  0.1610296E-005  0.1305309E+03  0.7546771E-02  0.1229645E+00
         21   -1    0    0  501  502  0.00000000000E+00  0.00000000000E+00  0.10685851279E+03  0.10685851279E+03  0.00000000000E+00 0. -1.
          1   -1    0    0  502    0 -0.00000000000E+00 -0.00000000000E+00 -0.70480841882E+03  0.70480841882E+03  0.00000000000E+00 0. -1.
         23    2    1    2    0    0 -0.45690879249E+02  0.10541844185E+03 -0.44613234861E+03  0.46785560345E+03  0.81572598791E+02 0.  0.
         23    2    1    2    0    0  0.97160487086E+01 -0.63813038228E+02 -0.22525338989E+03  0.25206156231E+03  0.92894758143E+02 0.  0.
        -13    1    4    4    0    0 -0.23881666514E+02  0.55860671899E+01 -0.11459387500E+03  0.11718913913E+03  0.00000000000E+00 0. -1.
         13    1    4    4    0    0  0.33597715222E+02 -0.69399105418E+02 -0.11065951488E+03  0.13487242318E+03  0.00000000000E+00 0.  1.
        -13    1    3    3    0    0  0.15282359020E+02  0.67158909330E+02 -0.21201642827E+03  0.22292338472E+03  0.00000000000E+00 0.  1.
         13    1    3    3    0    0 -0.60973238268E+02  0.38259532517E+02 -0.23411592035E+03  0.24493221873E+03  0.00000000000E+00 0. -1.
          1    1    1    2  501    0  0.35974830540E+02 -0.41605403619E+02  0.73435832467E+02  0.91749765846E+02  0.00000000000E+00 0. -1.
<scales pt_clust_5="13000.00000" pt_clust_6="13000.00000" pt_clust_7="13000.00000" pt_clust_8="13000.00000" pt_clust_9="55.00180"></scales>
<clustering>
<clus scale="   55.002">  1  9  2 -1</clus>
<clus scale="   81.573">  7  8 -1 -1</clus>
<clus scale="   92.895">  5  6 -1 -1</clus>
<clus scale="  122.731">  2  7  1 -1</clus>
<clus scale="   55.002">  1  5  2 -1</clus>
</clustering>
</event>
<event>
 9    1  0.1610296E-005  0.1288715E+03  0.7546771E-02  0.1234351E+00
         21   -1    0    0  501  502  0.00000000000E+00  0.00000000000E+00  0.27485989970E+03  0.27485989970E+03  0.00000000000E+00 0.  1.
          4   -1    0    0  502    0 -0.00000000000E+00 -0.00000000000E+00 -0.72236948571E+02  0.72236948571E+02  0.00000000000E+00 0. -1.
         23    2    1    2    0    0 -0.45362347520E+02  0.69134199494E+02  0.38393473817E+02  0.13869789721E+03  0.10452639737E+03 0.  0.
         23    2    1    2    0    0  0.32323585802E+02 -0.53816688214E+02  0.13406640743E+03  0.17214365843E+03  0.87855491608E+02 0.  0.
        -11    1    4    4    0    0  0.62730114046E+02 -0.33052456157E+02  0.82536476393E+02  0.10881085425E+03  0.00000000000E+00 0. -1.
         11    1    4    4    0    0 -0.30406528243E+02 -0.20764232056E+02  0.51529931042E+02  0.63332804184E+02  0.00000000000E+00 0.  1.
        -13    1    3    3    0    0 -0.13679132577E+02  0.92631211402E+02  0.30433661819E+02  0.98457441392E+02  0.00000000000E+00 0.  1.
         13    1    3    3    0    0 -0.31683214943E+02 -0.23497011908E+02  0.79598119982E+01  0.40240455822E+02  0.00000000000E+00 0. -1.
          4    1    1    2  501    0  0.13038761718E+02 -0.15317511281E+02  0.30163069877E+02  0.36255292626E+02  0.00000000000E+00 0. -1.
<scales pt_clust_5="13000.00000" pt_clust_6="13000.00000" pt_clust_7="13000.00000" pt_clust_8="13000.00000" pt_clust_9="20.11555"></scales>
<clustering>
<clus scale="   20.116">  1  9  2 -1</clus>
<clus scale="   87.855">  5  6 -1 -1</clus>
<clus scale="  104.526">  7  8 -1 -1</clus>
<clus scale="  115.761">  1  5  2 -1</clus>
<clus scale="   20.116">  1  5  2 -1</clus>
</clustering>
</event>
<event>
 9    1  0.1610296E-005  0.9702799E+02  0.7546771E-02  0.1288004E+00
         21   -1    0    0  501  502  0.00000000000E+00  0.00000000000E+00  0.10563352424E+03  0.10563352424E+03  0.00000000000E+00 0. -1.
          2   -1    0    0  502    0 -0.00000000000E+00 -0.00000000000E+00 -0.42172398159E+03  0.42172398159E+03  0.00000000000E+00 0. -1.
         23    2    1    2    0    0 -0.16951021222E+02 -0.86198899183E+01 -0.30786504769E+03  0.32202696477E+03  0.92513992589E+02 0.  0.
         23    2    1    2    0    0  0.57124690805E+01  0.31054800963E+02 -0.80746534186E+02  0.12859108712E+03  0.94966477975E+02 0.  0.
        -11    1    3    3    0    0  0.72526780165E+01 -0.41936157598E+02 -0.81460768374E+02  0.91908103215E+02  0.00000000000E+00 0.  1.
         11    1    3    3    0    0 -0.24203699239E+02  0.33316267680E+02 -0.22640427932E+03  0.23011886155E+03  0.00000000000E+00 0. -1.
        -11    1    4    4    0    0  0.34783728436E+02  0.41934259952E+02 -0.80917689273E+02  0.97550306811E+02  0.00000000000E+00 0. -1.
         11    1    4    4    0    0 -0.29071259355E+02 -0.10879458988E+02  0.17115508750E+00  0.31040780313E+02  0.00000000000E+00 0.  1.
          2    1    1    2  501    0  0.11238552142E+02 -0.22434911045E+02  0.72521124527E+02  0.76739453936E+02  0.00000000000E+00 0. -1.
<scales pt_clust_5="13000.00000" pt_clust_6="13000.00000" pt_clust_7="13000.00000" pt_clust_8="13000.00000" pt_clust_9="25.09243"></scales>
<clustering>
<clus scale="   25.092">  1  9  2 -1</clus>
<clus scale="   92.514">  5  6 -1 -1</clus>
<clus scale="   94.629">  2  5  1 -1</clus>
<clus scale="   94.966">  7  8 -1 -1</clus>
<clus scale="   25.092">  1  5  2 -1</clus>
</clustering>
</event>
<event>
 9    1  0.1610296E-005  0.1059307E+03  0.7546771E-02  0.1275236E+00
         21   -1    0    0  501  502  0.00000000000E+00  0.00000000000E+00  0.43920032028E+03  0.43920032028E+03  0.00000000000E+00 0. -1.
         -1   -1    0    0    0  501 -0.00000000000E+00 -0.00000000000E+00 -0.30389631441E+02  0.30389631441E+02  0.00000000000E+00 0.  1.
         23    2    1    2    0    0  0.10066036507E+02 -0.95356096992E+01  0.11645685954E+03  0.14818357033E+03  0.90575479240E+02 0.  0.
         23    2    1    2    0    0 -0.31214153039E+02  0.52286589886E+01  0.21320335190E+03  0.23936620386E+03  0.10410978850E+03 0.  0.
        -11    1    4    4    0    0 -0.64203343467E+02 -0.17849407855E+02  0.15367966977E+03  0.16750555684E+03  0.00000000000E+00 0.  1.
         11    1    4    4    0    0  0.32989190428E+02  0.23078066843E+02  0.59523682137E+02  0.71860647016E+02  0.00000000000E+00 0. -1.
        -11    1    3    3    0    0  0.30764397148E+02 -0.37519720323E+02  0.96625613837E+02  0.10812347939E+03  0.00000000000E+00 0.  1.
         11    1    3    3    0    0 -0.20698360642E+02  0.27984110624E+02  0.19831245705E+02  0.40060090950E+02  0.00000000000E+00 0. -1.
         -1    1    1    2    0  502  0.21148116533E+02  0.43069507105E+01  0.79150477397E+02  0.82040177532E+02  0.00000000000E+00 0.  1.
<scales pt_clust_5="13000.00000" pt_clust_6="13000.00000" pt_clust_7="13000.00000" pt_clust_8="13000.00000" pt_clust_9="21.58223"></scales>
<clustering>
<clus scale="   21.582">  1  9  2 -1</clus>
<clus scale="   90.575">  7  8 -1 -1</clus>
<clus scale="   92.663">  2  7  1 -1</clus>
<clus scale="  104.110">  5  6 -1 -1</clus>
<clus scale="   21.582">  1  5  2 -1</clus>
</clustering>
</event>
<event>
 9    1  0.1610296E-005  0.1064904E+03  0.7546771E-02  0.1269249E+00
         -3   -1    0    0    0  501 -0.00000000000E+00  0.00000000000E+00  0.91415563886E+02  0.91415563886E+02  0.00000000000E+00 0.  1.
         21   -1    0    0  501  502  0.00000000000E+00 -0.00000000000E+00 -0.49223953562E+03  0.49223953562E+03  0.00000000000E+00 0.  1.
         23    2    1    2    0    0 -0.52100836025E+02  0.90591457445E+01  0.47187625470E+02  0.11448939261E+03  0.89914313586E+02 0.  0.
         23    2    1    2    0    0  0.18162571102E+02  0.10500413185E+02 -0.26892099308E+03  0.28584133138E+03  0.94586619243E+02 0.  0.
        -11    1    3    3    0    0 -0.31776087752E+02  0.22647262443E+02  0.70582654153E+02  0.80650662218E+02  0.00000000000E+00 0.  1.
         11    1    3    3    0    0 -0.20324748273E+02 -0.13588116698E+02 -0.23395028683E+02  0.33838730397E+02  0.00000000000E+00 0. -1.
        -13    1    4    4    0    0 -0.29017757094E+02  0.30487112933E+02 -0.84028582943E+02  0.93980301304E+02  0.00000000000E+00 0.  1.
         13    1    4    4    0    0  0.47180328196E+02 -0.19986699748E+02 -0.18489241014E+03  0.19186103008E+03  0.00000000000E+00 0. -1.
         -3    1    1    2    0  502  0.33938264923E+02 -0.19559558930E+02 -0.17909060412E+03  0.18332437550E+03  0.00000000000E+00 0.  1.
<scales pt_clust_5="13000.00000" pt_clust_6="13000.00000" pt_clust_7="13000.00000" pt_clust_8="13000.00000" pt_clust_9="39.17119"></scales>
<clustering>
<clus scale="   39.171">  2  9  1 -1</clus>
<clus scale="   89.914">  5  6 -1 -1</clus>
<clus scale="   94.587">  7  8 -1 -1</clus>
<clus scale="  102.363">  1  5  2 -1</clus>
<clus scale="   39.171">  2  5  1 -1</clus>
</clustering>
</event>
<event>
 9    1  0.1610296E-005  0.1357825E+03  0.7546771E-02  0.1233898E+00
         21   -1    0    0  501  502  0.00000000000E+00  0.00000000000E+00  0.36386701664E+02  0.36386701664E+02  0.00000000000E+00 0.  1.
          2   -1    0    0  502    0 -0.00000000000E+00 -0.00000000000E+00 -0.87455065890E+03  0.87455065890E+03  0.00000000000E+00 0. -1.
         23    2    1    2    0    0 -0.39910644952E+02 -0.24714064596E+02 -0.14361227773E+03  0.17493685720E+03  0.88174673936E+02 0.  0.
         23    2    1    2    0    0  0.48270592943E+02 -0.77826649961E+02 -0.48415212812E+03  0.50179448701E+03  0.94907251783E+02 0.  0.
        -11    1    3    3    0    0 -0.24224254229E+02  0.32310352214E+02 -0.65723997961E+02  0.77138947757E+02  0.00000000000E+00 0. -1.
         11    1    3    3    0    0 -0.15686390724E+02 -0.57024416810E+02 -0.77888279770E+02  0.97797909446E+02  0.00000000000E+00 0.  1.
        -11    1    4    4    0    0  0.16214668914E+02 -0.79653407600E+02 -0.43856838147E+03  0.44603789755E+03  0.00000000000E+00 0.  1.
         11    1    4    4    0    0  0.32055924028E+02  0.18267576389E+01 -0.45583746654E+02  0.55756589456E+02  0.00000000000E+00 0. -1.
          2    1    1    2  501    0 -0.83599479906E+01  0.10254071456E+03 -0.21039955138E+03  0.23420601635E+03  0.00000000000E+00 0. -1.
<scales pt_clust_5="13000.00000" pt_clust_6="13000.00000" pt_clust_7="13000.00000" pt_clust_8="13000.00000" pt_clust_9="97.10568"></scales>
<clustering>
<clus scale="   88.175">  5  6 -1 -1</clus>
<clus scale="   94.907">  7  8 -1 -1</clus>
<clus scale="   99.892">  2  5  1 -1</clus>
<clus scale="   97.106">  1  9  2 -1</clus>
<clus scale="   97.106">  1  5  2 -1</clus>
</clustering>
</event>
<event>
 9    1  0.1610296E-005  0.1177223E+03  0.7546771E-02  0.1247440E+00
         21   -1    0    0  501  502  0.00000000000E+00  0.00000000000E+00  0.41308918085E+02  0.41308918085E+02  0.00000000000E+00 0.  1.
          2   -1    0    0  502    0 -0.00000000000E+00 -0.00000000000E+00 -0.69847600527E+03  0.69847600527E+03  0.00000000000E+00 0. -1.
         23    2    1    2    0    0 -0.45863118377E+00  0.78081589315E+02 -0.50372293511E+03  0.51785715274E+03  0.91336139419E+02 0.  0.
         23    2    1    2    0    0 -0.30838624814E+02 -0.62302062417E+02 -0.14792992982E+03  0.18644653121E+03  0.89702157732E+02 0.  0.
        -11    1    3    3    0    0  0.29629939984E+02  0.83688575733E+02 -0.39873819613E+03  0.40850197075E+03  0.00000000000E+00 0.  1.
         11    1    3    3    0    0 -0.30088571168E+02 -0.56069864177E+01 -0.10498473897E+03  0.10935518199E+03  0.00000000000E+00 0. -1.
        -11    1    4    4    0    0  0.69100350435E+01  0.19923318655E+02 -0.43024829961E+02  0.47914749333E+02  0.00000000000E+00 0.  1.
         11    1    4    4    0    0 -0.37748659857E+02 -0.82225381071E+02 -0.10490509986E+03  0.13853178188E+03  0.00000000000E+00 0. -1.
          2    1    1    2  501    0  0.31297255998E+02 -0.15779526899E+02 -0.55142222556E+01  0.35481239398E+02  0.00000000000E+00 0. -1.
<scales pt_clust_5="13000.00000" pt_clust_6="13000.00000" pt_clust_7="13000.00000" pt_clust_8="13000.00000" pt_clust_9="35.05013"></scales>
<clustering>
<clus scale="   35.050">  1  9  2 -1</clus>
<clus scale="   89.702">  7  8 -1 -1</clus>
<clus scale="   91.336">  5  6 -1 -1</clus>
<clus scale="  116.459">  1  7  2 -1</clus>
<clus scale="   35.050">  1  5  2 -1</clus>
</clustering>
</event>
<event>
 9    1  0.1610296E-005  0.1014947E+03  0.7546771E-02  0.1279979E+00
          3   -1    0    0  502    0 -0.00000000000E+00  0.00000000000E+00  0.33667590046E+03  0.33667590046E+03  0.00000000000E+00 0. -1.
         21   -1    0    0  501  502  0.00000000000E+00 -0.00000000000E+00 -0.13038390035E+03  0.13038390035E+03  0.00000000000E+00 0. -1.
         23    2    1    2    0    0  0.81000033757E+01 -0.43830713706E+02  0.20595827032E+03  0.22881565080E+03  0.89168668377E+02 0.  0.
         23    2    1    2    0    0 -0.99500408517E+01  0.19699995861E+02  0.97689554767E+02  0.13792530413E+03  0.94831678560E+02 0.  0.
        -11    1    3    3    0    0  0.25078609515E+02  0.20369313083E+02  0.83080012103E+02  0.89141090310E+02  0.00000000000E+00 0.  1.
         11    1    3    3    0    0 -0.16978606139E+02 -0.64200026789E+02  0.12287825822E+03  0.13967456049E+03  0.00000000000E+00 0. -1.
        -13    1    4    4    0    0 -0.95449863890E+01 -0.24863612447E+02  0.88502275669E+02  0.92422717919E+02  0.00000000000E+00 0. -1.
         13    1    4    4    0    0 -0.40505446266E+00  0.44563608308E+02  0.91872790984E+01  0.45502586210E+02  0.00000000000E+00 0.  1.
          3    1    1    2  501    0  0.18500374760E+01  0.24130717845E+02 -0.97355824971E+02  0.10031884588E+03  0.00000000000E+00 0. -1.
<scales pt_clust_5="13000.00000" pt_clust_6="13000.00000" pt_clust_7="13000.00000" pt_clust_8="13000.00000" pt_clust_9="24.20153"></scales>
<clustering>
<clus scale="   24.202">  2  9  1 -1</clus>
<clus scale="   89.169">  5  6 -1 -1</clus>
<clus scale="   94.832">  7  8 -1 -1</clus>
<clus scale="   96.225">  1  5  2 -1</clus>
<clus scale="   24.202">  2  5  1 -1</clus>
</clustering>
</event>
<event>
 9    1  0.1610296E-005  0.1054360E+03  0.7546771E-02  0.1271275E+00
         -1   -1    0    0    0  501 -0.00000000000E+00  0.00000000000E+00  0.15642427613E+03  0.15642427613E+03  0.00000000000E+00 0.  1.
         21   -1    0    0  501  502  0.00000000000E+00 -0.00000000000E+00 -0.16168404617E+03  0.16168404617E+03  0.00000000000E+00 0. -1.
         23    2    1    2    0    0  0.38808539672E+02  0.31881526740E+02  0.99920250334E+02  0.14390982589E+03  0.90572882591E+02 0.  0.
         23    2    1    2    0    0 -0.15977582931E+02 -0.11350171189E+02 -0.10568720901E+03  0.14348943607E+03  0.95054313811E+02 0.  0.
        -13    1    3    3    0    0  0.59381591243E+02 -0.59639688044E+01  0.49041402542E+02  0.77245074055E+02  0.00000000000E+00 0.  1.
         13    1    3    3    0    0 -0.20573051571E+02  0.37845495544E+02  0.50878847792E+02  0.66664751830E+02  0.00000000000E+00 0. -1.
        -13    1    4    4    0    0  0.16235575315E+02 -0.19266418747E+02  0.68954781965E+01  0.26121569951E+02  0.00000000000E+00 0.  1.
         13    1    4    4    0    0 -0.32213158246E+02  0.79162475575E+01 -0.11258268721E+03  0.11736786612E+03  0.00000000000E+00 0. -1.
         -1    1    1    2    0  502 -0.22830956741E+02 -0.20531355550E+02  0.50718863148E+00  0.30709060337E+02  0.00000000000E+00 0.  1.
<scales pt_clust_5="13000.00000" pt_clust_6="13000.00000" pt_clust_7="13000.00000" pt_clust_8="13000.00000" pt_clust_9="30.70489"></scales>
<clustering>
<clus scale="   30.705">  2  9  1 -1</clus>
<clus scale="   90.573">  5  6 -1 -1</clus>
<clus scale="   95.054">  7  8 -1 -1</clus>
<clus scale="  101.414">  1  5  2 -1</clus>
<clus scale="   30.705">  2  5  1 -1</clus>
</clustering>
</event>
<event>
 9    1  0.1610296E-005  0.9925104E+02  0.7546771E-02  0.1284164E+00
          1   -1    0    0  502    0 -0.00000000000E+00  0.00000000000E+00  0.69569790845E+03  0.69569790845E+03  0.00000000000E+00 0. -1.
         21   -1    0    0  501  502  0.00000000000E+00 -0.00000000000E+00 -0.23613214020E+02  0.23613214020E+02  0.00000000000E+00 0.  1.
         23    2    1    2    0    0 -0.19483209788E+02 -0.34179408365E+02  0.51103172312E+03  0.52091014038E+03  0.92984541179E+02 0.  0.
         23    2    1    2    0    0  0.22594067267E+02  0.10617022506E+02  0.13207470862E+03  0.16092294625E+03  0.88483065786E+02 0.  0.
        -13    1    3    3    0    0 -0.55672499135E+02 -0.95809167357E+01  0.25678761237E+03  0.26292793498E+03  0.00000000000E+00 0.  1.
         13    1    3    3    0    0  0.36189289347E+02 -0.24598491629E+02  0.25424411075E+03  0.25798220540E+03  0.00000000000E+00 0. -1.
        -13    1    4    4    0    0 -0.12501650484E+02 -0.31587388778E+02  0.31417387116E+02  0.46272093186E+02  0.00000000000E+00 0.  1.
         13    1    4    4    0    0  0.35095717751E+02  0.42204411285E+02  0.10065732151E+03  0.11465085307E+03  0.00000000000E+00 0. -1.
          1    1    1    2  501    0 -0.31108574788E+01  0.23562385859E+02  0.28978262696E+02  0.37478035841E+02  0.00000000000E+00 0. -1.
<scales pt_clust_5="13000.00000" pt_clust_6="13000.00000" pt_clust_7="13000.00000" pt_clust_8="13000.00000" pt_clust_9="23.76686"></scales>
<clustering>
<clus scale="   23.767">  2  9  1 -1</clus>
<clus scale="   88.483">  7  8 -1 -1</clus>
<clus scale="   92.985">  5  6 -1 -1</clus>
<clus scale="   95.047">  2  7  1 -1</clus>
<clus scale="   23.767">  2  5  1 -1</clus>
</clustering>
</event>
<event>
 9    1  0.1610296E-005  0.1298316E+03  0.7546771E-02  0.1241025E+00
         21   -1    0    0  501  502  0.00000000000E+00  0.00000000000E+00  0.44347060625E+02  0.44347060625E+02  0.00000000000E+00 0.  1.
         -2   -1    0    0    0  501 -0.00000000000E+00 -0.00000000000E+00 -0.84361219402E+03  0.84361219402E+03  0.00000000000E+00 0.  1.
         23    2    1    2    0    0 -0.15820246637E+00 -0.40757112082E+02 -0.49479736731E+03  0.50456669563E+03  0.90010823935E+02 0.  0.
         23    2    1    2    0    0  0.95253379900E+02 -0.47366460454E+01 -0.18190054043E+03  0.22172778362E+03  0.83544965274E+02 0.  0.
        -11    1    4    4    0    0  0.41666023163E+02 -0.16618903425E+02 -0.17066211058E+02  0.47994801771E+02  0.00000000000E+00 0.  1.
         11    1    4    4    0    0  0.53587356737E+02  0.11882257379E+02 -0.16483432938E+03  0.17373298185E+03  0.00000000000E+00 0. -1.
        -13    1    3    3    0    0  0.49221638019E+01 -0.69334995751E+02 -0.33138520709E+03  0.33859669935E+03  0.00000000000E+00 0.  1.
         13    1    3    3    0    0 -0.50803662682E+01  0.28577883670E+02 -0.16341216022E+03  0.16596999628E+03  0.00000000000E+00 0. -1.
         -2    1    1    2    0  502 -0.95095177433E+02  0.45493758127E+02 -0.12256722565E+03  0.16166477539E+03  0.00000000000E+00 0.  1.
<scales pt_clust_5="13000.00000" pt_clust_6="13000.00000" pt_clust_7="13000.00000" pt_clust_8="13000.00000" pt_clust_9="99.38054"></scales>
<clustering>
<clus scale="   83.545">  5  6 -1 -1</clus>
<clus scale="   90.011">  7  8 -1 -1</clus>
<clus scale="   98.808">  2  7  1 -1</clus>
<clus scale="   99.381">  1  9  2 -1</clus>
<clus scale="   99.381">  1  5  2 -1</clus>
</clustering>
</event>
<event>
 9    1  0.1610296E-005  0.9413791E+02  0.7546771E-02  0.1293507E+00
         21   -1    0    0  501  502  0.00000000000E+00  0.00000000000E+00  0.10726665718E+03  0.10726665718E+03  0.00000000000E+00 0.  1.
          3   -1    0    0  502    0 -0.00000000000E+00 -0.00000000000E+00 -0.25273102847E+03  0.25273102847E+03  0.00000000000E+00 0. -1.
         23    2    1    2    0    0 -0.24504571660E+02 -0.16470851115E+02 -0.18215239442E+03  0.20569199257E+03  0.90873197635E+02 0.  0.
         23    2    1    2    0    0 -0.28463845991E+02  0.76511634940E+01  0.23031730091E+02  0.98898703461E+02  0.91551964063E+02 0.  0.
        -13    1    4    4    0    0 -0.50058587715E+02  0.23044495826E+02 -0.10549320731E+02  0.56108815348E+02  0.00000000000E+00 0. -1.
         13    1    4    4    0    0  0.21594741724E+02 -0.15393332332E+02  0.33581050822E+02  0.42789888113E+02  0.00000000000E+00 0.  1.
        -13    1    3    3    0    0 -0.53550560341E+02 -0.24892312417E+02 -0.15163430282E+03  0.16272753769E+03  0.00000000000E+00 0. -1.
         13    1    3    3    0    0  0.29045988681E+02  0.84214613022E+01 -0.30518091598E+02  0.42964454887E+02  0.00000000000E+00 0.  1.
          3    1    1    2  501    0  0.52968417651E+02  0.88196876210E+01  0.13656293037E+02  0.55406989610E+02  0.00000000000E+00 0. -1.
<scales pt_clust_5="13000.00000" pt_clust_6="13000.00000" pt_clust_7="13000.00000" pt_clust_8="13000.00000" pt_clust_9="53.69767"></scales>
<clustering>
<clus scale="   53.698">  1  9  2 -1</clus>
<clus scale="   90.873">  7  8 -1 -1</clus>
<clus scale="   91.552">  5  6 -1 -1</clus>
<clus scale="   93.478">  2  7  1 -1</clus>
<clus scale="   53.698">  1  5  2 -1</clus>
</clustering>
</event>
<event>
 9    1  0.1610296E-005  0.9789147E+02  0.7546771E-02  0.1287095E+00
         21   -1    0    0  501  502  0.00000000000E+00  0.00000000000E+00  0.68514749229E+03  0.68514749229E+03  0.00000000000E+00 0.  1.
          3   -1    0    0  502    0 -0.00000000000E+00 -0.00000000000E+00 -0.23570023140E+02  0.23570023140E+02  0.00000000000E+00 0. -1.
         23    2    1    2    0    0  0.56285987849E+01 -0.26101074448E+02  0.11477028109E+03  0.14818202054E+03  0.89848464524E+02 0.  0.
         23    2    1    2    0    0  0.15117132523E+02  0.28856549049E+02  0.48915145366E+03  0.49919903170E+03  0.94176963822E+02 0.  0.
        -11    1    4    4    0    0  0.53400626548E+02  0.30187421271E+02  0.29926585791E+03  0.30548807019E+03  0.00000000000E+00 0.  1.
         11    1    4    4    0    0 -0.38283494025E+02 -0.13308722219E+01  0.18988559576E+03  0.19371096152E+03  0.00000000000E+00 0. -1.
        -11    1    3    3    0    0 -0.32680388187E+02 -0.38099423213E+02  0.82955671894E+02  0.96959874797E+02  0.00000000000E+00 0. -1.
         11    1    3    3    0    0  0.38308986972E+02  0.11998348765E+02  0.31814609197E+02  0.51222145741E+02  0.00000000000E+00 0.  1.
          3    1    1    2  501    0 -0.20745731308E+02 -0.27554746008E+01  0.57655734390E+02  0.61336463183E+02  0.00000000000E+00 0. -1.
<scales pt_clust_5="13000.00000" pt_clust_6="13000.00000" pt_clust_7="13000.00000" pt_clust_8="13000.00000" pt_clust_9="20.92792"></scales>
<clustering>
<clus scale="   20.928">  1  9  2 -1</clus>
<clus scale="   89.848">  7  8 -1 -1</clus>
<clus scale="   93.735">  2  7  1 -1</clus>
<clus scale="   94.177">  5  6 -1 -1</clus>
<clus scale="   20.928">  1  5  2 -1</clus>
</clustering>
</event>
<event>
 9    1  0.1610296E-005  0.1350891E+03  0.7546771E-02  0.1220281E+00
          1   -1    0    0  502    0 -0.00000000000E+00  0.00000000000E+00  0.54502403013E+03  0.54502403013E+03  0.00000000000E+00 0. -1.
         21   -1    0    0  501  502  0.00000000000E+00 -0.00000000000E+00 -0.64356782210E+02  0.64356782210E+02  0.00000000000E+00 0.  1.
         23    2    1    2    0    0 -0.79685911302E+02  0.90827142880E+02  0.34701140118E+03  0.37866587611E+03  0.91496004483E+02 0.  0.
         23    2    1    2    0    0  0.54215880465E+02 -0.46445837843E+02  0.13734446275E+03  0.17941163619E+03  0.90710838405E+02 0.  0.
        -11    1    4    4    0    0  0.60537970126E+02  0.68974588846E+01  0.83376311762E+02  0.10326679103E+03  0.00000000000E+00 0.  1.
         11    1    4    4    0    0 -0.63220896610E+01 -0.53343296728E+02  0.53968150985E+02  0.76144845158E+02  0.00000000000E+00 0. -1.
        -13    1    3    3    0    0 -0.32441161645E+02  0.37165672257E+02  0.26634778999E+03  0.27087794557E+03  0.00000000000E+00 0. -1.
         13    1    3    3    0    0 -0.47244749658E+02  0.53661470623E+02  0.80663611186E+02  0.10778793054E+03  0.00000000000E+00 0.  1.
          1    1    1    2  501    0  0.25470030837E+02 -0.44381305037E+02 -0.36886160053E+01  0.51303300046E+02  0.00000000000E+00 0. -1.
<scales pt_clust_5="13000.00000" pt_clust_6="13000.00000" pt_clust_7="13000.00000" pt_clust_8="13000.00000" pt_clust_9="51.17053"></scales>
<clustering>
<clus scale="   51.171">  2  9  1 -1</clus>
<clus scale="   90.711">  5  6 -1 -1</clus>
<clus scale="   91.496">  7  8 -1 -1</clus>
<clus scale="  134.559">  2  5  1 -1</clus>
<clus scale="   51.171">  2  5  1 -1</clus>
</clustering>
</event>
<event>
 9    1  0.1610296E-005  0.1078063E+03  0.7546771E-02  0.1265488E+00
          3   -1    0    0  502    0 -0.00000000000E+00  0.00000000000E+00  0.30263122371E+03  0.30263122371E+03  0.00000000000E+00 0. -1.
         21   -1    0    0  501  502  0.00000000000E+00 -0.00000000000E+00 -0.57136510821E+02  0.57136510821E+02  0.00000000000E+00 0.  1.
         23    2    1    2    0    0 -0.27143140518E+02  0.43879682240E+02  0.13671651201E+03  0.17238427844E+03  0.91448117554E+02 0.  0.
         23    2    1    2    0    0  0.21121533976E+01 -0.70177773584E+02  0.96199441566E+02  0.14895995924E+03  0.89472653935E+02 0.  0.
        -11    1    3    3    0    0  0.97856816779E+01  0.19480831365E+02 -0.62860331478E+01  0.22688688136E+02  0.00000000000E+00 0.  1.
         11    1    3    3    0    0 -0.36928822196E+02  0.24398850875E+02  0.14300254516E+03  0.14969559030E+03  0.00000000000E+00 0. -1.
        -13    1    4    4    0    0  0.28806418930E+02 -0.59162249776E+02  0.10012938454E+03  0.11981600569E+03  0.00000000000E+00 0.  1.
         13    1    4    4    0    0 -0.26694265532E+02 -0.11015523808E+02 -0.39299429732E+01  0.29143953556E+02  0.00000000000E+00 0. -1.
          3    1    1    2  501    0  0.25030987120E+02  0.26298091344E+02  0.12578759306E+02  0.38423496850E+02  0.00000000000E+00 0. -1.
<scales pt_clust_5="13000.00000" pt_clust_6="13000.00000" pt_clust_7="13000.00000" pt_clust_8="13000.00000" pt_clust_9="36.30620"></scales>
<clustering>
<clus scale="   36.306">  2  9  1 -1</clus>
<clus scale="   89.473">  7  8 -1 -1</clus>
<clus scale="   91.448">  5  6 -1 -1</clus>
<clus scale="  106.136">  2  7  1 -1</clus>
<clus scale="   36.306">  2  5  1 -1</clus>
</clustering>
</event>
<event>
 9    1  0.1610296E-005  0.1081155E+03  0.7546771E-02  0.1264405E+00
         -2   -1    0    0    0  501 -0.00000000000E+00  0.00000000000E+00  0.84330710952E+02  0.84330710952E+02  0.00000000000E+00 0.  1.
         21   -1    0    0  501  502  0.00000000000E+00 -0.00000000000E+00 -0.19548394742E+03  0.19548394742E+03  0.00000000000E+00 0.  1.
         23    2    1    2    0    0 -0.11498411945E+01  0.64978667768E+02 -0.52253485980E+01  0.11146853537E+03  0.90412281852E+02 0.  0.
         23    2    1    2    0    0  0.14757849580E+02 -0.45984375028E+02 -0.67245309220E+02  0.12315427706E+03  0.91173940763E+02 0.  0.
        -11    1    4    4    0    0  0.47838785267E+02 -0.26438287026E+02 -0.64626654686E+02  0.84641224546E+02  0.00000000000E+00 0.  1.
         11    1    4    4    0    0 -0.33080935687E+02 -0.19546088002E+02 -0.26186545333E+01  0.38513052510E+02  0.00000000000E+00 0. -1.
        -13    1    3    3    0    0  0.26061140623E+02  0.66286475230E+02 -0.27428324249E+02  0.76324261019E+02  0.00000000000E+00 0.  1.
         13    1    3    3    0    0 -0.27210981817E+02 -0.13078074622E+01  0.22202975651E+02  0.35144274350E+02  0.00000000000E+00 0. -1.
         -2    1    1    2    0  502 -0.13608008385E+02 -0.18994292739E+02 -0.38682578649E+02  0.45191845944E+02  0.00000000000E+00 0.  1.
<scales pt_clust_5="13000.00000" pt_clust_6="13000.00000" pt_clust_7="13000.00000" pt_clust_8="13000.00000" pt_clust_9="23.36581"></scales>
<clustering>
<clus scale="   23.366">  2  9  1 -1</clus>
<clus scale="   90.412">  7  8 -1 -1</clus>
<clus scale="   91.174">  5  6 -1 -1</clus>
<clus scale="  107.474">  1  7  2 -1</clus>
<clus scale="   23.366">  2  5  1 -1</clus>
</clustering>
</event>
<event>
 9    1  0.1610296E-005  0.1898929E+03  0.7546771E-02  0.1158851E+00
         21   -1    0    0  501  502  0.00000000000E+00  0.00000000000E+00  0.14497935180E+03  0.14497935180E+03  0.00000000000E+00 0. -1.
          1   -1    0    0  502    0 -0.00000000000E+00 -0.00000000000E+00 -0.37561980065E+03  0.37561980065E+03  0.00000000000E+00 0. -1.
         23    2    1    2    0    0 -0.63577556481E+01  0.16100008385E+03 -0.22128793351E+03  0.28864428665E+03  0.91573613240E+02 0.  0.
         23    2    1    2    0    0  0.91443779334E+01 -0.18262210650E+03  0.89385566573E+01  0.20349717015E+03  0.88863642928E+02 0.  0.
        -11    1    3    3    0    0 -0.37108110528E+02  0.14071071639E+03 -0.19532496628E+03  0.24357413661E+03  0.00000000000E+00 0. -1.
         11    1    3    3    0    0  0.30750354880E+02  0.20289367460E+02 -0.25962967237E+02  0.45070150043E+02  0.00000000000E+00 0.  1.
        -11    1    4    4    0    0  0.30484697708E+02 -0.12752469927E+03  0.39549596530E+02  0.13695267906E+03  0.00000000000E+00 0. -1.
         11    1    4    4    0    0 -0.21340319775E+02 -0.55097407230E+02 -0.30611039872E+02  0.66544491084E+02  0.00000000000E+00 0.  1.
          1    1    1    2  501    0 -0.27866222853E+01  0.21622022647E+02 -0.18291071996E+02  0.28457695653E+02  0.00000000000E+00 0. -1.
<scales pt_clust_5="13000.00000" pt_clust_6="13000.00000" pt_clust_7="13000.00000" pt_clust_8="13000.00000" pt_clust_9="21.80086"></scales>
<clustering>
<clus scale="   21.801">  1  9  2 -1</clus>
<clus scale="   88.864">  7  8 -1 -1</clus>
<clus scale="   91.574">  5  6 -1 -1</clus>
<clus scale="  188.601">  1  7  2 -1</clus>
<clus scale="   21.801">  1  5  2 -1</clus>
</clustering>
</event>
<event>
 9    1  0.1982526E-005  0.9996226E+02  0.7546771E-02  0.1280786E+00
          2   -1    0    0  502    0 -0.00000000000E+00  0.00000000000E+00  0.27185217054E+03  0.27185217054E+03  0.00000000000E+00 0. -1.
         21   -1    0    0  501  502  0.00000000000E+00 -0.00000000000E+00 -0.12675347687E+03  0.12675347687E+03  0.00000000000E+00 0.  1.
         23    2    1    2    0    0 -0.29704227620E+02 -0.94909617702E+01  0.18884834384E+03  0.21276488803E+03  0.92912760777E+02 0.  0.
         23    2    1    2    0    0  0.82301288853E+02 -0.74374515865E+01 -0.41663927342E+02  0.13054724919E+03  0.92075423406E+02 0.  0.
        -11    1    3    3    0    0 -0.36616412264E+01 -0.49689731310E+02  0.10437103222E+03  0.11565374780E+03  0.00000000000E+00 0.  1.
         11    1    3    3    0    0 -0.26042586394E+02  0.40198769539E+02  0.84477311621E+02  0.97111140233E+02  0.00000000000E+00 0. -1.
        -13    1    4    4    0    0  0.60149630220E+02  0.22339041907E+01 -0.70644749341E+02  0.92809746002E+02  0.00000000000E+00 0.  1.
         13    1    4    4    0    0  0.22151658633E+02 -0.96713557773E+01  0.28980821999E+02  0.37737503183E+02  0.00000000000E+00 0. -1.
          2    1    1    2  501    0 -0.52597061232E+02  0.16928413357E+02 -0.20857228230E+01  0.55293510186E+02  0.00000000000E+00 0. -1.
<scales pt_clust_5="13000.00000" pt_clust_6="13000.00000" pt_clust_7="13000.00000" pt_clust_8="13000.00000" pt_clust_9="55.25416"></scales>
<clustering>
<clus scale="   55.254">  2  9  1 -1</clus>
<clus scale="   92.075">  7  8 -1 -1</clus>
<clus scale="   92.913">  5  6 -1 -1</clus>
<clus scale="   99.184">  2  7  1 -1</clus>
<clus scale="   55.254">  2  5  1 -1</clus>
</clustering>
</event>
<event>
 9    1  0.1610296E-005  0.1090501E+03  0.7546771E-02  0.1262650E+00
         21   -1    0    0  501  502  0.00000000000E+00  0.00000000000E+00  0.42163130656E+02  0.42163130656E+02  0.00000000000E+00 0. -1.
         -3   -1    0    0    0  501 -0.00000000000E+00 -0.00000000000E+00 -0.40307104524E+03  0.40307104524E+03  0.00000000000E+00 0.  1.
         23    2    1    2    0    0 -0.39873994525E+02 -0.22486623019E+02 -0.16004156802E+03  0.19049522657E+03  0.92625829004E+02 0.  0.
         23    2    1    2    0    0  0.67361300118E+02  0.20837622961E+02 -0.19468529927E+03  0.22651703380E+03  0.91846881090E+02 0.  0.
        -11    1    4    4    0    0 -0.20388659182E+02  0.11572097115E+02 -0.69590938382E+02  0.73433708607E+02  0.00000000000E+00 0.  1.
         11    1    4    4    0    0  0.87749959301E+02  0.92655258456E+01 -0.12509436089E+03  0.15308332519E+03  0.00000000000E+00 0. -1.
        -13    1    3    3    0    0  0.43498840123E+01  0.30454497552E+02 -0.28368648907E+02  0.41847080577E+02  0.00000000000E+00 0. -1.
         13    1    3    3    0    0 -0.44223878537E+02 -0.52941120571E+02 -0.13167291911E+03  0.14864814600E+03  0.00000000000E+00 0.  1.
         -3    1    1    2    0  502 -0.27487305593E+02  0.16490000585E+01 -0.61810472913E+01  0.28221915519E+02  0.00000000000E+00 0.  1.
<scales pt_clust_5="13000.00000" pt_clust_6="13000.00000" pt_clust_7="13000.00000" pt_clust_8="13000.00000" pt_clust_9="27.53672"></scales>
<clustering>
<clus scale="   27.537">  1  9  2 -1</clus>
<clus scale="   91.847">  5  6 -1 -1</clus>
<clus scale="   92.626">  7  8 -1 -1</clus>
<clus scale="  108.389">  1  5  2 -1</clus>
<clus scale="   27.537">  1  5  2 -1</clus>
</clustering>
</event>
<event>
 9    1  0.1610296E-005  0.1350831E+03  0.7546771E-02  0.1221490E+00
         21   -1    0    0  501  502  0.00000000000E+00  0.00000000000E+00  0.15878340080E+03  0.15878340080E+03  0.00000000000E+00 0. -1.
          3   -1    0    0  502    0 -0.00000000000E+00 -0.00000000000E+00 -0.60246207190E+03  0.60246207190E+03  0.00000000000E+00 0. -1.
         23    2    1    2    0    0  0.72816230472E+02  0.74487958066E+02 -0.49251591811E+03  0.51249828952E+03  0.96082817671E+02 0.  0.
         23    2    1    2    0    0 -0.50040774790E+02 -0.42129243771E+02 -0.64296002169E+02  0.12889335620E+03  0.90556993409E+02 0.  0.
        -11    1    3    3    0    0  0.24634026183E+02 -0.18760215150E+02 -0.61103966978E+02  0.68501647418E+02  0.00000000000E+00 0.  1.
         11    1    3    3    0    0  0.48182204289E+02  0.93248173216E+02 -0.43141195113E+03  0.44399664210E+03  0.00000000000E+00 0. -1.
        -13    1    4    4    0    0 -0.10273002541E+02  0.28696644993E+02 -0.17000771614E+02  0.34900691262E+02  0.00000000000E+00 0. -1.
         13    1    4    4    0    0 -0.39767772249E+02 -0.70825888765E+02 -0.47295230554E+02  0.93992664938E+02  0.00000000000E+00 0.  1.
          3    1    1    2  501    0 -0.22775455682E+02 -0.32358714294E+02  0.11313324918E+03  0.11985382698E+03  0.00000000000E+00 0. -1.
<scales pt_clust_5="13000.00000" pt_clust_6="13000.00000" pt_clust_7="13000.00000" pt_clust_8="13000.00000" pt_clust_9="39.57029"></scales>
<clustering>
<clus scale="   39.570">  1  9  2 -1</clus>
<clus scale="   90.557">  7  8 -1 -1</clus>
<clus scale="   96.083">  5  6 -1 -1</clus>
<clus scale="  131.210">  1  7  2 -1</clus>
<clus scale="   39.570">  1  5  2 -1</clus>
</clustering>
</event>
<event>
 9    1  0.1610296E-005  0.1156846E+03  0.7546771E-02  0.1251222E+00
          2   -1    0    0  502    0 -0.00000000000E+00  0.00000000000E+00  0.72204353371E+03  0.72204353371E+03  0.00000000000E+00 0. -1.
         21   -1    0    0  501  502  0.00000000000E+00 -0.00000000000E+00 -0.38012498478E+02  0.38012498478E+02  0.00000000000E+00 0. -1.
         23    2    1    2    0    0 -0.42479759293E+02 -0.55219339665E+02  0.49520916442E+03  0.50848673427E+03  0.92048557720E+02 0.  0.
         23    2    1    2    0    0  0.59592134260E+01  0.81361359735E+02  0.14181909500E+03  0.18655840331E+03  0.89644849586E+02 0.  0.
        -11    1    3    3    0    0  0.22836671819E+02 -0.38866907326E+02  0.14435074473E+03  0.15122594873E+03  0.00000000000E+00 0.  1.
         11    1    3    3    0    0 -0.65316431112E+02 -0.16352432339E+02  0.35085841969E+03  0.35726078554E+03  0.00000000000E+00 0. -1.
        -11    1    4    4    0    0  0.20914094905E+02  0.20839210817E+02  0.11493479168E+03  0.11866624799E+03  0.00000000000E+00 0.  1.
         11    1    4    4    0    0 -0.14954881479E+02  0.60522148918E+02  0.26884303324E+02  0.67892155327E+02  0.00000000000E+00 0. -1.
          2    1    1    2  501    0  0.36520545867E+02 -0.26142020070E+02  0.47002775813E+02  0.65010894610E+02  0.00000000000E+00 0. -1.
<scales pt_clust_5="13000.00000" pt_clust_6="13000.00000" pt_clust_7="13000.00000" pt_clust_8="13000.00000" pt_clust_9="44.91275"></scales>
<clustering>
<clus scale="   44.913">  2  9  1 -1</clus>
<clus scale="   89.645">  7  8 -1 -1</clus>
<clus scale="   92.049">  5  6 -1 -1</clus>
<clus scale="  113.781">  2  7  1 -1</clus>
<clus scale="   44.913">  2  5  1 -1</clus>
</clustering>
</event>
<event>
 9    1  0.1610296E-005  0.9989165E+02  0.7546771E-02  0.1281064E+00
          1   -1    0    0  502    0 -0.00000000000E+00  0.00000000000E+00  0.28165076382E+03  0.28165076382E+03  0.00000000000E+00 0. -1.
         21   -1    0    0  501  502  0.00000000000E+00 -0.00000000000E+00 -0.60635097239E+02  0.60635097239E+02  0.00000000000E+00 0. -1.
         23    2    1    2    0    0 -0.42777668631E+02  0.12164532560E+02  0.17354500620E+03  0.20088306296E+03  0.90874809613E+02 0.  0.
         23    2    1    2    0    0  0.28115895866E+02  0.19156625117E+02  0.29418572785E+02  0.10239176933E+03  0.91984466707E+02 0.  0.
        -11    1    3    3    0    0  0.94860595570E+00 -0.34931071505E+02  0.43259848006E+02  0.55610197440E+02  0.00000000000E+00 0.  1.
         11    1    3    3    0    0 -0.43726274587E+02  0.47095604066E+02  0.13028515819E+03  0.14527286552E+03  0.00000000000E+00 0. -1.
        -11    1    4    4    0    0  0.35371350918E+02 -0.30813673428E+02  0.82073268547E+01  0.47623262698E+02  0.00000000000E+00 0.  1.
         11    1    4    4    0    0 -0.72554550519E+01  0.49970298545E+02  0.21211245930E+02  0.54768506631E+02  0.00000000000E+00 0. -1.
          1    1    1    2  501    0  0.14661772765E+02 -0.31321157677E+02  0.18052087596E+02  0.39011028767E+02  0.00000000000E+00 0. -1.
<scales pt_clust_5="13000.00000" pt_clust_6="13000.00000" pt_clust_7="13000.00000" pt_clust_8="13000.00000" pt_clust_9="34.58298"></scales>
<clustering>
<clus scale="   34.583">  2  9  1 -1</clus>
<clus scale="   90.875">  5  6 -1 -1</clus>
<clus scale="   91.984">  7  8 -1 -1</clus>
<clus scale="   98.871">  1  5  2 -1</clus>
<clus scale="   34.583">  2  5  1 -1</clus>
</clustering>
</event>
<event>
 9    1  0.1610296E-005  0.1436413E+03  0.7546771E-02  0.1211585E+00
         21   -1    0    0  501  502  0.00000000000E+00  0.00000000000E+00  0.56478449585E+03  0.56478449585E+03  0.00000000000E+00 0.  1.
          1   -1    0    0  502    0 -0.00000000000E+00 -0.00000000000E+00 -0.46808603318E+02  0.46808603318E+02  0.00000000000E+00 0. -1.
         23    2    1    2    0    0 -0.53100534368E+02  0.92015614703E+02  0.20426332424E+03  0.24711388172E+03  0.89750904231E+02 0.  0.
         23    2    1    2    0    0  0.87801591829E+02 -0.85491788686E+02  0.28488607299E+03  0.31889752676E+03  0.74280498964E+02 0.  0.
        -11    1    3    3    0    0 -0.68620714958E+02  0.73031701154E+02  0.10613967486E+03  0.14597281416E+03  0.00000000000E+00 0.  1.
         11    1    3    3    0    0  0.15520180590E+02  0.18983913549E+02  0.98123649386E+02  0.10114106756E+03  0.00000000000E+00 0. -1.
        -13    1    4    4    0    0  0.34396495115E+02 -0.72846692132E+02  0.11532272423E+03  0.14067370100E+03  0.00000000000E+00 0. -1.
         13    1    4    4    0    0  0.53405096714E+02 -0.12645096554E+02  0.16956334877E+03  0.17822382575E+03  0.00000000000E+00 0.  1.
          1    1    1    2  501    0 -0.34701057461E+02 -0.65238260175E+01  0.28826495298E+02  0.45581690688E+02  0.00000000000E+00 0. -1.
<scales pt_clust_5="13000.00000" pt_clust_6="13000.00000" pt_clust_7="13000.00000" pt_clust_8="13000.00000" pt_clust_9="35.30899"></scales>
<clustering>
<clus scale="   35.309">  1  9  2 -1</clus>
<clus scale="   74.280">  7  8 -1 -1</clus>
<clus scale="   89.751">  5  6 -1 -1</clus>
<clus scale="  134.518">  1  7  2 -1</clus>
<clus scale="   35.309">  1  5  2 -1</clus>
</clustering>
</event>
<event>
 9    1  0.1610296E-005  0.1039515E+03  0.7546771E-02  0.1272735E+00
          1   -1    0    0  502    0 -0.00000000000E+00  0.00000000000E+00  0.15911743968E+03  0.15911743968E+03  0.00000000000E+00 0. -1.
         21   -1    0    0  501  502  0.00000000000E+00 -0.00000000000E+00 -0.28321965106E+03  0.28321965106E+03  0.00000000000E+00 0. -1.
         23    2    1    2    0    0 -0.41631389095E+02  0.15077545905E+02  0.10804460811E+03  0.14882675845E+03  0.92278175868E+02 0.  0.
         23    2    1    2    0    0  0.53227539329E+02 -0.57306930776E+02 -0.10660747216E+03  0.16055199530E+03  0.91074336757E+02 0.  0.
        -11    1    4    4    0    0  0.64873227840E+02 -0.15026223413E+02 -0.93482252144E+02  0.11477479927E+03  0.00000000000E+00 0.  1.
         11    1    4    4    0    0 -0.11645688512E+02 -0.42280707363E+02 -0.13125220013E+02  0.45777196030E+02  0.00000000000E+00 0. -1.
        -13    1    3    3    0    0 -0.19813155261E+01  0.21085612672E+02 -0.10531712838E+02  0.23652603414E+02  0.00000000000E+00 0.  1.
         13    1    3    3    0    0 -0.39650073569E+02 -0.60080667672E+01  0.11857632094E+03  0.12517415504E+03  0.00000000000E+00 0. -1.
          1    1    1    2  501    0 -0.11596150233E+02  0.42229384871E+02 -0.12553934733E+03  0.13295833699E+03  0.00000000000E+00 0. -1.
<scales pt_clust_5="13000.00000" pt_clust_6="13000.00000" pt_clust_7="13000.00000" pt_clust_8="13000.00000" pt_clust_9="43.79260"></scales>
<clustering>
<clus scale="   43.793">  2  9  1 -1</clus>
<clus scale="   91.074">  5  6 -1 -1</clus>
<clus scale="   92.278">  7  8 -1 -1</clus>
<clus scale="  102.884">  2  5  1 -1</clus>
<clus scale="   43.793">  2  5  1 -1</clus>
</clustering>
</event>
<event>
 9    1  0.1610296E-005  0.1155298E+03  0.7546771E-02  0.1251476E+00
         -4   -1    0    0    0  501 -0.00000000000E+00  0.00000000000E+00  0.61975804554E+02  0.61975804554E+02  0.00000000000E+00 0. -1.
         21   -1    0    0  501  502  0.00000000000E+00 -0.00000000000E+00 -0.34313368846E+03  0.34313368846E+03  0.00000000000E+00 0. -1.
         23    2    1    2    0    0 -0.43570985306E+02  0.56100774688E+02 -0.58510855947E+02  0.13116739780E+03  0.93464636632E+02 0.  0.
         23    2    1    2    0    0  0.54017258832E+02 -0.37124283355E+02 -0.10302350598E+03  0.15237310712E+03  0.91146279817E+02 0.  0.
        -13    1    4    4    0    0  0.70739928963E+02 -0.23870751104E+02 -0.37669267424E+02  0.83623704870E+02  0.00000000000E+00 0. -1.
         13    1    4    4    0    0 -0.16722670131E+02 -0.13253532251E+02 -0.65354238552E+02  0.68749402253E+02  0.00000000000E+00 0.  1.
        -13    1    3    3    0    0 -0.23302425440E+02  0.71712000237E+02 -0.96554017255E+01  0.76018687123E+02  0.00000000000E+00 0.  1.
         13    1    3    3    0    0 -0.20268559865E+02 -0.15611225549E+02 -0.48855454221E+02  0.55148710677E+02  0.00000000000E+00 0. -1.
         -4    1    1    2    0  502 -0.10446273527E+02 -0.18976491333E+02 -0.11962352199E+03  0.12156898809E+03  0.00000000000E+00 0. -1.
<scales pt_clust_5="13000.00000" pt_clust_6="13000.00000" pt_clust_7="13000.00000" pt_clust_8="13000.00000" pt_clust_9="21.66176"></scales>
<clustering>
<clus scale="   21.662">  2  9  1 -1</clus>
<clus scale="   91.146">  5  6 -1 -1</clus>
<clus scale="   93.465">  7  8 -1 -1</clus>
<clus scale="  113.662">  2  5  1 -1</clus>
<clus scale="   21.662">  2  5  1 -1</clus>
</clustering>
</event>
<event>
 9    1  0.1610296E-005  0.1581098E+03  0.7546771E-02  0.1191923E+00
         21   -1    0    0  501  502  0.00000000000E+00  0.00000000000E+00  0.22925263922E+03  0.22925263922E+03  0.00000000000E+00 0. -1.
          2   -1    0    0  502    0 -0.00000000000E+00 -0.00000000000E+00 -0.29206190865E+03  0.29206190865E+03  0.00000000000E+00 0. -1.
         23    2    1    2    0    0  0.13409908143E+03 -0.57967831865E+02 -0.14424009203E+03  0.22375929049E+03  0.88995408636E+02 0.  0.
         23    2    1    2    0    0 -0.91223619779E+02  0.47462522910E+02 -0.57695402697E+02  0.15159371007E+03  0.95275671370E+02 0.  0.
        -11    1    3    3    0    0  0.27319469803E+02  0.17859442568E+02 -0.57316076970E+01  0.33138564331E+02  0.00000000000E+00 0.  1.
         11    1    3    3    0    0  0.10677961163E+03 -0.75827274433E+02 -0.13850848434E+03  0.19062072615E+03  0.00000000000E+00 0. -1.
        -13    1    4    4    0    0 -0.96309451215E+02  0.88644766829E+01 -0.57780836174E+02  0.11266194730E+03  0.00000000000E+00 0.  1.
         13    1    4    4    0    0  0.50858314357E+01  0.38598046227E+02  0.85433476360E-01  0.38931762776E+02  0.00000000000E+00 0. -1.
          2    1    1    2  501    0 -0.42875461649E+02  0.10505308955E+02  0.13912622530E+03  0.14596154731E+03  0.00000000000E+00 0. -1.
<scales pt_clust_5="13000.00000" pt_clust_6="13000.00000" pt_clust_7="13000.00000" pt_clust_8="13000.00000" pt_clust_9="44.14371"></scales>
<clustering>
<clus scale="   44.144">  1  9  2 -1</clus>
<clus scale="   88.995">  5  6 -1 -1</clus>
<clus scale="   95.276">  7  8 -1 -1</clus>
<clus scale="  154.407">  2  5  1 -1</clus>
<clus scale="   44.144">  1  5  2 -1</clus>
</clustering>
</event>
<event>
 9    1  0.1610296E-005  0.1509250E+03  0.7546771E-02  0.1216888E+00
         21   -1    0    0  501  502  0.00000000000E+00  0.00000000000E+00  0.34740252645E+03  0.34740252645E+03  0.00000000000E+00 0. -1.
          4   -1    0    0  502    0 -0.00000000000E+00 -0.00000000000E+00 -0.14628043051E+03  0.14628043051E+03  0.00000000000E+00 0. -1.
         23    2    1    2    0    0  0.45641562284E+02  0.20190087356E+02 -0.41322065477E+02  0.11157013225E+03  0.90827250756E+02 0.  0.
         23    2    1    2    0    0 -0.27501127378E+02  0.11231565308E+03  0.18521167871E+03  0.23663979042E+03  0.91235445679E+02 0.  0.
        -11    1    4    4    0    0 -0.39702280325E+02  0.76445227459E+01  0.37160856601E+02  0.54914834556E+02  0.00000000000E+00 0.  1.
         11    1    4    4    0    0  0.12201152946E+02  0.10467113034E+03  0.14805082211E+03  0.18172495587E+03  0.00000000000E+00 0. -1.
        -11    1    3    3    0    0  0.40281646779E+02  0.44829053435E+02  0.32546024076E+01  0.60356006627E+02  0.00000000000E+00 0. -1.
         11    1    3    3    0    0  0.53599155054E+01 -0.24638966080E+02 -0.44576667885E+02  0.51214125624E+02  0.00000000000E+00 0.  1.
          4    1    1    2  501    0 -0.18140434906E+02 -0.13250574044E+03  0.57232482704E+02  0.14547303428E+03  0.00000000000E+00 0. -1.
<scales pt_clust_5="13000.00000" pt_clust_6="13000.00000" pt_clust_7="13000.00000" pt_clust_8="13000.00000" pt_clust_9="120.22667"></scales>
<clustering>
<clus scale="   90.827">  7  8 -1 -1</clus>
<clus scale="   91.235">  5  6 -1 -1</clus>
<clus scale="  103.636">  2  7  1 -1</clus>
<clus scale="  120.227">  1  9  2 -1</clus>
<clus scale="  120.227">  1  5  2 -1</clus>
</clustering>
</event>
<event>
 9    1  0.1610296E-005  0.1476492E+03  0.7546771E-02  0.1220144E+00
         21   -1    0    0  501  502  0.00000000000E+00  0.00000000000E+00  0.10807840104E+04  0.10807840104E+04  0.00000000000E+00 0. -1.
          3   -1    0    0  502    0 -0.00000000000E+00 -0.00000000000E+00 -0.76383565381E+02  0.76383565381E+02  0.00000000000E+00 0. -1.
         23    2    1    2    0    0  0.77445905949E+01  0.47921467394E+02 -0.20446618054E+01  0.10337484783E+03  0.91245453597E+02 0.  0.
         23    2    1    2    0    0 -0.20100200435E+02  0.67600856454E+02  0.17192740427E+03  0.21122649062E+03  0.10041764860E+03 0.  0.
        -11    1    4    4    0    0 -0.54791512054E+02  0.67650753888E+02  0.11042257969E+03  0.14061251865E+03  0.00000000000E+00 0. -1.
         11    1    4    4    0    0  0.34691311618E+02 -0.49897433687E-01  0.61504824579E+02  0.70613971975E+02  0.00000000000E+00 0.  1.
        -13    1    3    3    0    0 -0.39481613370E+02  0.18758180872E+02  0.13474757602E+02  0.45740968905E+02  0.00000000000E+00 0.  1.
         13    1    3    3    0    0  0.47226203965E+02  0.29163286522E+02 -0.15519419407E+02  0.57633878929E+02  0.00000000000E+00 0. -1.
          3    1    1    2  501    0  0.12355609841E+02 -0.11552232385E+03  0.83451770255E+03  0.84256623732E+03  0.00000000000E+00 0. -1.
<scales pt_clust_5="13000.00000" pt_clust_6="13000.00000" pt_clust_7="13000.00000" pt_clust_8="13000.00000" pt_clust_9="108.24317"></scales>
<clustering>
<clus scale="   91.245">  7  8 -1 -1</clus>
<clus scale="  100.418">  5  6 -1 -1</clus>
<clus scale="  103.355">  2  7  1 -1</clus>
<clus scale="  108.243">  1  9  2 -1</clus>
<clus scale="  108.243">  1  5  2 -1</clus>
</clustering>
</event>
<event>
 9    1  0.1610296E-005  0.9377851E+02  0.7546771E-02  0.1294873E+00
         -3   -1    0    0    0  501 -0.00000000000E+00  0.00000000000E+00  0.47171403241E+02  0.47171403241E+02  0.00000000000E+00 0.  1.
         21   -1    0    0  501  502  0.00000000000E+00 -0.00000000000E+00 -0.62677375812E+03  0.62677375812E+03  0.00000000000E+00 0. -1.
         23    2    1    2    0    0 -0.63715164206E+01 -0.95459580690E+01 -0.19555881548E+02  0.95701551798E+02  0.92976518414E+02 0.  0.
         23    2    1    2    0    0 -0.23752599674E+02  0.25602262375E+02 -0.29008235004E+03  0.30612985551E+03  0.91367701091E+02 0.  0.
        -11    1    4    4    0    0 -0.48960549954E+02 -0.13513704666E+02 -0.16658485917E+03  0.17415588124E+03  0.00000000000E+00 0.  1.
         11    1    4    4    0    0  0.25207950280E+02  0.39115967040E+02 -0.12349749087E+03  0.13197397428E+03  0.00000000000E+00 0. -1.
        -13    1    3    3    0    0 -0.36072013798E+02  0.28021084291E+02 -0.11926167682E+02  0.47208101210E+02  0.00000000000E+00 0. -1.
         13    1    3    3    0    0  0.29700497378E+02 -0.37567042360E+02 -0.76297138667E+01  0.48493450587E+02  0.00000000000E+00 0.  1.
         -3    1    1    2    0  502  0.30124116095E+02 -0.16056304306E+02 -0.26996412330E+03  0.27211375406E+03  0.00000000000E+00 0.  1.
<scales pt_clust_5="13000.00000" pt_clust_6="13000.00000" pt_clust_7="13000.00000" pt_clust_8="13000.00000" pt_clust_9="34.13601"></scales>
<clustering>
<clus scale="   34.136">  2  9  1 -1</clus>
<clus scale="   91.368">  5  6 -1 -1</clus>
<clus scale="   92.184">  2  5  1 -1</clus>
<clus scale="   92.977">  7  8 -1 -1</clus>
<clus scale="   34.136">  2  5  1 -1</clus>
</clustering>
</event>
<event>
 9    1  0.1610296E-005  0.1001632E+03  0.7546771E-02  0.1281376E+00
         21   -1    0    0  501  502  0.00000000000E+00  0.00000000000E+00  0.27813534726E+03  0.27813534726E+03  0.00000000000E+00 0.  1.
          3   -1    0    0  502    0 -0.00000000000E+00 -0.00000000000E+00 -0.18338576669E+03  0.18338576669E+03  0.00000000000E+00 0. -1.
         23    2    1    2    0    0 -0.37011974921E+02 -0.10435575688E+01 -0.14962621380E+03  0.18007713626E+03  0.93106368465E+02 0.  0.
         23    2    1    2    0    0  0.35826798687E+02 -0.25853204051E+02  0.13195701784E+03  0.16584630580E+03  0.90224137169E+02 0.  0.
        -11    1    3    3    0    0 -0.19254129319E+02  0.45991443501E+02 -0.71286102457E+02  0.86992199505E+02  0.00000000000E+00 0. -1.
         11    1    3    3    0    0 -0.17757845603E+02 -0.47035001070E+02 -0.78340111342E+02  0.93084936758E+02  0.00000000000E+00 0.  1.
        -11    1    4    4    0    0  0.14337795113E+02 -0.58574732003E+02  0.91198827174E+02  0.10933342433E+03  0.00000000000E+00 0.  1.
         11    1    4    4    0    0  0.21489003573E+02  0.32721527952E+02  0.40758190667E+02  0.56512881474E+02  0.00000000000E+00 0. -1.
          3    1    1    2  501    0  0.11851762348E+01  0.26896761619E+02  0.11241877653E+03  0.11559767188E+03  0.00000000000E+00 0. -1.
<scales pt_clust_5="13000.00000" pt_clust_6="13000.00000" pt_clust_7="13000.00000" pt_clust_8="13000.00000" pt_clust_9="26.92286"></scales>
<clustering>
<clus scale="   26.923">  1  9  2 -1</clus>
<clus scale="   90.224">  7  8 -1 -1</clus>
<clus scale="   93.106">  5  6 -1 -1</clus>
<clus scale="   97.490">  1  7  2 -1</clus>
<clus scale="   26.923">  1  5  2 -1</clus>
</clustering>
</event>
<event>
 9    1  0.1610296E-005  0.9355311E+02  0.7546771E-02  0.1294534E+00
         21   -1    0    0  501  502  0.00000000000E+00  0.00000000000E+00  0.97717989978E+02  0.97717989978E+02  0.00000000000E+00 0. -1.
          1   -1    0    0  502    0 -0.00000000000E+00 -0.00000000000E+00 -0.58087420902E+03  0.58087420902E+03  0.00000000000E+00 0. -1.
         23    2    1    2    0    0  0.17479000669E+02  0.11043509851E+02 -0.38011854616E+03  0.39159288866E+03  0.91800908143E+02 0.  0.
         23    2    1    2    0    0  0.13189129703E+01 -0.20267979874E+02 -0.18227434373E+03  0.20504259974E+03  0.91684245014E+02 0.  0.
        -11    1    3    3    0    0  0.36335239817E+02 -0.31163442969E+02 -0.19152969669E+03  0.19742095771E+03  0.00000000000E+00 0.  1.
         11    1    3    3    0    0 -0.18856239148E+02  0.42206952819E+02 -0.18858884947E+03  0.19417193094E+03  0.00000000000E+00 0. -1.
        -13    1    4    4    0    0  0.42968944791E+02 -0.28239788734E+02 -0.95588262290E+02  0.10854000079E+03  0.00000000000E+00 0.  1.
         13    1    4    4    0    0 -0.41650031821E+02  0.79718088601E+01 -0.86686081444E+02  0.96502598946E+02  0.00000000000E+00 0. -1.
          1    1    1    2  501    0 -0.18797913640E+02  0.92244700233E+01  0.79236670856E+02  0.81956710602E+02  0.00000000000E+00 0. -1.
<scales pt_clust_5="13000.00000" pt_clust_6="13000.00000" pt_clust_7="13000.00000" pt_clust_8="13000.00000" pt_clust_9="20.93926"></scales>
<clustering>
<clus scale="   20.939">  1  9  2 -1</clus>
<clus scale="   91.684">  7  8 -1 -1</clus>
<clus scale="   91.801">  5  6 -1 -1</clus>
<clus scale="   93.439">  1  7  2 -1</clus>
<clus scale="   20.939">  1  5  2 -1</clus>
</clustering>
</event>
<event>
 9    1  0.1610296E-005  0.1005828E+03  0.7546771E-02  0.1279422E+00
          3   -1    0    0  502    0 -0.00000000000E+00  0.00000000000E+00  0.33243887660E+03  0.33243887660E+03  0.00000000000E+00 0. -1.
         21   -1    0    0  501  502  0.00000000000E+00 -0.00000000000E+00 -0.44480847283E+02  0.44480847283E+02  0.00000000000E+00 0.  1.
         23    2    1    2    0    0 -0.38035920157E+02  0.19166844967E+02  0.20410695784E+03  0.22717043790E+03  0.90181253311E+02 0.  0.
         23    2    1    2    0    0  0.28458006060E+02 -0.37819868514E+02  0.74913402655E+02  0.12695556645E+03  0.90914780938E+02 0.  0.
        -11    1    4    4    0    0  0.15335868980E+01 -0.64433091517E+02  0.50873529799E+02  0.82110238127E+02  0.00000000000E+00 0.  1.
         11    1    4    4    0    0  0.26924419162E+02  0.26613223003E+02  0.24039872856E+02  0.44845328327E+02  0.00000000000E+00 0. -1.
        -11    1    3    3    0    0  0.15241181683E+02  0.35411728767E+02  0.12206031406E+03  0.12800392346E+03  0.00000000000E+00 0. -1.
         11    1    3    3    0    0 -0.53277101840E+02 -0.16244883800E+02  0.82046643780E+02  0.99166514438E+02  0.00000000000E+00 0.  1.
          3    1    1    2  501    0  0.95779140967E+01  0.18653023547E+02  0.89376688183E+01  0.22793719525E+02  0.00000000000E+00 0. -1.
<scales pt_clust_5="13000.00000" pt_clust_6="13000.00000" pt_clust_7="13000.00000" pt_clust_8="13000.00000" pt_clust_9="20.96835"></scales>
<clustering>
<clus scale="   20.968">  2  9  1 -1</clus>
<clus scale="   90.181">  7  8 -1 -1</clus>
<clus scale="   90.915">  5  6 -1 -1</clus>
<clus scale="   99.920">  1  7  2 -1</clus>
<clus scale="   20.968">  2  5  1 -1</clus>
</clustering>
</event>
<event>
 9    1  0.1610296E-005  0.2172708E+03  0.7546771E-02  0.1136059E+00
         21   -1    0    0  501  502  0.00000000000E+00  0.00000000000E+00  0.10695049188E+04  0.10695049188E+04  0.00000000000E+00 0.  1.
          1   -1    0    0  502    0 -0.00000000000E+00 -0.00000000000E+00 -0.70449146384E+02  0.70449146384E+02  0.00000000000E+00 0. -1.
         23    2    1    2    0    0  0.12043648426E+03  0.15789258046E+03  0.16521400216E+03  0.27328466975E+03  0.89184250306E+02 0.  0.
         23    2    1    2    0    0 -0.10052832364E+03 -0.16614321978E+03  0.74274622480E+03  0.77305953319E+03  0.90772099573E+02 0.  0.
        -13    1    3    3    0    0  0.10226742815E+03  0.60978438530E+02  0.92217442029E+02  0.15060230224E+03  0.00000000000E+00 0.  1.
         13    1    3    3    0    0  0.18169056117E+02  0.96914141933E+02  0.72996560128E+02  0.12268236751E+03  0.00000000000E+00 0. -1.
        -13    1    4    4    0    0 -0.18204280474E+02 -0.14514986649E+02  0.22291523947E+02  0.32233409762E+02  0.00000000000E+00 0. -1.
         13    1    4    4    0    0 -0.82324043169E+02 -0.15162823313E+03  0.72045470086E+03  0.74082612343E+03  0.00000000000E+00 0.  1.
          1    1    1    2  501    0 -0.19908160620E+02  0.82506393181E+01  0.91095545498E+02  0.93609862291E+02  0.00000000000E+00 0. -1.
<scales pt_clust_5="13000.00000" pt_clust_6="13000.00000" pt_clust_7="13000.00000" pt_clust_8="13000.00000" pt_clust_9="21.55013"></scales>
<clustering>
<clus scale="   21.550">  1  9  2 -1</clus>
<clus scale="   89.184">  5  6 -1 -1</clus>
<clus scale="   90.772">  7  8 -1 -1</clus>
<clus scale="  216.612">  2  5  1 -1</clus>
<clus scale="   21.550">  1  5  2 -1</clus>
</clustering>
</event>
<event>
 9    1  0.1610296E-005  0.1368439E+03  0.7546771E-02  0.1217665E+00
          2   -1    0    0  502    0 -0.00000000000E+00  0.00000000000E+00  0.74012332709E+02  0.74012332709E+02  0.00000000000E+00 0. -1.
         21   -1    0    0  501  502  0.00000000000E+00 -0.00000000000E+00 -0.62526353820E+03  0.62526353820E+03  0.00000000000E+00 0.  1.
         23    2    1    2    0    0 -0.97048585813E+01 -0.10280908113E+03 -0.12960641198E+02  0.13838825739E+03  0.91210964916E+02 0.  0.
         23    2    1    2    0    0 -0.13797495471E+02  0.94785170931E+02 -0.46731961069E+03  0.48569705536E+03  0.91320378570E+02 0.  0.
        -11    1    4    4    0    0 -0.52088072538E+02  0.42926694867E+02 -0.25739667088E+03  0.26609944497E+03  0.00000000000E+00 0.  1.
         11    1    4    4    0    0  0.38290577066E+02  0.51858476064E+02 -0.20992293981E+03  0.21959761039E+03  0.00000000000E+00 0. -1.
        -13    1    3    3    0    0 -0.29431637837E+02 -0.11568035634E+02 -0.29892927911E+02  0.43515834971E+02  0.00000000000E+00 0.  1.
         13    1    3    3    0    0  0.19726779256E+02 -0.91241045491E+02  0.16932286712E+02  0.94872422418E+02  0.00000000000E+00 0. -1.
          2    1    1    2  501    0  0.23502354053E+02  0.80239101946E+01 -0.70970953601E+02  0.75190558157E+02  0.00000000000E+00 0. -1.
<scales pt_clust_5="13000.00000" pt_clust_6="13000.00000" pt_clust_7="13000.00000" pt_clust_8="13000.00000" pt_clust_9="24.83433"></scales>
<clustering>
<clus scale="   24.834">  2  9  1 -1</clus>
<clus scale="   91.211">  7  8 -1 -1</clus>
<clus scale="   91.320">  5  6 -1 -1</clus>
<clus scale="  136.771">  1  7  2 -1</clus>
<clus scale="   24.834">  2  5  1 -1</clus>
</clustering>
</event>
<event>
 9    1  0.1610296E-005  0.9538504E+02  0.7546771E-02  0.1291637E+00
         -2   -1    0    0    0  501 -0.00000000000E+00  0.00000000000E+00  0.24333489309E+03  0.24333489309E+03  0.00000000000E+00 0.  1.
         21   -1    0    0  501  502  0.00000000000E+00 -0.00000000000E+00 -0.11982227583E+03  0.11982227583E+03  0.00000000000E+00 0.  1.
         23    2    1    2    0    0  0.45602990065E+01  0.26564110569E+02  0.15054558577E+03  0.17739657029E+03  0.89883933267E+02 0.  0.
         23    2    1    2    0    0 -0.26907926171E+02 -0.90236175542E+01  0.46319618967E+02  0.10709874368E+03  0.92299358781E+02 0.  0.
        -11    1    3    3    0    0 -0.35471261518E+02  0.20131418715E+02  0.11968281801E+03  0.12644153328E+03  0.00000000000E+00 0.  1.
         11    1    3    3    0    0  0.40031560525E+02  0.64326918545E+01  0.30862767762E+02  0.50955037008E+02  0.00000000000E+00 0. -1.
        -13    1    4    4    0    0  0.31139726599E+02  0.12893393839E+02  0.97893730765E+01  0.35096353124E+02  0.00000000000E+00 0. -1.
         13    1    4    4    0    0 -0.58047652770E+02 -0.21917011393E+02  0.36530245891E+02  0.72002390553E+02  0.00000000000E+00 0.  1.
         -2    1    1    2    0  502  0.22347627164E+02 -0.17540493015E+02 -0.73352587476E+02  0.78661854952E+02  0.00000000000E+00 0.  1.
<scales pt_clust_5="13000.00000" pt_clust_6="13000.00000" pt_clust_7="13000.00000" pt_clust_8="13000.00000" pt_clust_9="28.40925"></scales>
<clustering>
<clus scale="   28.409">  2  9  1 -1</clus>
<clus scale="   89.884">  5  6 -1 -1</clus>
<clus scale="   92.299">  7  8 -1 -1</clus>
<clus scale="   93.050">  1  5  2 -1</clus>
<clus scale="   28.409">  2  5  1 -1</clus>
</clustering>
</event>
<event>
 9    1  0.1610296E-005  0.9626898E+02  0.7546771E-02  0.1290159E+00
         21   -1    0    0  501  502  0.00000000000E+00  0.00000000000E+00  0.14510006377E+03  0.14510006377E+03  0.00000000000E+00 0. -1.
         -3   -1    0    0    0  501 -0.00000000000E+00 -0.00000000000E+00 -0.25255152127E+03  0.25255152127E+03  0.00000000000E+00 0.  1.
         23    2    1    2    0    0 -0.34553567241E+02 -0.24286601783E+01 -0.21095806051E+03  0.23084665519E+03  0.87103544828E+02 0.  0.
         23    2    1    2    0    0  0.15606519206E+02 -0.26409483578E+02  0.68132100885E+02  0.11738848962E+03  0.90537561591E+02 0.  0.
        -11    1    3    3    0    0  0.54875564034E+01 -0.32254659715E+02 -0.34867133565E+02  0.47814154302E+02  0.00000000000E+00 0.  1.
         11    1    3    3    0    0 -0.40041123644E+02  0.29825999536E+02 -0.17609092694E+03  0.18303250089E+03  0.00000000000E+00 0. -1.
        -11    1    4    4    0    0  0.33764170969E+02 -0.44303222695E+02  0.13820687322E+02  0.57391690866E+02  0.00000000000E+00 0.  1.
         11    1    4    4    0    0 -0.18157651762E+02  0.17893739117E+02  0.54311413562E+02  0.59996798750E+02  0.00000000000E+00 0. -1.
         -3    1    1    2    0  502  0.18947048034E+02  0.28838143756E+02  0.35374502122E+02  0.49416440229E+02  0.00000000000E+00 0.  1.
<scales pt_clust_5="13000.00000" pt_clust_6="13000.00000" pt_clust_7="13000.00000" pt_clust_8="13000.00000" pt_clust_9="34.50549"></scales>
<clustering>
<clus scale="   34.505">  1  9  2 -1</clus>
<clus scale="   87.104">  5  6 -1 -1</clus>
<clus scale="   90.538">  7  8 -1 -1</clus>
<clus scale="   93.047">  2  5  1 -1</clus>
<clus scale="   34.505">  1  5  2 -1</clus>
</clustering>
</event>
<event>
 9    1  0.1610296E-005  0.1090809E+03  0.7546771E-02  0.1268127E+00
          2   -1    0    0  502    0 -0.00000000000E+00  0.00000000000E+00  0.28626183683E+02  0.28626183683E+02  0.00000000000E+00 0. -1.
         21   -1    0    0  501  502  0.00000000000E+00 -0.00000000000E+00 -0.59018815841E+03  0.59018815841E+03  0.00000000000E+00 0.  1.
         23    2    1    2    0    0  0.23389096582E+02 -0.38952014299E+02 -0.18184478993E+03  0.21445193811E+03  0.10420075276E+03 0.  0.
         23    2    1    2    0    0 -0.27091054207E+02 -0.37094348265E+01 -0.24841284962E+03  0.26625182450E+03  0.91833572653E+02 0.  0.
        -13    1    3    3    0    0  0.59534057385E+02 -0.66546437854E+01 -0.13182998470E+03  0.14480239341E+03  0.00000000000E+00 0. -1.
         13    1    3    3    0    0 -0.36144960803E+02 -0.32297370513E+02 -0.50014805235E+02  0.69649544695E+02  0.00000000000E+00 0.  1.
        -13    1    4    4    0    0  0.22380134728E+02  0.21545267935E+02 -0.40470726616E+02  0.51019101459E+02  0.00000000000E+00 0. -1.
         13    1    4    4    0    0 -0.49471188935E+02 -0.25254702762E+02 -0.20794212300E+03  0.21523272304E+03  0.00000000000E+00 0.  1.
          2    1    1    2  501    0  0.37019576252E+01  0.42661449125E+02 -0.13130433517E+03  0.13811057949E+03  0.00000000000E+00 0. -1.
<scales pt_clust_5="13000.00000" pt_clust_6="13000.00000" pt_clust_7="13000.00000" pt_clust_8="13000.00000" pt_clust_9="42.82177"></scales>
<clustering>
<clus scale="   42.822">  2  9  1 -1</clus>
<clus scale="   91.834">  7  8 -1 -1</clus>
<clus scale="   97.336">  2  7  1 -1</clus>
<clus scale="  104.201">  5  6 -1 -1</clus>
<clus scale="   42.822">  2  5  1 -1</clus>
</clustering>
</event>
<event>
 9    1  0.1610296E-005  0.9241522E+02  0.7546771E-02  0.1298789E+00
          2   -1    0    0  502    0 -0.00000000000E+00  0.00000000000E+00  0.41808285186E+03  0.41808285186E+03  0.00000000000E+00 0. -1.
         21   -1    0    0  501  502  0.00000000000E+00 -0.00000000000E+00 -0.59641782109E+02  0.59641782109E+02  0.00000000000E+00 0. -1.
         23    2    1    2    0    0  0.80570100114E+01 -0.17252108483E+01  0.32622917366E+03  0.33909986693E+03  0.92170245988E+02 0.  0.
         23    2    1    2    0    0  0.66557582606E+01 -0.30820859585E+02  0.38685305300E+02  0.10232576874E+03  0.89329645681E+02 0.  0.
        -13    1    3    3    0    0  0.27241055202E+02 -0.39799620150E+02  0.20484333546E+03  0.21044447471E+03  0.00000000000E+00 0. -1.
         13    1    3    3    0    0 -0.19184045191E+02  0.38074409302E+02  0.12138583819E+03  0.12865539222E+03  0.00000000000E+00 0.  1.
        -13    1    4    4    0    0  0.41529671466E+02 -0.12011305162E+02  0.44772363972E+02  0.62237847323E+02  0.00000000000E+00 0. -1.
         13    1    4    4    0    0 -0.34873913206E+02 -0.18809554422E+02 -0.60870586714E+01  0.40087921412E+02  0.00000000000E+00 0.  1.
          2    1    1    2  501    0 -0.14712768272E+02  0.32546070433E+02 -0.64734092073E+01  0.36298998301E+02  0.00000000000E+00 0. -1.
<scales pt_clust_5="13000.00000" pt_clust_6="13000.00000" pt_clust_7="13000.00000" pt_clust_8="13000.00000" pt_clust_9="35.71711"></scales>
<clustering>
<clus scale="   35.717">  2  9  1 -1</clus>
<clus scale="   89.330">  7  8 -1 -1</clus>
<clus scale="   89.582">  2  7  1 -1</clus>
<clus scale="   92.170">  5  6 -1 -1</clus>
<clus scale="   35.717">  2  5  1 -1</clus>
</clustering>
</event>
<event>
 9    1  0.1610296E-005  0.1406726E+03  0.7546771E-02  0.1212885E+00
          1   -1    0    0  502    0 -0.00000000000E+00  0.00000000000E+00  0.11541236367E+04  0.11541236367E+04  0.00000000000E+00 0. -1.
         21   -1    0    0  501  502  0.00000000000E+00 -0.00000000000E+00 -0.24512042066E+02  0.24512042066E+02  0.00000000000E+00 0. -1.
         23    2    1    2    0    0  0.94425604356E+02 -0.12739627448E+02  0.62105021223E+03  0.63474181520E+03  0.90085032003E+02 0.  0.
         23    2    1    2    0    0 -0.12633026815E+03  0.16971401981E+02  0.45479869007E+03  0.48123412709E+03  0.92179560906E+02 0.  0.
        -11    1    4    4    0    0 -0.38962763638E+02 -0.13348452251E+01  0.36123480976E+02  0.53148703088E+02  0.00000000000E+00 0.  1.
         11    1    4    4    0    0 -0.87367504509E+02  0.18306247206E+02  0.41867520910E+03  0.42808542400E+03  0.00000000000E+00 0. -1.
        -13    1    3    3    0    0  0.14202050886E+02  0.31800354218E+02  0.10579921984E+03  0.11138418064E+03  0.00000000000E+00 0.  1.
         13    1    3    3    0    0  0.80223553470E+02 -0.44539981666E+02  0.51525099238E+03  0.52335763456E+03  0.00000000000E+00 0. -1.
          1    1    1    2  501    0  0.31904663792E+02 -0.42317745330E+01  0.53762692287E+02  0.62659736428E+02  0.00000000000E+00 0. -1.
<scales pt_clust_5="13000.00000" pt_clust_6="13000.00000" pt_clust_7="13000.00000" pt_clust_8="13000.00000" pt_clust_9="32.18409"></scales>
<clustering>
<clus scale="   32.184">  2  9  1 -1</clus>
<clus scale="   90.085">  7  8 -1 -1</clus>
<clus scale="   92.180">  5  6 -1 -1</clus>
<clus scale="  139.309">  1  7  2 -1</clus>
<clus scale="   32.184">  2  5  1 -1</clus>
</clustering>
</event>
<event>
 9    1  0.1610296E-005  0.1663171E+03  0.7546771E-02  0.1181782E+00
         21   -1    0    0  501  502  0.00000000000E+00  0.00000000000E+00  0.41153554192E+03  0.41153554192E+03  0.00000000000E+00 0.  1.
          3   -1    0    0  502    0 -0.00000000000E+00 -0.00000000000E+00 -0.26228926407E+03  0.26228926407E+03  0.00000000000E+00 0. -1.
         23    2    1    2    0    0  0.83858560086E+02  0.10768125578E+03 -0.20421322918E+03  0.26288187068E+03  0.93682036778E+02 0.  0.
         23    2    1    2    0    0 -0.66741650674E+02 -0.13507957179E+03  0.30145346280E+03  0.34971969671E+03  0.93427712074E+02 0.  0.
        -11    1    4    4    0    0 -0.67714929032E+02 -0.67374722514E+02  0.10512188607E+03  0.14203969790E+03  0.00000000000E+00 0. -1.
         11    1    4    4    0    0  0.97327835774E+00 -0.67704849276E+02  0.19633157673E+03  0.20767999881E+03  0.00000000000E+00 0.  1.
        -13    1    3    3    0    0  0.76602512613E+02  0.22723455541E+02 -0.10760837191E+03  0.13402933289E+03  0.00000000000E+00 0.  1.
         13    1    3    3    0    0  0.72560474732E+01  0.84957800244E+02 -0.96604857268E+02  0.12885253779E+03  0.00000000000E+00 0. -1.
          3    1    1    2  501    0 -0.17116909412E+02  0.27398316005E+02  0.52006044226E+02  0.61223238593E+02  0.00000000000E+00 0. -1.
<scales pt_clust_5="13000.00000" pt_clust_6="13000.00000" pt_clust_7="13000.00000" pt_clust_8="13000.00000" pt_clust_9="32.30567"></scales>
<clustering>
<clus scale="   32.306">  1  9  2 -1</clus>
<clus scale="   93.428">  5  6 -1 -1</clus>
<clus scale="   93.682">  7  8 -1 -1</clus>
<clus scale="  166.174">  1  5  2 -1</clus>
<clus scale="   32.306">  1  5  2 -1</clus>
</clustering>
</event>
<event>
 9    1  0.1610296E-005  0.1366068E+03  0.7546771E-02  0.1218284E+00
         -3   -1    0    0    0  501 -0.00000000000E+00  0.00000000000E+00  0.78838634388E+03  0.78838634388E+03  0.00000000000E+00 0.  1.
         21   -1    0    0  501  502  0.00000000000E+00 -0.00000000000E+00 -0.29974228720E+02  0.29974228720E+02  0.00000000000E+00 0. -1.
         23    2    1    2    0    0  0.77971420098E+02  0.76406961662E+02  0.51475530212E+03  0.53395703558E+03  0.90661616202E+02 0.  0.
         23    2    1    2    0    0 -0.64675940363E+02 -0.61247195813E+02  0.20238835267E+03  0.23847234823E+03  0.89296244686E+02 0.  0.
        -11    1    4    4    0    0  0.19411857519E+02 -0.25794194091E+02  0.76092902970E+02  0.82657670809E+02  0.00000000000E+00 0.  1.
         11    1    4    4    0    0 -0.84087797881E+02 -0.35453001722E+02  0.12629544970E+03  0.15581467742E+03  0.00000000000E+00 0. -1.
        -11    1    3    3    0    0  0.38715095473E+02  0.88106655093E+02  0.41710062527E+03  0.42805907640E+03  0.00000000000E+00 0.  1.
         11    1    3    3    0    0  0.39256324624E+02 -0.11699693431E+02  0.97654676844E+02  0.10589795918E+03  0.00000000000E+00 0. -1.
         -3    1    1    2    0  502 -0.13295479735E+02 -0.15159765848E+02  0.41268460368E+02  0.45931188783E+02  0.00000000000E+00 0.  1.
<scales pt_clust_5="13000.00000" pt_clust_6="13000.00000" pt_clust_7="13000.00000" pt_clust_8="13000.00000" pt_clust_9="20.16403"></scales>
<clustering>
<clus scale="   20.164">  2  9  1 -1</clus>
<clus scale="   89.296">  5  6 -1 -1</clus>
<clus scale="   90.662">  7  8 -1 -1</clus>
<clus scale="  135.705">  2  5  1 -1</clus>
<clus scale="   20.164">  2  5  1 -1</clus>
</clustering>
</event>
<event>
 9    1  0.1610296E-005  0.1580884E+03  0.7546771E-02  0.1191449E+00
          1   -1    0    0  502    0 -0.00000000000E+00  0.00000000000E+00  0.69260428139E+03  0.69260428139E+03  0.00000000000E+00 0. -1.
         21   -1    0    0  501  502  0.00000000000E+00 -0.00000000000E+00 -0.24611463058E+03  0.24611463058E+03  0.00000000000E+00 0. -1.
         23    2    1    2    0    0  0.33780140441E+01 -0.13302704211E+03  0.59873584370E+03  0.62073783590E+03  0.95515681820E+02 0.  0.
         23    2    1    2    0    0 -0.11734008422E+02  0.91517211513E+02  0.27525765547E+02  0.13328985885E+03  0.92170666406E+02 0.  0.
        -13    1    4    4    0    0  0.20913799119E+02  0.47379990242E+02 -0.24823302977E+02  0.57432106349E+02  0.00000000000E+00 0.  1.
         13    1    4    4    0    0 -0.32647807542E+02  0.44137221270E+02  0.52349068524E+02  0.75857752498E+02  0.00000000000E+00 0. -1.
        -13    1    3    3    0    0  0.37994509724E+02 -0.15819247446E+02  0.17119841483E+03  0.17607591714E+03  0.00000000000E+00 0.  1.
         13    1    3    3    0    0 -0.34616495680E+02 -0.11720779466E+03  0.42753742888E+03  0.44466191876E+03  0.00000000000E+00 0. -1.
          1    1    1    2  501    0  0.83559943781E+01  0.41509830595E+02 -0.17977195844E+03  0.18469121722E+03  0.00000000000E+00 0. -1.
<scales pt_clust_5="13000.00000" pt_clust_6="13000.00000" pt_clust_7="13000.00000" pt_clust_8="13000.00000" pt_clust_9="42.34252"></scales>
<clustering>
<clus scale="   42.343">  2  9  1 -1</clus>
<clus scale="   92.171">  5  6 -1 -1</clus>
<clus scale="   95.516">  7  8 -1 -1</clus>
<clus scale="  156.090">  2  5  1 -1</clus>
<clus scale="   42.343">  2  5  1 -1</clus>
</clustering>
</event>
<event>
 9    1  0.1610296E-005  0.1414822E+03  0.7546771E-02  0.1211723E+00
         21   -1    0    0  501  502  0.00000000000E+00  0.00000000000E+00  0.12786681567E+03  0.12786681567E+03  0.00000000000E+00 0. -1.
          2   -1    0    0  502    0 -0.00000000000E+00 -0.00000000000E+00 -0.43073201584E+03  0.43073201584E+03  0.00000000000E+00 0. -1.
         23    2    1    2    0    0  0.97087659571E+02  0.65662647762E+02 -0.30151109108E+03  0.33580941019E+03  0.90118949038E+02 0.  0.
         23    2    1    2    0    0 -0.97326027592E+02  0.21062328905E+02  0.16826480068E+02  0.13417896922E+03  0.88345277207E+02 0.  0.
        -11    1    4    4    0    0 -0.48132619720E+02 -0.25875456093E+02  0.33595606547E+02  0.64147900109E+02  0.00000000000E+00 0.  1.
         11    1    4    4    0    0 -0.49193407872E+02  0.46937784998E+02 -0.16769126479E+02  0.70031069115E+02  0.00000000000E+00 0. -1.
        -11    1    3    3    0    0  0.53090927723E+02  0.82020595989E+02 -0.16873944460E+03  0.19498467872E+03  0.00000000000E+00 0. -1.
         11    1    3    3    0    0  0.43996731849E+02 -0.16357948227E+02 -0.13277164649E+03  0.14082473147E+03  0.00000000000E+00 0.  1.
          2    1    1    2  501    0  0.23836802056E+00 -0.86724976668E+02 -0.18180589154E+02  0.88610452088E+02  0.00000000000E+00 0. -1.
<scales pt_clust_5="13000.00000" pt_clust_6="13000.00000" pt_clust_7="13000.00000" pt_clust_8="13000.00000" pt_clust_9="86.72530"></scales>
<clustering>
<clus scale="   86.725">  1  9  2 -1</clus>
<clus scale="   88.345">  5  6 -1 -1</clus>
<clus scale="   90.119">  7  8 -1 -1</clus>
<clus scale="  140.359">  1  5  2 -1</clus>
<clus scale="   86.725">  1  5  2 -1</clus>
</clustering>
</event>
<event>
 9    1  0.1610296E-005  0.9572300E+02  0.7546771E-02  0.1289570E+00
         -1   -1    0    0    0  501 -0.00000000000E+00  0.00000000000E+00  0.47869259623E+02  0.47869259623E+02  0.00000000000E+00 0.  1.
         21   -1    0    0  501  502  0.00000000000E+00 -0.00000000000E+00 -0.49071846944E+03  0.49071846944E+03  0.00000000000E+00 0. -1.
         23    2    1    2    0    0  0.18996161136E+02  0.25852820803E+02 -0.81943762775E+02  0.12671232347E+03  0.91170226397E+02 0.  0.
         23    2    1    2    0    0 -0.39624428724E+02  0.13100310262E+02 -0.35317308977E+03  0.36712430289E+03  0.91144440084E+02 0.  0.
        -11    1    3    3    0    0 -0.86809420451E+01  0.39618901469E+02 -0.86433356698E+02  0.95476391105E+02  0.00000000000E+00 0. -1.
         11    1    3    3    0    0  0.27677103181E+02 -0.13766080666E+02  0.44895939230E+01  0.31235932369E+02  0.00000000000E+00 0.  1.
        -13    1    4    4    0    0  0.13002602831E+02 -0.29603495995E+02 -0.10522545312E+03  0.11008101853E+03  0.00000000000E+00 0.  1.
         13    1    4    4    0    0 -0.52627031554E+02  0.42703806256E+02 -0.24794763664E+03  0.25704328436E+03  0.00000000000E+00 0. -1.
         -1    1    1    2    0  502  0.20628267588E+02 -0.38953131065E+02 -0.77323572744E+01  0.44751102696E+02  0.00000000000E+00 0.  1.
<scales pt_clust_5="13000.00000" pt_clust_6="13000.00000" pt_clust_7="13000.00000" pt_clust_8="13000.00000" pt_clust_9="44.07804"></scales>
<clustering>
<clus scale="   44.078">  2  9  1 -1</clus>
<clus scale="   91.144">  7  8 -1 -1</clus>
<clus scale="   91.170">  5  6 -1 -1</clus>
<clus scale="   95.698">  2  7  1 -1</clus>
<clus scale="   44.078">  2  5  1 -1</clus>
</clustering>
</event>
<event>
 9    1  0.1610296E-005  0.1840567E+03  0.7546771E-02  0.1164121E+00
         21   -1    0    0  501  502  0.00000000000E+00  0.00000000000E+00  0.22900649144E+03  0.22900649144E+03  0.00000000000E+00 0.  1.
         -4   -1    0    0    0  501 -0.00000000000E+00 -0.00000000000E+00 -0.33752149058E+03  0.33752149058E+03  0.00000000000E+00 0.  1.
         23    2    1    2    0    0 -0.13355199460E+03 -0.10424115930E+03 -0.21577230576E+03  0.28920255434E+03  0.91531824776E+02 0.  0.
         23    2    1    2    0    0  0.73653693157E+02  0.89307223550E+02  0.14400504165E+03  0.20548376161E+03  0.89919283658E+02 0.  0.
        -11    1    3    3    0    0 -0.51743169545E+01 -0.41269197170E+02 -0.88452423806E+02  0.97743293725E+02  0.00000000000E+00 0. -1.
         11    1    3    3    0    0 -0.12837767765E+03 -0.62971962132E+02 -0.12731988196E+03  0.19145926061E+03  0.00000000000E+00 0.  1.
        -11    1    4    4    0    0  0.32298976454E+02  0.11283196211E+02 -0.26277681090E+01  0.34313839219E+02  0.00000000000E+00 0. -1.
         11    1    4    4    0    0  0.41354716702E+02  0.78024027339E+02  0.14663280976E+03  0.17116992239E+03  0.00000000000E+00 0.  1.
         -4    1    1    2    0  502  0.59898301448E+02  0.14933935752E+02 -0.36747735021E+02  0.71841666062E+02  0.00000000000E+00 0.  1.
<scales pt_clust_5="13000.00000" pt_clust_6="13000.00000" pt_clust_7="13000.00000" pt_clust_8="13000.00000" pt_clust_9="61.73194"></scales>
<clustering>
<clus scale="   61.732">  1  9  2 -1</clus>
<clus scale="   89.919">  7  8 -1 -1</clus>
<clus scale="   91.532">  5  6 -1 -1</clus>
<clus scale="  183.260">  1  7  2 -1</clus>
<clus scale="   61.732">  1  5  2 -1</clus>
</clustering>
</event>
<event>
 9    1  0.1610296E-005  0.1746193E+03  0.7546771E-02  0.1178791E+00
         -1   -1    0    0    0  501 -0.00000000000E+00  0.00000000000E+00  0.84833042432E+03  0.84833042432E+03  0.00000000000E+00 0.  1.
         21   -1    0    0  501  502  0.00000000000E+00 -0.00000000000E+00 -0.12601258218E+03  0.12601258218E+03  0.00000000000E+00 0.  1.
         23    2    1    2    0    0  0.64203153699E+02 -0.97351699822E+02  0.48113514516E+03  0.51039281774E+03  0.12413864062E+03 0.  0.
         23    2    1    2    0    0 -0.55751388764E+02  0.11885454420E+03  0.33281024390E+03  0.36945462273E+03  0.92192406354E+02 0.  0.
        -11    1    3    3    0    0  0.43580045393E+02 -0.10708676734E+03  0.47178575204E+03  0.48574539825E+03  0.00000000000E+00 0. -1.
         11    1    3    3    0    0  0.20623108306E+02  0.97350675215E+01  0.93493931183E+01  0.24647419490E+02  0.00000000000E+00 0.  1.
        -11    1    4    4    0    0 -0.53331910272E+02  0.75928908574E+02  0.30363598379E+03  0.31749693299E+03  0.00000000000E+00 0.  1.
         11    1    4    4    0    0 -0.24194784924E+01  0.42925635623E+02  0.29174260109E+02  0.51957689736E+02  0.00000000000E+00 0. -1.
         -1    1    1    2    0  502 -0.84517649341E+01 -0.21502844375E+02 -0.91627546914E+02  0.94495566035E+02  0.00000000000E+00 0.  1.
<scales pt_clust_5="13000.00000" pt_clust_6="13000.00000" pt_clust_7="13000.00000" pt_clust_8="13000.00000" pt_clust_9="23.10421"></scales>
<clustering>
<clus scale="   23.104">  2  9  1 -1</clus>
<clus scale="   92.192">  7  8 -1 -1</clus>
<clus scale="  124.139">  5  6 -1 -1</clus>
<clus scale="  153.561">  2  7  1 -1</clus>
<clus scale="   23.104">  2  5  1 -1</clus>
</clustering>
</event>
<event>
 9    1  0.1610296E-005  0.1551486E+03  0.7546771E-02  0.1194444E+00
         21   -1    0    0  501  502  0.00000000000E+00  0.00000000000E+00  0.51083316837E+02  0.51083316837E+02  0.00000000000E+00 0.  1.
         -3   -1    0    0    0  501 -0.00000000000E+00 -0.00000000000E+00 -0.84838495457E+03  0.84838495457E+03  0.00000000000E+00 0.  1.
         23    2    1    2    0    0 -0.12094944714E+03  0.71677755668E+02 -0.50432719019E+03  0.53126686095E+03  0.90178120148E+02 0.  0.
         23    2    1    2    0    0  0.10942785257E+03 -0.17611283167E+02 -0.27482120553E+03  0.31001661188E+03  0.91098805816E+02 0.  0.
        -11    1    4    4    0    0  0.11792951097E+03  0.22541067002E+01 -0.25380398603E+03  0.27987303171E+03  0.00000000000E+00 0. -1.
         11    1    4    4    0    0 -0.85016583965E+01 -0.19865389867E+02 -0.21017219500E+02  0.30143580172E+02  0.00000000000E+00 0.  1.
        -11    1    3    3    0    0 -0.44162565294E+02 -0.16986769778E+02 -0.10715034873E+03  0.11713274416E+03  0.00000000000E+00 0. -1.
         11    1    3    3    0    0 -0.76786881845E+02  0.88664525446E+02 -0.39717684146E+03  0.41413411679E+03  0.00000000000E+00 0.  1.
         -3    1    1    2    0  502  0.11521594565E+02 -0.54066472501E+02 -0.18153242015E+02  0.58184798579E+02  0.00000000000E+00 0.  1.
<scales pt_clust_5="13000.00000" pt_clust_6="13000.00000" pt_clust_7="13000.00000" pt_clust_8="13000.00000" pt_clust_9="55.28047"></scales>
<clustering>
<clus scale="   55.280">  1  9  2 -1</clus>
<clus scale="   90.178">  7  8 -1 -1</clus>
<clus scale="   91.099">  5  6 -1 -1</clus>
<clus scale="  154.610">  2  7  1 -1</clus>
<clus scale="   55.280">  1  5  2 -1</clus>
</clustering>
</event>
<event>
 9    1  0.1610296E-005  0.1118117E+03  0.7546771E-02  0.1257520E+00
         -3   -1    0    0    0  501 -0.00000000000E+00  0.00000000000E+00  0.19270976277E+03  0.19270976277E+03  0.00000000000E+00 0.  1.
         21   -1    0    0  501  502  0.00000000000E+00 -0.00000000000E+00 -0.13049183133E+03  0.13049183133E+03  0.00000000000E+00 0.  1.
         23    2    1    2    0    0 -0.70791963205E+02  0.35139472521E+01  0.65431506452E+02  0.13173585531E+03  0.89717354278E+02 0.  0.
         23    2    1    2    0    0  0.48217153740E+02 -0.52108060910E+02  0.40920052511E+02  0.12204825552E+03  0.90449886959E+02 0.  0.
        -11    1    4    4    0    0  0.53025035363E+02  0.83538982826E+01  0.12747998717E+02  0.55172035154E+02  0.00000000000E+00 0. -1.
         11    1    4    4    0    0 -0.48078816236E+01 -0.60461959192E+02  0.28172053794E+02  0.66876220363E+02  0.00000000000E+00 0.  1.
        -13    1    3    3    0    0 -0.29079328680E+02 -0.20252453000E+02 -0.14666799139E+02  0.38352108233E+02  0.00000000000E+00 0.  1.
         13    1    3    3    0    0 -0.41712634526E+02  0.23766400252E+02  0.80098305591E+02  0.93383747079E+02  0.00000000000E+00 0. -1.
         -3    1    1    2    0  502  0.22574809466E+02  0.48594113658E+02 -0.44133627525E+02  0.69417483266E+02  0.00000000000E+00 0.  1.
<scales pt_clust_5="13000.00000" pt_clust_6="13000.00000" pt_clust_7="13000.00000" pt_clust_8="13000.00000" pt_clust_9="53.58181"></scales>
<clustering>
<clus scale="   53.582">  2  9  1 -1</clus>
<clus scale="   89.717">  7  8 -1 -1</clus>
<clus scale="   90.450">  5  6 -1 -1</clus>
<clus scale="  111.220">  1  7  2 -1</clus>
<clus scale="   53.582">  2  5  1 -1</clus>
</clustering>
</event>
<event>
 9    1  0.1610296E-005  0.9582979E+02  0.7546771E-02  0.1290153E+00
          1   -1    0    0  502    0 -0.00000000000E+00  0.00000000000E+00  0.55707068382E+03  0.55707068382E+03  0.00000000000E+00 0. -1.
         21   -1    0    0  501  502  0.00000000000E+00 -0.00000000000E+00 -0.44590849222E+02  0.44590849222E+02  0.00000000000E+00 0.  1.
         23    2    1    2    0    0 -0.22792614947E+02 -0.26912721611E+02  0.15850261743E+03  0.18476201821E+03  0.88148316840E+02 0.  0.
         23    2    1    2    0    0  0.50716762520E+02 -0.21859685740E+02  0.67897473273E+02  0.12535170468E+03  0.89738214420E+02 0.  0.
        -11    1    4    4    0    0  0.74650908675E+02 -0.20497649257E+02  0.65228403915E+02  0.10123070912E+03  0.00000000000E+00 0. -1.
         11    1    4    4    0    0 -0.23934146155E+02 -0.13620364830E+01  0.26690693581E+01  0.24120995560E+02  0.00000000000E+00 0.  1.
        -13    1    3    3    0    0  0.25368046459E+02 -0.94117969244E+01  0.11312531109E+03  0.11631618852E+03  0.00000000000E+00 0. -1.
         13    1    3    3    0    0 -0.48160661406E+02 -0.17500924687E+02  0.45377306339E+02  0.68445829694E+02  0.00000000000E+00 0.  1.
          1    1    1    2  501    0 -0.27924147573E+02  0.48772407352E+02  0.28607974390E+03  0.29154781016E+03  0.00000000000E+00 0. -1.
<scales pt_clust_5="13000.00000" pt_clust_6="13000.00000" pt_clust_7="13000.00000" pt_clust_8="13000.00000" pt_clust_9="56.20061"></scales>
<clustering>
<clus scale="   56.201">  2  9  1 -1</clus>
<clus scale="   88.148">  7  8 -1 -1</clus>
<clus scale="   89.738">  5  6 -1 -1</clus>
<clus scale="   94.343">  1  7  2 -1</clus>
<clus scale="   56.201">  2  5  1 -1</clus>
</clustering>
</event>
<event>
 9    1  0.1610296E-005  0.2493049E+03  0.7546771E-02  0.1142751E+00
          1   -1    0    0  502    0 -0.00000000000E+00  0.00000000000E+00  0.49146133199E+03  0.49146133199E+03  0.00000000000E+00 0. -1.
         21   -1    0    0  501  502  0.00000000000E+00 -0.00000000000E+00 -0.26946338793E+03  0.26946338793E+03  0.00000000000E+00 0. -1.
         23    2    1    2    0    0 -0.80915678850E+02  0.57473686684E+01  0.92311627906E+02  0.15297848061E+03  0.91107626210E+02 0.  0.
         23    2    1    2    0    0  0.95639287888E+02 -0.22083984358E+03 -0.11550388651E+03  0.28145000210E+03  0.89195549119E+02 0.  0.
        -11    1    3    3    0    0 -0.72883482398E+02 -0.27434134798E+02  0.33075692209E+02  0.84608718071E+02  0.00000000000E+00 0. -1.
         11    1    3    3    0    0 -0.80321964517E+01  0.33181503466E+02  0.59235935697E+02  0.68369762541E+02  0.00000000000E+00 0.  1.
        -13    1    4    4    0    0 -0.93415709677E+01 -0.28595305250E+02  0.64232671714E+01  0.30760604540E+02  0.00000000000E+00 0.  1.
         13    1    4    4    0    0  0.10498085886E+03 -0.19224453833E+03 -0.12192715368E+03  0.25068939756E+03  0.00000000000E+00 0. -1.
          1    1    1    2  501    0 -0.14723609039E+02  0.21509247491E+03  0.24519020267E+03  0.32649623721E+03  0.00000000000E+00 0. -1.
<scales pt_clust_5="13000.00000" pt_clust_6="13000.00000" pt_clust_7="13000.00000" pt_clust_8="13000.00000" pt_clust_9="232.80280"></scales>
<clustering>
<clus scale="   89.196">  7  8 -1 -1</clus>
<clus scale="   91.108">  5  6 -1 -1</clus>
<clus scale="  121.988">  1  5  2 -1</clus>
<clus scale="  232.803">  2  9  1 -1</clus>
<clus scale="  232.803">  2  5  1 -1</clus>
</clustering>
</event>
<event>
 9    1  0.1610296E-005  0.1053698E+03  0.7546771E-02  0.1270035E+00
          1   -1    0    0  502    0 -0.00000000000E+00  0.00000000000E+00  0.29719936242E+03  0.29719936242E+03  0.00000000000E+00 0. -1.
         21   -1    0    0  501  502  0.00000000000E+00 -0.00000000000E+00 -0.64725365161E+02  0.64725365161E+02  0.00000000000E+00 0.  1.
         23    2    1    2    0    0 -0.48478357244E+02  0.38788666336E+02  0.20292041712E+03  0.22968960731E+03  0.87897145936E+02 0.  0.
         23    2    1    2    0    0  0.27682092588E+02 -0.29625984650E+02  0.41447376925E+02  0.10658552454E+03  0.89434846509E+02 0.  0.
        -13    1    3    3    0    0 -0.18573603348E+02 -0.28321240944E+02  0.56607758119E+02  0.65965973875E+02  0.00000000000E+00 0.  1.
         13    1    3    3    0    0 -0.29904753895E+02  0.67109907279E+02  0.14631265900E+03  0.16372363343E+03  0.00000000000E+00 0. -1.
        -13    1    4    4    0    0  0.43498344923E+02 -0.42786536544E+02  0.79177676434E+00  0.61019838011E+02  0.00000000000E+00 0.  1.
         13    1    4    4    0    0 -0.15816252334E+02  0.13160551894E+02  0.40655600161E+02  0.45565686525E+02  0.00000000000E+00 0. -1.
          1    1    1    2  501    0  0.20796264655E+02 -0.91626816860E+01 -0.11893796789E+02  0.25649595735E+02  0.00000000000E+00 0. -1.
<scales pt_clust_5="13000.00000" pt_clust_6="13000.00000" pt_clust_7="13000.00000" pt_clust_8="13000.00000" pt_clust_9="22.72530"></scales>
<clustering>
<clus scale="   22.725">  2  9  1 -1</clus>
<clus scale="   87.897">  5  6 -1 -1</clus>
<clus scale="   89.435">  7  8 -1 -1</clus>
<clus scale="  104.068">  1  5  2 -1</clus>
<clus scale="   22.725">  2  5  1 -1</clus>
</clustering>
</event>
<event>
 9    1  0.1610296E-005  0.9175376E+02  0.7546771E-02  0.1299444E+00
          1   -1    0    0  502    0 -0.00000000000E+00  0.00000000000E+00  0.45261262606E+03  0.45261262606E+03  0.00000000000E+00 0. -1.
         21   -1    0    0  501  502  0.00000000000E+00 -0.00000000000E+00 -0.23718677917E+03  0.23718677917E+03  0.00000000000E+00 0. -1.
         23    2    1    2    0    0 -0.56443136994E+01 -0.14913796932E+02  0.22706730743E+03  0.24535933215E+03  0.91582531921E+02 0.  0.
         23    2    1    2    0    0  0.55558519283E+01 -0.16227393564E+02  0.20548611863E+03  0.22509065500E+03  0.90261078147E+02 0.  0.
        -11    1    3    3    0    0 -0.34318954667E+02  0.12238998828E+02  0.18123126380E+03  0.18485766070E+03  0.00000000000E+00 0. -1.
         11    1    3    3    0    0  0.28674640967E+02 -0.27152795760E+02  0.45836043630E+02  0.60501671446E+02  0.00000000000E+00 0.  1.
        -11    1    4    4    0    0 -0.36440335483E+02 -0.28069267257E+02  0.13004047189E+03  0.13793587693E+03  0.00000000000E+00 0. -1.
         11    1    4    4    0    0  0.41996187411E+02  0.11841873692E+02  0.75445646734E+02  0.87154778072E+02  0.00000000000E+00 0.  1.
          1    1    1    2  501    0  0.88461771100E-01  0.31141190496E+02 -0.21712757918E+03  0.21934941808E+03  0.00000000000E+00 0. -1.
<scales pt_clust_5="13000.00000" pt_clust_6="13000.00000" pt_clust_7="13000.00000" pt_clust_8="13000.00000" pt_clust_9="31.14132"></scales>
<clustering>
<clus scale="   31.141">  2  9  1 -1</clus>
<clus scale="   90.261">  7  8 -1 -1</clus>
<clus scale="   90.435">  2  7  1 -1</clus>
<clus scale="   91.583">  5  6 -1 -1</clus>
<clus scale="   31.141">  2  5  1 -1</clus>
</clustering>
</event>
<event>
 9    1  0.1610296E-005  0.1770053E+03  0.7546771E-02  0.1171010E+00
          1   -1    0    0  502    0 -0.00000000000E+00  0.00000000000E+00  0.65406803465E+03  0.65406803465E+03  0.00000000000E+00 0. -1.
         21   -1    0    0  501  502  0.00000000000E+00 -0.00000000000E+00 -0.11329517143E+03  0.11329517143E+03  0.00000000000E+00 0.  1.
         23    2    1    2    0    0  0.11118634428E+03 -0.10223889134E+03  0.52376756326E+03  0.55225800664E+03  0.88550841461E+02 0.  0.
         23    2    1    2    0    0 -0.97740202991E+02  0.12517643965E+03  0.30255405323E+02  0.18539837985E+03  0.90746247166E+02 0.  0.
        -11    1    3    3    0    0  0.97864584785E+02 -0.11848145194E+03  0.44752235137E+03  0.47317183600E+03  0.00000000000E+00 0. -1.
         11    1    3    3    0    0  0.13321759498E+02  0.16242560602E+02  0.76245211888E+02  0.79086170642E+02  0.00000000000E+00 0.  1.
        -13    1    4    4    0    0 -0.61905303620E+02  0.58646177806E+02  0.59915673129E+02  0.10421865799E+03  0.00000000000E+00 0. -1.
         13    1    4    4    0    0 -0.35834899371E+02  0.66530261846E+02 -0.29660267806E+02  0.81179721855E+02  0.00000000000E+00 0.  1.
          1    1    1    2  501    0 -0.13446141292E+02 -0.22937548316E+02 -0.13250105354E+02  0.29706819592E+02  0.00000000000E+00 0. -1.
<scales pt_clust_5="13000.00000" pt_clust_6="13000.00000" pt_clust_7="13000.00000" pt_clust_8="13000.00000" pt_clust_9="26.58815"></scales>
<clustering>
<clus scale="   26.588">  2  9  1 -1</clus>
<clus scale="   88.551">  5  6 -1 -1</clus>
<clus scale="   90.746">  7  8 -1 -1</clus>
<clus scale="  175.890">  1  5  2 -1</clus>
<clus scale="   26.588">  2  5  1 -1</clus>
</clustering>
</event>
<event>
 9    1  0.1610296E-005  0.9686964E+02  0.7546771E-02  0.1287986E+00
         21   -1    0    0  501  502  0.00000000000E+00  0.00000000000E+00  0.41025390475E+02  0.41025390475E+02  0.00000000000E+00 0.  1.
          1   -1    0    0  502    0 -0.00000000000E+00 -0.00000000000E+00 -0.65810044647E+03  0.65810044647E+03  0.00000000000E+00 0. -1.
         23    2    1    2    0    0  0.20229913571E+02 -0.39072654872E+01 -0.25647936596E+03  0.27364033211E+03  0.93128137885E+02 0.  0.
         23    2    1    2    0    0 -0.98240861046E+01  0.72037641392E+02 -0.93245056401E+02  0.14939423248E+03  0.91312987635E+02 0.  0.
        -11    1    4    4    0    0 -0.47000994919E+02  0.39456615004E+02 -0.74514271095E+02  0.96531314027E+02  0.00000000000E+00 0.  1.
         11    1    4    4    0    0  0.37176908814E+02  0.32581026388E+02 -0.18730785306E+02  0.52862918456E+02  0.00000000000E+00 0. -1.
        -13    1    3    3    0    0  0.21890531712E+02  0.39452476279E+02 -0.79417304999E+02  0.91338938008E+02  0.00000000000E+00 0.  1.
         13    1    3    3    0    0 -0.16606181406E+01 -0.43359741766E+02 -0.17706206096E+03  0.18230139410E+03  0.00000000000E+00 0. -1.
          1    1    1    2  501    0 -0.10405827467E+02 -0.68130375905E+02 -0.26735063364E+03  0.27609127236E+03  0.00000000000E+00 0. -1.
<scales pt_clust_5="13000.00000" pt_clust_6="13000.00000" pt_clust_7="13000.00000" pt_clust_8="13000.00000" pt_clust_9="68.92049"></scales>
<clustering>
<clus scale="   68.920">  1  9  2 -1</clus>
<clus scale="   91.313">  5  6 -1 -1</clus>
<clus scale="   93.128">  7  8 -1 -1</clus>
<clus scale="   95.126">  1  5  2 -1</clus>
<clus scale="   68.920">  1  5  2 -1</clus>
</clustering>
</event>
<event>
 9    1  0.1610296E-005  0.1756746E+03  0.7546771E-02  0.1172126E+00
         -4   -1    0    0    0  501 -0.00000000000E+00  0.00000000000E+00  0.14841210471E+03  0.14841210471E+03  0.00000000000E+00 0.  1.
         21   -1    0    0  501  502  0.00000000000E+00 -0.00000000000E+00 -0.25987800209E+03  0.25987800209E+03  0.00000000000E+00 0. -1.
         23    2    1    2    0    0 -0.19492896884E+02 -0.13739468688E+03 -0.37383577998E+02  0.17086933511E+03  0.92420369860E+02 0.  0.
         23    2    1    2    0    0  0.43446524079E+00  0.16177886286E+03 -0.38021417368E+02  0.18990024445E+03  0.91890616681E+02 0.  0.
        -13    1    4    4    0    0  0.25927240017E+02  0.44221185395E+02  0.21622658259E+02  0.55635189968E+02  0.00000000000E+00 0. -1.
         13    1    4    4    0    0 -0.25492774776E+02  0.11755767747E+03 -0.59644075627E+02  0.13426505448E+03  0.00000000000E+00 0.  1.
        -13    1    3    3    0    0  0.78430796643E+01 -0.50523353155E+02  0.28435360449E+02  0.58503784805E+02  0.00000000000E+00 0.  1.
         13    1    3    3    0    0 -0.27335976548E+02 -0.86871333727E+02 -0.65818938447E+02  0.11236555031E+03  0.00000000000E+00 0. -1.
         -4    1    1    2    0  502  0.19058431643E+02 -0.24384175980E+02 -0.36060902020E+02  0.47520527243E+02  0.00000000000E+00 0.  1.
<scales pt_clust_5="13000.00000" pt_clust_6="13000.00000" pt_clust_7="13000.00000" pt_clust_8="13000.00000" pt_clust_9="30.94854"></scales>
<clustering>
<clus scale="   30.949">  2  9  1 -1</clus>
<clus scale="   91.891">  5  6 -1 -1</clus>
<clus scale="   92.420">  7  8 -1 -1</clus>
<clus scale="  175.396">  2  5  1 -1</clus>
<clus scale="   30.949">  2  5  1 -1</clus>
</clustering>
</event>
<event>
 9    1  0.1610296E-005  0.1071572E+03  0.7546771E-02  0.1267409E+00
         21   -1    0    0  501  502  0.00000000000E+00  0.00000000000E+00  0.50984792775E+02  0.50984792775E+02  0.00000000000E+00 0. -1.
         -2   -1    0    0    0  501 -0.00000000000E+00 -0.00000000000E+00 -0.28542438936E+03  0.28542438936E+03  0.00000000000E+00 0.  1.
         23    2    1    2    0    0  0.39226662607E+02  0.43654099709E+02 -0.15386615529E+03  0.18937680976E+03  0.93511340767E+02 0.  0.
         23    2    1    2    0    0 -0.16739351551E+02 -0.41118412200E+02 -0.65935705177E+02  0.12008107948E+03  0.90005659378E+02 0.  0.
        -11    1    4    4    0    0 -0.43596875275E+02  0.52486348041E+01 -0.44055060999E+02  0.62201962193E+02  0.00000000000E+00 0.  1.
         11    1    4    4    0    0  0.26857523724E+02 -0.46367047004E+02 -0.21880644178E+02  0.57879117289E+02  0.00000000000E+00 0. -1.
        -11    1    3    3    0    0 -0.47421728579E+01  0.62145464124E+02 -0.79333852733E+02  0.10088809198E+03  0.00000000000E+00 0.  1.
         11    1    3    3    0    0  0.43968835465E+02 -0.18491364415E+02 -0.74532302556E+02  0.88488717780E+02  0.00000000000E+00 0. -1.
         -2    1    1    2    0  502 -0.22487311056E+02 -0.25356875088E+01 -0.14637736116E+02  0.26951292887E+02  0.00000000000E+00 0.  1.
<scales pt_clust_5="13000.00000" pt_clust_6="13000.00000" pt_clust_7="13000.00000" pt_clust_8="13000.00000" pt_clust_9="22.62982"></scales>
<clustering>
<clus scale="   22.630">  1  9  2 -1</clus>
<clus scale="   90.006">  5  6 -1 -1</clus>
<clus scale="   93.511">  7  8 -1 -1</clus>
<clus scale="  104.112">  1  5  2 -1</clus>
<clus scale="   22.630">  1  5  2 -1</clus>
</clustering>
</event>
<event>
 9    1  0.1610296E-005  0.1175297E+03  0.7546771E-02  0.1247814E+00
         21   -1    0    0  501  502  0.00000000000E+00  0.00000000000E+00  0.14104779666E+03  0.14104779666E+03  0.00000000000E+00 0. -1.
         -3   -1    0    0    0  501 -0.00000000000E+00 -0.00000000000E+00 -0.13074995313E+03  0.13074995313E+03  0.00000000000E+00 0.  1.
         23    2    1    2    0    0 -0.41646651553E+01 -0.84245923994E+02 -0.30513923599E+02  0.12633455194E+03  0.88964033940E+02 0.  0.
         23    2    1    2    0    0  0.15992527703E+02  0.60102826343E+02  0.20838219243E+02  0.11197095827E+03  0.90747746186E+02 0.  0.
        -11    1    3    3    0    0 -0.16836454727E+02  0.14333816966E+02 -0.12254513687E+02  0.25280380185E+02  0.00000000000E+00 0.  1.
         11    1    3    3    0    0  0.12671789572E+02 -0.98579740960E+02 -0.18259409912E+02  0.10105417175E+03  0.00000000000E+00 0. -1.
        -13    1    4    4    0    0 -0.37217616352E+02  0.20470879520E+02  0.16214637787E+00  0.42476277693E+02  0.00000000000E+00 0.  1.
         13    1    4    4    0    0  0.53210144055E+02  0.39631946823E+02  0.20676072866E+02  0.69494680577E+02  0.00000000000E+00 0. -1.
         -3    1    1    2    0  502 -0.11827862548E+02  0.24143097651E+02  0.19973547889E+02  0.33492239577E+02  0.00000000000E+00 0.  1.
<scales pt_clust_5="13000.00000" pt_clust_6="13000.00000" pt_clust_7="13000.00000" pt_clust_8="13000.00000" pt_clust_9="26.88471"></scales>
<clustering>
<clus scale="   26.885">  1  9  2 -1</clus>
<clus scale="   88.964">  5  6 -1 -1</clus>
<clus scale="   90.748">  7  8 -1 -1</clus>
<clus scale="  116.158">  2  5  1 -1</clus>
<clus scale="   26.885">  1  5  2 -1</clus>
</clustering>
</event>
<event>
 9    1  0.1610296E-005  0.1026123E+03  0.7546771E-02  0.1276191E+00
         21   -1    0    0  501  502  0.00000000000E+00  0.00000000000E+00  0.68131409166E+02  0.68131409166E+02  0.00000000000E+00 0. -1.
          1   -1    0    0  502    0 -0.00000000000E+00 -0.00000000000E+00 -0.77625942877E+03  0.77625942877E+03  0.00000000000E+00 0. -1.
         23    2    1    2    0    0  0.25296828870E+02  0.57029410918E+02 -0.42805190948E+03  0.44136627773E+03  0.87655408552E+02 0.  0.
         23    2    1    2    0    0 -0.74695300424E+01 -0.33306437313E+02 -0.33058235425E+03  0.34444578627E+03  0.90515711866E+02 0.  0.
        -13    1    4    4    0    0  0.12773412895E+02 -0.57946976230E+02 -0.15457912436E+03  0.16557692417E+03  0.00000000000E+00 0.  1.
         13    1    4    4    0    0 -0.20242942937E+02  0.24640538917E+02 -0.17600322989E+03  0.17886886210E+03  0.00000000000E+00 0. -1.
        -13    1    3    3    0    0 -0.32815462166E+02  0.21017993786E+02 -0.14106143778E+03  0.14634527614E+03  0.00000000000E+00 0.  1.
         13    1    3    3    0    0  0.58112291036E+02  0.36011417132E+02 -0.28699047169E+03  0.29502100158E+03  0.00000000000E+00 0. -1.
          1    1    1    2  501    0 -0.17827298828E+02 -0.23722973605E+02  0.50506244123E+02  0.58578773934E+02  0.00000000000E+00 0. -1.
<scales pt_clust_5="13000.00000" pt_clust_6="13000.00000" pt_clust_7="13000.00000" pt_clust_8="13000.00000" pt_clust_9="29.67477"></scales>
<clustering>
<clus scale="   29.675">  1  9  2 -1</clus>
<clus scale="   87.655">  7  8 -1 -1</clus>
<clus scale="   90.516">  5  6 -1 -1</clus>
<clus scale="  100.098">  2  7  1 -1</clus>
<clus scale="   29.675">  1  5  2 -1</clus>
</clustering>
</event>
<event>
 9    1  0.1610296E-005  0.1201445E+03  0.7546771E-02  0.1244602E+00
         21   -1    0    0  501  502  0.00000000000E+00  0.00000000000E+00  0.54578947343E+02  0.54578947343E+02  0.00000000000E+00 0.  1.
          1   -1    0    0  502    0 -0.00000000000E+00 -0.00000000000E+00 -0.38389092865E+03  0.38389092865E+03  0.00000000000E+00 0. -1.
         23    2    1    2    0    0  0.88032625334E+01  0.66934231909E+02 -0.17590523458E+03  0.20969522842E+03  0.92042101447E+02 0.  0.
         23    2    1    2    0    0 -0.11251875611E+02 -0.88586505670E+02 -0.16295312436E+03  0.20498494410E+03  0.86550175495E+02 0.  0.
        -11    1    3    3    0    0  0.38357792811E+02  0.62260082906E+02 -0.76267425312E+02  0.10566152732E+03  0.00000000000E+00 0.  1.
         11    1    3    3    0    0 -0.29554530278E+02  0.46741490030E+01 -0.99637809266E+02  0.10403370110E+03  0.00000000000E+00 0. -1.
        -13    1    4    4    0    0 -0.83044144544E+01 -0.26088565665E+02  0.30829363175E+01  0.27551425629E+02  0.00000000000E+00 0.  1.
         13    1    4    4    0    0 -0.29474611565E+01 -0.62497940005E+02 -0.16603606068E+03  0.17743351847E+03  0.00000000000E+00 0. -1.
          1    1    1    2  501    0  0.24486130776E+01  0.21652273761E+02  0.95463776346E+01  0.23789703466E+02  0.00000000000E+00 0. -1.
<scales pt_clust_5="13000.00000" pt_clust_6="13000.00000" pt_clust_7="13000.00000" pt_clust_8="13000.00000" pt_clust_9="21.79029"></scales>
<clustering>
<clus scale="   21.790">  1  9  2 -1</clus>
<clus scale="   86.550">  7  8 -1 -1</clus>
<clus scale="   92.042">  5  6 -1 -1</clus>
<clus scale="  115.991">  1  7  2 -1</clus>
<clus scale="   21.790">  1  5  2 -1</clus>
</clustering>
</event>
<event>
 9    1  0.1610296E-005  0.1088909E+03  0.7546771E-02  0.1263514E+00
         21   -1    0    0  501  502  0.00000000000E+00  0.00000000000E+00  0.20182129045E+03  0.20182129045E+03  0.00000000000E+00 0.  1.
         -1   -1    0    0    0  501 -0.00000000000E+00 -0.00000000000E+00 -0.28156579214E+03  0.28156579214E+03  0.00000000000E+00 0.  1.
         23    2    1    2    0    0 -0.47134036907E+02 -0.43282339783E+02 -0.24359406228E+03  0.26703584910E+03  0.88741755404E+02 0.  0.
         23    2    1    2    0    0  0.13501381168E+02  0.19839340268E+02  0.81951811552E+02  0.12476536638E+03  0.90963786836E+02 0.  0.
        -13    1    3    3    0    0  0.60695994397E+01 -0.42475379418E+02 -0.17522046627E+03  0.18039736609E+03  0.00000000000E+00 0.  1.
         13    1    3    3    0    0 -0.53203636347E+02 -0.80696036534E+00 -0.68373596014E+02  0.86638483006E+02  0.00000000000E+00 0. -1.
        -13    1    4    4    0    0  0.50022668863E+02  0.13083966793E+02  0.26704724099E+02  0.58194500397E+02  0.00000000000E+00 0. -1.
         13    1    4    4    0    0 -0.36521287696E+02  0.67553734746E+01  0.55247087453E+02  0.66570865983E+02  0.00000000000E+00 0.  1.
         -1    1    1    2    0  502  0.33632655739E+02  0.23442999516E+02  0.81897749033E+02  0.91585867114E+02  0.00000000000E+00 0.  1.
<scales pt_clust_5="13000.00000" pt_clust_6="13000.00000" pt_clust_7="13000.00000" pt_clust_8="13000.00000" pt_clust_9="40.99670"></scales>
<clustering>
<clus scale="   40.997">  1  9  2 -1</clus>
<clus scale="   88.742">  5  6 -1 -1</clus>
<clus scale="   90.964">  7  8 -1 -1</clus>
<clus scale="  107.042">  2  5  1 -1</clus>
<clus scale="   40.997">  1  5  2 -1</clus>
</clustering>
</event>
<event>
 9    1  0.1610296E-005  0.1577734E+03  0.7546771E-02  0.1208582E+00
         21   -1    0    0  501  502  0.00000000000E+00  0.00000000000E+00  0.80331576487E+02  0.80331576487E+02  0.00000000000E+00 0.  1.
         -2   -1    0    0    0  501 -0.00000000000E+00 -0.00000000000E+00 -0.84101178849E+03  0.84101178849E+03  0.00000000000E+00 0.  1.
         23    2    1    2    0    0  0.53872047303E+02  0.40640161894E+02 -0.48804008996E+03  0.49989769694E+03  0.84621260682E+02 0.  0.
         23    2    1    2    0    0  0.43344399080E+02  0.65299436202E+02 -0.24707698184E+03  0.27540557071E+03  0.93050739508E+02 0.  0.
        -11    1    3    3    0    0 -0.22412757211E+02  0.33364213587E+01 -0.82016157600E+02  0.85088856502E+02  0.00000000000E+00 0. -1.
         11    1    3    3    0    0  0.76284804514E+02  0.37303740535E+02 -0.40602393236E+03  0.41480884044E+03  0.00000000000E+00 0.  1.
        -13    1    4    4    0    0  0.64773955542E+02  0.15358328131E+02 -0.15102198545E+03  0.16504297516E+03  0.00000000000E+00 0. -1.
         13    1    4    4    0    0 -0.21429556462E+02  0.49941108071E+02 -0.96054996381E+02  0.11036259554E+03  0.00000000000E+00 0.  1.
         -2    1    1    2    0  502 -0.97216446383E+02 -0.10593959810E+03 -0.25563140214E+02  0.14604009734E+03  0.00000000000E+00 0.  1.
<scales pt_clust_5="13000.00000" pt_clust_6="13000.00000" pt_clust_7="13000.00000" pt_clust_8="13000.00000" pt_clust_9="127.41276"></scales>
<clustering>
<clus scale="   84.621">  5  6 -1 -1</clus>
<clus scale="   93.051">  7  8 -1 -1</clus>
<clus scale="  108.234">  2  5  1 -1</clus>
<clus scale="  127.413">  1  9  2 -1</clus>
<clus scale="  127.413">  1  5  2 -1</clus>
</clustering>
</event>
<event>
 9    1  0.1610296E-005  0.2024471E+03  0.7546771E-02  0.1147902E+00
         21   -1    0    0  501  502  0.00000000000E+00  0.00000000000E+00  0.16755357484E+03  0.16755357484E+03  0.00000000000E+00 0. -1.
          1   -1    0    0  502    0 -0.00000000000E+00 -0.00000000000E+00 -0.36837233585E+03  0.36837233585E+03  0.00000000000E+00 0. -1.
         23    2    1    2    0    0 -0.85599815179E+02  0.16491850996E+03 -0.10447784665E+03  0.23301747943E+03  0.94106758499E+02 0.  0.
         23    2    1    2    0    0  0.54222602840E+01 -0.18167694383E+03 -0.82926605218E+02  0.21990705113E+03  0.91904169972E+02 0.  0.
        -11    1    4    4    0    0  0.42868097122E+02 -0.13269913926E+03 -0.73187605993E+02  0.15749019329E+03  0.00000000000E+00 0. -1.
         11    1    4    4    0    0 -0.37445836838E+02 -0.48977804571E+02 -0.97389992246E+01  0.62416857843E+02  0.00000000000E+00 0.  1.
        -13    1    3    3    0    0 -0.25961704057E+01  0.51669193229E+02  0.89661062137E+01  0.52505587230E+02  0.00000000000E+00 0.  1.
         13    1    3    3    0    0 -0.83003644774E+02  0.11324931673E+03 -0.11344395286E+03  0.18051189220E+03  0.00000000000E+00 0. -1.
          1    1    1    2  501    0  0.80177554895E+02  0.16758433873E+02 -0.13414309140E+02  0.83001380137E+02  0.00000000000E+00 0. -1.
<scales pt_clust_5="13000.00000" pt_clust_6="13000.00000" pt_clust_7="13000.00000" pt_clust_8="13000.00000" pt_clust_9="81.91023"></scales>
<clustering>
<clus scale="   81.910">  1  9  2 -1</clus>
<clus scale="   91.904">  5  6 -1 -1</clus>
<clus scale="   94.107">  7  8 -1 -1</clus>
<clus scale="  201.433">  1  5  2 -1</clus>
<clus scale="   81.910">  1  5  2 -1</clus>
</clustering>
</event>
<event>
 9    1  0.1610296E-005  0.9553782E+02  0.7546771E-02  0.1291598E+00
          3   -1    0    0  502    0 -0.00000000000E+00  0.00000000000E+00  0.19490881748E+03  0.19490881748E+03  0.00000000000E+00 0. -1.
         21   -1    0    0  501  502  0.00000000000E+00 -0.00000000000E+00 -0.64441066295E+02  0.64441066295E+02  0.00000000000E+00 0.  1.
         23    2    1    2    0    0  0.21505903309E+02 -0.39296132996E+02  0.77533356140E+02  0.12463932407E+03  0.86699768419E+02 0.  0.
         23    2    1    2    0    0  0.24287198867E+01  0.18902035061E+02  0.33165771144E+02  0.97567809287E+02  0.89757024370E+02 0.  0.
        -11    1    4    4    0    0  0.32060037302E+02  0.11230304210E+02 -0.17622672700E+02  0.38269103955E+02  0.00000000000E+00 0.  1.
         11    1    4    4    0    0 -0.29631317415E+02  0.76717308513E+01  0.50788443844E+02  0.59298705332E+02  0.00000000000E+00 0. -1.
        -11    1    3    3    0    0 -0.18589046069E+01  0.25335954415E+02  0.36902803842E+02  0.44801596443E+02  0.00000000000E+00 0.  1.
         11    1    3    3    0    0  0.23364807916E+02 -0.64632087411E+02  0.40630552298E+02  0.79837727624E+02  0.00000000000E+00 0. -1.
          3    1    1    2  501    0 -0.23934623196E+02  0.20394097935E+02  0.19768623905E+02  0.37142750426E+02  0.00000000000E+00 0. -1.
<scales pt_clust_5="13000.00000" pt_clust_6="13000.00000" pt_clust_7="13000.00000" pt_clust_8="13000.00000" pt_clust_9="31.44497"></scales>
<clustering>
<clus scale="   31.445">  2  9  1 -1</clus>
<clus scale="   86.700">  7  8 -1 -1</clus>
<clus scale="   89.757">  5  6 -1 -1</clus>
<clus scale="   92.671">  1  7  2 -1</clus>
<clus scale="   31.445">  2  5  1 -1</clus>
</clustering>
</event>
<event>
 9    1  0.1610296E-005  0.1175491E+03  0.7546771E-02  0.1248638E+00
          3   -1    0    0  502    0 -0.00000000000E+00  0.00000000000E+00  0.20442836928E+03  0.20442836928E+03  0.00000000000E+00 0. -1.
         21   -1    0    0  501  502  0.00000000000E+00 -0.00000000000E+00 -0.10517895066E+03  0.10517895066E+03  0.00000000000E+00 0.  1.
         23    2    1    2    0    0  0.43877422546E+02  0.29985653825E+02  0.47310334471E+02  0.11656530864E+03  0.92330037288E+02 0.  0.
         23    2    1    2    0    0 -0.79229910591E+02 -0.51103432042E+02  0.71471621363E+02  0.14746483523E+03  0.88026958776E+02 0.  0.
        -11    1    3    3    0    0  0.84066454652E+01  0.22592663930E+02 -0.25590663498E+02  0.35156538648E+02  0.00000000000E+00 0.  1.
         11    1    3    3    0    0  0.35470777081E+02  0.73929898956E+01  0.72900997970E+02  0.81408769990E+02  0.00000000000E+00 0. -1.
        -11    1    4    4    0    0 -0.70730110239E+02  0.61911221660E+01  0.37029261771E+02  0.80076492901E+02  0.00000000000E+00 0. -1.
         11    1    4    4    0    0 -0.84998003518E+01 -0.57294554208E+02  0.34442359592E+02  0.67388342331E+02  0.00000000000E+00 0.  1.
          3    1    1    2  501    0  0.35352488044E+02  0.21117778216E+02 -0.19532537213E+02  0.45577176061E+02  0.00000000000E+00 0. -1.
<scales pt_clust_5="13000.00000" pt_clust_6="13000.00000" pt_clust_7="13000.00000" pt_clust_8="13000.00000" pt_clust_9="41.17959"></scales>
<clustering>
<clus scale="   41.180">  2  9  1 -1</clus>
<clus scale="   88.027">  7  8 -1 -1</clus>
<clus scale="   92.330">  5  6 -1 -1</clus>
<clus scale="  114.200">  2  7  1 -1</clus>
<clus scale="   41.180">  2  5  1 -1</clus>
</clustering>
</event>
<event>
 9    1  0.1610296E-005  0.1148577E+03  0.7546771E-02  0.1259018E+00
         -1   -1    0    0    0  501 -0.00000000000E+00  0.00000000000E+00  0.73175907647E+03  0.73175907647E+03  0.00000000000E+00 0.  1.
         21   -1    0    0  501  502  0.00000000000E+00 -0.00000000000E+00 -0.42487118970E+02  0.42487118970E+02  0.00000000000E+00 0. -1.
         23    2    1    2    0    0 -0.19460238531E+00 -0.55104263691E+02  0.49974512303E+03  0.51096146258E+03  0.91103844624E+02 0.  0.
         23    2    1    2    0    0 -0.58223202365E+01  0.17233697812E+00  0.17607824883E+03  0.20641132620E+03  0.10755536602E+03 0.  0.
        -13    1    4    4    0    0 -0.35223172828E+02 -0.31547535333E+02  0.34936824233E+02  0.58792011168E+02  0.00000000000E+00 0. -1.
         13    1    4    4    0    0  0.29400852592E+02  0.31719872311E+02  0.14114142460E+03  0.14761931503E+03  0.00000000000E+00 0.  1.
        -13    1    3    3    0    0 -0.42517375833E+02 -0.44846668182E+02  0.25572419002E+03  0.26308518061E+03  0.00000000000E+00 0. -1.
         13    1    3    3    0    0  0.42322773448E+02 -0.10257595509E+02  0.24402093301E+03  0.24787628197E+03  0.00000000000E+00 0.  1.
         -1    1    1    2    0  502  0.60169226219E+01  0.54931926713E+02  0.13448585649E+02  0.56873406669E+02  0.00000000000E+00 0.  1.
<scales pt_clust_5="13000.00000" pt_clust_6="13000.00000" pt_clust_7="13000.00000" pt_clust_8="13000.00000" pt_clust_9="55.26047"></scales>
<clustering>
<clus scale="   55.260">  2  9  1 -1</clus>
<clus scale="   91.104">  7  8 -1 -1</clus>
<clus scale="   99.620">  1  7  2 -1</clus>
<clus scale="  107.555">  5  6 -1 -1</clus>
<clus scale="   55.260">  2  5  1 -1</clus>
</clustering>
</event>
<event>
 9    1  0.1610296E-005  0.1717983E+03  0.7546771E-02  0.1193164E+00
         21   -1    0    0  501  502  0.00000000000E+00  0.00000000000E+00  0.45400088582E+03  0.45400088582E+03  0.00000000000E+00 0.  1.
         -3   -1    0    0    0  501 -0.00000000000E+00 -0.00000000000E+00 -0.11081868295E+03  0.11081868295E+03  0.00000000000E+00 0.  1.
         23    2    1    2    0    0 -0.59556108661E+02  0.41991347172E+02  0.10821100040E+03  0.15945642721E+03  0.91687121525E+02 0.  0.
         23    2    1    2    0    0  0.59689839773E+02 -0.16079743884E+03  0.20572429655E+03  0.28301001815E+03  0.91397433618E+02 0.  0.
        -13    1    4    4    0    0  0.55963309715E+01 -0.35896153034E+02 -0.53855786359E-02  0.36329777758E+02  0.00000000000E+00 0. -1.
         13    1    4    4    0    0  0.54093508802E+02 -0.12490128581E+03  0.20572968213E+03  0.24668024039E+03  0.00000000000E+00 0.  1.
        -13    1    3    3    0    0 -0.45374584013E+02  0.24915552327E+02  0.12254767930E+03  0.13303221912E+03  0.00000000000E+00 0.  1.
         13    1    3    3    0    0 -0.14181524648E+02  0.17075794845E+02 -0.14336678902E+02  0.26424208084E+02  0.00000000000E+00 0. -1.
         -3    1    1    2    0  502 -0.13373111232E+00  0.11880609167E+03  0.29246905918E+02  0.12235312341E+03  0.00000000000E+00 0.  1.
<scales pt_clust_5="13000.00000" pt_clust_6="13000.00000" pt_clust_7="13000.00000" pt_clust_8="13000.00000" pt_clust_9="145.46881"></scales>
<clustering>
<clus scale="   91.397">  5  6 -1 -1</clus>
<clus scale="   91.687">  7  8 -1 -1</clus>
<clus scale="  117.119">  2  7  1 -1</clus>
<clus scale="  145.469">  1  9  2 -1</clus>
<clus scale="  145.469">  1  5  2 -1</clus>
</clustering>
</event>
<event>
 9    1  0.1610296E-005  0.1232984E+03  0.7546771E-02  0.1237775E+00
         21   -1    0    0  501  502  0.00000000000E+00  0.00000000000E+00  0.23985157617E+03  0.23985157617E+03  0.00000000000E+00 0.  1.
          1   -1    0    0  502    0 -0.00000000000E+00 -0.00000000000E+00 -0.28510501989E+03  0.28510501989E+03  0.00000000000E+00 0. -1.
         23    2    1    2    0    0  0.20920368297E+02 -0.81358188022E+02 -0.24291071596E+03  0.27271510118E+03  0.91165201219E+02 0.  0.
         23    2    1    2    0    0  0.98883096141E+01  0.76688747288E+02  0.12406875424E+03  0.17232748927E+03  0.91240150989E+02 0.  0.
        -11    1    3    3    0    0 -0.17226487052E+02 -0.25153999574E+02 -0.13290372916E+02  0.33258225493E+02  0.00000000000E+00 0.  1.
         11    1    3    3    0    0  0.38146855348E+02 -0.56204188448E+02 -0.22962034305E+03  0.23945687569E+03  0.00000000000E+00 0. -1.
        -13    1    4    4    0    0  0.15143148482E+02  0.96852358004E+02  0.94557798224E+02  0.13620158370E+03  0.00000000000E+00 0.  1.
         13    1    4    4    0    0 -0.52548388682E+01 -0.20163610715E+02  0.29510956013E+02  0.36125905572E+02  0.00000000000E+00 0. -1.
          1    1    1    2  501    0 -0.30808677911E+02  0.46694407337E+01  0.73588518000E+02  0.79914005611E+02  0.00000000000E+00 0. -1.
<scales pt_clust_5="13000.00000" pt_clust_6="13000.00000" pt_clust_7="13000.00000" pt_clust_8="13000.00000" pt_clust_9="31.16052"></scales>
<clustering>
<clus scale="   31.161">  1  9  2 -1</clus>
<clus scale="   91.165">  5  6 -1 -1</clus>
<clus scale="   91.240">  7  8 -1 -1</clus>
<clus scale="  123.243">  2  5  1 -1</clus>
<clus scale="   31.161">  1  5  2 -1</clus>
</clustering>
</event>
<event>
 9    1  0.1610296E-005  0.9651146E+02  0.7546771E-02  0.1288188E+00
          2   -1    0    0  502    0 -0.00000000000E+00  0.00000000000E+00  0.39125525819E+03  0.39125525819E+03  0.00000000000E+00 0. -1.
         21   -1    0    0  501  502  0.00000000000E+00 -0.00000000000E+00 -0.11685368867E+03  0.11685368867E+03  0.00000000000E+00 0. -1.
         23    2    1    2    0    0  0.24708460432E+02 -0.40780155129E+01  0.33159268980E+03  0.34525191153E+03  0.92833357465E+02 0.  0.
         23    2    1    2    0    0 -0.15724197397E+02 -0.36107533350E+02 -0.12783943471E+02  0.10229638248E+03  0.93542056368E+02 0.  0.
        -11    1    3    3    0    0  0.26362113413E+02  0.37808451974E+02  0.24183330580E+03  0.24618649000E+03  0.00000000000E+00 0. -1.
         11    1    3    3    0    0 -0.16536529810E+01 -0.41886467487E+02  0.89759384003E+02  0.99065421532E+02  0.00000000000E+00 0.  1.
        -11    1    4    4    0    0  0.10468670780E+01  0.29389266580E+02 -0.18010392655E+02  0.34484767135E+02  0.00000000000E+00 0.  1.
         11    1    4    4    0    0 -0.16771064475E+02 -0.65496799930E+02  0.52264491841E+01  0.67811615345E+02  0.00000000000E+00 0. -1.
          2    1    1    2  501    0 -0.89842630358E+01  0.40185548863E+02 -0.44407176822E+02  0.60560652845E+02  0.00000000000E+00 0. -1.
<scales pt_clust_5="13000.00000" pt_clust_6="13000.00000" pt_clust_7="13000.00000" pt_clust_8="13000.00000" pt_clust_9="41.17761"></scales>
<clustering>
<clus scale="   41.178">  2  9  1 -1</clus>
<clus scale="   92.833">  5  6 -1 -1</clus>
<clus scale="   93.542">  7  8 -1 -1</clus>
<clus scale="   95.825">  1  5  2 -1</clus>
<clus scale="   41.178">  2  5  1 -1</clus>
</clustering>
</event>
<event>
 9    1  0.1610296E-005  0.1603097E+03  0.7546771E-02  0.1188850E+00
          2   -1    0    0  502    0 -0.00000000000E+00  0.00000000000E+00  0.91403715080E+03  0.91403715080E+03  0.00000000000E+00 0. -1.
         21   -1    0    0  501  502  0.00000000000E+00 -0.00000000000E+00 -0.62252293073E+02  0.62252293073E+02  0.00000000000E+00 0. -1.
         23    2    1    2    0    0  0.73966356703E+01 -0.13700082380E+03  0.53154853469E+03  0.55651574562E+03  0.91334519522E+02 0.  0.
         23    2    1    2    0    0 -0.39222348227E+02  0.11570632913E+03  0.34235353464E+03  0.37555263391E+03  0.94379504958E+02 0.  0.
        -11    1    4    4    0    0 -0.89508184759E+01  0.11994660050E+03  0.30088635485E+03  0.32403688472E+03  0.00000000000E+00 0. -1.
         11    1    4    4    0    0 -0.30271529751E+02 -0.42402713788E+01  0.41467179783E+02  0.51515749184E+02  0.00000000000E+00 0.  1.
        -13    1    3    3    0    0  0.75721141907E+01 -0.21938032572E+02  0.15770992254E+02  0.28059550657E+02  0.00000000000E+00 0.  1.
         13    1    3    3    0    0 -0.17547852037E+00 -0.11506279122E+03  0.51577754243E+03  0.52845619496E+03  0.00000000000E+00 0. -1.
          2    1    1    2  501    0  0.31825712556E+02  0.21294494670E+02 -0.22117211597E+02  0.44221064345E+02  0.00000000000E+00 0. -1.
<scales pt_clust_5="13000.00000" pt_clust_6="13000.00000" pt_clust_7="13000.00000" pt_clust_8="13000.00000" pt_clust_9="38.29271"></scales>
<clustering>
<clus scale="   38.293">  2  9  1 -1</clus>
<clus scale="   91.335">  7  8 -1 -1</clus>
<clus scale="   94.380">  5  6 -1 -1</clus>
<clus scale="  158.536">  1  7  2 -1</clus>
<clus scale="   38.293">  2  5  1 -1</clus>
</clustering>
</event>
<event>
 9    1  0.1610296E-005  0.1487267E+03  0.7546771E-02  0.1202055E+00
          2   -1    0    0  502    0 -0.00000000000E+00  0.00000000000E+00  0.11194795410E+04  0.11194795410E+04  0.00000000000E+00 0. -1.
         21   -1    0    0  501  502  0.00000000000E+00 -0.00000000000E+00 -0.47941182000E+02  0.47941182000E+02  0.00000000000E+00 0. -1.
         23    2    1    2    0    0  0.96349482542E+02  0.85266824777E+02  0.63098920966E+03  0.65044325288E+03  0.91517147636E+02 0.  0.
         23    2    1    2    0    0 -0.45321560661E+02 -0.99654377709E+02  0.44145558699E+03  0.46395226745E+03  0.91562177406E+02 0.  0.
        -13    1    3    3    0    0  0.26306239086E+02 -0.16256238388E+02  0.78889995107E+02  0.84734378084E+02  0.00000000000E+00 0.  1.
         13    1    3    3    0    0  0.70043243456E+02  0.10152306317E+03  0.55209921455E+03  0.56570887479E+03  0.00000000000E+00 0. -1.
        -13    1    4    4    0    0 -0.47634941574E+02 -0.16797470140E+02  0.25422449416E+03  0.25919362664E+03  0.00000000000E+00 0.  1.
         13    1    4    4    0    0  0.23133809127E+01 -0.82856907568E+02  0.18723109283E+03  0.20475864081E+03  0.00000000000E+00 0. -1.
          2    1    1    2  501    0 -0.51027921881E+02  0.14387552931E+02 -0.90643763556E+00  0.53025202687E+02  0.00000000000E+00 0. -1.
<scales pt_clust_5="13000.00000" pt_clust_6="13000.00000" pt_clust_7="13000.00000" pt_clust_8="13000.00000" pt_clust_9="53.01745"></scales>
<clustering>
<clus scale="   53.017">  2  9  1 -1</clus>
<clus scale="   91.517">  5  6 -1 -1</clus>
<clus scale="   91.562">  7  8 -1 -1</clus>
<clus scale="  148.699">  1  5  2 -1</clus>
<clus scale="   53.017">  2  5  1 -1</clus>
</clustering>
</event>
<event>
 9    1  0.1610296E-005  0.1151742E+03  0.7546771E-02  0.1251976E+00
          2   -1    0    0  502    0 -0.00000000000E+00  0.00000000000E+00  0.53204805323E+02  0.53204805323E+02  0.00000000000E+00 0. -1.
         21   -1    0    0  501  502  0.00000000000E+00 -0.00000000000E+00 -0.79423235760E+03  0.79423235760E+03  0.00000000000E+00 0. -1.
         23    2    1    2    0    0  0.25846072430E+02  0.80846819488E+02 -0.85638043675E+02  0.15038567339E+03  0.89876295844E+02 0.  0.
         23    2    1    2    0    0 -0.73155724734E+02 -0.84845303763E+01 -0.18873380496E+03  0.22245476617E+03  0.91879957227E+02 0.  0.
        -13    1    4    4    0    0 -0.37335808152E+02  0.30891500061E+02 -0.35029513947E+02  0.59793931078E+02  0.00000000000E+00 0. -1.
         13    1    4    4    0    0 -0.35819916582E+02 -0.39376030438E+02 -0.15370429102E+03  0.16266083510E+03  0.00000000000E+00 0.  1.
        -13    1    3    3    0    0  0.54625718287E+02  0.23940608680E+02 -0.37024486127E+02  0.70199247968E+02  0.00000000000E+00 0.  1.
         13    1    3    3    0    0 -0.28779645857E+02  0.56906210808E+02 -0.48613557549E+02  0.80186425420E+02  0.00000000000E+00 0. -1.
          2    1    1    2  501    0  0.47309652304E+02 -0.72362289112E+02 -0.46665570364E+03  0.47459672336E+03  0.00000000000E+00 0. -1.
<scales pt_clust_5="13000.00000" pt_clust_6="13000.00000" pt_clust_7="13000.00000" pt_clust_8="13000.00000" pt_clust_9="86.45521"></scales>
<clustering>
<clus scale="   86.455">  2  9  1 -1</clus>
<clus scale="   89.876">  7  8 -1 -1</clus>
<clus scale="   91.880">  5  6 -1 -1</clus>
<clus scale="  113.582">  1  7  2 -1</clus>
<clus scale="   86.455">  2  5  1 -1</clus>
</clustering>
</event>
<event>
 9    1  0.1610296E-005  0.1010556E+03  0.7546771E-02  0.1282178E+00
         21   -1    0    0  501  502  0.00000000000E+00  0.00000000000E+00  0.15420446789E+03  0.15420446789E+03  0.00000000000E+00 0.  1.
          3   -1    0    0  502    0 -0.00000000000E+00 -0.00000000000E+00 -0.13387958737E+03  0.13387958737E+03  0.00000000000E+00 0. -1.
         23    2    1    2    0    0 -0.15357327837E+01 -0.20227724823E+02 -0.59634833898E+02  0.11817168766E+03  0.99983573770E+02 0.  0.
         23    2    1    2    0    0  0.26685199312E+02 -0.80001115369E+01  0.19183094801E+02  0.98336506408E+02  0.92336210229E+02 0.  0.
        -11    1    4    4    0    0  0.53676296706E+02  0.34431087173E+00 -0.13285887835E+02  0.55297180702E+02  0.00000000000E+00 0. -1.
         11    1    4    4    0    0 -0.26991097394E+02 -0.83444224086E+01  0.32468982636E+02  0.43039325707E+02  0.00000000000E+00 0.  1.
        -13    1    3    3    0    0  0.43524553956E+02 -0.20476550398E+02 -0.54700954008E+02  0.72841405001E+02  0.00000000000E+00 0. -1.
         13    1    3    3    0    0 -0.45060286739E+02  0.24882557452E+00 -0.49338798903E+01  0.45330282659E+02  0.00000000000E+00 0.  1.
          3    1    1    2  501    0 -0.25149466528E+02  0.28227836360E+02  0.60776619622E+02  0.71575861188E+02  0.00000000000E+00 0. -1.
<scales pt_clust_5="13000.00000" pt_clust_6="13000.00000" pt_clust_7="13000.00000" pt_clust_8="13000.00000" pt_clust_9="37.80617"></scales>
<clustering>
<clus scale="   37.806">  1  9  2 -1</clus>
<clus scale="   92.336">  5  6 -1 -1</clus>
<clus scale="   93.496">  1  5  2 -1</clus>
<clus scale="   99.984">  7  8 -1 -1</clus>
<clus scale="   37.806">  1  5  2 -1</clus>
</clustering>
</event>
<event>
 9    1  0.1610296E-005  0.9456477E+02  0.7546771E-02  0.1294130E+00
         21   -1    0    0  501  502  0.00000000000E+00  0.00000000000E+00  0.42584711125E+02  0.42584711125E+02  0.00000000000E+00 0.  1.
          2   -1    0    0  502    0 -0.00000000000E+00 -0.00000000000E+00 -0.29887637422E+03  0.29887637422E+03  0.00000000000E+00 0. -1.
         23    2    1    2    0    0 -0.17771697564E+02 -0.11862594159E+02 -0.13656964191E+03  0.16513714582E+03  0.90346308524E+02 0.  0.
         23    2    1    2    0    0 -0.64295309382E+01  0.82955292954E+01 -0.11896332906E+03  0.15184948291E+03  0.93786124369E+02 0.  0.
        -13    1    3    3    0    0 -0.40875622881E+02  0.25622117660E+02 -0.62287593028E+02  0.78784857077E+02  0.00000000000E+00 0.  1.
         13    1    3    3    0    0  0.23103925318E+02 -0.37484711820E+02 -0.74282048880E+02  0.86352288743E+02  0.00000000000E+00 0. -1.
        -13    1    4    4    0    0  0.27536434434E+01 -0.42485847206E+02 -0.48988883765E+02  0.64904086909E+02  0.00000000000E+00 0. -1.
         13    1    4    4    0    0 -0.91831743817E+01  0.50781376501E+02 -0.69974445297E+02  0.86945396001E+02  0.00000000000E+00 0.  1.
          2    1    1    2  501    0  0.24201228502E+02  0.35670648639E+01 -0.75869212061E+00  0.24474456613E+02  0.00000000000E+00 0. -1.
<scales pt_clust_5="13000.00000" pt_clust_6="13000.00000" pt_clust_7="13000.00000" pt_clust_8="13000.00000" pt_clust_9="24.46269"></scales>
<clustering>
<clus scale="   24.463">  1  9  2 -1</clus>
<clus scale="   90.346">  5  6 -1 -1</clus>
<clus scale="   91.154">  2  5  1 -1</clus>
<clus scale="   93.786">  7  8 -1 -1</clus>
<clus scale="   24.463">  1  5  2 -1</clus>
</clustering>
</event>
<event>
 9    1  0.1610296E-005  0.1168075E+03  0.7546771E-02  0.1248976E+00
         21   -1    0    0  501  502  0.00000000000E+00  0.00000000000E+00  0.29669820610E+03  0.29669820610E+03  0.00000000000E+00 0.  1.
         -2   -1    0    0    0  501 -0.00000000000E+00 -0.00000000000E+00 -0.74128267123E+02  0.74128267123E+02  0.00000000000E+00 0.  1.
         23    2    1    2    0    0  0.37855805500E+02 -0.50201523218E+02  0.47562798368E+02  0.12084640608E+03  0.91588094920E+02 0.  0.
         23    2    1    2    0    0 -0.53712905804E+02  0.65240119422E+02  0.68424492264E+02  0.14117993877E+03  0.90047290555E+02 0.  0.
        -11    1    3    3    0    0 -0.27695423291E+02 -0.32625919036E+02  0.23612551842E+02  0.48877803436E+02  0.00000000000E+00 0.  1.
         11    1    3    3    0    0  0.65551228791E+02 -0.17575604182E+02  0.23950246526E+02  0.71968602647E+02  0.00000000000E+00 0. -1.
        -13    1    4    4    0    0 -0.55702881288E+02  0.25053183055E+02  0.78731135088E+02  0.99644691766E+02  0.00000000000E+00 0.  1.
         13    1    4    4    0    0  0.19899754847E+01  0.40186936368E+02 -0.10306642824E+02  0.41535247000E+02  0.00000000000E+00 0. -1.
         -2    1    1    2    0  502  0.15857100304E+02 -0.15038596204E+02  0.10658264835E+03  0.10880012837E+03  0.00000000000E+00 0.  1.
<scales pt_clust_5="13000.00000" pt_clust_6="13000.00000" pt_clust_7="13000.00000" pt_clust_8="13000.00000" pt_clust_9="21.85422"></scales>
<clustering>
<clus scale="   21.854">  1  9  2 -1</clus>
<clus scale="   90.047">  7  8 -1 -1</clus>
<clus scale="   91.588">  5  6 -1 -1</clus>
<clus scale="  115.603">  1  7  2 -1</clus>
<clus scale="   21.854">  1  5  2 -1</clus>
</clustering>
</event>
<event>
 9    1  0.1610296E-005  0.1608698E+03  0.7546771E-02  0.1187884E+00
         21   -1    0    0  501  502  0.00000000000E+00  0.00000000000E+00  0.19034117871E+03  0.19034117871E+03  0.00000000000E+00 0.  1.
          2   -1    0    0  502    0 -0.00000000000E+00 -0.00000000000E+00 -0.22294913338E+03  0.22294913338E+03  0.00000000000E+00 0. -1.
         23    2    1    2    0    0 -0.12233742451E+03  0.36226079467E+02 -0.47035254983E+02  0.16320353942E+03  0.90245807656E+02 0.  0.
         23    2    1    2    0    0  0.14401345059E+03 -0.15276503723E+02  0.71513676974E+02  0.18552990448E+03  0.91290163477E+02 0.  0.
        -11    1    4    4    0    0  0.12448872317E+03 -0.46597869813E+02  0.45988224004E+02  0.14065461392E+03  0.00000000000E+00 0.  1.
         11    1    4    4    0    0  0.19524727412E+02  0.31321366090E+02  0.25525452970E+02  0.44875290568E+02  0.00000000000E+00 0. -1.
        -11    1    3    3    0    0 -0.91157687845E+02 -0.17915631024E+02 -0.19495098554E+02  0.94924984887E+02  0.00000000000E+00 0.  1.
         11    1    3    3    0    0 -0.31179736666E+02  0.54141710491E+02 -0.27540156430E+02  0.68278554537E+02  0.00000000000E+00 0. -1.
          2    1    1    2  501    0 -0.21676026074E+02 -0.20949575744E+02 -0.57086376657E+02  0.64556868187E+02  0.00000000000E+00 0. -1.
<scales pt_clust_5="13000.00000" pt_clust_6="13000.00000" pt_clust_7="13000.00000" pt_clust_8="13000.00000" pt_clust_9="30.14524"></scales>
<clustering>
<clus scale="   30.145">  1  9  2 -1</clus>
<clus scale="   90.246">  7  8 -1 -1</clus>
<clus scale="   91.290">  5  6 -1 -1</clus>
<clus scale="  160.279">  2  7  1 -1</clus>
<clus scale="   30.145">  1  5  2 -1</clus>
</clustering>
</event>
<event>
 9    1  0.1610296E-005  0.1446033E+03  0.7546771E-02  0.1208281E+00
         21   -1    0    0  501  502  0.00000000000E+00  0.00000000000E+00  0.20691349719E+03  0.20691349719E+03  0.00000000000E+00 0. -1.
         -1   -1    0    0    0  501 -0.00000000000E+00 -0.00000000000E+00 -0.17531582709E+03  0.17531582709E+03  0.00000000000E+00 0.  1.
         23    2    1    2    0    0 -0.98471998098E+02  0.11970864003E+00 -0.23070721279E+02  0.13954418970E+03  0.96143507110E+02 0.  0.
         23    2    1    2    0    0  0.11768400956E+03 -0.81663809919E+01 -0.32783477143E+02  0.15278697203E+03  0.91394127616E+02 0.  0.
        -11    1    4    4    0    0  0.69389395378E+02 -0.49040339005E+02 -0.27446938151E+02  0.89292650619E+02  0.00000000000E+00 0.  1.
         11    1    4    4    0    0  0.48294614186E+02  0.40873958013E+02 -0.53365389923E+01  0.63494321411E+02  0.00000000000E+00 0. -1.
        -13    1    3    3    0    0 -0.17250612829E+02 -0.42360521835E+02 -0.11459506289E+02  0.47152070342E+02  0.00000000000E+00 0.  1.
         13    1    3    3    0    0 -0.81221385269E+02  0.42480230475E+02 -0.11611214989E+02  0.92392119359E+02  0.00000000000E+00 0. -1.
         -1    1    1    2    0  502 -0.19212011467E+02  0.80466723519E+01  0.87451868521E+02  0.89898162542E+02  0.00000000000E+00 0.  1.
<scales pt_clust_5="13000.00000" pt_clust_6="13000.00000" pt_clust_7="13000.00000" pt_clust_8="13000.00000" pt_clust_9="20.82907"></scales>
<clustering>
<clus scale="   20.829">  1  9  2 -1</clus>
<clus scale="   91.394">  5  6 -1 -1</clus>
<clus scale="   96.144">  7  8 -1 -1</clus>
<clus scale="  141.490">  1  5  2 -1</clus>
<clus scale="   20.829">  1  5  2 -1</clus>
</clustering>
</event>
<event>
 9    1  0.1610296E-005  0.1610322E+03  0.7546771E-02  0.1187607E+00
          1   -1    0    0  502    0 -0.00000000000E+00  0.00000000000E+00  0.10428668628E+04  0.10428668628E+04  0.00000000000E+00 0. -1.
         21   -1    0    0  501  502  0.00000000000E+00 -0.00000000000E+00 -0.51802527820E+02  0.51802527820E+02  0.00000000000E+00 0. -1.
         23    2    1    2    0    0  0.84806860864E+02 -0.75665979512E+02  0.29939982605E+03  0.33254039888E+03  0.89584133341E+02 0.  0.
         23    2    1    2    0    0 -0.17417897345E+03  0.87591660145E+00  0.50895619342E+03  0.54541891681E+03  0.90035026312E+02 0.  0.
        -11    1    4    4    0    0 -0.98096352329E+02 -0.19457745318E+02  0.39101529081E+03  0.40360185312E+03  0.00000000000E+00 0. -1.
         11    1    4    4    0    0 -0.76082621120E+02  0.20333661919E+02  0.11794090262E+03  0.14181706369E+03  0.00000000000E+00 0.  1.
        -13    1    3    3    0    0  0.39405855858E+02 -0.58382736087E+02  0.74789777272E+02  0.10273692682E+03  0.00000000000E+00 0. -1.
         13    1    3    3    0    0  0.45401005006E+02 -0.17283243425E+02  0.22461004878E+03  0.22980347206E+03  0.00000000000E+00 0.  1.
          1    1    1    2  501    0  0.89372112586E+02  0.74790062911E+02  0.18270831546E+03  0.21671007488E+03  0.00000000000E+00 0. -1.
<scales pt_clust_5="13000.00000" pt_clust_6="13000.00000" pt_clust_7="13000.00000" pt_clust_8="13000.00000" pt_clust_9="116.53724"></scales>
<clustering>
<clus scale="   89.584">  7  8 -1 -1</clus>
<clus scale="   90.035">  5  6 -1 -1</clus>
<clus scale="  116.537">  2  9  1 -1</clus>
<clus scale="  160.781">  1  7  2 -1</clus>
<clus scale="  116.537">  2  5  1 -1</clus>
</clustering>
</event>
<event>
 9    1  0.1610296E-005  0.1030846E+03  0.7546771E-02  0.1274174E+00
          1   -1    0    0  502    0 -0.00000000000E+00  0.00000000000E+00  0.49453191484E+03  0.49453191484E+03  0.00000000000E+00 0. -1.
         21   -1    0    0  501  502  0.00000000000E+00 -0.00000000000E+00 -0.84695339359E+02  0.84695339359E+02  0.00000000000E+00 0. -1.
         23    2    1    2    0    0  0.25365937464E+02  0.48800673352E+02  0.39295254995E+03  0.40724918580E+03  0.91734706197E+02 0.  0.
         23    2    1    2    0    0 -0.19838184630E+02 -0.32669451688E+01  0.57638176856E+02  0.11062028728E+03  0.92252165433E+02 0.  0.
        -11    1    3    3    0    0  0.45604980817E+02 -0.62796804540E+01  0.13254711811E+03  0.14031388805E+03  0.00000000000E+00 0.  1.
         11    1    3    3    0    0 -0.20239043353E+02  0.55080353806E+02  0.26040543184E+03  0.26693529775E+03  0.00000000000E+00 0. -1.
        -11    1    4    4    0    0 -0.33237496501E+02  0.37749716851E+02  0.38867194094E+02  0.63564385254E+02  0.00000000000E+00 0. -1.
         11    1    4    4    0    0  0.13399311871E+02 -0.41016662020E+02  0.18770982763E+02  0.47055902029E+02  0.00000000000E+00 0.  1.
          1    1    1    2  501    0 -0.55277528339E+01 -0.45533728183E+02 -0.40754151322E+02  0.61357781117E+02  0.00000000000E+00 0. -1.
<scales pt_clust_5="13000.00000" pt_clust_6="13000.00000" pt_clust_7="13000.00000" pt_clust_8="13000.00000" pt_clust_9="45.86803"></scales>
<clustering>
<clus scale="   45.868">  2  9  1 -1</clus>
<clus scale="   91.735">  5  6 -1 -1</clus>
<clus scale="   92.252">  7  8 -1 -1</clus>
<clus scale="  102.622">  1  5  2 -1</clus>
<clus scale="   45.868">  2  5  1 -1</clus>
</clustering>
</event>
<event>
 9    1  0.1610296E-005  0.1980826E+03  0.7546771E-02  0.1151409E+00
         21   -1    0    0  501  502  0.00000000000E+00  0.00000000000E+00  0.11881379157E+03  0.11881379157E+03  0.00000000000E+00 0.  1.
          1   -1    0    0  502    0 -0.00000000000E+00 -0.00000000000E+00 -0.76867988383E+03  0.76867988383E+03  0.00000000000E+00 0. -1.
         23    2    1    2    0    0 -0.16137875229E+03 -0.52957107578E+02 -0.46806305636E+03  0.50615033701E+03  0.90871238545E+02 0.  0.
         23    2    1    2    0    0  0.19814293506E+03 -0.34934210668E+01 -0.21515072820E+03  0.30617462216E+03  0.90444661015E+02 0.  0.
        -11    1    4    4    0    0  0.76686168944E+02 -0.43721312518E+02 -0.69819129898E+02  0.11254791235E+03  0.00000000000E+00 0. -1.
         11    1    4    4    0    0  0.12145676611E+03  0.40227891451E+02 -0.14533159830E+03  0.19362670981E+03  0.00000000000E+00 0.  1.
        -13    1    3    3    0    0 -0.13935668149E+03 -0.50864747645E+01 -0.35518349423E+03  0.38157760871E+03  0.00000000000E+00 0. -1.
         13    1    3    3    0    0 -0.22022070806E+02 -0.47870632813E+02 -0.11287956213E+03  0.12457272830E+03  0.00000000000E+00 0.  1.
          1    1    1    2  501    0 -0.36764182763E+02  0.56450528644E+02  0.33347692290E+02  0.75168716229E+02  0.00000000000E+00 0. -1.
<scales pt_clust_5="13000.00000" pt_clust_6="13000.00000" pt_clust_7="13000.00000" pt_clust_8="13000.00000" pt_clust_9="67.36666"></scales>
<clustering>
<clus scale="   67.367">  1  9  2 -1</clus>
<clus scale="   90.445">  5  6 -1 -1</clus>
<clus scale="   90.871">  7  8 -1 -1</clus>
<clus scale="  197.887">  1  5  2 -1</clus>
<clus scale="   67.367">  1  5  2 -1</clus>
</clustering>
</event>
<event>
 9    1  0.1610296E-005  0.1228989E+03  0.7546771E-02  0.1255375E+00
         21   -1    0    0  501  502  0.00000000000E+00  0.00000000000E+00  0.26903444643E+03  0.26903444643E+03  0.00000000000E+00 0. -1.
          3   -1    0    0  502    0 -0.00000000000E+00 -0.00000000000E+00 -0.85191367031E+02  0.85191367031E+02  0.00000000000E+00 0. -1.
         23    2    1    2    0    0  0.25554176062E+01  0.17278462157E+02  0.65183294958E+02  0.10901438237E+03  0.85616576710E+02 0.  0.
         23    2    1    2    0    0  0.67305419113E+01  0.71974341484E+02  0.29032037373E+02  0.11838310206E+03  0.89140863988E+02 0.  0.
        -11    1    3    3    0    0 -0.22519647954E+02 -0.25750988493E+02  0.41747694267E+02  0.53973307560E+02  0.00000000000E+00 0.  1.
         11    1    3    3    0    0  0.25075065560E+02  0.43029450650E+02  0.23435600691E+02  0.55041074806E+02  0.00000000000E+00 0. -1.
        -13    1    4    4    0    0  0.42688776262E+02  0.11841501495E+02  0.16100830176E+02  0.47135862236E+02  0.00000000000E+00 0. -1.
         13    1    4    4    0    0 -0.35958234350E+02  0.60132839989E+02  0.12931207197E+02  0.71247239823E+02  0.00000000000E+00 0.  1.
          3    1    1    2  501    0 -0.92859595175E+01 -0.89252803641E+02  0.89627747069E+02  0.12682832904E+03  0.00000000000E+00 0. -1.
<scales pt_clust_5="13000.00000" pt_clust_6="13000.00000" pt_clust_7="13000.00000" pt_clust_8="13000.00000" pt_clust_9="84.60529"></scales>
<clustering>
<clus scale="   85.617">  5  6 -1 -1</clus>
<clus scale="   87.380">  2  5  1 -1</clus>
<clus scale="   84.605">  1  9  2 -1</clus>
<clus scale="   89.141">  7  8 -1 -1</clus>
<clus scale="   84.605">  1  5  2 -1</clus>
</clustering>
</event>
<event>
 9    1  0.1610296E-005  0.2578849E+03  0.7546771E-02  0.1144665E+00
         21   -1    0    0  501  502  0.00000000000E+00  0.00000000000E+00  0.25121758569E+03  0.25121758569E+03  0.00000000000E+00 0. -1.
          1   -1    0    0  502    0 -0.00000000000E+00 -0.00000000000E+00 -0.74089324295E+03  0.74089324295E+03  0.00000000000E+00 0. -1.
         23    2    1    2    0    0 -0.87585552809E+01  0.54009359840E+02 -0.23311605986E+02  0.10782354567E+03  0.89937549363E+02 0.  0.
         23    2    1    2    0    0 -0.22634150501E+03 -0.91795724607E+02 -0.56742092675E+03  0.62561308675E+03  0.98834681413E+02 0.  0.
        -11    1    3    3    0    0  0.27496065881E+02  0.59918212262E+02 -0.33356148461E+01  0.66010242584E+02  0.00000000000E+00 0.  1.
         11    1    3    3    0    0 -0.36254621162E+02 -0.59088524222E+01 -0.19975991140E+02  0.41813303082E+02  0.00000000000E+00 0. -1.
        -13    1    4    4    0    0 -0.89862719468E+02  0.11218322788E+02 -0.16171443401E+03  0.18534486042E+03  0.00000000000E+00 0.  1.
         13    1    4    4    0    0 -0.13647878554E+03 -0.10301404740E+03 -0.40570649274E+03  0.44026822633E+03  0.00000000000E+00 0. -1.
          1    1    1    2  501    0  0.23510006029E+03  0.37786364767E+02  0.10105687547E+03  0.25867419622E+03  0.00000000000E+00 0. -1.
<scales pt_clust_5="13000.00000" pt_clust_6="13000.00000" pt_clust_7="13000.00000" pt_clust_8="13000.00000" pt_clust_9="238.19392"></scales>
<clustering>
<clus scale="   89.938">  5  6 -1 -1</clus>
<clus scale="   98.835">  7  8 -1 -1</clus>
<clus scale="  105.273">  2  5  1 -1</clus>
<clus scale="  238.194">  1  9  2 -1</clus>
<clus scale="  238.194">  1  5  2 -1</clus>
</clustering>
</event>
<event>
 9    1  0.1610296E-005  0.9952553E+02  0.7546771E-02  0.1282344E+00
         21   -1    0    0  501  502  0.00000000000E+00  0.00000000000E+00  0.58428063436E+02  0.58428063436E+02  0.00000000000E+00 0.  1.
         -1   -1    0    0    0  501 -0.00000000000E+00 -0.00000000000E+00 -0.45878847085E+03  0.45878847085E+03  0.00000000000E+00 0.  1.
         23    2    1    2    0    0 -0.59264314584E+02  0.16606039101E+02 -0.27544779299E+03  0.29641478680E+03  0.90566106513E+02 0.  0.
         23    2    1    2    0    0 -0.49850481632E+01 -0.10947768152E+02 -0.12529051321E+03  0.15630260447E+03  0.92671932810E+02 0.  0.
        -11    1    4    4    0    0  0.13074225451E+02  0.21760644077E+02  0.18039972037E+00  0.25386877434E+02  0.00000000000E+00 0.  1.
         11    1    4    4    0    0 -0.18059273614E+02 -0.32708412228E+02 -0.12547091293E+03  0.13091572703E+03  0.00000000000E+00 0. -1.
        -13    1    3    3    0    0 -0.67344929100E+01  0.47883536155E+02 -0.12350615325E+03  0.13263467239E+03  0.00000000000E+00 0. -1.
         13    1    3    3    0    0 -0.52529821674E+02 -0.31277497054E+02 -0.15194163974E+03  0.16378011440E+03  0.00000000000E+00 0.  1.
         -1    1    1    2    0  502  0.64249362748E+02 -0.56582709497E+01  0.37789878181E+00  0.64499143026E+02  0.00000000000E+00 0.  1.
<scales pt_clust_5="13000.00000" pt_clust_6="13000.00000" pt_clust_7="13000.00000" pt_clust_8="13000.00000" pt_clust_9="64.49804"></scales>
<clustering>
<clus scale="   64.498">  1  9  2 -1</clus>
<clus scale="   90.566">  7  8 -1 -1</clus>
<clus scale="   92.672">  5  6 -1 -1</clus>
<clus scale="   97.568">  2  7  1 -1</clus>
<clus scale="   64.498">  1  5  2 -1</clus>
</clustering>
</event>
<event>
 9    1  0.1610296E-005  0.1069367E+03  0.7546771E-02  0.1269252E+00
         21   -1    0    0  501  502  0.00000000000E+00  0.00000000000E+00  0.19516338079E+03  0.19516338079E+03  0.00000000000E+00 0. -1.
          1   -1    0    0  502    0 -0.00000000000E+00 -0.00000000000E+00 -0.34105133167E+03  0.34105133167E+03  0.00000000000E+00 0. -1.
         23    2    1    2    0    0 -0.38421451805E+02  0.42474387537E+02 -0.28103007748E+03  0.29867599505E+03  0.83361645950E+02 0.  0.
         23    2    1    2    0    0  0.74033336407E+02 -0.56694802097E+01  0.30249481558E+02  0.12081136622E+03  0.90372989152E+02 0.  0.
        -11    1    4    4    0    0 -0.20451592059E+02 -0.67764591944E+00  0.14039823923E+02  0.24816193856E+02  0.00000000000E+00 0.  1.
         11    1    4    4    0    0  0.94484928465E+02 -0.49918342903E+01  0.16209657635E+02  0.95995172365E+02  0.00000000000E+00 0. -1.
        -13    1    3    3    0    0  0.22623992464E+02  0.73903339565E+01 -0.31980179740E+02  0.39864695750E+02  0.00000000000E+00 0.  1.
         13    1    3    3    0    0 -0.61045444269E+02  0.35084053581E+02 -0.24904989774E+03  0.25881129930E+03  0.00000000000E+00 0. -1.
          1    1    1    2  501    0 -0.35611884601E+02 -0.36804907327E+02  0.10489264505E+03  0.11672735118E+03  0.00000000000E+00 0. -1.
<scales pt_clust_5="13000.00000" pt_clust_6="13000.00000" pt_clust_7="13000.00000" pt_clust_8="13000.00000" pt_clust_9="51.21335"></scales>
<clustering>
<clus scale="   51.213">  1  9  2 -1</clus>
<clus scale="   83.362">  7  8 -1 -1</clus>
<clus scale="   90.373">  5  6 -1 -1</clus>
<clus scale="  101.081">  2  7  1 -1</clus>
<clus scale="   51.213">  1  5  2 -1</clus>
</clustering>
</event>
<event>
 9    1  0.1610296E-005  0.1636398E+03  0.7546771E-02  0.1185807E+00
         -1   -1    0    0    0  501 -0.00000000000E+00  0.00000000000E+00  0.27575911885E+03  0.27575911885E+03  0.00000000000E+00 0.  1.
         21   -1    0    0  501  502  0.00000000000E+00 -0.00000000000E+00 -0.13756662333E+03  0.13756662333E+03  0.00000000000E+00 0.  1.
         23    2    1    2    0    0  0.68286843188E+02  0.11621727207E+03  0.73559580425E+02  0.17456371959E+03  0.83017667052E+02 0.  0.
         23    2    1    2    0    0 -0.11533237126E+03 -0.85673370691E+02  0.66868506526E+02  0.18262638780E+03  0.90771791049E+02 0.  0.
        -11    1    4    4    0    0 -0.41345812564E+02 -0.43473160467E+02 -0.17747608334E+02  0.62564922274E+02  0.00000000000E+00 0. -1.
         11    1    4    4    0    0 -0.73986558701E+02 -0.42200210224E+02  0.84616114859E+02  0.12006146553E+03  0.00000000000E+00 0.  1.
        -11    1    3    3    0    0  0.31826195001E+02  0.75355966714E+02  0.85697366200E+02  0.11847137621E+03  0.00000000000E+00 0.  1.
         11    1    3    3    0    0  0.36460648187E+02  0.40861305357E+02 -0.12137785775E+02  0.56092343374E+02  0.00000000000E+00 0. -1.
         -1    1    1    2    0  502  0.47045528076E+02 -0.30543901381E+02 -0.22355914298E+01  0.56135634784E+02  0.00000000000E+00 0.  1.
<scales pt_clust_5="13000.00000" pt_clust_6="13000.00000" pt_clust_7="13000.00000" pt_clust_8="13000.00000" pt_clust_9="56.09110"></scales>
<clustering>
<clus scale="   56.091">  2  9  1 -1</clus>
<clus scale="   83.018">  7  8 -1 -1</clus>
<clus scale="   90.772">  5  6 -1 -1</clus>
<clus scale="  159.469">  1  7  2 -1</clus>
<clus scale="   56.091">  2  5  1 -1</clus>
</clustering>
</event>
<event>
 9    1  0.1610296E-005  0.1135126E+03  0.7546771E-02  0.1264551E+00
         21   -1    0    0  501  502  0.00000000000E+00  0.00000000000E+00  0.27669969749E+03  0.27669969749E+03  0.00000000000E+00 0. -1.
          4   -1    0    0  502    0 -0.00000000000E+00 -0.00000000000E+00 -0.24519506516E+03  0.24519506516E+03  0.00000000000E+00 0. -1.
         23    2    1    2    0    0  0.69855270866E+01 -0.19243100431E+02 -0.21016601932E+03  0.23876223181E+03  0.11143856225E+03 0.  0.
         23    2    1    2    0    0  0.16197722229E+02  0.37655041112E+02  0.10902124258E+03  0.14721958690E+03  0.90042807072E+02 0.  0.
        -13    1    3    3    0    0  0.34481961454E+02 -0.43653968494E+02 -0.18747724342E+03  0.19555661951E+03  0.00000000000E+00 0. -1.
         13    1    3    3    0    0 -0.27496434368E+02  0.24410868064E+02 -0.22688775898E+02  0.43205612301E+02  0.00000000000E+00 0.  1.
        -13    1    4    4    0    0  0.36635572980E+02 -0.15138514638E+02  0.62185891306E+02  0.73745677233E+02  0.00000000000E+00 0.  1.
         13    1    4    4    0    0 -0.20437850752E+02  0.52793555750E+02  0.46835351275E+02  0.73473909663E+02  0.00000000000E+00 0. -1.
          4    1    1    2  501    0 -0.23183249315E+02 -0.18411940681E+02  0.13264940907E+03  0.13591294395E+03  0.00000000000E+00 0. -1.
<scales pt_clust_5="13000.00000" pt_clust_6="13000.00000" pt_clust_7="13000.00000" pt_clust_8="13000.00000" pt_clust_9="29.60511"></scales>
<clustering>
<clus scale="   29.605">  1  9  2 -1</clus>
<clus scale="   90.043">  7  8 -1 -1</clus>
<clus scale="   92.597">  1  7  2 -1</clus>
<clus scale="  111.439">  5  6 -1 -1</clus>
<clus scale="   29.605">  1  5  2 -1</clus>
</clustering>
</event>
<event>
 9    1  0.1610296E-005  0.1034786E+03  0.7546771E-02  0.1273719E+00
         21   -1    0    0  501  502  0.00000000000E+00  0.00000000000E+00  0.67416604579E+02  0.67416604579E+02  0.00000000000E+00 0.  1.
         -1   -1    0    0    0  501 -0.00000000000E+00 -0.00000000000E+00 -0.38890202470E+03  0.38890202470E+03  0.00000000000E+00 0.  1.
         23    2    1    2    0    0  0.23799635701E+02 -0.43128394121E+02 -0.26759773054E+03  0.28708030297E+03  0.91542743681E+02 0.  0.
         23    2    1    2    0    0 -0.36474104350E+02  0.20433365789E+02 -0.82175534966E+02  0.13082076961E+03  0.92808256584E+02 0.  0.
        -11    1    3    3    0    0 -0.22564249145E+02 -0.47758208394E+02 -0.18334229557E+03  0.19079934264E+03  0.00000000000E+00 0.  1.
         11    1    3    3    0    0  0.46363884846E+02  0.46298142727E+01 -0.84255434976E+02  0.96280960325E+02  0.00000000000E+00 0. -1.
        -13    1    4    4    0    0  0.59135970646E+01 -0.33031406216E+02 -0.27680428069E+02  0.43500006033E+02  0.00000000000E+00 0. -1.
         13    1    4    4    0    0 -0.42387701414E+02  0.53464772005E+02 -0.54495106897E+02  0.87320763582E+02  0.00000000000E+00 0.  1.
         -1    1    1    2    0  502  0.12674468649E+02  0.22695028332E+02  0.28287845383E+02  0.38417556702E+02  0.00000000000E+00 0.  1.
<scales pt_clust_5="13000.00000" pt_clust_6="13000.00000" pt_clust_7="13000.00000" pt_clust_8="13000.00000" pt_clust_9="25.99435"></scales>
<clustering>
<clus scale="   25.994">  1  9  2 -1</clus>
<clus scale="   91.543">  5  6 -1 -1</clus>
<clus scale="   92.808">  7  8 -1 -1</clus>
<clus scale="  102.345">  2  5  1 -1</clus>
<clus scale="   25.994">  1  5  2 -1</clus>
</clustering>
</event>
<event>
 9    1  0.1610296E-005  0.9668327E+02  0.7546771E-02  0.1290462E+00
          1   -1    0    0  502    0 -0.00000000000E+00  0.00000000000E+00  0.95044269760E+02  0.95044269760E+02  0.00000000000E+00 0. -1.
         21   -1    0    0  501  502  0.00000000000E+00 -0.00000000000E+00 -0.15918721590E+03  0.15918721590E+03  0.00000000000E+00 0. -1.
         23    2    1    2    0    0 -0.15598566022E+02  0.22440395311E+02  0.32418425607E+02  0.10177014941E+03  0.92516606010E+02 0.  0.
         23    2    1    2    0    0  0.35257593037E+02 -0.91284690401E+01 -0.77809482550E+02  0.12220711221E+03  0.86912806225E+02 0.  0.
        -11    1    3    3    0    0 -0.40692459679E+02  0.52793811730E+01  0.51521926870E+02  0.65865446850E+02  0.00000000000E+00 0.  1.
         11    1    3    3    0    0  0.25093893657E+02  0.17161014138E+02 -0.19103501264E+02  0.35904702556E+02  0.00000000000E+00 0. -1.
        -13    1    4    4    0    0  0.26644751826E+02  0.37703682501E+02 -0.44268318909E+02  0.63962446271E+02  0.00000000000E+00 0. -1.
         13    1    4    4    0    0  0.86128412115E+01 -0.46832151541E+02 -0.33541163641E+02  0.58244665937E+02  0.00000000000E+00 0.  1.
          1    1    1    2  501    0 -0.19659027015E+02 -0.13311926271E+02 -0.18751889202E+02  0.30254224050E+02  0.00000000000E+00 0. -1.
<scales pt_clust_5="13000.00000" pt_clust_6="13000.00000" pt_clust_7="13000.00000" pt_clust_8="13000.00000" pt_clust_9="23.74205"></scales>
<clustering>
<clus scale="   23.742">  2  9  1 -1</clus>
<clus scale="   86.913">  7  8 -1 -1</clus>
<clus scale="   91.335">  2  7  1 -1</clus>
<clus scale="   92.517">  5  6 -1 -1</clus>
<clus scale="   23.742">  2  5  1 -1</clus>
</clustering>
</event>
<event>
 9    1  0.1610296E-005  0.9904725E+02  0.7546771E-02  0.1282883E+00
          1   -1    0    0  502    0 -0.00000000000E+00  0.00000000000E+00  0.13701029924E+03  0.13701029924E+03  0.00000000000E+00 0. -1.
         21   -1    0    0  501  502  0.00000000000E+00 -0.00000000000E+00 -0.13194611293E+03  0.13194611293E+03  0.00000000000E+00 0. -1.
         23    2    1    2    0    0 -0.98480627139E+01 -0.38174850007E+02  0.38798914017E+02  0.11091444912E+03  0.96137171705E+02 0.  0.
         23    2    1    2    0    0 -0.58484236437E+01  0.76163118246E+01  0.16746135160E+02  0.96980342901E+02  0.95039684350E+02 0.  0.
        -13    1    3    3    0    0 -0.26945205717E+02 -0.52211380706E+02  0.57305416709E+02  0.82073035587E+02  0.00000000000E+00 0. -1.
         13    1    3    3    0    0  0.17097143003E+02  0.14036530700E+02 -0.18506502692E+02  0.28841413537E+02  0.00000000000E+00 0.  1.
        -13    1    4    4    0    0  0.24817746015E+02  0.41956084007E+02  0.14619868211E+02  0.50891787638E+02  0.00000000000E+00 0.  1.
         13    1    4    4    0    0 -0.30666169659E+02 -0.34339772182E+02  0.21262669494E+01  0.46088555263E+02  0.00000000000E+00 0. -1.
          1    1    1    2  501    0  0.15696486358E+02  0.30558538182E+02 -0.50480862867E+02  0.61061620152E+02  0.00000000000E+00 0. -1.
<scales pt_clust_5="13000.00000" pt_clust_6="13000.00000" pt_clust_7="13000.00000" pt_clust_8="13000.00000" pt_clust_9="34.35410"></scales>
<clustering>
<clus scale="   34.354">  2  9  1 -1</clus>
<clus scale="   95.040">  7  8 -1 -1</clus>
<clus scale="   96.137">  5  6 -1 -1</clus>
<clus scale="   97.982">  2  7  1 -1</clus>
<clus scale="   34.354">  2  5  1 -1</clus>
</clustering>
</event>
<event>
 9    1  0.1610296E-005  0.1234048E+03  0.7546771E-02  0.1237909E+00
          2   -1    0    0  502    0 -0.00000000000E+00  0.00000000000E+00  0.62672035238E+03  0.62672035238E+03  0.00000000000E+00 0. -1.
         21   -1    0    0  501  502  0.00000000000E+00 -0.00000000000E+00 -0.67615030991E+02  0.67615030991E+02  0.00000000000E+00 0. -1.
         23    2    1    2    0    0  0.50928298310E+02  0.29375202578E+02  0.24651381938E+03  0.26917437026E+03  0.90714851937E+02 0.  0.
         23    2    1    2    0    0 -0.96090167212E+02 -0.70772402877E+02  0.32940409374E+03  0.36163160389E+03  0.89600818729E+02 0.  0.
        -11    1    4    4    0    0 -0.31838761651E+02  0.12470941878E+02  0.14849457387E+03  0.15238067333E+03  0.00000000000E+00 0.  1.
         11    1    4    4    0    0 -0.64251405561E+02 -0.83243344755E+02  0.18090951987E+03  0.20925093056E+03  0.00000000000E+00 0. -1.
        -13    1    3    3    0    0  0.43061445237E+02 -0.96863673997E+01  0.42385681687E+02  0.61193625415E+02  0.00000000000E+00 0. -1.
         13    1    3    3    0    0  0.78668530728E+01  0.39061569978E+02  0.20412813770E+03  0.20798074484E+03  0.00000000000E+00 0.  1.
          2    1    1    2  501    0  0.45161868902E+02  0.41397200299E+02 -0.16812591732E+02  0.63529409222E+02  0.00000000000E+00 0. -1.
<scales pt_clust_5="13000.00000" pt_clust_6="13000.00000" pt_clust_7="13000.00000" pt_clust_8="13000.00000" pt_clust_9="61.26437"></scales>
<clustering>
<clus scale="   61.264">  2  9  1 -1</clus>
<clus scale="   89.601">  5  6 -1 -1</clus>
<clus scale="   90.715">  7  8 -1 -1</clus>
<clus scale="  122.588">  2  5  1 -1</clus>
<clus scale="   61.264">  2  5  1 -1</clus>
</clustering>
</event>
<event>
 9    1  0.1610296E-005  0.1154198E+03  0.7546771E-02  0.1252573E+00
         -2   -1    0    0    0  501 -0.00000000000E+00  0.00000000000E+00  0.18270634141E+03  0.18270634141E+03  0.00000000000E+00 0.  1.
         21   -1    0    0  501  502  0.00000000000E+00 -0.00000000000E+00 -0.16104018281E+03  0.16104018281E+03  0.00000000000E+00 0. -1.
         23    2    1    2    0    0 -0.72078179956E+02 -0.94609715855E+01  0.12453711223E+03  0.17188344155E+03  0.93539569941E+02 0.  0.
         23    2    1    2    0    0  0.48001809588E+02  0.16488476149E+02 -0.50910816080E+02  0.11416634684E+03  0.88690472928E+02 0.  0.
        -11    1    4    4    0    0  0.58440998951E+02  0.37187773272E+02 -0.57544077396E+02  0.90053326883E+02  0.00000000000E+00 0. -1.
         11    1    4    4    0    0 -0.10439189363E+02 -0.20699297122E+02  0.66332613160E+01  0.24113019960E+02  0.00000000000E+00 0.  1.
        -11    1    3    3    0    0 -0.57043870433E+02 -0.48095098278E+02  0.95858386679E+02  0.12147416157E+03  0.00000000000E+00 0.  1.
         11    1    3    3    0    0 -0.15034309523E+02  0.38634126693E+02  0.28678725555E+02  0.50409279975E+02  0.00000000000E+00 0. -1.
         -2    1    1    2    0  502  0.24076370368E+02 -0.70275045640E+01 -0.51960137554E+02  0.57696735827E+02  0.00000000000E+00 0.  1.
<scales pt_clust_5="13000.00000" pt_clust_6="13000.00000" pt_clust_7="13000.00000" pt_clust_8="13000.00000" pt_clust_9="25.08102"></scales>
<clustering>
<clus scale="   25.081">  2  9  1 -1</clus>
<clus scale="   88.690">  5  6 -1 -1</clus>
<clus scale="   93.540">  7  8 -1 -1</clus>
<clus scale="  111.526">  2  5  1 -1</clus>
<clus scale="   25.081">  2  5  1 -1</clus>
</clustering>
</event>
<event>
 9    1  0.1610296E-005  0.9483393E+02  0.7546771E-02  0.1291847E+00
         21   -1    0    0  501  502  0.00000000000E+00  0.00000000000E+00  0.32806670223E+03  0.32806670223E+03  0.00000000000E+00 0.  1.
          2   -1    0    0  502    0 -0.00000000000E+00 -0.00000000000E+00 -0.56943187332E+02  0.56943187332E+02  0.00000000000E+00 0. -1.
         23    2    1    2    0    0  0.74973562890E+01 -0.25393922933E+02  0.12993131896E+02  0.96021351319E+02  0.91379520460E+02 0.  0.
         23    2    1    2    0    0 -0.23232224165E+02  0.52717330818E+01  0.14731411882E+03  0.17526636363E+03  0.91920189332E+02 0.  0.
        -11    1    3    3    0    0  0.31565628799E+02  0.24287005800E+02  0.76892891249E+01  0.40563194394E+02  0.00000000000E+00 0. -1.
         11    1    3    3    0    0 -0.24068272510E+02 -0.49680928733E+02  0.53038427716E+01  0.55458156925E+02  0.00000000000E+00 0.  1.
        -13    1    4    4    0    0  0.23460325660E+01 -0.36599275004E+02  0.27637396820E+02  0.45922069885E+02  0.00000000000E+00 0. -1.
         13    1    4    4    0    0 -0.25578256731E+02  0.41871008085E+02  0.11967672200E+03  0.12934429374E+03  0.00000000000E+00 0.  1.
          2    1    1    2  501    0  0.15734867876E+02  0.20122189851E+02  0.11081626418E+03  0.11372217461E+03  0.00000000000E+00 0. -1.
<scales pt_clust_5="13000.00000" pt_clust_6="13000.00000" pt_clust_7="13000.00000" pt_clust_8="13000.00000" pt_clust_9="25.54386"></scales>
<clustering>
<clus scale="   25.544">  1  9  2 -1</clus>
<clus scale="   91.380">  5  6 -1 -1</clus>
<clus scale="   91.920">  7  8 -1 -1</clus>
<clus scale="   94.310">  2  5  1 -1</clus>
<clus scale="   25.544">  1  5  2 -1</clus>
</clustering>
</event>
<event>
 9    1  0.1610296E-005  0.9690548E+02  0.7546771E-02  0.1289253E+00
         21   -1    0    0  501  502  0.00000000000E+00  0.00000000000E+00  0.32285370799E+03  0.32285370799E+03  0.00000000000E+00 0. -1.
          1   -1    0    0  502    0 -0.00000000000E+00 -0.00000000000E+00 -0.11274634786E+03  0.11274634786E+03  0.00000000000E+00 0. -1.
         23    2    1    2    0    0  0.30075307275E+02  0.13199117668E+02 -0.12664480356E+02  0.99046953281E+02  0.92580608535E+02 0.  0.
         23    2    1    2    0    0 -0.21259135497E+02  0.39448478669E+02 -0.83599947080E+01  0.99337126025E+02  0.88260080353E+02 0.  0.
        -11    1    3    3    0    0  0.73119288966E+01 -0.39845228394E+02 -0.54421138416E+01  0.40874480217E+02  0.00000000000E+00 0.  1.
         11    1    3    3    0    0  0.22763378378E+02  0.53044346062E+02 -0.72223665141E+01  0.58172473064E+02  0.00000000000E+00 0. -1.
        -13    1    4    4    0    0  0.25470293571E+02 -0.13075455676E+02 -0.38817563818E+01  0.28892411258E+02  0.00000000000E+00 0.  1.
         13    1    4    4    0    0 -0.46729429068E+02  0.52523934345E+02 -0.44782383261E+01  0.70444714767E+02  0.00000000000E+00 0. -1.
          1    1    1    2  501    0 -0.88161717778E+01 -0.52647596337E+02  0.23113183520E+03  0.23721597654E+03  0.00000000000E+00 0. -1.
<scales pt_clust_5="13000.00000" pt_clust_6="13000.00000" pt_clust_7="13000.00000" pt_clust_8="13000.00000" pt_clust_9="53.38065"></scales>
<clustering>
<clus scale="   53.381">  1  9  2 -1</clus>
<clus scale="   88.260">  7  8 -1 -1</clus>
<clus scale="   92.581">  5  6 -1 -1</clus>
<clus scale="   92.787">  1  7  2 -1</clus>
<clus scale="   53.381">  1  5  2 -1</clus>
</clustering>
</event>
<event>
 9    1  0.1610296E-005  0.2490906E+03  0.7546771E-02  0.1113983E+00
         21   -1    0    0  501  502  0.00000000000E+00  0.00000000000E+00  0.76424663436E+02  0.76424663436E+02  0.00000000000E+00 0. -1.
         -2   -1    0    0    0  501 -0.00000000000E+00 -0.00000000000E+00 -0.10020817342E+04  0.10020817342E+04  0.00000000000E+00 0.  1.
         23    2    1    2    0    0 -0.21988830729E+03 -0.37033099981E+02 -0.56579950990E+03  0.61464105229E+03  0.89063008991E+02 0.  0.
         23    2    1    2    0    0  0.24695820266E+03  0.34991677357E+02 -0.32280477464E+03  0.41793218076E+03  0.90838394079E+02 0.  0.
        -11    1    3    3    0    0 -0.81082691099E+02  0.23711610274E+02 -0.15084381030E+03  0.17288868779E+03  0.00000000000E+00 0.  1.
         11    1    3    3    0    0 -0.13880561619E+03 -0.60744710255E+02 -0.41495569960E+03  0.44175236450E+03  0.00000000000E+00 0. -1.
        -13    1    4    4    0    0  0.12396450270E+03  0.36489585333E+02 -0.23011412507E+03  0.26391513470E+03  0.00000000000E+00 0. -1.
         13    1    4    4    0    0  0.12299369997E+03 -0.14979079754E+01 -0.92690649568E+02  0.15401704606E+03  0.00000000000E+00 0.  1.
         -2    1    1    2    0  502 -0.27069895370E+02  0.20414226243E+01 -0.37052786178E+02  0.45933164547E+02  0.00000000000E+00 0.  1.
<scales pt_clust_5="13000.00000" pt_clust_6="13000.00000" pt_clust_7="13000.00000" pt_clust_8="13000.00000" pt_clust_9="27.14676"></scales>
<clustering>
<clus scale="   27.147">  1  9  2 -1</clus>
<clus scale="   89.063">  5  6 -1 -1</clus>
<clus scale="   90.838">  7  8 -1 -1</clus>
<clus scale="  248.449">  2  5  1 -1</clus>
<clus scale="   27.147">  1  5  2 -1</clus>
</clustering>
</event>
<event>
 9    1  0.1610296E-005  0.1280933E+03  0.7546771E-02  0.1231784E+00
         21   -1    0    0  501  502  0.00000000000E+00  0.00000000000E+00  0.53113329329E+02  0.53113329329E+02  0.00000000000E+00 0. -1.
          2   -1    0    0  502    0 -0.00000000000E+00 -0.00000000000E+00 -0.54997681893E+03  0.54997681893E+03  0.00000000000E+00 0. -1.
         23    2    1    2    0    0  0.50895003482E+02  0.46196408096E+02 -0.16211381975E+03  0.20062906602E+03  0.96159877689E+02 0.  0.
         23    2    1    2    0    0 -0.14195972420E+02 -0.11385623621E+03 -0.21796011304E+03  0.26258802621E+03  0.91000508118E+02 0.  0.
        -11    1    3    3    0    0  0.75057364032E+02  0.33403057328E+02 -0.14935327495E+03  0.17045753979E+03  0.00000000000E+00 0. -1.
         11    1    3    3    0    0 -0.24162360550E+02  0.12793350767E+02 -0.12760544804E+02  0.30171526228E+02  0.00000000000E+00 0.  1.
        -11    1    4    4    0    0 -0.79545865499E+01 -0.90205232697E+02 -0.22013294150E+03  0.23803103030E+03  0.00000000000E+00 0. -1.
         11    1    4    4    0    0 -0.62413858697E+01 -0.23651003516E+02  0.21728284579E+01  0.24556995915E+02  0.00000000000E+00 0.  1.
          2    1    1    2  501    0 -0.36699031062E+02  0.67659828117E+02 -0.11678955681E+03  0.13987305602E+03  0.00000000000E+00 0. -1.
<scales pt_clust_5="13000.00000" pt_clust_6="13000.00000" pt_clust_7="13000.00000" pt_clust_8="13000.00000" pt_clust_9="76.97192"></scales>
<clustering>
<clus scale="   76.972">  1  9  2 -1</clus>
<clus scale="   91.001">  7  8 -1 -1</clus>
<clus scale="   96.160">  5  6 -1 -1</clus>
<clus scale="  124.267">  1  7  2 -1</clus>
<clus scale="   76.972">  1  5  2 -1</clus>
</clustering>
</event>
<event>
 9    1  0.1610296E-005  0.3471596E+03  0.7546771E-02  0.1089924E+00
         21   -1    0    0  501  502  0.00000000000E+00  0.00000000000E+00  0.22670418434E+04  0.22670418434E+04  0.00000000000E+00 0.  1.
         -4   -1    0    0    0  501 -0.00000000000E+00 -0.00000000000E+00 -0.94325031033E+02  0.94325031033E+02  0.00000000000E+00 0.  1.
         23    2    1    2    0    0  0.70908926033E+02  0.12636675176E+03  0.18276458756E+03  0.25025722312E+03  0.90714670897E+02 0.  0.
         23    2    1    2    0    0  0.26906463277E+03 -0.19943785668E+03  0.81699320154E+03  0.88769055823E+03  0.91353163699E+02 0.  0.
        -11    1    4    4    0    0  0.15607602356E+03 -0.15600232620E+03  0.59881130392E+03  0.63817821070E+03  0.00000000000E+00 0. -1.
         11    1    4    4    0    0  0.11298860921E+03 -0.43435530485E+02  0.21818189762E+03  0.24951234753E+03  0.00000000000E+00 0.  1.
        -11    1    3    3    0    0  0.37144206182E+02  0.10150333002E+03  0.67085043556E+02  0.12721250382E+03  0.00000000000E+00 0.  1.
         11    1    3    3    0    0  0.33764719851E+02  0.24863421737E+02  0.11567954400E+03  0.12304471930E+03  0.00000000000E+00 0. -1.
         -4    1    1    2    0  502 -0.33997355881E+03  0.73071104922E+02  0.11729590233E+04  0.12234190931E+04  0.00000000000E+00 0.  1.
<scales pt_clust_5="13000.00000" pt_clust_6="13000.00000" pt_clust_7="13000.00000" pt_clust_8="13000.00000" pt_clust_9="334.92447"></scales>
<clustering>
<clus scale="   90.715">  7  8 -1 -1</clus>
<clus scale="   91.353">  5  6 -1 -1</clus>
<clus scale="  170.956">  2  7  1 -1</clus>
<clus scale="  334.924">  1  9  2 -1</clus>
<clus scale="  334.924">  1  5  2 -1</clus>
</clustering>
</event>
<event>
 9    1  0.1610296E-005  0.2730571E+03  0.7546771E-02  0.1099573E+00
         21   -1    0    0  501  502  0.00000000000E+00  0.00000000000E+00  0.35876583575E+03  0.35876583575E+03  0.00000000000E+00 0.  1.
          1   -1    0    0  502    0 -0.00000000000E+00 -0.00000000000E+00 -0.48011716996E+03  0.48011716996E+03  0.00000000000E+00 0. -1.
         23    2    1    2    0    0  0.91842881541E+02 -0.22099586143E+03 -0.25283217721E+03  0.36007400404E+03  0.91950491548E+02 0.  0.
         23    2    1    2    0    0 -0.18672764744E+03  0.26602663987E+03  0.41461761323E+02  0.34048212476E+03  0.92583001625E+02 0.  0.
        -13    1    3    3    0    0  0.31147648970E+02 -0.46528296869E+01 -0.35750942496E+02  0.47644042123E+02  0.00000000000E+00 0.  1.
         13    1    3    3    0    0  0.60695232571E+02 -0.21634303174E+03 -0.21708123471E+03  0.31242996192E+03  0.00000000000E+00 0. -1.
        -13    1    4    4    0    0 -0.15373175381E+03  0.14194521000E+03  0.32802104581E+02  0.21179677249E+03  0.00000000000E+00 0. -1.
         13    1    4    4    0    0 -0.32995893636E+02  0.12408142987E+03  0.86596567413E+01  0.12868535228E+03  0.00000000000E+00 0.  1.
          1    1    1    2  501    0  0.94884765901E+02 -0.45030778446E+02  0.90019081684E+02  0.13832687691E+03  0.00000000000E+00 0. -1.
<scales pt_clust_5="13000.00000" pt_clust_6="13000.00000" pt_clust_7="13000.00000" pt_clust_8="13000.00000" pt_clust_9="105.02804"></scales>
<clustering>
<clus scale="   91.950">  5  6 -1 -1</clus>
<clus scale="   92.583">  7  8 -1 -1</clus>
<clus scale="  105.028">  1  9  2 -1</clus>
<clus scale="  272.843">  2  5  1 -1</clus>
<clus scale="  105.028">  1  5  2 -1</clus>
</clustering>
</event>
<event>
 9    1  0.1610296E-005  0.2750752E+03  0.7546771E-02  0.1100388E+00
         21   -1    0    0  501  502  0.00000000000E+00  0.00000000000E+00  0.43692339335E+03  0.43692339335E+03  0.00000000000E+00 0.  1.
          3   -1    0    0  502    0 -0.00000000000E+00 -0.00000000000E+00 -0.26883890783E+03  0.26883890783E+03  0.00000000000E+00 0. -1.
         23    2    1    2    0    0 -0.11902511944E+03  0.18146579684E+03 -0.18191876615E+02  0.24844595292E+03  0.11957270870E+03 0.  0.
         23    2    1    2    0    0  0.15006635956E+03 -0.26875813598E+03  0.10990550576E+03  0.33724962197E+03  0.83109803260E+02 0.  0.
        -11    1    3    3    0    0 -0.25135220195E+02  0.50431652463E+02  0.48159891288E+02  0.74124935031E+02  0.00000000000E+00 0.  1.
         11    1    3    3    0    0 -0.93889899248E+02  0.13103414438E+03 -0.66351767904E+02  0.17432101789E+03  0.00000000000E+00 0. -1.
        -13    1    4    4    0    0 -0.10248312124E+02 -0.24482515101E+02  0.66921856939E+01  0.27371642194E+02  0.00000000000E+00 0. -1.
         13    1    4    4    0    0  0.16031467168E+03 -0.24427562088E+03  0.10321332007E+03  0.30987797978E+03  0.00000000000E+00 0.  1.
          3    1    1    2  501    0 -0.31041240113E+02  0.87292339137E+02  0.76370856372E+02  0.12006672629E+03  0.00000000000E+00 0. -1.
<scales pt_clust_5="13000.00000" pt_clust_6="13000.00000" pt_clust_7="13000.00000" pt_clust_8="13000.00000" pt_clust_9="92.64724"></scales>
<clustering>
<clus scale="   83.110">  7  8 -1 -1</clus>
<clus scale="   92.647">  1  9  2 -1</clus>
<clus scale="  119.573">  5  6 -1 -1</clus>
<clus scale="  261.297">  1  7  2 -1</clus>
<clus scale="   92.647">  1  5  2 -1</clus>
</clustering>
</event>
<event>
 9    1  0.1610296E-005  0.8678677E+02  0.7546771E-02  0.1319419E+00
         -1   -1    0    0    0  501 -0.00000000000E+00  0.00000000000E+00  0.16099471061E+03  0.16099471061E+03  0.00000000000E+00 0.  1.
         21   -1    0    0  501  502  0.00000000000E+00 -0.00000000000E+00 -0.63640223731E+02  0.63640223731E+02  0.00000000000E+00 0. -1.
         23    2    1    2    0    0  0.29266481628E+02  0.17435994281E+02  0.65830135486E+02  0.11273909158E+03  0.84946778563E+02 0.  0.
         23    2    1    2    0    0  0.21732660536E+01 -0.18066304286E+01  0.21844285960E+02  0.75475540521E+02  0.72190008928E+02 0.  0.
        -11    1    4    4    0    0 -0.25998827527E+02  0.11497163021E+01  0.35509530841E+02  0.44024852764E+02  0.00000000000E+00 0.  1.
         11    1    4    4    0    0  0.28172093581E+02 -0.29563467308E+01 -0.13665244882E+02  0.31450687757E+02  0.00000000000E+00 0. -1.
        -13    1    3    3    0    0 -0.28612991077E+02 -0.52824117364E+01  0.17181485803E+02  0.33790687867E+02  0.00000000000E+00 0.  1.
         13    1    3    3    0    0  0.57879472705E+02  0.22718406017E+02  0.48648649683E+02  0.78948403711E+02  0.00000000000E+00 0. -1.
         -1    1    1    2    0  502 -0.31439747681E+02 -0.15629363852E+02  0.96800654346E+01  0.36420302244E+02  0.00000000000E+00 0.  1.
<scales pt_clust_5="13000.00000" pt_clust_6="13000.00000" pt_clust_7="13000.00000" pt_clust_8="13000.00000" pt_clust_9="35.11032"></scales>
<clustering>
<clus scale="   35.110">  2  9  1 -1</clus>
<clus scale="   72.190">  5  6 -1 -1</clus>
<clus scale="   74.346">  2  5  1 -1</clus>
<clus scale="   84.947">  7  8 -1 -1</clus>
<clus scale="   35.110">  2  5  1 -1</clus>
</clustering>
</event>
<event>
 9    1  0.1610296E-005  0.3688573E+03  0.7546771E-02  0.1055266E+00
          2   -1    0    0  502    0 -0.00000000000E+00  0.00000000000E+00  0.10646364580E+04  0.10646364580E+04  0.00000000000E+00 0. -1.
         21   -1    0    0  501  502  0.00000000000E+00 -0.00000000000E+00 -0.48489142693E+03  0.48489142693E+03  0.00000000000E+00 0.  1.
         23    2    1    2    0    0  0.35367681945E+03 -0.38065859712E+02  0.84217376273E+03  0.91869501178E+03  0.90595671809E+02 0.  0.
         23    2    1    2    0    0 -0.35935833576E+03  0.41730279092E+01 -0.59566417256E+01  0.37206862412E+03  0.96144432135E+02 0.  0.
        -11    1    3    3    0    0  0.31161820448E+03 -0.43344283181E+02  0.79648121183E+03  0.85636846804E+03  0.00000000000E+00 0. -1.
         11    1    3    3    0    0  0.42058614970E+02  0.52784234683E+01  0.45692550896E+02  0.62326543742E+02  0.00000000000E+00 0.  1.
        -13    1    4    4    0    0 -0.10380246845E+03  0.31466868118E+02  0.30041746225E+02  0.11255053426E+03  0.00000000000E+00 0. -1.
         13    1    4    4    0    0 -0.25555586731E+03 -0.27293840208E+02 -0.35998387951E+02  0.25951808986E+03  0.00000000000E+00 0.  1.
          2    1    1    2  501    0  0.56815163133E+01  0.33892831803E+02 -0.25647208992E+03  0.25876424905E+03  0.00000000000E+00 0. -1.
<scales pt_clust_5="13000.00000" pt_clust_6="13000.00000" pt_clust_7="13000.00000" pt_clust_8="13000.00000" pt_clust_9="34.36573"></scales>
<clustering>
<clus scale="   34.366">  2  9  1 -1</clus>
<clus scale="   90.596">  5  6 -1 -1</clus>
<clus scale="   96.144">  7  8 -1 -1</clus>
<clus scale="  367.450">  1  5  2 -1</clus>
<clus scale="   34.366">  2  5  1 -1</clus>
</clustering>
</event>
<event>
 9    1  0.1610296E-005  0.1276062E+03  0.7546771E-02  0.1231148E+00
          4   -1    0    0  502    0 -0.00000000000E+00  0.00000000000E+00  0.54388131595E+02  0.54388131595E+02  0.00000000000E+00 0. -1.
         21   -1    0    0  501  502  0.00000000000E+00 -0.00000000000E+00 -0.68147538869E+03  0.68147538869E+03  0.00000000000E+00 0. -1.
         23    2    1    2    0    0  0.36268188833E+02  0.60759014356E+02 -0.13631732408E+03  0.17853217133E+03  0.91018042215E+02 0.  0.
         23    2    1    2    0    0 -0.13020945071E+03 -0.47615234824E+02 -0.26889990413E+03  0.31603479005E+03  0.91373510603E+02 0.  0.
        -11    1    3    3    0    0  0.90932399249E+00  0.76263972676E+02 -0.83238660773E+02  0.11289683364E+03  0.00000000000E+00 0. -1.
         11    1    3    3    0    0  0.35358864840E+02 -0.15504958320E+02 -0.53078663305E+02  0.65635337689E+02  0.00000000000E+00 0.  1.
        -11    1    4    4    0    0  0.10547333023E+02 -0.19399106127E+02 -0.43863536877E+02  0.49107854970E+02  0.00000000000E+00 0.  1.
         11    1    4    4    0    0 -0.14075678373E+03 -0.28216128697E+02 -0.22503636725E+03  0.26692693508E+03  0.00000000000E+00 0. -1.
          4    1    1    2  501    0  0.93941261873E+02 -0.13143779532E+02 -0.22187002889E+03  0.24129655891E+03  0.00000000000E+00 0. -1.
<scales pt_clust_5="13000.00000" pt_clust_6="13000.00000" pt_clust_7="13000.00000" pt_clust_8="13000.00000" pt_clust_9="94.85631"></scales>
<clustering>
<clus scale="   91.018">  5  6 -1 -1</clus>
<clus scale="   91.374">  7  8 -1 -1</clus>
<clus scale="   94.856">  2  9  1 -1</clus>
<clus scale="  127.352">  1  5  2 -1</clus>
<clus scale="   94.856">  2  5  1 -1</clus>
</clustering>
</event>
<event>
 9    1  0.1610296E-005  0.1056889E+03  0.7546771E-02  0.1269250E+00
         21   -1    0    0  501  502  0.00000000000E+00  0.00000000000E+00  0.87793671832E+02  0.87793671832E+02  0.00000000000E+00 0.  1.
          2   -1    0    0  502    0 -0.00000000000E+00 -0.00000000000E+00 -0.24607140892E+03  0.24607140892E+03  0.00000000000E+00 0. -1.
         23    2    1    2    0    0 -0.24665673202E+02  0.43285537349E+02 -0.12007685321E+03  0.15918704179E+03  0.91869638173E+02 0.  0.
         23    2    1    2    0    0 -0.89352719930E+01 -0.68930595294E+02  0.47713529375E+01  0.11440113085E+03  0.90739114374E+02 0.  0.
        -11    1    4    4    0    0  0.32724527220E+02 -0.60541348510E+02 -0.97187899593E+01  0.69502549877E+02  0.00000000000E+00 0.  1.
         11    1    4    4    0    0 -0.41659799213E+02 -0.83892467846E+01  0.14490142897E+02  0.44898580972E+02  0.00000000000E+00 0. -1.
        -13    1    3    3    0    0  0.15394665161E+02  0.44663027066E+02 -0.19851267665E+02  0.51243092510E+02  0.00000000000E+00 0.  1.
         13    1    3    3    0    0 -0.40060338363E+02 -0.13774897164E+01 -0.10022558554E+03  0.10794394928E+03  0.00000000000E+00 0. -1.
          2    1    1    2  501    0  0.33600945195E+02  0.25645057945E+02 -0.42972236817E+02  0.60276908116E+02  0.00000000000E+00 0. -1.
<scales pt_clust_5="13000.00000" pt_clust_6="13000.00000" pt_clust_7="13000.00000" pt_clust_8="13000.00000" pt_clust_9="42.26931"></scales>
<clustering>
<clus scale="   42.269">  1  9  2 -1</clus>
<clus scale="   90.739">  5  6 -1 -1</clus>
<clus scale="   91.870">  7  8 -1 -1</clus>
<clus scale="  104.708">  1  5  2 -1</clus>
<clus scale="   42.269">  1  5  2 -1</clus>
</clustering>
</event>
<event>
 9    1  0.1610296E-005  0.9992130E+02  0.7546771E-02  0.1281877E+00
          1   -1    0    0  502    0 -0.00000000000E+00  0.00000000000E+00  0.29923840153E+03  0.29923840153E+03  0.00000000000E+00 0. -1.
         21   -1    0    0  501  502  0.00000000000E+00 -0.00000000000E+00 -0.81212370124E+02  0.81212370124E+02  0.00000000000E+00 0. -1.
         23    2    1    2    0    0  0.34572020403E+02  0.19445323930E+02  0.13932136609E+03  0.17111586442E+03  0.91087050628E+02 0.  0.
         23    2    1    2    0    0 -0.81566081939E+01 -0.33294095055E+02  0.12139212604E+03  0.15726013632E+03  0.93913125751E+02 0.  0.
        -11    1    4    4    0    0 -0.29079430790E+02  0.23842246522E+02  0.33503229730E+02  0.50363999212E+02  0.00000000000E+00 0.  1.
         11    1    4    4    0    0  0.20922822596E+02 -0.57136341577E+02  0.87888896306E+02  0.10689613711E+03  0.00000000000E+00 0. -1.
        -11    1    3    3    0    0  0.88124037478E+00  0.39151826210E+02  0.16953330635E+02  0.42673850304E+02  0.00000000000E+00 0.  1.
         11    1    3    3    0    0  0.33690780029E+02 -0.19706502280E+02  0.12236803545E+03  0.12844201412E+03  0.00000000000E+00 0. -1.
          1    1    1    2  501    0 -0.26415412210E+02  0.13848771125E+02 -0.42687460712E+02  0.52074770916E+02  0.00000000000E+00 0. -1.
<scales pt_clust_5="13000.00000" pt_clust_6="13000.00000" pt_clust_7="13000.00000" pt_clust_8="13000.00000" pt_clust_9="29.82553"></scales>
<clustering>
<clus scale="   29.826">  2  9  1 -1</clus>
<clus scale="   91.087">  7  8 -1 -1</clus>
<clus scale="   93.913">  5  6 -1 -1</clus>
<clus scale="   97.270">  1  7  2 -1</clus>
<clus scale="   29.826">  2  5  1 -1</clus>
</clustering>
</event>
<event>
 9    1  0.1610296E-005  0.9791199E+02  0.7546771E-02  0.1287615E+00
         21   -1    0    0  501  502  0.00000000000E+00  0.00000000000E+00  0.76697449145E+02  0.76697449145E+02  0.00000000000E+00 0.  1.
          4   -1    0    0  502    0 -0.00000000000E+00 -0.00000000000E+00 -0.25022111627E+03  0.25022111627E+03  0.00000000000E+00 0. -1.
         23    2    1    2    0    0  0.20244681135E+02 -0.37274680915E+02 -0.14178224099E+03  0.17400251495E+03  0.91517333867E+02 0.  0.
         23    2    1    2    0    0  0.23995868016E+02  0.29576307505E+02 -0.47456389597E+02  0.10534030854E+03  0.85987859855E+02 0.  0.
        -11    1    4    4    0    0  0.47099264974E+02 -0.58316922440E+01 -0.40708892595E+02  0.62526501036E+02  0.00000000000E+00 0. -1.
         11    1    4    4    0    0 -0.23103396958E+02  0.35407999749E+02 -0.67474970025E+01  0.42813807505E+02  0.00000000000E+00 0.  1.
        -11    1    3    3    0    0 -0.30696548388E+02 -0.24922510778E+02 -0.27177671413E+02  0.47979531572E+02  0.00000000000E+00 0.  1.
         11    1    3    3    0    0  0.50941229523E+02 -0.12352170137E+02 -0.11460456958E+03  0.12602298338E+03  0.00000000000E+00 0. -1.
          4    1    1    2  501    0 -0.44240549151E+02  0.76983734100E+01  0.15714963466E+02  0.47575741918E+02  0.00000000000E+00 0. -1.
<scales pt_clust_5="13000.00000" pt_clust_6="13000.00000" pt_clust_7="13000.00000" pt_clust_8="13000.00000" pt_clust_9="44.90536"></scales>
<clustering>
<clus scale="   44.905">  1  9  2 -1</clus>
<clus scale="   85.988">  5  6 -1 -1</clus>
<clus scale="   91.517">  7  8 -1 -1</clus>
<clus scale="   92.764">  1  5  2 -1</clus>
<clus scale="   44.905">  1  5  2 -1</clus>
</clustering>
</event>
<event>
 9    1  0.1610296E-005  0.1642293E+03  0.7546771E-02  0.1204634E+00
          2   -1    0    0  502    0 -0.00000000000E+00  0.00000000000E+00  0.10989603849E+04  0.10989603849E+04  0.00000000000E+00 0. -1.
         21   -1    0    0  501  502  0.00000000000E+00 -0.00000000000E+00 -0.10617338021E+03  0.10617338021E+03  0.00000000000E+00 0. -1.
         23    2    1    2    0    0  0.46394269176E+02  0.12865105127E+02  0.29787855964E+03  0.31566261491E+03  0.92700113372E+02 0.  0.
         23    2    1    2    0    0  0.29786500224E+02  0.10243767950E+03  0.73272939160E+03  0.74619286930E+03  0.92361913682E+02 0.  0.
        -11    1    3    3    0    0  0.66473764670E+02 -0.16593763651E+02  0.20686066470E+03  0.21791156229E+03  0.00000000000E+00 0. -1.
         11    1    3    3    0    0 -0.20079495495E+02  0.29458868778E+02  0.91017894936E+02  0.97751052616E+02  0.00000000000E+00 0.  1.
        -13    1    4    4    0    0  0.45792609670E+02  0.11022232955E+02  0.20274600727E+03  0.20814513250E+03  0.00000000000E+00 0.  1.
         13    1    4    4    0    0 -0.16006109445E+02  0.91415446549E+02  0.52998338432E+03  0.53804773679E+03  0.00000000000E+00 0. -1.
          2    1    1    2  501    0 -0.76180769400E+02 -0.11530278463E+03 -0.37820946568E+02  0.14327828087E+03  0.00000000000E+00 0. -1.
<scales pt_clust_5="13000.00000" pt_clust_6="13000.00000" pt_clust_7="13000.00000" pt_clust_8="13000.00000" pt_clust_9="135.79596"></scales>
<clustering>
<clus scale="   92.362">  7  8 -1 -1</clus>
<clus scale="   92.700">  5  6 -1 -1</clus>
<clus scale="  104.457">  1  5  2 -1</clus>
<clus scale="  135.796">  2  9  1 -1</clus>
<clus scale="  135.796">  2  5  1 -1</clus>
</clustering>
</event>
<event>
 9    1  0.1610296E-005  0.1715179E+03  0.7546771E-02  0.1176364E+00
         21   -1    0    0  501  502  0.00000000000E+00  0.00000000000E+00  0.74133489673E+02  0.74133489673E+02  0.00000000000E+00 0. -1.
          2   -1    0    0  502    0 -0.00000000000E+00 -0.00000000000E+00 -0.10964466387E+04  0.10964466387E+04  0.00000000000E+00 0. -1.
         23    2    1    2    0    0 -0.74432663478E+02 -0.11044080023E+03 -0.64689882207E+03  0.66690102830E+03  0.92420256437E+02 0.  0.
         23    2    1    2    0    0  0.25443374027E+02  0.19113249573E+03 -0.34266990609E+03  0.40376264849E+03  0.91774809018E+02 0.  0.
        -11    1    3    3    0    0 -0.33247350364E+02 -0.11535123680E+03 -0.45492702654E+03  0.47049962127E+03  0.00000000000E+00 0. -1.
         11    1    3    3    0    0 -0.41185313115E+02  0.49104365703E+01 -0.19197179554E+03  0.19640140703E+03  0.00000000000E+00 0.  1.
        -13    1    4    4    0    0 -0.29926165697E+02  0.28053626576E+02 -0.74709398410E+02  0.85229546333E+02  0.00000000000E+00 0.  1.
         13    1    4    4    0    0  0.55369539723E+02  0.16307886916E+03 -0.26796050768E+03  0.31853310216E+03  0.00000000000E+00 0. -1.
          2    1    1    2  501    0  0.48989289452E+02 -0.80691695505E+02 -0.32744420904E+02  0.99916451622E+02  0.00000000000E+00 0. -1.
<scales pt_clust_5="13000.00000" pt_clust_6="13000.00000" pt_clust_7="13000.00000" pt_clust_8="13000.00000" pt_clust_9="94.39862"></scales>
<clustering>
<clus scale="   91.775">  7  8 -1 -1</clus>
<clus scale="   92.420">  5  6 -1 -1</clus>
<clus scale="   94.399">  1  9  2 -1</clus>
<clus scale="  171.171">  1  7  2 -1</clus>
<clus scale="   94.399">  1  5  2 -1</clus>
</clustering>
</event>
<event>
 9    1  0.1610296E-005  0.1004079E+03  0.7546771E-02  0.1290660E+00
          2   -1    0    0  502    0 -0.00000000000E+00  0.00000000000E+00  0.26461083411E+03  0.26461083411E+03  0.00000000000E+00 0. -1.
         21   -1    0    0  501  502  0.00000000000E+00 -0.00000000000E+00 -0.96353009643E+02  0.96353009643E+02  0.00000000000E+00 0. -1.
         23    2    1    2    0    0 -0.43179725747E+02  0.16616979879E+01  0.15449647645E+03  0.18455874241E+03  0.91244277687E+02 0.  0.
         23    2    1    2    0    0  0.19663032105E+02 -0.71737687103E+02  0.10643774677E+02  0.10242268184E+03  0.69600181281E+02 0.  0.
        -11    1    3    3    0    0 -0.94219387597E+01  0.31757644960E+02  0.12783958980E+03  0.13206165857E+03  0.00000000000E+00 0. -1.
         11    1    3    3    0    0 -0.33757786988E+02 -0.30095946972E+02  0.26656886644E+02  0.52497083843E+02  0.00000000000E+00 0.  1.
        -13    1    4    4    0    0 -0.24061152930E+02 -0.38602298692E+02 -0.39361486817E+01  0.45657089384E+02  0.00000000000E+00 0.  1.
         13    1    4    4    0    0  0.43724185035E+02 -0.33135388412E+02  0.14579923359E+02  0.56765592460E+02  0.00000000000E+00 0. -1.
          2    1    1    2  501    0  0.23516693642E+02  0.70075989115E+02  0.31175733395E+01  0.73982419492E+02  0.00000000000E+00 0. -1.
<scales pt_clust_5="13000.00000" pt_clust_6="13000.00000" pt_clust_7="13000.00000" pt_clust_8="13000.00000" pt_clust_9="73.91670"></scales>
<clustering>
<clus scale="   69.600">  7  8 -1 -1</clus>
<clus scale="   73.917">  2  9  1 -1</clus>
<clus scale="   81.243">  2  7  1 -1</clus>
<clus scale="   91.244">  5  6 -1 -1</clus>
<clus scale="   73.917">  2  5  1 -1</clus>
</clustering>
</event>
<event>
 9    1  0.1610296E-005  0.1460445E+03  0.7546771E-02  0.1205714E+00
         21   -1    0    0  501  502  0.00000000000E+00  0.00000000000E+00  0.80590574286E+02  0.80590574286E+02  0.00000000000E+00 0.  1.
          2   -1    0    0  502    0 -0.00000000000E+00 -0.00000000000E+00 -0.68427629299E+03  0.68427629299E+03  0.00000000000E+00 0. -1.
         23    2    1    2    0    0  0.97288781283E+02 -0.21462938607E+02 -0.41794443399E+03  0.43947165319E+03  0.92368930682E+02 0.  0.
         23    2    1    2    0    0 -0.15654869808E+03  0.29768908410E+02 -0.19160065797E+03  0.26526985231E+03  0.90904343304E+02 0.  0.
        -11    1    3    3    0    0  0.28084967423E+02  0.27750021586E+01 -0.19420501127E+02  0.34258165394E+02  0.00000000000E+00 0.  1.
         11    1    3    3    0    0  0.69203813860E+02 -0.24237940766E+02 -0.39852393287E+03  0.40521348780E+03  0.00000000000E+00 0. -1.
        -13    1    4    4    0    0 -0.10973126134E+03 -0.22020678275E+02 -0.13524626907E+03  0.17554889144E+03  0.00000000000E+00 0. -1.
         13    1    4    4    0    0 -0.46817436737E+02  0.51789586685E+02 -0.56354388901E+02  0.89720960874E+02  0.00000000000E+00 0.  1.
          2    1    1    2  501    0  0.59259916797E+02 -0.83059698034E+01  0.58593732622E+01  0.60125361772E+02  0.00000000000E+00 0. -1.
<scales pt_clust_5="13000.00000" pt_clust_6="13000.00000" pt_clust_7="13000.00000" pt_clust_8="13000.00000" pt_clust_9="59.83918"></scales>
<clustering>
<clus scale="   59.839">  1  9  2 -1</clus>
<clus scale="   90.904">  7  8 -1 -1</clus>
<clus scale="   92.369">  5  6 -1 -1</clus>
<clus scale="  145.123">  1  7  2 -1</clus>
<clus scale="   59.839">  1  5  2 -1</clus>
</clustering>
</event>
<event>
 9    1  0.1610296E-005  0.9206183E+02  0.7546771E-02  0.1299430E+00
         -1   -1    0    0    0  501 -0.00000000000E+00  0.00000000000E+00  0.30299523242E+03  0.30299523242E+03  0.00000000000E+00 0.  1.
         21   -1    0    0  501  502  0.00000000000E+00 -0.00000000000E+00 -0.10230183812E+03  0.10230183812E+03  0.00000000000E+00 0. -1.
         23    2    1    2    0    0  0.48238886936E+01 -0.89823131311E+01  0.24812832877E+03  0.26381472419E+03  0.89031395076E+02 0.  0.
         23    2    1    2    0    0 -0.20662804625E+02 -0.80612340306E+01 -0.65373280072E+01  0.94429525267E+02  0.91554702749E+02 0.  0.
        -11    1    4    4    0    0  0.18326389495E+02  0.31957216647E+02 -0.10816732158E+02  0.38394295700E+02  0.00000000000E+00 0. -1.
         11    1    4    4    0    0 -0.38989194120E+02 -0.40018450677E+02  0.42794041509E+01  0.56035229567E+02  0.00000000000E+00 0.  1.
        -13    1    3    3    0    0 -0.18532281548E+02 -0.43795272264E+02  0.13911075557E+03  0.14701453549E+03  0.00000000000E+00 0.  1.
         13    1    3    3    0    0  0.23356170242E+02  0.34812959133E+02  0.10901757320E+03  0.11680018869E+03  0.00000000000E+00 0. -1.
         -1    1    1    2    0  502  0.15838915931E+02  0.17043547162E+02 -0.40897606459E+02  0.47052821082E+02  0.00000000000E+00 0.  1.
<scales pt_clust_5="13000.00000" pt_clust_6="13000.00000" pt_clust_7="13000.00000" pt_clust_8="13000.00000" pt_clust_9="23.26701"></scales>
<clustering>
<clus scale="   23.267">  2  9  1 -1</clus>
<clus scale="   89.031">  7  8 -1 -1</clus>
<clus scale="   89.553">  1  7  2 -1</clus>
<clus scale="   91.555">  5  6 -1 -1</clus>
<clus scale="   23.267">  2  5  1 -1</clus>
</clustering>
</event>
<event>
 9    1  0.1610296E-005  0.2240740E+03  0.7546771E-02  0.1131679E+00
         21   -1    0    0  501  502  0.00000000000E+00  0.00000000000E+00  0.36060753773E+03  0.36060753773E+03  0.00000000000E+00 0. -1.
          3   -1    0    0  502    0 -0.00000000000E+00 -0.00000000000E+00 -0.38309443407E+03  0.38309443407E+03  0.00000000000E+00 0. -1.
         23    2    1    2    0    0  0.11117877792E+03  0.15144136783E+03 -0.11070455135E+03  0.23351125370E+03  0.83527237255E+02 0.  0.
         23    2    1    2    0    0 -0.12196477650E+03 -0.18374910994E+03 -0.14114152493E+03  0.27831626633E+03  0.94339132560E+02 0.  0.
        -11    1    3    3    0    0  0.11557475837E+03  0.98390111662E+02 -0.74082145832E+02  0.16889731548E+03  0.00000000000E+00 0.  1.
         11    1    3    3    0    0 -0.43959804596E+01  0.53051256173E+02 -0.36622405517E+02  0.64613938214E+02  0.00000000000E+00 0. -1.
        -13    1    4    4    0    0 -0.54014541586E+02 -0.12295659752E+02 -0.30245700028E+02  0.63115420633E+02  0.00000000000E+00 0.  1.
         13    1    4    4    0    0 -0.67950234909E+02 -0.17145345019E+03 -0.11089582490E+03  0.21520084569E+03  0.00000000000E+00 0. -1.
          3    1    1    2  501    0  0.10785998580E+02  0.32307742108E+02  0.22935917994E+03  0.23187445178E+03  0.00000000000E+00 0. -1.
<scales pt_clust_5="13000.00000" pt_clust_6="13000.00000" pt_clust_7="13000.00000" pt_clust_8="13000.00000" pt_clust_9="34.06065"></scales>
<clustering>
<clus scale="   34.061">  1  9  2 -1</clus>
<clus scale="   83.527">  5  6 -1 -1</clus>
<clus scale="   94.339">  7  8 -1 -1</clus>
<clus scale="  219.741">  2  5  1 -1</clus>
<clus scale="   34.061">  1  5  2 -1</clus>
</clustering>
</event>
<event>
 9    1  0.1610296E-005  0.1253452E+03  0.7546771E-02  0.1235565E+00
          1   -1    0    0  502    0 -0.00000000000E+00  0.00000000000E+00  0.83612716996E+03  0.83612716996E+03  0.00000000000E+00 0. -1.
         21   -1    0    0  501  502  0.00000000000E+00 -0.00000000000E+00 -0.69537362577E+02  0.69537362577E+02  0.00000000000E+00 0. -1.
         23    2    1    2    0    0  0.29368930284E+02  0.92371969099E+02  0.63691146769E+03  0.65029010990E+03  0.88464086594E+02 0.  0.
         23    2    1    2    0    0  0.43200407518E+02 -0.72534080227E+02  0.13451150841E+03  0.17998735382E+03  0.84703209139E+02 0.  0.
        -11    1    3    3    0    0 -0.28183984135E+02  0.19669423333E+02  0.10877612934E+03  0.11407659484E+03  0.00000000000E+00 0. -1.
         11    1    3    3    0    0  0.57552914420E+02  0.72702545766E+02  0.52813533835E+03  0.53621351506E+03  0.00000000000E+00 0.  1.
        -11    1    4    4    0    0 -0.22463282071E+02 -0.10735868739E+02  0.11391894035E+02  0.27379429663E+02  0.00000000000E+00 0.  1.
         11    1    4    4    0    0  0.65663689589E+02 -0.61798211489E+02  0.12311961437E+03  0.15260792416E+03  0.00000000000E+00 0. -1.
          1    1    1    2  501    0 -0.72569337802E+02 -0.19837888872E+02 -0.48331687174E+01  0.75387068810E+02  0.00000000000E+00 0. -1.
<scales pt_clust_5="13000.00000" pt_clust_6="13000.00000" pt_clust_7="13000.00000" pt_clust_8="13000.00000" pt_clust_9="75.23198"></scales>
<clustering>
<clus scale="   75.232">  2  9  1 -1</clus>
<clus scale="   84.703">  7  8 -1 -1</clus>
<clus scale="   88.464">  5  6 -1 -1</clus>
<clus scale="  122.720">  2  7  1 -1</clus>
<clus scale="   75.232">  2  5  1 -1</clus>
</clustering>
</event>
<event>
 9    1  0.1610296E-005  0.2121389E+03  0.7546771E-02  0.1139921E+00
          1   -1    0    0  502    0 -0.00000000000E+00  0.00000000000E+00  0.18299068298E+03  0.18299068298E+03  0.00000000000E+00 0. -1.
         21   -1    0    0  501  502  0.00000000000E+00 -0.00000000000E+00 -0.50664428194E+03  0.50664428194E+03  0.00000000000E+00 0. -1.
         23    2    1    2    0    0 -0.73569944073E+02 -0.19988448945E+03  0.45200406751E+02  0.23599601015E+03  0.91020295774E+02 0.  0.
         23    2    1    2    0    0  0.52931027085E+02  0.10784469575E+03 -0.30392749969E+03  0.33912808322E+03  0.90574608671E+02 0.  0.
        -11    1    4    4    0    0  0.11327857349E+02  0.10078018133E+03 -0.25551831591E+03  0.27490830302E+03  0.00000000000E+00 0.  1.
         11    1    4    4    0    0  0.41603169736E+02  0.70645144184E+01 -0.48409183772E+02  0.64219780204E+02  0.00000000000E+00 0. -1.
        -13    1    3    3    0    0 -0.44332504604E+02 -0.19532879936E+03  0.29373242587E+02  0.20243887522E+03  0.00000000000E+00 0. -1.
         13    1    3    3    0    0 -0.29237439469E+02 -0.45556900945E+01  0.15827164164E+02  0.33557134926E+02  0.00000000000E+00 0.  1.
          1    1    1    2  501    0  0.20638916988E+02  0.92039793702E+02 -0.64926506024E+02  0.11451087155E+03  0.00000000000E+00 0. -1.
<scales pt_clust_5="13000.00000" pt_clust_6="13000.00000" pt_clust_7="13000.00000" pt_clust_8="13000.00000" pt_clust_9="94.32544"></scales>
<clustering>
<clus scale="   90.575">  5  6 -1 -1</clus>
<clus scale="   91.020">  7  8 -1 -1</clus>
<clus scale="   94.325">  2  9  1 -1</clus>
<clus scale="  211.948">  2  5  1 -1</clus>
<clus scale="   94.325">  2  5  1 -1</clus>
</clustering>
</event>
<event>
 9    1  0.1610296E-005  0.9185544E+02  0.7546771E-02  0.1298576E+00
         21   -1    0    0  501  502  0.00000000000E+00  0.00000000000E+00  0.85994044850E+02  0.85994044850E+02  0.00000000000E+00 0.  1.
         -1   -1    0    0    0  501 -0.00000000000E+00 -0.00000000000E+00 -0.33274194924E+03  0.33274194924E+03  0.00000000000E+00 0.  1.
         23    2    1    2    0    0  0.20684940119E+00  0.48860429887E+01 -0.14853664347E+03  0.17414239808E+03  0.90766316175E+02 0.  0.
         23    2    1    2    0    0  0.20689395564E+02 -0.88219100910E+01 -0.15655847618E+03  0.18249253618E+03  0.91033466987E+02 0.  0.
        -11    1    4    4    0    0 -0.61058114599E+00  0.38083395802E+02 -0.40945827233E+02  0.55922076258E+02  0.00000000000E+00 0.  1.
         11    1    4    4    0    0  0.21299976710E+02 -0.46905305893E+02 -0.11561264895E+03  0.12657045993E+03  0.00000000000E+00 0. -1.
        -13    1    3    3    0    0 -0.24159750659E+02  0.32013826112E+02 -0.29893148967E+02  0.50021784948E+02  0.00000000000E+00 0.  1.
         13    1    3    3    0    0  0.24366600060E+02 -0.27127783123E+02 -0.11864349450E+03  0.12412061313E+03  0.00000000000E+00 0. -1.
         -1    1    1    2    0  502 -0.20896244965E+02  0.39358671022E+01  0.58347215261E+02  0.62101059831E+02  0.00000000000E+00 0.  1.
<scales pt_clust_5="13000.00000" pt_clust_6="13000.00000" pt_clust_7="13000.00000" pt_clust_8="13000.00000" pt_clust_9="21.26368"></scales>
<clustering>
<clus scale="   21.264">  1  9  2 -1</clus>
<clus scale="   90.766">  7  8 -1 -1</clus>
<clus scale="   91.033">  5  6 -1 -1</clus>
<clus scale="   91.591">  2  7  1 -1</clus>
<clus scale="   21.264">  1  5  2 -1</clus>
</clustering>
</event>
<event>
 9    1  0.1610296E-005  0.1101729E+03  0.7546771E-02  0.1260642E+00
          1   -1    0    0  502    0 -0.00000000000E+00  0.00000000000E+00  0.40224605411E+03  0.40224605411E+03  0.00000000000E+00 0. -1.
         21   -1    0    0  501  502  0.00000000000E+00 -0.00000000000E+00 -0.72270580075E+02  0.72270580075E+02  0.00000000000E+00 0.  1.
         23    2    1    2    0    0  0.80185232507E+02 -0.13047150649E+02  0.11643310369E+03  0.16817527881E+03  0.90146309495E+02 0.  0.
         23    2    1    2    0    0 -0.31218143428E+02 -0.57277662347E+02  0.52214094957E+02  0.12366632267E+03  0.91168769689E+02 0.  0.
        -11    1    4    4    0    0 -0.13715955016E+02 -0.74569109523E+02  0.12347240583E+02  0.76818837970E+02  0.00000000000E+00 0.  1.
         11    1    4    4    0    0 -0.17502188412E+02  0.17291447176E+02  0.39866854374E+02  0.46847484696E+02  0.00000000000E+00 0. -1.
        -13    1    3    3    0    0  0.48606801589E+02 -0.46512991146E+02  0.38066340457E+02  0.77298937779E+02  0.00000000000E+00 0.  1.
         13    1    3    3    0    0  0.31578430918E+02  0.33465840497E+02  0.78366763233E+02  0.90876341030E+02  0.00000000000E+00 0. -1.
          1    1    1    2  501    0 -0.48967089079E+02  0.70324812997E+02  0.16132827539E+03  0.18267503271E+03  0.00000000000E+00 0. -1.
<scales pt_clust_5="13000.00000" pt_clust_6="13000.00000" pt_clust_7="13000.00000" pt_clust_8="13000.00000" pt_clust_9="85.69342"></scales>
<clustering>
<clus scale="   85.693">  2  9  1 -1</clus>
<clus scale="   90.146">  7  8 -1 -1</clus>
<clus scale="   91.169">  5  6 -1 -1</clus>
<clus scale="  109.328">  1  7  2 -1</clus>
<clus scale="   85.693">  2  5  1 -1</clus>
</clustering>
</event>
<event>
 9    1  0.1610296E-005  0.1249571E+03  0.7546771E-02  0.1246692E+00
         21   -1    0    0  501  502  0.00000000000E+00  0.00000000000E+00  0.57978913799E+02  0.57978913799E+02  0.00000000000E+00 0. -1.
          1   -1    0    0  502    0 -0.00000000000E+00 -0.00000000000E+00 -0.62842807379E+03  0.62842807379E+03  0.00000000000E+00 0. -1.
         23    2    1    2    0    0 -0.19740575393E+02  0.66800399571E+02 -0.42343362694E+03  0.44537327869E+03  0.11920292467E+03 0.  0.
         23    2    1    2    0    0  0.23784169296E+00  0.20391326313E+01 -0.14249771559E+03  0.16934236709E+03  0.91471436591E+02 0.  0.
        -11    1    3    3    0    0 -0.58441152611E+02  0.78269198768E+02 -0.30289474580E+03  0.31825565640E+03  0.00000000000E+00 0. -1.
         11    1    3    3    0    0  0.38700577219E+02 -0.11468799197E+02 -0.12053888113E+03  0.12711762229E+03  0.00000000000E+00 0.  1.
        -11    1    4    4    0    0  0.43726937912E+01 -0.42536564257E+02 -0.94409137676E+02  0.10364152173E+03  0.00000000000E+00 0.  1.
         11    1    4    4    0    0 -0.41348520982E+01  0.44575696889E+02 -0.48088577916E+02  0.65700845359E+02  0.00000000000E+00 0. -1.
          1    1    1    2  501    0  0.19502733700E+02 -0.68839532202E+02 -0.45178174615E+01  0.71691341808E+02  0.00000000000E+00 0. -1.
<scales pt_clust_5="13000.00000" pt_clust_6="13000.00000" pt_clust_7="13000.00000" pt_clust_8="13000.00000" pt_clust_9="71.54885"></scales>
<clustering>
<clus scale="   71.549">  1  9  2 -1</clus>
<clus scale="   91.471">  7  8 -1 -1</clus>
<clus scale="   98.853">  1  7  2 -1</clus>
<clus scale="  119.203">  5  6 -1 -1</clus>
<clus scale="   71.549">  1  5  2 -1</clus>
</clustering>
</event>
<event>
 9    1  0.1610296E-005  0.2561813E+03  0.7546771E-02  0.1134987E+00
         21   -1    0    0  501  502  0.00000000000E+00  0.00000000000E+00  0.44776672408E+03  0.44776672408E+03  0.00000000000E+00 0. -1.
         -1   -1    0    0    0  501 -0.00000000000E+00 -0.00000000000E+00 -0.23835560953E+03  0.23835560953E+03  0.00000000000E+00 0.  1.
         23    2    1    2    0    0 -0.10225230756E+03  0.53414507796E+01  0.42749647874E+02  0.14221268023E+03  0.88954193414E+02 0.  0.
         23    2    1    2    0    0  0.26098276362E+03 -0.13865795319E+03  0.84734265188E+02  0.32101794461E+03  0.92382867327E+02 0.  0.
        -11    1    4    4    0    0  0.76148165132E+02 -0.91041648796E+02  0.35915034998E+02  0.12400409109E+03  0.00000000000E+00 0.  1.
         11    1    4    4    0    0  0.18483459849E+03 -0.47616304396E+02  0.48819230190E+02  0.19701385352E+03  0.00000000000E+00 0. -1.
        -13    1    3    3    0    0 -0.91406904418E+02 -0.31412778949E+02  0.36849435605E+02  0.10344015546E+03  0.00000000000E+00 0.  1.
         13    1    3    3    0    0 -0.10845403145E+02  0.36754229728E+02  0.59002122686E+01  0.38772524771E+02  0.00000000000E+00 0. -1.
         -1    1    1    2    0  502 -0.15873045606E+03  0.13331650241E+03  0.81927201485E+02  0.22289170877E+03  0.00000000000E+00 0.  1.
<scales pt_clust_5="13000.00000" pt_clust_6="13000.00000" pt_clust_7="13000.00000" pt_clust_8="13000.00000" pt_clust_9="238.94404"></scales>
<clustering>
<clus scale="   88.954">  7  8 -1 -1</clus>
<clus scale="   92.383">  5  6 -1 -1</clus>
<clus scale="  135.635">  2  7  1 -1</clus>
<clus scale="  238.944">  1  9  2 -1</clus>
<clus scale="  238.944">  1  5  2 -1</clus>
</clustering>
</event>
<event>
 9    1  0.1610296E-005  0.9336248E+02  0.7546771E-02  0.1295211E+00
          2   -1    0    0  502    0 -0.00000000000E+00  0.00000000000E+00  0.34320247879E+03  0.34320247879E+03  0.00000000000E+00 0. -1.
         21   -1    0    0  501  502  0.00000000000E+00 -0.00000000000E+00 -0.63538951029E+02  0.63538951029E+02  0.00000000000E+00 0. -1.
         23    2    1    2    0    0  0.46332601555E+02  0.13463800615E+02  0.13768908848E+03  0.17239561906E+03  0.91836705574E+02 0.  0.
         23    2    1    2    0    0  0.35077642194E+02 -0.81218003380E+01  0.10614036489E+03  0.14523775477E+03  0.92367871744E+02 0.  0.
        -13    1    3    3    0    0  0.62415753450E+02 -0.20524459962E+02  0.79827768029E+02  0.10338980745E+03  0.00000000000E+00 0. -1.
         13    1    3    3    0    0 -0.16083151896E+02  0.33988260577E+02  0.57861320455E+02  0.69005811616E+02  0.00000000000E+00 0.  1.
        -13    1    4    4    0    0  0.24373228767E+02  0.33103034910E+02  0.91311592032E+02  0.10013826462E+03  0.00000000000E+00 0.  1.
         13    1    4    4    0    0  0.10704413427E+02 -0.41224835248E+02  0.14828772853E+02  0.45099490156E+02  0.00000000000E+00 0. -1.
          2    1    1    2  501    0 -0.81410243749E+02 -0.53420002773E+01  0.35834074396E+02  0.89108055989E+02  0.00000000000E+00 0. -1.
<scales pt_clust_5="13000.00000" pt_clust_6="13000.00000" pt_clust_7="13000.00000" pt_clust_8="13000.00000" pt_clust_9="81.58532"></scales>
<clustering>
<clus scale="   81.585">  2  9  1 -1</clus>
<clus scale="   91.837">  5  6 -1 -1</clus>
<clus scale="   92.368">  7  8 -1 -1</clus>
<clus scale="   92.837">  1  5  2 -1</clus>
<clus scale="   81.585">  2  5  1 -1</clus>
</clustering>
</event>
<event>
 9    1  0.1610296E-005  0.1642717E+03  0.7546771E-02  0.1185226E+00
          1   -1    0    0  502    0 -0.00000000000E+00  0.00000000000E+00  0.99563986595E+03  0.99563986595E+03  0.00000000000E+00 0. -1.
         21   -1    0    0  501  502  0.00000000000E+00 -0.00000000000E+00 -0.85613945985E+02  0.85613945985E+02  0.00000000000E+00 0. -1.
         23    2    1    2    0    0 -0.35156061892E+02 -0.11045568344E+03  0.47324635254E+03  0.49544041139E+03  0.89792451576E+02 0.  0.
         23    2    1    2    0    0  0.40316651076E+02  0.24059892569E+03  0.25418475372E+03  0.36152617135E+03  0.81104920637E+02 0.  0.
        -11    1    4    4    0    0 -0.19334607230E+02  0.22549082917E+02  0.18722234404E+02  0.35111397554E+02  0.00000000000E+00 0.  1.
         11    1    4    4    0    0  0.59651258306E+02  0.21804984277E+03  0.23546251932E+03  0.32641477380E+03  0.00000000000E+00 0. -1.
        -13    1    3    3    0    0  0.27798882066E+02 -0.54055602065E+02  0.23134759468E+03  0.23919969800E+03  0.00000000000E+00 0.  1.
         13    1    3    3    0    0 -0.62954943958E+02 -0.56400081370E+02  0.24189875786E+03  0.25624071339E+03  0.00000000000E+00 0. -1.
          1    1    1    2  501    0 -0.51605891844E+01 -0.13014324225E+03  0.18259481371E+03  0.22428722919E+03  0.00000000000E+00 0. -1.
<scales pt_clust_5="13000.00000" pt_clust_6="13000.00000" pt_clust_7="13000.00000" pt_clust_8="13000.00000" pt_clust_9="130.24552"></scales>
<clustering>
<clus scale="   81.105">  5  6 -1 -1</clus>
<clus scale="   89.792">  7  8 -1 -1</clus>
<clus scale="  130.246">  2  9  1 -1</clus>
<clus scale="  159.689">  2  5  1 -1</clus>
<clus scale="  130.246">  2  5  1 -1</clus>
</clustering>
</event>
<event>
 9    1  0.1610296E-005  0.1058076E+03  0.7546771E-02  0.1268766E+00
         21   -1    0    0  501  502  0.00000000000E+00  0.00000000000E+00  0.16069633291E+03  0.16069633291E+03  0.00000000000E+00 0. -1.
         -4   -1    0    0    0  501 -0.00000000000E+00 -0.00000000000E+00 -0.13093104334E+03  0.13093104334E+03  0.00000000000E+00 0.  1.
         23    2    1    2    0    0 -0.16226451425E+02  0.48854928505E+02 -0.27180262025E+02  0.10815142260E+03  0.91147472826E+02 0.  0.
         23    2    1    2    0    0  0.40932160415E+02 -0.40571166901E+02 -0.12771685289E+02  0.10904823111E+03  0.91689363742E+02 0.  0.
        -11    1    4    4    0    0  0.13365808733E+02 -0.67869518681E+02 -0.12247836850E+02  0.70249027870E+02  0.00000000000E+00 0.  1.
         11    1    4    4    0    0  0.27566351682E+02  0.27298351780E+02 -0.52384843940E+00  0.38799203241E+02  0.00000000000E+00 0. -1.
        -13    1    3    3    0    0 -0.14415535704E+02  0.70929417993E+02 -0.39860758135E+02  0.82629716480E+02  0.00000000000E+00 0. -1.
         13    1    3    3    0    0 -0.18109157212E+01 -0.22074489488E+02  0.12680496110E+02  0.25521706124E+02  0.00000000000E+00 0.  1.
         -4    1    1    2    0  502 -0.24705708990E+02 -0.82837616042E+01  0.69717236888E+02  0.74427722539E+02  0.00000000000E+00 0.  1.
<scales pt_clust_5="13000.00000" pt_clust_6="13000.00000" pt_clust_7="13000.00000" pt_clust_8="13000.00000" pt_clust_9="26.05749"></scales>
<clustering>
<clus scale="   26.057">  1  9  2 -1</clus>
<clus scale="   91.147">  7  8 -1 -1</clus>
<clus scale="   91.689">  5  6 -1 -1</clus>
<clus scale="  105.338">  2  7  1 -1</clus>
<clus scale="   26.057">  1  5  2 -1</clus>
</clustering>
</event>
<event>
 9    1  0.1610296E-005  0.1269962E+03  0.7546771E-02  0.1234653E+00
         -2   -1    0    0    0  501 -0.00000000000E+00  0.00000000000E+00  0.34633614861E+02  0.34633614861E+02  0.00000000000E+00 0.  1.
         21   -1    0    0  501  502  0.00000000000E+00 -0.00000000000E+00 -0.63168015489E+03  0.63168015489E+03  0.00000000000E+00 0. -1.
         23    2    1    2    0    0  0.39172862924E+02 -0.88070631980E+02 -0.16268767944E+03  0.20688075836E+03  0.83913155874E+02 0.  0.
         23    2    1    2    0    0 -0.36227365781E+02  0.59201563544E+02 -0.29553715472E+03  0.31761071030E+03  0.93365445025E+02 0.  0.
        -11    1    3    3    0    0  0.35235175110E+02 -0.51169711035E+02 -0.15762453546E+03  0.16942653591E+03  0.00000000000E+00 0. -1.
         11    1    3    3    0    0  0.39376878140E+01 -0.36900920945E+02 -0.50631439829E+01  0.37454222444E+02  0.00000000000E+00 0.  1.
        -13    1    4    4    0    0 -0.46773070877E+02  0.10617108093E+02 -0.23214910365E+03  0.23705199740E+03  0.00000000000E+00 0. -1.
         13    1    4    4    0    0  0.10545705097E+02  0.48584455452E+02 -0.63388051065E+02  0.80558712908E+02  0.00000000000E+00 0.  1.
         -2    1    1    2    0  502 -0.29454971435E+01  0.28869068436E+02 -0.13882170587E+03  0.14182230109E+03  0.00000000000E+00 0.  1.
<scales pt_clust_5="13000.00000" pt_clust_6="13000.00000" pt_clust_7="13000.00000" pt_clust_8="13000.00000" pt_clust_9="29.01894"></scales>
<clustering>
<clus scale="   29.019">  2  9  1 -1</clus>
<clus scale="   83.913">  5  6 -1 -1</clus>
<clus scale="   93.365">  7  8 -1 -1</clus>
<clus scale="  120.218">  1  5  2 -1</clus>
<clus scale="   29.019">  2  5  1 -1</clus>
</clustering>
</event>
<event>
 9    1  0.1610296E-005  0.1070899E+03  0.7546771E-02  0.1267291E+00
         21   -1    0    0  501  502  0.00000000000E+00  0.00000000000E+00  0.28601856663E+03  0.28601856663E+03  0.00000000000E+00 0.  1.
          3   -1    0    0  502    0 -0.00000000000E+00 -0.00000000000E+00 -0.49490760710E+02  0.49490760710E+02  0.00000000000E+00 0. -1.
         23    2    1    2    0    0  0.33645844818E+02 -0.48472206389E+02  0.73378372009E+02  0.13130139468E+03  0.91509961757E+02 0.  0.
         23    2    1    2    0    0 -0.20752598688E+02  0.31834595450E+02  0.13533354886E+03  0.16932571148E+03  0.94402941164E+02 0.  0.
        -11    1    3    3    0    0  0.38524089799E+02 -0.26262367261E+02 -0.75566863796E+01  0.47232625779E+02  0.00000000000E+00 0. -1.
         11    1    3    3    0    0 -0.48782449814E+01 -0.22209839128E+02  0.80935058389E+02  0.84068768902E+02  0.00000000000E+00 0.  1.
        -13    1    4    4    0    0 -0.58401110032E+02  0.13993109807E+02  0.82457524632E+02  0.10200852976E+03  0.00000000000E+00 0.  1.
         13    1    4    4    0    0  0.37648511344E+02  0.17841485643E+02  0.52876024229E+02  0.67317181719E+02  0.00000000000E+00 0. -1.
          3    1    1    2  501    0 -0.12893246130E+02  0.16637610938E+02  0.27815885054E+02  0.34882221186E+02  0.00000000000E+00 0. -1.
<scales pt_clust_5="13000.00000" pt_clust_6="13000.00000" pt_clust_7="13000.00000" pt_clust_8="13000.00000" pt_clust_9="21.04866"></scales>
<clustering>
<clus scale="   21.049">  1  9  2 -1</clus>
<clus scale="   91.510">  5  6 -1 -1</clus>
<clus scale="   94.403">  7  8 -1 -1</clus>
<clus scale="  104.549">  2  5  1 -1</clus>
<clus scale="   21.049">  1  5  2 -1</clus>
</clustering>
</event>
<event>
 9    1  0.1610296E-005  0.1065600E+03  0.7546771E-02  0.1268073E+00
         -2   -1    0    0    0  501 -0.00000000000E+00  0.00000000000E+00  0.60578293012E+02  0.60578293012E+02  0.00000000000E+00 0.  1.
         21   -1    0    0  501  502  0.00000000000E+00 -0.00000000000E+00 -0.53298881914E+03  0.53298881914E+03  0.00000000000E+00 0.  1.
         23    2    1    2    0    0 -0.50139439368E+02  0.20067776203E+02 -0.40427873241E+02  0.11414404184E+03  0.92074808335E+02 0.  0.
         23    2    1    2    0    0 -0.87778379150E+01 -0.75082904925E+02 -0.31447312058E+03  0.33692254353E+03  0.94387307000E+02 0.  0.
        -11    1    3    3    0    0  0.22776781873E+02  0.12946758393E+02 -0.30505978320E+02  0.40212125767E+02  0.00000000000E+00 0.  1.
         11    1    3    3    0    0 -0.72916221241E+02  0.71210178096E+01 -0.99218949205E+01  0.73931916069E+02  0.00000000000E+00 0. -1.
        -11    1    4    4    0    0 -0.39984319581E+02 -0.72735825163E+02 -0.27051815499E+03  0.28296522446E+03  0.00000000000E+00 0.  1.
         11    1    4    4    0    0  0.31206481666E+02 -0.23470797618E+01 -0.43954965583E+02  0.53957319066E+02  0.00000000000E+00 0. -1.
         -2    1    1    2    0  502  0.58917277283E+02  0.55015128722E+02 -0.11750953231E+03  0.14250052679E+03  0.00000000000E+00 0.  1.
<scales pt_clust_5="13000.00000" pt_clust_6="13000.00000" pt_clust_7="13000.00000" pt_clust_8="13000.00000" pt_clust_9="80.60961"></scales>
<clustering>
<clus scale="   80.610">  2  9  1 -1</clus>
<clus scale="   92.075">  5  6 -1 -1</clus>
<clus scale="   94.387">  7  8 -1 -1</clus>
<clus scale="  104.517">  1  5  2 -1</clus>
<clus scale="   80.610">  2  5  1 -1</clus>
</clustering>
</event>
<event>
 9    1  0.1610296E-005  0.9401436E+02  0.7546771E-02  0.1293468E+00
         -3   -1    0    0    0  501 -0.00000000000E+00  0.00000000000E+00  0.99186114245E+02  0.99186114245E+02  0.00000000000E+00 0.  1.
         21   -1    0    0  501  502  0.00000000000E+00 -0.00000000000E+00 -0.26757269441E+03  0.26757269441E+03  0.00000000000E+00 0.  1.
         23    2    1    2    0    0 -0.82784005852E+01  0.22408341088E+02  0.46297661772E+02  0.10548496714E+03  0.91722075538E+02 0.  0.
         23    2    1    2    0    0 -0.14591188275E+02 -0.11720613747E+02 -0.76981418127E+02  0.12127629405E+03  0.91823336903E+02 0.  0.
        -11    1    4    4    0    0 -0.23461943326E+02 -0.39258777317E+02 -0.79417711337E+01  0.46419673736E+02  0.00000000000E+00 0.  1.
         11    1    4    4    0    0  0.88707550512E+01  0.27538163570E+02 -0.69039646994E+02  0.74856620315E+02  0.00000000000E+00 0. -1.
        -13    1    3    3    0    0  0.12817753457E+02  0.39869636049E+02  0.61315137343E+02  0.74252466288E+02  0.00000000000E+00 0.  1.
         13    1    3    3    0    0 -0.21096154042E+02 -0.17461294962E+02 -0.15017475571E+02  0.31232500855E+02  0.00000000000E+00 0. -1.
         -3    1    1    2    0  502  0.22869588860E+02 -0.10687727341E+02 -0.13770282381E+03  0.13999754746E+03  0.00000000000E+00 0.  1.
<scales pt_clust_5="13000.00000" pt_clust_6="13000.00000" pt_clust_7="13000.00000" pt_clust_8="13000.00000" pt_clust_9="25.24372"></scales>
<clustering>
<clus scale="   25.244">  2  9  1 -1</clus>
<clus scale="   91.722">  7  8 -1 -1</clus>
<clus scale="   91.823">  5  6 -1 -1</clus>
<clus scale="   93.915">  1  7  2 -1</clus>
<clus scale="   25.244">  2  5  1 -1</clus>
</clustering>
</event>
<event>
 9    1  0.1610296E-005  0.9460632E+02  0.7546771E-02  0.1295096E+00
         -1   -1    0    0    0  501 -0.00000000000E+00  0.00000000000E+00  0.35896449755E+03  0.35896449755E+03  0.00000000000E+00 0.  1.
         21   -1    0    0  501  502  0.00000000000E+00 -0.00000000000E+00 -0.12111700999E+03  0.12111700999E+03  0.00000000000E+00 0.  1.
         23    2    1    2    0    0 -0.27223102816E+02  0.11439945634E+02  0.21538147800E+03  0.23492552186E+03  0.89044090627E+02 0.  0.
         23    2    1    2    0    0 -0.44895238952E+02  0.82795680867E+01  0.94699326458E+02  0.14119653920E+03  0.94256917632E+02 0.  0.
        -11    1    4    4    0    0 -0.22331855505E+02  0.49852685503E+02  0.34387934781E+02  0.64548679930E+02  0.00000000000E+00 0.  1.
         11    1    4    4    0    0 -0.22563383446E+02 -0.41573117417E+02  0.60311391676E+02  0.76647859267E+02  0.00000000000E+00 0. -1.
        -13    1    3    3    0    0 -0.28933333219E+02  0.39885797663E+02  0.19152081736E+03  0.19775802919E+03  0.00000000000E+00 0.  1.
         13    1    3    3    0    0  0.17102304023E+01 -0.28445852029E+02  0.23860660638E+02  0.37167492676E+02  0.00000000000E+00 0. -1.
         -1    1    1    2    0  502  0.72118341768E+02 -0.19719513721E+02 -0.72233316901E+02  0.10395944647E+03  0.00000000000E+00 0.  1.
<scales pt_clust_5="13000.00000" pt_clust_6="13000.00000" pt_clust_7="13000.00000" pt_clust_8="13000.00000" pt_clust_9="74.76573"></scales>
<clustering>
<clus scale="   74.766">  2  9  1 -1</clus>
<clus scale="   89.044">  7  8 -1 -1</clus>
<clus scale="   89.414">  1  7  2 -1</clus>
<clus scale="   94.257">  5  6 -1 -1</clus>
<clus scale="   74.766">  2  5  1 -1</clus>
</clustering>
</event>
<event>
 9    1  0.1610296E-005  0.1153003E+03  0.7546771E-02  0.1251300E+00
          4   -1    0    0  502    0 -0.00000000000E+00  0.00000000000E+00  0.53817692169E+03  0.53817692169E+03  0.00000000000E+00 0. -1.
         21   -1    0    0  501  502  0.00000000000E+00 -0.00000000000E+00 -0.48784817201E+02  0.48784817201E+02  0.00000000000E+00 0.  1.
         23    2    1    2    0    0 -0.42835689803E+01  0.73703121856E+02  0.42123893806E+03  0.43719492337E+03  0.90811116894E+02 0.  0.
         23    2    1    2    0    0  0.22236994805E+02 -0.57845790878E+02  0.57443062758E+02  0.12352778418E+03  0.90104320353E+02 0.  0.
        -11    1    4    4    0    0 -0.31757818035E+02 -0.17591911622E+02  0.21138495715E+01  0.36366230501E+02  0.00000000000E+00 0. -1.
         11    1    4    4    0    0  0.53994812840E+02 -0.40253879256E+02  0.55329213187E+02  0.87161553684E+02  0.00000000000E+00 0.  1.
        -13    1    3    3    0    0 -0.41695416111E+02  0.27007745718E+02  0.11670132432E+03  0.12683503124E+03  0.00000000000E+00 0.  1.
         13    1    3    3    0    0  0.37411847130E+02  0.46695376138E+02  0.30453761375E+03  0.31035989213E+03  0.00000000000E+00 0. -1.
          4    1    1    2  501    0 -0.17953425825E+02 -0.15857330979E+02  0.10710103669E+02  0.26239031332E+02  0.00000000000E+00 0. -1.
<scales pt_clust_5="13000.00000" pt_clust_6="13000.00000" pt_clust_7="13000.00000" pt_clust_8="13000.00000" pt_clust_9="23.95371"></scales>
<clustering>
<clus scale="   23.954">  2  9  1 -1</clus>
<clus scale="   90.104">  5  6 -1 -1</clus>
<clus scale="   90.811">  7  8 -1 -1</clus>
<clus scale="  114.744">  2  5  1 -1</clus>
<clus scale="   23.954">  2  5  1 -1</clus>
</clustering>
</event>
<event>
 9    1  0.1610296E-005  0.1257890E+03  0.7546771E-02  0.1240243E+00
         21   -1    0    0  501  502  0.00000000000E+00  0.00000000000E+00  0.25565108272E+03  0.25565108272E+03  0.00000000000E+00 0. -1.
          4   -1    0    0  502    0 -0.00000000000E+00 -0.00000000000E+00 -0.21988080510E+03  0.21988080510E+03  0.00000000000E+00 0. -1.
         23    2    1    2    0    0  0.14811575948E+02  0.53937324823E+02 -0.17499626174E+03  0.20673204773E+03  0.94793618672E+02 0.  0.
         23    2    1    2    0    0 -0.36037236005E+02 -0.54603861682E+02  0.12469768374E+03  0.18014984954E+03  0.11235742908E+03 0.  0.
        -13    1    4    4    0    0 -0.76965945438E+02 -0.38180357051E+02  0.82656798831E+02  0.11922098311E+03  0.00000000000E+00 0.  1.
         13    1    4    4    0    0  0.40928709434E+02 -0.16423504631E+02  0.42040884904E+02  0.60928866425E+02  0.00000000000E+00 0. -1.
        -13    1    3    3    0    0  0.57149670710E+01  0.80106093922E+02 -0.11109049334E+03  0.13707933776E+03  0.00000000000E+00 0. -1.
         13    1    3    3    0    0  0.90966088769E+01 -0.26168769098E+02 -0.63905768407E+02  0.69652709961E+02  0.00000000000E+00 0.  1.
          4    1    1    2  501    0  0.21225660057E+02  0.66653685869E+00  0.86068855624E+02  0.88649990551E+02  0.00000000000E+00 0. -1.
<scales pt_clust_5="13000.00000" pt_clust_6="13000.00000" pt_clust_7="13000.00000" pt_clust_8="13000.00000" pt_clust_9="21.23612"></scales>
<clustering>
<clus scale="   21.236">  1  9  2 -1</clus>
<clus scale="   94.794">  7  8 -1 -1</clus>
<clus scale="  110.384">  2  7  1 -1</clus>
<clus scale="  112.357">  5  6 -1 -1</clus>
<clus scale="   21.236">  1  5  2 -1</clus>
</clustering>
</event>
<event>
 9    1  0.1610296E-005  0.1552821E+03  0.7546771E-02  0.1194595E+00
          2   -1    0    0  502    0 -0.00000000000E+00  0.00000000000E+00  0.13810591554E+04  0.13810591554E+04  0.00000000000E+00 0. -1.
         21   -1    0    0  501  502  0.00000000000E+00 -0.00000000000E+00 -0.20769234297E+02  0.20769234297E+02  0.00000000000E+00 0. -1.
         23    2    1    2    0    0  0.11992282846E+02  0.11862794858E+03  0.57512209969E+03  0.59383353748E+03  0.87501060861E+02 0.  0.
         23    2    1    2    0    0  0.10155665526E+02 -0.13471223358E+03  0.64232417079E+03  0.66255227123E+03  0.90247705294E+02 0.  0.
        -13    1    3    3    0    0  0.47091094505E+02  0.55530935573E+02  0.23038184984E+03  0.24161343655E+03  0.00000000000E+00 0. -1.
         13    1    3    3    0    0 -0.35098811659E+02  0.63097013012E+02  0.34474024985E+03  0.35222010093E+03  0.00000000000E+00 0.  1.
        -13    1    4    4    0    0  0.47140894823E+02 -0.10416626739E+03  0.43877584637E+03  0.45342818460E+03  0.00000000000E+00 0. -1.
         13    1    4    4    0    0 -0.36985229297E+02 -0.30545966194E+02  0.20354832442E+03  0.20912408663E+03  0.00000000000E+00 0.  1.
          2    1    1    2  501    0 -0.22147948372E+02  0.16084284997E+02  0.14284365063E+03  0.14544258100E+03  0.00000000000E+00 0. -1.
<scales pt_clust_5="13000.00000" pt_clust_6="13000.00000" pt_clust_7="13000.00000" pt_clust_8="13000.00000" pt_clust_9="27.37219"></scales>
<clustering>
<clus scale="   27.372">  2  9  1 -1</clus>
<clus scale="   87.501">  5  6 -1 -1</clus>
<clus scale="   90.248">  7  8 -1 -1</clus>
<clus scale="  153.702">  1  5  2 -1</clus>
<clus scale="   27.372">  2  5  1 -1</clus>
</clustering>
</event>
<event>
 9    1  0.1610296E-005  0.9124388E+02  0.7546771E-02  0.1300320E+00
          1   -1    0    0  502    0 -0.00000000000E+00  0.00000000000E+00  0.30120332115E+02  0.30120332115E+02  0.00000000000E+00 0. -1.
         21   -1    0    0  501  502  0.00000000000E+00 -0.00000000000E+00 -0.53202662905E+03  0.53202662905E+03  0.00000000000E+00 0.  1.
         23    2    1    2    0    0  0.18689311958E+02 -0.93317533708E+01 -0.15874491121E+03  0.18368771134E+03  0.90026976292E+02 0.  0.
         23    2    1    2    0    0  0.38999928961E+02 -0.18393888197E+01 -0.18514149984E+03  0.20986765077E+03  0.90789195766E+02 0.  0.
        -13    1    4    4    0    0 -0.99784085890E+01  0.31534518916E+02 -0.33598705055E+02  0.47147295814E+02  0.00000000000E+00 0.  1.
         13    1    4    4    0    0  0.48978337550E+02 -0.33373907736E+02 -0.15154279478E+03  0.16272035496E+03  0.00000000000E+00 0. -1.
        -13    1    3    3    0    0  0.42335324671E+02 -0.20920853594E+00 -0.28583438849E+02  0.51081664613E+02  0.00000000000E+00 0. -1.
         13    1    3    3    0    0 -0.23646012713E+02 -0.91225448348E+01 -0.13016147236E+03  0.13260604673E+03  0.00000000000E+00 0.  1.
          1    1    1    2  501    0 -0.57689240919E+02  0.11171142191E+02 -0.15801988588E+03  0.16859159905E+03  0.00000000000E+00 0. -1.
<scales pt_clust_5="13000.00000" pt_clust_6="13000.00000" pt_clust_7="13000.00000" pt_clust_8="13000.00000" pt_clust_9="58.76090"></scales>
<clustering>
<clus scale="   58.761">  2  9  1 -1</clus>
<clus scale="   90.027">  7  8 -1 -1</clus>
<clus scale="   90.485">  1  7  2 -1</clus>
<clus scale="   90.789">  5  6 -1 -1</clus>
<clus scale="   58.761">  2  5  1 -1</clus>
</clustering>
</event>
<event>
 9    1  0.1610296E-005  0.1027677E+03  0.7546771E-02  0.1274698E+00
         21   -1    0    0  501  502  0.00000000000E+00  0.00000000000E+00  0.31568125350E+03  0.31568125350E+03  0.00000000000E+00 0. -1.
          1   -1    0    0  502    0 -0.00000000000E+00 -0.00000000000E+00 -0.20234130436E+03  0.20234130436E+03  0.00000000000E+00 0. -1.
         23    2    1    2    0    0  0.34049987751E+02 -0.97747677243E+01 -0.84536345815E+02  0.12945958552E+03  0.91424519523E+02 0.  0.
         23    2    1    2    0    0 -0.65111806711E+02 -0.85683129128E-02 -0.61057831351E+02  0.12758896593E+03  0.91166539969E+02 0.  0.
        -11    1    3    3    0    0  0.34608962661E+02  0.36367901281E+02 -0.32002160605E+02  0.59536063218E+02  0.00000000000E+00 0.  1.
         11    1    3    3    0    0 -0.55897490921E+00 -0.46142669006E+02 -0.52534185210E+02  0.69923522305E+02  0.00000000000E+00 0. -1.
        -11    1    4    4    0    0 -0.22028499726E+02  0.48471554319E+00  0.23791281319E+02  0.32427069188E+02  0.00000000000E+00 0.  1.
         11    1    4    4    0    0 -0.43083306985E+02 -0.49328385611E+00 -0.84849112670E+02  0.95161896737E+02  0.00000000000E+00 0. -1.
          1    1    1    2  501    0  0.31061818959E+02  0.97833360372E+01  0.25893412630E+03  0.26097400642E+03  0.00000000000E+00 0. -1.
<scales pt_clust_5="13000.00000" pt_clust_6="13000.00000" pt_clust_7="13000.00000" pt_clust_8="13000.00000" pt_clust_9="32.56609"></scales>
<clustering>
<clus scale="   32.566">  1  9  2 -1</clus>
<clus scale="   91.167">  7  8 -1 -1</clus>
<clus scale="   91.425">  5  6 -1 -1</clus>
<clus scale="  102.538">  1  7  2 -1</clus>
<clus scale="   32.566">  1  5  2 -1</clus>
</clustering>
</event>
<event>
 9    1  0.1610296E-005  0.9573562E+02  0.7546771E-02  0.1291556E+00
          3   -1    0    0  502    0 -0.00000000000E+00  0.00000000000E+00  0.57348283728E+03  0.57348283728E+03  0.00000000000E+00 0. -1.
         21   -1    0    0  501  502  0.00000000000E+00 -0.00000000000E+00 -0.46336359883E+02  0.46336359883E+02  0.00000000000E+00 0.  1.
         23    2    1    2    0    0  0.43948076239E+02 -0.71835084962E+01  0.35977242984E+03  0.37373248986E+03  0.90866586274E+02 0.  0.
         23    2    1    2    0    0 -0.80223849389E+01  0.90668046677E+01  0.18587886524E+03  0.20563141868E+03  0.87102021794E+02 0.  0.
        -11    1    4    4    0    0  0.31064387794E+02  0.82396594954E+01  0.26883607566E+02  0.41900077964E+02  0.00000000000E+00 0. -1.
         11    1    4    4    0    0 -0.39086772733E+02  0.82714517225E+00  0.15899525767E+03  0.16373134072E+03  0.00000000000E+00 0.  1.
        -11    1    3    3    0    0 -0.24817366642E+02 -0.19207137218E+02  0.11070264841E+03  0.11506473036E+03  0.00000000000E+00 0.  1.
         11    1    3    3    0    0  0.68765442881E+02  0.12023628721E+02  0.24906978143E+03  0.25866775950E+03  0.00000000000E+00 0. -1.
          3    1    1    2  501    0 -0.35925691300E+02 -0.18832961715E+01 -0.18504817685E+02  0.40455288621E+02  0.00000000000E+00 0. -1.
<scales pt_clust_5="13000.00000" pt_clust_6="13000.00000" pt_clust_7="13000.00000" pt_clust_8="13000.00000" pt_clust_9="35.97502"></scales>
<clustering>
<clus scale="   35.975">  2  9  1 -1</clus>
<clus scale="   87.102">  5  6 -1 -1</clus>
<clus scale="   90.867">  7  8 -1 -1</clus>
<clus scale="   92.170">  2  5  1 -1</clus>
<clus scale="   35.975">  2  5  1 -1</clus>
</clustering>
</event>
<event>
 9    1  0.1610296E-005  0.1462282E+03  0.7546771E-02  0.1206694E+00
          1   -1    0    0  502    0 -0.00000000000E+00  0.00000000000E+00  0.50121687196E+03  0.50121687196E+03  0.00000000000E+00 0. -1.
         21   -1    0    0  501  502  0.00000000000E+00 -0.00000000000E+00 -0.26606448863E+03  0.26606448863E+03  0.00000000000E+00 0. -1.
         23    2    1    2    0    0  0.10817109294E+03 -0.34256205919E+02  0.36501354019E+03  0.39305547107E+03  0.91560066760E+02 0.  0.
         23    2    1    2    0    0 -0.75953971400E+02  0.60905900112E+02  0.80152242978E+02  0.16009093854E+03  0.98621458654E+02 0.  0.
        -11    1    3    3    0    0 -0.13615260327E+02 -0.18068950761E+02  0.66741552352E+02  0.70471959712E+02  0.00000000000E+00 0.  1.
         11    1    3    3    0    0  0.12178635327E+03 -0.16187255157E+02  0.29827198784E+03  0.32258351136E+03  0.00000000000E+00 0. -1.
        -13    1    4    4    0    0 -0.61822746297E+02  0.25642240267E+02  0.97553278298E+02  0.11830561505E+03  0.00000000000E+00 0. -1.
         13    1    4    4    0    0 -0.14131225104E+02  0.35263659845E+02 -0.17401035321E+02  0.41785323486E+02  0.00000000000E+00 0.  1.
          1    1    1    2  501    0 -0.32217121541E+02 -0.26649694193E+02 -0.21001339984E+03  0.21413495099E+03  0.00000000000E+00 0. -1.
<scales pt_clust_5="13000.00000" pt_clust_6="13000.00000" pt_clust_7="13000.00000" pt_clust_8="13000.00000" pt_clust_9="41.81087"></scales>
<clustering>
<clus scale="   41.811">  2  9  1 -1</clus>
<clus scale="   91.560">  5  6 -1 -1</clus>
<clus scale="   98.621">  7  8 -1 -1</clus>
<clus scale="  141.562">  1  5  2 -1</clus>
<clus scale="   41.811">  2  5  1 -1</clus>
</clustering>
</event>
<event>
 9    1  0.1610296E-005  0.9294920E+02  0.7546771E-02  0.1296439E+00
         21   -1    0    0  501  502  0.00000000000E+00  0.00000000000E+00  0.40504652383E+03  0.40504652383E+03  0.00000000000E+00 0. -1.
         -1   -1    0    0    0  501 -0.00000000000E+00 -0.00000000000E+00 -0.63946707727E+02  0.63946707727E+02  0.00000000000E+00 0.  1.
         23    2    1    2    0    0  0.31696620074E+02 -0.17770738496E+02  0.63183691967E+02  0.11629138111E+03  0.90614742281E+02 0.  0.
         23    2    1    2    0    0  0.30765517941E+02 -0.36377901517E+02  0.24095275492E+03  0.26214863646E+03  0.91617731238E+02 0.  0.
        -11    1    4    4    0    0 -0.62710047154E+01 -0.55617460701E+02  0.17821174781E+03  0.18679415004E+03  0.00000000000E+00 0. -1.
         11    1    4    4    0    0  0.37036522657E+02  0.19239559184E+02  0.62741007118E+02  0.75354486411E+02  0.00000000000E+00 0.  1.
        -11    1    3    3    0    0  0.60571926006E+02 -0.49172571885E+01  0.22567506345E+02  0.64826151983E+02  0.00000000000E+00 0.  1.
         11    1    3    3    0    0 -0.28875305932E+02 -0.12853481308E+02  0.40616185623E+02  0.51465229125E+02  0.00000000000E+00 0. -1.
         -1    1    1    2    0  502 -0.62462138016E+02  0.54148640013E+02  0.36963369211E+02  0.90553213991E+02  0.00000000000E+00 0.  1.
<scales pt_clust_5="13000.00000" pt_clust_6="13000.00000" pt_clust_7="13000.00000" pt_clust_8="13000.00000" pt_clust_9="82.66560"></scales>
<clustering>
<clus scale="   82.666">  1  9  2 -1</clus>
<clus scale="   90.615">  7  8 -1 -1</clus>
<clus scale="   91.618">  5  6 -1 -1</clus>
<clus scale="   91.961">  2  7  1 -1</clus>
<clus scale="   82.666">  1  5  2 -1</clus>
</clustering>
</event>
<event>
 9    1  0.1610296E-005  0.1186818E+03  0.7546771E-02  0.1246975E+00
         -4   -1    0    0    0  501 -0.00000000000E+00  0.00000000000E+00  0.45017623371E+02  0.45017623371E+02  0.00000000000E+00 0.  1.
         21   -1    0    0  501  502  0.00000000000E+00 -0.00000000000E+00 -0.66182532485E+03  0.66182532485E+03  0.00000000000E+00 0.  1.
         23    2    1    2    0    0  0.52877713406E+02 -0.54339475012E+02 -0.65543588960E+02  0.13727932743E+03  0.93812688723E+02 0.  0.
         23    2    1    2    0    0 -0.60605142845E+02  0.21974011673E+02 -0.43659862521E+03  0.45016759757E+03  0.88750582164E+02 0.  0.
        -11    1    4    4    0    0  0.16058985328E+02 -0.15550202400E+02 -0.13007428574E+03  0.13198113356E+03  0.00000000000E+00 0. -1.
         11    1    4    4    0    0 -0.76664128173E+02  0.37524214074E+02 -0.30652433948E+03  0.31818646401E+03  0.00000000000E+00 0.  1.
        -13    1    3    3    0    0  0.36714348889E+02 -0.72375609567E+02 -0.16836610078E+02  0.82883313842E+02  0.00000000000E+00 0.  1.
         13    1    3    3    0    0  0.16163364516E+02  0.18036134554E+02 -0.48706978881E+02  0.54396013585E+02  0.00000000000E+00 0. -1.
         -4    1    1    2    0  502  0.77274294394E+01  0.32365463339E+02 -0.11466548731E+03  0.11939602323E+03  0.00000000000E+00 0.  1.
<scales pt_clust_5="13000.00000" pt_clust_6="13000.00000" pt_clust_7="13000.00000" pt_clust_8="13000.00000" pt_clust_9="33.27516"></scales>
<clustering>
<clus scale="   33.275">  2  9  1 -1</clus>
<clus scale="   88.751">  5  6 -1 -1</clus>
<clus scale="   93.813">  7  8 -1 -1</clus>
<clus scale="  114.722">  2  5  1 -1</clus>
<clus scale="   33.275">  2  5  1 -1</clus>
</clustering>
</event>
<event>
 9    1  0.1610296E-005  0.1960860E+03  0.7546771E-02  0.1153190E+00
         21   -1    0    0  501  502  0.00000000000E+00  0.00000000000E+00  0.86280647512E+02  0.86280647512E+02  0.00000000000E+00 0. -1.
          2   -1    0    0  502    0 -0.00000000000E+00 -0.00000000000E+00 -0.72647676279E+03  0.72647676279E+03  0.00000000000E+00 0. -1.
         23    2    1    2    0    0  0.80636610471E+02  0.14221082308E+03 -0.42990218987E+03  0.46880829977E+03  0.90769752288E+02 0.  0.
         23    2    1    2    0    0 -0.12400489326E+03 -0.16141689037E+03 -0.15925401199E+03  0.27427304768E+03  0.91821774648E+02 0.  0.
        -11    1    4    4    0    0 -0.13827418077E+03 -0.14715456338E+03 -0.13583676305E+03  0.24336359791E+03  0.00000000000E+00 0. -1.
         11    1    4    4    0    0  0.14269287510E+02 -0.14262326987E+02 -0.23417248939E+02  0.30909449768E+02  0.00000000000E+00 0.  1.
        -11    1    3    3    0    0  0.91151552764E+02  0.91691186734E+02 -0.24733623704E+03  0.27908975877E+03  0.00000000000E+00 0.  1.
         11    1    3    3    0    0 -0.10514942293E+02  0.50519636343E+02 -0.18256595283E+03  0.18971854100E+03  0.00000000000E+00 0. -1.
          2    1    1    2  501    0  0.43368282791E+02  0.19206067288E+02 -0.51039913427E+02  0.69676062860E+02  0.00000000000E+00 0. -1.
<scales pt_clust_5="13000.00000" pt_clust_6="13000.00000" pt_clust_7="13000.00000" pt_clust_8="13000.00000" pt_clust_9="47.43080"></scales>
<clustering>
<clus scale="   47.431">  1  9  2 -1</clus>
<clus scale="   90.770">  7  8 -1 -1</clus>
<clus scale="   91.822">  5  6 -1 -1</clus>
<clus scale="  195.596">  2  7  1 -1</clus>
<clus scale="   47.431">  1  5  2 -1</clus>
</clustering>
</event>
<event>
 9    1  0.1610296E-005  0.9823641E+02  0.7546771E-02  0.1284422E+00
         21   -1    0    0  501  502  0.00000000000E+00  0.00000000000E+00  0.35796329028E+03  0.35796329028E+03  0.00000000000E+00 0. -1.
         -4   -1    0    0    0  501 -0.00000000000E+00 -0.00000000000E+00 -0.13765383234E+03  0.13765383234E+03  0.00000000000E+00 0.  1.
         23    2    1    2    0    0  0.37243708479E+02  0.81119464976E+01 -0.10249731249E+03  0.14139780570E+03  0.89636727358E+02 0.  0.
         23    2    1    2    0    0 -0.59009737030E+02 -0.29910171364E+02  0.21196815425E+03  0.23917966531E+03  0.88879955371E+02 0.  0.
        -11    1    4    4    0    0 -0.78088159836E+02 -0.10601632098E+02  0.18419558910E+03  0.20034512810E+03  0.00000000000E+00 0. -1.
         11    1    4    4    0    0  0.19078422806E+02 -0.19308539266E+02  0.27772565149E+02  0.38834537210E+02  0.00000000000E+00 0.  1.
        -11    1    3    3    0    0  0.37150934934E+02  0.44846881767E+02 -0.77595544933E+02  0.97018056897E+02  0.00000000000E+00 0.  1.
         11    1    3    3    0    0  0.92773544726E-01 -0.36734935270E+02 -0.24901767557E+02  0.44379748802E+02  0.00000000000E+00 0. -1.
         -4    1    1    2    0  502  0.21766028551E+02  0.21798224866E+02  0.11083861618E+03  0.11503965161E+03  0.00000000000E+00 0.  1.
<scales pt_clust_5="13000.00000" pt_clust_6="13000.00000" pt_clust_7="13000.00000" pt_clust_8="13000.00000" pt_clust_9="30.80459"></scales>
<clustering>
<clus scale="   30.805">  1  9  2 -1</clus>
<clus scale="   88.880">  5  6 -1 -1</clus>
<clus scale="   89.637">  7  8 -1 -1</clus>
<clus scale="   97.546">  1  5  2 -1</clus>
<clus scale="   30.805">  1  5  2 -1</clus>
</clustering>
</event>
<event>
 9    1  0.1610296E-005  0.1482598E+03  0.7546771E-02  0.1226699E+00
         -4   -1    0    0    0  501 -0.00000000000E+00  0.00000000000E+00  0.67181689208E+02  0.67181689208E+02  0.00000000000E+00 0.  1.
         21   -1    0    0  501  502  0.00000000000E+00 -0.00000000000E+00 -0.74613728427E+03  0.74613728427E+03  0.00000000000E+00 0.  1.
         23    2    1    2    0    0 -0.78412754274E+01 -0.12194011638E+02 -0.88199947077E+02  0.12531942659E+03  0.87838194977E+02 0.  0.
         23    2    1    2    0    0 -0.92616462343E+02 -0.48947285320E+02 -0.74247805960E+02  0.15827285684E+03  0.92541421462E+02 0.  0.
        -11    1    4    4    0    0 -0.15124215751E+02  0.14471653628E+02 -0.51492936593E+02  0.55585008588E+02  0.00000000000E+00 0. -1.
         11    1    4    4    0    0 -0.77492246591E+02 -0.63418938949E+02 -0.22754869367E+02  0.10268784825E+03  0.00000000000E+00 0.  1.
        -13    1    3    3    0    0 -0.10036910657E+02  0.37175061247E+02 -0.48518375691E+02  0.61941565479E+02  0.00000000000E+00 0. -1.
         13    1    3    3    0    0  0.21956352300E+01 -0.49369072885E+02 -0.39681571386E+02  0.63377861113E+02  0.00000000000E+00 0.  1.
         -4    1    1    2    0  502  0.10045773777E+03  0.61141296958E+02 -0.51650784202E+03  0.52972669004E+03  0.00000000000E+00 0.  1.
<scales pt_clust_5="13000.00000" pt_clust_6="13000.00000" pt_clust_7="13000.00000" pt_clust_8="13000.00000" pt_clust_9="115.83198"></scales>
<clustering>
<clus scale="   87.838">  7  8 -1 -1</clus>
<clus scale="   89.027">  1  7  2 -1</clus>
<clus scale="   92.541">  5  6 -1 -1</clus>
<clus scale="  115.832">  2  9  1 -1</clus>
<clus scale="  115.832">  2  5  1 -1</clus>
</clustering>
</event>
<event>
 9    1  0.1610296E-005  0.1082919E+03  0.7546771E-02  0.1264708E+00
         21   -1    0    0  501  502  0.00000000000E+00  0.00000000000E+00  0.93670887229E+02  0.93670887229E+02  0.00000000000E+00 0.  1.
          1   -1    0    0  502    0 -0.00000000000E+00 -0.00000000000E+00 -0.25519058448E+03  0.25519058448E+03  0.00000000000E+00 0. -1.
         23    2    1    2    0    0  0.39341500087E+02 -0.43357109161E+02 -0.17796825565E+03  0.20680097696E+03  0.87557703877E+02 0.  0.
         23    2    1    2    0    0 -0.33014590562E+02  0.63011391320E+02  0.28487087217E+02  0.11815972557E+03  0.89943359860E+02 0.  0.
        -11    1    3    3    0    0  0.33943098530E+02 -0.57034346803E+01 -0.16188225639E+03  0.16550083999E+03  0.00000000000E+00 0. -1.
         11    1    3    3    0    0  0.53984015570E+01 -0.37653674481E+02 -0.16085999264E+02  0.41300136969E+02  0.00000000000E+00 0.  1.
        -13    1    4    4    0    0  0.10750202903E+00  0.68455993977E+02  0.43795916596E+02  0.81266948870E+02  0.00000000000E+00 0. -1.
         13    1    4    4    0    0 -0.33122092591E+02 -0.54446026579E+01 -0.15308829380E+02  0.36892776701E+02  0.00000000000E+00 0.  1.
          1    1    1    2  501    0 -0.63269095252E+01 -0.19654282158E+02 -0.12038528820E+02  0.23900769181E+02  0.00000000000E+00 0. -1.
<scales pt_clust_5="13000.00000" pt_clust_6="13000.00000" pt_clust_7="13000.00000" pt_clust_8="13000.00000" pt_clust_9="20.64754"></scales>
<clustering>
<clus scale="   20.648">  1  9  2 -1</clus>
<clus scale="   87.558">  5  6 -1 -1</clus>
<clus scale="   89.943">  7  8 -1 -1</clus>
<clus scale="  106.319">  2  5  1 -1</clus>
<clus scale="   20.648">  1  5  2 -1</clus>
</clustering>
</event>
<event>
 9    1  0.1610296E-005  0.1039026E+03  0.7546771E-02  0.1279246E+00
         21   -1    0    0  501  502  0.00000000000E+00  0.00000000000E+00  0.52127827189E+02  0.52127827189E+02  0.00000000000E+00 0.  1.
          2   -1    0    0  502    0 -0.00000000000E+00 -0.00000000000E+00 -0.41752563629E+03  0.41752563629E+03  0.00000000000E+00 0. -1.
         23    2    1    2    0    0  0.25936467100E+02 -0.20785553847E+02 -0.22040689106E+03  0.24017230216E+03  0.89435996793E+02 0.  0.
         23    2    1    2    0    0  0.58161201092E+01 -0.89560531517E+01 -0.15371610831E+03  0.18510865940E+03  0.10257941162E+03 0.  0.
        -11    1    3    3    0    0 -0.27813831765E+02 -0.14021455618E+02 -0.34261938541E+02  0.46304329038E+02  0.00000000000E+00 0.  1.
         11    1    3    3    0    0  0.53750298865E+02 -0.67640982288E+01 -0.18614495252E+03  0.19386797312E+03  0.00000000000E+00 0. -1.
        -13    1    4    4    0    0  0.25896539403E+02  0.29893431559E+02 -0.12888872930E+03  0.13482044557E+03  0.00000000000E+00 0. -1.
         13    1    4    4    0    0 -0.20080419293E+02 -0.38849484711E+02 -0.24827379011E+02  0.50288213827E+02  0.00000000000E+00 0.  1.
          2    1    1    2  501    0 -0.31752587209E+02  0.29741606999E+02  0.87251902732E+01  0.44372501920E+02  0.00000000000E+00 0. -1.
<scales pt_clust_5="13000.00000" pt_clust_6="13000.00000" pt_clust_7="13000.00000" pt_clust_8="13000.00000" pt_clust_9="43.50621"></scales>
<clustering>
<clus scale="   43.506">  1  9  2 -1</clus>
<clus scale="   89.436">  5  6 -1 -1</clus>
<clus scale="   90.951">  2  5  1 -1</clus>
<clus scale="  102.579">  7  8 -1 -1</clus>
<clus scale="   43.506">  1  5  2 -1</clus>
</clustering>
</event>
<event>
 9    1  0.1610296E-005  0.1218680E+03  0.7546771E-02  0.1243787E+00
         -2   -1    0    0    0  501 -0.00000000000E+00  0.00000000000E+00  0.64075906265E+02  0.64075906265E+02  0.00000000000E+00 0.  1.
         21   -1    0    0  501  502  0.00000000000E+00 -0.00000000000E+00 -0.35450032762E+03  0.35450032762E+03  0.00000000000E+00 0.  1.
         23    2    1    2    0    0  0.65692193456E+02 -0.92470831177E+01 -0.55893111986E+02  0.12582131592E+03  0.91137208348E+02 0.  0.
         23    2    1    2    0    0 -0.68299398337E+02 -0.37563482937E+02 -0.17194711587E+03  0.21455768088E+03  0.10194785287E+03 0.  0.
        -11    1    4    4    0    0 -0.72462318608E+02 -0.58590809485E+02 -0.88904565614E+02  0.12879321551E+03  0.00000000000E+00 0.  1.
         11    1    4    4    0    0  0.41629202717E+01  0.21027326548E+02 -0.83042550256E+02  0.85764465369E+02  0.00000000000E+00 0. -1.
        -13    1    3    3    0    0  0.19693911015E+02  0.39518971074E+02 -0.12223334021E+02  0.45814944072E+02  0.00000000000E+00 0. -1.
         13    1    3    3    0    0  0.45998282442E+02 -0.48766054191E+02 -0.43669777965E+02  0.80006371849E+02  0.00000000000E+00 0.  1.
         -2    1    1    2    0  502  0.26072048801E+01  0.46810566055E+02 -0.62584193494E+02  0.78197237081E+02  0.00000000000E+00 0.  1.
<scales pt_clust_5="13000.00000" pt_clust_6="13000.00000" pt_clust_7="13000.00000" pt_clust_8="13000.00000" pt_clust_9="46.88312"></scales>
<clustering>
<clus scale="   46.883">  2  9  1 -1</clus>
<clus scale="   91.137">  7  8 -1 -1</clus>
<clus scale="  101.948">  5  6 -1 -1</clus>
<clus scale="  112.980">  1  7  2 -1</clus>
<clus scale="   46.883">  2  5  1 -1</clus>
</clustering>
</event>
<event>
 9    1  0.1610296E-005  0.1633880E+03  0.7546771E-02  0.1184930E+00
          1   -1    0    0  502    0 -0.00000000000E+00  0.00000000000E+00  0.77350011228E+03  0.77350011228E+03  0.00000000000E+00 0. -1.
         21   -1    0    0  501  502  0.00000000000E+00 -0.00000000000E+00 -0.93864080408E+02  0.93864080408E+02  0.00000000000E+00 0. -1.
         23    2    1    2    0    0 -0.10991504369E+02 -0.13391081207E+03  0.55120775131E+03  0.57452611805E+03  0.90539253701E+02 0.  0.
         23    2    1    2    0    0 -0.18606670347E+02  0.14210309992E+03  0.17072021670E+03  0.24057170505E+03  0.90497810441E+02 0.  0.
        -11    1    4    4    0    0 -0.83114455659E+01  0.31070754602E+02 -0.49070540825E+01  0.32535382259E+02  0.00000000000E+00 0.  1.
         11    1    4    4    0    0 -0.10295224781E+02  0.11103234532E+03  0.17562727078E+03  0.20803632280E+03  0.00000000000E+00 0. -1.
        -13    1    3    3    0    0  0.36864290506E+02 -0.30157553600E+02  0.17296216506E+03  0.17940001253E+03  0.00000000000E+00 0.  1.
         13    1    3    3    0    0 -0.47855794874E+02 -0.10375325847E+03  0.37824558626E+03  0.39512610552E+03  0.00000000000E+00 0. -1.
          1    1    1    2  501    0  0.29598174716E+02 -0.81922878522E+01 -0.42291936141E+02  0.52266369582E+02  0.00000000000E+00 0. -1.
<scales pt_clust_5="13000.00000" pt_clust_6="13000.00000" pt_clust_7="13000.00000" pt_clust_8="13000.00000" pt_clust_9="30.71100"></scales>
<clustering>
<clus scale="   30.711">  2  9  1 -1</clus>
<clus scale="   90.498">  5  6 -1 -1</clus>
<clus scale="   90.539">  7  8 -1 -1</clus>
<clus scale="  163.365">  2  5  1 -1</clus>
<clus scale="   30.711">  2  5  1 -1</clus>
</clustering>
</event>
<event>
 9    1  0.1610296E-005  0.1355814E+03  0.7546771E-02  0.1219855E+00
         21   -1    0    0  501  502  0.00000000000E+00  0.00000000000E+00  0.28021871327E+02  0.28021871327E+02  0.00000000000E+00 0.  1.
          2   -1    0    0  502    0 -0.00000000000E+00 -0.00000000000E+00 -0.96230059343E+03  0.96230059343E+03  0.00000000000E+00 0. -1.
         23    2    1    2    0    0 -0.40050585408E+02  0.83887620554E+02 -0.47357653328E+03  0.49085068408E+03  0.89545959801E+02 0.  0.
         23    2    1    2    0    0  0.58481893181E+02 -0.92511521396E+02 -0.45706116630E+03  0.47879953317E+03  0.91463488906E+02 0.  0.
        -11    1    3    3    0    0 -0.95242772276E+01 -0.18065264134E+02 -0.11556909063E+03  0.11735961969E+03  0.00000000000E+00 0.  1.
         11    1    3    3    0    0 -0.30526308180E+02  0.10195288469E+03 -0.35800744265E+03  0.37349106439E+03  0.00000000000E+00 0. -1.
        -13    1    4    4    0    0  0.34446515839E+02 -0.10845222176E+03 -0.36510066773E+03  0.38242246852E+03  0.00000000000E+00 0.  1.
         13    1    4    4    0    0  0.24035377343E+02  0.15940700359E+02 -0.91960498578E+02  0.96377064651E+02  0.00000000000E+00 0. -1.
          2    1    1    2  501    0 -0.18431307774E+02  0.86239008418E+01 -0.36410225254E+01  0.20672247507E+02  0.00000000000E+00 0. -1.
<scales pt_clust_5="13000.00000" pt_clust_6="13000.00000" pt_clust_7="13000.00000" pt_clust_8="13000.00000" pt_clust_9="20.34907"></scales>
<clustering>
<clus scale="   20.349">  1  9  2 -1</clus>
<clus scale="   89.546">  5  6 -1 -1</clus>
<clus scale="   91.463">  7  8 -1 -1</clus>
<clus scale="  134.295">  2  5  1 -1</clus>
<clus scale="   20.349">  1  5  2 -1</clus>
</clustering>
</event>
<event>
 9    1  0.1610296E-005  0.1097610E+03  0.7546771E-02  0.1265833E+00
         21   -1    0    0  501  502  0.00000000000E+00  0.00000000000E+00  0.29382137798E+02  0.29382137798E+02  0.00000000000E+00 0. -1.
         -3   -1    0    0    0  501 -0.00000000000E+00 -0.00000000000E+00 -0.68864271666E+03  0.68864271666E+03  0.00000000000E+00 0.  1.
         23    2    1    2    0    0 -0.46284900568E+02 -0.25220321279E+02 -0.43775542970E+03  0.44948589352E+03  0.87346411553E+02 0.  0.
         23    2    1    2    0    0  0.36078986058E+02  0.50585083359E+00 -0.10280412578E+03  0.14686357850E+03  0.98479811602E+02 0.  0.
        -11    1    3    3    0    0  0.19171074936E+02 -0.21247032404E+02 -0.65211703568E+02  0.71214694990E+02  0.00000000000E+00 0. -1.
         11    1    3    3    0    0 -0.65455975504E+02 -0.39732888743E+01 -0.37254372613E+03  0.37827119853E+03  0.00000000000E+00 0.  1.
        -13    1    4    4    0    0  0.52511654254E+02 -0.13390545553E+02 -0.14673626131E+02  0.56143528982E+02  0.00000000000E+00 0. -1.
         13    1    4    4    0    0 -0.16432668196E+02  0.13896396386E+02 -0.88130499651E+02  0.90720049523E+02  0.00000000000E+00 0.  1.
         -3    1    1    2    0  502  0.10205914509E+02  0.24714470445E+02 -0.11870102337E+03  0.12167538243E+03  0.00000000000E+00 0.  1.
<scales pt_clust_5="13000.00000" pt_clust_6="13000.00000" pt_clust_7="13000.00000" pt_clust_8="13000.00000" pt_clust_9="26.73886"></scales>
<clustering>
<clus scale="   26.739">  1  9  2 -1</clus>
<clus scale="   87.346">  5  6 -1 -1</clus>
<clus scale="   98.480">  7  8 -1 -1</clus>
<clus scale="   99.893">  2  5  1 -1</clus>
<clus scale="   26.739">  1  5  2 -1</clus>
</clustering>
</event>
<event>
 9    1  0.1610296E-005  0.1335125E+03  0.7546771E-02  0.1227078E+00
         21   -1    0    0  501  502  0.00000000000E+00  0.00000000000E+00  0.24097243196E+03  0.24097243196E+03  0.00000000000E+00 0.  1.
         -1   -1    0    0    0  501 -0.00000000000E+00 -0.00000000000E+00 -0.23472676759E+03  0.23472676759E+03  0.00000000000E+00 0.  1.
         23    2    1    2    0    0  0.36220744624E+02  0.82318407420E+02 -0.10986976563E+03  0.16901465225E+03  0.91686011673E+02 0.  0.
         23    2    1    2    0    0 -0.75289133283E+01 -0.11223580993E+03 -0.44451865745E+02  0.14085291998E+03  0.72180434541E+02 0.  0.
        -13    1    3    3    0    0  0.46011618965E+01  0.89252848684E+02 -0.53925887974E+02  0.10438028110E+03  0.00000000000E+00 0.  1.
         13    1    3    3    0    0  0.31619582727E+02 -0.69344412644E+01 -0.55943877651E+02  0.64634371151E+02  0.00000000000E+00 0. -1.
        -13    1    4    4    0    0  0.19295081400E+02 -0.51888705415E+02 -0.49977402992E+02  0.74582026828E+02  0.00000000000E+00 0.  1.
         13    1    4    4    0    0 -0.26823994729E+02 -0.60347104518E+02  0.55255372475E+01  0.66270893149E+02  0.00000000000E+00 0. -1.
         -1    1    1    2    0  502 -0.28691831295E+02  0.29917402513E+02  0.16056729574E+03  0.16583162732E+03  0.00000000000E+00 0.  1.
<scales pt_clust_5="13000.00000" pt_clust_6="13000.00000" pt_clust_7="13000.00000" pt_clust_8="13000.00000" pt_clust_9="41.45205"></scales>
<clustering>
<clus scale="   41.452">  1  9  2 -1</clus>
<clus scale="   72.180">  7  8 -1 -1</clus>
<clus scale="   91.686">  5  6 -1 -1</clus>
<clus scale="  120.952">  1  7  2 -1</clus>
<clus scale="   41.452">  1  5  2 -1</clus>
</clustering>
</event>
<event>
 9    1  0.1610296E-005  0.9139796E+02  0.7546771E-02  0.1299528E+00
         21   -1    0    0  501  502  0.00000000000E+00  0.00000000000E+00  0.10474587062E+03  0.10474587062E+03  0.00000000000E+00 0.  1.
          1   -1    0    0  502    0 -0.00000000000E+00 -0.00000000000E+00 -0.17227718639E+03  0.17227718639E+03  0.00000000000E+00 0. -1.
         23    2    1    2    0    0  0.11897864573E+02  0.11826075019E+02 -0.90136462451E+02  0.12916149373E+03  0.90976339601E+02 0.  0.
         23    2    1    2    0    0  0.69167689500E+01  0.12330252297E+01 -0.25399762459E+02  0.94673201436E+02  0.90931320750E+02 0.  0.
        -11    1    3    3    0    0  0.80717913940E+01  0.36264191941E+02 -0.96681923566E+02  0.10357432007E+03  0.00000000000E+00 0. -1.
         11    1    3    3    0    0  0.38260731789E+01 -0.24438116922E+02  0.65454611147E+01  0.25587173659E+02  0.00000000000E+00 0.  1.
        -13    1    4    4    0    0 -0.40210182793E+02 -0.29022458592E+01  0.13286553492E+01  0.40336672599E+02  0.00000000000E+00 0. -1.
         13    1    4    4    0    0  0.47126951743E+02  0.41352710889E+01 -0.26728417808E+02  0.54336528838E+02  0.00000000000E+00 0.  1.
          1    1    1    2  501    0 -0.18814633523E+02 -0.13059100249E+02  0.48004909143E+02  0.53188361845E+02  0.00000000000E+00 0. -1.
<scales pt_clust_5="13000.00000" pt_clust_6="13000.00000" pt_clust_7="13000.00000" pt_clust_8="13000.00000" pt_clust_9="22.90263"></scales>
<clustering>
<clus scale="   22.903">  1  9  2 -1</clus>
<clus scale="   90.931">  7  8 -1 -1</clus>
<clus scale="   90.976">  5  6 -1 -1</clus>
<clus scale="   91.353">  1  7  2 -1</clus>
<clus scale="   22.903">  1  5  2 -1</clus>
</clustering>
</event>
<event>
 9    1  0.1610296E-005  0.1122987E+03  0.7546771E-02  0.1258543E+00
         21   -1    0    0  501  502  0.00000000000E+00  0.00000000000E+00  0.48726153050E+02  0.48726153050E+02  0.00000000000E+00 0.  1.
          4   -1    0    0  502    0 -0.00000000000E+00 -0.00000000000E+00 -0.34976575346E+03  0.34976575346E+03  0.00000000000E+00 0. -1.
         23    2    1    2    0    0  0.69401691091E+02  0.47155052913E+01 -0.18831186715E+03  0.22186974463E+03  0.94477476444E+02 0.  0.
         23    2    1    2    0    0 -0.46776919489E+02  0.18481936185E+02 -0.73733631035E+02  0.12592165311E+03  0.88825402984E+02 0.  0.
        -13    1    3    3    0    0  0.55103719041E+02 -0.33071672656E+02 -0.16031203571E+03  0.17271393742E+03  0.00000000000E+00 0. -1.
         13    1    3    3    0    0  0.14297972050E+02  0.37787177947E+02 -0.27999831442E+02  0.49155807212E+02  0.00000000000E+00 0.  1.
        -13    1    4    4    0    0  0.66089776077E+01 -0.21239902625E+02 -0.50937747932E+02  0.55582966932E+02  0.00000000000E+00 0. -1.
         13    1    4    4    0    0 -0.53385897097E+02  0.39721838810E+02 -0.22795883103E+02  0.70338686181E+02  0.00000000000E+00 0.  1.
          4    1    1    2  501    0 -0.22624771602E+02 -0.23197441476E+02 -0.38994102224E+02  0.50700508768E+02  0.00000000000E+00 0. -1.
<scales pt_clust_5="13000.00000" pt_clust_6="13000.00000" pt_clust_7="13000.00000" pt_clust_8="13000.00000" pt_clust_9="32.40374"></scales>
<clustering>
<clus scale="   32.404">  1  9  2 -1</clus>
<clus scale="   88.825">  7  8 -1 -1</clus>
<clus scale="   94.477">  5  6 -1 -1</clus>
<clus scale="  107.587">  1  7  2 -1</clus>
<clus scale="   32.404">  1  5  2 -1</clus>
</clustering>
</event>
<event>
 9    1  0.1610296E-005  0.1107847E+03  0.7546771E-02  0.1259479E+00
          2   -1    0    0  502    0 -0.00000000000E+00  0.00000000000E+00  0.80866583467E+03  0.80866583467E+03  0.00000000000E+00 0. -1.
         21   -1    0    0  501  502  0.00000000000E+00 -0.00000000000E+00 -0.19239576321E+02  0.19239576321E+02  0.00000000000E+00 0. -1.
         23    2    1    2    0    0  0.18010762840E+01  0.57379745097E+02  0.36734912661E+03  0.38298151317E+03  0.91835611762E+02 0.  0.
         23    2    1    2    0    0  0.17253933421E+02 -0.65713463819E+02  0.39377207334E+03  0.40979953884E+03  0.90902468319E+02 0.  0.
        -11    1    4    4    0    0  0.10496086821E+02  0.22485504566E+02  0.97107933777E+02  0.10022832213E+03  0.00000000000E+00 0.  1.
         11    1    4    4    0    0  0.67578465991E+01 -0.88198968385E+02  0.29666413956E+03  0.30957121671E+03  0.00000000000E+00 0. -1.
        -13    1    3    3    0    0 -0.39759154048E+02  0.10919707977E+02  0.20437632949E+03  0.20849391936E+03  0.00000000000E+00 0.  1.
         13    1    3    3    0    0  0.41560230332E+02  0.46460037121E+02  0.16297279711E+03  0.17448759381E+03  0.00000000000E+00 0. -1.
          2    1    1    2  501    0 -0.19055009705E+02  0.83337187215E+01  0.28305058403E+02  0.35124358980E+02  0.00000000000E+00 0. -1.
<scales pt_clust_5="13000.00000" pt_clust_6="13000.00000" pt_clust_7="13000.00000" pt_clust_8="13000.00000" pt_clust_9="20.79770"></scales>
<clustering>
<clus scale="   20.798">  2  9  1 -1</clus>
<clus scale="   90.902">  5  6 -1 -1</clus>
<clus scale="   91.836">  7  8 -1 -1</clus>
<clus scale="  110.012">  2  5  1 -1</clus>
<clus scale="   20.798">  2  5  1 -1</clus>
</clustering>
</event>
<event>
 9    1  0.1610296E-005  0.1057712E+03  0.7546771E-02  0.1269165E+00
         21   -1    0    0  501  502  0.00000000000E+00  0.00000000000E+00  0.70247715101E+02  0.70247715101E+02  0.00000000000E+00 0.  1.
          1   -1    0    0  502    0 -0.00000000000E+00 -0.00000000000E+00 -0.49279428444E+03  0.49279428444E+03  0.00000000000E+00 0. -1.
         23    2    1    2    0    0  0.43903946615E+02 -0.38601691512E+02 -0.38447595425E+03  0.39959992965E+03  0.91873267435E+02 0.  0.
         23    2    1    2    0    0 -0.45018289894E+01  0.39152116122E+02 -0.62684808562E+02  0.11698038286E+03  0.90564176632E+02 0.  0.
        -11    1    3    3    0    0 -0.27931336382E+01 -0.48608609665E+02 -0.28646083533E+03  0.29056911175E+03  0.00000000000E+00 0. -1.
         11    1    3    3    0    0  0.46697080253E+02  0.10006918153E+02 -0.98015118920E+02  0.10903081790E+03  0.00000000000E+00 0.  1.
        -11    1    4    4    0    0  0.34946423018E+02  0.19154962323E+02  0.49973063066E+00  0.39854921829E+02  0.00000000000E+00 0. -1.
         11    1    4    4    0    0 -0.39448252007E+02  0.19997153799E+02 -0.63184539193E+02  0.77125461033E+02  0.00000000000E+00 0.  1.
          1    1    1    2  501    0 -0.39402117625E+02 -0.55042460967E+00  0.24614193473E+02  0.46461687022E+02  0.00000000000E+00 0. -1.
<scales pt_clust_5="13000.00000" pt_clust_6="13000.00000" pt_clust_7="13000.00000" pt_clust_8="13000.00000" pt_clust_9="39.40596"></scales>
<clustering>
<clus scale="   39.406">  1  9  2 -1</clus>
<clus scale="   90.564">  7  8 -1 -1</clus>
<clus scale="   91.873">  5  6 -1 -1</clus>
<clus scale="  104.636">  1  7  2 -1</clus>
<clus scale="   39.406">  1  5  2 -1</clus>
</clustering>
</event>
<event>
 9    1  0.1610296E-005  0.1526295E+03  0.7546771E-02  0.1202724E+00
         -1   -1    0    0    0  501 -0.00000000000E+00  0.00000000000E+00  0.54333761025E+03  0.54333761025E+03  0.00000000000E+00 0.  1.
         21   -1    0    0  501  502  0.00000000000E+00 -0.00000000000E+00 -0.92515171747E+02  0.92515171747E+02  0.00000000000E+00 0. -1.
         23    2    1    2    0    0 -0.62356820474E+02 -0.52377789998E+02  0.26255843374E+03  0.29029949028E+03  0.93300894883E+02 0.  0.
         23    2    1    2    0    0  0.94571392566E+02  0.10410033998E+03  0.21224238088E+03  0.28007074936E+03  0.11667119322E+03 0.  0.
        -11    1    3    3    0    0 -0.15463471470E+02 -0.69749336875E+02  0.12560341147E+03  0.14450019348E+03  0.00000000000E+00 0. -1.
         11    1    3    3    0    0 -0.46893349004E+02  0.17371546877E+02  0.13695502227E+03  0.14579929680E+03  0.00000000000E+00 0.  1.
        -13    1    4    4    0    0 -0.51989324238E+01  0.73456921832E+02  0.57545670654E+02  0.93458292700E+02  0.00000000000E+00 0.  1.
         13    1    4    4    0    0  0.99770324990E+02  0.30643418144E+02  0.15469671023E+03  0.18661245666E+03  0.00000000000E+00 0. -1.
         -1    1    1    2    0  502 -0.32214572092E+02 -0.51722549978E+02 -0.23978376124E+02  0.65482542352E+02  0.00000000000E+00 0.  1.
<scales pt_clust_5="13000.00000" pt_clust_6="13000.00000" pt_clust_7="13000.00000" pt_clust_8="13000.00000" pt_clust_9="60.93440"></scales>
<clustering>
<clus scale="   60.934">  2  9  1 -1</clus>
<clus scale="   93.301">  5  6 -1 -1</clus>
<clus scale="  116.671">  7  8 -1 -1</clus>
<clus scale="  135.605">  1  5  2 -1</clus>
<clus scale="   60.934">  2  5  1 -1</clus>
</clustering>
</event>
<event>
 9    1  0.1610296E-005  0.1221958E+03  0.7546771E-02  0.1240700E+00
         21   -1    0    0  501  502  0.00000000000E+00  0.00000000000E+00  0.34540000264E+03  0.34540000264E+03  0.00000000000E+00 0.  1.
          2   -1    0    0  502    0 -0.00000000000E+00 -0.00000000000E+00 -0.12225838564E+03  0.12225838564E+03  0.00000000000E+00 0.  1.
         23    2    1    2    0    0 -0.78470627139E+02 -0.36632986826E+02 -0.39053472174E+02  0.13194598706E+03  0.91569398628E+02 0.  0.
         23    2    1    2    0    0  0.51257910718E+02  0.51870745096E+02  0.55758603946E+02  0.12693322685E+03  0.87664557018E+02 0.  0.
        -13    1    3    3    0    0 -0.99301548059E+02 -0.31791313969E+02 -0.28464990144E+02  0.10808210192E+03  0.00000000000E+00 0.  1.
         13    1    3    3    0    0  0.20830920920E+02 -0.48416728570E+01 -0.10588482030E+02  0.23863885144E+02  0.00000000000E+00 0. -1.
        -13    1    4    4    0    0 -0.21079852477E+02  0.96860343677E+01 -0.46737132697E+01  0.23664805893E+02  0.00000000000E+00 0. -1.
         13    1    4    4    0    0  0.72337763195E+02  0.42184710728E+02  0.60432317215E+02  0.10326842096E+03  0.00000000000E+00 0.  1.
          2    1    1    2  501    0  0.27212716421E+02 -0.15237758270E+02  0.20643648523E+03  0.20877917436E+03  0.00000000000E+00 0.  1.
<scales pt_clust_5="13000.00000" pt_clust_6="13000.00000" pt_clust_7="13000.00000" pt_clust_8="13000.00000" pt_clust_9="31.18848"></scales>
<clustering>
<clus scale="   31.188">  1  9  2 -1</clus>
<clus scale="   87.665">  7  8 -1 -1</clus>
<clus scale="   91.569">  5  6 -1 -1</clus>
<clus scale="  119.298">  1  7  2 -1</clus>
<clus scale="   31.188">  1  5  2 -1</clus>
</clustering>
</event>
<event>
 9    1  0.1610296E-005  0.1834036E+03  0.7546771E-02  0.1164751E+00
          2   -1    0    0  502    0 -0.00000000000E+00  0.00000000000E+00  0.51375711598E+03  0.51375711598E+03  0.00000000000E+00 0. -1.
         21   -1    0    0  501  502  0.00000000000E+00 -0.00000000000E+00 -0.19277721954E+03  0.19277721954E+03  0.00000000000E+00 0. -1.
         23    2    1    2    0    0  0.13663329322E+03 -0.67918475464E+02  0.32603049597E+03  0.37121528823E+03  0.90682577078E+02 0.  0.
         23    2    1    2    0    0 -0.16044413833E+03  0.76321672182E+02  0.10338758734E+03  0.22397987885E+03  0.88941968404E+02 0.  0.
        -11    1    3    3    0    0  0.32963456816E+02  0.13802884389E+02  0.28479913546E+02  0.45696986534E+02  0.00000000000E+00 0.  1.
         11    1    3    3    0    0  0.10366983641E+03 -0.81721359853E+02  0.29755058242E+03  0.32551830169E+03  0.00000000000E+00 0. -1.
        -13    1    4    4    0    0 -0.43458095826E+02  0.14723536142E+02 -0.13157152323E+02  0.47733628257E+02  0.00000000000E+00 0.  1.
         13    1    4    4    0    0 -0.11698604250E+03  0.61598136040E+02  0.11654473966E+03  0.17624625059E+03  0.00000000000E+00 0. -1.
          2    1    1    2  501    0  0.23810845108E+02 -0.84031967184E+01 -0.10843818687E+03  0.11133916845E+03  0.00000000000E+00 0. -1.
<scales pt_clust_5="13000.00000" pt_clust_6="13000.00000" pt_clust_7="13000.00000" pt_clust_8="13000.00000" pt_clust_9="25.25015"></scales>
<clustering>
<clus scale="   25.250">  2  9  1 -1</clus>
<clus scale="   88.942">  7  8 -1 -1</clus>
<clus scale="   90.683">  5  6 -1 -1</clus>
<clus scale="  182.549">  2  7  1 -1</clus>
<clus scale="   25.250">  2  5  1 -1</clus>
</clustering>
</event>
<event>
 9    1  0.1610296E-005  0.1342258E+03  0.7546771E-02  0.1222617E+00
          1   -1    0    0  502    0 -0.00000000000E+00  0.00000000000E+00  0.67231160520E+03  0.67231160520E+03  0.00000000000E+00 0. -1.
         21   -1    0    0  501  502  0.00000000000E+00 -0.00000000000E+00 -0.35411451765E+02  0.35411451765E+02  0.00000000000E+00 0.  1.
         23    2    1    2    0    0  0.58459047384E+02  0.61662982059E+02  0.28591183009E+03  0.31227363147E+03  0.92463304881E+02 0.  0.
         23    2    1    2    0    0 -0.66350468381E+02 -0.95154766549E+02  0.25375850033E+03  0.29231062272E+03  0.87151072367E+02 0.  0.
        -11    1    4    4    0    0 -0.76565168978E+02 -0.52051526773E+02  0.12099928237E+03  0.15235620392E+03  0.00000000000E+00 0.  1.
         11    1    4    4    0    0  0.10214700597E+02 -0.43103239775E+02  0.13275921797E+03  0.13995441880E+03  0.00000000000E+00 0. -1.
        -13    1    3    3    0    0  0.68373105875E+02  0.78752628981E+01  0.18674405676E+03  0.19902322504E+03  0.00000000000E+00 0.  1.
         13    1    3    3    0    0 -0.99140584912E+01  0.53787719161E+02  0.99167773335E+02  0.11325040643E+03  0.00000000000E+00 0. -1.
          1    1    1    2  501    0  0.78914209977E+01  0.33491784490E+02  0.97229823008E+02  0.10313880277E+03  0.00000000000E+00 0. -1.
<scales pt_clust_5="13000.00000" pt_clust_6="13000.00000" pt_clust_7="13000.00000" pt_clust_8="13000.00000" pt_clust_9="34.40894"></scales>
<clustering>
<clus scale="   34.409">  2  9  1 -1</clus>
<clus scale="   87.151">  5  6 -1 -1</clus>
<clus scale="   92.463">  7  8 -1 -1</clus>
<clus scale="  130.623">  2  5  1 -1</clus>
<clus scale="   34.409">  2  5  1 -1</clus>
</clustering>
</event>
<event>
 9    1  0.1610296E-005  0.9619703E+02  0.7546771E-02  0.1288748E+00
          1   -1    0    0  502    0 -0.00000000000E+00  0.00000000000E+00  0.44650938565E+02  0.44650938565E+02  0.00000000000E+00 0. -1.
         21   -1    0    0  501  502  0.00000000000E+00 -0.00000000000E+00 -0.27053124007E+03  0.27053124007E+03  0.00000000000E+00 0.  1.
         23    2    1    2    0    0  0.13207710263E+02 -0.23395070721E+02 -0.72953334816E+02  0.12044394951E+03  0.91993385463E+02 0.  0.
         23    2    1    2    0    0  0.82184900770E+01  0.30335058999E+02 -0.13010836152E+03  0.16267681555E+03  0.92454319513E+02 0.  0.
        -11    1    3    3    0    0  0.19769841382E+02  0.20879046737E+02 -0.69898986659E+02  0.75582071663E+02  0.00000000000E+00 0.  1.
         11    1    3    3    0    0 -0.65621311182E+01 -0.44274117458E+02 -0.30543481568E+01  0.44861877849E+02  0.00000000000E+00 0. -1.
        -13    1    4    4    0    0  0.31178992056E+02 -0.16970910165E+02 -0.89359602264E+02  0.96152378308E+02  0.00000000000E+00 0.  1.
         13    1    4    4    0    0 -0.22960501979E+02  0.47305969164E+02 -0.40748759260E+02  0.66524437246E+02  0.00000000000E+00 0. -1.
          1    1    1    2  501    0 -0.21426200340E+02 -0.69399882779E+01 -0.22818605163E+02  0.32061413567E+02  0.00000000000E+00 0. -1.
<scales pt_clust_5="13000.00000" pt_clust_6="13000.00000" pt_clust_7="13000.00000" pt_clust_8="13000.00000" pt_clust_9="22.52212"></scales>
<clustering>
<clus scale="   22.522">  2  9  1 -1</clus>
<clus scale="   91.993">  5  6 -1 -1</clus>
<clus scale="   92.454">  7  8 -1 -1</clus>
<clus scale="   95.754">  1  5  2 -1</clus>
<clus scale="   22.522">  2  5  1 -1</clus>
</clustering>
</event>
<event>
 9    1  0.1610296E-005  0.1016511E+03  0.7546771E-02  0.1276972E+00
         -4   -1    0    0    0  501 -0.00000000000E+00  0.00000000000E+00  0.42734268232E+03  0.42734268232E+03  0.00000000000E+00 0.  1.
         21   -1    0    0  501  502  0.00000000000E+00 -0.00000000000E+00 -0.35457539304E+03  0.35457539304E+03  0.00000000000E+00 0.  1.
         23    2    1    2    0    0  0.31361184336E+02 -0.36351015333E+02  0.39808931115E+03  0.41083657742E+03  0.89480017271E+02 0.  0.
         23    2    1    2    0    0 -0.64727650460E+02 -0.16090153113E+01 -0.13702689523E+03  0.17612165668E+03  0.89722964012E+02 0.  0.
        -11    1    4    4    0    0  0.59021890744E+01 -0.26450220506E+02 -0.72081564829E+02  0.77007804727E+02  0.00000000000E+00 0. -1.
         11    1    4    4    0    0 -0.70629839535E+02  0.24841205194E+02 -0.64945330403E+02  0.99113851955E+02  0.00000000000E+00 0.  1.
        -11    1    3    3    0    0 -0.30550405688E+02 -0.22227069965E+02  0.16305709296E+03  0.16737677704E+03  0.00000000000E+00 0.  1.
         11    1    3    3    0    0  0.61911590024E+02 -0.14123945368E+02  0.23503221819E+03  0.24345980038E+03  0.00000000000E+00 0. -1.
         -4    1    1    2    0  502  0.33366466125E+02  0.37960030644E+02 -0.18829512664E+03  0.19495984126E+03  0.00000000000E+00 0.  1.
<scales pt_clust_5="13000.00000" pt_clust_6="13000.00000" pt_clust_7="13000.00000" pt_clust_8="13000.00000" pt_clust_9="50.53993"></scales>
<clustering>
<clus scale="   50.540">  2  9  1 -1</clus>
<clus scale="   89.480">  7  8 -1 -1</clus>
<clus scale="   89.723">  5  6 -1 -1</clus>
<clus scale="  101.437">  1  7  2 -1</clus>
<clus scale="   50.540">  2  5  1 -1</clus>
</clustering>
</event>
<event>
 9    1  0.1610296E-005  0.1161025E+03  0.7546771E-02  0.1254131E+00
         21   -1    0    0  501  502  0.00000000000E+00  0.00000000000E+00  0.32043965277E+03  0.32043965277E+03  0.00000000000E+00 0.  1.
          4   -1    0    0  502    0 -0.00000000000E+00 -0.00000000000E+00 -0.78397918625E+02  0.78397918625E+02  0.00000000000E+00 0. -1.
         23    2    1    2    0    0 -0.54592725122E+02  0.15007407180E+02  0.15121584949E+02  0.11077804680E+03  0.94008113556E+02 0.  0.
         23    2    1    2    0    0  0.95636311910E+02 -0.36691755319E+02  0.16276423388E+03  0.20887134087E+03  0.81501240147E+02 0.  0.
        -11    1    4    4    0    0  0.82826111783E+02  0.84143412331E+01  0.93072889548E+02  0.12487405135E+03  0.00000000000E+00 0.  1.
         11    1    4    4    0    0  0.12810200127E+02 -0.45106096552E+02  0.69691344328E+02  0.83997289526E+02  0.00000000000E+00 0. -1.
        -11    1    3    3    0    0  0.15183052400E+02 -0.19734901883E+02  0.21051533847E+02  0.32606111541E+02  0.00000000000E+00 0.  1.
         11    1    3    3    0    0 -0.69775777522E+02  0.34742309063E+02 -0.59299488974E+01  0.78171935257E+02  0.00000000000E+00 0. -1.
          4    1    1    2  501    0 -0.41043586788E+02  0.21684348139E+02  0.64155915317E+02  0.79188183719E+02  0.00000000000E+00 0. -1.
<scales pt_clust_5="13000.00000" pt_clust_6="13000.00000" pt_clust_7="13000.00000" pt_clust_8="13000.00000" pt_clust_9="46.41968"></scales>
<clustering>
<clus scale="   46.420">  1  9  2 -1</clus>
<clus scale="   81.501">  5  6 -1 -1</clus>
<clus scale="   94.008">  7  8 -1 -1</clus>
<clus scale="  106.229">  1  5  2 -1</clus>
<clus scale="   46.420">  1  5  2 -1</clus>
</clustering>
</event>
<event>
 9    1  0.1610296E-005  0.1181205E+03  0.7546771E-02  0.1246802E+00
          2   -1    0    0  502    0 -0.00000000000E+00  0.00000000000E+00  0.54382974535E+03  0.54382974535E+03  0.00000000000E+00 0. -1.
         21   -1    0    0  501  502  0.00000000000E+00 -0.00000000000E+00 -0.43427121718E+02  0.43427121718E+02  0.00000000000E+00 0.  1.
         23    2    1    2    0    0 -0.80303883895E+02  0.27261281601E+02  0.31532148744E+03  0.33893103905E+03  0.90855476179E+02 0.  0.
         23    2    1    2    0    0  0.50505395008E+02 -0.42784983916E+02  0.18378687267E+03  0.21470127759E+03  0.89093626351E+02 0.  0.
        -11    1    3    3    0    0  0.28291959146E+01  0.21414125668E+02  0.12728676777E+02  0.25071664088E+02  0.00000000000E+00 0.  1.
         11    1    3    3    0    0 -0.83133079810E+02  0.58471559328E+01  0.30259281066E+03  0.31385937496E+03  0.00000000000E+00 0. -1.
        -11    1    4    4    0    0 -0.14025427013E+02 -0.44257734047E+02  0.75064257545E+02  0.88261556675E+02  0.00000000000E+00 0. -1.
         11    1    4    4    0    0  0.64530822021E+02  0.14727501311E+01  0.10872261513E+03  0.12643972091E+03  0.00000000000E+00 0.  1.
          2    1    1    2  501    0  0.29798488887E+02  0.15523702315E+02  0.12942635233E+01  0.33624550430E+02  0.00000000000E+00 0. -1.
<scales pt_clust_5="13000.00000" pt_clust_6="13000.00000" pt_clust_7="13000.00000" pt_clust_8="13000.00000" pt_clust_9="33.59963"></scales>
<clustering>
<clus scale="   33.600">  2  9  1 -1</clus>
<clus scale="   89.094">  7  8 -1 -1</clus>
<clus scale="   90.855">  5  6 -1 -1</clus>
<clus scale="  116.771">  2  7  1 -1</clus>
<clus scale="   33.600">  2  5  1 -1</clus>
</clustering>
</event>
<event>
 9    1  0.1610296E-005  0.1372151E+03  0.7546771E-02  0.1217473E+00
         21   -1    0    0  501  502  0.00000000000E+00  0.00000000000E+00  0.13739844795E+04  0.13739844795E+04  0.00000000000E+00 0. -1.
          2   -1    0    0  502    0 -0.00000000000E+00 -0.00000000000E+00 -0.30009251589E+02  0.30009251589E+02  0.00000000000E+00 0. -1.
         23    2    1    2    0    0  0.97399378483E+02  0.15277233562E+02  0.21414982489E+03  0.25258328671E+03  0.90653937736E+02 0.  0.
         23    2    1    2    0    0 -0.10331627450E+03 -0.79135246065E+02  0.81209912631E+03  0.82727645615E+03  0.89133070145E+02 0.  0.
        -11    1    3    3    0    0  0.64509416221E+02 -0.33676809590E+02  0.95319589551E+02  0.11992254349E+03  0.00000000000E+00 0. -1.
         11    1    3    3    0    0  0.32889962262E+02  0.48954043152E+02  0.11883023534E+03  0.13266074321E+03  0.00000000000E+00 0.  1.
        -13    1    4    4    0    0 -0.11312018303E+03 -0.55894312687E+02  0.74466781495E+03  0.75528173857E+03  0.00000000000E+00 0. -1.
         13    1    4    4    0    0  0.98039085270E+01 -0.23240933379E+02  0.67431311359E+02  0.71994717572E+02  0.00000000000E+00 0.  1.
          2    1    1    2  501    0  0.59168960199E+01  0.63858012504E+02  0.31772627671E+03  0.32413398824E+03  0.00000000000E+00 0. -1.
<scales pt_clust_5="13000.00000" pt_clust_6="13000.00000" pt_clust_7="13000.00000" pt_clust_8="13000.00000" pt_clust_9="64.13155"></scales>
<clustering>
<clus scale="   64.132">  1  9  2 -1</clus>
<clus scale="   89.133">  7  8 -1 -1</clus>
<clus scale="   90.654">  5  6 -1 -1</clus>
<clus scale="  136.215">  1  7  2 -1</clus>
<clus scale="   64.132">  1  5  2 -1</clus>
</clustering>
</event>
<event>
 9    1  0.1610296E-005  0.1638364E+03  0.7546771E-02  0.1187085E+00
         21   -1    0    0  501  502  0.00000000000E+00  0.00000000000E+00  0.24921329728E+03  0.24921329728E+03  0.00000000000E+00 0. -1.
          1   -1    0    0  502    0 -0.00000000000E+00 -0.00000000000E+00 -0.35746312454E+03  0.35746312454E+03  0.00000000000E+00 0. -1.
         23    2    1    2    0    0 -0.22624537880E+02  0.12061640066E+03 -0.18774580185E+03  0.24310819156E+03  0.93770575708E+02 0.  0.
         23    2    1    2    0    0 -0.12674305681E+03 -0.14045270599E+02  0.88445507922E+02  0.17986145779E+03  0.90920097061E+02 0.  0.
        -11    1    4    4    0    0 -0.35386401992E+02  0.11563658824E+02 -0.14418638080E+02  0.39922584779E+02  0.00000000000E+00 0. -1.
         11    1    4    4    0    0 -0.91356654822E+02 -0.25608929423E+02  0.10286414600E+03  0.13993887301E+03  0.00000000000E+00 0.  1.
        -13    1    3    3    0    0  0.19397688520E+02 -0.63803539483E+01 -0.20342419525E+02  0.28823484671E+02  0.00000000000E+00 0.  1.
         13    1    3    3    0    0 -0.42022226400E+02  0.12699675461E+03 -0.16740338233E+03  0.21428470689E+03  0.00000000000E+00 0. -1.
          1    1    1    2  501    0  0.14936759469E+03 -0.10657113006E+03 -0.89495333294E+01  0.18370677247E+03  0.00000000000E+00 0. -1.
<scales pt_clust_5="13000.00000" pt_clust_6="13000.00000" pt_clust_7="13000.00000" pt_clust_8="13000.00000" pt_clust_9="136.29352"></scales>
<clustering>
<clus scale="   90.920">  5  6 -1 -1</clus>
<clus scale="   93.771">  7  8 -1 -1</clus>
<clus scale="  154.445">  2  7  1 -1</clus>
<clus scale="  136.294">  1  9  2 -1</clus>
<clus scale="  136.294">  1  5  2 -1</clus>
</clustering>
</event>
<event>
 9    1  0.1610296E-005  0.1103424E+03  0.7546771E-02  0.1260304E+00
          1   -1    0    0  502    0 -0.00000000000E+00  0.00000000000E+00  0.18237017580E+03  0.18237017580E+03  0.00000000000E+00 0. -1.
         21   -1    0    0  501  502  0.00000000000E+00 -0.00000000000E+00 -0.11782792106E+03  0.11782792106E+03  0.00000000000E+00 0.  1.
         23    2    1    2    0    0 -0.39830694149E+02 -0.41325294145E+02  0.69582910695E+02  0.13105556024E+03  0.95076360238E+02 0.  0.
         23    2    1    2    0    0  0.50675046049E+02  0.24418987080E+02  0.42428251328E+02  0.11759915348E+03  0.94154963574E+02 0.  0.
        -13    1    4    4    0    0  0.41351611230E+02 -0.32128771358E+02  0.19974359418E+02  0.56046308838E+02  0.00000000000E+00 0. -1.
         13    1    4    4    0    0  0.93234348191E+01  0.56547758437E+02  0.22453891911E+02  0.61552844638E+02  0.00000000000E+00 0.  1.
        -13    1    3    3    0    0 -0.25560148352E+02  0.18183416341E+02 -0.78740155264E+01  0.32341272921E+02  0.00000000000E+00 0.  1.
         13    1    3    3    0    0 -0.14270545798E+02 -0.59508710486E+02  0.77456926222E+02  0.98714287318E+02  0.00000000000E+00 0. -1.
          1    1    1    2  501    0 -0.10844351899E+02  0.16906307065E+02 -0.47468907288E+02  0.51543383143E+02  0.00000000000E+00 0. -1.
<scales pt_clust_5="13000.00000" pt_clust_6="13000.00000" pt_clust_7="13000.00000" pt_clust_8="13000.00000" pt_clust_9="20.08540"></scales>
<clustering>
<clus scale="   20.085">  2  9  1 -1</clus>
<clus scale="   94.155">  5  6 -1 -1</clus>
<clus scale="   95.076">  7  8 -1 -1</clus>
<clus scale="  109.549">  2  5  1 -1</clus>
<clus scale="   20.085">  2  5  1 -1</clus>
</clustering>
</event>
<event>
 9    1  0.1610296E-005  0.1006115E+03  0.7546771E-02  0.1280190E+00
         21   -1    0    0  501  502  0.00000000000E+00  0.00000000000E+00  0.58779116591E+02  0.58779116591E+02  0.00000000000E+00 0. -1.
          2   -1    0    0  502    0 -0.00000000000E+00 -0.00000000000E+00 -0.21093878391E+03  0.21093878391E+03  0.00000000000E+00 0.  1.
         23    2    1    2    0    0  0.28121852141E+02  0.43231076934E+02 -0.78617148870E+02  0.12883618942E+03  0.88081456774E+02 0.  0.
         23    2    1    2    0    0 -0.91668623949E+01 -0.34616035686E+02 -0.50057650447E+02  0.10949621129E+03  0.90561308659E+02 0.  0.
        -13    1    3    3    0    0  0.47415211339E+02  0.62858610341E+01 -0.10483953990E+02  0.48965575730E+02  0.00000000000E+00 0.  1.
         13    1    3    3    0    0 -0.19293359198E+02  0.36945215900E+02 -0.68133194879E+02  0.79870613692E+02  0.00000000000E+00 0. -1.
        -13    1    4    4    0    0  0.34088039690E+02 -0.19906597249E+02 -0.50132501448E+02  0.63808579089E+02  0.00000000000E+00 0.  1.
         13    1    4    4    0    0 -0.43254902085E+02 -0.14709438437E+02  0.74851001172E-01  0.45687632201E+02  0.00000000000E+00 0. -1.
          2    1    1    2  501    0 -0.18954989746E+02 -0.86150412475E+01 -0.23484868007E+02  0.31385499794E+02  0.00000000000E+00 0.  1.
<scales pt_clust_5="13000.00000" pt_clust_6="13000.00000" pt_clust_7="13000.00000" pt_clust_8="13000.00000" pt_clust_9="20.82093"></scales>
<clustering>
<clus scale="   20.821">  1  9  2 -1</clus>
<clus scale="   88.081">  5  6 -1 -1</clus>
<clus scale="   90.561">  7  8 -1 -1</clus>
<clus scale="   98.385">  2  5  1 -1</clus>
<clus scale="   20.821">  1  5  2 -1</clus>
</clustering>
</event>
<event>
 9    1  0.1610296E-005  0.1475181E+03  0.7546771E-02  0.1207972E+00
         -2   -1    0    0    0  501 -0.00000000000E+00  0.00000000000E+00  0.16291405905E+03  0.16291405905E+03  0.00000000000E+00 0.  1.
         21   -1    0    0  501  502  0.00000000000E+00 -0.00000000000E+00 -0.36941812370E+03  0.36941812370E+03  0.00000000000E+00 0. -1.
         23    2    1    2    0    0 -0.75387114319E+02 -0.60927255804E+02  0.10110123556E+03  0.16660263991E+03  0.90219910706E+02 0.  0.
         23    2    1    2    0    0  0.10626158329E+03  0.54492722161E+02 -0.22340211367E+03  0.27581395643E+03  0.10910478138E+03 0.  0.
        -11    1    3    3    0    0 -0.75423248936E+02 -0.60696738201E+01  0.44512988654E+02  0.87789028809E+02  0.00000000000E+00 0. -1.
         11    1    3    3    0    0  0.36134616760E-01 -0.54857581984E+02  0.56588246901E+02  0.78813611097E+02  0.00000000000E+00 0.  1.
        -11    1    4    4    0    0  0.75619128865E+02 -0.19092447173E+02 -0.14122022920E+03  0.16132553215E+03  0.00000000000E+00 0.  1.
         11    1    4    4    0    0  0.30642454424E+02  0.73585169334E+02 -0.82181884469E+02  0.11448842428E+03  0.00000000000E+00 0. -1.
         -2    1    1    2    0  502 -0.30874468970E+02  0.64345336431E+01 -0.84203186536E+02  0.89915586414E+02  0.00000000000E+00 0.  1.
<scales pt_clust_5="13000.00000" pt_clust_6="13000.00000" pt_clust_7="13000.00000" pt_clust_8="13000.00000" pt_clust_9="31.53785"></scales>
<clustering>
<clus scale="   31.538">  2  9  1 -1</clus>
<clus scale="   90.220">  5  6 -1 -1</clus>
<clus scale="  109.105">  7  8 -1 -1</clus>
<clus scale="  134.154">  1  5  2 -1</clus>
<clus scale="   31.538">  2  5  1 -1</clus>
</clustering>
</event>
<event>
 9    1  0.1610296E-005  0.3079212E+03  0.7546771E-02  0.1081694E+00
         -3   -1    0    0    0  501 -0.00000000000E+00  0.00000000000E+00  0.69152645564E+03  0.69152645564E+03  0.00000000000E+00 0.  1.
         21   -1    0    0  501  502  0.00000000000E+00 -0.00000000000E+00 -0.26405430389E+03  0.26405430389E+03  0.00000000000E+00 0. -1.
         23    2    1    2    0    0  0.23746885895E+03  0.15999695907E+03  0.40519115755E+03  0.50218880749E+03  0.77609524737E+02 0.  0.
         23    2    1    2    0    0 -0.22649858931E+03 -0.24883118381E+03 -0.31008021464E+02  0.34922100843E+03  0.88177357309E+02 0.  0.
        -13    1    3    3    0    0  0.20013455460E+03  0.97743816252E+02  0.28399500561E+03  0.36091668952E+03  0.00000000000E+00 0.  1.
         13    1    3    3    0    0  0.37334304349E+02  0.62253142814E+02  0.12119615193E+03  0.14127211797E+03  0.00000000000E+00 0. -1.
        -13    1    4    4    0    0 -0.72720764251E+02 -0.36018251266E+02 -0.30408030040E+02  0.86661827055E+02  0.00000000000E+00 0.  1.
         13    1    4    4    0    0 -0.15377782506E+03 -0.21281293254E+03 -0.59999142415E+00  0.26255918138E+03  0.00000000000E+00 0. -1.
         -3    1    1    2    0  502 -0.10970269641E+02  0.88834224741E+02  0.53289015671E+02  0.10417094361E+03  0.00000000000E+00 0.  1.
<scales pt_clust_5="13000.00000" pt_clust_6="13000.00000" pt_clust_7="13000.00000" pt_clust_8="13000.00000" pt_clust_9="89.50907"></scales>
<clustering>
<clus scale="   77.610">  5  6 -1 -1</clus>
<clus scale="   88.177">  7  8 -1 -1</clus>
<clus scale="   89.509">  2  9  1 -1</clus>
<clus scale="  305.063">  1  5  2 -1</clus>
<clus scale="   89.509">  2  5  1 -1</clus>
</clustering>
</event>
<event>
 9    1  0.1610296E-005  0.1095695E+03  0.7546771E-02  0.1261717E+00
         -2   -1    0    0    0  501 -0.00000000000E+00  0.00000000000E+00  0.15873826168E+03  0.15873826168E+03  0.00000000000E+00 0.  1.
         21   -1    0    0  501  502  0.00000000000E+00 -0.00000000000E+00 -0.15721025206E+03  0.15721025206E+03  0.00000000000E+00 0. -1.
         23    2    1    2    0    0 -0.51893508535E+02  0.12211838997E+02  0.50451403674E+02  0.11678898915E+03  0.90841943031E+02 0.  0.
         23    2    1    2    0    0  0.53536281211E+02 -0.68582488483E+02 -0.98331162323E+00  0.12514195688E+03  0.89943600876E+02 0.  0.
        -11    1    3    3    0    0  0.23675566753E+02  0.29660102190E+01  0.29273070494E+02  0.37765623705E+02  0.00000000000E+00 0. -1.
         11    1    3    3    0    0 -0.75569075287E+02  0.92458287775E+01  0.21178333180E+02  0.79023365442E+02  0.00000000000E+00 0.  1.
        -13    1    4    4    0    0  0.31955551325E+02 -0.43312306513E+02  0.43787237078E+02  0.69386131805E+02  0.00000000000E+00 0.  1.
         13    1    4    4    0    0  0.21580729885E+02 -0.25270181970E+02 -0.44770548701E+02  0.55755825078E+02  0.00000000000E+00 0. -1.
         -2    1    1    2    0  502 -0.16427726759E+01  0.56370649486E+02 -0.47940082434E+02  0.74017567707E+02  0.00000000000E+00 0.  1.
<scales pt_clust_5="13000.00000" pt_clust_6="13000.00000" pt_clust_7="13000.00000" pt_clust_8="13000.00000" pt_clust_9="56.39458"></scales>
<clustering>
<clus scale="   56.395">  2  9  1 -1</clus>
<clus scale="   89.944">  7  8 -1 -1</clus>
<clus scale="   90.842">  5  6 -1 -1</clus>
<clus scale="  108.826">  2  7  1 -1</clus>
<clus scale="   56.395">  2  5  1 -1</clus>
</clustering>
</event>
<event>
 9    1  0.1610296E-005  0.2627992E+03  0.7546771E-02  0.1120629E+00
         21   -1    0    0  501  502  0.00000000000E+00  0.00000000000E+00  0.13348703460E+03  0.13348703460E+03  0.00000000000E+00 0. -1.
          2   -1    0    0  502    0 -0.00000000000E+00 -0.00000000000E+00 -0.13972056663E+04  0.13972056663E+04  0.00000000000E+00 0. -1.
         23    2    1    2    0    0  0.89614545524E+02  0.12238783843E+03 -0.31799819979E+03  0.36492476126E+03  0.95066695262E+02 0.  0.
         23    2    1    2    0    0  0.14797979156E+03 -0.19968652977E+03 -0.86143255536E+03  0.90208137789E+03  0.99559208544E+02 0.  0.
        -11    1    4    4    0    0 -0.14833946522E+02 -0.21643869511E+02 -0.96454608685E+02  0.99959964953E+02  0.00000000000E+00 0.  1.
         11    1    4    4    0    0  0.16281373808E+03 -0.17804266025E+03 -0.76497794668E+03  0.80212141293E+03  0.00000000000E+00 0. -1.
        -11    1    3    3    0    0  0.84858071731E+02  0.49443525654E+02 -0.12790784233E+03  0.16126366825E+03  0.00000000000E+00 0. -1.
         11    1    3    3    0    0  0.47564737929E+01  0.72944312779E+02 -0.19009035745E+03  0.20366109301E+03  0.00000000000E+00 0.  1.
          2    1    1    2  501    0 -0.23759433709E+03  0.77298691332E+02 -0.84287876506E+02  0.26368656170E+03  0.00000000000E+00 0. -1.
<scales pt_clust_5="13000.00000" pt_clust_6="13000.00000" pt_clust_7="13000.00000" pt_clust_8="13000.00000" pt_clust_9="243.21062"></scales>
<clustering>
<clus scale="   95.067">  7  8 -1 -1</clus>
<clus scale="   99.559">  5  6 -1 -1</clus>
<clus scale="  179.017">  2  7  1 -1</clus>
<clus scale="  243.211">  1  9  2 -1</clus>
<clus scale="  243.211">  1  5  2 -1</clus>
</clustering>
</event>
<event>
 9    1  0.1610296E-005  0.1448532E+03  0.7546771E-02  0.1207030E+00
         21   -1    0    0  501  502  0.00000000000E+00  0.00000000000E+00  0.86221968327E+02  0.86221968327E+02  0.00000000000E+00 0. -1.
          1   -1    0    0  502    0 -0.00000000000E+00 -0.00000000000E+00 -0.52460711877E+03  0.52460711877E+03  0.00000000000E+00 0. -1.
         23    2    1    2    0    0  0.19262858765E+02  0.11254525286E+03 -0.36242199824E+03  0.39215300218E+03  0.96936993162E+02 0.  0.
         23    2    1    2    0    0 -0.58750997849E+02 -0.68728427440E+02 -0.14747950153E+02  0.13366709551E+03  0.97335059978E+02 0.  0.
        -11    1    4    4    0    0 -0.20741992569E+01 -0.63054822484E+02 -0.36275750681E+02  0.72774604283E+02  0.00000000000E+00 0.  1.
         11    1    4    4    0    0 -0.56676798593E+02 -0.56736049553E+01  0.21527800528E+02  0.60892491224E+02  0.00000000000E+00 0. -1.
        -11    1    3    3    0    0 -0.15468513945E+02  0.40651963059E+02 -0.37076258550E+02  0.57153354864E+02  0.00000000000E+00 0.  1.
         11    1    3    3    0    0  0.34731372710E+02  0.71893289801E+02 -0.32534573969E+03  0.33499964732E+03  0.00000000000E+00 0. -1.
          1    1    1    2  501    0  0.39488139084E+02 -0.43816825420E+02 -0.61215202051E+02  0.85008989409E+02  0.00000000000E+00 0. -1.
<scales pt_clust_5="13000.00000" pt_clust_6="13000.00000" pt_clust_7="13000.00000" pt_clust_8="13000.00000" pt_clust_9="58.98500"></scales>
<clustering>
<clus scale="   58.985">  1  9  2 -1</clus>
<clus scale="   96.937">  7  8 -1 -1</clus>
<clus scale="   97.335">  5  6 -1 -1</clus>
<clus scale="  144.586">  2  7  1 -1</clus>
<clus scale="   58.985">  1  5  2 -1</clus>
</clustering>
</event>
<event>
 9    1  0.1610296E-005  0.1186920E+03  0.7546771E-02  0.1253058E+00
         21   -1    0    0  501  502  0.00000000000E+00  0.00000000000E+00  0.50553897926E+03  0.50553897926E+03  0.00000000000E+00 0.  1.
          2   -1    0    0  502    0 -0.00000000000E+00 -0.00000000000E+00 -0.31911354742E+02  0.31911354742E+02  0.00000000000E+00 0. -1.
         23    2    1    2    0    0  0.38512430532E+02  0.53271873161E+02  0.16385618742E+03  0.18913350475E+03  0.67834598030E+02 0.  0.
         23    2    1    2    0    0 -0.56735524475E+02 -0.67608463712E+02  0.20668762561E+03  0.24265751270E+03  0.91504479604E+02 0.  0.
        -13    1    4    4    0    0 -0.82015369545E+02 -0.55779701578E+02  0.15884811203E+03  0.18727151050E+03  0.00000000000E+00 0.  1.
         13    1    4    4    0    0  0.25279845069E+02 -0.11828762134E+02  0.47839513574E+02  0.55386002197E+02  0.00000000000E+00 0. -1.
        -13    1    3    3    0    0  0.19553246520E+02  0.12793509531E+02  0.13247294620E+03  0.13451797208E+03  0.00000000000E+00 0.  1.
         13    1    3    3    0    0  0.18959184013E+02  0.40478363631E+02  0.31383241214E+02  0.54615532678E+02  0.00000000000E+00 0. -1.
          2    1    1    2  501    0  0.18223093943E+02  0.14336590551E+02  0.10308381150E+03  0.10565931655E+03  0.00000000000E+00 0. -1.
<scales pt_clust_5="13000.00000" pt_clust_6="13000.00000" pt_clust_7="13000.00000" pt_clust_8="13000.00000" pt_clust_9="23.18661"></scales>
<clustering>
<clus scale="   23.187">  1  9  2 -1</clus>
<clus scale="   67.835">  7  8 -1 -1</clus>
<clus scale="   91.504">  5  6 -1 -1</clus>
<clus scale="  101.569">  2  7  1 -1</clus>
<clus scale="   23.187">  1  5  2 -1</clus>
</clustering>
</event>
<event>
 9    1  0.1610296E-005  0.9710258E+02  0.7546771E-02  0.1288854E+00
          2   -1    0    0  502    0 -0.00000000000E+00  0.00000000000E+00  0.15979316662E+03  0.15979316662E+03  0.00000000000E+00 0. -1.
         21   -1    0    0  501  502  0.00000000000E+00 -0.00000000000E+00 -0.12994146168E+03  0.12994146168E+03  0.00000000000E+00 0.  1.
         23    2    1    2    0    0  0.11451219522E+02  0.22468908393E+02  0.10319643700E+03  0.14184217504E+03  0.93987848875E+02 0.  0.
         23    2    1    2    0    0  0.19570334529E+02 -0.29211779825E+02 -0.59931256682E+02  0.11342907483E+03  0.89655303336E+02 0.  0.
        -13    1    4    4    0    0 -0.24430834249E+02  0.17585175125E+02 -0.88962202301E+01  0.31388640949E+02  0.00000000000E+00 0. -1.
         13    1    4    4    0    0  0.44001168778E+02 -0.46796954950E+02 -0.51035036452E+02  0.82040433885E+02  0.00000000000E+00 0.  1.
        -13    1    3    3    0    0  0.39032951649E+02  0.35973260046E+02  0.26714354859E+02  0.59424771840E+02  0.00000000000E+00 0.  1.
         13    1    3    3    0    0 -0.27581732127E+02 -0.13504351653E+02  0.76482082141E+02  0.82417403195E+02  0.00000000000E+00 0. -1.
          2    1    1    2  501    0 -0.31021554051E+02  0.67428714312E+01 -0.13413475376E+02  0.34463378426E+02  0.00000000000E+00 0. -1.
<scales pt_clust_5="13000.00000" pt_clust_6="13000.00000" pt_clust_7="13000.00000" pt_clust_8="13000.00000" pt_clust_9="31.74592"></scales>
<clustering>
<clus scale="   31.746">  2  9  1 -1</clus>
<clus scale="   89.655">  5  6 -1 -1</clus>
<clus scale="   92.915">  2  5  1 -1</clus>
<clus scale="   93.988">  7  8 -1 -1</clus>
<clus scale="   31.746">  2  5  1 -1</clus>
</clustering>
</event>
<event>
 9    1  0.1610296E-005  0.2265608E+03  0.7546771E-02  0.1130051E+00
         21   -1    0    0  501  502  0.00000000000E+00  0.00000000000E+00  0.85705348957E+02  0.85705348957E+02  0.00000000000E+00 0.  1.
          1   -1    0    0  502    0 -0.00000000000E+00 -0.00000000000E+00 -0.70324671532E+03  0.70324671532E+03  0.00000000000E+00 0. -1.
         23    2    1    2    0    0  0.12272245156E+03 -0.17099623292E+03 -0.36884780098E+03  0.43610125446E+03  0.99172032700E+02 0.  0.
         23    2    1    2    0    0 -0.13256103769E+03  0.14480969772E+03 -0.24335701893E+03  0.32437255266E+03  0.86328656800E+02 0.  0.
        -13    1    3    3    0    0  0.73916041482E+02 -0.32818499023E+02 -0.89349914617E+02  0.12051573469E+03  0.00000000000E+00 0. -1.
         13    1    3    3    0    0  0.48806410078E+02 -0.13817773389E+03 -0.27949788636E+03  0.31558551977E+03  0.00000000000E+00 0.  1.
        -13    1    4    4    0    0 -0.12984982489E+03  0.10338703659E+03 -0.15660094920E+03  0.22819665565E+03  0.00000000000E+00 0.  1.
         13    1    4    4    0    0 -0.27112128052E+01  0.41422661130E+02 -0.86756069734E+02  0.96175897010E+02  0.00000000000E+00 0. -1.
          1    1    1    2  501    0  0.98385861336E+01  0.26186535195E+02 -0.53365464523E+01  0.28478257156E+02  0.00000000000E+00 0. -1.
<scales pt_clust_5="13000.00000" pt_clust_6="13000.00000" pt_clust_7="13000.00000" pt_clust_8="13000.00000" pt_clust_9="27.97378"></scales>
<clustering>
<clus scale="   27.974">  1  9  2 -1</clus>
<clus scale="   86.329">  7  8 -1 -1</clus>
<clus scale="   99.172">  5  6 -1 -1</clus>
<clus scale="  221.240">  1  7  2 -1</clus>
<clus scale="   27.974">  1  5  2 -1</clus>
</clustering>
</event>
<event>
 9    1  0.1610296E-005  0.9997617E+02  0.7546771E-02  0.1280618E+00
         21   -1    0    0  501  502  0.00000000000E+00  0.00000000000E+00  0.51355266822E+03  0.51355266822E+03  0.00000000000E+00 0.  1.
         -1   -1    0    0    0  501 -0.00000000000E+00 -0.00000000000E+00 -0.37719662729E+02  0.37719662729E+02  0.00000000000E+00 0.  1.
         23    2    1    2    0    0  0.57532497584E+02  0.30768513973E+02  0.13258352099E+03  0.17417271153E+03  0.92201158727E+02 0.  0.
         23    2    1    2    0    0  0.21130703147E+01 -0.13518422044E+02  0.18016927957E+03  0.20259943983E+03  0.91642516966E+02 0.  0.
        -11    1    3    3    0    0  0.23996490610E+02  0.55141548852E+02  0.11368589089E+03  0.12861144490E+03  0.00000000000E+00 0.  1.
         11    1    3    3    0    0  0.33536006974E+02 -0.24373034879E+02  0.18897630101E+02  0.45561266624E+02  0.00000000000E+00 0. -1.
        -13    1    4    4    0    0 -0.41126572883E+02 -0.22900828537E+02  0.10994899853E+03  0.11960194489E+03  0.00000000000E+00 0. -1.
         13    1    4    4    0    0  0.43239643198E+02  0.93824064924E+01  0.70220281043E+02  0.82997494934E+02  0.00000000000E+00 0.  1.
         -1    1    1    2    0  502 -0.59645567898E+02 -0.17250091928E+02  0.16308020493E+03  0.17450017960E+03  0.00000000000E+00 0.  1.
<scales pt_clust_5="13000.00000" pt_clust_6="13000.00000" pt_clust_7="13000.00000" pt_clust_8="13000.00000" pt_clust_9="62.08993"></scales>
<clustering>
<clus scale="   62.090">  1  9  2 -1</clus>
<clus scale="   91.643">  7  8 -1 -1</clus>
<clus scale="   92.201">  5  6 -1 -1</clus>
<clus scale="   99.461">  1  7  2 -1</clus>
<clus scale="   62.090">  1  5  2 -1</clus>
</clustering>
</event>
<event>
 9    1  0.1610296E-005  0.1077669E+03  0.7546771E-02  0.1265109E+00
         21   -1    0    0  501  502  0.00000000000E+00  0.00000000000E+00  0.26360742964E+02  0.26360742964E+02  0.00000000000E+00 0.  1.
          1   -1    0    0  502    0 -0.00000000000E+00 -0.00000000000E+00 -0.58756155530E+03  0.58756155530E+03  0.00000000000E+00 0. -1.
         23    2    1    2    0    0  0.61027222854E+02 -0.18925283472E+02 -0.36441141388E+03  0.38099192382E+03  0.90976256041E+02 0.  0.
         23    2    1    2    0    0 -0.48527972970E+02  0.11054755424E+01 -0.16971631477E+03  0.19819237418E+03  0.90113281193E+02 0.  0.
        -11    1    3    3    0    0 -0.63731635582E+01 -0.23640958698E+02 -0.25272811920E+02  0.35188452144E+02  0.00000000000E+00 0.  1.
         11    1    3    3    0    0  0.67400386413E+02  0.47156752263E+01 -0.33913860196E+03  0.34580347167E+03  0.00000000000E+00 0. -1.
        -13    1    4    4    0    0 -0.64187687175E+02 -0.26831503359E+02 -0.12695633197E+03  0.14476843228E+03  0.00000000000E+00 0.  1.
         13    1    4    4    0    0  0.15659714205E+02  0.27936978901E+02 -0.42759982794E+02  0.53423941895E+02  0.00000000000E+00 0. -1.
          1    1    1    2  501    0 -0.12499249885E+02  0.17819807930E+02 -0.27073083685E+02  0.34738000267E+02  0.00000000000E+00 0. -1.
<scales pt_clust_5="13000.00000" pt_clust_6="13000.00000" pt_clust_7="13000.00000" pt_clust_8="13000.00000" pt_clust_9="21.76641"></scales>
<clustering>
<clus scale="   21.766">  1  9  2 -1</clus>
<clus scale="   90.113">  7  8 -1 -1</clus>
<clus scale="   90.976">  5  6 -1 -1</clus>
<clus scale="  107.039">  1  7  2 -1</clus>
<clus scale="   21.766">  1  5  2 -1</clus>
</clustering>
</event>
<event>
 9    1  0.1610296E-005  0.1004797E+03  0.7546771E-02  0.1282851E+00
          2   -1    0    0  502    0 -0.00000000000E+00  0.00000000000E+00  0.34151927591E+03  0.34151927591E+03  0.00000000000E+00 0. -1.
         21   -1    0    0  501  502  0.00000000000E+00 -0.00000000000E+00 -0.11982335789E+03  0.11982335789E+03  0.00000000000E+00 0. -1.
         23    2    1    2    0    0  0.48514758462E+02  0.20307522767E+02  0.22813761641E+03  0.24872131114E+03  0.83960951168E+02 0.  0.
         23    2    1    2    0    0  0.38288137376E+02 -0.54084811288E+02  0.22678614701E+02  0.11503218095E+03  0.91252040053E+02 0.  0.
        -11    1    4    4    0    0 -0.23473564513E+02  0.83180528606E+01  0.67240864147E+01  0.25795572729E+02  0.00000000000E+00 0.  1.
         11    1    4    4    0    0  0.61761701888E+02 -0.62402864149E+02  0.15954528286E+02  0.89236608222E+02  0.00000000000E+00 0. -1.
        -13    1    3    3    0    0  0.52307570624E+02 -0.10650598794E+02  0.19901281360E+03  0.20604760901E+03  0.00000000000E+00 0.  1.
         13    1    3    3    0    0 -0.37928121625E+01  0.30958121561E+02  0.29124802810E+02  0.42673702129E+02  0.00000000000E+00 0. -1.
          2    1    1    2  501    0 -0.86802895837E+02  0.33777288521E+02 -0.29120313092E+02  0.97589141712E+02  0.00000000000E+00 0. -1.
<scales pt_clust_5="13000.00000" pt_clust_6="13000.00000" pt_clust_7="13000.00000" pt_clust_8="13000.00000" pt_clust_9="93.14316"></scales>
<clustering>
<clus scale="   83.961">  7  8 -1 -1</clus>
<clus scale="   91.252">  5  6 -1 -1</clus>
<clus scale="   93.143">  2  9  1 -1</clus>
<clus scale="   93.908">  1  7  2 -1</clus>
<clus scale="   93.143">  2  5  1 -1</clus>
</clustering>
</event>
<event>
 9    1  0.1610296E-005  0.1345587E+03  0.7546771E-02  0.1225782E+00
          2   -1    0    0  502    0 -0.00000000000E+00  0.00000000000E+00  0.28479996106E+03  0.28479996106E+03  0.00000000000E+00 0. -1.
         21   -1    0    0  501  502  0.00000000000E+00 -0.00000000000E+00 -0.10430129330E+03  0.10430129330E+03  0.00000000000E+00 0.  1.
         23    2    1    2    0    0  0.46775139359E+01 -0.55743992048E+02  0.63885967510E+02  0.12648804858E+03  0.93747201568E+02 0.  0.
         23    2    1    2    0    0  0.14511633990E+02  0.11780961947E+03  0.49992744664E+02  0.16956169322E+03  0.11028236182E+03 0.  0.
        -11    1    4    4    0    0 -0.89879724565E+01  0.10878395318E+03  0.76278742306E+02  0.13316598156E+03  0.00000000000E+00 0. -1.
         11    1    4    4    0    0  0.23499606446E+02  0.90256662951E+01 -0.26285997641E+02  0.36395711660E+02  0.00000000000E+00 0.  1.
        -13    1    3    3    0    0 -0.21819268097E+02 -0.29813985922E+02  0.78404506142E+02  0.86673068483E+02  0.00000000000E+00 0.  1.
         13    1    3    3    0    0  0.26496782033E+02 -0.25930006126E+02 -0.14518538632E+02  0.39814980093E+02  0.00000000000E+00 0. -1.
          2    1    1    2  501    0 -0.19189147926E+02 -0.62065627426E+02  0.66619955589E+02  0.93051512554E+02  0.00000000000E+00 0. -1.
<scales pt_clust_5="13000.00000" pt_clust_6="13000.00000" pt_clust_7="13000.00000" pt_clust_8="13000.00000" pt_clust_9="64.96437"></scales>
<clustering>
<clus scale="   64.964">  2  9  1 -1</clus>
<clus scale="   93.747">  7  8 -1 -1</clus>
<clus scale="  110.282">  5  6 -1 -1</clus>
<clus scale="  121.377">  1  7  2 -1</clus>
<clus scale="   64.964">  2  5  1 -1</clus>
</clustering>
</event>
<event>
 9    1  0.1610296E-005  0.9705700E+02  0.7546771E-02  0.1287255E+00
          2   -1    0    0  502    0 -0.00000000000E+00  0.00000000000E+00  0.37638613607E+03  0.37638613607E+03  0.00000000000E+00 0. -1.
         21   -1    0    0  501  502  0.00000000000E+00 -0.00000000000E+00 -0.94956403381E+02  0.94956403381E+02  0.00000000000E+00 0.  1.
         23    2    1    2    0    0  0.43223476472E+01  0.15541098408E+02  0.29587941395E+03  0.31076190126E+03  0.93638257397E+02 0.  0.
         23    2    1    2    0    0 -0.39537298794E+02 -0.38444624287E+02  0.12886761345E+02  0.11046132677E+03  0.94839068753E+02 0.  0.
        -11    1    3    3    0    0 -0.42373730108E+02 -0.23755208561E+01  0.10073904588E+03  0.10931391250E+03  0.00000000000E+00 0.  1.
         11    1    3    3    0    0  0.46696077755E+02  0.17916619264E+02  0.19514036807E+03  0.20144798876E+03  0.00000000000E+00 0. -1.
        -13    1    4    4    0    0 -0.17330236244E+02 -0.61594703076E+02 -0.17435557026E+02  0.66319251986E+02  0.00000000000E+00 0.  1.
         13    1    4    4    0    0 -0.22207062550E+02  0.23150078789E+02  0.30322318371E+02  0.44142074786E+02  0.00000000000E+00 0. -1.
          2    1    1    2  501    0  0.35214951146E+02  0.22903525879E+02 -0.27336442609E+02  0.50119311412E+02  0.00000000000E+00 0. -1.
<scales pt_clust_5="13000.00000" pt_clust_6="13000.00000" pt_clust_7="13000.00000" pt_clust_8="13000.00000" pt_clust_9="42.00791"></scales>
<clustering>
<clus scale="   42.008">  2  9  1 -1</clus>
<clus scale="   93.638">  5  6 -1 -1</clus>
<clus scale="   94.839">  7  8 -1 -1</clus>
<clus scale="   95.884">  1  5  2 -1</clus>
<clus scale="   42.008">  2  5  1 -1</clus>
</clustering>
</event>
<event>
 9    1  0.1610296E-005  0.1706140E+03  0.7546771E-02  0.1177802E+00
         21   -1    0    0  501  502  0.00000000000E+00  0.00000000000E+00  0.40802830461E+03  0.40802830461E+03  0.00000000000E+00 0.  1.
         -1   -1    0    0    0  501 -0.00000000000E+00 -0.00000000000E+00 -0.17590747383E+03  0.17590747383E+03  0.00000000000E+00 0.  1.
         23    2    1    2    0    0  0.10057654823E+03 -0.96907218779E+02 -0.99459982016E+02  0.19698927999E+03  0.96983696081E+02 0.  0.
         23    2    1    2    0    0 -0.12113082435E+03  0.82417222981E+02  0.27697930997E+03  0.32683192154E+03  0.92931649783E+02 0.  0.
        -13    1    4    4    0    0 -0.82730152801E+02  0.25778508335E+01  0.10836372460E+03  0.13635842588E+03  0.00000000000E+00 0.  1.
         13    1    4    4    0    0 -0.38400671549E+02  0.79839372147E+02  0.16861558537E+03  0.19047349566E+03  0.00000000000E+00 0. -1.
        -13    1    3    3    0    0  0.62453871287E+02 -0.11263966393E+03 -0.75184370093E+02  0.14913373004E+03  0.00000000000E+00 0.  1.
         13    1    3    3    0    0  0.38122676939E+02  0.15732445150E+02 -0.24275611924E+02  0.47855549957E+02  0.00000000000E+00 0. -1.
         -1    1    1    2    0  502  0.20554276123E+02  0.14489995798E+02  0.54601502829E+02  0.60114576904E+02  0.00000000000E+00 0.  1.
<scales pt_clust_5="13000.00000" pt_clust_6="13000.00000" pt_clust_7="13000.00000" pt_clust_8="13000.00000" pt_clust_9="25.14832"></scales>
<clustering>
<clus scale="   25.148">  1  9  2 -1</clus>
<clus scale="   92.932">  5  6 -1 -1</clus>
<clus scale="   96.984">  7  8 -1 -1</clus>
<clus scale="  168.344">  1  5  2 -1</clus>
<clus scale="   25.148">  1  5  2 -1</clus>
</clustering>
</event>
<event>
 9    1  0.1610296E-005  0.1901346E+03  0.7546771E-02  0.1158421E+00
         21   -1    0    0  501  502  0.00000000000E+00  0.00000000000E+00  0.30824381367E+03  0.30824381367E+03  0.00000000000E+00 0.  1.
         -3   -1    0    0    0  501 -0.00000000000E+00 -0.00000000000E+00 -0.18980352995E+03  0.18980352995E+03  0.00000000000E+00 0.  1.
         23    2    1    2    0    0 -0.81698197892E+02 -0.13802980381E+03 -0.49839419045E+02  0.19134078713E+03  0.91654278961E+02 0.  0.
         23    2    1    2    0    0  0.12963897205E+03  0.13368209622E+03  0.12521258830E+03  0.24211556069E+03  0.90909771403E+02 0.  0.
        -13    1    3    3    0    0 -0.61495829627E+02 -0.11570320143E+03  0.23917651620E+01  0.13105223548E+03  0.00000000000E+00 0.  1.
         13    1    3    3    0    0 -0.20202368265E+02 -0.22326602379E+02 -0.52231184207E+02  0.60288551657E+02  0.00000000000E+00 0. -1.
        -13    1    4    4    0    0  0.58798082913E+02  0.61475680320E+02  0.52950262229E+01  0.85232101510E+02  0.00000000000E+00 0.  1.
         13    1    4    4    0    0  0.70840889136E+02  0.72206415904E+02  0.11991756207E+03  0.15688345918E+03  0.00000000000E+00 0. -1.
         -3    1    1    2    0  502 -0.47940774158E+02  0.43477075845E+01  0.43067114475E+02  0.64590995791E+02  0.00000000000E+00 0.  1.
<scales pt_clust_5="13000.00000" pt_clust_6="13000.00000" pt_clust_7="13000.00000" pt_clust_8="13000.00000" pt_clust_9="48.13752"></scales>
<clustering>
<clus scale="   48.138">  1  9  2 -1</clus>
<clus scale="   90.910">  7  8 -1 -1</clus>
<clus scale="   91.654">  5  6 -1 -1</clus>
<clus scale="  189.777">  1  7  2 -1</clus>
<clus scale="   48.138">  1  5  2 -1</clus>
</clustering>
</event>
<event>
 9    1  0.1610296E-005  0.1063846E+03  0.7546771E-02  0.1267852E+00
         -3   -1    0    0    0  501 -0.00000000000E+00  0.00000000000E+00  0.12356521727E+03  0.12356521727E+03  0.00000000000E+00 0.  1.
         21   -1    0    0  501  502  0.00000000000E+00 -0.00000000000E+00 -0.18039611277E+03  0.18039611277E+03  0.00000000000E+00 0. -1.
         23    2    1    2    0    0  0.24705929361E+02  0.43261755137E+02  0.60869567751E+02  0.12149907399E+03  0.92601070723E+02 0.  0.
         23    2    1    2    0    0 -0.50529384552E+02 -0.42699742110E+02 -0.10222323651E+03  0.15235060973E+03  0.91567633602E+02 0.  0.
        -11    1    3    3    0    0 -0.31999180103E+02 -0.24925670616E+01  0.22051958040E+02  0.38941613619E+02  0.00000000000E+00 0.  1.
         11    1    3    3    0    0  0.56705109465E+02  0.45754322198E+02  0.38817609711E+02  0.82557460371E+02  0.00000000000E+00 0. -1.
        -11    1    4    4    0    0 -0.54226414925E+02 -0.22837960776E+01 -0.15253148148E+02  0.56377108196E+02  0.00000000000E+00 0.  1.
         11    1    4    4    0    0  0.36970303733E+01 -0.40415946033E+02 -0.86970088359E+02  0.95973501532E+02  0.00000000000E+00 0. -1.
         -3    1    1    2    0  502  0.25823455190E+02 -0.56201302606E+00 -0.15477226746E+02  0.30111646324E+02  0.00000000000E+00 0.  1.
<scales pt_clust_5="13000.00000" pt_clust_6="13000.00000" pt_clust_7="13000.00000" pt_clust_8="13000.00000" pt_clust_9="25.82957"></scales>
<clustering>
<clus scale="   25.830">  2  9  1 -1</clus>
<clus scale="   91.568">  7  8 -1 -1</clus>
<clus scale="   92.601">  5  6 -1 -1</clus>
<clus scale="  105.486">  2  7  1 -1</clus>
<clus scale="   25.830">  2  5  1 -1</clus>
</clustering>
</event>
<event>
 9    1  0.1610296E-005  0.1561382E+03  0.7546771E-02  0.1193384E+00
         21   -1    0    0  501  502  0.00000000000E+00  0.00000000000E+00  0.11009846403E+03  0.11009846403E+03  0.00000000000E+00 0. -1.
          1   -1    0    0  502    0 -0.00000000000E+00 -0.00000000000E+00 -0.29316400576E+03  0.29316400576E+03  0.00000000000E+00 0. -1.
         23    2    1    2    0    0  0.49626082371E+02  0.91672916626E+02 -0.62710216792E+02  0.15398618667E+03  0.94406052244E+02 0.  0.
         23    2    1    2    0    0 -0.67027317452E+02 -0.13158531336E+03 -0.91286833932E+02  0.19692382792E+03  0.92942734928E+02 0.  0.
        -11    1    3    3    0    0  0.73710254930E+02  0.87999040047E+02 -0.59848037431E+02  0.12945586242E+03  0.00000000000E+00 0. -1.
         11    1    3    3    0    0 -0.24084172558E+02  0.36738765785E+01 -0.28621793614E+01  0.24530324246E+02  0.00000000000E+00 0.  1.
        -13    1    4    4    0    0 -0.12193693555E+02 -0.98587361253E+02 -0.88214816615E+02  0.13285333203E+03  0.00000000000E+00 0. -1.
         13    1    4    4    0    0 -0.54833623897E+02 -0.32997952111E+02 -0.30720173171E+01  0.64070495890E+02  0.00000000000E+00 0.  1.
          1    1    1    2  501    0  0.17401235080E+02  0.39912396739E+02 -0.29068491008E+02  0.52352455198E+02  0.00000000000E+00 0. -1.
<scales pt_clust_5="13000.00000" pt_clust_6="13000.00000" pt_clust_7="13000.00000" pt_clust_8="13000.00000" pt_clust_9="43.54083"></scales>
<clustering>
<clus scale="   43.541">  1  9  2 -1</clus>
<clus scale="   92.943">  7  8 -1 -1</clus>
<clus scale="   94.406">  5  6 -1 -1</clus>
<clus scale="  155.258">  1  7  2 -1</clus>
<clus scale="   43.541">  1  5  2 -1</clus>
</clustering>
</event>
<event>
 9    1  0.1610296E-005  0.1495906E+03  0.7546771E-02  0.1221031E+00
         21   -1    0    0  501  502  0.00000000000E+00  0.00000000000E+00  0.27044513119E+03  0.27044513119E+03  0.00000000000E+00 0. -1.
          1   -1    0    0  502    0 -0.00000000000E+00 -0.00000000000E+00 -0.27347991905E+03  0.27347991905E+03  0.00000000000E+00 0. -1.
         23    2    1    2    0    0  0.30529871576E+02 -0.11534494048E+02 -0.12236724610E+03  0.15649226559E+03  0.91929150217E+02 0.  0.
         23    2    1    2    0    0 -0.14151664847E+03 -0.17232914423E+02 -0.55437164420E+02  0.17841113640E+03  0.91833105457E+02 0.  0.
        -11    1    4    4    0    0 -0.60308747195E+02  0.38065339383E+02 -0.22149993511E+02  0.74677555284E+02  0.00000000000E+00 0.  1.
         11    1    4    4    0    0 -0.81207901279E+02 -0.55298253806E+02 -0.33287170910E+02  0.10373358112E+03  0.00000000000E+00 0. -1.
        -11    1    3    3    0    0  0.32381807252E+02  0.36888974106E+02 -0.62454945269E+02  0.79435496096E+02  0.00000000000E+00 0.  1.
         11    1    3    3    0    0 -0.18519356754E+01 -0.48423468154E+02 -0.59912300828E+02  0.77056769490E+02  0.00000000000E+00 0. -1.
          1    1    1    2  501    0  0.11098677690E+03  0.28767408471E+02  0.17476962266E+03  0.20902164826E+03  0.00000000000E+00 0. -1.
<scales pt_clust_5="13000.00000" pt_clust_6="13000.00000" pt_clust_7="13000.00000" pt_clust_8="13000.00000" pt_clust_9="118.08482"></scales>
<clustering>
<clus scale="   91.833">  5  6 -1 -1</clus>
<clus scale="   91.929">  7  8 -1 -1</clus>
<clus scale="   97.550">  2  7  1 -1</clus>
<clus scale="  118.085">  1  9  2 -1</clus>
<clus scale="  118.085">  1  5  2 -1</clus>
</clustering>
</event>
<event>
 9    1  0.1610296E-005  0.9351468E+02  0.7546771E-02  0.1295127E+00
          1   -1    0    0  502    0 -0.00000000000E+00  0.00000000000E+00  0.16162383127E+03  0.16162383127E+03  0.00000000000E+00 0. -1.
         21   -1    0    0  501  502  0.00000000000E+00 -0.00000000000E+00 -0.78526803537E+02  0.78526803537E+02  0.00000000000E+00 0. -1.
         23    2    1    2    0    0 -0.13636280128E+02  0.22195644196E+02  0.70298308790E+02  0.11832749781E+03  0.91547527337E+02 0.  0.
         23    2    1    2    0    0  0.16187017544E+02  0.57947487301E+01  0.35227201895E+01  0.92225628485E+02  0.90540368577E+02 0.  0.
        -13    1    3    3    0    0 -0.98213792741E+01 -0.24144002504E+02 -0.79990312562E+01  0.27264938085E+02  0.00000000000E+00 0.  1.
         13    1    3    3    0    0 -0.38149008539E+01  0.46339646700E+02  0.78297340046E+02  0.91062559722E+02  0.00000000000E+00 0. -1.
        -13    1    4    4    0    0 -0.13925696030E+02 -0.36400750296E+02  0.92951087107E+01  0.40066677900E+02  0.00000000000E+00 0.  1.
         13    1    4    4    0    0  0.30112713573E+02  0.42195499026E+02 -0.57723885212E+01  0.52158950584E+02  0.00000000000E+00 0. -1.
          1    1    1    2  501    0 -0.25507374155E+01 -0.27990392926E+02  0.92759987549E+01  0.29597508517E+02  0.00000000000E+00 0. -1.
<scales pt_clust_5="13000.00000" pt_clust_6="13000.00000" pt_clust_7="13000.00000" pt_clust_8="13000.00000" pt_clust_9="28.10638"></scales>
<clustering>
<clus scale="   28.106">  2  9  1 -1</clus>
<clus scale="   90.540">  7  8 -1 -1</clus>
<clus scale="   91.548">  5  6 -1 -1</clus>
<clus scale="   92.529">  2  7  1 -1</clus>
<clus scale="   28.106">  2  5  1 -1</clus>
</clustering>
</event>
<event>
 9    1  0.1610296E-005  0.9717906E+02  0.7546771E-02  0.1288205E+00
         21   -1    0    0  501  502  0.00000000000E+00  0.00000000000E+00  0.24610772132E+03  0.24610772132E+03  0.00000000000E+00 0.  1.
          2   -1    0    0  502    0 -0.00000000000E+00 -0.00000000000E+00 -0.67512971654E+02  0.67512971654E+02  0.00000000000E+00 0. -1.
         23    2    1    2    0    0 -0.11994775480E+02  0.30353676341E+02  0.30745503595E+02  0.99806669485E+02  0.89167622914E+02 0.  0.
         23    2    1    2    0    0 -0.35551156189E+02 -0.26266237121E+02  0.12227703390E+03  0.15967290406E+03  0.92682055187E+02 0.  0.
        -13    1    3    3    0    0  0.24175965590E+02 -0.19972696887E+02  0.19182874697E+02  0.36760965913E+02  0.00000000000E+00 0.  1.
         13    1    3    3    0    0 -0.36170741070E+02  0.50326373229E+02  0.11562628898E+02  0.63045703572E+02  0.00000000000E+00 0. -1.
        -13    1    4    4    0    0 -0.25191813931E+02 -0.60960747926E+02  0.86399851570E+02  0.10870038927E+03  0.00000000000E+00 0.  1.
         13    1    4    4    0    0 -0.10359342258E+02  0.34694510805E+02  0.35877182325E+02  0.50972514786E+02  0.00000000000E+00 0. -1.
          2    1    1    2  501    0  0.47545931669E+02 -0.40874392205E+01  0.25572212176E+02  0.54141119431E+02  0.00000000000E+00 0. -1.
<scales pt_clust_5="13000.00000" pt_clust_6="13000.00000" pt_clust_7="13000.00000" pt_clust_8="13000.00000" pt_clust_9="47.72133"></scales>
<clustering>
<clus scale="   47.721">  1  9  2 -1</clus>
<clus scale="   89.168">  5  6 -1 -1</clus>
<clus scale="   92.682">  7  8 -1 -1</clus>
<clus scale="   93.833">  2  5  1 -1</clus>
<clus scale="   47.721">  1  5  2 -1</clus>
</clustering>
</event>
<event>
 9    1  0.1610296E-005  0.1109033E+03  0.7546771E-02  0.1259363E+00
          1   -1    0    0  502    0 -0.00000000000E+00  0.00000000000E+00  0.51909479865E+03  0.51909479865E+03  0.00000000000E+00 0. -1.
         21   -1    0    0  501  502  0.00000000000E+00 -0.00000000000E+00 -0.41133460588E+02  0.41133460588E+02  0.00000000000E+00 0.  1.
         23    2    1    2    0    0 -0.33825401067E+02 -0.49151616582E+02  0.32859999557E+03  0.34653630222E+03  0.92463033131E+02 0.  0.
         23    2    1    2    0    0  0.60269767902E+02  0.34389272637E+02  0.14203058600E+03  0.18253154420E+03  0.91268889951E+02 0.  0.
        -11    1    4    4    0    0  0.67324105709E+02 -0.10997850770E+02  0.93138045607E+02  0.11544775212E+03  0.00000000000E+00 0.  1.
         11    1    4    4    0    0 -0.70543378070E+01  0.45387123408E+02  0.48892540397E+02  0.67083792078E+02  0.00000000000E+00 0. -1.
        -13    1    3    3    0    0  0.23219369498E+01 -0.63467421571E+02  0.13663696977E+03  0.15067569977E+03  0.00000000000E+00 0.  1.
         13    1    3    3    0    0 -0.36147338017E+02  0.14315804989E+02  0.19196302580E+03  0.19586060245E+03  0.00000000000E+00 0. -1.
          1    1    1    2  501    0 -0.26444366835E+02  0.14762343945E+02  0.73307564830E+01  0.31160412812E+02  0.00000000000E+00 0. -1.
<scales pt_clust_5="13000.00000" pt_clust_6="13000.00000" pt_clust_7="13000.00000" pt_clust_8="13000.00000" pt_clust_9="30.28583"></scales>
<clustering>
<clus scale="   30.286">  2  9  1 -1</clus>
<clus scale="   91.269">  5  6 -1 -1</clus>
<clus scale="   92.463">  7  8 -1 -1</clus>
<clus scale="  109.910">  2  5  1 -1</clus>
<clus scale="   30.286">  2  5  1 -1</clus>
</clustering>
</event>
<event>
 9    1  0.1610296E-005  0.1063070E+03  0.7546771E-02  0.1270004E+00
          3   -1    0    0  502    0 -0.00000000000E+00  0.00000000000E+00  0.13924728036E+03  0.13924728036E+03  0.00000000000E+00 0. -1.
         21   -1    0    0  501  502  0.00000000000E+00 -0.00000000000E+00 -0.10487240743E+03  0.10487240743E+03  0.00000000000E+00 0.  1.
         23    2    1    2    0    0  0.90344949250E+01  0.60482664184E+02  0.45442334400E+02  0.12101147454E+03  0.94015937207E+02 0.  0.
         23    2    1    2    0    0 -0.71423332954E+01 -0.34161382369E+02 -0.16317110082E+01  0.95082804452E+02  0.88431127164E+02 0.  0.
        -11    1    3    3    0    0  0.49501772484E+02  0.33044625130E+02  0.40237354513E+02  0.71843005417E+02  0.00000000000E+00 0.  1.
         11    1    3    3    0    0 -0.40467277559E+02  0.27438039054E+02  0.52049798863E+01  0.49168469122E+02  0.00000000000E+00 0. -1.
        -13    1    4    4    0    0 -0.29126946048E+02  0.16255591128E+02 -0.17727632626E+02  0.37774226498E+02  0.00000000000E+00 0. -1.
         13    1    4    4    0    0  0.21984612753E+02 -0.50416973497E+02  0.16095921618E+02  0.57308577955E+02  0.00000000000E+00 0.  1.
          3    1    1    2  501    0 -0.18921616295E+01 -0.26321281815E+02 -0.94357504610E+01  0.28025408806E+02  0.00000000000E+00 0. -1.
<scales pt_clust_5="13000.00000" pt_clust_6="13000.00000" pt_clust_7="13000.00000" pt_clust_8="13000.00000" pt_clust_9="26.38921"></scales>
<clustering>
<clus scale="   26.389">  2  9  1 -1</clus>
<clus scale="   88.431">  7  8 -1 -1</clus>
<clus scale="   94.016">  5  6 -1 -1</clus>
<clus scale="  101.401">  2  7  1 -1</clus>
<clus scale="   26.389">  2  5  1 -1</clus>
</clustering>
</event>
<event>
 9    1  0.1610296E-005  0.1874873E+03  0.7546771E-02  0.1160831E+00
         21   -1    0    0  501  502  0.00000000000E+00  0.00000000000E+00  0.30196815699E+03  0.30196815699E+03  0.00000000000E+00 0. -1.
          2   -1    0    0  502    0 -0.00000000000E+00 -0.00000000000E+00 -0.17199150331E+03  0.17199150331E+03  0.00000000000E+00 0. -1.
         23    2    1    2    0    0 -0.13419742203E+03  0.91822922651E+02 -0.28785207912E+02  0.18847716863E+03  0.90855146794E+02 0.  0.
         23    2    1    2    0    0  0.15941383993E+03 -0.57221619734E+02  0.11511929107E+03  0.22434500843E+03  0.91603195937E+02 0.  0.
        -11    1    3    3    0    0 -0.14039700999E+03  0.70938909731E+02 -0.42238143578E+02  0.16287329462E+03  0.00000000000E+00 0. -1.
         11    1    3    3    0    0  0.61995879613E+01  0.20884012919E+02  0.13452935665E+02  0.25603874014E+02  0.00000000000E+00 0.  1.
        -13    1    4    4    0    0  0.56217295543E+02 -0.14634251406E+01 -0.49957049070E+01  0.56457798389E+02  0.00000000000E+00 0.  1.
         13    1    4    4    0    0  0.10319654438E+03 -0.55758194593E+02  0.12011499598E+03  0.16788721004E+03  0.00000000000E+00 0. -1.
          2    1    1    2  501    0 -0.25216417900E+02 -0.34601302917E+02  0.43642570518E+02  0.61137483238E+02  0.00000000000E+00 0. -1.
<scales pt_clust_5="13000.00000" pt_clust_6="13000.00000" pt_clust_7="13000.00000" pt_clust_8="13000.00000" pt_clust_9="42.81493"></scales>
<clustering>
<clus scale="   42.815">  1  9  2 -1</clus>
<clus scale="   90.855">  5  6 -1 -1</clus>
<clus scale="   91.603">  7  8 -1 -1</clus>
<clus scale="  187.123">  2  5  1 -1</clus>
<clus scale="   42.815">  1  5  2 -1</clus>
</clustering>
</event>
<event>
 9    1  0.1610296E-005  0.9409730E+02  0.7546771E-02  0.1298535E+00
         21   -1    0    0  501  502  0.00000000000E+00  0.00000000000E+00  0.18583849495E+03  0.18583849495E+03  0.00000000000E+00 0.  1.
         -1   -1    0    0    0  501 -0.00000000000E+00 -0.00000000000E+00 -0.11359646710E+03  0.11359646710E+03  0.00000000000E+00 0.  1.
         23    2    1    2    0    0  0.76180175717E+01  0.26311541440E+02 -0.43045321231E+02  0.10544043062E+03  0.92273795438E+02 0.  0.
         23    2    1    2    0    0  0.12077694815E+02 -0.64620855465E+01  0.98809441607E+01  0.84942102835E+02  0.83246012006E+02 0.  0.
        -13    1    3    3    0    0 -0.26469682652E+02 -0.22601313647E+01  0.16382509724E+02  0.31211198605E+02  0.00000000000E+00 0. -1.
         13    1    3    3    0    0  0.34087700224E+02  0.28571672805E+02 -0.59427830955E+02  0.74229232014E+02  0.00000000000E+00 0.  1.
        -13    1    4    4    0    0 -0.33378548903E+02 -0.11202250925E+02 -0.75844219467E+01  0.36015849413E+02  0.00000000000E+00 0. -1.
         13    1    4    4    0    0  0.45456243718E+02  0.47401653784E+01  0.17465366107E+02  0.48926253423E+02  0.00000000000E+00 0.  1.
         -1    1    1    2    0  502 -0.19695712386E+02 -0.19849455893E+02  0.10540640492E+03  0.10905242860E+03  0.00000000000E+00 0.  1.
<scales pt_clust_5="13000.00000" pt_clust_6="13000.00000" pt_clust_7="13000.00000" pt_clust_8="13000.00000" pt_clust_9="27.96287"></scales>
<clustering>
<clus scale="   27.963">  1  9  2 -1</clus>
<clus scale="   83.246">  7  8 -1 -1</clus>
<clus scale="   85.263">  1  7  2 -1</clus>
<clus scale="   92.274">  5  6 -1 -1</clus>
<clus scale="   27.963">  1  5  2 -1</clus>
</clustering>
</event>
<event>
 9    1  0.1610296E-005  0.2211498E+03  0.7546771E-02  0.1152789E+00
          3   -1    0    0  502    0 -0.00000000000E+00  0.00000000000E+00  0.23929354010E+03  0.23929354010E+03  0.00000000000E+00 0. -1.
         21   -1    0    0  501  502  0.00000000000E+00 -0.00000000000E+00 -0.54808690978E+03  0.54808690978E+03  0.00000000000E+00 0.  1.
         23    2    1    2    0    0  0.63089789520E+02  0.94286089471E+02  0.75307965661E+02  0.15689658625E+03  0.77942676852E+02 0.  0.
         23    2    1    2    0    0  0.18677294330E+02 -0.26227815233E+03 -0.11095682398E+03  0.29955318620E+03  0.91005626545E+02 0.  0.
        -11    1    3    3    0    0 -0.16794621146E+02  0.27175927950E+02  0.86827941854E+01  0.33105607897E+02  0.00000000000E+00 0.  1.
         11    1    3    3    0    0  0.79884410666E+02  0.67110161521E+02  0.66625171476E+02  0.12379097835E+03  0.00000000000E+00 0. -1.
        -13    1    4    4    0    0 -0.26075701473E+02 -0.14214349227E+03 -0.29004008090E+02  0.14739724247E+03  0.00000000000E+00 0.  1.
         13    1    4    4    0    0  0.44752995803E+02 -0.12013466006E+03 -0.81952815888E+02  0.15215594373E+03  0.00000000000E+00 0. -1.
          3    1    1    2  501    0 -0.81767083851E+02  0.16799206286E+03 -0.27314451136E+03  0.33093067744E+03  0.00000000000E+00 0. -1.
<scales pt_clust_5="13000.00000" pt_clust_6="13000.00000" pt_clust_7="13000.00000" pt_clust_8="13000.00000" pt_clust_9="201.55694"></scales>
<clustering>
<clus scale="   77.943">  5  6 -1 -1</clus>
<clus scale="   91.006">  7  8 -1 -1</clus>
<clus scale="  137.642">  1  5  2 -1</clus>
<clus scale="  201.557">  2  9  1 -1</clus>
<clus scale="  201.557">  2  5  1 -1</clus>
</clustering>
</event>
<event>
 9    1  0.1610296E-005  0.1837376E+03  0.7546771E-02  0.1164432E+00
         21   -1    0    0  501  502  0.00000000000E+00  0.00000000000E+00  0.69311417401E+02  0.69311417401E+02  0.00000000000E+00 0.  1.
          2   -1    0    0  502    0 -0.00000000000E+00 -0.00000000000E+00 -0.91341845290E+03  0.91341845290E+03  0.00000000000E+00 0. -1.
         23    2    1    2    0    0 -0.11951100915E+03 -0.10213705192E+03 -0.60738790223E+03  0.63392514702E+03  0.90698233547E+02 0.  0.
         23    2    1    2    0    0  0.15430837398E+03  0.67238931274E+02 -0.22913094633E+03  0.29894175100E+03  0.92374410781E+02 0.  0.
        -11    1    3    3    0    0 -0.42333598050E+02 -0.74061908190E+02 -0.43092589282E+03  0.43928854398E+03  0.00000000000E+00 0. -1.
         11    1    3    3    0    0 -0.77177411096E+02 -0.28075143728E+02 -0.17646200942E+03  0.19463660305E+03  0.00000000000E+00 0.  1.
        -13    1    4    4    0    0  0.74245474288E+02  0.80473470887E+01 -0.16333607967E+03  0.17959906784E+03  0.00000000000E+00 0. -1.
         13    1    4    4    0    0  0.80062899688E+02  0.59191584185E+02 -0.65794866659E+02  0.11934268316E+03  0.00000000000E+00 0.  1.
          2    1    1    2  501    0 -0.34797364830E+02  0.34898120644E+02 -0.75881869400E+01  0.49862972280E+02  0.00000000000E+00 0. -1.
<scales pt_clust_5="13000.00000" pt_clust_6="13000.00000" pt_clust_7="13000.00000" pt_clust_8="13000.00000" pt_clust_9="49.28220"></scales>
<clustering>
<clus scale="   49.282">  1  9  2 -1</clus>
<clus scale="   90.698">  5  6 -1 -1</clus>
<clus scale="   92.374">  7  8 -1 -1</clus>
<clus scale="  182.901">  2  5  1 -1</clus>
<clus scale="   49.282">  1  5  2 -1</clus>
</clustering>
</event>
<event>
 9    1  0.1610296E-005  0.1117289E+03  0.7546771E-02  0.1263559E+00
         21   -1    0    0  501  502  0.00000000000E+00  0.00000000000E+00  0.33495133224E+02  0.33495133224E+02  0.00000000000E+00 0.  1.
         -1   -1    0    0    0  501 -0.00000000000E+00 -0.00000000000E+00 -0.42949982417E+03  0.42949982417E+03  0.00000000000E+00 0.  1.
         23    2    1    2    0    0  0.31886100884E+02 -0.30181954335E+02 -0.22832895935E+03  0.25576504076E+03  0.10655500270E+03 0.  0.
         23    2    1    2    0    0 -0.11215342822E+02  0.21162756964E+02 -0.15164341111E+03  0.17955932828E+03  0.93124551216E+02 0.  0.
        -13    1    4    4    0    0 -0.19563062865E+02  0.56060116603E+02 -0.82304999623E+02  0.10148676300E+03  0.00000000000E+00 0.  1.
         13    1    4    4    0    0  0.83477200427E+01 -0.34897359640E+02 -0.69338411492E+02  0.78072565271E+02  0.00000000000E+00 0. -1.
        -13    1    3    3    0    0 -0.37561235045E+01 -0.56647111678E+02 -0.18582914958E+03  0.19430768528E+03  0.00000000000E+00 0.  1.
         13    1    3    3    0    0  0.35642224389E+02  0.26465157342E+02 -0.42499809778E+02  0.61457355489E+02  0.00000000000E+00 0. -1.
         -1    1    1    2    0  502 -0.20670758062E+02  0.90191973718E+01 -0.16032320482E+02  0.27670588358E+02  0.00000000000E+00 0.  1.
<scales pt_clust_5="13000.00000" pt_clust_6="13000.00000" pt_clust_7="13000.00000" pt_clust_8="13000.00000" pt_clust_9="22.55274"></scales>
<clustering>
<clus scale="   22.553">  1  9  2 -1</clus>
<clus scale="   93.125">  5  6 -1 -1</clus>
<clus scale="   99.003">  1  5  2 -1</clus>
<clus scale="  106.555">  7  8 -1 -1</clus>
<clus scale="   22.553">  1  5  2 -1</clus>
</clustering>
</event>
<event>
 9    1  0.1610296E-005  0.9908754E+02  0.7546771E-02  0.1283102E+00
          2   -1    0    0  502    0 -0.00000000000E+00  0.00000000000E+00  0.40843805693E+02  0.40843805693E+02  0.00000000000E+00 0. -1.
         21   -1    0    0  501  502  0.00000000000E+00 -0.00000000000E+00 -0.36752087501E+03  0.36752087501E+03  0.00000000000E+00 0.  1.
         23    2    1    2    0    0 -0.19684875023E+02  0.39684437696E+02 -0.11261928968E+03  0.15194308301E+03  0.91876260075E+02 0.  0.
         23    2    1    2    0    0  0.38548831919E+02 -0.60716465310E+01 -0.12195380299E+03  0.15657766391E+03  0.90116354998E+02 0.  0.
        -11    1    3    3    0    0  0.20638247601E+02  0.17595712071E+01 -0.89649023025E+02  0.92010763959E+02  0.00000000000E+00 0.  1.
         11    1    3    3    0    0 -0.40323122624E+02  0.37924866489E+02 -0.22970266658E+02  0.59932319050E+02  0.00000000000E+00 0. -1.
        -13    1    4    4    0    0  0.49246561683E+00 -0.41186973638E+02 -0.29686527332E+02  0.50773016701E+02  0.00000000000E+00 0.  1.
         13    1    4    4    0    0  0.38056366302E+02  0.35115327107E+02 -0.92267275656E+02  0.10580464721E+03  0.00000000000E+00 0. -1.
          2    1    1    2  501    0 -0.18863956896E+02 -0.33612791165E+02 -0.92103976647E+02  0.99843933786E+02  0.00000000000E+00 0. -1.
<scales pt_clust_5="13000.00000" pt_clust_6="13000.00000" pt_clust_7="13000.00000" pt_clust_8="13000.00000" pt_clust_9="38.54437"></scales>
<clustering>
<clus scale="   38.544">  2  9  1 -1</clus>
<clus scale="   90.116">  7  8 -1 -1</clus>
<clus scale="   91.876">  5  6 -1 -1</clus>
<clus scale="   97.458">  2  7  1 -1</clus>
<clus scale="   38.544">  2  5  1 -1</clus>
</clustering>
</event>
<event>
 9    1  0.1610296E-005  0.1044183E+03  0.7546771E-02  0.1271434E+00
         21   -1    0    0  501  502  0.00000000000E+00  0.00000000000E+00  0.46181245585E+03  0.46181245585E+03  0.00000000000E+00 0.  1.
          4   -1    0    0  502    0 -0.00000000000E+00 -0.00000000000E+00 -0.40173661271E+02  0.40173661271E+02  0.00000000000E+00 0. -1.
         23    2    1    2    0    0  0.33518361479E+02  0.49950463026E+02  0.11282695167E+03  0.15755957387E+03  0.92068284347E+02 0.  0.
         23    2    1    2    0    0 -0.22529743423E+02 -0.28334665899E+02  0.12795490389E+03  0.16195127149E+03  0.92440869084E+02 0.  0.
        -11    1    3    3    0    0  0.59160278355E+02  0.57845271929E+02  0.90820192282E+02  0.12285894898E+03  0.00000000000E+00 0.  1.
         11    1    3    3    0    0 -0.25641916876E+02 -0.78948089034E+01  0.22006759384E+02  0.34700624883E+02  0.00000000000E+00 0. -1.
        -13    1    4    4    0    0  0.23477581410E+02 -0.40412385325E+02  0.88776042060E+02  0.10032718156E+03  0.00000000000E+00 0. -1.
         13    1    4    4    0    0 -0.46007324833E+02  0.12077719426E+02  0.39178861826E+02  0.61624089923E+02  0.00000000000E+00 0.  1.
          4    1    1    2  501    0 -0.10988618056E+02 -0.21615797127E+02  0.18085693903E+03  0.18247527177E+03  0.00000000000E+00 0. -1.
<scales pt_clust_5="13000.00000" pt_clust_6="13000.00000" pt_clust_7="13000.00000" pt_clust_8="13000.00000" pt_clust_9="24.24855"></scales>
<clustering>
<clus scale="   24.249">  1  9  2 -1</clus>
<clus scale="   92.068">  5  6 -1 -1</clus>
<clus scale="   92.441">  7  8 -1 -1</clus>
<clus scale="  104.089">  2  5  1 -1</clus>
<clus scale="   24.249">  1  5  2 -1</clus>
</clustering>
</event>
<event>
 9    1  0.1610296E-005  0.1486975E+03  0.7546771E-02  0.1204694E+00
         21   -1    0    0  501  502  0.00000000000E+00  0.00000000000E+00  0.81031789768E+02  0.81031789768E+02  0.00000000000E+00 0. -1.
          4   -1    0    0  502    0 -0.00000000000E+00 -0.00000000000E+00 -0.49533607904E+03  0.49533607904E+03  0.00000000000E+00 0. -1.
         23    2    1    2    0    0 -0.10404452359E+03  0.57229441988E+02 -0.28576267492E+03  0.32474529818E+03  0.98482132339E+02 0.  0.
         23    2    1    2    0    0  0.68238886665E+02 -0.34420425235E+02 -0.15250705665E+03  0.20287180340E+03  0.10980553246E+03 0.  0.
        -11    1    4    4    0    0  0.78598367753E+02  0.13010363378E+02 -0.65085517648E+02  0.10287418323E+03  0.00000000000E+00 0.  1.
         11    1    4    4    0    0 -0.10359481088E+02 -0.47430788613E+02 -0.87421539001E+02  0.99997620163E+02  0.00000000000E+00 0. -1.
        -13    1    3    3    0    0  0.52339333431E+01  0.43802112623E+02 -0.85738970216E+02  0.96421938075E+02  0.00000000000E+00 0.  1.
         13    1    3    3    0    0 -0.10927845694E+03  0.13427329365E+02 -0.20002370470E+03  0.22832336010E+03  0.00000000000E+00 0. -1.
          4    1    1    2  501    0  0.35805636929E+02 -0.22809016753E+02  0.23965442300E+02  0.48750767232E+02  0.00000000000E+00 0. -1.
<scales pt_clust_5="13000.00000" pt_clust_6="13000.00000" pt_clust_7="13000.00000" pt_clust_8="13000.00000" pt_clust_9="42.45344"></scales>
<clustering>
<clus scale="   42.453">  1  9  2 -1</clus>
<clus scale="   98.482">  7  8 -1 -1</clus>
<clus scale="  109.806">  5  6 -1 -1</clus>
<clus scale="  140.543">  2  7  1 -1</clus>
<clus scale="   42.453">  1  5  2 -1</clus>
</clustering>
</event>
<event>
 9    1  0.1610296E-005  0.1284881E+03  0.7546771E-02  0.1229860E+00
         -3   -1    0    0    0  501 -0.00000000000E+00  0.00000000000E+00  0.53711630575E+03  0.53711630575E+03  0.00000000000E+00 0.  1.
         21   -1    0    0  501  502  0.00000000000E+00 -0.00000000000E+00 -0.64061686371E+02  0.64061686371E+02  0.00000000000E+00 0.  1.
         23    2    1    2    0    0 -0.29048719601E+02 -0.98812902964E+02  0.40945129320E+03  0.43195619544E+03  0.91257741419E+02 0.  0.
         23    2    1    2    0    0  0.87514924725E+01  0.54188846205E+02  0.54997253997E+02  0.11944882863E+03  0.90721028650E+02 0.  0.
        -11    1    4    4    0    0  0.36423430891E+01 -0.22292687945E+02  0.32471771739E+02  0.39555613493E+02  0.00000000000E+00 0.  1.
         11    1    4    4    0    0  0.51091493834E+01  0.76481534150E+02  0.22525482259E+02  0.79893215133E+02  0.00000000000E+00 0. -1.
        -13    1    3    3    0    0 -0.60560448535E+02 -0.55693905037E+02  0.21187959725E+03  0.22729351666E+03  0.00000000000E+00 0.  1.
         13    1    3    3    0    0  0.31511728934E+02 -0.43118997927E+02  0.19757169595E+03  0.20466267878E+03  0.00000000000E+00 0. -1.
         -3    1    1    2    0  502  0.20297227128E+02  0.44624056759E+02  0.86060721770E+01  0.49772968056E+02  0.00000000000E+00 0.  1.
<scales pt_clust_5="13000.00000" pt_clust_6="13000.00000" pt_clust_7="13000.00000" pt_clust_8="13000.00000" pt_clust_9="49.02330"></scales>
<clustering>
<clus scale="   49.023">  2  9  1 -1</clus>
<clus scale="   90.721">  5  6 -1 -1</clus>
<clus scale="   91.258">  7  8 -1 -1</clus>
<clus scale="  128.107">  2  5  1 -1</clus>
<clus scale="   49.023">  2  5  1 -1</clus>
</clustering>
</event>
<event>
 9    1  0.1610296E-005  0.1744208E+03  0.7546771E-02  0.1173320E+00
          2   -1    0    0  502    0 -0.00000000000E+00  0.00000000000E+00  0.49244996163E+03  0.49244996163E+03  0.00000000000E+00 0. -1.
         21   -1    0    0  501  502  0.00000000000E+00 -0.00000000000E+00 -0.10562786103E+03  0.10562786103E+03  0.00000000000E+00 0. -1.
         23    2    1    2    0    0 -0.76375295099E+01  0.17493194821E+03  0.28219418981E+03  0.34435358779E+03  0.91029194751E+02 0.  0.
         23    2    1    2    0    0  0.20676435940E+02 -0.11725815165E+03  0.12073521458E+03  0.19244026367E+03  0.90990515501E+02 0.  0.
        -11    1    3    3    0    0 -0.27480468282E+02  0.16123212827E+03  0.27359044782E+03  0.31875179758E+03  0.00000000000E+00 0. -1.
         11    1    3    3    0    0  0.19842938772E+02  0.13699819949E+02  0.86037419931E+01  0.25601790211E+02  0.00000000000E+00 0.  1.
        -11    1    4    4    0    0 -0.29988968964E+02 -0.15720862023E+02  0.13952057438E+02  0.36621628432E+02  0.00000000000E+00 0.  1.
         11    1    4    4    0    0  0.50665404904E+02 -0.10153728962E+03  0.10678315714E+03  0.15581863524E+03  0.00000000000E+00 0. -1.
          2    1    1    2  501    0 -0.13038906430E+02 -0.57673796569E+02 -0.16107303793E+02  0.61283971208E+02  0.00000000000E+00 0. -1.
<scales pt_clust_5="13000.00000" pt_clust_6="13000.00000" pt_clust_7="13000.00000" pt_clust_8="13000.00000" pt_clust_9="59.12935"></scales>
<clustering>
<clus scale="   59.129">  2  9  1 -1</clus>
<clus scale="   90.991">  7  8 -1 -1</clus>
<clus scale="   91.029">  5  6 -1 -1</clus>
<clus scale="  174.401">  2  7  1 -1</clus>
<clus scale="   59.129">  2  5  1 -1</clus>
</clustering>
</event>
<event>
 9    1  0.1610296E-005  0.1579307E+03  0.7546771E-02  0.1191218E+00
          2   -1    0    0  502    0 -0.00000000000E+00  0.00000000000E+00  0.33612935405E+03  0.33612935405E+03  0.00000000000E+00 0. -1.
         21   -1    0    0  501  502  0.00000000000E+00 -0.00000000000E+00 -0.14736414380E+03  0.14736414380E+03  0.00000000000E+00 0.  1.
         23    2    1    2    0    0  0.27410828628E+02 -0.11873644568E+03  0.20638826301E+03  0.25549962932E+03  0.88511289769E+02 0.  0.
         23    2    1    2    0    0 -0.31542489180E+02  0.15950761688E+03 -0.74179741788E+01  0.18576233235E+03  0.89526584393E+02 0.  0.
        -13    1    3    3    0    0  0.27155642706E+02  0.40719966168E+01  0.44692502370E+02  0.52454073773E+02  0.00000000000E+00 0.  1.
         13    1    3    3    0    0  0.25518592131E+00 -0.12280844230E+03  0.16169576064E+03  0.20304555555E+03  0.00000000000E+00 0. -1.
        -13    1    4    4    0    0  0.22412667500E+01  0.12905925957E+03  0.22912103741E+02  0.13109645401E+03  0.00000000000E+00 0.  1.
         13    1    4    4    0    0 -0.33783755930E+02  0.30448357310E+02 -0.30330077920E+02  0.54665878336E+02  0.00000000000E+00 0. -1.
          2    1    1    2  501    0  0.41316605520E+01 -0.40771171195E+02 -0.10205078583E+02  0.42231536183E+02  0.00000000000E+00 0. -1.
<scales pt_clust_5="13000.00000" pt_clust_6="13000.00000" pt_clust_7="13000.00000" pt_clust_8="13000.00000" pt_clust_9="40.97998"></scales>
<clustering>
<clus scale="   40.980">  2  9  1 -1</clus>
<clus scale="   88.511">  5  6 -1 -1</clus>
<clus scale="   89.527">  7  8 -1 -1</clus>
<clus scale="  157.357">  1  5  2 -1</clus>
<clus scale="   40.980">  2  5  1 -1</clus>
</clustering>
</event>
<event>
 9    1  0.1610296E-005  0.9087587E+02  0.7546771E-02  0.1301853E+00
         21   -1    0    0  501  502  0.00000000000E+00  0.00000000000E+00  0.20176301070E+03  0.20176301070E+03  0.00000000000E+00 0. -1.
          3   -1    0    0  502    0 -0.00000000000E+00 -0.00000000000E+00 -0.14494132144E+03  0.14494132144E+03  0.00000000000E+00 0. -1.
         23    2    1    2    0    0 -0.55239790771E+01 -0.11779024749E+02 -0.83046906218E+02  0.12374921872E+03  0.90817513355E+02 0.  0.
         23    2    1    2    0    0 -0.22038126720E+02 -0.23129578101E+02  0.22133327017E+02  0.97098553528E+02  0.88980832318E+02 0.  0.
        -11    1    4    4    0    0 -0.45870890145E+02  0.64085583878E+01 -0.99826444248E+01  0.47379968056E+02  0.00000000000E+00 0. -1.
         11    1    4    4    0    0  0.23832763425E+02 -0.29538136489E+02  0.32115971442E+02  0.49718585472E+02  0.00000000000E+00 0.  1.
        -13    1    3    3    0    0  0.40883790201E+02  0.59202330441E+01 -0.29825975864E+02  0.50952156939E+02  0.00000000000E+00 0.  1.
         13    1    3    3    0    0 -0.46407769278E+02 -0.17699257793E+02 -0.53220930354E+02  0.72797061779E+02  0.00000000000E+00 0. -1.
          3    1    1    2  501    0  0.27562105797E+02  0.34908602850E+02  0.11773526846E+03  0.12585655990E+03  0.00000000000E+00 0. -1.
<scales pt_clust_5="13000.00000" pt_clust_6="13000.00000" pt_clust_7="13000.00000" pt_clust_8="13000.00000" pt_clust_9="44.47786"></scales>
<clustering>
<clus scale="   44.478">  1  9  2 -1</clus>
<clus scale="   88.981">  5  6 -1 -1</clus>
<clus scale="   89.040">  1  5  2 -1</clus>
<clus scale="   90.818">  7  8 -1 -1</clus>
<clus scale="   44.478">  1  5  2 -1</clus>
</clustering>
</event>
<event>
 9    1  0.2525466E-005  0.9754852E+02  0.7546771E-02  0.1287810E+00
         21   -1    0    0  501  502  0.00000000000E+00  0.00000000000E+00  0.89947065294E+02  0.89947065294E+02  0.00000000000E+00 0. -1.
          1   -1    0    0  502    0 -0.00000000000E+00 -0.00000000000E+00 -0.42218552739E+03  0.42218552739E+03  0.00000000000E+00 0. -1.
         23    2    1    2    0    0  0.29565184035E+02  0.48977596061E+01 -0.35962392015E+03  0.37279934579E+03  0.93551590682E+02 0.  0.
         23    2    1    2    0    0 -0.13774828193E+02  0.26834836021E+02 -0.48965663988E+00  0.94240952859E+02  0.89281930512E+02 0.  0.
        -11    1    4    4    0    0 -0.51115900039E+02  0.11014858455E+02  0.77440062531E+01  0.52859549530E+02  0.00000000000E+00 0.  1.
         11    1    4    4    0    0  0.37341071846E+02  0.15819977567E+02 -0.82336628930E+01  0.41381403329E+02  0.00000000000E+00 0. -1.
        -13    1    3    3    0    0 -0.30268165666E+02 -0.12455082384E+02 -0.82420689281E+02  0.88681796055E+02  0.00000000000E+00 0.  1.
         13    1    3    3    0    0  0.59833349701E+02  0.17352841990E+02 -0.27720323087E+03  0.28411754973E+03  0.00000000000E+00 0. -1.
          1    1    1    2  501    0 -0.15790355842E+02 -0.31732595627E+02  0.27875114691E+02  0.45092294041E+02  0.00000000000E+00 0. -1.
<scales pt_clust_5="13000.00000" pt_clust_6="13000.00000" pt_clust_7="13000.00000" pt_clust_8="13000.00000" pt_clust_9="35.44422"></scales>
<clustering>
<clus scale="   35.444">  1  9  2 -1</clus>
<clus scale="   89.282">  5  6 -1 -1</clus>
<clus scale="   93.462">  1  5  2 -1</clus>
<clus scale="   93.552">  7  8 -1 -1</clus>
<clus scale="   35.444">  1  5  2 -1</clus>
</clustering>
</event>
<event>
 9    1  0.1610296E-005  0.9661649E+02  0.7546771E-02  0.1289557E+00
          1   -1    0    0  502    0 -0.00000000000E+00  0.00000000000E+00  0.44403484577E+03  0.44403484577E+03  0.00000000000E+00 0. -1.
         21   -1    0    0  501  502  0.00000000000E+00 -0.00000000000E+00 -0.91355902094E+02  0.91355902094E+02  0.00000000000E+00 0. -1.
         23    2    1    2    0    0 -0.11198645139E+02  0.33965965723E+02  0.26818151651E+03  0.28574882062E+03  0.91934575681E+02 0.  0.
         23    2    1    2    0    0 -0.45972068155E+02 -0.18010643965E+02  0.13709161766E+03  0.17033737741E+03  0.88220724115E+02 0.  0.
        -11    1    4    4    0    0  0.23418413965E+02 -0.20519145901E+02  0.50739915925E+02  0.59531475114E+02  0.00000000000E+00 0.  1.
         11    1    4    4    0    0 -0.69390482120E+02  0.25085019367E+01  0.86351701735E+02  0.11080590229E+03  0.00000000000E+00 0. -1.
        -13    1    3    3    0    0  0.31768734720E+02  0.35270855151E+02  0.82736473821E+02  0.95386633388E+02  0.00000000000E+00 0.  1.
         13    1    3    3    0    0 -0.42967379860E+02 -0.13048894276E+01  0.18544504269E+03  0.19036218723E+03  0.00000000000E+00 0. -1.
          1    1    1    2  501    0  0.57170713295E+02 -0.15955321758E+02 -0.52594190496E+02  0.79304549837E+02  0.00000000000E+00 0. -1.
<scales pt_clust_5="13000.00000" pt_clust_6="13000.00000" pt_clust_7="13000.00000" pt_clust_8="13000.00000" pt_clust_9="59.35539"></scales>
<clustering>
<clus scale="   59.355">  2  9  1 -1</clus>
<clus scale="   88.221">  5  6 -1 -1</clus>
<clus scale="   91.935">  7  8 -1 -1</clus>
<clus scale="   93.090">  2  5  1 -1</clus>
<clus scale="   59.355">  2  5  1 -1</clus>
</clustering>
</event>
<event>
 9    1  0.1610296E-005  0.1112840E+03  0.7546771E-02  0.1259007E+00
         21   -1    0    0  501  502  0.00000000000E+00  0.00000000000E+00  0.17472557148E+03  0.17472557148E+03  0.00000000000E+00 0. -1.
          3   -1    0    0  502    0 -0.00000000000E+00 -0.00000000000E+00 -0.30760129695E+03  0.30760129695E+03  0.00000000000E+00 0. -1.
         23    2    1    2    0    0 -0.27098466506E+02 -0.53988793064E+02 -0.20251987389E+03  0.22931024443E+03  0.88993102073E+02 0.  0.
         23    2    1    2    0    0  0.53695613252E+02  0.54736856935E+02 -0.50945746233E+02  0.12952617698E+03  0.91116513729E+02 0.  0.
        -13    1    4    4    0    0  0.44201806803E+02  0.16131786664E+02 -0.70861712886E+02  0.85061252159E+02  0.00000000000E+00 0.  1.
         13    1    4    4    0    0  0.94938064483E+01  0.38605070272E+02  0.19915966653E+02  0.44464924821E+02  0.00000000000E+00 0. -1.
        -13    1    3    3    0    0 -0.11134908016E+02  0.23907801431E+02 -0.69502539216E+02  0.74338227739E+02  0.00000000000E+00 0.  1.
         13    1    3    3    0    0 -0.15963558490E+02 -0.77896594495E+02 -0.13301733467E+03  0.15497201669E+03  0.00000000000E+00 0. -1.
          3    1    1    2  501    0 -0.26597146746E+02 -0.74806387123E+00  0.12058989465E+03  0.12349044702E+03  0.00000000000E+00 0. -1.
<scales pt_clust_5="13000.00000" pt_clust_6="13000.00000" pt_clust_7="13000.00000" pt_clust_8="13000.00000" pt_clust_9="26.60766"></scales>
<clustering>
<clus scale="   26.608">  1  9  2 -1</clus>
<clus scale="   88.993">  7  8 -1 -1</clus>
<clus scale="   91.117">  5  6 -1 -1</clus>
<clus scale="  109.552">  2  7  1 -1</clus>
<clus scale="   26.608">  1  5  2 -1</clus>
</clustering>
</event>
<event>
 9    1  0.1610296E-005  0.9243588E+02  0.7546771E-02  0.1297730E+00
          1   -1    0    0  502    0 -0.00000000000E+00  0.00000000000E+00  0.55859588514E+02  0.55859588514E+02  0.00000000000E+00 0. -1.
         21   -1    0    0  501  502  0.00000000000E+00 -0.00000000000E+00 -0.30535999292E+03  0.30535999292E+03  0.00000000000E+00 0.  1.
         23    2    1    2    0    0 -0.73056133429E+01 -0.25752600117E+01 -0.21049464157E+02  0.93771528590E+02  0.91049523241E+02 0.  0.
         23    2    1    2    0    0  0.36031061200E+02 -0.43440651961E+01 -0.11596259188E+03  0.15114389585E+03  0.89889077551E+02 0.  0.
        -11    1    3    3    0    0  0.64134613256E+01  0.40044998347E+02  0.66866012995E+01  0.41102858972E+02  0.00000000000E+00 0. -1.
         11    1    3    3    0    0 -0.13719074669E+02 -0.42620258358E+02 -0.27736065457E+02  0.52668669618E+02  0.00000000000E+00 0.  1.
        -13    1    4    4    0    0  0.75798746097E+01 -0.21178226185E+02 -0.11592326260E+03  0.11808545455E+03  0.00000000000E+00 0.  1.
         13    1    4    4    0    0  0.28451186591E+02  0.16834160989E+02 -0.39329281898E-01  0.33058441304E+02  0.00000000000E+00 0. -1.
          1    1    1    2  501    0 -0.28725447857E+02  0.69193252078E+01 -0.11248834836E+03  0.11630415699E+03  0.00000000000E+00 0. -1.
<scales pt_clust_5="13000.00000" pt_clust_6="13000.00000" pt_clust_7="13000.00000" pt_clust_8="13000.00000" pt_clust_9="29.54705"></scales>
<clustering>
<clus scale="   29.547">  2  9  1 -1</clus>
<clus scale="   89.889">  7  8 -1 -1</clus>
<clus scale="   91.050">  5  6 -1 -1</clus>
<clus scale="   91.293">  2  7  1 -1</clus>
<clus scale="   29.547">  2  5  1 -1</clus>
</clustering>
</event>
<event>
 9    1  0.1610296E-005  0.1147311E+03  0.7546771E-02  0.1253533E+00
          4   -1    0    0  502    0 -0.00000000000E+00  0.00000000000E+00  0.89588432492E+02  0.89588432492E+02  0.00000000000E+00 0. -1.
         21   -1    0    0  501  502  0.00000000000E+00 -0.00000000000E+00 -0.90994372554E+03  0.90994372554E+03  0.00000000000E+00 0. -1.
         23    2    1    2    0    0 -0.34318300684E+02 -0.54306703193E+02 -0.26978139663E+02  0.11174110920E+03  0.87357264682E+02 0.  0.
         23    2    1    2    0    0  0.10637342861E+03 -0.71551114161E+01 -0.67763918973E+02  0.15602328371E+03  0.91568632242E+02 0.  0.
        -11    1    3    3    0    0  0.26830820110E+02 -0.18676168154E+02 -0.24627993282E+02  0.40929576321E+02  0.00000000000E+00 0. -1.
         11    1    3    3    0    0 -0.61149120794E+02 -0.35630535039E+02 -0.23501463802E+01  0.70811532882E+02  0.00000000000E+00 0.  1.
        -13    1    4    4    0    0  0.19331797922E+00  0.22690466584E+02 -0.33626050887E+02  0.40566068874E+02  0.00000000000E+00 0.  1.
         13    1    4    4    0    0  0.10618011063E+03 -0.29845578000E+02 -0.34137868086E+02  0.11545721483E+03  0.00000000000E+00 0. -1.
          4    1    1    2  501    0 -0.72055127927E+02  0.61461814610E+02 -0.72561323441E+03  0.73176776512E+03  0.00000000000E+00 0. -1.
<scales pt_clust_5="13000.00000" pt_clust_6="13000.00000" pt_clust_7="13000.00000" pt_clust_8="13000.00000" pt_clust_9="94.70742"></scales>
<clustering>
<clus scale="   87.357">  5  6 -1 -1</clus>
<clus scale="   91.569">  7  8 -1 -1</clus>
<clus scale="   94.707">  2  9  1 -1</clus>
<clus scale="  111.399">  1  5  2 -1</clus>
<clus scale="   94.707">  2  5  1 -1</clus>
</clustering>
</event>
<event>
 9    1  0.1610296E-005  0.9207081E+02  0.7546771E-02  0.1298017E+00
         21   -1    0    0  501  502  0.00000000000E+00  0.00000000000E+00  0.35609272284E+03  0.35609272284E+03  0.00000000000E+00 0. -1.
         -1   -1    0    0    0  501 -0.00000000000E+00 -0.00000000000E+00 -0.43341698887E+02  0.43341698887E+02  0.00000000000E+00 0.  1.
         23    2    1    2    0    0 -0.14102389725E+02 -0.54937656172E+01  0.81440396090E+02  0.12367989126E+03  0.91842901357E+02 0.  0.
         23    2    1    2    0    0 -0.27612883920E+02 -0.21795334099E+02  0.13068152812E+03  0.16345548892E+03  0.91665299422E+02 0.  0.
        -11    1    3    3    0    0 -0.48150354552E+02  0.34193425255E+01  0.18749348601E+02  0.51785003811E+02  0.00000000000E+00 0. -1.
         11    1    3    3    0    0  0.34047964827E+02 -0.89131081427E+01  0.62691047490E+02  0.71894887447E+02  0.00000000000E+00 0.  1.
        -13    1    4    4    0    0  0.12644387219E+02  0.17720249193E+02  0.72171406789E+00  0.21780923552E+02  0.00000000000E+00 0.  1.
         13    1    4    4    0    0 -0.40257271138E+02 -0.39515583292E+02  0.12995981406E+03  0.14167456537E+03  0.00000000000E+00 0. -1.
         -1    1    1    2    0  502  0.41715273644E+02  0.27289099717E+02  0.10062909974E+03  0.11229904155E+03  0.00000000000E+00 0.  1.
<scales pt_clust_5="13000.00000" pt_clust_6="13000.00000" pt_clust_7="13000.00000" pt_clust_8="13000.00000" pt_clust_9="49.84836"></scales>
<clustering>
<clus scale="   49.848">  1  9  2 -1</clus>
<clus scale="   91.665">  7  8 -1 -1</clus>
<clus scale="   91.843">  5  6 -1 -1</clus>
<clus scale="   91.894">  1  7  2 -1</clus>
<clus scale="   49.848">  1  5  2 -1</clus>
</clustering>
</event>
<event>
 9    1  0.1610296E-005  0.1455991E+03  0.7546771E-02  0.1208988E+00
         -1   -1    0    0    0  501 -0.00000000000E+00  0.00000000000E+00  0.36443203479E+03  0.36443203479E+03  0.00000000000E+00 0.  1.
         21   -1    0    0  501  502  0.00000000000E+00 -0.00000000000E+00 -0.20525548721E+03  0.20525548721E+03  0.00000000000E+00 0.  1.
         23    2    1    2    0    0  0.57532563909E+02 -0.73563872860E+02  0.24631809623E+03  0.28341854054E+03  0.10455536950E+03 0.  0.
         23    2    1    2    0    0 -0.12887182464E+03  0.10602502113E+03 -0.83433095540E+02  0.20780390074E+03  0.91499330271E+02 0.  0.
        -13    1    4    4    0    0 -0.11121483569E+03  0.68261633235E+02 -0.20172617759E+02  0.13204288983E+03  0.00000000000E+00 0.  1.
         13    1    4    4    0    0 -0.17656988951E+02  0.37763387896E+02 -0.63260477781E+02  0.75761010905E+02  0.00000000000E+00 0. -1.
        -13    1    3    3    0    0  0.56619928537E+02 -0.94938375058E+02  0.23384170786E+03  0.25865238391E+03  0.00000000000E+00 0.  1.
         13    1    3    3    0    0  0.91263537206E+00  0.21374502198E+02  0.12476388373E+02  0.24766156633E+02  0.00000000000E+00 0. -1.
         -1    1    1    2    0  502  0.71339260729E+02 -0.32461148272E+02 -0.37084531094E+01  0.78465080723E+02  0.00000000000E+00 0.  1.
<scales pt_clust_5="13000.00000" pt_clust_6="13000.00000" pt_clust_7="13000.00000" pt_clust_8="13000.00000" pt_clust_9="78.37740"></scales>
<clustering>
<clus scale="   78.377">  2  9  1 -1</clus>
<clus scale="   91.499">  5  6 -1 -1</clus>
<clus scale="  104.555">  7  8 -1 -1</clus>
<clus scale="  136.526">  2  5  1 -1</clus>
<clus scale="   78.377">  2  5  1 -1</clus>
</clustering>
</event>
<event>
 9    1  0.1610296E-005  0.1250181E+03  0.7546771E-02  0.1235440E+00
         21   -1    0    0  501  502  0.00000000000E+00  0.00000000000E+00  0.66139793086E+02  0.66139793086E+02  0.00000000000E+00 0. -1.
         -2   -1    0    0    0  501 -0.00000000000E+00 -0.00000000000E+00 -0.38284615754E+03  0.38284615754E+03  0.00000000000E+00 0. -1.
         23    2    1    2    0    0 -0.69138872395E+02  0.41684988839E+02 -0.17612996161E+03  0.21388463684E+03  0.90592784083E+02 0.  0.
         23    2    1    2    0    0  0.62452661546E+02 -0.72300638035E+02 -0.15314835208E+03  0.20133628307E+03  0.89186119655E+02 0.  0.
        -11    1    4    4    0    0  0.69426013659E+02 -0.24981579814E+02 -0.54583226884E+02  0.91778970138E+02  0.00000000000E+00 0.  1.
         11    1    4    4    0    0 -0.69733521128E+01 -0.47319058221E+02 -0.98565125201E+02  0.10955731293E+03  0.00000000000E+00 0. -1.
        -13    1    3    3    0    0 -0.84902858970E+01  0.57577728314E+02 -0.75624993945E+02  0.95427561331E+02  0.00000000000E+00 0.  1.
         13    1    3    3    0    0 -0.60648586498E+02 -0.15892739475E+02 -0.10050496767E+03  0.11845707551E+03  0.00000000000E+00 0. -1.
         -2    1    1    2    0  502  0.66862108489E+01  0.30615649196E+02  0.12571949247E+02  0.33765030713E+02  0.00000000000E+00 0. -1.
<scales pt_clust_5="13000.00000" pt_clust_6="13000.00000" pt_clust_7="13000.00000" pt_clust_8="13000.00000" pt_clust_9="31.33725"></scales>
<clustering>
<clus scale="   31.337">  1  9  2 -1</clus>
<clus scale="   89.186">  5  6 -1 -1</clus>
<clus scale="   90.593">  7  8 -1 -1</clus>
<clus scale="  124.003">  1  5  2 -1</clus>
<clus scale="   31.337">  1  5  2 -1</clus>
</clustering>
</event>
<event>
 9    1  0.1610296E-005  0.9910858E+02  0.7546771E-02  0.1285811E+00
         21   -1    0    0  501  502  0.00000000000E+00  0.00000000000E+00  0.65761571251E+02  0.65761571251E+02  0.00000000000E+00 0. -1.
          1   -1    0    0  502    0 -0.00000000000E+00 -0.00000000000E+00 -0.41573242770E+03  0.41573242770E+03  0.00000000000E+00 0. -1.
         23    2    1    2    0    0  0.10947010438E+02  0.73501967768E+01 -0.30221006058E+03  0.31597012823E+03  0.91281645401E+02 0.  0.
         23    2    1    2    0    0 -0.34070523880E+02  0.26263118501E+02 -0.60357933785E+02  0.12282445946E+03  0.97939857463E+02 0.  0.
        -11    1    4    4    0    0 -0.32985317065E+02 -0.17156463626E+02  0.11449584714E+02  0.38903320889E+02  0.00000000000E+00 0.  1.
         11    1    4    4    0    0 -0.10852068152E+01  0.43419582128E+02 -0.71807518499E+02  0.83921138571E+02  0.00000000000E+00 0. -1.
        -11    1    3    3    0    0  0.44174920827E+02  0.28484137065E+02 -0.18497463016E+03  0.19229764299E+03  0.00000000000E+00 0.  1.
         11    1    3    3    0    0 -0.33227910388E+02 -0.21133940289E+02 -0.11723543042E+03  0.12367248525E+03  0.00000000000E+00 0. -1.
          1    1    1    2  501    0  0.23123513442E+02 -0.33613315278E+02  0.12597137923E+02  0.42699411257E+02  0.00000000000E+00 0. -1.
<scales pt_clust_5="13000.00000" pt_clust_6="13000.00000" pt_clust_7="13000.00000" pt_clust_8="13000.00000" pt_clust_9="40.79892"></scales>
<clustering>
<clus scale="   40.799">  1  9  2 -1</clus>
<clus scale="   91.282">  7  8 -1 -1</clus>
<clus scale="   92.534">  2  7  1 -1</clus>
<clus scale="   97.940">  5  6 -1 -1</clus>
<clus scale="   40.799">  1  5  2 -1</clus>
</clustering>
</event>
<event>
 9    1  0.1610296E-005  0.9341457E+02  0.7546771E-02  0.1295180E+00
         21   -1    0    0  501  502  0.00000000000E+00  0.00000000000E+00  0.75618498596E+03  0.75618498596E+03  0.00000000000E+00 0.  1.
         -3   -1    0    0    0  501 -0.00000000000E+00 -0.00000000000E+00 -0.33765373175E+02  0.33765373175E+02  0.00000000000E+00 0.  1.
         23    2    1    2    0    0  0.26037151705E+02  0.19419888207E+02  0.81647405720E+02  0.12709927402E+03  0.91830611828E+02 0.  0.
         23    2    1    2    0    0  0.36149337550E+02  0.25301145814E+01  0.29593212739E+03  0.31176186195E+03  0.91139774323E+02 0.  0.
        -11    1    4    4    0    0  0.48485176605E+02  0.32333361575E+02  0.12638871493E+03  0.13917746183E+03  0.00000000000E+00 0.  1.
         11    1    4    4    0    0 -0.12335839055E+02 -0.29803246993E+02  0.16954341246E+03  0.17258440012E+03  0.00000000000E+00 0. -1.
        -11    1    3    3    0    0 -0.34552886851E+02  0.51495361976E+01  0.33533800378E+02  0.48424533870E+02  0.00000000000E+00 0. -1.
         11    1    3    3    0    0  0.60590038555E+02  0.14270352009E+02  0.48113605342E+02  0.78674740149E+02  0.00000000000E+00 0.  1.
         -3    1    1    2    0  502 -0.62186489255E+02 -0.21950002788E+02  0.34484007968E+03  0.35108922316E+03  0.00000000000E+00 0.  1.
<scales pt_clust_5="13000.00000" pt_clust_6="13000.00000" pt_clust_7="13000.00000" pt_clust_8="13000.00000" pt_clust_9="65.94666"></scales>
<clustering>
<clus scale="   65.947">  1  9  2 -1</clus>
<clus scale="   91.140">  5  6 -1 -1</clus>
<clus scale="   91.831">  7  8 -1 -1</clus>
<clus scale="   92.736">  1  5  2 -1</clus>
<clus scale="   65.947">  1  5  2 -1</clus>
</clustering>
</event>
<event>
 9    1  0.1610296E-005  0.1944146E+03  0.7546771E-02  0.1154606E+00
         21   -1    0    0  501  502  0.00000000000E+00  0.00000000000E+00  0.69044953214E+02  0.69044953214E+02  0.00000000000E+00 0.  1.
         -4   -1    0    0    0  501 -0.00000000000E+00 -0.00000000000E+00 -0.11885070426E+04  0.11885070426E+04  0.00000000000E+00 0.  1.
         23    2    1    2    0    0 -0.88749434810E+02  0.10215789635E+03 -0.44791576294E+03  0.47671547046E+03  0.91194359057E+02 0.  0.
         23    2    1    2    0    0  0.14690071810E+03 -0.17704220709E+03 -0.63070115615E+03  0.67760106790E+03  0.91844949743E+02 0.  0.
        -11    1    4    4    0    0  0.55598635847E+02 -0.53506791572E+02 -0.10757927908E+03  0.13239141339E+03  0.00000000000E+00 0. -1.
         11    1    4    4    0    0  0.91302082250E+02 -0.12353541552E+03 -0.52312187706E+03  0.54520965451E+03  0.00000000000E+00 0.  1.
        -11    1    3    3    0    0 -0.11599845672E+02  0.80825003974E+02 -0.19404811885E+03  0.21052769442E+03  0.00000000000E+00 0. -1.
         11    1    3    3    0    0 -0.77149589139E+02  0.21332892375E+02 -0.25386764409E+03  0.26618777604E+03  0.00000000000E+00 0.  1.
         -4    1    1    2    0  502 -0.58151283287E+02  0.74884310741E+02 -0.40845170349E+02  0.10323545749E+03  0.00000000000E+00 0.  1.
<scales pt_clust_5="13000.00000" pt_clust_6="13000.00000" pt_clust_7="13000.00000" pt_clust_8="13000.00000" pt_clust_9="94.81156"></scales>
<clustering>
<clus scale="   91.194">  7  8 -1 -1</clus>
<clus scale="   91.845">  5  6 -1 -1</clus>
<clus scale="   94.812">  1  9  2 -1</clus>
<clus scale="  194.108">  2  7  1 -1</clus>
<clus scale="   94.812">  1  5  2 -1</clus>
</clustering>
</event>
<event>
 9    1  0.1610296E-005  0.1084191E+03  0.7546771E-02  0.1264799E+00
         21   -1    0    0  501  502  0.00000000000E+00  0.00000000000E+00  0.17207366367E+03  0.17207366367E+03  0.00000000000E+00 0. -1.
          3   -1    0    0  502    0 -0.00000000000E+00 -0.00000000000E+00 -0.41546112496E+03  0.41546112496E+03  0.00000000000E+00 0. -1.
         23    2    1    2    0    0 -0.18716257822E+02  0.76049385270E+01 -0.36960398657E+03  0.38452132435E+03  0.10412208507E+03 0.  0.
         23    2    1    2    0    0  0.38382263925E+01  0.64090460157E+01  0.39846033947E+02  0.11425756670E+03  0.10682358014E+03 0.  0.
        -13    1    4    4    0    0  0.33625128635E+01  0.55506033094E+02  0.33055990266E+02  0.64690993925E+02  0.00000000000E+00 0.  1.
         13    1    4    4    0    0  0.47571352904E+00 -0.49096987078E+02  0.67900436812E+01  0.49566572776E+02  0.00000000000E+00 0. -1.
        -13    1    3    3    0    0 -0.22019758776E+02  0.45966539805E+02 -0.30565570387E+03  0.30987610728E+03  0.00000000000E+00 0.  1.
         13    1    3    3    0    0  0.33035009536E+01 -0.38361601278E+02 -0.63948282703E+02  0.74645217073E+02  0.00000000000E+00 0. -1.
          3    1    1    2  501    0  0.14878031430E+02 -0.14013984543E+02  0.86370491329E+02  0.88755897576E+02  0.00000000000E+00 0. -1.
<scales pt_clust_5="13000.00000" pt_clust_6="13000.00000" pt_clust_7="13000.00000" pt_clust_8="13000.00000" pt_clust_9="20.43887"></scales>
<clustering>
<clus scale="   20.439">  1  9  2 -1</clus>
<clus scale="  104.122">  7  8 -1 -1</clus>
<clus scale="  105.758">  2  7  1 -1</clus>
<clus scale="  106.824">  5  6 -1 -1</clus>
<clus scale="   20.439">  1  5  2 -1</clus>
</clustering>
</event>
<event>
 9    1  0.1610296E-005  0.9834545E+02  0.7546771E-02  0.1285466E+00
          1   -1    0    0  502    0 -0.00000000000E+00  0.00000000000E+00  0.51287185832E+03  0.51287185832E+03  0.00000000000E+00 0. -1.
         21   -1    0    0  501  502  0.00000000000E+00 -0.00000000000E+00 -0.54712755571E+02  0.54712755571E+02  0.00000000000E+00 0.  1.
         23    2    1    2    0    0  0.96001496078E+01 -0.36081772852E+02  0.43944429913E+03  0.45054627695E+03  0.92122735697E+02 0.  0.
         23    2    1    2    0    0 -0.98782274063E+01  0.14382739083E+02  0.25835724509E+02  0.94199052622E+02  0.88890574831E+02 0.  0.
        -11    1    3    3    0    0 -0.39979530074E+02 -0.69742702179E+01  0.21897754215E+03  0.22270645980E+03  0.00000000000E+00 0.  1.
         11    1    3    3    0    0  0.49579679681E+02 -0.29107502634E+02  0.22046675698E+03  0.22783981715E+03  0.00000000000E+00 0. -1.
        -11    1    4    4    0    0  0.20126893410E+02  0.36252453940E+02 -0.99387712206E+01  0.42639317869E+02  0.00000000000E+00 0.  1.
         11    1    4    4    0    0 -0.30005120816E+02 -0.21869714856E+02  0.35774495729E+02  0.51559734753E+02  0.00000000000E+00 0. -1.
          1    1    1    2  501    0  0.27807779850E+00  0.21699033769E+02 -0.71209208911E+01  0.22839284317E+02  0.00000000000E+00 0. -1.
<scales pt_clust_5="13000.00000" pt_clust_6="13000.00000" pt_clust_7="13000.00000" pt_clust_8="13000.00000" pt_clust_9="21.70082"></scales>
<clustering>
<clus scale="   21.701">  2  9  1 -1</clus>
<clus scale="   88.891">  7  8 -1 -1</clus>
<clus scale="   92.123">  5  6 -1 -1</clus>
<clus scale="   95.325">  2  7  1 -1</clus>
<clus scale="   21.701">  2  5  1 -1</clus>
</clustering>
</event>
<event>
 9    1  0.1610296E-005  0.1043570E+03  0.7546771E-02  0.1271911E+00
         21   -1    0    0  501  502  0.00000000000E+00  0.00000000000E+00  0.80456233834E+02  0.80456233834E+02  0.00000000000E+00 0.  1.
         -4   -1    0    0    0  501 -0.00000000000E+00 -0.00000000000E+00 -0.41755513996E+03  0.41755513996E+03  0.00000000000E+00 0.  1.
         23    2    1    2    0    0 -0.33523455310E+02 -0.42023800578E+02 -0.30911057664E+03  0.32670345128E+03  0.91082240942E+02 0.  0.
         23    2    1    2    0    0  0.34087219920E+02  0.15457720411E+02 -0.69922345725E+02  0.12166382756E+03  0.92260895421E+02 0.  0.
        -13    1    4    4    0    0 -0.31873744387E+02  0.96259750304E+01 -0.25225241327E+02  0.41772093274E+02  0.00000000000E+00 0.  1.
         13    1    4    4    0    0  0.65960964306E+02  0.58317453809E+01 -0.44697104398E+02  0.79891734290E+02  0.00000000000E+00 0. -1.
        -13    1    3    3    0    0 -0.59514422452E+02 -0.69649409719E+01 -0.21059812761E+03  0.21895672685E+03  0.00000000000E+00 0.  1.
         13    1    3    3    0    0  0.25990967142E+02 -0.35058859606E+02 -0.98512449037E+02  0.10774672443E+03  0.00000000000E+00 0. -1.
         -4    1    1    2    0  502 -0.56376460938E+00  0.26566080166E+02  0.41934016238E+02  0.49644094954E+02  0.00000000000E+00 0.  1.
<scales pt_clust_5="13000.00000" pt_clust_6="13000.00000" pt_clust_7="13000.00000" pt_clust_8="13000.00000" pt_clust_9="26.57206"></scales>
<clustering>
<clus scale="   26.572">  1  9  2 -1</clus>
<clus scale="   91.082">  7  8 -1 -1</clus>
<clus scale="   92.261">  5  6 -1 -1</clus>
<clus scale="  103.316">  2  7  1 -1</clus>
<clus scale="   26.572">  1  5  2 -1</clus>
</clustering>
</event>
<event>
 9    1  0.1610296E-005  0.1832459E+03  0.7546771E-02  0.1164808E+00
         21   -1    0    0  501  502  0.00000000000E+00  0.00000000000E+00  0.14039351885E+03  0.14039351885E+03  0.00000000000E+00 0.  1.
          2   -1    0    0  502    0 -0.00000000000E+00 -0.00000000000E+00 -0.81639599629E+03  0.81639599629E+03  0.00000000000E+00 0.  1.
         23    2    1    2    0    0 -0.94920218470E+02 -0.14320743953E+03 -0.70822102260E+03  0.73436760920E+03  0.90556888105E+02 0.  0.
         23    2    1    2    0    0  0.57461664901E+02  0.80237819780E+02 -0.14765825927E+02  0.13538256212E+03  0.91490206326E+02 0.  0.
        -11    1    4    4    0    0  0.23076215850E+02  0.37874772230E+02  0.38795631064E+02  0.58924622181E+02  0.00000000000E+00 0.  1.
         11    1    4    4    0    0  0.34385449051E+02  0.42363047549E+02 -0.53561456991E+02  0.76457939935E+02  0.00000000000E+00 0. -1.
        -13    1    3    3    0    0 -0.90306965604E+02 -0.98925920997E+02 -0.63250289802E+03  0.64653043384E+03  0.00000000000E+00 0.  1.
         13    1    3    3    0    0 -0.46132528664E+01 -0.44281518529E+02 -0.75718124582E+02  0.87837175362E+02  0.00000000000E+00 0. -1.
          2    1    1    2  501    0  0.37458553569E+02  0.62969619746E+02  0.46984371084E+02  0.87039343820E+02  0.00000000000E+00 0.  1.
<scales pt_clust_5="13000.00000" pt_clust_6="13000.00000" pt_clust_7="13000.00000" pt_clust_8="13000.00000" pt_clust_9="73.26879"></scales>
<clustering>
<clus scale="   73.269">  1  9  2 -1</clus>
<clus scale="   90.557">  7  8 -1 -1</clus>
<clus scale="   91.490">  5  6 -1 -1</clus>
<clus scale="  182.782">  2  7  1 -1</clus>
<clus scale="   73.269">  1  5  2 -1</clus>
</clustering>
</event>
<event>
 9    1  0.1610296E-005  0.1127209E+03  0.7546771E-02  0.1256169E+00
          1   -1    0    0  502    0 -0.00000000000E+00  0.00000000000E+00  0.61638392008E+03  0.61638392008E+03  0.00000000000E+00 0. -1.
         21   -1    0    0  501  502  0.00000000000E+00 -0.00000000000E+00 -0.28980452736E+02  0.28980452736E+02  0.00000000000E+00 0. -1.
         23    2    1    2    0    0 -0.55907851544E+02  0.24593801616E+01  0.31840170067E+03  0.33582528937E+03  0.90924394804E+02 0.  0.
         23    2    1    2    0    0  0.78095338071E+02  0.74732680002E+01  0.25267419812E+03  0.28025544377E+03  0.92434473039E+02 0.  0.
        -13    1    3    3    0    0 -0.59135698106E+02  0.38480999040E+02  0.20576811830E+03  0.21752778348E+03  0.00000000000E+00 0.  1.
         13    1    3    3    0    0  0.32278465627E+01 -0.36021618878E+02  0.11263358238E+03  0.11829750589E+03  0.00000000000E+00 0. -1.
        -13    1    4    4    0    0  0.98798599904E+02  0.13298877762E+02  0.20496142021E+03  0.22791929990E+03  0.00000000000E+00 0. -1.
         13    1    4    4    0    0 -0.20703261833E+02 -0.58256097621E+01  0.47712777902E+02  0.52336143866E+02  0.00000000000E+00 0.  1.
          1    1    1    2  501    0 -0.22187486527E+02 -0.99326481617E+01  0.16327568549E+02  0.29283639675E+02  0.00000000000E+00 0. -1.
<scales pt_clust_5="13000.00000" pt_clust_6="13000.00000" pt_clust_7="13000.00000" pt_clust_8="13000.00000" pt_clust_9="24.30930"></scales>
<clustering>
<clus scale="   24.309">  2  9  1 -1</clus>
<clus scale="   90.924">  5  6 -1 -1</clus>
<clus scale="   92.434">  7  8 -1 -1</clus>
<clus scale="  111.486">  1  5  2 -1</clus>
<clus scale="   24.309">  2  5  1 -1</clus>
</clustering>
</event>
<event>
 9    1  0.1610296E-005  0.2532842E+03  0.7546771E-02  0.1111645E+00
         21   -1    0    0  501  502  0.00000000000E+00  0.00000000000E+00  0.14426768107E+03  0.14426768107E+03  0.00000000000E+00 0.  1.
          1   -1    0    0  502    0 -0.00000000000E+00 -0.00000000000E+00 -0.67406638222E+03  0.67406638222E+03  0.00000000000E+00 0. -1.
         23    2    1    2    0    0  0.17741512486E+03 -0.14758947463E+03 -0.41914297702E+03  0.48619409225E+03  0.86284880523E+02 0.  0.
         23    2    1    2    0    0 -0.18144151097E+03  0.17308111871E+03 -0.58457725896E+02  0.27391053928E+03  0.93442935821E+02 0.  0.
        -11    1    4    4    0    0 -0.14662729618E+03  0.90908058792E+02 -0.11097130756E+02  0.17287852802E+03  0.00000000000E+00 0.  1.
         11    1    4    4    0    0 -0.34814214788E+02  0.82173059913E+02 -0.47360595140E+02  0.10103201126E+03  0.00000000000E+00 0. -1.
        -13    1    3    3    0    0  0.14783341497E+03 -0.73358468994E+02 -0.30617965731E+03  0.34782490725E+03  0.00000000000E+00 0. -1.
         13    1    3    3    0    0  0.29581709888E+02 -0.74231005639E+02 -0.11296331971E+03  0.13836918500E+03  0.00000000000E+00 0.  1.
          1    1    1    2  501    0  0.40263861124E+01 -0.25491644072E+02 -0.52197998237E+02  0.58229431756E+02  0.00000000000E+00 0. -1.
<scales pt_clust_5="13000.00000" pt_clust_6="13000.00000" pt_clust_7="13000.00000" pt_clust_8="13000.00000" pt_clust_9="25.80768"></scales>
<clustering>
<clus scale="   25.808">  1  9  2 -1</clus>
<clus scale="   86.285">  7  8 -1 -1</clus>
<clus scale="   93.443">  5  6 -1 -1</clus>
<clus scale="  250.732">  2  7  1 -1</clus>
<clus scale="   25.808">  1  5  2 -1</clus>
</clustering>
</event>
<event>
 9    1  0.1610296E-005  0.9674989E+02  0.7546771E-02  0.1287310E+00
         21   -1    0    0  501  502  0.00000000000E+00  0.00000000000E+00  0.80166279191E+02  0.80166279191E+02  0.00000000000E+00 0.  1.
         -3   -1    0    0    0  501 -0.00000000000E+00 -0.00000000000E+00 -0.27761320345E+03  0.27761320345E+03  0.00000000000E+00 0.  1.
         23    2    1    2    0    0 -0.28365578663E+02  0.29941883242E+02 -0.21107251758E+03  0.23295836570E+03  0.89536975850E+02 0.  0.
         23    2    1    2    0    0  0.19293621374E+02  0.23628406275E+00  0.17080630925E+02  0.93120021126E+02  0.89483466215E+02 0.  0.
        -11    1    3    3    0    0 -0.29528253423E+02 -0.25224220746E+02 -0.12340517106E+03  0.12937161708E+03  0.00000000000E+00 0.  1.
         11    1    3    3    0    0  0.11626747608E+01  0.55166103988E+02 -0.87667346523E+02  0.10358674861E+03  0.00000000000E+00 0. -1.
        -11    1    4    4    0    0  0.53930255175E+02  0.45880274013E+01 -0.29492779012E+00  0.54125866284E+02  0.00000000000E+00 0.  1.
         11    1    4    4    0    0 -0.34636633801E+02 -0.43517433386E+01  0.17375558715E+02  0.38994154842E+02  0.00000000000E+00 0. -1.
         -3    1    1    2    0  502  0.90719572888E+01 -0.30178167305E+02 -0.34550375961E+01  0.31701095813E+02  0.00000000000E+00 0.  1.
<scales pt_clust_5="13000.00000" pt_clust_6="13000.00000" pt_clust_7="13000.00000" pt_clust_8="13000.00000" pt_clust_9="31.51225"></scales>
<clustering>
<clus scale="   31.512">  1  9  2 -1</clus>
<clus scale="   89.483">  7  8 -1 -1</clus>
<clus scale="   89.537">  5  6 -1 -1</clus>
<clus scale="   96.700">  1  7  2 -1</clus>
<clus scale="   31.512">  1  5  2 -1</clus>
</clustering>
</event>
<event>
 9    1  0.1610296E-005  0.1311071E+03  0.7546771E-02  0.1225924E+00
         -3   -1    0    0    0  501 -0.00000000000E+00  0.00000000000E+00  0.10148569555E+04  0.10148569555E+04  0.00000000000E+00 0.  1.
         21   -1    0    0  501  502  0.00000000000E+00 -0.00000000000E+00 -0.21435974227E+02  0.21435974227E+02  0.00000000000E+00 0.  1.
         23    2    1    2    0    0  0.34335265335E+02  0.80384529588E+02  0.53448959756E+03  0.54963174048E+03  0.93676769785E+02 0.  0.
         23    2    1    2    0    0 -0.20010234786E+02 -0.95722849764E+02  0.43012913807E+03  0.45102356980E+03  0.94063338436E+02 0.  0.
        -13    1    3    3    0    0 -0.32570916060E+02  0.24383826890E+02  0.18412477864E+03  0.18856661872E+03  0.00000000000E+00 0. -1.
         13    1    3    3    0    0  0.66906181395E+02  0.56000702698E+02  0.35036481892E+03  0.36106512176E+03  0.00000000000E+00 0.  1.
        -13    1    4    4    0    0 -0.54469431599E+02 -0.61602008356E+02  0.32512155830E+03  0.33535914194E+03  0.00000000000E+00 0. -1.
         13    1    4    4    0    0  0.34459196813E+02 -0.34120841408E+02  0.10500757977E+03  0.11566442786E+03  0.00000000000E+00 0.  1.
         -3    1    1    2    0  502 -0.14325030549E+02  0.15338320176E+02  0.28802245662E+02  0.35637619466E+02  0.00000000000E+00 0.  1.
<scales pt_clust_5="13000.00000" pt_clust_6="13000.00000" pt_clust_7="13000.00000" pt_clust_8="13000.00000" pt_clust_9="20.98739"></scales>
<clustering>
<clus scale="   20.987">  2  9  1 -1</clus>
<clus scale="   93.677">  5  6 -1 -1</clus>
<clus scale="   94.063">  7  8 -1 -1</clus>
<clus scale="  130.830">  1  5  2 -1</clus>
<clus scale="   20.987">  2  5  1 -1</clus>
</clustering>
</event>
<event>
 9    1  0.1610296E-005  0.1118661E+03  0.7546771E-02  0.1257841E+00
         21   -1    0    0  501  502  0.00000000000E+00  0.00000000000E+00  0.24772814189E+03  0.24772814189E+03  0.00000000000E+00 0.  1.
         -1   -1    0    0    0  501 -0.00000000000E+00 -0.00000000000E+00 -0.15525947659E+03  0.15525947659E+03  0.00000000000E+00 0.  1.
         23    2    1    2    0    0  0.46548151208E+02 -0.38343269856E+02 -0.50462218948E+02  0.12144102051E+03  0.92544849650E+02 0.  0.
         23    2    1    2    0    0 -0.37322170203E+02  0.56621267409E+02 -0.21976831822E+02  0.11537271693E+03  0.90713672420E+02 0.  0.
        -11    1    3    3    0    0  0.16109419169E+02  0.22312836754E+02 -0.45779144764E+02  0.53414475241E+02  0.00000000000E+00 0.  1.
         11    1    3    3    0    0  0.30438732039E+02 -0.60656106610E+02 -0.46830741844E+01  0.68026545267E+02  0.00000000000E+00 0. -1.
        -11    1    4    4    0    0 -0.26058498691E+02 -0.21368863667E+02 -0.51776051912E+00  0.33703735170E+02  0.00000000000E+00 0. -1.
         11    1    4    4    0    0 -0.11263671512E+02  0.77990131076E+02 -0.21459071303E+02  0.81668981764E+02  0.00000000000E+00 0.  1.
         -1    1    1    2    0  502 -0.92259810046E+01 -0.18277997553E+02  0.16490771607E+03  0.16617388104E+03  0.00000000000E+00 0.  1.
<scales pt_clust_5="13000.00000" pt_clust_6="13000.00000" pt_clust_7="13000.00000" pt_clust_8="13000.00000" pt_clust_9="20.47447"></scales>
<clustering>
<clus scale="   20.474">  1  9  2 -1</clus>
<clus scale="   90.714">  7  8 -1 -1</clus>
<clus scale="   92.545">  5  6 -1 -1</clus>
<clus scale="  110.356">  1  7  2 -1</clus>
<clus scale="   20.474">  1  5  2 -1</clus>
</clustering>
</event>
<event>
 9    1  0.1610296E-005  0.1198186E+03  0.7546771E-02  0.1243492E+00
         21   -1    0    0  501  502  0.00000000000E+00  0.00000000000E+00  0.50963989295E+03  0.50963989295E+03  0.00000000000E+00 0.  1.
         -2   -1    0    0    0  501 -0.00000000000E+00 -0.00000000000E+00 -0.10906112825E+03  0.10906112825E+03  0.00000000000E+00 0.  1.
         23    2    1    2    0    0 -0.77902121861E+02  0.17423186044E+02 -0.62721326153E+02  0.13616450014E+03  0.90744136677E+02 0.  0.
         23    2    1    2    0    0  0.57824917404E+02 -0.17150532315E+02  0.32676489891E+03  0.34453279967E+03  0.91047729554E+02 0.  0.
        -11    1    3    3    0    0 -0.62199327311E+02 -0.14329531029E+02 -0.75173603059E+02  0.98616237884E+02  0.00000000000E+00 0.  1.
         11    1    3    3    0    0 -0.15702794550E+02  0.31752717074E+02  0.12452276906E+02  0.37548262255E+02  0.00000000000E+00 0. -1.
        -11    1    4    4    0    0  0.77155610315E+02 -0.30396550100E+02  0.21725918417E+03  0.23254782640E+03  0.00000000000E+00 0. -1.
         11    1    4    4    0    0 -0.19330692911E+02  0.13246017785E+02  0.10950571475E+03  0.11198497327E+03  0.00000000000E+00 0.  1.
         -2    1    1    2    0  502  0.20077204457E+02 -0.27265372944E+00  0.13653519194E+03  0.13800372139E+03  0.00000000000E+00 0.  1.
<scales pt_clust_5="13000.00000" pt_clust_6="13000.00000" pt_clust_7="13000.00000" pt_clust_8="13000.00000" pt_clust_9="20.07906"></scales>
<clustering>
<clus scale="   20.079">  1  9  2 -1</clus>
<clus scale="   90.744">  5  6 -1 -1</clus>
<clus scale="   91.048">  7  8 -1 -1</clus>
<clus scale="  119.588">  2  5  1 -1</clus>
<clus scale="   20.079">  1  5  2 -1</clus>
</clustering>
</event>
<event>
 9    1  0.1610296E-005  0.1662581E+03  0.7546771E-02  0.1182182E+00
          3   -1    0    0  502    0 -0.00000000000E+00  0.00000000000E+00  0.10299442684E+04  0.10299442684E+04  0.00000000000E+00 0. -1.
         21   -1    0    0  501  502  0.00000000000E+00 -0.00000000000E+00 -0.92301996730E+02  0.92301996730E+02  0.00000000000E+00 0. -1.
         23    2    1    2    0    0  0.12138591058E+03  0.13090881392E+02  0.48220080646E+03  0.50567128156E+03  0.90994048033E+02 0.  0.
         23    2    1    2    0    0 -0.16493886004E+03  0.26331428343E+02  0.50532338798E+03  0.53950888118E+03  0.88430395036E+02 0.  0.
        -11    1    4    4    0    0 -0.10808043575E+03  0.28691061553E+02  0.20193590548E+03  0.23083038692E+03  0.00000000000E+00 0.  1.
         11    1    4    4    0    0 -0.56858424292E+02 -0.23596332103E+01  0.30338748250E+03  0.30867849426E+03  0.00000000000E+00 0. -1.
        -13    1    3    3    0    0  0.77392399430E+02 -0.24778955583E+02  0.37560361565E+03  0.38429371088E+03  0.00000000000E+00 0.  1.
         13    1    3    3    0    0  0.43993511151E+02  0.37869836975E+02  0.10659719081E+03  0.12137757068E+03  0.00000000000E+00 0. -1.
          3    1    1    2  501    0  0.43552949456E+02 -0.39422309735E+02 -0.49881922799E+02  0.77066102362E+02  0.00000000000E+00 0. -1.
<scales pt_clust_5="13000.00000" pt_clust_6="13000.00000" pt_clust_7="13000.00000" pt_clust_8="13000.00000" pt_clust_9="58.74502"></scales>
<clustering>
<clus scale="   58.745">  2  9  1 -1</clus>
<clus scale="   88.430">  5  6 -1 -1</clus>
<clus scale="   90.994">  7  8 -1 -1</clus>
<clus scale="  164.869">  2  5  1 -1</clus>
<clus scale="   58.745">  2  5  1 -1</clus>
</clustering>
</event>
<event>
 9    1  0.1610296E-005  0.1048443E+03  0.7546771E-02  0.1274701E+00
          1   -1    0    0  502    0 -0.00000000000E+00  0.00000000000E+00  0.97034204603E+02  0.97034204603E+02  0.00000000000E+00 0. -1.
         21   -1    0    0  501  502  0.00000000000E+00 -0.00000000000E+00 -0.19063117363E+03  0.19063117363E+03  0.00000000000E+00 0. -1.
         23    2    1    2    0    0  0.30999190925E+02  0.23446663283E+02  0.33440228386E+02  0.11169262840E+03  0.99228516599E+02 0.  0.
         23    2    1    2    0    0 -0.75144417648E+01 -0.23366317588E+02 -0.79233564164E+02  0.12271181434E+03  0.90431079033E+02 0.  0.
        -11    1    3    3    0    0  0.61165708168E+02  0.38086621003E+02  0.29766281815E+02  0.77960670137E+02  0.00000000000E+00 0. -1.
         11    1    3    3    0    0 -0.30166517243E+02 -0.14639957720E+02  0.36739465712E+01  0.33731958259E+02  0.00000000000E+00 0.  1.
        -13    1    4    4    0    0  0.34921327389E+02  0.12340155312E+02 -0.22307905407E+02  0.43236803575E+02  0.00000000000E+00 0. -1.
         13    1    4    4    0    0 -0.42435769154E+02 -0.35706472901E+02 -0.56925658757E+02  0.79475010762E+02  0.00000000000E+00 0.  1.
          1    1    1    2  501    0 -0.23484749160E+02 -0.80345694683E-01 -0.47803633246E+02  0.53260935498E+02  0.00000000000E+00 0. -1.
<scales pt_clust_5="13000.00000" pt_clust_6="13000.00000" pt_clust_7="13000.00000" pt_clust_8="13000.00000" pt_clust_9="23.48489"></scales>
<clustering>
<clus scale="   23.485">  2  9  1 -1</clus>
<clus scale="   90.431">  7  8 -1 -1</clus>
<clus scale="   96.560">  2  7  1 -1</clus>
<clus scale="   99.229">  5  6 -1 -1</clus>
<clus scale="   23.485">  2  5  1 -1</clus>
</clustering>
</event>
<event>
 9    1  0.1610296E-005  0.1078585E+03  0.7546771E-02  0.1269872E+00
          2   -1    0    0  502    0 -0.00000000000E+00  0.00000000000E+00  0.62196774308E+03  0.62196774308E+03  0.00000000000E+00 0.  1.
         21   -1    0    0  501  502  0.00000000000E+00 -0.00000000000E+00 -0.30993373420E+02  0.30993373420E+02  0.00000000000E+00 0. -1.
         23    2    1    2    0    0 -0.34558475279E+02 -0.16950161047E+02  0.43804526092E+03  0.44914174696E+03  0.91449778994E+02 0.  0.
         23    2    1    2    0    0  0.50217310947E+01  0.21271961983E+02  0.11811304622E+03  0.15795810669E+03  0.10257854372E+03 0.  0.
        -13    1    4    4    0    0 -0.43439203817E+02  0.33530150163E+02  0.63319539022E+02  0.83789017300E+02  0.00000000000E+00 0.  1.
         13    1    4    4    0    0  0.48460934912E+02 -0.12258188181E+02  0.54793507197E+02  0.74169089390E+02  0.00000000000E+00 0. -1.
        -13    1    3    3    0    0  0.13873173689E+02  0.27021391623E+02  0.89578116024E+02  0.94587839725E+02  0.00000000000E+00 0. -1.
         13    1    3    3    0    0 -0.48431648969E+02 -0.43971552670E+02  0.34846714490E+03  0.35455390724E+03  0.00000000000E+00 0.  1.
          2    1    1    2  501    0  0.29536744185E+02 -0.43218009359E+01  0.34816062521E+02  0.45861262846E+02  0.00000000000E+00 0.  1.
<scales pt_clust_5="13000.00000" pt_clust_6="13000.00000" pt_clust_7="13000.00000" pt_clust_8="13000.00000" pt_clust_9="29.85125"></scales>
<clustering>
<clus scale="   29.851">  2  9  1 -1</clus>
<clus scale="   91.450">  7  8 -1 -1</clus>
<clus scale="   97.335">  1  7  2 -1</clus>
<clus scale="  102.579">  5  6 -1 -1</clus>
<clus scale="   29.851">  2  5  1 -1</clus>
</clustering>
</event>
<event>
 9    1  0.1610296E-005  0.1278769E+03  0.7546771E-02  0.1233817E+00
          1   -1    0    0  502    0 -0.00000000000E+00  0.00000000000E+00  0.36135477627E+03  0.36135477627E+03  0.00000000000E+00 0. -1.
         21   -1    0    0  501  502  0.00000000000E+00 -0.00000000000E+00 -0.84344735497E+02  0.84344735497E+02  0.00000000000E+00 0. -1.
         23    2    1    2    0    0  0.22180270539E+02 -0.44162495535E+02  0.68148710400E+02  0.12644571157E+03  0.94350309126E+02 0.  0.
         23    2    1    2    0    0 -0.97200738498E+02  0.77260527604E+02  0.17617211157E+03  0.23098072749E+03  0.83056070744E+02 0.  0.
        -13    1    3    3    0    0  0.46088877405E+02 -0.19981191452E+02  0.76417281482E+02  0.91449622971E+02  0.00000000000E+00 0.  1.
         13    1    3    3    0    0 -0.23908606867E+02 -0.24181304083E+02 -0.82685710829E+01  0.34996088599E+02  0.00000000000E+00 0. -1.
        -13    1    4    4    0    0 -0.16393367538E+02 -0.16360952321E+02  0.14109125501E+02  0.27119931461E+02  0.00000000000E+00 0.  1.
         13    1    4    4    0    0 -0.80807370960E+02  0.93621479924E+02  0.16206298607E+03  0.20386079603E+03  0.00000000000E+00 0. -1.
          1    1    1    2  501    0  0.75020467959E+02 -0.33098032068E+02  0.32689218810E+02  0.88273072712E+02  0.00000000000E+00 0. -1.
<scales pt_clust_5="13000.00000" pt_clust_6="13000.00000" pt_clust_7="13000.00000" pt_clust_8="13000.00000" pt_clust_9="81.99726"></scales>
<clustering>
<clus scale="   81.997">  2  9  1 -1</clus>
<clus scale="   83.056">  7  8 -1 -1</clus>
<clus scale="   94.350">  5  6 -1 -1</clus>
<clus scale="  119.787">  2  7  1 -1</clus>
<clus scale="   81.997">  2  5  1 -1</clus>
</clustering>
</event>
<event>
 9    1  0.1610296E-005  0.1003815E+03  0.7546771E-02  0.1279994E+00
         21   -1    0    0  501  502  0.00000000000E+00  0.00000000000E+00  0.98806314963E+02  0.98806314963E+02  0.00000000000E+00 0.  1.
          1   -1    0    0  502    0 -0.00000000000E+00 -0.00000000000E+00 -0.20686002252E+03  0.20686002252E+03  0.00000000000E+00 0. -1.
         23    2    1    2    0    0 -0.33183063903E+02 -0.32981789842E+02 -0.13490969515E+03  0.16965230178E+03  0.91609843693E+02 0.  0.
         23    2    1    2    0    0  0.21870117993E+02  0.15901358355E+02 -0.87610233599E+01  0.94925164290E+02  0.90569730189E+02 0.  0.
        -11    1    4    4    0    0  0.54140592327E+02 -0.62802823881E+01  0.12093061833E+01  0.54517044178E+02  0.00000000000E+00 0.  1.
         11    1    4    4    0    0 -0.32270474334E+02  0.22181640743E+02 -0.99703295432E+01  0.40408120112E+02  0.00000000000E+00 0. -1.
        -11    1    3    3    0    0 -0.58139917599E+02 -0.34676166116E+02 -0.12611828180E+03  0.14313807152E+03  0.00000000000E+00 0. -1.
         11    1    3    3    0    0  0.24956853695E+02  0.16943762738E+01 -0.87914133522E+01  0.26514230256E+02  0.00000000000E+00 0.  1.
          1    1    1    2  501    0  0.11312945910E+02  0.17080431487E+02  0.35617010954E+02  0.41088871416E+02  0.00000000000E+00 0. -1.
<scales pt_clust_5="13000.00000" pt_clust_6="13000.00000" pt_clust_7="13000.00000" pt_clust_8="13000.00000" pt_clust_9="20.48716"></scales>
<clustering>
<clus scale="   20.487">  1  9  2 -1</clus>
<clus scale="   90.570">  5  6 -1 -1</clus>
<clus scale="   91.610">  7  8 -1 -1</clus>
<clus scale="   99.433">  1  5  2 -1</clus>
<clus scale="   20.487">  1  5  2 -1</clus>
</clustering>
</event>
<event>
 9    1  0.1610296E-005  0.1285602E+03  0.7546771E-02  0.1233401E+00
          2   -1    0    0  502    0 -0.00000000000E+00  0.00000000000E+00  0.25025110703E+03  0.25025110703E+03  0.00000000000E+00 0. -1.
         21   -1    0    0  501  502  0.00000000000E+00 -0.00000000000E+00 -0.15865748649E+03  0.15865748649E+03  0.00000000000E+00 0. -1.
         23    2    1    2    0    0 -0.60926895445E+02 -0.93181919497E+01  0.81420143375E+02  0.14326362670E+03  0.10048040454E+03 0.  0.
         23    2    1    2    0    0  0.10052010449E+03  0.21385891342E+01  0.10029116228E+03  0.16695167390E+03  0.87781998257E+02 0.  0.
        -11    1    4    4    0    0  0.32434467074E+02 -0.12564025988E+02  0.90067297323E+02  0.96550336356E+02  0.00000000000E+00 0.  1.
         11    1    4    4    0    0  0.68085637416E+02  0.14702615122E+02  0.10223864954E+02  0.70401337547E+02  0.00000000000E+00 0. -1.
        -11    1    3    3    0    0  0.11390552455E+02  0.18459667026E+02 -0.96159941631E+01  0.23727017000E+02  0.00000000000E+00 0.  1.
         11    1    3    3    0    0 -0.72317447901E+02 -0.27777858976E+02  0.91036137538E+02  0.11953660970E+03  0.00000000000E+00 0. -1.
          2    1    1    2  501    0 -0.39593209045E+02  0.71796028155E+01 -0.90117685103E+02  0.98693292920E+02  0.00000000000E+00 0. -1.
<scales pt_clust_5="13000.00000" pt_clust_6="13000.00000" pt_clust_7="13000.00000" pt_clust_8="13000.00000" pt_clust_9="40.23890"></scales>
<clustering>
<clus scale="   40.239">  2  9  1 -1</clus>
<clus scale="   87.782">  5  6 -1 -1</clus>
<clus scale="  100.480">  7  8 -1 -1</clus>
<clus scale="  118.899">  2  5  1 -1</clus>
<clus scale="   40.239">  2  5  1 -1</clus>
</clustering>
</event>
<event>
 9    1  0.1610296E-005  0.9972284E+02  0.7546771E-02  0.1281711E+00
          2   -1    0    0  502    0 -0.00000000000E+00  0.00000000000E+00  0.22274678557E+03  0.22274678557E+03  0.00000000000E+00 0. -1.
         21   -1    0    0  501  502  0.00000000000E+00 -0.00000000000E+00 -0.12700852234E+03  0.12700852234E+03  0.00000000000E+00 0.  1.
         23    2    1    2    0    0 -0.27359425654E+02  0.60508769655E+01  0.12078459880E+03  0.15516338121E+03  0.93282389960E+02 0.  0.
         23    2    1    2    0    0  0.39874622831E+02 -0.35340788624E+02  0.46912839812E+02  0.11589852159E+03  0.91611658004E+02 0.  0.
        -11    1    3    3    0    0  0.32313648510E+02  0.10723066234E+02  0.64832104633E+02  0.73228121789E+02  0.00000000000E+00 0.  1.
         11    1    3    3    0    0 -0.59673074164E+02 -0.46721892682E+01  0.55952494169E+02  0.81935259421E+02  0.00000000000E+00 0. -1.
        -11    1    4    4    0    0  0.69060731163E+02 -0.22615569336E+02  0.41245091329E+02  0.83558399481E+02  0.00000000000E+00 0.  1.
         11    1    4    4    0    0 -0.29186108331E+02 -0.12725219289E+02  0.56677484829E+01  0.32340122114E+02  0.00000000000E+00 0. -1.
          2    1    1    2  501    0 -0.12515197177E+02  0.29289911659E+02 -0.71959175384E+02  0.78693405107E+02  0.00000000000E+00 0. -1.
<scales pt_clust_5="13000.00000" pt_clust_6="13000.00000" pt_clust_7="13000.00000" pt_clust_8="13000.00000" pt_clust_9="31.85167"></scales>
<clustering>
<clus scale="   31.852">  2  9  1 -1</clus>
<clus scale="   91.612">  7  8 -1 -1</clus>
<clus scale="   93.282">  5  6 -1 -1</clus>
<clus scale="   98.162">  2  7  1 -1</clus>
<clus scale="   31.852">  2  5  1 -1</clus>
</clustering>
</event>
<event>
 9    1  0.1610296E-005  0.1130169E+03  0.7546771E-02  0.1258103E+00
         21   -1    0    0  501  502  0.00000000000E+00  0.00000000000E+00  0.86858527753E+03  0.86858527753E+03  0.00000000000E+00 0.  1.
          1   -1    0    0  502    0 -0.00000000000E+00 -0.00000000000E+00 -0.29155216358E+02  0.29155216358E+02  0.00000000000E+00 0. -1.
         23    2    1    2    0    0 -0.89903927899E+01 -0.46220656736E+02  0.13474546177E+03  0.16902812532E+03  0.90537237689E+02 0.  0.
         23    2    1    2    0    0 -0.14759320984E+02  0.80410891434E+02  0.36962349926E+03  0.39107504558E+03  0.98155035780E+02 0.  0.
        -11    1    3    3    0    0 -0.38633321313E+02 -0.54546350801E+02  0.11315543345E+03  0.13142294328E+03  0.00000000000E+00 0. -1.
         11    1    3    3    0    0  0.29642928523E+02  0.83256940650E+01  0.21590028327E+02  0.37605182040E+02  0.00000000000E+00 0.  1.
        -11    1    4    4    0    0 -0.44868926214E+02  0.10861202057E+02  0.87280734711E+02  0.98737596190E+02  0.00000000000E+00 0. -1.
         11    1    4    4    0    0  0.30109605230E+02  0.69549689377E+02  0.28234276455E+03  0.29233744939E+03  0.00000000000E+00 0.  1.
          1    1    1    2  501    0  0.23749713774E+02 -0.34190234698E+02  0.33506110013E+03  0.33763732299E+03  0.00000000000E+00 0. -1.
<scales pt_clust_5="13000.00000" pt_clust_6="13000.00000" pt_clust_7="13000.00000" pt_clust_8="13000.00000" pt_clust_9="41.62957"></scales>
<clustering>
<clus scale="   41.630">  1  9  2 -1</clus>
<clus scale="   90.537">  5  6 -1 -1</clus>
<clus scale="   98.155">  7  8 -1 -1</clus>
<clus scale="  106.468">  2  5  1 -1</clus>
<clus scale="   41.630">  1  5  2 -1</clus>
</clustering>
</event>
<event>
 9    1  0.1610296E-005  0.2090924E+03  0.7546771E-02  0.1142396E+00
         21   -1    0    0  501  502  0.00000000000E+00  0.00000000000E+00  0.15519490791E+03  0.15519490791E+03  0.00000000000E+00 0.  1.
          1   -1    0    0  502    0 -0.00000000000E+00 -0.00000000000E+00 -0.51033759441E+03  0.51033759441E+03  0.00000000000E+00 0. -1.
         23    2    1    2    0    0  0.13155578559E+03 -0.14720075563E+03 -0.23189998539E+03  0.31789346689E+03  0.91124452728E+02 0.  0.
         23    2    1    2    0    0 -0.76341281138E+02  0.14864453445E+03  0.22046783888E+02  0.19220493219E+03  0.92376871847E+02 0.  0.
        -11    1    3    3    0    0  0.85082805291E+02 -0.79049751709E+02 -0.19623222275E+03  0.22802419224E+03  0.00000000000E+00 0. -1.
         11    1    3    3    0    0  0.46472980298E+02 -0.68151003923E+02 -0.35667762637E+02  0.89869274644E+02  0.00000000000E+00 0.  1.
        -13    1    4    4    0    0 -0.19594577118E+02  0.99471709501E+02 -0.23916990816E+02  0.10416616962E+03  0.00000000000E+00 0. -1.
         13    1    4    4    0    0 -0.56746704020E+02  0.49172824949E+02  0.45963774704E+02  0.88038762575E+02  0.00000000000E+00 0.  1.
          1    1    1    2  501    0 -0.55214504451E+02 -0.14437788182E+01 -0.14528948499E+03  0.15543410323E+03  0.00000000000E+00 0. -1.
<scales pt_clust_5="13000.00000" pt_clust_6="13000.00000" pt_clust_7="13000.00000" pt_clust_8="13000.00000" pt_clust_9="55.23341"></scales>
<clustering>
<clus scale="   55.233">  1  9  2 -1</clus>
<clus scale="   91.124">  5  6 -1 -1</clus>
<clus scale="   92.377">  7  8 -1 -1</clus>
<clus scale="  208.542">  2  5  1 -1</clus>
<clus scale="   55.233">  1  5  2 -1</clus>
</clustering>
</event>
<event>
 9    1  0.1610296E-005  0.1006120E+03  0.7546771E-02  0.1282185E+00
          2   -1    0    0  502    0 -0.00000000000E+00  0.00000000000E+00  0.51018505864E+03  0.51018505864E+03  0.00000000000E+00 0. -1.
         21   -1    0    0  501  502  0.00000000000E+00 -0.00000000000E+00 -0.53132132537E+02  0.53132132537E+02  0.00000000000E+00 0. -1.
         23    2    1    2    0    0  0.35470076380E+02 -0.91108232256E+01  0.35984436319E+03  0.37145104327E+03  0.84538620823E+02 0.  0.
         23    2    1    2    0    0 -0.72843868508E+02 -0.70763783456E+00  0.99283862023E+02  0.15316848154E+03  0.91085501314E+02 0.  0.
        -13    1    4    4    0    0 -0.91099757868E+02 -0.12623861885E+02  0.65305893006E+02  0.11279799393E+03  0.00000000000E+00 0. -1.
         13    1    4    4    0    0  0.18255889360E+02  0.11916224050E+02  0.33977969017E+02  0.40370487617E+02  0.00000000000E+00 0.  1.
        -13    1    3    3    0    0 -0.47117885807E+01 -0.40544562013E+02  0.17485664979E+03  0.17955754074E+03  0.00000000000E+00 0.  1.
         13    1    3    3    0    0  0.40181864960E+02  0.31433738787E+02  0.18498771340E+03  0.19189350254E+03  0.00000000000E+00 0. -1.
          2    1    1    2  501    0  0.37373792128E+02  0.98184610601E+01 -0.20752991065E+01  0.38697666364E+02  0.00000000000E+00 0. -1.
<scales pt_clust_5="13000.00000" pt_clust_6="13000.00000" pt_clust_7="13000.00000" pt_clust_8="13000.00000" pt_clust_9="38.64198"></scales>
<clustering>
<clus scale="   38.642">  2  9  1 -1</clus>
<clus scale="   84.539">  7  8 -1 -1</clus>
<clus scale="   91.086">  5  6 -1 -1</clus>
<clus scale="   94.726">  1  7  2 -1</clus>
<clus scale="   38.642">  2  5  1 -1</clus>
</clustering>
</event>
<event>
 9    1  0.1610296E-005  0.1502999E+03  0.7546771E-02  0.1219797E+00
          3   -1    0    0  502    0 -0.00000000000E+00  0.00000000000E+00  0.47627171251E+03  0.47627171251E+03  0.00000000000E+00 0. -1.
         21   -1    0    0  501  502  0.00000000000E+00 -0.00000000000E+00 -0.14828402340E+03  0.14828402340E+03  0.00000000000E+00 0.  1.
         23    2    1    2    0    0  0.31790747696E+02 -0.20937363130E+02  0.24160228456E+03  0.26098497782E+03  0.91062999791E+02 0.  0.
         23    2    1    2    0    0 -0.73583939770E+02  0.12734964090E+03  0.15297547574E+03  0.23126625574E+03  0.91924195065E+02 0.  0.
        -11    1    3    3    0    0 -0.27093846807E+02 -0.16683710645E+01  0.13485756555E+03  0.13756243304E+03  0.00000000000E+00 0.  1.
         11    1    3    3    0    0  0.58884594504E+02 -0.19268992065E+02  0.10674471901E+03  0.12342254478E+03  0.00000000000E+00 0. -1.
        -11    1    4    4    0    0 -0.73536649859E+02  0.10511540771E+03  0.16253704094E+03  0.20706322100E+03  0.00000000000E+00 0.  1.
         11    1    4    4    0    0 -0.47289911146E-01  0.22234233183E+02 -0.95615652058E+01  0.24203034743E+02  0.00000000000E+00 0. -1.
          3    1    1    2  501    0  0.41793192073E+02 -0.10641227777E+03 -0.66590071182E+02  0.13230450235E+03  0.00000000000E+00 0. -1.
<scales pt_clust_5="13000.00000" pt_clust_6="13000.00000" pt_clust_7="13000.00000" pt_clust_8="13000.00000" pt_clust_9="118.91180"></scales>
<clustering>
<clus scale="   91.063">  5  6 -1 -1</clus>
<clus scale="   91.924">  7  8 -1 -1</clus>
<clus scale="   98.699">  1  5  2 -1</clus>
<clus scale="  118.912">  2  9  1 -1</clus>
<clus scale="  118.912">  2  5  1 -1</clus>
</clustering>
</event>
<event>
 9    1  0.1610296E-005  0.2010756E+03  0.7546771E-02  0.1151802E+00
         21   -1    0    0  501  502  0.00000000000E+00  0.00000000000E+00  0.59406216075E+02  0.59406216075E+02  0.00000000000E+00 0. -1.
         -3   -1    0    0    0  501 -0.00000000000E+00 -0.00000000000E+00 -0.10433974103E+04  0.10433974103E+04  0.00000000000E+00 0.  1.
         23    2    1    2    0    0  0.13195670050E+03 -0.87619416065E+02 -0.51259545260E+03  0.54877363050E+03  0.11536319444E+03 0.  0.
         23    2    1    2    0    0 -0.15212514026E+03  0.79332465212E+02 -0.48907177459E+03  0.52596076614E+03  0.89486470955E+02 0.  0.
        -11    1    4    4    0    0  0.59832795464E-02  0.30196113585E+02 -0.12020468125E+03  0.12393938319E+03  0.00000000000E+00 0. -1.
         11    1    4    4    0    0 -0.15213112353E+03  0.49136351627E+02 -0.36886709334E+03  0.40202138295E+03  0.00000000000E+00 0.  1.
        -11    1    3    3    0    0  0.94233195037E+01 -0.32446943465E+02 -0.22512477524E+02  0.40600674070E+02  0.00000000000E+00 0.  1.
         11    1    3    3    0    0  0.12253338099E+03 -0.55172472601E+02 -0.49008297507E+03  0.50817295643E+03  0.00000000000E+00 0. -1.
         -3    1    1    2    0  502  0.20168439759E+02  0.82869508535E+01  0.17676032960E+02  0.28069229736E+02  0.00000000000E+00 0.  1.
<scales pt_clust_5="13000.00000" pt_clust_6="13000.00000" pt_clust_7="13000.00000" pt_clust_8="13000.00000" pt_clust_9="21.80458"></scales>
<clustering>
<clus scale="   21.805">  1  9  2 -1</clus>
<clus scale="   89.486">  5  6 -1 -1</clus>
<clus scale="  115.363">  7  8 -1 -1</clus>
<clus scale="  187.431">  1  5  2 -1</clus>
<clus scale="   21.805">  1  5  2 -1</clus>
</clustering>
</event>
<event>
 9    1  0.1610296E-005  0.1643536E+03  0.7546771E-02  0.1184299E+00
         21   -1    0    0  501  502  0.00000000000E+00  0.00000000000E+00  0.17653356340E+03  0.17653356340E+03  0.00000000000E+00 0.  1.
         -1   -1    0    0    0  501 -0.00000000000E+00 -0.00000000000E+00 -0.62403107794E+03  0.62403107794E+03  0.00000000000E+00 0.  1.
         23    2    1    2    0    0  0.88354496073E+02 -0.88989225272E+02 -0.38866495816E+03  0.41840548752E+03  0.90978585927E+02 0.  0.
         23    2    1    2    0    0 -0.17318497155E+03  0.14423829566E+03  0.31933560015E+02  0.24619166788E+03  0.93770276617E+02 0.  0.
        -11    1    4    4    0    0 -0.44262794907E+02  0.41895403070E+02  0.52326913386E+02  0.80327614653E+02  0.00000000000E+00 0. -1.
         11    1    4    4    0    0 -0.12892217664E+03  0.10234289259E+03 -0.20393353371E+02  0.16586405323E+03  0.00000000000E+00 0.  1.
        -11    1    3    3    0    0  0.21531021774E+01 -0.54988884636E+02 -0.21061241955E+03  0.21768326658E+03  0.00000000000E+00 0.  1.
         11    1    3    3    0    0  0.86201393895E+02 -0.34000340636E+02 -0.17805253861E+03  0.20072222094E+03  0.00000000000E+00 0. -1.
         -1    1    1    2    0  502  0.84830475472E+02 -0.55249070386E+02 -0.90766116400E+02  0.13596748594E+03  0.00000000000E+00 0.  1.
<scales pt_clust_5="13000.00000" pt_clust_6="13000.00000" pt_clust_7="13000.00000" pt_clust_8="13000.00000" pt_clust_9="101.23576"></scales>
<clustering>
<clus scale="   90.979">  7  8 -1 -1</clus>
<clus scale="   93.770">  5  6 -1 -1</clus>
<clus scale="  101.236">  1  9  2 -1</clus>
<clus scale="  162.777">  2  7  1 -1</clus>
<clus scale="  101.236">  1  5  2 -1</clus>
</clustering>
</event>
<event>
 9    1  0.1610296E-005  0.1294600E+03  0.7546771E-02  0.1235188E+00
         21   -1    0    0  501  502  0.00000000000E+00  0.00000000000E+00  0.21628046432E+03  0.21628046432E+03  0.00000000000E+00 0.  1.
          1   -1    0    0  502    0 -0.00000000000E+00 -0.00000000000E+00 -0.12024979058E+03  0.12024979058E+03  0.00000000000E+00 0. -1.
         23    2    1    2    0    0  0.16158878046E+02  0.58066217546E+02 -0.38042572872E+02  0.11557232703E+03  0.90977637169E+02 0.  0.
         23    2    1    2    0    0 -0.36546619708E+02 -0.80716071892E+02  0.12403711110E+03  0.18887366493E+03  0.11152271832E+03 0.  0.
        -11    1    4    4    0    0  0.24454688597E+02  0.98645472854E+01  0.41323038889E+01  0.26691141282E+02  0.00000000000E+00 0. -1.
         11    1    4    4    0    0 -0.61001308305E+02 -0.90580619177E+02  0.11990480721E+03  0.16218252365E+03  0.00000000000E+00 0.  1.
        -11    1    3    3    0    0 -0.90998440229E+01  0.41672093841E+02 -0.63258960520E+02  0.76295915044E+02  0.00000000000E+00 0. -1.
         11    1    3    3    0    0  0.25258722069E+02  0.16394123705E+02  0.25216387648E+02  0.39276411987E+02  0.00000000000E+00 0.  1.
          1    1    1    2  501    0  0.20387741662E+02  0.22649854346E+02  0.10036135518E+02  0.32084262936E+02  0.00000000000E+00 0. -1.
<scales pt_clust_5="13000.00000" pt_clust_6="13000.00000" pt_clust_7="13000.00000" pt_clust_8="13000.00000" pt_clust_9="30.47418"></scales>
<clustering>
<clus scale="   30.474">  1  9  2 -1</clus>
<clus scale="   90.978">  7  8 -1 -1</clus>
<clus scale="  111.523">  5  6 -1 -1</clus>
<clus scale="  112.247">  2  7  1 -1</clus>
<clus scale="   30.474">  1  5  2 -1</clus>
</clustering>
</event>
<event>
 9    1  0.1610296E-005  0.1029718E+03  0.7546771E-02  0.1276828E+00
          3   -1    0    0  502    0 -0.00000000000E+00  0.00000000000E+00  0.33367018995E+03  0.33367018995E+03  0.00000000000E+00 0. -1.
         21   -1    0    0  501  502  0.00000000000E+00 -0.00000000000E+00 -0.13168323376E+03  0.13168323376E+03  0.00000000000E+00 0.  1.
         23    2    1    2    0    0 -0.49499137768E+02  0.16848434487E+02  0.28069493936E+03  0.29791702945E+03  0.85034540418E+02 0.  0.
         23    2    1    2    0    0  0.21620754724E+01 -0.73456733106E+01 -0.76613556078E+02  0.11910952222E+03  0.90877983150E+02 0.  0.
        -13    1    4    4    0    0  0.46267562631E+02 -0.65181582795E+01 -0.44700303829E+02  0.64662902050E+02  0.00000000000E+00 0.  1.
         13    1    4    4    0    0 -0.44105487158E+02 -0.82751503108E+00 -0.31913252248E+02  0.54446620168E+02  0.00000000000E+00 0. -1.
        -13    1    3    3    0    0  0.23229502416E+02  0.82186910988E+01  0.47792665352E+02  0.53770768335E+02  0.00000000000E+00 0.  1.
         13    1    3    3    0    0 -0.72728640184E+02  0.86297433878E+01  0.23290227401E+03  0.24414626111E+03  0.00000000000E+00 0. -1.
          3    1    1    2  501    0  0.47337062296E+02 -0.95027611761E+01 -0.20944270903E+01  0.48326872044E+02  0.00000000000E+00 0. -1.
<scales pt_clust_5="13000.00000" pt_clust_6="13000.00000" pt_clust_7="13000.00000" pt_clust_8="13000.00000" pt_clust_9="48.28147"></scales>
<clustering>
<clus scale="   48.281">  2  9  1 -1</clus>
<clus scale="   85.035">  7  8 -1 -1</clus>
<clus scale="   90.878">  5  6 -1 -1</clus>
<clus scale="   97.853">  1  7  2 -1</clus>
<clus scale="   48.281">  2  5  1 -1</clus>
</clustering>
</event>
<event>
 9    1  0.1610296E-005  0.1606203E+03  0.7546771E-02  0.1188235E+00
          1   -1    0    0  502    0 -0.00000000000E+00  0.00000000000E+00  0.27156984562E+03  0.27156984562E+03  0.00000000000E+00 0. -1.
         21   -1    0    0  501  502  0.00000000000E+00 -0.00000000000E+00 -0.16154185779E+03  0.16154185779E+03  0.00000000000E+00 0.  1.
         23    2    1    2    0    0  0.54404494828E+02  0.12698548753E+03  0.18069351111E+03  0.24455708862E+03  0.89849104237E+02 0.  0.
         23    2    1    2    0    0 -0.35792203766E+02 -0.10481211663E+03 -0.69715785822E+02  0.15958950203E+03  0.91333765519E+02 0.  0.
        -11    1    3    3    0    0  0.44566956094E+02  0.13744190126E+02  0.28699778138E+02  0.54761241794E+02  0.00000000000E+00 0.  1.
         11    1    3    3    0    0  0.98375387344E+01  0.11324129741E+03  0.15199373298E+03  0.18979584682E+03  0.00000000000E+00 0. -1.
        -11    1    4    4    0    0 -0.63594343830E+01 -0.11286330344E+03 -0.55021037941E+02  0.12572144720E+03  0.00000000000E+00 0.  1.
         11    1    4    4    0    0 -0.29432769383E+02  0.80511868185E+01 -0.14694747881E+02  0.33868054831E+02  0.00000000000E+00 0. -1.
          1    1    1    2  501    0 -0.18612291062E+02 -0.22173370908E+02 -0.94973746808E+00  0.28965112761E+02  0.00000000000E+00 0. -1.
<scales pt_clust_5="13000.00000" pt_clust_6="13000.00000" pt_clust_7="13000.00000" pt_clust_8="13000.00000" pt_clust_9="28.94954"></scales>
<clustering>
<clus scale="   28.950">  2  9  1 -1</clus>
<clus scale="   89.849">  5  6 -1 -1</clus>
<clus scale="   91.334">  7  8 -1 -1</clus>
<clus scale="  159.781">  1  5  2 -1</clus>
<clus scale="   28.950">  2  5  1 -1</clus>
</clustering>
</event>
<event>
 9    1  0.1610296E-005  0.1182008E+03  0.7546771E-02  0.1246971E+00
          4   -1    0    0  502    0 -0.00000000000E+00  0.00000000000E+00  0.36956947806E+02  0.36956947806E+02  0.00000000000E+00 0. -1.
         21   -1    0    0  501  502  0.00000000000E+00 -0.00000000000E+00 -0.57638901849E+03  0.57638901849E+03  0.00000000000E+00 0. -1.
         23    2    1    2    0    0  0.77576233443E+02 -0.22936810307E+02 -0.16474405375E+03  0.20527385159E+03  0.91937922745E+02 0.  0.
         23    2    1    2    0    0 -0.69253652858E+02 -0.22328530994E+02 -0.25334117401E+03  0.27829047980E+03  0.89270426055E+02 0.  0.
        -11    1    4    4    0    0 -0.35433371694E+02  0.11505449510E+02 -0.24701491998E+02  0.44699696923E+02  0.00000000000E+00 0.  1.
         11    1    4    4    0    0 -0.33820281164E+02 -0.33833980504E+02 -0.22863968201E+03  0.23359078288E+03  0.00000000000E+00 0. -1.
        -11    1    3    3    0    0  0.64564836600E+02  0.11092127297E+02 -0.15389952647E+03  0.16726242154E+03  0.00000000000E+00 0. -1.
         11    1    3    3    0    0  0.13011396842E+02 -0.34028937604E+02 -0.10844527279E+02  0.38011430046E+02  0.00000000000E+00 0.  1.
          4    1    1    2  501    0 -0.83225805844E+01  0.45265341301E+02 -0.12134684293E+03  0.12978163491E+03  0.00000000000E+00 0. -1.
<scales pt_clust_5="13000.00000" pt_clust_6="13000.00000" pt_clust_7="13000.00000" pt_clust_8="13000.00000" pt_clust_9="46.02409"></scales>
<clustering>
<clus scale="   46.024">  2  9  1 -1</clus>
<clus scale="   89.270">  5  6 -1 -1</clus>
<clus scale="   91.938">  7  8 -1 -1</clus>
<clus scale="  116.138">  2  5  1 -1</clus>
<clus scale="   46.024">  2  5  1 -1</clus>
</clustering>
</event>
<event>
 9    1  0.1610296E-005  0.9262681E+02  0.7546771E-02  0.1306272E+00
         21   -1    0    0  501  502  0.00000000000E+00  0.00000000000E+00  0.19643825627E+03  0.19643825627E+03  0.00000000000E+00 0. -1.
          4   -1    0    0  502    0 -0.00000000000E+00 -0.00000000000E+00 -0.77732168791E+02  0.77732168791E+02  0.00000000000E+00 0. -1.
         23    2    1    2    0    0 -0.10150206325E+02  0.12578572914E+02  0.65339940410E+01  0.94193695525E+02  0.92566257425E+02 0.  0.
         23    2    1    2    0    0 -0.79882629112E+01  0.54991642079E+01  0.15027321297E+02  0.79513226709E+02  0.77475671569E+02 0.  0.
        -11    1    3    3    0    0 -0.48911184165E+02 -0.19985483234E+01  0.16394718785E+02  0.51624460635E+02  0.00000000000E+00 0. -1.
         11    1    3    3    0    0  0.38760977840E+02  0.14577121238E+02 -0.98607247442E+01  0.42569234890E+02  0.00000000000E+00 0.  1.
        -11    1    4    4    0    0  0.18870402586E+02  0.33780995331E+02  0.35521297924E+01  0.38856986056E+02  0.00000000000E+00 0. -1.
         11    1    4    4    0    0 -0.26858665497E+02 -0.28281831123E+02  0.11475191505E+02  0.40656240653E+02  0.00000000000E+00 0.  1.
          4    1    1    2  501    0  0.18138469236E+02 -0.18077737122E+02  0.97144772143E+02  0.10046350283E+03  0.00000000000E+00 0. -1.
<scales pt_clust_5="13000.00000" pt_clust_6="13000.00000" pt_clust_7="13000.00000" pt_clust_8="13000.00000" pt_clust_9="25.60876"></scales>
<clustering>
<clus scale="   25.609">  1  9  2 -1</clus>
<clus scale="   77.476">  7  8 -1 -1</clus>
<clus scale="   77.548">  1  7  2 -1</clus>
<clus scale="   92.566">  5  6 -1 -1</clus>
<clus scale="   25.609">  1  5  2 -1</clus>
</clustering>
</event>
<event>
 9    1  0.1610296E-005  0.9372535E+02  0.7546771E-02  0.1297371E+00
         -1   -1    0    0    0  501 -0.00000000000E+00  0.00000000000E+00  0.11378317666E+03  0.11378317666E+03  0.00000000000E+00 0.  1.
         21   -1    0    0  501  502  0.00000000000E+00 -0.00000000000E+00 -0.18503543304E+03  0.18503543304E+03  0.00000000000E+00 0. -1.
         23    2    1    2    0    0  0.16038514176E+02  0.26699351338E+02  0.45926130753E+02  0.10646854303E+03  0.90863919514E+02 0.  0.
         23    2    1    2    0    0 -0.12172282047E+02 -0.26170218612E+01 -0.15018093296E+02  0.87318490551E+02  0.85111470509E+02 0.  0.
        -11    1    4    4    0    0  0.26178145033E+02 -0.24826036467E+02  0.86170145388E+01  0.37092860547E+02  0.00000000000E+00 0.  1.
         11    1    4    4    0    0 -0.38350427079E+02  0.22209014606E+02 -0.23635107835E+02  0.50225630004E+02  0.00000000000E+00 0. -1.
        -13    1    3    3    0    0  0.42264431759E+02 -0.16075049144E+02  0.15558247239E+02  0.47819958741E+02  0.00000000000E+00 0.  1.
         13    1    3    3    0    0 -0.26225917583E+02  0.42774400481E+02  0.30367883514E+02  0.58648584285E+02  0.00000000000E+00 0. -1.
         -1    1    1    2    0  502 -0.38662321295E+01 -0.24082329476E+02 -0.10216029384E+03  0.10503157612E+03  0.00000000000E+00 0.  1.
<scales pt_clust_5="13000.00000" pt_clust_6="13000.00000" pt_clust_7="13000.00000" pt_clust_8="13000.00000" pt_clust_9="24.39070"></scales>
<clustering>
<clus scale="   24.391">  2  9  1 -1</clus>
<clus scale="   85.111">  5  6 -1 -1</clus>
<clus scale="   88.160">  2  5  1 -1</clus>
<clus scale="   90.864">  7  8 -1 -1</clus>
<clus scale="   24.391">  2  5  1 -1</clus>
</clustering>
</event>
<event>
 9    1  0.1610296E-005  0.1348896E+03  0.7546771E-02  0.1222935E+00
         21   -1    0    0  501  502  0.00000000000E+00  0.00000000000E+00  0.56909222745E+03  0.56909222745E+03  0.00000000000E+00 0. -1.
          1   -1    0    0  502    0 -0.00000000000E+00 -0.00000000000E+00 -0.70309340503E+02  0.70309340503E+02  0.00000000000E+00 0. -1.
         23    2    1    2    0    0 -0.14143331211E+02 -0.55943248670E+02  0.10428628565E+03  0.14938991176E+03  0.90066838907E+02 0.  0.
         23    2    1    2    0    0  0.19473370901E+00  0.13816329161E+03  0.13495661851E+03  0.21740259270E+03  0.99807140853E+02 0.  0.
        -11    1    4    4    0    0 -0.34296351612E+02  0.39136942621E+02  0.78540400311E+01  0.52627235880E+02  0.00000000000E+00 0. -1.
         11    1    4    4    0    0  0.34491085321E+02  0.99026348987E+02  0.12710257847E+03  0.16477535682E+03  0.00000000000E+00 0.  1.
        -11    1    3    3    0    0 -0.36523681965E+02 -0.78134612482E+01  0.61976176174E+01  0.37860797471E+02  0.00000000000E+00 0.  1.
         11    1    3    3    0    0  0.22380350754E+02 -0.48129787422E+02  0.98088668035E+02  0.11152911429E+03  0.00000000000E+00 0. -1.
          1    1    1    2  501    0  0.13948597502E+02 -0.82220042938E+02  0.25953998279E+03  0.27260906350E+03  0.00000000000E+00 0. -1.
<scales pt_clust_5="13000.00000" pt_clust_6="13000.00000" pt_clust_7="13000.00000" pt_clust_8="13000.00000" pt_clust_9="83.39484"></scales>
<clustering>
<clus scale="   83.395">  1  9  2 -1</clus>
<clus scale="   90.067">  7  8 -1 -1</clus>
<clus scale="   99.807">  5  6 -1 -1</clus>
<clus scale="  127.851">  2  7  1 -1</clus>
<clus scale="   83.395">  1  5  2 -1</clus>
</clustering>
</event>
<event>
 9    1  0.1610296E-005  0.1334517E+03  0.7546771E-02  0.1222920E+00
          2   -1    0    0  502    0 -0.00000000000E+00  0.00000000000E+00  0.86566545452E+03  0.86566545452E+03  0.00000000000E+00 0. -1.
         21   -1    0    0  501  502  0.00000000000E+00 -0.00000000000E+00 -0.25781424755E+02  0.25781424755E+02  0.00000000000E+00 0. -1.
         23    2    1    2    0    0  0.50392428344E+02  0.91483774117E+02  0.53450524271E+03  0.55225894723E+03  0.91571898270E+02 0.  0.
         23    2    1    2    0    0 -0.41008590922E+02 -0.69536173687E+02  0.26192276181E+03  0.28960789877E+03  0.93553289065E+02 0.  0.
        -13    1    4    4    0    0  0.21236852131E+01  0.21227439665E+02  0.66869038172E+02  0.70189618176E+02  0.00000000000E+00 0.  1.
         13    1    4    4    0    0 -0.43132276135E+02 -0.90763613353E+02  0.19505372364E+03  0.21941828060E+03  0.00000000000E+00 0. -1.
        -13    1    3    3    0    0 -0.17445312412E+02  0.35092726226E+02  0.77810356237E+02  0.87122269810E+02  0.00000000000E+00 0.  1.
         13    1    3    3    0    0  0.67837740756E+02  0.56391047891E+02  0.45669488647E+03  0.46513667742E+03  0.00000000000E+00 0. -1.
          2    1    1    2  501    0 -0.93838374222E+01 -0.21947600429E+02  0.43456025240E+02  0.49580033270E+02  0.00000000000E+00 0. -1.
<scales pt_clust_5="13000.00000" pt_clust_6="13000.00000" pt_clust_7="13000.00000" pt_clust_8="13000.00000" pt_clust_9="23.86951"></scales>
<clustering>
<clus scale="   23.870">  2  9  1 -1</clus>
<clus scale="   91.572">  7  8 -1 -1</clus>
<clus scale="   93.553">  5  6 -1 -1</clus>
<clus scale="  132.070">  1  7  2 -1</clus>
<clus scale="   23.870">  2  5  1 -1</clus>
</clustering>
</event>
<event>
 9    1  0.1610296E-005  0.1141668E+03  0.7546771E-02  0.1253468E+00
         -1   -1    0    0    0  501 -0.00000000000E+00  0.00000000000E+00  0.60824779435E+02  0.60824779435E+02  0.00000000000E+00 0.  1.
         21   -1    0    0  501  502  0.00000000000E+00 -0.00000000000E+00 -0.37218718394E+03  0.37218718394E+03  0.00000000000E+00 0. -1.
         23    2    1    2    0    0 -0.38675369344E+02  0.54621530752E+02 -0.33751132949E+02  0.11851523998E+03  0.91801020238E+02 0.  0.
         23    2    1    2    0    0  0.23059730916E+02 -0.70114868542E+02 -0.26379301117E+03  0.28851911766E+03  0.90601779976E+02 0.  0.
        -11    1    4    4    0    0  0.27718132931E+02  0.12420933640E+02 -0.10752069619E+03  0.11172857555E+03  0.00000000000E+00 0.  1.
         11    1    4    4    0    0 -0.46584020154E+01 -0.82535802182E+02 -0.15627231499E+03  0.17679054212E+03  0.00000000000E+00 0. -1.
        -11    1    3    3    0    0 -0.38294071067E+02  0.79483181402E+02 -0.30927923382E+02  0.93490900356E+02  0.00000000000E+00 0.  1.
         11    1    3    3    0    0 -0.38129827741E+00 -0.24861650650E+02 -0.28232095675E+01  0.25024339625E+02  0.00000000000E+00 0. -1.
         -1    1    1    2    0  502  0.15615638428E+02  0.15493337790E+02 -0.13818260386E+02  0.25977605731E+02  0.00000000000E+00 0.  1.
<scales pt_clust_5="13000.00000" pt_clust_6="13000.00000" pt_clust_7="13000.00000" pt_clust_8="13000.00000" pt_clust_9="21.99755"></scales>
<clustering>
<clus scale="   21.998">  2  9  1 -1</clus>
<clus scale="   90.602">  5  6 -1 -1</clus>
<clus scale="   91.801">  7  8 -1 -1</clus>
<clus scale="  113.205">  2  5  1 -1</clus>
<clus scale="   21.998">  2  5  1 -1</clus>
</clustering>
</event>
<event>
 9    1  0.1610296E-005  0.9607451E+02  0.7546771E-02  0.1291119E+00
         21   -1    0    0  501  502  0.00000000000E+00  0.00000000000E+00  0.19583494780E+03  0.19583494780E+03  0.00000000000E+00 0.  1.
          1   -1    0    0  502    0 -0.00000000000E+00 -0.00000000000E+00 -0.61966869261E+02  0.61966869261E+02  0.00000000000E+00 0. -1.
         23    2    1    2    0    0  0.19147196899E+02 -0.32659268307E+02  0.32546128380E+02  0.10030634932E+03  0.86999254517E+02 0.  0.
         23    2    1    2    0    0 -0.35576894021E+01  0.19986284366E+02  0.58944795571E+02  0.11059706161E+03  0.91351586718E+02 0.  0.
        -11    1    4    4    0    0  0.38703394334E+02  0.15010070537E+02  0.53470925933E+02  0.67693388677E+02  0.00000000000E+00 0.  1.
         11    1    4    4    0    0 -0.42261083736E+02  0.49762138288E+01  0.54738696383E+01  0.42903672936E+02  0.00000000000E+00 0. -1.
        -13    1    3    3    0    0  0.36182912697E+02 -0.12180172075E+02  0.53979204686E+02  0.66115915644E+02  0.00000000000E+00 0. -1.
         13    1    3    3    0    0 -0.17035715798E+02 -0.20479096231E+02 -0.21433076306E+02  0.34190433679E+02  0.00000000000E+00 0.  1.
          1    1    1    2  501    0 -0.15589507497E+02  0.12672983941E+02  0.42377154584E+02  0.46898406120E+02  0.00000000000E+00 0. -1.
<scales pt_clust_5="13000.00000" pt_clust_6="13000.00000" pt_clust_7="13000.00000" pt_clust_8="13000.00000" pt_clust_9="20.09073"></scales>
<clustering>
<clus scale="   20.091">  1  9  2 -1</clus>
<clus scale="   86.999">  7  8 -1 -1</clus>
<clus scale="   91.352">  5  6 -1 -1</clus>
<clus scale="   91.946">  2  7  1 -1</clus>
<clus scale="   20.091">  1  5  2 -1</clus>
</clustering>
</event>
<event>
 9    1  0.1610296E-005  0.1058953E+03  0.7546771E-02  0.1268548E+00
          3   -1    0    0  502    0 -0.00000000000E+00  0.00000000000E+00  0.12463469107E+03  0.12463469107E+03  0.00000000000E+00 0. -1.
         21   -1    0    0  501  502  0.00000000000E+00 -0.00000000000E+00 -0.12381460917E+03  0.12381460917E+03  0.00000000000E+00 0.  1.
         23    2    1    2    0    0 -0.40526381524E+02 -0.37250295170E+02  0.55108458421E+01  0.10735195340E+03  0.92000545577E+02 0.  0.
         23    2    1    2    0    0  0.10922693380E+02  0.54136024987E+02 -0.39441671583E+01  0.10700829244E+03  0.91570758242E+02 0.  0.
        -11    1    3    3    0    0 -0.84138121585E+01 -0.64322628443E+02 -0.82134286730E+00  0.64875784149E+02  0.00000000000E+00 0. -1.
         11    1    3    3    0    0 -0.32112569366E+02  0.27072333273E+02  0.63321887094E+01  0.42476169248E+02  0.00000000000E+00 0.  1.
        -11    1    4    4    0    0  0.39315346269E+02 -0.59214307447E+00  0.15642510137E+02  0.42317079401E+02  0.00000000000E+00 0. -1.
         11    1    4    4    0    0 -0.28392652889E+02  0.54728168062E+02 -0.19586677295E+02  0.64691213043E+02  0.00000000000E+00 0.  1.
          3    1    1    2  501    0  0.29603688144E+02 -0.16885729818E+02 -0.74659677666E+00  0.34089054401E+02  0.00000000000E+00 0. -1.
<scales pt_clust_5="13000.00000" pt_clust_6="13000.00000" pt_clust_7="13000.00000" pt_clust_8="13000.00000" pt_clust_9="34.08088"></scales>
<clustering>
<clus scale="   34.081">  2  9  1 -1</clus>
<clus scale="   91.571">  7  8 -1 -1</clus>
<clus scale="   92.001">  5  6 -1 -1</clus>
<clus scale="  105.522">  2  7  1 -1</clus>
<clus scale="   34.081">  2  5  1 -1</clus>
</clustering>
</event>
<event>
 9    1  0.1610296E-005  0.1195376E+03  0.7546771E-02  0.1244087E+00
         21   -1    0    0  501  502  0.00000000000E+00  0.00000000000E+00  0.67214244537E+02  0.67214244537E+02  0.00000000000E+00 0. -1.
          2   -1    0    0  502    0 -0.00000000000E+00 -0.00000000000E+00 -0.27098301830E+03  0.27098301830E+03  0.00000000000E+00 0. -1.
         23    2    1    2    0    0  0.35728809170E+01 -0.87024985138E+02 -0.13413660649E+03  0.18257797883E+03  0.88068017102E+02 0.  0.
         23    2    1    2    0    0 -0.12094729034E+02  0.67799553975E+02 -0.40000659364E+02  0.11928382805E+03  0.88800432968E+02 0.  0.
        -13    1    4    4    0    0 -0.27968705351E+02 -0.32806701854E+01  0.11147448271E+02  0.30286579187E+02  0.00000000000E+00 0.  1.
         13    1    4    4    0    0  0.15873976317E+02  0.71080224160E+02 -0.51148107634E+02  0.88997248864E+02  0.00000000000E+00 0. -1.
        -13    1    3    3    0    0 -0.28014163430E+02  0.24928676695E+01 -0.22350700862E+02  0.35924386855E+02  0.00000000000E+00 0.  1.
         13    1    3    3    0    0  0.31587044347E+02 -0.89517852807E+02 -0.11178590563E+03  0.14665359197E+03  0.00000000000E+00 0. -1.
          2    1    1    2  501    0  0.85218481166E+01  0.19225431163E+02 -0.29631507916E+02  0.36335455963E+02  0.00000000000E+00 0. -1.
<scales pt_clust_5="13000.00000" pt_clust_6="13000.00000" pt_clust_7="13000.00000" pt_clust_8="13000.00000" pt_clust_9="21.02949"></scales>
<clustering>
<clus scale="   21.029">  1  9  2 -1</clus>
<clus scale="   88.068">  7  8 -1 -1</clus>
<clus scale="   88.800">  5  6 -1 -1</clus>
<clus scale="  118.995">  2  7  1 -1</clus>
<clus scale="   21.029">  1  5  2 -1</clus>
</clustering>
</event>
<event>
 9    1  0.1610296E-005  0.4829474E+03  0.7546771E-02  0.1018541E+00
         21   -1    0    0  501  502  0.00000000000E+00  0.00000000000E+00  0.68644061004E+03  0.68644061004E+03  0.00000000000E+00 0.  1.
          1   -1    0    0  502    0 -0.00000000000E+00 -0.00000000000E+00 -0.38102516499E+03  0.38102516499E+03  0.00000000000E+00 0. -1.
         23    2    1    2    0    0 -0.19418384543E+03 -0.40850641436E+03  0.12061953507E+03  0.47604263529E+03  0.86502381293E+02 0.  0.
         23    2    1    2    0    0  0.23096495674E+03  0.43636423547E+03  0.13181267754E+03  0.52116553328E+03  0.10237369721E+03 0.  0.
        -13    1    4    4    0    0  0.11479735542E+03  0.11664553705E+03  0.52476707500E+02  0.17186744589E+03  0.00000000000E+00 0.  1.
         13    1    4    4    0    0  0.11616760132E+03  0.31971869842E+03  0.79335970038E+02  0.34929808739E+03  0.00000000000E+00 0. -1.
        -13    1    3    3    0    0 -0.45216794069E+02 -0.45669051966E+02 -0.42803112123E+01  0.64409175103E+02  0.00000000000E+00 0.  1.
         13    1    3    3    0    0 -0.14896705137E+03 -0.36283736240E+03  0.12489984628E+03  0.41163346019E+03  0.00000000000E+00 0. -1.
          1    1    1    2  501    0 -0.36781111304E+02 -0.27857821101E+02  0.52983232443E+02  0.70257606459E+02  0.00000000000E+00 0. -1.
<scales pt_clust_5="13000.00000" pt_clust_6="13000.00000" pt_clust_7="13000.00000" pt_clust_8="13000.00000" pt_clust_9="46.14009"></scales>
<clustering>
<clus scale="   46.140">  1  9  2 -1</clus>
<clus scale="   86.502">  7  8 -1 -1</clus>
<clus scale="  102.374">  5  6 -1 -1</clus>
<clus scale="  479.834">  2  7  1 -1</clus>
<clus scale="   46.140">  1  5  2 -1</clus>
</clustering>
</event>
<event>
 9    1  0.1610296E-005  0.1720550E+03  0.7546771E-02  0.1176228E+00
         21   -1    0    0  501  502  0.00000000000E+00  0.00000000000E+00  0.82751050347E+02  0.82751050347E+02  0.00000000000E+00 0.  1.
         -2   -1    0    0    0  501 -0.00000000000E+00 -0.00000000000E+00 -0.82563667612E+03  0.82563667612E+03  0.00000000000E+00 0.  1.
         23    2    1    2    0    0 -0.86914398210E+02 -0.11523964447E+03 -0.44822303934E+03  0.48004725114E+03  0.93312282449E+02 0.  0.
         23    2    1    2    0    0  0.62068384915E+02  0.13284465453E+03 -0.33576173286E+03  0.37718971196E+03  0.89643465518E+02 0.  0.
        -11    1    4    4    0    0 -0.18511659181E+02  0.61439818511E+02 -0.12212747102E+03  0.13795887793E+03  0.00000000000E+00 0.  1.
         11    1    4    4    0    0  0.80580044095E+02  0.71404836020E+02 -0.21363426185E+03  0.23923083402E+03  0.00000000000E+00 0. -1.
        -13    1    3    3    0    0 -0.31801049287E+02  0.67487995801E+01 -0.14486736899E+03  0.14847022473E+03  0.00000000000E+00 0. -1.
         13    1    3    3    0    0 -0.55113348923E+02 -0.12198844406E+03 -0.30335567035E+03  0.33157702641E+03  0.00000000000E+00 0.  1.
         -2    1    1    2    0  502  0.24846013295E+02 -0.17605010056E+02  0.41099146431E+02  0.51150763368E+02  0.00000000000E+00 0.  1.
<scales pt_clust_5="13000.00000" pt_clust_6="13000.00000" pt_clust_7="13000.00000" pt_clust_8="13000.00000" pt_clust_9="30.45096"></scales>
<clustering>
<clus scale="   30.451">  1  9  2 -1</clus>
<clus scale="   89.643">  5  6 -1 -1</clus>
<clus scale="   93.312">  7  8 -1 -1</clus>
<clus scale="  170.093">  1  5  2 -1</clus>
<clus scale="   30.451">  1  5  2 -1</clus>
</clustering>
</event>
<event>
 9    1  0.1610296E-005  0.1510703E+03  0.7546771E-02  0.1214344E+00
         21   -1    0    0  501  502  0.00000000000E+00  0.00000000000E+00  0.36843654072E+03  0.36843654072E+03  0.00000000000E+00 0. -1.
          1   -1    0    0  502    0 -0.00000000000E+00 -0.00000000000E+00 -0.12101243884E+03  0.12101243884E+03  0.00000000000E+00 0. -1.
         23    2    1    2    0    0  0.55169350807E+02 -0.16148555366E+02  0.12291701218E+03  0.16431782458E+03  0.92667807153E+02 0.  0.
         23    2    1    2    0    0  0.54284123940E+02  0.84433898687E+02 -0.12684916452E+02  0.13681068929E+03  0.92089132039E+02 0.  0.
        -11    1    3    3    0    0  0.23666604107E+02 -0.44197142249E+02  0.10887237353E+03  0.11986112485E+03  0.00000000000E+00 0.  1.
         11    1    3    3    0    0  0.31502746700E+02  0.28048586883E+02  0.14044638649E+02  0.44456699726E+02  0.00000000000E+00 0. -1.
        -11    1    4    4    0    0 -0.24137839258E+02  0.23932581588E+02  0.95311755801E+01  0.35302224484E+02  0.00000000000E+00 0.  1.
         11    1    4    4    0    0  0.78421963199E+02  0.60501317099E+02 -0.22216092032E+02  0.10150846481E+03  0.00000000000E+00 0. -1.
          1    1    1    2  501    0 -0.10945347475E+03 -0.68285343321E+02  0.13719200615E+03  0.18832046569E+03  0.00000000000E+00 0. -1.
<scales pt_clust_5="13000.00000" pt_clust_6="13000.00000" pt_clust_7="13000.00000" pt_clust_8="13000.00000" pt_clust_9="119.75739"></scales>
<clustering>
<clus scale="   92.089">  7  8 -1 -1</clus>
<clus scale="   92.668">  5  6 -1 -1</clus>
<clus scale="  109.049">  2  5  1 -1</clus>
<clus scale="  119.757">  1  9  2 -1</clus>
<clus scale="  119.757">  1  5  2 -1</clus>
</clustering>
</event>
<event>
 9    1  0.1610296E-005  0.8581157E+02  0.7546771E-02  0.1315654E+00
         21   -1    0    0  501  502  0.00000000000E+00  0.00000000000E+00  0.11078984212E+03  0.11078984212E+03  0.00000000000E+00 0. -1.
          1   -1    0    0  502    0 -0.00000000000E+00 -0.00000000000E+00 -0.45819808994E+03  0.45819808994E+03  0.00000000000E+00 0. -1.
         23    2    1    2    0    0 -0.12292741459E+02  0.54666962715E+00 -0.28690850079E+03  0.29951061292E+03  0.85080603477E+02 0.  0.
         23    2    1    2    0    0 -0.35305077389E+01  0.26116992388E+02 -0.15111089384E+03  0.17370829484E+03  0.81519983329E+02 0.  0.
        -11    1    3    3    0    0  0.33393021501E+02  0.16411638129E+02 -0.11069481630E+03  0.11678089786E+03  0.00000000000E+00 0.  1.
         11    1    3    3    0    0 -0.45685762960E+02 -0.15864968502E+02 -0.17621368449E+03  0.18272971506E+03  0.00000000000E+00 0. -1.
        -11    1    4    4    0    0  0.36317919467E+02  0.79093996504E+01 -0.41750183833E+02  0.55898369631E+02  0.00000000000E+00 0.  1.
         11    1    4    4    0    0 -0.39848427206E+02  0.18207592738E+02 -0.10936071001E+03  0.11780992521E+03  0.00000000000E+00 0. -1.
          1    1    1    2  501    0  0.15823249198E+02 -0.26663662015E+02  0.90611146813E+02  0.95769024293E+02  0.00000000000E+00 0. -1.
<scales pt_clust_5="13000.00000" pt_clust_6="13000.00000" pt_clust_7="13000.00000" pt_clust_8="13000.00000" pt_clust_9="31.00526"></scales>
<clustering>
<clus scale="   31.005">  1  9  2 -1</clus>
<clus scale="   81.520">  7  8 -1 -1</clus>
<clus scale="   82.283">  1  7  2 -1</clus>
<clus scale="   85.081">  5  6 -1 -1</clus>
<clus scale="   31.005">  1  5  2 -1</clus>
</clustering>
</event>
<event>
 9    1  0.1610296E-005  0.1147057E+03  0.7546771E-02  0.1252647E+00
         21   -1    0    0  501  502  0.00000000000E+00  0.00000000000E+00  0.11780453735E+03  0.11780453735E+03  0.00000000000E+00 0. -1.
          1   -1    0    0  502    0 -0.00000000000E+00 -0.00000000000E+00 -0.34994087415E+03  0.34994087415E+03  0.00000000000E+00 0. -1.
         23    2    1    2    0    0  0.42837310939E+02  0.62079263470E+02 -0.21009281320E+03  0.24055633179E+03  0.89663194503E+02 0.  0.
         23    2    1    2    0    0  0.58006143020E+01 -0.69150469499E+02 -0.88297228139E+02  0.14469542485E+03  0.91241059390E+02 0.  0.
        -11    1    3    3    0    0 -0.21947466480E+02 -0.54040047615E+01 -0.29403473446E+02  0.37087178418E+02  0.00000000000E+00 0. -1.
         11    1    3    3    0    0  0.64784777419E+02  0.67483268231E+02 -0.18068933975E+03  0.20346915338E+03  0.00000000000E+00 0.  1.
        -13    1    4    4    0    0 -0.16492711370E+02 -0.70883328428E+02 -0.24017363993E+02  0.76637390030E+02  0.00000000000E+00 0.  1.
         13    1    4    4    0    0  0.22293325672E+02  0.17328589291E+01 -0.64279864146E+02  0.68058034825E+02  0.00000000000E+00 0. -1.
          1    1    1    2  501    0 -0.48637925241E+02  0.70712060295E+01  0.66253704533E+02  0.82493654852E+02  0.00000000000E+00 0. -1.
<scales pt_clust_5="13000.00000" pt_clust_6="13000.00000" pt_clust_7="13000.00000" pt_clust_8="13000.00000" pt_clust_9="49.14926"></scales>
<clustering>
<clus scale="   49.149">  1  9  2 -1</clus>
<clus scale="   89.663">  5  6 -1 -1</clus>
<clus scale="   91.241">  7  8 -1 -1</clus>
<clus scale="  113.455">  2  5  1 -1</clus>
<clus scale="   49.149">  1  5  2 -1</clus>
</clustering>
</event>
<event>
 9    1  0.1610296E-005  0.1222622E+03  0.7546771E-02  0.1240115E+00
         21   -1    0    0  501  502  0.00000000000E+00  0.00000000000E+00  0.79153913611E+03  0.79153913611E+03  0.00000000000E+00 0. -1.
         -2   -1    0    0    0  501 -0.00000000000E+00 -0.00000000000E+00 -0.30828770383E+02  0.30828770383E+02  0.00000000000E+00 0.  1.
         23    2    1    2    0    0 -0.20829493292E+02 -0.68951746183E+02  0.16008322048E+03  0.19713636860E+03  0.89710084461E+02 0.  0.
         23    2    1    2    0    0  0.28452541224E+02  0.10113777685E+03  0.50908079555E+03  0.52789302766E+03  0.92029317344E+02 0.  0.
        -11    1    3    3    0    0  0.84279014367E+01 -0.82401540239E+02  0.11674088327E+03  0.14314145865E+03  0.00000000000E+00 0.  1.
         11    1    3    3    0    0 -0.29257394728E+02  0.13449794056E+02  0.43342337206E+02  0.53994909954E+02  0.00000000000E+00 0. -1.
        -13    1    4    4    0    0  0.32003418699E+02 -0.24384227580E+00  0.66035439973E+02  0.73382270338E+02  0.00000000000E+00 0.  1.
         13    1    4    4    0    0 -0.35508774748E+01  0.10138161913E+03  0.44304535558E+03  0.45451075733E+03  0.00000000000E+00 0. -1.
         -2    1    1    2    0  502 -0.76230479328E+01 -0.32186030670E+02  0.91546349698E+02  0.97338510227E+02  0.00000000000E+00 0.  1.
<scales pt_clust_5="13000.00000" pt_clust_6="13000.00000" pt_clust_7="13000.00000" pt_clust_8="13000.00000" pt_clust_9="33.07645"></scales>
<clustering>
<clus scale="   33.076">  1  9  2 -1</clus>
<clus scale="   89.710">  5  6 -1 -1</clus>
<clus scale="   92.029">  7  8 -1 -1</clus>
<clus scale="  120.526">  2  5  1 -1</clus>
<clus scale="   33.076">  1  5  2 -1</clus>
</clustering>
</event>
<event>
 9    1  0.1610296E-005  0.1023881E+03  0.7546771E-02  0.1276656E+00
         -1   -1    0    0    0  501 -0.00000000000E+00  0.00000000000E+00  0.27347940606E+03  0.27347940606E+03  0.00000000000E+00 0.  1.
         21   -1    0    0  501  502  0.00000000000E+00 -0.00000000000E+00 -0.57575207718E+02  0.57575207718E+02  0.00000000000E+00 0. -1.
         23    2    1    2    0    0 -0.40007885804E+02  0.27901549580E+02  0.13759626294E+03  0.17299452332E+03  0.92818350166E+02 0.  0.
         23    2    1    2    0    0  0.42074008445E+02  0.90290961881E+01  0.50831301555E+02  0.11198290666E+03  0.90025570816E+02 0.  0.
        -13    1    4    4    0    0 -0.21431616531E+01  0.20403002594E+02 -0.19387052475E+02  0.28226467374E+02  0.00000000000E+00 0. -1.
         13    1    4    4    0    0  0.44217170098E+02 -0.11373906406E+02  0.70218354031E+02  0.83756439282E+02  0.00000000000E+00 0.  1.
        -13    1    3    3    0    0  0.26372127676E+02 -0.75789168682E+01  0.22561596654E+02  0.35524002345E+02  0.00000000000E+00 0.  1.
         13    1    3    3    0    0 -0.66380013480E+02  0.35480466449E+02  0.11503466629E+03  0.13747052097E+03  0.00000000000E+00 0. -1.
         -1    1    1    2    0  502 -0.20661226411E+01 -0.36930645769E+02  0.27476633846E+02  0.46077183802E+02  0.00000000000E+00 0.  1.
<scales pt_clust_5="13000.00000" pt_clust_6="13000.00000" pt_clust_7="13000.00000" pt_clust_8="13000.00000" pt_clust_9="36.98840"></scales>
<clustering>
<clus scale="   36.988">  2  9  1 -1</clus>
<clus scale="   90.026">  5  6 -1 -1</clus>
<clus scale="   92.818">  7  8 -1 -1</clus>
<clus scale="   99.863">  2  5  1 -1</clus>
<clus scale="   36.988">  2  5  1 -1</clus>
</clustering>
</event>
<event>
 9    1  0.1610296E-005  0.1126564E+03  0.7546771E-02  0.1256758E+00
         21   -1    0    0  501  502  0.00000000000E+00  0.00000000000E+00  0.92777862218E+02  0.92777862218E+02  0.00000000000E+00 0. -1.
          3   -1    0    0  502    0 -0.00000000000E+00 -0.00000000000E+00 -0.28732976908E+03  0.28732976908E+03  0.00000000000E+00 0. -1.
         23    2    1    2    0    0 -0.48419846476E+02  0.38595672650E+02 -0.13074900987E+03  0.17187317715E+03  0.92795355273E+02 0.  0.
         23    2    1    2    0    0  0.32095471625E+02 -0.61408423610E+02 -0.10743822396E+03  0.15636010037E+03  0.90024414631E+02 0.  0.
        -13    1    3    3    0    0 -0.12396398167E+02 -0.29273947916E+02 -0.21770284807E+02  0.38530248049E+02  0.00000000000E+00 0.  1.
         13    1    3    3    0    0 -0.36023448310E+02  0.67869620566E+02 -0.10897872507E+03  0.13334292910E+03  0.00000000000E+00 0. -1.
        -13    1    4    4    0    0  0.17701146636E+01 -0.78634792120E+02 -0.76960090705E+02  0.11004280712E+03  0.00000000000E+00 0. -1.
         13    1    4    4    0    0  0.30325356961E+02  0.17226368510E+02 -0.30478133260E+02  0.46317293249E+02  0.00000000000E+00 0.  1.
          3    1    1    2  501    0  0.16324374851E+02  0.22812750961E+02  0.43635326972E+02  0.51874353785E+02  0.00000000000E+00 0. -1.
<scales pt_clust_5="13000.00000" pt_clust_6="13000.00000" pt_clust_7="13000.00000" pt_clust_8="13000.00000" pt_clust_9="28.05186"></scales>
<clustering>
<clus scale="   28.052">  1  9  2 -1</clus>
<clus scale="   90.024">  7  8 -1 -1</clus>
<clus scale="   92.795">  5  6 -1 -1</clus>
<clus scale="  110.385">  1  7  2 -1</clus>
<clus scale="   28.052">  1  5  2 -1</clus>
</clustering>
</event>
<event>
 9    1  0.1610296E-005  0.1145632E+03  0.7546771E-02  0.1253602E+00
          3   -1    0    0  502    0 -0.00000000000E+00  0.00000000000E+00  0.21957465789E+03  0.21957465789E+03  0.00000000000E+00 0. -1.
         21   -1    0    0  501  502  0.00000000000E+00 -0.00000000000E+00 -0.21182200323E+03  0.21182200323E+03  0.00000000000E+00 0.  1.
         23    2    1    2    0    0  0.54021865599E+02  0.38780894633E+02  0.15783724379E+03  0.19563172277E+03  0.94534944192E+02 0.  0.
         23    2    1    2    0    0 -0.71047971128E+02  0.16985940830E+02 -0.12840936015E+03  0.17355847761E+03  0.91089214449E+02 0.  0.
        -13    1    3    3    0    0  0.36977909145E+01  0.49532437908E+02  0.12520505736E+03  0.13469759631E+03  0.00000000000E+00 0. -1.
         13    1    3    3    0    0  0.50324074685E+02 -0.10751543275E+02  0.32632186428E+02  0.60934126454E+02  0.00000000000E+00 0.  1.
        -13    1    4    4    0    0 -0.30715073174E+02 -0.37813997602E+02 -0.52887917444E+02  0.71905813022E+02  0.00000000000E+00 0.  1.
         13    1    4    4    0    0 -0.40332897954E+02  0.54799938432E+02 -0.75521442705E+02  0.10165266459E+03  0.00000000000E+00 0. -1.
          3    1    1    2  501    0  0.17026105529E+02 -0.55766835463E+02 -0.21675228982E+02  0.62206460745E+02  0.00000000000E+00 0. -1.
<scales pt_clust_5="13000.00000" pt_clust_6="13000.00000" pt_clust_7="13000.00000" pt_clust_8="13000.00000" pt_clust_9="58.30805"></scales>
<clustering>
<clus scale="   58.308">  2  9  1 -1</clus>
<clus scale="   91.089">  7  8 -1 -1</clus>
<clus scale="   94.535">  5  6 -1 -1</clus>
<clus scale="  111.737">  2  7  1 -1</clus>
<clus scale="   58.308">  2  5  1 -1</clus>
</clustering>
</event>
<event>
 9    1  0.1610296E-005  0.9696730E+02  0.7546771E-02  0.1287737E+00
          1   -1    0    0  502    0 -0.00000000000E+00  0.00000000000E+00  0.45394673662E+03  0.45394673662E+03  0.00000000000E+00 0. -1.
         21   -1    0    0  501  502  0.00000000000E+00 -0.00000000000E+00 -0.31161020301E+02  0.31161020301E+02  0.00000000000E+00 0.  1.
         23    2    1    2    0    0  0.12971512560E+02  0.12537733476E+02  0.23682850142E+03  0.25486456022E+03  0.92426998599E+02 0.  0.
         23    2    1    2    0    0 -0.39022756732E+02 -0.28618878343E+02  0.15971541496E+03  0.18992071405E+03  0.90658965969E+02 0.  0.
        -11    1    4    4    0    0 -0.50787138485E+02 -0.91703900553E+01  0.33166983249E+02  0.61347194452E+02  0.00000000000E+00 0.  1.
         11    1    4    4    0    0  0.11764381753E+02 -0.19448488287E+02  0.12654843171E+03  0.12857351960E+03  0.00000000000E+00 0. -1.
        -11    1    3    3    0    0 -0.32532300917E+02  0.25462206699E+02  0.68290009617E+02  0.79813532602E+02  0.00000000000E+00 0.  1.
         11    1    3    3    0    0  0.45503813477E+02 -0.12924473223E+02  0.16853849180E+03  0.17505102761E+03  0.00000000000E+00 0. -1.
          1    1    1    2  501    0  0.26051244172E+02  0.16081144867E+02  0.26241799940E+02  0.40322482652E+02  0.00000000000E+00 0. -1.
<scales pt_clust_5="13000.00000" pt_clust_6="13000.00000" pt_clust_7="13000.00000" pt_clust_8="13000.00000" pt_clust_9="30.61487"></scales>
<clustering>
<clus scale="   30.615">  2  9  1 -1</clus>
<clus scale="   90.659">  5  6 -1 -1</clus>
<clus scale="   92.427">  7  8 -1 -1</clus>
<clus scale="   95.284">  2  5  1 -1</clus>
<clus scale="   30.615">  2  5  1 -1</clus>
</clustering>
</event>
<event>
 9    1  0.1610296E-005  0.1037502E+03  0.7546771E-02  0.1272765E+00
         -3   -1    0    0    0  501 -0.00000000000E+00  0.00000000000E+00  0.24636251163E+03  0.24636251163E+03  0.00000000000E+00 0.  1.
         21   -1    0    0  501  502  0.00000000000E+00 -0.00000000000E+00 -0.12685302528E+03  0.12685302528E+03  0.00000000000E+00 0.  1.
         23    2    1    2    0    0  0.10095011158E+02  0.58689719516E+02  0.18403025410E+03  0.21357549376E+03  0.90559177780E+02 0.  0.
         23    2    1    2    0    0 -0.54344290617E+01 -0.13431820072E+02 -0.16602360344E+02  0.93563025544E+02  0.90931042940E+02 0.  0.
        -11    1    3    3    0    0 -0.30947791735E+02 -0.45203791887E+01  0.37761334320E+02  0.49031806115E+02  0.00000000000E+00 0. -1.
         11    1    3    3    0    0  0.41042802893E+02  0.63210098704E+02  0.14626891978E+03  0.16454368764E+03  0.00000000000E+00 0.  1.
        -13    1    4    4    0    0 -0.31291464215E+02  0.25263802689E+02 -0.23400430988E+02  0.46529513531E+02  0.00000000000E+00 0.  1.
         13    1    4    4    0    0  0.25857035153E+02 -0.38695622761E+02  0.67980706438E+01  0.47033512012E+02  0.00000000000E+00 0. -1.
         -3    1    1    2    0  502 -0.46605820967E+01 -0.45257899444E+02 -0.47918407412E+02  0.66077017612E+02  0.00000000000E+00 0.  1.
<scales pt_clust_5="13000.00000" pt_clust_6="13000.00000" pt_clust_7="13000.00000" pt_clust_8="13000.00000" pt_clust_9="45.49724"></scales>
<clustering>
<clus scale="   45.497">  2  9  1 -1</clus>
<clus scale="   90.559">  5  6 -1 -1</clus>
<clus scale="   90.931">  7  8 -1 -1</clus>
<clus scale="  103.424">  1  5  2 -1</clus>
<clus scale="   45.497">  2  5  1 -1</clus>
</clustering>
</event>
<event>
 9    1  0.1610296E-005  0.9771153E+02  0.7546771E-02  0.1286119E+00
         21   -1    0    0  501  502  0.00000000000E+00  0.00000000000E+00  0.45716850850E+02  0.45716850850E+02  0.00000000000E+00 0.  1.
         -3   -1    0    0    0  501 -0.00000000000E+00 -0.00000000000E+00 -0.47993386232E+03  0.47993386232E+03  0.00000000000E+00 0.  1.
         23    2    1    2    0    0  0.11334274403E+02 -0.17849530620E+02 -0.15291341488E+03  0.18002376932E+03  0.92622748557E+02 0.  0.
         23    2    1    2    0    0  0.71458952271E+02  0.22437521677E+02 -0.17212270764E+03  0.20852758369E+03  0.90816862063E+02 0.  0.
        -13    1    4    4    0    0  0.89756150680E+02  0.26629741668E+01 -0.12027093952E+03  0.15009449326E+03  0.00000000000E+00 0.  1.
         13    1    4    4    0    0 -0.18297198409E+02  0.19774547510E+02 -0.51851768128E+02  0.58433090427E+02  0.00000000000E+00 0. -1.
        -13    1    3    3    0    0 -0.19160371377E+02 -0.38350552247E+02 -0.31574758331E+02  0.53243309933E+02  0.00000000000E+00 0.  1.
         13    1    3    3    0    0  0.30494645780E+02  0.20501021627E+02 -0.12133865655E+03  0.12678045939E+03  0.00000000000E+00 0. -1.
         -3    1    1    2    0  502 -0.82793226674E+02 -0.45879910567E+01 -0.10918088895E+03  0.13709936016E+03  0.00000000000E+00 0.  1.
<scales pt_clust_5="13000.00000" pt_clust_6="13000.00000" pt_clust_7="13000.00000" pt_clust_8="13000.00000" pt_clust_9="82.92025"></scales>
<clustering>
<clus scale="   82.920">  1  9  2 -1</clus>
<clus scale="   90.817">  5  6 -1 -1</clus>
<clus scale="   92.623">  7  8 -1 -1</clus>
<clus scale="   96.001">  1  5  2 -1</clus>
<clus scale="   82.920">  1  5  2 -1</clus>
</clustering>
</event>
<event>
 9    1  0.1610296E-005  0.1381138E+03  0.7546771E-02  0.1218967E+00
         21   -1    0    0  501  502  0.00000000000E+00  0.00000000000E+00  0.72789805827E+02  0.72789805827E+02  0.00000000000E+00 0. -1.
         -3   -1    0    0    0  501 -0.00000000000E+00 -0.00000000000E+00 -0.55084465752E+03  0.55084465752E+03  0.00000000000E+00 0.  1.
         23    2    1    2    0    0 -0.75261162472E+02  0.68763643646E+02 -0.36881570205E+03  0.39361050061E+03  0.92257914830E+02 0.  0.
         23    2    1    2    0    0  0.58797695002E+02 -0.89131347221E+02 -0.13780957639E+03  0.19126627454E+03  0.78674916202E+02 0.  0.
        -13    1    3    3    0    0 -0.52469249272E+02  0.15481025812E+02 -0.68050810477E+02  0.87313212550E+02  0.00000000000E+00 0. -1.
         13    1    3    3    0    0 -0.22791913201E+02  0.53282617833E+02 -0.30076489157E+03  0.30629728806E+03  0.00000000000E+00 0.  1.
        -13    1    4    4    0    0  0.22855879257E+02 -0.77530643281E+02 -0.12940518145E+03  0.15257487621E+03  0.00000000000E+00 0. -1.
         13    1    4    4    0    0  0.35941815745E+02 -0.11600703940E+02 -0.84043949375E+01  0.38691398336E+02  0.00000000000E+00 0.  1.
         -3    1    1    2    0  502  0.16463467471E+02  0.20367703575E+02  0.28570426740E+02  0.38757688195E+02  0.00000000000E+00 0.  1.
<scales pt_clust_5="13000.00000" pt_clust_6="13000.00000" pt_clust_7="13000.00000" pt_clust_8="13000.00000" pt_clust_9="26.18948"></scales>
<clustering>
<clus scale="   26.189">  1  9  2 -1</clus>
<clus scale="   78.675">  7  8 -1 -1</clus>
<clus scale="   92.258">  5  6 -1 -1</clus>
<clus scale="  129.436">  1  7  2 -1</clus>
<clus scale="   26.189">  1  5  2 -1</clus>
</clustering>
</event>
<event>
 9    1  0.1610296E-005  0.1063502E+03  0.7546771E-02  0.1268526E+00
         21   -1    0    0  501  502  0.00000000000E+00  0.00000000000E+00  0.12226528988E+03  0.12226528988E+03  0.00000000000E+00 0. -1.
         -3   -1    0    0    0  501 -0.00000000000E+00 -0.00000000000E+00 -0.13390284925E+03  0.13390284925E+03  0.00000000000E+00 0.  1.
         23    2    1    2    0    0  0.36942206170E+02  0.28743993329E+02 -0.41352687182E+02  0.11141105110E+03  0.92257432339E+02 0.  0.
         23    2    1    2    0    0 -0.56285824511E+02 -0.36753289700E+02  0.42815012499E+02  0.12006029922E+03  0.89791156624E+02 0.  0.
        -11    1    4    4    0    0  0.24265109498E+02 -0.17835560533E+01  0.10270297153E+02  0.26409384975E+02  0.00000000000E+00 0.  1.
         11    1    4    4    0    0 -0.80550934010E+02 -0.34969733647E+02  0.32544715345E+02  0.93650914240E+02  0.00000000000E+00 0. -1.
        -13    1    3    3    0    0  0.63060243647E+02  0.99119944892E+01 -0.46267784503E+02  0.78838758529E+02  0.00000000000E+00 0.  1.
         13    1    3    3    0    0 -0.26118037477E+02  0.18831998839E+02  0.49150973205E+01  0.32572292575E+02  0.00000000000E+00 0. -1.
         -3    1    1    2    0  502  0.19343618342E+02  0.80092963713E+01 -0.13099884687E+02  0.24696788814E+02  0.00000000000E+00 0.  1.
<scales pt_clust_5="13000.00000" pt_clust_6="13000.00000" pt_clust_7="13000.00000" pt_clust_8="13000.00000" pt_clust_9="20.93621"></scales>
<clustering>
<clus scale="   20.936">  1  9  2 -1</clus>
<clus scale="   89.791">  5  6 -1 -1</clus>
<clus scale="   92.257">  7  8 -1 -1</clus>
<clus scale="  104.218">  1  5  2 -1</clus>
<clus scale="   20.936">  1  5  2 -1</clus>
</clustering>
</event>
<event>
 9    1  0.2935346E-005  0.1244558E+03  0.7546771E-02  0.1236192E+00
         -2   -1    0    0    0  501 -0.00000000000E+00  0.00000000000E+00  0.45355995722E+03  0.45355995722E+03  0.00000000000E+00 0.  1.
         21   -1    0    0  501  502  0.00000000000E+00 -0.00000000000E+00 -0.20846245560E+03  0.20846245560E+03  0.00000000000E+00 0. -1.
         23    2    1    2    0    0 -0.25078328908E+02 -0.79778494395E+02  0.36413427082E+03  0.38447327246E+03  0.90732570235E+02 0.  0.
         23    2    1    2    0    0 -0.48244505765E+02  0.11044286750E+03 -0.12706435207E+03  0.19766807909E+03  0.91663300215E+02 0.  0.
        -13    1    3    3    0    0 -0.10279283875E+01 -0.94482133016E+02  0.26187390224E+03  0.27839876215E+03  0.00000000000E+00 0.  1.
         13    1    3    3    0    0 -0.24050400521E+02  0.14703638621E+02  0.10226036858E+03  0.10607451031E+03  0.00000000000E+00 0. -1.
        -13    1    4    4    0    0 -0.22641534071E+00  0.37946899510E+02  0.62922769188E+01  0.38465714541E+02  0.00000000000E+00 0.  1.
         13    1    4    4    0    0 -0.48018090424E+02  0.72495967988E+02 -0.13335662899E+03  0.15920236455E+03  0.00000000000E+00 0. -1.
         -2    1    1    2    0  502  0.73322834673E+02 -0.30664373103E+02  0.80275828719E+01  0.79881061266E+02  0.00000000000E+00 0.  1.
<scales pt_clust_5="13000.00000" pt_clust_6="13000.00000" pt_clust_7="13000.00000" pt_clust_8="13000.00000" pt_clust_9="79.47667"></scales>
<clustering>
<clus scale="   79.477">  2  9  1 -1</clus>
<clus scale="   90.733">  5  6 -1 -1</clus>
<clus scale="   91.663">  7  8 -1 -1</clus>
<clus scale="  123.772">  1  5  2 -1</clus>
<clus scale="   79.477">  2  5  1 -1</clus>
</clustering>
</event>
<event>
 9    1  0.1610296E-005  0.9868293E+02  0.7546771E-02  0.1284866E+00
         21   -1    0    0  501  502  0.00000000000E+00  0.00000000000E+00  0.38785771265E+02  0.38785771265E+02  0.00000000000E+00 0. -1.
         -4   -1    0    0    0  501 -0.00000000000E+00 -0.00000000000E+00 -0.46358942603E+03  0.46358942603E+03  0.00000000000E+00 0.  1.
         23    2    1    2    0    0 -0.88829054414E+01  0.40469660573E+02 -0.26981370958E+03  0.28684521699E+03  0.88113796846E+02 0.  0.
         23    2    1    2    0    0  0.20692960036E+01 -0.20160326543E+02 -0.46109663060E+02  0.10456237171E+03  0.91632242131E+02 0.  0.
        -13    1    4    4    0    0 -0.35640298371E+02 -0.11191385194E+01  0.73691167607E+01  0.36411361151E+02  0.00000000000E+00 0. -1.
         13    1    4    4    0    0  0.37709594375E+02 -0.19041188024E+02 -0.53478779821E+02  0.68151010560E+02  0.00000000000E+00 0.  1.
        -13    1    3    3    0    0  0.35204054531E+02  0.21487830391E+02 -0.18354742971E+03  0.18812419106E+03  0.00000000000E+00 0. -1.
         13    1    3    3    0    0 -0.44086959972E+02  0.18981830181E+02 -0.86266279877E+02  0.98721025929E+02  0.00000000000E+00 0.  1.
         -4    1    1    2    0  502  0.68136094378E+01 -0.20309334030E+02 -0.10888028212E+03  0.11096760860E+03  0.00000000000E+00 0.  1.
<scales pt_clust_5="13000.00000" pt_clust_6="13000.00000" pt_clust_7="13000.00000" pt_clust_8="13000.00000" pt_clust_9="21.42183"></scales>
<clustering>
<clus scale="   21.422">  1  9  2 -1</clus>
<clus scale="   88.114">  7  8 -1 -1</clus>
<clus scale="   91.632">  5  6 -1 -1</clus>
<clus scale="   95.425">  2  7  1 -1</clus>
<clus scale="   21.422">  1  5  2 -1</clus>
</clustering>
</event>
<event>
 9    1  0.1610296E-005  0.9318106E+02  0.7546771E-02  0.1295435E+00
         21   -1    0    0  501  502  0.00000000000E+00  0.00000000000E+00  0.63262557288E+02  0.63262557288E+02  0.00000000000E+00 0. -1.
         -3   -1    0    0    0  501 -0.00000000000E+00 -0.00000000000E+00 -0.56008851950E+03  0.56008851950E+03  0.00000000000E+00 0.  1.
         23    2    1    2    0    0  0.17512286195E+02  0.34866217466E+02 -0.33544305094E+03  0.34974471712E+03  0.90977983255E+02 0.  0.
         23    2    1    2    0    0  0.29597607631E+01  0.86845657516E+01 -0.19462629262E+03  0.21511791783E+03  0.91170954418E+02 0.  0.
        -11    1    3    3    0    0 -0.95086333288E+01 -0.19045765311E+02 -0.22228341567E+02  0.30777499133E+02  0.00000000000E+00 0.  1.
         11    1    3    3    0    0  0.27020919524E+02  0.53911982778E+02 -0.31321470937E+03  0.31896721798E+03  0.00000000000E+00 0. -1.
        -11    1    4    4    0    0 -0.40574913758E+02  0.21442964714E+02 -0.10756860583E+03  0.11694925960E+03  0.00000000000E+00 0. -1.
         11    1    4    4    0    0  0.43534674521E+02 -0.12758398962E+02 -0.87057686788E+02  0.98168658230E+02  0.00000000000E+00 0.  1.
         -3    1    1    2    0  502 -0.20472046958E+02 -0.43550783218E+02  0.33243381345E+02  0.58488441839E+02  0.00000000000E+00 0.  1.
<scales pt_clust_5="13000.00000" pt_clust_6="13000.00000" pt_clust_7="13000.00000" pt_clust_8="13000.00000" pt_clust_9="48.12250"></scales>
<clustering>
<clus scale="   48.123">  1  9  2 -1</clus>
<clus scale="   90.978">  5  6 -1 -1</clus>
<clus scale="   91.171">  7  8 -1 -1</clus>
<clus scale="   92.992">  2  5  1 -1</clus>
<clus scale="   48.123">  1  5  2 -1</clus>
</clustering>
</event>
<event>
 9    1  0.1610296E-005  0.9996772E+02  0.7546771E-02  0.1281594E+00
          1   -1    0    0  502    0 -0.00000000000E+00  0.00000000000E+00  0.21976765081E+03  0.21976765081E+03  0.00000000000E+00 0. -1.
         21   -1    0    0  501  502  0.00000000000E+00 -0.00000000000E+00 -0.78356793375E+02  0.78356793375E+02  0.00000000000E+00 0. -1.
         23    2    1    2    0    0 -0.49869698409E+02 -0.67016146921E+01  0.10364841842E+03  0.14669855950E+03  0.90805144447E+02 0.  0.
         23    2    1    2    0    0  0.32660710582E+02 -0.47161871567E+01  0.67009910474E+02  0.11562183397E+03  0.88255968359E+02 0.  0.
        -11    1    3    3    0    0  0.24458635947E+02  0.69053192531E+01  0.42383723224E+02  0.49419513360E+02  0.00000000000E+00 0. -1.
         11    1    3    3    0    0 -0.74328334356E+02 -0.13606933945E+02  0.61264695197E+02  0.97279046136E+02  0.00000000000E+00 0.  1.
        -13    1    4    4    0    0 -0.21272929635E+02  0.18099769756E+02  0.18185506808E+01  0.27990111237E+02  0.00000000000E+00 0.  1.
         13    1    4    4    0    0  0.53933640217E+02 -0.22815956913E+02  0.65191359793E+02  0.87631722730E+02  0.00000000000E+00 0. -1.
          1    1    1    2  501    0  0.17208987827E+02  0.11417801849E+02 -0.29247471462E+02  0.35804050721E+02  0.00000000000E+00 0. -1.
<scales pt_clust_5="13000.00000" pt_clust_6="13000.00000" pt_clust_7="13000.00000" pt_clust_8="13000.00000" pt_clust_9="20.65225"></scales>
<clustering>
<clus scale="   20.652">  2  9  1 -1</clus>
<clus scale="   88.256">  7  8 -1 -1</clus>
<clus scale="   90.805">  5  6 -1 -1</clus>
<clus scale="   97.658">  2  7  1 -1</clus>
<clus scale="   20.652">  2  5  1 -1</clus>
</clustering>
</event>
<event>
 9    1  0.1610296E-005  0.9221810E+02  0.7546771E-02  0.1298064E+00
         -2   -1    0    0    0  501 -0.00000000000E+00  0.00000000000E+00  0.14018149015E+03  0.14018149015E+03  0.00000000000E+00 0.  1.
         21   -1    0    0  501  502  0.00000000000E+00 -0.00000000000E+00 -0.18821616510E+03  0.18821616510E+03  0.00000000000E+00 0.  1.
         23    2    1    2    0    0 -0.51501640635E+01  0.22530310292E+02  0.62989667761E+02  0.11296578073E+03  0.90881407892E+02 0.  0.
         23    2    1    2    0    0  0.40949916699E+02  0.40298648897E+02 -0.39908741076E+02  0.11400934647E+03  0.90025255826E+02 0.  0.
        -11    1    4    4    0    0  0.14423791453E+02  0.67122720238E+02 -0.30524025215E+02  0.75134688709E+02  0.00000000000E+00 0.  1.
         11    1    4    4    0    0  0.26526125246E+02 -0.26824071341E+02 -0.93847158607E+01  0.38874657756E+02  0.00000000000E+00 0. -1.
        -13    1    3    3    0    0  0.41238269737E+02 -0.54670866494E-01  0.35986391746E+02  0.54732241601E+02  0.00000000000E+00 0.  1.
         13    1    3    3    0    0 -0.46388433800E+02  0.22584981159E+02  0.27003276016E+02  0.58233539133E+02  0.00000000000E+00 0. -1.
         -2    1    1    2    0  502 -0.35799752636E+02 -0.62828959190E+02 -0.71115601630E+02  0.10142252805E+03  0.00000000000E+00 0.  1.
<scales pt_clust_5="13000.00000" pt_clust_6="13000.00000" pt_clust_7="13000.00000" pt_clust_8="13000.00000" pt_clust_9="72.31252"></scales>
<clustering>
<clus scale="   72.313">  2  9  1 -1</clus>
<clus scale="   90.025">  5  6 -1 -1</clus>
<clus scale="   90.881">  7  8 -1 -1</clus>
<clus scale="   91.374">  2  5  1 -1</clus>
<clus scale="   72.313">  2  5  1 -1</clus>
</clustering>
</event>
<event>
 9    1  0.1610296E-005  0.1129928E+03  0.7546771E-02  0.1265612E+00
         21   -1    0    0  501  502  0.00000000000E+00  0.00000000000E+00  0.57892254290E+02  0.57892254290E+02  0.00000000000E+00 0.  1.
          1   -1    0    0  502    0 -0.00000000000E+00 -0.00000000000E+00 -0.27437994405E+03  0.27437994405E+03  0.00000000000E+00 0. -1.
         23    2    1    2    0    0 -0.60641573308E+01 -0.15837130040E+02 -0.14980475579E+03  0.17564921798E+03  0.90130983730E+02 0.  0.
         23    2    1    2    0    0  0.30296002267E+02  0.66117104418E+01 -0.52886666302E+02  0.12725245641E+03  0.11151065295E+03 0.  0.
        -11    1    4    4    0    0  0.36116970415E+02  0.51249150116E+02 -0.71905976159E+01  0.63107968068E+02  0.00000000000E+00 0.  1.
         11    1    4    4    0    0 -0.58209681476E+01 -0.44637439674E+02 -0.45696068686E+02  0.64144488338E+02  0.00000000000E+00 0. -1.
        -11    1    3    3    0    0  0.34798141396E+02 -0.57740246696E+01 -0.23165127603E+02  0.42200392680E+02  0.00000000000E+00 0.  1.
         11    1    3    3    0    0 -0.40862298727E+02 -0.10063105370E+02 -0.12663962819E+03  0.13344882530E+03  0.00000000000E+00 0. -1.
          1    1    1    2  501    0 -0.24231844936E+02  0.92254195980E+01 -0.13796267671E+02  0.29370523956E+02  0.00000000000E+00 0. -1.
<scales pt_clust_5="13000.00000" pt_clust_6="13000.00000" pt_clust_7="13000.00000" pt_clust_8="13000.00000" pt_clust_9="25.92857"></scales>
<clustering>
<clus scale="   25.929">  1  9  2 -1</clus>
<clus scale="   90.131">  7  8 -1 -1</clus>
<clus scale="   91.958">  2  7  1 -1</clus>
<clus scale="  111.511">  5  6 -1 -1</clus>
<clus scale="   25.929">  1  5  2 -1</clus>
</clustering>
</event>
<event>
 9    1  0.1610296E-005  0.3737154E+03  0.7546771E-02  0.1053294E+00
         21   -1    0    0  501  502  0.00000000000E+00  0.00000000000E+00  0.16996841493E+03  0.16996841493E+03  0.00000000000E+00 0. -1.
         -2   -1    0    0    0  501 -0.00000000000E+00 -0.00000000000E+00 -0.13208638409E+04  0.13208638409E+04  0.00000000000E+00 0.  1.
         23    2    1    2    0    0 -0.32945516370E+03 -0.16047077382E+03 -0.87213347801E+03  0.95045535484E+03  0.91961970064E+02 0.  0.
         23    2    1    2    0    0  0.32995912485E+03  0.12849450175E+03 -0.32154394058E+03  0.48696309344E+03  0.91425858470E+02 0.  0.
        -11    1    4    4    0    0  0.15242844151E+03  0.19173197290E+02 -0.17052971622E+03  0.22952652437E+03  0.00000000000E+00 0.  1.
         11    1    4    4    0    0  0.17753068334E+03  0.10932130446E+03 -0.15101422437E+03  0.25743656908E+03  0.00000000000E+00 0. -1.
        -13    1    3    3    0    0 -0.23644046125E+03 -0.14146805452E+03 -0.72240240044E+03  0.77316397376E+03  0.00000000000E+00 0.  1.
         13    1    3    3    0    0 -0.93014702455E+02 -0.19002719296E+02 -0.14973107757E+03  0.17729138107E+03  0.00000000000E+00 0. -1.
         -2    1    1    2    0  502 -0.50396115077E+00  0.31976272070E+02  0.42781992578E+02  0.53413807590E+02  0.00000000000E+00 0.  1.
<scales pt_clust_5="13000.00000" pt_clust_6="13000.00000" pt_clust_7="13000.00000" pt_clust_8="13000.00000" pt_clust_9="31.98024"></scales>
<clustering>
<clus scale="   31.980">  1  9  2 -1</clus>
<clus scale="   91.426">  5  6 -1 -1</clus>
<clus scale="   91.962">  7  8 -1 -1</clus>
<clus scale="  373.584">  1  5  2 -1</clus>
<clus scale="   31.980">  1  5  2 -1</clus>
</clustering>
</event>
<event>
 9    1  0.1610296E-005  0.1104029E+03  0.7546771E-02  0.1264605E+00
         21   -1    0    0  501  502  0.00000000000E+00  0.00000000000E+00  0.23651455329E+03  0.23651455329E+03  0.00000000000E+00 0. -1.
         -3   -1    0    0    0  501 -0.00000000000E+00 -0.00000000000E+00 -0.12571828614E+03  0.12571828614E+03  0.00000000000E+00 0.  1.
         23    2    1    2    0    0  0.29598442995E+02 -0.59151878889E+02 -0.69993125723E+02  0.12286366788E+03  0.76298300321E+02 0.  0.
         23    2    1    2    0    0 -0.56562845161E+01  0.66228530108E+02  0.83420342438E+02  0.13885032791E+03  0.88894590796E+02 0.  0.
        -11    1    4    4    0    0 -0.52991073490E+01 -0.21355643399E+02  0.26276628356E+02  0.34272514373E+02  0.00000000000E+00 0.  1.
         11    1    4    4    0    0 -0.35717716702E+00  0.87584173507E+02  0.57143714081E+02  0.10457781353E+03  0.00000000000E+00 0. -1.
        -11    1    3    3    0    0  0.31728367111E+02 -0.18380829042E+02 -0.73241866278E+02  0.81907967449E+02  0.00000000000E+00 0.  1.
         11    1    3    3    0    0 -0.21299241156E+01 -0.40771049846E+02  0.32487405547E+01  0.40955700428E+02  0.00000000000E+00 0. -1.
         -3    1    1    2    0  502 -0.23942158479E+02 -0.70766512191E+01  0.97369050437E+02  0.10051884365E+03  0.00000000000E+00 0.  1.
<scales pt_clust_5="13000.00000" pt_clust_6="13000.00000" pt_clust_7="13000.00000" pt_clust_8="13000.00000" pt_clust_9="24.96610"></scales>
<clustering>
<clus scale="   24.966">  1  9  2 -1</clus>
<clus scale="   76.298">  7  8 -1 -1</clus>
<clus scale="   88.895">  5  6 -1 -1</clus>
<clus scale="  100.538">  2  7  1 -1</clus>
<clus scale="   24.966">  1  5  2 -1</clus>
</clustering>
</event>
<event>
 9    1  0.1610296E-005  0.1034084E+03  0.7546771E-02  0.1273689E+00
         21   -1    0    0  501  502  0.00000000000E+00  0.00000000000E+00  0.25720395794E+02  0.25720395794E+02  0.00000000000E+00 0. -1.
          2   -1    0    0  502    0 -0.00000000000E+00 -0.00000000000E+00 -0.73205483442E+03  0.73205483442E+03  0.00000000000E+00 0. -1.
         23    2    1    2    0    0  0.56170592234E+02 -0.28370126784E+01 -0.41910098798E+03  0.43294860832E+03  0.92928333902E+02 0.  0.
         23    2    1    2    0    0 -0.27253051768E+02  0.91782552137E+01 -0.27640809110E+03  0.29330482130E+03  0.93804670327E+02 0.  0.
        -11    1    4    4    0    0 -0.45301401672E+02 -0.30241563056E+02 -0.16501542439E+03  0.17377243572E+03  0.00000000000E+00 0.  1.
         11    1    4    4    0    0  0.18048349904E+02  0.39419818270E+02 -0.11139266671E+03  0.11953238559E+03  0.00000000000E+00 0. -1.
        -13    1    3    3    0    0  0.71736427249E+02 -0.17654891205E+02 -0.38905906342E+03  0.39601106678E+03  0.00000000000E+00 0. -1.
         13    1    3    3    0    0 -0.15565835015E+02  0.14817878527E+02 -0.30041924561E+02  0.36937541540E+02  0.00000000000E+00 0.  1.
          2    1    1    2  501    0 -0.28917540466E+02 -0.63412425353E+01 -0.10825359543E+02  0.31521800594E+02  0.00000000000E+00 0. -1.
<scales pt_clust_5="13000.00000" pt_clust_6="13000.00000" pt_clust_7="13000.00000" pt_clust_8="13000.00000" pt_clust_9="29.60465"></scales>
<clustering>
<clus scale="   29.605">  1  9  2 -1</clus>
<clus scale="   92.928">  7  8 -1 -1</clus>
<clus scale="   93.805">  5  6 -1 -1</clus>
<clus scale="  102.614">  2  7  1 -1</clus>
<clus scale="   29.605">  1  5  2 -1</clus>
</clustering>
</event>
<event>
 9    1  0.1610296E-005  0.1052454E+03  0.7546771E-02  0.1272902E+00
          1   -1    0    0  502    0 -0.00000000000E+00  0.00000000000E+00  0.43473332721E+03  0.43473332721E+03  0.00000000000E+00 0. -1.
         21   -1    0    0  501  502  0.00000000000E+00 -0.00000000000E+00 -0.43988515933E+02  0.43988515933E+02  0.00000000000E+00 0.  1.
         23    2    1    2    0    0  0.20619908411E+02 -0.59090463612E+02  0.23325022714E+03  0.26052332953E+03  0.97723452933E+02 0.  0.
         23    2    1    2    0    0  0.88193455738E+01  0.16042354657E+02  0.12893885870E+03  0.15874063933E+03  0.90764658826E+02 0.  0.
        -13    1    4    4    0    0  0.47191078404E+02  0.23276079549E+02  0.62750181291E+02  0.81892362355E+02  0.00000000000E+00 0. -1.
         13    1    4    4    0    0 -0.38371732831E+02 -0.72337248919E+01  0.66188677414E+02  0.76848276975E+02  0.00000000000E+00 0.  1.
        -13    1    3    3    0    0  0.36570069936E+02 -0.48101561374E+01  0.24592394121E+02  0.44331630534E+02  0.00000000000E+00 0. -1.
         13    1    3    3    0    0 -0.15950161525E+02 -0.54280307474E+02  0.20865783302E+03  0.21619169899E+03  0.00000000000E+00 0.  1.
          1    1    1    2  501    0 -0.29439253985E+02  0.43048108955E+02  0.28555725431E+02  0.59457874286E+02  0.00000000000E+00 0. -1.
<scales pt_clust_5="13000.00000" pt_clust_6="13000.00000" pt_clust_7="13000.00000" pt_clust_8="13000.00000" pt_clust_9="52.15179"></scales>
<clustering>
<clus scale="   52.152">  2  9  1 -1</clus>
<clus scale="   90.765">  5  6 -1 -1</clus>
<clus scale="   97.723">  7  8 -1 -1</clus>
<clus scale="   98.818">  2  5  1 -1</clus>
<clus scale="   52.152">  2  5  1 -1</clus>
</clustering>
</event>
<event>
 9    1  0.1610296E-005  0.2048201E+03  0.7546771E-02  0.1146606E+00
         -1   -1    0    0    0  501 -0.00000000000E+00  0.00000000000E+00  0.93576049298E+02  0.93576049298E+02  0.00000000000E+00 0.  1.
         21   -1    0    0  501  502  0.00000000000E+00 -0.00000000000E+00 -0.66493683298E+03  0.66493683298E+03  0.00000000000E+00 0.  1.
         23    2    1    2    0    0 -0.67728637769E+02  0.20310874645E+03 -0.22382810434E+03  0.32295360386E+03  0.91431278522E+02 0.  0.
         23    2    1    2    0    0  0.54049336714E+02 -0.13466931510E+03 -0.31966233565E+03  0.36040719862E+03  0.81560926642E+02 0.  0.
        -11    1    4    4    0    0  0.70105348412E+02 -0.67215555367E+02 -0.18594118545E+03  0.20977801412E+03  0.00000000000E+00 0.  1.
         11    1    4    4    0    0 -0.16056011698E+02 -0.67453759734E+02 -0.13372115020E+03  0.15062918450E+03  0.00000000000E+00 0. -1.
        -11    1    3    3    0    0 -0.83111071189E+02  0.19028689291E+03 -0.22008954408E+03  0.30258215277E+03  0.00000000000E+00 0.  1.
         11    1    3    3    0    0  0.15382433420E+02  0.12821853548E+02 -0.37385602613E+01  0.20371451082E+02  0.00000000000E+00 0. -1.
         -1    1    1    2    0  502  0.13679301055E+02 -0.68439431353E+02 -0.27870343697E+02  0.75152079806E+02  0.00000000000E+00 0.  1.
<scales pt_clust_5="13000.00000" pt_clust_6="13000.00000" pt_clust_7="13000.00000" pt_clust_8="13000.00000" pt_clust_9="69.79315"></scales>
<clustering>
<clus scale="   69.793">  2  9  1 -1</clus>
<clus scale="   81.561">  5  6 -1 -1</clus>
<clus scale="   91.431">  7  8 -1 -1</clus>
<clus scale="  200.609">  2  5  1 -1</clus>
<clus scale="   69.793">  2  5  1 -1</clus>
</clustering>
</event>
<event>
 9    1  0.1610296E-005  0.1018527E+03  0.7546771E-02  0.1276663E+00
          1   -1    0    0  502    0 -0.00000000000E+00  0.00000000000E+00  0.32670387209E+03  0.32670387209E+03  0.00000000000E+00 0. -1.
         21   -1    0    0  501  502  0.00000000000E+00 -0.00000000000E+00 -0.22155451642E+03  0.22155451642E+03  0.00000000000E+00 0. -1.
         23    2    1    2    0    0  0.21116090499E+02  0.40593834620E+02  0.18398589663E+03  0.20982237050E+03  0.89893650027E+02 0.  0.
         23    2    1    2    0    0 -0.44028792776E+02 -0.29358351970E+02  0.10766614632E+03  0.15019553256E+03  0.90367314402E+02 0.  0.
        -11    1    4    4    0    0 -0.27563270435E+02  0.23196896346E+02  0.81734683418E+02  0.89321824604E+02  0.00000000000E+00 0. -1.
         11    1    4    4    0    0 -0.16465522341E+02 -0.52555248317E+02  0.25931462907E+02  0.60873707954E+02  0.00000000000E+00 0.  1.
        -13    1    3    3    0    0  0.41969485998E+02  0.28120048271E+02  0.17767399548E+03  0.18471660332E+03  0.00000000000E+00 0.  1.
         13    1    3    3    0    0 -0.20853395499E+02  0.12473786349E+02  0.63119011492E+01  0.25105767183E+02  0.00000000000E+00 0. -1.
          1    1    1    2  501    0  0.22912702277E+02 -0.11235482650E+02 -0.18650268729E+03  0.18824048545E+03  0.00000000000E+00 0. -1.
<scales pt_clust_5="13000.00000" pt_clust_6="13000.00000" pt_clust_7="13000.00000" pt_clust_8="13000.00000" pt_clust_9="25.51917"></scales>
<clustering>
<clus scale="   25.519">  2  9  1 -1</clus>
<clus scale="   89.894">  7  8 -1 -1</clus>
<clus scale="   90.367">  5  6 -1 -1</clus>
<clus scale="  101.433">  1  7  2 -1</clus>
<clus scale="   25.519">  2  5  1 -1</clus>
</clustering>
</event>
<event>
 9    1  0.1610296E-005  0.1435224E+03  0.7546771E-02  0.1224709E+00
         21   -1    0    0  501  502  0.00000000000E+00  0.00000000000E+00  0.14290409446E+03  0.14290409446E+03  0.00000000000E+00 0.  1.
         -3   -1    0    0    0  501 -0.00000000000E+00 -0.00000000000E+00 -0.39852667730E+03  0.39852667730E+03  0.00000000000E+00 0.  1.
         23    2    1    2    0    0 -0.45912624092E+02 -0.78959185471E+01 -0.23028521604E+03  0.25197894966E+03  0.91059298072E+02 0.  0.
         23    2    1    2    0    0  0.12774153130E+03 -0.56062507683E+02 -0.64537381824E+02  0.17844150042E+03  0.90638798707E+02 0.  0.
        -11    1    3    3    0    0 -0.81587431006E+01  0.31664796622E+02 -0.15795092967E+03  0.16130009491E+03  0.00000000000E+00 0.  1.
         11    1    3    3    0    0 -0.37753880992E+02 -0.39560715169E+02 -0.72334286369E+02  0.90678854752E+02  0.00000000000E+00 0. -1.
        -13    1    4    4    0    0  0.10607309260E+03 -0.69658104981E+02 -0.78579985767E+02  0.14926006407E+03  0.00000000000E+00 0.  1.
         13    1    4    4    0    0  0.21668438710E+02  0.13595597298E+02  0.14042603943E+02  0.29181436351E+02  0.00000000000E+00 0. -1.
         -3    1    1    2    0  502 -0.81828907212E+02  0.63958426230E+02  0.39200015028E+02  0.11101032168E+03  0.00000000000E+00 0.  1.
<scales pt_clust_5="13000.00000" pt_clust_6="13000.00000" pt_clust_7="13000.00000" pt_clust_8="13000.00000" pt_clust_9="111.28020"></scales>
<clustering>
<clus scale="   90.639">  7  8 -1 -1</clus>
<clus scale="   91.059">  5  6 -1 -1</clus>
<clus scale="  102.284">  2  5  1 -1</clus>
<clus scale="  111.280">  1  9  2 -1</clus>
<clus scale="  111.280">  1  5  2 -1</clus>
</clustering>
</event>
<event>
 9    1  0.1610296E-005  0.1581329E+03  0.7546771E-02  0.1191069E+00
         21   -1    0    0  501  502  0.00000000000E+00  0.00000000000E+00  0.14112662742E+04  0.14112662742E+04  0.00000000000E+00 0. -1.
         -1   -1    0    0    0  501 -0.00000000000E+00 -0.00000000000E+00 -0.26528206484E+02  0.26528206484E+02  0.00000000000E+00 0.  1.
         23    2    1    2    0    0  0.65379597039E+02 -0.99983677764E+02  0.35318457371E+03  0.38342690946E+03  0.89474154151E+02 0.  0.
         23    2    1    2    0    0 -0.96896380635E+02  0.12263070643E+03  0.85060269206E+03  0.86930166870E+03  0.87938914668E+02 0.  0.
        -11    1    3    3    0    0  0.84645818285E+02 -0.93428679455E+02  0.32554302265E+03  0.34910183657E+03  0.00000000000E+00 0.  1.
         11    1    3    3    0    0 -0.19266221246E+02 -0.65549983090E+01  0.27641551058E+02  0.34325072889E+02  0.00000000000E+00 0. -1.
        -11    1    4    4    0    0 -0.70680005648E+02  0.12385222206E+03  0.79655693464E+03  0.80922060418E+03  0.00000000000E+00 0. -1.
         11    1    4    4    0    0 -0.26216374987E+02 -0.12215156251E+01  0.54045757417E+02  0.60081064510E+02  0.00000000000E+00 0.  1.
         -1    1    1    2    0  502  0.31516783596E+02 -0.22647028668E+02  0.18095080196E+03  0.18506590255E+03  0.00000000000E+00 0.  1.
<scales pt_clust_5="13000.00000" pt_clust_6="13000.00000" pt_clust_7="13000.00000" pt_clust_8="13000.00000" pt_clust_9="38.80974"></scales>
<clustering>
<clus scale="   38.810">  1  9  2 -1</clus>
<clus scale="   87.939">  7  8 -1 -1</clus>
<clus scale="   89.474">  5  6 -1 -1</clus>
<clus scale="  157.269">  1  7  2 -1</clus>
<clus scale="   38.810">  1  5  2 -1</clus>
</clustering>
</event>
<event>
 9    1  0.1610296E-005  0.1533140E+03  0.7546771E-02  0.1197315E+00
          2   -1    0    0  502    0 -0.00000000000E+00  0.00000000000E+00  0.67345716976E+03  0.67345716976E+03  0.00000000000E+00 0.  1.
         21   -1    0    0  501  502  0.00000000000E+00 -0.00000000000E+00 -0.10974327918E+03  0.10974327918E+03  0.00000000000E+00 0. -1.
         23    2    1    2    0    0  0.69635599291E+02 -0.85420198332E+02  0.46108365044E+03  0.48347015629E+03  0.94865865033E+02 0.  0.
         23    2    1    2    0    0 -0.11755438042E+03  0.11513982028E+03  0.13821101905E+03  0.23305602970E+03  0.90203196290E+02 0.  0.
        -11    1    4    4    0    0 -0.29926802931E+02  0.29404301503E+02  0.93643976756E+02  0.10261296635E+03  0.00000000000E+00 0.  1.
         11    1    4    4    0    0 -0.87627577493E+02  0.85735518772E+02  0.44567042298E+02  0.13044306335E+03  0.00000000000E+00 0. -1.
        -11    1    3    3    0    0  0.23275094415E+02 -0.77990638367E+02  0.38914477857E+03  0.39756499894E+03  0.00000000000E+00 0.  1.
         11    1    3    3    0    0  0.46360504876E+02 -0.74295599653E+01  0.71938871870E+02  0.85905157351E+02  0.00000000000E+00 0. -1.
          2    1    1    2  501    0  0.47918781132E+02 -0.29719621943E+02 -0.35580778911E+02  0.66674262962E+02  0.00000000000E+00 0.  1.
<scales pt_clust_5="13000.00000" pt_clust_6="13000.00000" pt_clust_7="13000.00000" pt_clust_8="13000.00000" pt_clust_9="56.38675"></scales>
<clustering>
<clus scale="   56.387">  2  9  1 -1</clus>
<clus scale="   90.203">  5  6 -1 -1</clus>
<clus scale="   94.866">  7  8 -1 -1</clus>
<clus scale="  150.473">  2  5  1 -1</clus>
<clus scale="   56.387">  2  5  1 -1</clus>
</clustering>
</event>
<event>
 9    1  0.1610296E-005  0.1131323E+03  0.7546771E-02  0.1261875E+00
          1   -1    0    0  502    0 -0.00000000000E+00  0.00000000000E+00  0.32361609597E+02  0.32361609597E+02  0.00000000000E+00 0. -1.
         21   -1    0    0  501  502  0.00000000000E+00 -0.00000000000E+00 -0.49528005764E+03  0.49528005764E+03  0.00000000000E+00 0.  1.
         23    2    1    2    0    0  0.94087269962E+01  0.46180350065E+02 -0.14877950230E+03  0.18437431337E+03  0.98170251352E+02 0.  0.
         23    2    1    2    0    0 -0.33960486060E+02 -0.63465018259E+02 -0.24909443072E+03  0.27162701913E+03  0.80944913034E+02 0.  0.
        -11    1    4    4    0    0 -0.19343449495E+02  0.13189996947E+02 -0.10683033477E+03  0.10936574182E+03  0.00000000000E+00 0.  1.
         11    1    4    4    0    0 -0.14617036566E+02 -0.76655015206E+02 -0.14226409596E+03  0.16226127730E+03  0.00000000000E+00 0. -1.
        -13    1    3    3    0    0  0.33326853356E+02  0.16414162197E+01 -0.73312822349E+01  0.34163154144E+02  0.00000000000E+00 0.  1.
         13    1    3    3    0    0 -0.23918126360E+02  0.44538933845E+02 -0.14144822007E+03  0.15021115923E+03  0.00000000000E+00 0. -1.
          1    1    1    2  501    0  0.24551759064E+02  0.17284668194E+02 -0.65044515019E+02  0.71640334741E+02  0.00000000000E+00 0. -1.
<scales pt_clust_5="13000.00000" pt_clust_6="13000.00000" pt_clust_7="13000.00000" pt_clust_8="13000.00000" pt_clust_9="30.02580"></scales>
<clustering>
<clus scale="   30.026">  2  9  1 -1</clus>
<clus scale="   80.945">  5  6 -1 -1</clus>
<clus scale="   98.170">  7  8 -1 -1</clus>
<clus scale="   98.558">  2  5  1 -1</clus>
<clus scale="   30.026">  2  5  1 -1</clus>
</clustering>
</event>
<event>
 9    1  0.1610296E-005  0.1169259E+03  0.7546771E-02  0.1249285E+00
         21   -1    0    0  501  502  0.00000000000E+00  0.00000000000E+00  0.32992787869E+03  0.32992787869E+03  0.00000000000E+00 0. -1.
          1   -1    0    0  502    0 -0.00000000000E+00 -0.00000000000E+00 -0.54945855197E+03  0.54945855197E+03  0.00000000000E+00 0. -1.
         23    2    1    2    0    0  0.59185862975E+02 -0.67380390182E+02 -0.34009185555E+03  0.36373707486E+03  0.92731365036E+02 0.  0.
         23    2    1    2    0    0 -0.54961515634E+02  0.11875534284E+02 -0.18062264270E+03  0.20936463441E+03  0.89706268293E+02 0.  0.
        -11    1    3    3    0    0  0.81499588005E+02 -0.56076527769E+02 -0.22230293064E+03  0.24332150087E+03  0.00000000000E+00 0. -1.
         11    1    3    3    0    0 -0.22313725030E+02 -0.11303862413E+02 -0.11778892491E+03  0.12041557400E+03  0.00000000000E+00 0.  1.
        -13    1    4    4    0    0 -0.64476807254E+02 -0.58318059883E+01 -0.64043339337E+02  0.91064910631E+02  0.00000000000E+00 0.  1.
         13    1    4    4    0    0  0.95152916200E+01  0.17707340272E+02 -0.11657930336E+03  0.11829972378E+03  0.00000000000E+00 0. -1.
          1    1    1    2  501    0 -0.42243473419E+01  0.55504855899E+02  0.30118382496E+03  0.30628472139E+03  0.00000000000E+00 0. -1.
<scales pt_clust_5="13000.00000" pt_clust_6="13000.00000" pt_clust_7="13000.00000" pt_clust_8="13000.00000" pt_clust_9="55.66538"></scales>
<clustering>
<clus scale="   55.665">  1  9  2 -1</clus>
<clus scale="   89.706">  7  8 -1 -1</clus>
<clus scale="   92.731">  5  6 -1 -1</clus>
<clus scale="  114.542">  1  7  2 -1</clus>
<clus scale="   55.665">  1  5  2 -1</clus>
</clustering>
</event>
<event>
 9    1  0.1610296E-005  0.1108535E+03  0.7546771E-02  0.1263963E+00
          2   -1    0    0  502    0 -0.00000000000E+00  0.00000000000E+00  0.81316868369E+03  0.81316868369E+03  0.00000000000E+00 0. -1.
         21   -1    0    0  501  502  0.00000000000E+00 -0.00000000000E+00 -0.31297782907E+02  0.31297782907E+02  0.00000000000E+00 0. -1.
         23    2    1    2    0    0 -0.33182627902E+02 -0.66753191858E+01  0.47930024314E+03  0.48911105930E+03  0.91407103524E+02 0.  0.
         23    2    1    2    0    0  0.50715205413E+02  0.54808597509E+02  0.25770580203E+03  0.28725945275E+03  0.10261431856E+03 0.  0.
        -11    1    3    3    0    0  0.18622517313E+02  0.26720898135E+02  0.11066144371E+03  0.11535492912E+03  0.00000000000E+00 0. -1.
         11    1    3    3    0    0 -0.51805145216E+02 -0.33396217321E+02  0.36863879943E+03  0.37375613018E+03  0.00000000000E+00 0.  1.
        -11    1    4    4    0    0 -0.10222701024E+02 -0.24492532920E+02  0.45682860212E+02  0.52832863846E+02  0.00000000000E+00 0.  1.
         11    1    4    4    0    0  0.60937906437E+02  0.79301130429E+02  0.21202294182E+03  0.23442658890E+03  0.00000000000E+00 0. -1.
          2    1    1    2  501    0 -0.17532577511E+02 -0.48133278324E+02  0.44864855611E+02  0.68095954545E+02  0.00000000000E+00 0. -1.
<scales pt_clust_5="13000.00000" pt_clust_6="13000.00000" pt_clust_7="13000.00000" pt_clust_8="13000.00000" pt_clust_9="51.22698"></scales>
<clustering>
<clus scale="   51.227">  2  9  1 -1</clus>
<clus scale="   91.407">  5  6 -1 -1</clus>
<clus scale="  100.569">  1  5  2 -1</clus>
<clus scale="  102.614">  7  8 -1 -1</clus>
<clus scale="   51.227">  2  5  1 -1</clus>
</clustering>
</event>
<event>
 9    1  0.1610296E-005  0.9911354E+02  0.7546771E-02  0.1288469E+00
         21   -1    0    0  501  502  0.00000000000E+00  0.00000000000E+00  0.76392860109E+02  0.76392860109E+02  0.00000000000E+00 0. -1.
          3   -1    0    0  502    0 -0.00000000000E+00 -0.00000000000E+00 -0.38500247404E+03  0.38500247404E+03  0.00000000000E+00 0. -1.
         23    2    1    2    0    0  0.15137138255E+02  0.19342030235E+02 -0.23428693074E+03  0.25119511400E+03  0.87208785648E+02 0.  0.
         23    2    1    2    0    0 -0.59911970041E+00  0.34522154350E+02 -0.10376676440E+03  0.14711568732E+03  0.98403993691E+02 0.  0.
        -13    1    3    3    0    0  0.41224151734E+02  0.36402397709E+02 -0.10899236498E+03  0.12208153369E+03  0.00000000000E+00 0.  1.
         13    1    3    3    0    0 -0.26087013479E+02 -0.17060367474E+02 -0.12529456577E+03  0.12911358031E+03  0.00000000000E+00 0. -1.
        -13    1    4    4    0    0  0.48549105178E+02  0.15578088908E+02 -0.59093724287E+02  0.78049732336E+02  0.00000000000E+00 0.  1.
         13    1    4    4    0    0 -0.49148224878E+02  0.18944065442E+02 -0.44673040115E+02  0.69065954980E+02  0.00000000000E+00 0. -1.
          3    1    1    2  501    0 -0.14538018555E+02 -0.53864184586E+02  0.29444081209E+02  0.63084532834E+02  0.00000000000E+00 0. -1.
<scales pt_clust_5="13000.00000" pt_clust_6="13000.00000" pt_clust_7="13000.00000" pt_clust_8="13000.00000" pt_clust_9="55.79162"></scales>
<clustering>
<clus scale="   55.792">  1  9  2 -1</clus>
<clus scale="   87.209">  5  6 -1 -1</clus>
<clus scale="   88.009">  2  5  1 -1</clus>
<clus scale="   98.404">  7  8 -1 -1</clus>
<clus scale="   55.792">  1  5  2 -1</clus>
</clustering>
</event>
<event>
 9    1  0.1639206E-005  0.9298144E+02  0.7546771E-02  0.1296873E+00
          3   -1    0    0  502    0 -0.00000000000E+00  0.00000000000E+00  0.19305015450E+03  0.19305015450E+03  0.00000000000E+00 0. -1.
         21   -1    0    0  501  502  0.00000000000E+00 -0.00000000000E+00 -0.25847445521E+03  0.25847445521E+03  0.00000000000E+00 0. -1.
         23    2    1    2    0    0  0.16920701318E+02  0.26798179475E+02  0.12904459971E+03  0.16071424576E+03  0.90399709745E+02 0.  0.
         23    2    1    2    0    0  0.34683270351E+02 -0.31368354348E+01 -0.74793522912E+01  0.95393066351E+02  0.88493657503E+02 0.  0.
        -13    1    4    4    0    0  0.62126961031E+01 -0.31526242072E+02 -0.34348410580E+02  0.47035251051E+02  0.00000000000E+00 0.  1.
         13    1    4    4    0    0  0.28470574248E+02  0.28389406637E+02  0.26869058289E+02  0.48357815300E+02  0.00000000000E+00 0. -1.
        -13    1    3    3    0    0  0.29819935047E+02 -0.23357600122E+02  0.27774327242E+02  0.46970408381E+02  0.00000000000E+00 0.  1.
         13    1    3    3    0    0 -0.12899233729E+02  0.50155779597E+02  0.10127027246E+03  0.11374383738E+03  0.00000000000E+00 0. -1.
          3    1    1    2  501    0 -0.51603971670E+02 -0.23661344040E+02 -0.18698954812E+03  0.19541729760E+03  0.00000000000E+00 0. -1.
<scales pt_clust_5="13000.00000" pt_clust_6="13000.00000" pt_clust_7="13000.00000" pt_clust_8="13000.00000" pt_clust_9="56.76997"></scales>
<clustering>
<clus scale="   56.770">  2  9  1 -1</clus>
<clus scale="   88.494">  5  6 -1 -1</clus>
<clus scale="   90.400">  7  8 -1 -1</clus>
<clus scale="   91.129">  2  5  1 -1</clus>
<clus scale="   56.770">  2  5  1 -1</clus>
</clustering>
</event>
<event>
 9    1  0.1610296E-005  0.1254616E+03  0.7546771E-02  0.1243625E+00
         -1   -1    0    0    0  501 -0.00000000000E+00  0.00000000000E+00  0.42994009334E+03  0.42994009334E+03  0.00000000000E+00 0.  1.
         21   -1    0    0  501  502  0.00000000000E+00 -0.00000000000E+00 -0.63833697799E+02  0.63833697799E+02  0.00000000000E+00 0. -1.
         23    2    1    2    0    0  0.29919038522E+02 -0.29316484030E+02  0.31059931168E+03  0.32720887485E+03  0.94016542468E+02 0.  0.
         23    2    1    2    0    0 -0.53060102432E+02  0.25207400028E+02  0.56742034387E+02  0.14302944279E+03  0.11741795243E+03 0.  0.
        -11    1    4    4    0    0  0.13975223416E+01 -0.43228245364E+02  0.25198642385E+02  0.50056027049E+02  0.00000000000E+00 0.  1.
         11    1    4    4    0    0 -0.54457624773E+02  0.68435645392E+02  0.31543392003E+02  0.92973415745E+02  0.00000000000E+00 0. -1.
        -11    1    3    3    0    0 -0.13699411019E+02 -0.47757902754E+02  0.21312562269E+03  0.21884017498E+03  0.00000000000E+00 0.  1.
         11    1    3    3    0    0  0.43618449541E+02  0.18441418724E+02  0.97473688993E+02  0.10836869987E+03  0.00000000000E+00 0. -1.
         -1    1    1    2    0  502  0.23141063910E+02  0.41090840017E+01 -0.12349505254E+01  0.23535473503E+02  0.00000000000E+00 0.  1.
<scales pt_clust_5="13000.00000" pt_clust_6="13000.00000" pt_clust_7="13000.00000" pt_clust_8="13000.00000" pt_clust_9="23.50305"></scales>
<clustering>
<clus scale="   23.503">  2  9  1 -1</clus>
<clus scale="   94.017">  7  8 -1 -1</clus>
<clus scale="  103.888">  1  7  2 -1</clus>
<clus scale="  117.418">  5  6 -1 -1</clus>
<clus scale="   23.503">  2  5  1 -1</clus>
</clustering>
</event>
<event>
 9    1  0.1610296E-005  0.1578870E+03  0.7546771E-02  0.1195645E+00
         21   -1    0    0  501  502  0.00000000000E+00  0.00000000000E+00  0.22950298951E+03  0.22950298951E+03  0.00000000000E+00 0. -1.
         -3   -1    0    0    0  501 -0.00000000000E+00 -0.00000000000E+00 -0.42345497557E+03  0.42345497557E+03  0.00000000000E+00 0.  1.
         23    2    1    2    0    0  0.34871627337E+02  0.10280425775E+03 -0.30431202468E+03  0.34261295182E+03  0.11398719483E+03 0.  0.
         23    2    1    2    0    0 -0.13914003128E+03 -0.65264964196E+02  0.64946914865E+02  0.19058086825E+03  0.92105926721E+02 0.  0.
        -11    1    3    3    0    0  0.93158910275E+00 -0.24640229624E+02 -0.62209544121E+02  0.66918130233E+02  0.00000000000E+00 0. -1.
         11    1    3    3    0    0  0.33940038234E+02  0.12744448738E+03 -0.24210248056E+03  0.27569482159E+03  0.00000000000E+00 0.  1.
        -11    1    4    4    0    0 -0.12234835328E+03 -0.46366846387E+02  0.86924937631E+02  0.15708261768E+03  0.00000000000E+00 0. -1.
         11    1    4    4    0    0 -0.16791677996E+02 -0.18898117809E+02 -0.21978022766E+02  0.33498250571E+02  0.00000000000E+00 0.  1.
         -3    1    1    2    0  502  0.10426840394E+03 -0.37539293557E+02  0.45413123749E+02  0.11976414501E+03  0.00000000000E+00 0.  1.
<scales pt_clust_5="13000.00000" pt_clust_6="13000.00000" pt_clust_7="13000.00000" pt_clust_8="13000.00000" pt_clust_9="110.82012"></scales>
<clustering>
<clus scale="   92.106">  7  8 -1 -1</clus>
<clus scale="  110.820">  1  9  2 -1</clus>
<clus scale="  113.987">  5  6 -1 -1</clus>
<clus scale="  142.894">  1  7  2 -1</clus>
<clus scale="  110.820">  1  5  2 -1</clus>
</clustering>
</event>
<event>
 9    1  0.1610296E-005  0.9525436E+02  0.7546771E-02  0.1291042E+00
         -3   -1    0    0    0  501 -0.00000000000E+00  0.00000000000E+00  0.19199646688E+03  0.19199646688E+03  0.00000000000E+00 0.  1.
         21   -1    0    0  501  502  0.00000000000E+00 -0.00000000000E+00 -0.12386012886E+03  0.12386012886E+03  0.00000000000E+00 0.  1.
         23    2    1    2    0    0 -0.54748231289E+01  0.31497699860E+02  0.12339204036E+03  0.15721066313E+03  0.92019118632E+02 0.  0.
         23    2    1    2    0    0  0.42306765113E+01 -0.53507363790E+01  0.63694029493E+01  0.91691730345E+02  0.91215542076E+02 0.  0.
        -13    1    3    3    0    0  0.18055646162E+02  0.19204244781E+02  0.12763236868E+03  0.13032586432E+03  0.00000000000E+00 0.  1.
         13    1    3    3    0    0 -0.23530469291E+02  0.12293455079E+02 -0.42403283226E+01  0.26884798811E+02  0.00000000000E+00 0. -1.
        -13    1    4    4    0    0  0.12569275327E+02  0.41189638225E+02 -0.41177527666E+01  0.43261170432E+02  0.00000000000E+00 0.  1.
         13    1    4    4    0    0 -0.83385988154E+01 -0.46540374604E+02  0.10487155716E+02  0.48430559913E+02  0.00000000000E+00 0. -1.
         -3    1    1    2    0  502  0.12441466175E+01 -0.26146963481E+02 -0.61625105282E+02  0.66954202266E+02  0.00000000000E+00 0.  1.
<scales pt_clust_5="13000.00000" pt_clust_6="13000.00000" pt_clust_7="13000.00000" pt_clust_8="13000.00000" pt_clust_9="26.17655"></scales>
<clustering>
<clus scale="   26.177">  2  9  1 -1</clus>
<clus scale="   91.216">  7  8 -1 -1</clus>
<clus scale="   92.019">  5  6 -1 -1</clus>
<clus scale="   94.478">  2  7  1 -1</clus>
<clus scale="   26.177">  2  5  1 -1</clus>
</clustering>
</event>
<event>
 9    1  0.1610296E-005  0.1103391E+03  0.7546771E-02  0.1260337E+00
          1   -1    0    0  502    0 -0.00000000000E+00  0.00000000000E+00  0.27681506598E+03  0.27681506598E+03  0.00000000000E+00 0. -1.
         21   -1    0    0  501  502  0.00000000000E+00 -0.00000000000E+00 -0.90020298130E+02  0.90020298130E+02  0.00000000000E+00 0.  1.
         23    2    1    2    0    0 -0.42503295786E+02  0.55512841448E+02  0.94374878158E+02  0.14933499845E+03  0.92228620378E+02 0.  0.
         23    2    1    2    0    0  0.58925736287E+02 -0.17371292720E+00  0.64685892739E-01  0.10858939575E+03  0.91210635960E+02 0.  0.
        -11    1    3    3    0    0 -0.65551942939E+02  0.42975711002E+02  0.94908516897E+02  0.12309181751E+03  0.00000000000E+00 0. -1.
         11    1    3    3    0    0  0.23048647153E+02  0.12537130447E+02 -0.53363873876E+00  0.26243180938E+02  0.00000000000E+00 0.  1.
        -11    1    4    4    0    0  0.70346930892E+02 -0.26761726441E+02  0.13861775942E+02  0.76531232319E+02  0.00000000000E+00 0.  1.
         11    1    4    4    0    0 -0.11421194605E+02  0.26588013513E+02 -0.13797090049E+02  0.32058163432E+02  0.00000000000E+00 0. -1.
          1    1    1    2  501    0 -0.16422440501E+02 -0.55339128521E+02  0.92355203803E+02  0.10891096991E+03  0.00000000000E+00 0. -1.
<scales pt_clust_5="13000.00000" pt_clust_6="13000.00000" pt_clust_7="13000.00000" pt_clust_8="13000.00000" pt_clust_9="57.72451"></scales>
<clustering>
<clus scale="   57.725">  2  9  1 -1</clus>
<clus scale="   91.211">  7  8 -1 -1</clus>
<clus scale="   92.229">  5  6 -1 -1</clus>
<clus scale="  109.490">  2  7  1 -1</clus>
<clus scale="   57.725">  2  5  1 -1</clus>
</clustering>
</event>
<event>
 9    1  0.1610296E-005  0.1297917E+03  0.7546771E-02  0.1236909E+00
          1   -1    0    0  502    0 -0.00000000000E+00  0.00000000000E+00  0.14055502279E+03  0.14055502279E+03  0.00000000000E+00 0. -1.
         21   -1    0    0  501  502  0.00000000000E+00 -0.00000000000E+00 -0.40250077378E+03  0.40250077378E+03  0.00000000000E+00 0. -1.
         23    2    1    2    0    0 -0.43115595975E+02  0.61070110491E+02  0.37291181395E+02  0.14382267885E+03  0.11707184859E+03 0.  0.
         23    2    1    2    0    0  0.56314837536E+01 -0.40307304456E+02 -0.35584341237E+01  0.10046577159E+03  0.91784074898E+02 0.  0.
        -11    1    3    3    0    0  0.65508516767E+01 -0.20485474631E+02 -0.22526616716E+02  0.31145092539E+02  0.00000000000E+00 0.  1.
         11    1    3    3    0    0 -0.49666447652E+02  0.81555585122E+02  0.59817798111E+02  0.11267758631E+03  0.00000000000E+00 0. -1.
        -13    1    4    4    0    0 -0.30202317210E+02 -0.50786018098E+02  0.11521352557E+02  0.60200840225E+02  0.00000000000E+00 0.  1.
         13    1    4    4    0    0  0.35833800964E+02  0.10478713641E+02 -0.15079786681E+02  0.40264931360E+02  0.00000000000E+00 0. -1.
          1    1    1    2  501    0  0.37484112221E+02 -0.20762806034E+02 -0.29567849826E+03  0.29876734614E+03  0.00000000000E+00 0. -1.
<scales pt_clust_5="13000.00000" pt_clust_6="13000.00000" pt_clust_7="13000.00000" pt_clust_8="13000.00000" pt_clust_9="42.85035"></scales>
<clustering>
<clus scale="   42.850">  2  9  1 -1</clus>
<clus scale="   91.784">  7  8 -1 -1</clus>
<clus scale="  107.538">  2  7  1 -1</clus>
<clus scale="  117.072">  5  6 -1 -1</clus>
<clus scale="   42.850">  2  5  1 -1</clus>
</clustering>
</event>
<event>
 9    1  0.1610296E-005  0.1046029E+03  0.7546771E-02  0.1275221E+00
          1   -1    0    0  502    0 -0.00000000000E+00  0.00000000000E+00  0.18725468977E+03  0.18725468977E+03  0.00000000000E+00 0. -1.
         21   -1    0    0  501  502  0.00000000000E+00 -0.00000000000E+00 -0.20441164072E+03  0.20441164072E+03  0.00000000000E+00 0. -1.
         23    2    1    2    0    0  0.24099271162E+02 -0.28348454738E+02  0.12281044388E+03  0.16306477247E+03  0.10061463680E+03 0.  0.
         23    2    1    2    0    0 -0.45356563900E+00  0.88887389314E+01 -0.75101472735E+01  0.92650381637E+02  0.91915589014E+02 0.  0.
        -11    1    4    4    0    0  0.31320629582E+01 -0.39559441966E+02  0.10147634421E+02  0.40960148332E+02  0.00000000000E+00 0. -1.
         11    1    4    4    0    0 -0.35856285972E+01  0.48448180898E+02 -0.17657781694E+02  0.51690233305E+02  0.00000000000E+00 0.  1.
        -13    1    3    3    0    0  0.46737342438E+02 -0.12095317211E+02  0.12607850327E+03  0.13500542531E+03  0.00000000000E+00 0. -1.
         13    1    3    3    0    0 -0.22638071276E+02 -0.16253137527E+02 -0.32680593976E+01  0.28059347155E+02  0.00000000000E+00 0.  1.
          1    1    1    2  501    0 -0.23645705523E+02  0.19459715806E+02 -0.13245724756E+03  0.13595117638E+03  0.00000000000E+00 0. -1.
<scales pt_clust_5="13000.00000" pt_clust_6="13000.00000" pt_clust_7="13000.00000" pt_clust_8="13000.00000" pt_clust_9="30.62352"></scales>
<clustering>
<clus scale="   30.624">  2  9  1 -1</clus>
<clus scale="   91.916">  5  6 -1 -1</clus>
<clus scale="   96.265">  2  5  1 -1</clus>
<clus scale="  100.615">  7  8 -1 -1</clus>
<clus scale="   30.624">  2  5  1 -1</clus>
</clustering>
</event>
<event>
 9    1  0.1610296E-005  0.9743665E+02  0.7546771E-02  0.1286578E+00
         21   -1    0    0  501  502  0.00000000000E+00  0.00000000000E+00  0.44167137006E+02  0.44167137006E+02  0.00000000000E+00 0. -1.
          1   -1    0    0  502    0 -0.00000000000E+00 -0.00000000000E+00 -0.67138896519E+03  0.67138896519E+03  0.00000000000E+00 0. -1.
         23    2    1    2    0    0 -0.17503924327E+02 -0.13703649996E+02 -0.33266345545E+03  0.34574571437E+03  0.91547512386E+02 0.  0.
         23    2    1    2    0    0  0.45632493089E+02  0.14915584773E+02 -0.31750602300E+03  0.33348849609E+03  0.89998351592E+02 0.  0.
        -13    1    3    3    0    0  0.27146937145E+01  0.36224415874E+02 -0.87623226545E+02  0.94854666187E+02  0.00000000000E+00 0. -1.
         13    1    3    3    0    0 -0.20218618041E+02 -0.49928065869E+02 -0.24504022891E+03  0.25089104819E+03  0.00000000000E+00 0.  1.
        -13    1    4    4    0    0 -0.21674587176E+02  0.40610683241E+01 -0.25887232926E+02  0.34006305793E+02  0.00000000000E+00 0.  1.
         13    1    4    4    0    0  0.67307080265E+02  0.10854516449E+02 -0.29161879007E+03  0.29948219029E+03  0.00000000000E+00 0. -1.
          1    1    1    2  501    0 -0.28128568762E+02 -0.12119347772E+01  0.22947650265E+02  0.36321891735E+02  0.00000000000E+00 0. -1.
<scales pt_clust_5="13000.00000" pt_clust_6="13000.00000" pt_clust_7="13000.00000" pt_clust_8="13000.00000" pt_clust_9="28.15467"></scales>
<clustering>
<clus scale="   28.155">  1  9  2 -1</clus>
<clus scale="   89.998">  7  8 -1 -1</clus>
<clus scale="   91.548">  5  6 -1 -1</clus>
<clus scale="   95.983">  1  7  2 -1</clus>
<clus scale="   28.155">  1  5  2 -1</clus>
</clustering>
</event>
<event>
 9    1  0.1610296E-005  0.1389107E+03  0.7546771E-02  0.1218791E+00
          2   -1    0    0  502    0 -0.00000000000E+00  0.00000000000E+00  0.39953432519E+03  0.39953432519E+03  0.00000000000E+00 0. -1.
         21   -1    0    0  501  502  0.00000000000E+00 -0.00000000000E+00 -0.17730724089E+03  0.17730724089E+03  0.00000000000E+00 0. -1.
         23    2    1    2    0    0  0.77254403886E+02 -0.19332622679E+02  0.17493677576E+03  0.21319688390E+03  0.92239051227E+02 0.  0.
         23    2    1    2    0    0 -0.93695761471E+02  0.37048770221E+02  0.17787277350E+03  0.23084422932E+03  0.10723258629E+03 0.  0.
        -13    1    3    3    0    0 -0.21107307342E+02 -0.73689693834E+01  0.39431254013E+02  0.45328180264E+02  0.00000000000E+00 0.  1.
         13    1    3    3    0    0  0.98361711229E+02 -0.11963653296E+02  0.13550552175E+03  0.16786870364E+03  0.00000000000E+00 0. -1.
        -13    1    4    4    0    0 -0.65271809120E+02  0.52322474570E+01  0.17639267251E+03  0.18815461832E+03  0.00000000000E+00 0. -1.
         13    1    4    4    0    0 -0.28423952351E+02  0.31816522764E+02  0.14801009892E+01  0.42689610996E+02  0.00000000000E+00 0.  1.
          2    1    1    2  501    0  0.16441357585E+02 -0.17716147542E+02 -0.13058246497E+03  0.13280045286E+03  0.00000000000E+00 0. -1.
<scales pt_clust_5="13000.00000" pt_clust_6="13000.00000" pt_clust_7="13000.00000" pt_clust_8="13000.00000" pt_clust_9="24.16982"></scales>
<clustering>
<clus scale="   24.170">  2  9  1 -1</clus>
<clus scale="   92.239">  5  6 -1 -1</clus>
<clus scale="  107.233">  7  8 -1 -1</clus>
<clus scale="  127.693">  1  5  2 -1</clus>
<clus scale="   24.170">  2  5  1 -1</clus>
</clustering>
</event>
<event>
 9    1  0.1610296E-005  0.2347255E+03  0.7546771E-02  0.1139289E+00
         21   -1    0    0  501  502  0.00000000000E+00  0.00000000000E+00  0.86709901087E+02  0.86709901087E+02  0.00000000000E+00 0. -1.
          2   -1    0    0  502    0 -0.00000000000E+00 -0.00000000000E+00 -0.12622713064E+04  0.12622713064E+04  0.00000000000E+00 0. -1.
         23    2    1    2    0    0  0.11639090965E+03 -0.61332276057E+02 -0.21882243389E+03  0.27041100934E+03  0.89052593808E+02 0.  0.
         23    2    1    2    0    0 -0.35404460057E+02 -0.16881874262E+03 -0.68963152712E+03  0.71680413669E+03  0.91996106059E+02 0.  0.
        -11    1    3    3    0    0  0.10308668069E+03 -0.79042379032E+02 -0.15164906154E+03  0.19967974179E+03  0.00000000000E+00 0. -1.
         11    1    3    3    0    0  0.13304228968E+02  0.17710102975E+02 -0.67173372350E+02  0.70731267546E+02  0.00000000000E+00 0.  1.
        -11    1    4    4    0    0 -0.18321942507E+02 -0.51053506575E+02 -0.86908142813E+02  0.10244598283E+03  0.00000000000E+00 0.  1.
         11    1    4    4    0    0 -0.17082517550E+02 -0.11776523604E+03 -0.60272338430E+03  0.61435815386E+03  0.00000000000E+00 0. -1.
          2    1    1    2  501    0 -0.80986449596E+02  0.23015101868E+03 -0.26710744430E+03  0.36176606145E+03  0.00000000000E+00 0. -1.
<scales pt_clust_5="13000.00000" pt_clust_6="13000.00000" pt_clust_7="13000.00000" pt_clust_8="13000.00000" pt_clust_9="215.94623"></scales>
<clustering>
<clus scale="   89.053">  5  6 -1 -1</clus>
<clus scale="   91.996">  7  8 -1 -1</clus>
<clus scale="  158.867">  2  5  1 -1</clus>
<clus scale="  215.946">  1  9  2 -1</clus>
<clus scale="  215.946">  1  5  2 -1</clus>
</clustering>
</event>
<event>
 9    1  0.1610296E-005  0.1116408E+03  0.7546771E-02  0.1262654E+00
         21   -1    0    0  501  502  0.00000000000E+00  0.00000000000E+00  0.17417648298E+03  0.17417648298E+03  0.00000000000E+00 0.  1.
         -2   -1    0    0    0  501 -0.00000000000E+00 -0.00000000000E+00 -0.34833216411E+03  0.34833216411E+03  0.00000000000E+00 0.  1.
         23    2    1    2    0    0  0.22777619942E+02 -0.31851053296E+02 -0.19049495439E+03  0.21952223368E+03  0.10182521233E+03 0.  0.
         23    2    1    2    0    0 -0.43080810758E+02  0.10627991654E+03  0.10927018155E+03  0.18220550036E+03  0.90041628535E+02 0.  0.
        -11    1    4    4    0    0 -0.66138405531E+02  0.85419590662E+02  0.10529837882E+03  0.15085935084E+03  0.00000000000E+00 0.  1.
         11    1    4    4    0    0  0.23057594773E+02  0.20860325877E+02  0.39718027316E+01  0.31346149514E+02  0.00000000000E+00 0. -1.
        -11    1    3    3    0    0 -0.39923990925E+02 -0.22036811775E+02 -0.82098145203E+02  0.93913000008E+02  0.00000000000E+00 0. -1.
         11    1    3    3    0    0  0.62701610867E+02 -0.98142415217E+01 -0.10839680918E+03  0.12560923367E+03  0.00000000000E+00 0.  1.
         -2    1    1    2    0  502  0.20303190816E+02 -0.74428863243E+02 -0.92930908297E+02  0.12078091305E+03  0.00000000000E+00 0.  1.
<scales pt_clust_5="13000.00000" pt_clust_6="13000.00000" pt_clust_7="13000.00000" pt_clust_8="13000.00000" pt_clust_9="77.14844"></scales>
<clustering>
<clus scale="   77.148">  1  9  2 -1</clus>
<clus scale="   90.042">  5  6 -1 -1</clus>
<clus scale="  101.009">  1  5  2 -1</clus>
<clus scale="  101.825">  7  8 -1 -1</clus>
<clus scale="   77.148">  1  5  2 -1</clus>
</clustering>
</event>
<event>
 9    1  0.1610296E-005  0.1010410E+03  0.7546771E-02  0.1285104E+00
         -2   -1    0    0    0  501 -0.00000000000E+00  0.00000000000E+00  0.36057648491E+03  0.36057648491E+03  0.00000000000E+00 0.  1.
         21   -1    0    0  501  502  0.00000000000E+00 -0.00000000000E+00 -0.69340980422E+02  0.69340980422E+02  0.00000000000E+00 0.  1.
         23    2    1    2    0    0  0.11302549989E+02  0.50323656514E+02  0.27210712511E+03  0.29130311041E+03  0.90305019565E+02 0.  0.
         23    2    1    2    0    0 -0.23147570854E+02 -0.24533934737E+02  0.49716664252E+02  0.96888374516E+02  0.76012409657E+02 0.  0.
        -11    1    3    3    0    0 -0.21639535440E+02  0.64563921951E+02  0.17589643946E+03  0.18861687869E+03  0.00000000000E+00 0.  1.
         11    1    3    3    0    0  0.32942085429E+02 -0.14240265437E+02  0.96210685647E+02  0.10268623172E+03  0.00000000000E+00 0. -1.
        -13    1    4    4    0    0  0.20640023838E+02 -0.29441588538E+02  0.93979146154E+01  0.37163672030E+02  0.00000000000E+00 0. -1.
         13    1    4    4    0    0 -0.43787594691E+02  0.49076538013E+01  0.40318749637E+02  0.59724702486E+02  0.00000000000E+00 0.  1.
         -2    1    1    2    0  502  0.11845020865E+02 -0.25789721777E+02 -0.30588284877E+02  0.41725980400E+02  0.00000000000E+00 0.  1.
<scales pt_clust_5="13000.00000" pt_clust_6="13000.00000" pt_clust_7="13000.00000" pt_clust_8="13000.00000" pt_clust_9="28.37982"></scales>
<clustering>
<clus scale="   28.380">  2  9  1 -1</clus>
<clus scale="   76.012">  7  8 -1 -1</clus>
<clus scale="   88.500">  2  7  1 -1</clus>
<clus scale="   90.305">  5  6 -1 -1</clus>
<clus scale="   28.380">  2  5  1 -1</clus>
</clustering>
</event>
<event>
 9    1  0.1610296E-005  0.1235535E+03  0.7546771E-02  0.1237752E+00
         21   -1    0    0  501  502  0.00000000000E+00  0.00000000000E+00  0.79272869708E+02  0.79272869708E+02  0.00000000000E+00 0. -1.
          1   -1    0    0  502    0 -0.00000000000E+00 -0.00000000000E+00 -0.52871313492E+03  0.52871313492E+03  0.00000000000E+00 0. -1.
         23    2    1    2    0    0  0.67572317542E+02  0.56719776271E+02 -0.39118968294E+03  0.41087696258E+03  0.89483848961E+02 0.  0.
         23    2    1    2    0    0 -0.43796814229E+02 -0.58000814519E+02 -0.97095311270E+02  0.15154778013E+03  0.90867897355E+02 0.  0.
        -11    1    4    4    0    0 -0.29388158100E+02 -0.76997975320E+02 -0.44184167778E+02  0.93512527087E+02  0.00000000000E+00 0. -1.
         11    1    4    4    0    0 -0.14408656129E+02  0.18997160801E+02 -0.52911143492E+02  0.58035253042E+02  0.00000000000E+00 0.  1.
        -13    1    3    3    0    0 -0.18832941702E+02  0.11992956589E+02 -0.13500353553E+03  0.13683736809E+03  0.00000000000E+00 0.  1.
         13    1    3    3    0    0  0.86405259244E+02  0.44726819682E+02 -0.25618614741E+03  0.27403959449E+03  0.00000000000E+00 0. -1.
          1    1    1    2  501    0 -0.23775503314E+02  0.12810382478E+01  0.38844728996E+02  0.45561261918E+02  0.00000000000E+00 0. -1.
<scales pt_clust_5="13000.00000" pt_clust_6="13000.00000" pt_clust_7="13000.00000" pt_clust_8="13000.00000" pt_clust_9="23.80999"></scales>
<clustering>
<clus scale="   23.810">  1  9  2 -1</clus>
<clus scale="   89.484">  7  8 -1 -1</clus>
<clus scale="   90.868">  5  6 -1 -1</clus>
<clus scale="  122.539">  2  7  1 -1</clus>
<clus scale="   23.810">  1  5  2 -1</clus>
</clustering>
</event>
<event>
 9    1  0.1610296E-005  0.1283308E+03  0.7546771E-02  0.1230832E+00
         21   -1    0    0  501  502  0.00000000000E+00  0.00000000000E+00  0.33946419707E+03  0.33946419707E+03  0.00000000000E+00 0.  1.
         -1   -1    0    0    0  501 -0.00000000000E+00 -0.00000000000E+00 -0.85987783837E+02  0.85987783837E+02  0.00000000000E+00 0.  1.
         23    2    1    2    0    0  0.13052268059E+02  0.81167539745E+02 -0.13389900592E+01  0.12336715368E+03  0.91973531533E+02 0.  0.
         23    2    1    2    0    0 -0.28272492953E+02 -0.97973654011E+02  0.21474811032E+03  0.25604692232E+03  0.95105755889E+02 0.  0.
        -11    1    3    3    0    0  0.90499550603E+00 -0.20710848879E+02  0.77969564442E+00  0.20745269423E+02  0.00000000000E+00 0. -1.
         11    1    3    3    0    0  0.12147272553E+02  0.10187838862E+03 -0.21186857036E+01  0.10262188426E+03  0.00000000000E+00 0.  1.
        -11    1    4    4    0    0 -0.31988516519E+02  0.78337183124E+01  0.41079806566E+02  0.52651522668E+02  0.00000000000E+00 0. -1.
         11    1    4    4    0    0  0.37160235665E+01 -0.10580737232E+03  0.17366830376E+03  0.20339539965E+03  0.00000000000E+00 0.  1.
         -1    1    1    2    0  502  0.15220224894E+02  0.16806114266E+02  0.40067292966E+02  0.46037904906E+02  0.00000000000E+00 0.  1.
<scales pt_clust_5="13000.00000" pt_clust_6="13000.00000" pt_clust_7="13000.00000" pt_clust_8="13000.00000" pt_clust_9="22.67379"></scales>
<clustering>
<clus scale="   22.674">  1  9  2 -1</clus>
<clus scale="   91.974">  5  6 -1 -1</clus>
<clus scale="   95.106">  7  8 -1 -1</clus>
<clus scale="  126.027">  2  5  1 -1</clus>
<clus scale="   22.674">  1  5  2 -1</clus>
</clustering>
</event>
<event>
 9    1  0.1610296E-005  0.1260063E+03  0.7546771E-02  0.1233714E+00
         21   -1    0    0  501  502  0.00000000000E+00  0.00000000000E+00  0.44697328817E+02  0.44697328817E+02  0.00000000000E+00 0.  1.
          2   -1    0    0  502    0 -0.00000000000E+00 -0.00000000000E+00 -0.45501182547E+03  0.45501182547E+03  0.00000000000E+00 0. -1.
         23    2    1    2    0    0  0.80055070208E+02 -0.10397131878E+02 -0.16786590098E+03  0.20680423245E+03  0.89844951054E+02 0.  0.
         23    2    1    2    0    0 -0.87580435655E+02  0.41199737633E+02 -0.19900851159E+03  0.23912320978E+03  0.90596747627E+02 0.  0.
        -11    1    3    3    0    0  0.66529987015E+02 -0.35406785443E+02 -0.16068161251E+03  0.17747805562E+03  0.00000000000E+00 0.  1.
         11    1    3    3    0    0  0.13525083193E+02  0.25009653565E+02 -0.71842884744E+01  0.29326176834E+02  0.00000000000E+00 0. -1.
        -11    1    4    4    0    0 -0.37868014406E+02  0.56734518143E+02 -0.60609933528E+02  0.91248869068E+02  0.00000000000E+00 0.  1.
         11    1    4    4    0    0 -0.49712421250E+02 -0.15534780510E+02 -0.13839857806E+03  0.14787434071E+03  0.00000000000E+00 0. -1.
          2    1    1    2  501    0  0.75253654475E+01 -0.30802605755E+02 -0.43440084084E+02  0.53781712056E+02  0.00000000000E+00 0. -1.
<scales pt_clust_5="13000.00000" pt_clust_6="13000.00000" pt_clust_7="13000.00000" pt_clust_8="13000.00000" pt_clust_9="31.70854"></scales>
<clustering>
<clus scale="   31.709">  1  9  2 -1</clus>
<clus scale="   89.845">  5  6 -1 -1</clus>
<clus scale="   90.597">  7  8 -1 -1</clus>
<clus scale="  125.467">  2  5  1 -1</clus>
<clus scale="   31.709">  1  5  2 -1</clus>
</clustering>
</event>
<event>
 9    1  0.1610296E-005  0.1272164E+03  0.7546771E-02  0.1232118E+00
         -4   -1    0    0    0  501 -0.00000000000E+00  0.00000000000E+00  0.28645062742E+03  0.28645062742E+03  0.00000000000E+00 0.  1.
         21   -1    0    0  501  502  0.00000000000E+00 -0.00000000000E+00 -0.23325596997E+03  0.23325596997E+03  0.00000000000E+00 0.  1.
         23    2    1    2    0    0  0.62279745164E+02 -0.63147002308E+02  0.22507131428E+03  0.25914986803E+03  0.92926029876E+02 0.  0.
         23    2    1    2    0    0 -0.46681807113E+02  0.50084135277E+02 -0.34608582918E+02  0.12178908803E+03  0.94589725814E+02 0.  0.
        -11    1    4    4    0    0 -0.47301909388E+01  0.22243944386E+02  0.31399961697E+02  0.38770160726E+02  0.00000000000E+00 0.  1.
         11    1    4    4    0    0 -0.41951616174E+02  0.27840190891E+02 -0.66008544614E+02  0.83018927303E+02  0.00000000000E+00 0. -1.
        -13    1    3    3    0    0  0.16461313769E+02  0.19548807988E+02  0.94826843972E+02  0.98210290105E+02  0.00000000000E+00 0. -1.
         13    1    3    3    0    0  0.45818431395E+02 -0.82695810296E+02  0.13024447031E+03  0.16093957792E+03  0.00000000000E+00 0.  1.
         -4    1    1    2    0  502 -0.15597938051E+02  0.13062867031E+02 -0.13726807391E+03  0.13876764134E+03  0.00000000000E+00 0.  1.
<scales pt_clust_5="13000.00000" pt_clust_6="13000.00000" pt_clust_7="13000.00000" pt_clust_8="13000.00000" pt_clust_9="20.34537"></scales>
<clustering>
<clus scale="   20.345">  2  9  1 -1</clus>
<clus scale="   92.926">  7  8 -1 -1</clus>
<clus scale="   94.590">  5  6 -1 -1</clus>
<clus scale="  125.984">  1  7  2 -1</clus>
<clus scale="   20.345">  2  5  1 -1</clus>
</clustering>
</event>
<event>
 9    1  0.1610296E-005  0.1080982E+03  0.7546771E-02  0.1264222E+00
          3   -1    0    0  502    0 -0.00000000000E+00  0.00000000000E+00  0.35271126937E+03  0.35271126937E+03  0.00000000000E+00 0. -1.
         21   -1    0    0  501  502  0.00000000000E+00 -0.00000000000E+00 -0.63191336696E+02  0.63191336696E+02  0.00000000000E+00 0.  1.
         23    2    1    2    0    0 -0.34777534110E+02 -0.70290850496E+02  0.14041618844E+03  0.18446495242E+03  0.90334556792E+02 0.  0.
         23    2    1    2    0    0 -0.11338054508E+02  0.36157588214E+02  0.35195451752E+02  0.10389618509E+03  0.90109792956E+02 0.  0.
        -13    1    3    3    0    0 -0.29928040140E+02  0.73242214790E+01  0.95874013300E+01  0.32268406703E+02  0.00000000000E+00 0.  1.
         13    1    3    3    0    0 -0.48494939697E+01 -0.77615071975E+02  0.13082878711E+03  0.15219654571E+03  0.00000000000E+00 0. -1.
        -13    1    4    4    0    0 -0.26556049917E+02  0.17971000066E+02  0.60960522046E+02  0.68879357421E+02  0.00000000000E+00 0. -1.
         13    1    4    4    0    0  0.15217995409E+02  0.18186588147E+02 -0.25765070294E+02  0.35016827668E+02  0.00000000000E+00 0.  1.
          3    1    1    2  501    0  0.46115588617E+02  0.34133262282E+02  0.11390829248E+03  0.12754146856E+03  0.00000000000E+00 0. -1.
<scales pt_clust_5="13000.00000" pt_clust_6="13000.00000" pt_clust_7="13000.00000" pt_clust_8="13000.00000" pt_clust_9="57.37360"></scales>
<clustering>
<clus scale="   57.374">  2  9  1 -1</clus>
<clus scale="   90.110">  7  8 -1 -1</clus>
<clus scale="   90.335">  5  6 -1 -1</clus>
<clus scale="  107.910">  2  7  1 -1</clus>
<clus scale="   57.374">  2  5  1 -1</clus>
</clustering>
</event>
<event>
 9    1  0.1610296E-005  0.9617422E+02  0.7546771E-02  0.1290781E+00
         -1   -1    0    0    0  501 -0.00000000000E+00  0.00000000000E+00  0.49392991802E+03  0.49392991802E+03  0.00000000000E+00 0.  1.
         21   -1    0    0  501  502  0.00000000000E+00 -0.00000000000E+00 -0.91947732781E+02  0.91947732781E+02  0.00000000000E+00 0.  1.
         23    2    1    2    0    0 -0.34545060398E+01  0.59214449041E+01  0.27155704517E+03  0.28767427886E+03  0.94690362851E+02 0.  0.
         23    2    1    2    0    0 -0.33004861334E+02 -0.21765067167E+02  0.19712244774E+03  0.22055778811E+03  0.90694208598E+02 0.  0.
        -11    1    4    4    0    0 -0.18972032703E+02  0.34547670692E+02  0.99001856081E+02  0.10655912482E+03  0.00000000000E+00 0. -1.
         11    1    4    4    0    0 -0.14032828631E+02 -0.56312737859E+02  0.98120591661E+02  0.11399866329E+03  0.00000000000E+00 0.  1.
        -13    1    3    3    0    0 -0.45537551884E+02 -0.13208154964E+02  0.16114571034E+03  0.16797637915E+03  0.00000000000E+00 0.  1.
         13    1    3    3    0    0  0.42083045844E+02  0.19129599868E+02  0.11041133483E+03  0.11969789972E+03  0.00000000000E+00 0. -1.
         -1    1    1    2    0  502  0.36459367374E+02  0.15843622262E+02 -0.66697307676E+02  0.77645583821E+02  0.00000000000E+00 0.  1.
<scales pt_clust_5="13000.00000" pt_clust_6="13000.00000" pt_clust_7="13000.00000" pt_clust_8="13000.00000" pt_clust_9="39.75306"></scales>
<clustering>
<clus scale="   39.753">  2  9  1 -1</clus>
<clus scale="   90.694">  5  6 -1 -1</clus>
<clus scale="   92.242">  2  5  1 -1</clus>
<clus scale="   94.690">  7  8 -1 -1</clus>
<clus scale="   39.753">  2  5  1 -1</clus>
</clustering>
</event>
<event>
 9    1  0.1610296E-005  0.1093012E+03  0.7546771E-02  0.1264606E+00
          2   -1    0    0  502    0 -0.00000000000E+00  0.00000000000E+00  0.39571211882E+03  0.39571211882E+03  0.00000000000E+00 0. -1.
         21   -1    0    0  501  502  0.00000000000E+00 -0.00000000000E+00 -0.66115130299E+02  0.66115130299E+02  0.00000000000E+00 0.  1.
         23    2    1    2    0    0 -0.18565085141E+02 -0.10308051802E+02  0.13869306454E+03  0.17145904549E+03  0.98547043644E+02 0.  0.
         23    2    1    2    0    0  0.69452458016E+02  0.20348391815E+02  0.20542205318E+03  0.23650625768E+03  0.92191588634E+02 0.  0.
        -11    1    4    4    0    0  0.51338543066E+02  0.55433172613E+02  0.11220759343E+03  0.13527389495E+03  0.00000000000E+00 0.  1.
         11    1    4    4    0    0  0.18113914950E+02 -0.35084780798E+02  0.93214459748E+02  0.10123236273E+03  0.00000000000E+00 0. -1.
        -13    1    3    3    0    0  0.39860847868E+02 -0.14021239880E+02  0.59342658486E+02  0.72849388993E+02  0.00000000000E+00 0. -1.
         13    1    3    3    0    0 -0.58425933009E+02  0.37131880777E+01  0.79350406054E+02  0.98609656497E+02  0.00000000000E+00 0.  1.
          2    1    1    2  501    0 -0.50887372875E+02 -0.10040340013E+02 -0.14518129201E+02  0.53861945947E+02  0.00000000000E+00 0. -1.
<scales pt_clust_5="13000.00000" pt_clust_6="13000.00000" pt_clust_7="13000.00000" pt_clust_8="13000.00000" pt_clust_9="51.86842"></scales>
<clustering>
<clus scale="   51.868">  2  9  1 -1</clus>
<clus scale="   92.192">  5  6 -1 -1</clus>
<clus scale="   98.547">  7  8 -1 -1</clus>
<clus scale="  103.608">  2  5  1 -1</clus>
<clus scale="   51.868">  2  5  1 -1</clus>
</clustering>
</event>
<event>
 9    1  0.1610296E-005  0.1840500E+03  0.7546771E-02  0.1165847E+00
         21   -1    0    0  501  502  0.00000000000E+00  0.00000000000E+00  0.31224321412E+03  0.31224321412E+03  0.00000000000E+00 0.  1.
         -4   -1    0    0    0  501 -0.00000000000E+00 -0.00000000000E+00 -0.17740125455E+03  0.17740125455E+03  0.00000000000E+00 0.  1.
         23    2    1    2    0    0  0.94957635566E+02 -0.13956504095E+03 -0.50050820476E+02  0.19863572524E+03  0.91954953654E+02 0.  0.
         23    2    1    2    0    0 -0.87653420716E+02  0.75671419062E+02  0.10787939043E+03  0.19067525624E+03  0.10634756526E+03 0.  0.
        -11    1    4    4    0    0 -0.19230413666E+02  0.82390534762E+02  0.38340110392E+02  0.92886883321E+02  0.00000000000E+00 0. -1.
         11    1    4    4    0    0 -0.68423007050E+02 -0.67191157007E+01  0.69539280042E+02  0.97788372920E+02  0.00000000000E+00 0.  1.
        -11    1    3    3    0    0 -0.11385718900E+02 -0.26204944797E+02 -0.30805780875E+02  0.42015828708E+02  0.00000000000E+00 0. -1.
         11    1    3    3    0    0  0.10634335447E+03 -0.11336009616E+03 -0.19245039600E+02  0.15661989653E+03  0.00000000000E+00 0.  1.
         -4    1    1    2    0  502 -0.73042148500E+01  0.63893621893E+02  0.77013389609E+02  0.10033348719E+03  0.00000000000E+00 0.  1.
<scales pt_clust_5="13000.00000" pt_clust_6="13000.00000" pt_clust_7="13000.00000" pt_clust_8="13000.00000" pt_clust_9="64.30977"></scales>
<clustering>
<clus scale="   64.310">  1  9  2 -1</clus>
<clus scale="   91.955">  7  8 -1 -1</clus>
<clus scale="  106.348">  5  6 -1 -1</clus>
<clus scale="  176.126">  2  7  1 -1</clus>
<clus scale="   64.310">  1  5  2 -1</clus>
</clustering>
</event>
<event>
 9    1  0.1610296E-005  0.1452865E+03  0.7546771E-02  0.1206747E+00
          2   -1    0    0  502    0 -0.00000000000E+00  0.00000000000E+00  0.61247233041E+03  0.61247233041E+03  0.00000000000E+00 0. -1.
         21   -1    0    0  501  502  0.00000000000E+00 -0.00000000000E+00 -0.11839519116E+03  0.11839519116E+03  0.00000000000E+00 0.  1.
         23    2    1    2    0    0  0.80013612087E+02  0.60281961676E+02  0.40092933489E+03  0.42338312165E+03  0.92048047782E+02 0.  0.
         23    2    1    2    0    0 -0.14242690402E+03 -0.89458148146E+02  0.12844065518E+03  0.23007474815E+03  0.90272944857E+02 0.  0.
        -11    1    3    3    0    0  0.19601579679E+02  0.98749986082E+01  0.91466206664E+01  0.23778103226E+02  0.00000000000E+00 0.  1.
         11    1    3    3    0    0  0.60412032408E+02  0.50406963068E+02  0.39178271423E+03  0.39960501843E+03  0.00000000000E+00 0. -1.
        -11    1    4    4    0    0 -0.20563798249E+02  0.99717735156E+01  0.48566794633E+02  0.53675316547E+02  0.00000000000E+00 0. -1.
         11    1    4    4    0    0 -0.12186310577E+03 -0.99429921661E+02  0.79873860542E+02  0.17639943160E+03  0.00000000000E+00 0.  1.
          2    1    1    2  501    0  0.62413291936E+02  0.29176186469E+02 -0.35292850818E+02  0.77409651763E+02  0.00000000000E+00 0. -1.
<scales pt_clust_5="13000.00000" pt_clust_6="13000.00000" pt_clust_7="13000.00000" pt_clust_8="13000.00000" pt_clust_9="68.89607"></scales>
<clustering>
<clus scale="   68.896">  2  9  1 -1</clus>
<clus scale="   90.273">  7  8 -1 -1</clus>
<clus scale="   92.048">  5  6 -1 -1</clus>
<clus scale="  144.168">  2  7  1 -1</clus>
<clus scale="   68.896">  2  5  1 -1</clus>
</clustering>
</event>
<event>
 9    1  0.3011334E-005  0.1769112E+03  0.7546771E-02  0.1170956E+00
         21   -1    0    0  501  502  0.00000000000E+00  0.00000000000E+00  0.33947638052E+03  0.33947638052E+03  0.00000000000E+00 0.  1.
          3   -1    0    0  502    0 -0.00000000000E+00 -0.00000000000E+00 -0.30878045470E+03  0.30878045470E+03  0.00000000000E+00 0. -1.
         23    2    1    2    0    0 -0.93872557363E+02  0.11539087875E+03 -0.22346334194E+03  0.28336326635E+03  0.90729067010E+02 0.  0.
         23    2    1    2    0    0  0.13422944892E+03 -0.12489960472E+03  0.25069856255E+03  0.32328742693E+03  0.89708053889E+02 0.  0.
        -11    1    4    4    0    0  0.14148865730E+03 -0.88465542830E+02  0.20889627802E+03  0.26736276364E+03  0.00000000000E+00 0.  1.
         11    1    4    4    0    0 -0.72592083794E+01 -0.36434061893E+02  0.41802284531E+02  0.55924663293E+02  0.00000000000E+00 0. -1.
        -13    1    3    3    0    0 -0.61512595217E+02  0.45733481272E+02 -0.44542297690E+02  0.88653070804E+02  0.00000000000E+00 0.  1.
         13    1    3    3    0    0 -0.32359962146E+02  0.69657397480E+02 -0.17892104425E+03  0.19471019555E+03  0.00000000000E+00 0. -1.
          3    1    1    2  501    0 -0.40356891559E+02  0.95087259716E+01  0.34607052177E+01  0.41606141933E+02  0.00000000000E+00 0. -1.
<scales pt_clust_5="13000.00000" pt_clust_6="13000.00000" pt_clust_7="13000.00000" pt_clust_8="13000.00000" pt_clust_9="41.46197"></scales>
<clustering>
<clus scale="   41.462">  1  9  2 -1</clus>
<clus scale="   89.708">  5  6 -1 -1</clus>
<clus scale="   90.729">  7  8 -1 -1</clus>
<clus scale="  176.390">  1  5  2 -1</clus>
<clus scale="   41.462">  1  5  2 -1</clus>
</clustering>
</event>
<event>
 9    1  0.1610296E-005  0.2186652E+03  0.7546771E-02  0.1170563E+00
          1   -1    0    0  502    0 -0.00000000000E+00  0.00000000000E+00  0.23267497712E+03  0.23267497712E+03  0.00000000000E+00 0. -1.
         21   -1    0    0  501  502  0.00000000000E+00 -0.00000000000E+00 -0.72017056499E+03  0.72017056499E+03  0.00000000000E+00 0.  1.
         23    2    1    2    0    0 -0.23365090424E+01 -0.22444454521E+02  0.15737966451E+03  0.18344457337E+03  0.91511419428E+02 0.  0.
         23    2    1    2    0    0 -0.67354182601E+01  0.21127128907E+03 -0.33876824759E+03  0.40962413277E+03  0.91362361673E+02 0.  0.
        -13    1    4    4    0    0 -0.47455482507E+02  0.13984525208E+03 -0.22876468495E+03  0.27229028339E+03  0.00000000000E+00 0.  1.
         13    1    4    4    0    0  0.40720064247E+02  0.71426036986E+02 -0.11000356264E+03  0.13733384938E+03  0.00000000000E+00 0. -1.
        -13    1    3    3    0    0  0.14975087012E+02  0.32956243498E+02  0.61826575808E+02  0.71644209066E+02  0.00000000000E+00 0.  1.
         13    1    3    3    0    0 -0.17311596054E+02 -0.55400698019E+02  0.95553088703E+02  0.11180036431E+03  0.00000000000E+00 0. -1.
          1    1    1    2  501    0  0.90719273024E+01 -0.18882683455E+03 -0.30610700479E+03  0.35977683596E+03  0.00000000000E+00 0. -1.
<scales pt_clust_5="13000.00000" pt_clust_6="13000.00000" pt_clust_7="13000.00000" pt_clust_8="13000.00000" pt_clust_9="198.66403"></scales>
<clustering>
<clus scale="   91.362">  5  6 -1 -1</clus>
<clus scale="   91.511">  7  8 -1 -1</clus>
<clus scale="   94.253">  1  7  2 -1</clus>
<clus scale="  198.664">  2  9  1 -1</clus>
<clus scale="  198.664">  2  5  1 -1</clus>
</clustering>
</event>
<event>
 9    1  0.1610296E-005  0.1138166E+03  0.7546771E-02  0.1254542E+00
          1   -1    0    0  502    0 -0.00000000000E+00  0.00000000000E+00  0.14063571793E+03  0.14063571793E+03  0.00000000000E+00 0. -1.
         21   -1    0    0  501  502  0.00000000000E+00 -0.00000000000E+00 -0.23626738782E+03  0.23626738782E+03  0.00000000000E+00 0.  1.
         23    2    1    2    0    0 -0.27245125381E+02  0.65145144898E+02  0.31924371035E+02  0.11937110023E+03  0.90797066822E+02 0.  0.
         23    2    1    2    0    0 -0.13299335936E+02 -0.64199247990E+02  0.97337600300E+01  0.11437741248E+03  0.93214969942E+02 0.  0.
        -13    1    3    3    0    0  0.24144675497E+02  0.57975358954E+02  0.12952275070E+02  0.64123856951E+02  0.00000000000E+00 0.  1.
         13    1    3    3    0    0 -0.51389800878E+02  0.71697859440E+01  0.18972095965E+02  0.55247243280E+02  0.00000000000E+00 0. -1.
        -13    1    4    4    0    0  0.26850408563E+02 -0.62288660049E+02  0.23661022084E+02  0.71837772632E+02  0.00000000000E+00 0. -1.
         13    1    4    4    0    0 -0.40149744499E+02 -0.19105879413E+01 -0.13927262054E+02  0.42539639843E+02  0.00000000000E+00 0.  1.
          1    1    1    2  501    0  0.40544461317E+02 -0.94589690776E+00 -0.13728980095E+03  0.14315459305E+03  0.00000000000E+00 0. -1.
<scales pt_clust_5="13000.00000" pt_clust_6="13000.00000" pt_clust_7="13000.00000" pt_clust_8="13000.00000" pt_clust_9="40.55549"></scales>
<clustering>
<clus scale="   40.555">  2  9  1 -1</clus>
<clus scale="   90.797">  5  6 -1 -1</clus>
<clus scale="   93.215">  7  8 -1 -1</clus>
<clus scale="  111.845">  1  5  2 -1</clus>
<clus scale="   40.555">  2  5  1 -1</clus>
</clustering>
</event>
<event>
 9    1  0.1610296E-005  0.1887740E+03  0.7546771E-02  0.1159664E+00
         21   -1    0    0  501  502  0.00000000000E+00  0.00000000000E+00  0.53111424677E+02  0.53111424677E+02  0.00000000000E+00 0. -1.
          3   -1    0    0  502    0 -0.00000000000E+00 -0.00000000000E+00 -0.11598813170E+04  0.11598813170E+04  0.00000000000E+00 0. -1.
         23    2    1    2    0    0 -0.42761087107E+02 -0.15615320208E+03 -0.81847843564E+03  0.83919765267E+03  0.90185461991E+02 0.  0.
         23    2    1    2    0    0  0.27518886245E+02  0.17438267901E+03 -0.28821987100E+03  0.35003285757E+03  0.91025817767E+02 0.  0.
        -11    1    4    4    0    0 -0.27262408529E+02  0.93720136617E+02 -0.11139972340E+03  0.14811009857E+03  0.00000000000E+00 0. -1.
         11    1    4    4    0    0  0.54781294774E+02  0.80662542395E+02 -0.17682014761E+03  0.20192275900E+03  0.00000000000E+00 0.  1.
        -13    1    3    3    0    0  0.14736378066E+02 -0.88292852755E+02 -0.52362391634E+03  0.53122009982E+03  0.00000000000E+00 0.  1.
         13    1    3    3    0    0 -0.57497465173E+02 -0.67860349328E+02 -0.29485451930E+03  0.30797755286E+03  0.00000000000E+00 0. -1.
          3    1    1    2  501    0  0.15242200863E+02 -0.18229476928E+02 -0.71585641330E-01  0.23762231392E+02  0.00000000000E+00 0. -1.
<scales pt_clust_5="13000.00000" pt_clust_6="13000.00000" pt_clust_7="13000.00000" pt_clust_8="13000.00000" pt_clust_9="23.76212"></scales>
<clustering>
<clus scale="   23.762">  1  9  2 -1</clus>
<clus scale="   90.185">  7  8 -1 -1</clus>
<clus scale="   91.026">  5  6 -1 -1</clus>
<clus scale="  188.370">  2  7  1 -1</clus>
<clus scale="   23.762">  1  5  2 -1</clus>
</clustering>
</event>
<event>
 9    1  0.1610296E-005  0.1030930E+03  0.7546771E-02  0.1274238E+00
         -1   -1    0    0    0  501 -0.00000000000E+00  0.00000000000E+00  0.25873109386E+03  0.25873109386E+03  0.00000000000E+00 0.  1.
         21   -1    0    0  501  502  0.00000000000E+00 -0.00000000000E+00 -0.65930180525E+02  0.65930180525E+02  0.00000000000E+00 0. -1.
         23    2    1    2    0    0 -0.14155733499E+02  0.32330239984E+02  0.97663849957E+02  0.13838732602E+03  0.91472374001E+02 0.  0.
         23    2    1    2    0    0  0.34905757117E+02 -0.50861282773E+02  0.10944205748E+03  0.15499143115E+03  0.90771679620E+02 0.  0.
        -13    1    4    4    0    0  0.50695983566E+02 -0.25477223693E+02  0.11141708595E+03  0.12503175085E+03  0.00000000000E+00 0.  1.
         13    1    4    4    0    0 -0.15790226449E+02 -0.25384059080E+02 -0.19750284777E+01  0.29959680308E+02  0.00000000000E+00 0. -1.
        -13    1    3    3    0    0  0.36060903237E+02  0.28287912379E+02  0.33304415011E+02  0.56654909657E+02  0.00000000000E+00 0. -1.
         13    1    3    3    0    0 -0.50216636736E+02  0.40423276047E+01  0.64359434946E+02  0.81732416360E+02  0.00000000000E+00 0.  1.
         -1    1    1    2    0  502 -0.20750023618E+02  0.18531042789E+02 -0.14304994099E+02  0.31282517213E+02  0.00000000000E+00 0.  1.
<scales pt_clust_5="13000.00000" pt_clust_6="13000.00000" pt_clust_7="13000.00000" pt_clust_8="13000.00000" pt_clust_9="27.82019"></scales>
<clustering>
<clus scale="   27.820">  2  9  1 -1</clus>
<clus scale="   90.772">  5  6 -1 -1</clus>
<clus scale="   91.472">  7  8 -1 -1</clus>
<clus scale="  102.472">  2  5  1 -1</clus>
<clus scale="   27.820">  2  5  1 -1</clus>
</clustering>
</event>
<event>
 9    1  0.1610296E-005  0.2024930E+03  0.7546771E-02  0.1148200E+00
         21   -1    0    0  501  502  0.00000000000E+00  0.00000000000E+00  0.74574655214E+02  0.74574655214E+02  0.00000000000E+00 0. -1.
          3   -1    0    0  502    0 -0.00000000000E+00 -0.00000000000E+00 -0.17599510913E+04  0.17599510913E+04  0.00000000000E+00 0. -1.
         23    2    1    2    0    0  0.64186830269E+02 -0.12117067916E+03 -0.49624427850E+03  0.52222542910E+03  0.87514182812E+02 0.  0.
         23    2    1    2    0    0 -0.19885946810E+03  0.12984233771E+03 -0.11407420036E+04  0.11689353146E+04  0.93345219819E+02 0.  0.
        -13    1    3    3    0    0 -0.11204434987E+02 -0.17688101620E+02 -0.19584258378E+02  0.28669696170E+02  0.00000000000E+00 0.  1.
         13    1    3    3    0    0  0.75391265256E+02 -0.10348257754E+03 -0.47666002012E+03  0.49355573293E+03  0.00000000000E+00 0. -1.
        -13    1    4    4    0    0 -0.91423344082E+02  0.23437785504E+02 -0.29337261265E+03  0.30818021917E+03  0.00000000000E+00 0.  1.
         13    1    4    4    0    0 -0.10743612401E+03  0.10640455221E+03 -0.84736939099E+03  0.86075509540E+03  0.00000000000E+00 0. -1.
          3    1    1    2  501    0  0.13467263783E+03 -0.86716585496E+01 -0.48390153954E+02  0.14336500285E+03  0.00000000000E+00 0. -1.
<scales pt_clust_5="13000.00000" pt_clust_6="13000.00000" pt_clust_7="13000.00000" pt_clust_8="13000.00000" pt_clust_9="134.95154"></scales>
<clustering>
<clus scale="   87.514">  5  6 -1 -1</clus>
<clus scale="   93.345">  7  8 -1 -1</clus>
<clus scale="  134.952">  1  9  2 -1</clus>
<clus scale="  199.872">  2  5  1 -1</clus>
<clus scale="  134.952">  1  5  2 -1</clus>
</clustering>
</event>
<event>
 9    1  0.1610296E-005  0.2113504E+03  0.7546771E-02  0.1140950E+00
          2   -1    0    0  502    0 -0.00000000000E+00  0.00000000000E+00  0.15708075847E+04  0.15708075847E+04  0.00000000000E+00 0. -1.
         21   -1    0    0  501  502  0.00000000000E+00 -0.00000000000E+00 -0.49735299216E+02  0.49735299216E+02  0.00000000000E+00 0. -1.
         23    2    1    2    0    0  0.96083590245E+02  0.22396574184E+03  0.92380727640E+03  0.95960710031E+03  0.89628082614E+02 0.  0.
         23    2    1    2    0    0 -0.59033763587E+02 -0.10939991478E+03  0.26696202827E+03  0.30937060115E+03  0.94805684012E+02 0.  0.
        -11    1    4    4    0    0 -0.95644851284E+01 -0.90962874942E+02  0.22171672089E+03  0.23984167344E+03  0.00000000000E+00 0.  1.
         11    1    4    4    0    0 -0.49469278459E+02 -0.18437039835E+02  0.45245307375E+02  0.69528927710E+02  0.00000000000E+00 0. -1.
        -13    1    3    3    0    0  0.76794430564E+02  0.76337498257E+02  0.45598734518E+03  0.46866753373E+03  0.00000000000E+00 0.  1.
         13    1    3    3    0    0  0.19289159681E+02  0.14762824358E+03  0.46781993123E+03  0.49093956658E+03  0.00000000000E+00 0. -1.
          2    1    1    2  501    0 -0.37049826657E+02 -0.11456582706E+03  0.33030298083E+03  0.35156518248E+03  0.00000000000E+00 0. -1.
<scales pt_clust_5="13000.00000" pt_clust_6="13000.00000" pt_clust_7="13000.00000" pt_clust_8="13000.00000" pt_clust_9="120.40778"></scales>
<clustering>
<clus scale="   89.628">  7  8 -1 -1</clus>
<clus scale="   94.806">  5  6 -1 -1</clus>
<clus scale="  120.408">  2  9  1 -1</clus>
<clus scale="  209.079">  1  7  2 -1</clus>
<clus scale="  120.408">  2  5  1 -1</clus>
</clustering>
</event>
<event>
 9    1  0.1610296E-005  0.9940407E+02  0.7546771E-02  0.1282693E+00
         -4   -1    0    0    0  501 -0.00000000000E+00  0.00000000000E+00  0.76867955648E+02  0.76867955648E+02  0.00000000000E+00 0.  1.
         21   -1    0    0  501  502  0.00000000000E+00 -0.00000000000E+00 -0.68879548937E+03  0.68879548937E+03  0.00000000000E+00 0. -1.
         23    2    1    2    0    0 -0.35842947761E+02 -0.16889060187E+02  0.23705895353E+02  0.10059648818E+03  0.89374082941E+02 0.  0.
         23    2    1    2    0    0 -0.13671201729E+02  0.75057793185E+02 -0.38864873711E+03  0.40653902689E+03  0.91681870900E+02 0.  0.
        -11    1    3    3    0    0 -0.50175821083E+02 -0.32668169187E+02  0.41482809089E+02  0.72839863737E+02  0.00000000000E+00 0.  1.
         11    1    3    3    0    0  0.14332873322E+02  0.15779109000E+02 -0.17776913736E+02  0.27756624443E+02  0.00000000000E+00 0. -1.
        -13    1    4    4    0    0  0.16732831049E+02 -0.15122976207E+02 -0.51636218430E+02  0.56347059355E+02  0.00000000000E+00 0.  1.
         13    1    4    4    0    0 -0.30404032778E+02  0.90180769393E+02 -0.33701251869E+03  0.35019196754E+03  0.00000000000E+00 0. -1.
         -4    1    1    2    0  502  0.49514149490E+02 -0.58168732998E+02 -0.24698469196E+03  0.25852792994E+03  0.00000000000E+00 0.  1.
<scales pt_clust_5="13000.00000" pt_clust_6="13000.00000" pt_clust_7="13000.00000" pt_clust_8="13000.00000" pt_clust_9="76.38882"></scales>
<clustering>
<clus scale="   76.389">  2  9  1 -1</clus>
<clus scale="   89.374">  5  6 -1 -1</clus>
<clus scale="   91.682">  7  8 -1 -1</clus>
<clus scale="   97.280">  1  5  2 -1</clus>
<clus scale="   76.389">  2  5  1 -1</clus>
</clustering>
</event>
<event>
 9    1  0.1610296E-005  0.1055107E+03  0.7546771E-02  0.1269955E+00
         21   -1    0    0  501  502  0.00000000000E+00  0.00000000000E+00  0.19287005383E+03  0.19287005383E+03  0.00000000000E+00 0. -1.
          1   -1    0    0  502    0 -0.00000000000E+00 -0.00000000000E+00 -0.95150409565E+02  0.95150409565E+02  0.00000000000E+00 0. -1.
         23    2    1    2    0    0  0.47765781735E+02  0.77291289230E+01 -0.12568340827E+02  0.10490928349E+03  0.92231693206E+02 0.  0.
         23    2    1    2    0    0 -0.57699012147E+02  0.14085248626E+02  0.51679508414E+02  0.11979064870E+03  0.90285423486E+02 0.  0.
        -11    1    4    4    0    0 -0.47159675004E+01 -0.35200118085E+02  0.20408657651E+02  0.40960981064E+02  0.00000000000E+00 0.  1.
         11    1    4    4    0    0 -0.52983044646E+02  0.49285366711E+02  0.31270850763E+02  0.78829667634E+02  0.00000000000E+00 0. -1.
        -13    1    3    3    0    0  0.68257407029E+02 -0.18623641602E+02 -0.94728479895E+01  0.71383811119E+02  0.00000000000E+00 0. -1.
         13    1    3    3    0    0 -0.20491625294E+02  0.26352770525E+02 -0.30954928373E+01  0.33525472367E+02  0.00000000000E+00 0.  1.
          1    1    1    2  501    0  0.99332304115E+01 -0.21814377549E+02  0.58608476680E+02  0.63320531212E+02  0.00000000000E+00 0. -1.
<scales pt_clust_5="13000.00000" pt_clust_6="13000.00000" pt_clust_7="13000.00000" pt_clust_8="13000.00000" pt_clust_9="23.96948"></scales>
<clustering>
<clus scale="   23.969">  1  9  2 -1</clus>
<clus scale="   90.285">  5  6 -1 -1</clus>
<clus scale="   92.232">  7  8 -1 -1</clus>
<clus scale="  103.814">  1  5  2 -1</clus>
<clus scale="   23.969">  1  5  2 -1</clus>
</clustering>
</event>
<event>
 9    1  0.1610296E-005  0.1071898E+03  0.7546771E-02  0.1265929E+00
         21   -1    0    0  501  502  0.00000000000E+00  0.00000000000E+00  0.38800732629E+02  0.38800732629E+02  0.00000000000E+00 0. -1.
          1   -1    0    0  502    0 -0.00000000000E+00 -0.00000000000E+00 -0.55743233696E+03  0.55743233696E+03  0.00000000000E+00 0. -1.
         23    2    1    2    0    0 -0.64838213119E+02 -0.16466281744E+01 -0.39692903248E+03  0.41220306825E+03  0.90288467620E+02 0.  0.
         23    2    1    2    0    0  0.38215315272E+02 -0.19424499452E+02 -0.10845632109E+03  0.14758505288E+03  0.90448066576E+02 0.  0.
        -11    1    3    3    0    0 -0.19297907635E+02 -0.43437260762E+02 -0.21032239581E+03  0.21562633198E+03  0.00000000000E+00 0. -1.
         11    1    3    3    0    0 -0.45540305485E+02  0.41790632588E+02 -0.18660663666E+03  0.19657673627E+03  0.00000000000E+00 0.  1.
        -13    1    4    4    0    0  0.58697421166E+02 -0.11932456044E+02 -0.11048970370E+03  0.12568112580E+03  0.00000000000E+00 0. -1.
         13    1    4    4    0    0 -0.20482105893E+02 -0.74920434086E+01  0.20333826143E+01  0.21903927071E+02  0.00000000000E+00 0.  1.
          1    1    1    2  501    0  0.26622897847E+02  0.21071127626E+02 -0.13246250762E+02  0.36444948463E+02  0.00000000000E+00 0. -1.
<scales pt_clust_5="13000.00000" pt_clust_6="13000.00000" pt_clust_7="13000.00000" pt_clust_8="13000.00000" pt_clust_9="33.95248"></scales>
<clustering>
<clus scale="   33.952">  1  9  2 -1</clus>
<clus scale="   90.288">  5  6 -1 -1</clus>
<clus scale="   90.448">  7  8 -1 -1</clus>
<clus scale="  107.055">  2  5  1 -1</clus>
<clus scale="   33.952">  1  5  2 -1</clus>
</clustering>
</event>
<event>
 9    1  0.1610296E-005  0.1269162E+03  0.7546771E-02  0.1247480E+00
          2   -1    0    0  502    0 -0.00000000000E+00  0.00000000000E+00  0.59113051697E+03  0.59113051697E+03  0.00000000000E+00 0. -1.
         21   -1    0    0  501  502  0.00000000000E+00 -0.00000000000E+00 -0.56240110092E+02  0.56240110092E+02  0.00000000000E+00 0.  1.
         23    2    1    2    0    0  0.67882973464E+01  0.24337885406E+02  0.26015152090E+03  0.27622912228E+03  0.89360508736E+02 0.  0.
         23    2    1    2    0    0  0.59035595156E+02  0.59353746096E+02  0.70280509852E+02  0.14061970196E+03  0.88467405545E+02 0.  0.
        -11    1    3    3    0    0 -0.40943165997E+02  0.12235647536E+02  0.14007180940E+03  0.14644509449E+03  0.00000000000E+00 0.  1.
         11    1    3    3    0    0  0.47731463344E+02  0.12102237870E+02  0.12007971150E+03  0.12978402778E+03  0.00000000000E+00 0. -1.
        -13    1    4    4    0    0 -0.58971308778E+01  0.42396238065E+02 -0.86925986274E+00  0.42813231219E+02  0.00000000000E+00 0.  1.
         13    1    4    4    0    0  0.64932726034E+02  0.16957508031E+02  0.71149769714E+02  0.97806470743E+02  0.00000000000E+00 0. -1.
          2    1    1    2  501    0 -0.65823892503E+02 -0.83691631502E+02  0.20445837613E+03  0.23052180282E+03  0.00000000000E+00 0. -1.
<scales pt_clust_5="13000.00000" pt_clust_6="13000.00000" pt_clust_7="13000.00000" pt_clust_8="13000.00000" pt_clust_9="91.00132"></scales>
<clustering>
<clus scale="   88.467">  7  8 -1 -1</clus>
<clus scale="   89.361">  5  6 -1 -1</clus>
<clus scale="   92.864">  1  5  2 -1</clus>
<clus scale="   91.001">  2  9  1 -1</clus>
<clus scale="   91.001">  2  5  1 -1</clus>
</clustering>
</event>
<event>
 9    1  0.1610296E-005  0.1037022E+03  0.7546771E-02  0.1273493E+00
          3   -1    0    0  502    0 -0.00000000000E+00  0.00000000000E+00  0.80239238859E+02  0.80239238859E+02  0.00000000000E+00 0. -1.
         21   -1    0    0  501  502  0.00000000000E+00 -0.00000000000E+00 -0.41257637565E+03  0.41257637565E+03  0.00000000000E+00 0. -1.
         23    2    1    2    0    0  0.49732299279E+02 -0.13192201803E+02  0.17395837869E+02  0.10597657161E+03  0.91000454811E+02 0.  0.
         23    2    1    2    0    0 -0.20256583584E+02  0.32193891244E+02 -0.12921096578E+03  0.16354587592E+03  0.92763161012E+02 0.  0.
        -13    1    3    3    0    0  0.14610526086E+02  0.38479994805E+02  0.14622218361E+00  0.41160646905E+02  0.00000000000E+00 0.  1.
         13    1    3    3    0    0  0.35121773194E+02 -0.51672196608E+02  0.17249615685E+02  0.64815924709E+02  0.00000000000E+00 0. -1.
        -13    1    4    4    0    0 -0.46792694540E+02 -0.32381441148E+01 -0.10015610828E+03  0.11059515299E+03  0.00000000000E+00 0.  1.
         13    1    4    4    0    0  0.26536110956E+02  0.35432035358E+02 -0.29054857500E+02  0.52950722929E+02  0.00000000000E+00 0. -1.
          3    1    1    2  501    0 -0.29475715696E+02 -0.19001689441E+02 -0.22052200888E+03  0.22329316697E+03  0.00000000000E+00 0. -1.
<scales pt_clust_5="13000.00000" pt_clust_6="13000.00000" pt_clust_7="13000.00000" pt_clust_8="13000.00000" pt_clust_9="35.06967"></scales>
<clustering>
<clus scale="   35.070">  2  9  1 -1</clus>
<clus scale="   91.000">  5  6 -1 -1</clus>
<clus scale="   92.763">  7  8 -1 -1</clus>
<clus scale="  102.128">  1  5  2 -1</clus>
<clus scale="   35.070">  2  5  1 -1</clus>
</clustering>
</event>
<event>
 9    1  0.1610296E-005  0.1239230E+03  0.7546771E-02  0.1239833E+00
          2   -1    0    0  502    0 -0.00000000000E+00  0.00000000000E+00  0.11479312104E+04  0.11479312104E+04  0.00000000000E+00 0. -1.
         21   -1    0    0  501  502  0.00000000000E+00 -0.00000000000E+00 -0.94206247370E+02  0.94206247370E+02  0.00000000000E+00 0. -1.
         23    2    1    2    0    0  0.82511847907E+02  0.37333159427E+02  0.59655023488E+03  0.60896353812E+03  0.82234045165E+02 0.  0.
         23    2    1    2    0    0 -0.77704269962E+02  0.12879526065E+01  0.53375682830E+03  0.54726978035E+03  0.92564833141E+02 0.  0.
        -11    1    4    4    0    0 -0.85978335505E+02 -0.26594954911E+02  0.35897818718E+03  0.37008769863E+03  0.00000000000E+00 0.  1.
         11    1    4    4    0    0  0.82740655429E+01  0.27882907517E+02  0.17477864112E+03  0.17718208173E+03  0.00000000000E+00 0. -1.
        -13    1    3    3    0    0  0.71829050379E+02  0.61688076240E+02  0.49596234790E+03  0.50491928242E+03  0.00000000000E+00 0. -1.
         13    1    3    3    0    0  0.10682797529E+02 -0.24354916813E+02  0.10058788698E+03  0.10404425569E+03  0.00000000000E+00 0.  1.
          2    1    1    2  501    0 -0.48075779453E+01 -0.38621112033E+02 -0.76582100106E+02  0.85904139347E+02  0.00000000000E+00 0. -1.
<scales pt_clust_5="13000.00000" pt_clust_6="13000.00000" pt_clust_7="13000.00000" pt_clust_8="13000.00000" pt_clust_9="38.91919"></scales>
<clustering>
<clus scale="   38.919">  2  9  1 -1</clus>
<clus scale="   82.234">  7  8 -1 -1</clus>
<clus scale="   92.565">  5  6 -1 -1</clus>
<clus scale="  116.409">  1  7  2 -1</clus>
<clus scale="   38.919">  2  5  1 -1</clus>
</clustering>
</event>
<event>
 9    1  0.1610296E-005  0.1007778E+03  0.7546771E-02  0.1283541E+00
          1   -1    0    0  502    0 -0.00000000000E+00  0.00000000000E+00  0.39262421849E+03  0.39262421849E+03  0.00000000000E+00 0. -1.
         21   -1    0    0  501  502  0.00000000000E+00 -0.00000000000E+00 -0.54980046239E+02  0.54980046239E+02  0.00000000000E+00 0. -1.
         23    2    1    2    0    0 -0.50461509026E+01  0.42548007885E+02  0.22839934534E+03  0.24742804685E+03  0.84962231606E+02 0.  0.
         23    2    1    2    0    0 -0.29102122949E+02 -0.42029223021E+01  0.25968375524E+02  0.10234259610E+03  0.94525405757E+02 0.  0.
        -11    1    4    4    0    0 -0.42759955544E+02  0.34031021282E+02  0.28555951564E+02  0.61660089015E+02  0.00000000000E+00 0. -1.
         11    1    4    4    0    0  0.13657832595E+02 -0.38233943584E+02 -0.25875760405E+01  0.40682507087E+02  0.00000000000E+00 0.  1.
        -11    1    3    3    0    0 -0.33848090070E+02  0.37926485750E+02  0.20127591994E+03  0.20759601988E+03  0.00000000000E+00 0.  1.
         11    1    3    3    0    0  0.28801939167E+02  0.46215221351E+01  0.27123425404E+02  0.39832026967E+02  0.00000000000E+00 0. -1.
          1    1    1    2  501    0  0.34148273852E+02 -0.38345085583E+02  0.83276451388E+02  0.97833621783E+02  0.00000000000E+00 0. -1.
<scales pt_clust_5="13000.00000" pt_clust_6="13000.00000" pt_clust_7="13000.00000" pt_clust_8="13000.00000" pt_clust_9="51.34640"></scales>
<clustering>
<clus scale="   51.346">  2  9  1 -1</clus>
<clus scale="   84.962">  7  8 -1 -1</clus>
<clus scale="   91.868">  1  7  2 -1</clus>
<clus scale="   94.525">  5  6 -1 -1</clus>
<clus scale="   51.346">  2  5  1 -1</clus>
</clustering>
</event>
<event>
 9    1  0.1610296E-005  0.1261001E+03  0.7546771E-02  0.1234024E+00
         21   -1    0    0  501  502  0.00000000000E+00  0.00000000000E+00  0.22477586529E+03  0.22477586529E+03  0.00000000000E+00 0.  1.
          2   -1    0    0  502    0 -0.00000000000E+00 -0.00000000000E+00 -0.91470732589E+02  0.91470732589E+02  0.00000000000E+00 0. -1.
         23    2    1    2    0    0 -0.51259593485E+02 -0.58261148038E+02  0.22410085837E+02  0.12339832626E+03  0.93290019191E+02 0.  0.
         23    2    1    2    0    0  0.45724399005E+02  0.80161264308E+02  0.10546150476E+03  0.16961517346E+03  0.95554325489E+02 0.  0.
        -11    1    4    4    0    0  0.55397022663E+02  0.45765640869E+02  0.16471129269E+02  0.73719889470E+02  0.00000000000E+00 0.  1.
         11    1    4    4    0    0 -0.96726236582E+01  0.34395623440E+02  0.88990375493E+02  0.95895283985E+02  0.00000000000E+00 0. -1.
        -13    1    3    3    0    0 -0.26751682004E+02 -0.52298758603E+02  0.56156656807E+02  0.81267353502E+02  0.00000000000E+00 0.  1.
         13    1    3    3    0    0 -0.24507911480E+02 -0.59623894347E+01 -0.33746570971E+02  0.42130972754E+02  0.00000000000E+00 0. -1.
          2    1    1    2  501    0  0.55351944798E+01 -0.21900116270E+02  0.54335420998E+01  0.23233098165E+02  0.00000000000E+00 0. -1.
<scales pt_clust_5="13000.00000" pt_clust_6="13000.00000" pt_clust_7="13000.00000" pt_clust_8="13000.00000" pt_clust_9="22.58880"></scales>
<clustering>
<clus scale="   22.589">  1  9  2 -1</clus>
<clus scale="   93.290">  7  8 -1 -1</clus>
<clus scale="   95.554">  5  6 -1 -1</clus>
<clus scale="  124.393">  2  7  1 -1</clus>
<clus scale="   22.589">  1  5  2 -1</clus>
</clustering>
</event>
<event>
 9    1  0.1610296E-005  0.1322031E+03  0.7546771E-02  0.1224678E+00
         -1   -1    0    0    0  501 -0.00000000000E+00  0.00000000000E+00  0.38601957384E+03  0.38601957384E+03  0.00000000000E+00 0.  1.
         21   -1    0    0  501  502  0.00000000000E+00 -0.00000000000E+00 -0.10046217510E+03  0.10046217510E+03  0.00000000000E+00 0.  1.
         23    2    1    2    0    0 -0.75598529535E+02  0.50455968848E+02  0.19514534327E+03  0.23268561826E+03  0.88317322665E+02 0.  0.
         23    2    1    2    0    0  0.11330785059E+03 -0.14282081252E+02  0.12442349745E+03  0.19144774478E+03  0.90157558830E+02 0.  0.
        -13    1    3    3    0    0 -0.40422299487E+02 -0.19971181577E+02  0.96218984218E+02  0.10625866230E+03  0.00000000000E+00 0. -1.
         13    1    3    3    0    0 -0.35176230048E+02  0.70427150425E+02  0.98926359053E+02  0.12642695596E+03  0.00000000000E+00 0.  1.
        -13    1    4    4    0    0  0.22303553660E+02 -0.31239883321E+02  0.26399969874E+01  0.38475295969E+02  0.00000000000E+00 0. -1.
         13    1    4    4    0    0  0.91004296929E+02  0.16957802069E+02  0.12178350047E+03  0.15297244881E+03  0.00000000000E+00 0.  1.
         -1    1    1    2    0  502 -0.37709321054E+02 -0.36173887596E+02 -0.34011441988E+02  0.62348385899E+02  0.00000000000E+00 0.  1.
<scales pt_clust_5="13000.00000" pt_clust_6="13000.00000" pt_clust_7="13000.00000" pt_clust_8="13000.00000" pt_clust_9="52.25460"></scales>
<clustering>
<clus scale="   52.255">  2  9  1 -1</clus>
<clus scale="   88.317">  5  6 -1 -1</clus>
<clus scale="   90.158">  7  8 -1 -1</clus>
<clus scale="  130.955">  1  5  2 -1</clus>
<clus scale="   52.255">  2  5  1 -1</clus>
</clustering>
</event>
<event>
 9    1  0.1610296E-005  0.2361004E+03  0.7546771E-02  0.1122952E+00
         21   -1    0    0  501  502  0.00000000000E+00  0.00000000000E+00  0.17497257552E+03  0.17497257552E+03  0.00000000000E+00 0.  1.
          2   -1    0    0  502    0 -0.00000000000E+00 -0.00000000000E+00 -0.11048194332E+04  0.11048194332E+04  0.00000000000E+00 0.  1.
         23    2    1    2    0    0 -0.22010966503E+03 -0.47329279618E+02 -0.73084801600E+03  0.77001982687E+03  0.90018808842E+02 0.  0.
         23    2    1    2    0    0  0.20457400081E+03  0.27643776291E+02 -0.31820509960E+03  0.38795671546E+03  0.81493726676E+02 0.  0.
        -11    1    4    4    0    0  0.15150216630E+03  0.21349766754E+02 -0.28912994673E+03  0.32711595044E+03  0.00000000000E+00 0. -1.
         11    1    4    4    0    0  0.53071834514E+02  0.62940095369E+01 -0.29075152865E+02  0.60840765025E+02  0.00000000000E+00 0.  1.
        -13    1    3    3    0    0 -0.20616969931E+02  0.20939169150E+02 -0.59875822859E+02  0.66697994099E+02  0.00000000000E+00 0. -1.
         13    1    3    3    0    0 -0.19949269510E+03 -0.68268448767E+02 -0.67097219314E+03  0.70332183278E+03  0.00000000000E+00 0.  1.
          2    1    1    2  501    0  0.15535664222E+02  0.19685503327E+02  0.11920625796E+03  0.12181546634E+03  0.00000000000E+00 0.  1.
<scales pt_clust_5="13000.00000" pt_clust_6="13000.00000" pt_clust_7="13000.00000" pt_clust_8="13000.00000" pt_clust_9="25.07740"></scales>
<clustering>
<clus scale="   25.077">  1  9  2 -1</clus>
<clus scale="   81.494">  5  6 -1 -1</clus>
<clus scale="   90.019">  7  8 -1 -1</clus>
<clus scale="  232.983">  1  5  2 -1</clus>
<clus scale="   25.077">  1  5  2 -1</clus>
</clustering>
</event>
<event>
 9    1  0.1610296E-005  0.1344102E+03  0.7546771E-02  0.1230326E+00
         21   -1    0    0  501  502  0.00000000000E+00  0.00000000000E+00  0.20742492985E+03  0.20742492985E+03  0.00000000000E+00 0. -1.
          1   -1    0    0  502    0 -0.00000000000E+00 -0.00000000000E+00 -0.15966832086E+03  0.15966832086E+03  0.00000000000E+00 0. -1.
         23    2    1    2    0    0 -0.63920440075E+02 -0.42376380294E+01 -0.28166497050E+02  0.11436171678E+03  0.90451481324E+02 0.  0.
         23    2    1    2    0    0 -0.37153434976E+02 -0.61168264795E+02  0.14201634356E+02  0.11744147366E+03  0.92026512308E+02 0.  0.
        -13    1    3    3    0    0 -0.39166366997E+02 -0.42555412101E+02  0.48656070443E+01  0.58039999437E+02  0.00000000000E+00 0.  1.
         13    1    3    3    0    0 -0.24754073078E+02  0.38317774071E+02 -0.33032104094E+02  0.56321717344E+02  0.00000000000E+00 0. -1.
        -13    1    4    4    0    0  0.83861929522E+01 -0.65833452355E+02 -0.74854504525E+01  0.66786253448E+02  0.00000000000E+00 0.  1.
         13    1    4    4    0    0 -0.45539627928E+02  0.46651875603E+01  0.21687084808E+02  0.50655220208E+02  0.00000000000E+00 0. -1.
          1    1    1    2  501    0  0.10107387505E+03  0.65405902824E+02  0.61721471689E+02  0.13529006028E+03  0.00000000000E+00 0. -1.
<scales pt_clust_5="13000.00000" pt_clust_6="13000.00000" pt_clust_7="13000.00000" pt_clust_8="13000.00000" pt_clust_9="97.96542"></scales>
<clustering>
<clus scale="   90.451">  5  6 -1 -1</clus>
<clus scale="   92.027">  7  8 -1 -1</clus>
<clus scale="  110.839">  2  5  1 -1</clus>
<clus scale="   97.965">  1  9  2 -1</clus>
<clus scale="   97.965">  1  5  2 -1</clus>
</clustering>
</event>
<event>
 9    1  0.1610296E-005  0.9807786E+02  0.7546771E-02  0.1284989E+00
         -1   -1    0    0    0  501 -0.00000000000E+00  0.00000000000E+00  0.11242420358E+03  0.11242420358E+03  0.00000000000E+00 0.  1.
         21   -1    0    0  501  502  0.00000000000E+00 -0.00000000000E+00 -0.19197250617E+03  0.19197250617E+03  0.00000000000E+00 0. -1.
         23    2    1    2    0    0 -0.14679384804E+01  0.33242319861E+02  0.62432210765E+02  0.11470014801E+03  0.90283643808E+02 0.  0.
         23    2    1    2    0    0  0.19460524902E+02 -0.45345788075E+02 -0.12127630646E+03  0.15971504589E+03  0.91465845268E+02 0.  0.
        -11    1    4    4    0    0 -0.22156983802E+02  0.23223946470E+01  0.71317039556E+00  0.22289774789E+02  0.00000000000E+00 0.  1.
         11    1    4    4    0    0  0.41617508704E+02 -0.47668182722E+02 -0.12198947685E+03  0.13742527110E+03  0.00000000000E+00 0. -1.
        -11    1    3    3    0    0 -0.83666633107E+01  0.63736546868E+02  0.48209002395E+02  0.80352077593E+02  0.00000000000E+00 0.  1.
         11    1    3    3    0    0  0.68987248303E+01 -0.30494227006E+02  0.14223208370E+02  0.34348070416E+02  0.00000000000E+00 0. -1.
         -1    1    1    2    0  502 -0.17992586422E+02  0.12103468214E+02 -0.20704206901E+02  0.29981515845E+02  0.00000000000E+00 0.  1.
<scales pt_clust_5="13000.00000" pt_clust_6="13000.00000" pt_clust_7="13000.00000" pt_clust_8="13000.00000" pt_clust_9="21.68472"></scales>
<clustering>
<clus scale="   21.685">  2  9  1 -1</clus>
<clus scale="   90.284">  7  8 -1 -1</clus>
<clus scale="   91.466">  5  6 -1 -1</clus>
<clus scale="   96.976">  1  7  2 -1</clus>
<clus scale="   21.685">  2  5  1 -1</clus>
</clustering>
</event>
<event>
 9    1  0.1610296E-005  0.9412487E+02  0.7546771E-02  0.1294367E+00
         21   -1    0    0  501  502  0.00000000000E+00  0.00000000000E+00  0.41529867921E+03  0.41529867921E+03  0.00000000000E+00 0. -1.
         -2   -1    0    0    0  501 -0.00000000000E+00 -0.00000000000E+00 -0.39939534484E+02  0.39939534484E+02  0.00000000000E+00 0.  1.
         23    2    1    2    0    0  0.20602217952E+02 -0.16733174990E+02  0.13168242964E+03  0.16333408227E+03  0.92915604857E+02 0.  0.
         23    2    1    2    0    0  0.81518393952E+00 -0.39961135824E+02  0.13588951097E+03  0.16824722157E+03  0.90794336135E+02 0.  0.
        -13    1    4    4    0    0 -0.41924615295E+02 -0.23567655305E+02  0.96648276227E+02  0.10795368008E+03  0.00000000000E+00 0. -1.
         13    1    4    4    0    0  0.42739799234E+02 -0.16393480518E+02  0.39241234739E+02  0.60293541495E+02  0.00000000000E+00 0.  1.
        -13    1    3    3    0    0  0.99398474814E+01 -0.45269916936E+02  0.12332211095E+03  0.13174410422E+03  0.00000000000E+00 0.  1.
         13    1    3    3    0    0  0.10662370470E+02  0.28536741946E+02  0.83603186955E+01  0.31589978057E+02  0.00000000000E+00 0. -1.
         -2    1    1    2    0  502 -0.21417401891E+02  0.56694310813E+02  0.10778720411E+03  0.12365690984E+03  0.00000000000E+00 0.  1.
<scales pt_clust_5="13000.00000" pt_clust_6="13000.00000" pt_clust_7="13000.00000" pt_clust_8="13000.00000" pt_clust_9="60.60487"></scales>
<clustering>
<clus scale="   60.605">  1  9  2 -1</clus>
<clus scale="   90.794">  5  6 -1 -1</clus>
<clus scale="   92.031">  1  5  2 -1</clus>
<clus scale="   92.916">  7  8 -1 -1</clus>
<clus scale="   60.605">  1  5  2 -1</clus>
</clustering>
</event>
<event>
 9    1  0.1610296E-005  0.1001186E+03  0.7546771E-02  0.1280457E+00
         21   -1    0    0  501  502  0.00000000000E+00  0.00000000000E+00  0.24629653763E+03  0.24629653763E+03  0.00000000000E+00 0. -1.
         -2   -1    0    0    0  501 -0.00000000000E+00 -0.00000000000E+00 -0.11327033955E+03  0.11327033955E+03  0.00000000000E+00 0.  1.
         23    2    1    2    0    0  0.23696985031E+02 -0.28161253493E+02 -0.63955794450E+02  0.11780610635E+03  0.91833173487E+02 0.  0.
         23    2    1    2    0    0 -0.28403480034E+02  0.48096003933E+02  0.11357717200E+03  0.15587765574E+03  0.90983989184E+02 0.  0.
        -11    1    4    4    0    0 -0.70492082651E+01  0.35029647275E+02 -0.37326303589E+01  0.35926314239E+02  0.00000000000E+00 0.  1.
         11    1    4    4    0    0 -0.21354271769E+02  0.13066356657E+02  0.11730980236E+03  0.11995134150E+03  0.00000000000E+00 0. -1.
        -13    1    3    3    0    0  0.20904886161E+02 -0.61281039523E+02 -0.49777101056E+02  0.81670924202E+02  0.00000000000E+00 0.  1.
         13    1    3    3    0    0  0.27920988702E+01  0.33119786031E+02 -0.14178693395E+02  0.36135182152E+02  0.00000000000E+00 0. -1.
         -2    1    1    2    0  502  0.47064950034E+01 -0.19934750440E+02  0.83404820526E+02  0.85883115089E+02  0.00000000000E+00 0.  1.
<scales pt_clust_5="13000.00000" pt_clust_6="13000.00000" pt_clust_7="13000.00000" pt_clust_8="13000.00000" pt_clust_9="20.48281"></scales>
<clustering>
<clus scale="   20.483">  1  9  2 -1</clus>
<clus scale="   90.984">  5  6 -1 -1</clus>
<clus scale="   91.833">  7  8 -1 -1</clus>
<clus scale="   99.340">  1  5  2 -1</clus>
<clus scale="   20.483">  1  5  2 -1</clus>
</clustering>
</event>
<event>
 9    1  0.1610296E-005  0.1043257E+03  0.7546771E-02  0.1275512E+00
         -1   -1    0    0    0  501 -0.00000000000E+00  0.00000000000E+00  0.60285458690E+03  0.60285458690E+03  0.00000000000E+00 0.  1.
         21   -1    0    0  501  502  0.00000000000E+00 -0.00000000000E+00 -0.36404828638E+02  0.36404828638E+02  0.00000000000E+00 0. -1.
         23    2    1    2    0    0 -0.33964148774E+02  0.43806168263E+01  0.45606621112E+03  0.46650891492E+03  0.91986007449E+02 0.  0.
         23    2    1    2    0    0  0.98584305521E+01 -0.12202687194E+01  0.10904152799E+03  0.14840148695E+03  0.10017119743E+03 0.  0.
        -11    1    3    3    0    0 -0.61083172667E+02  0.22932774126E+02  0.29621156754E+03  0.30331231241E+03  0.00000000000E+00 0.  1.
         11    1    3    3    0    0  0.27119023893E+02 -0.18552157300E+02  0.15985464358E+03  0.16319660252E+03  0.00000000000E+00 0. -1.
        -11    1    4    4    0    0  0.21414056405E+02  0.24316034370E+02  0.11522876137E+03  0.11969753041E+03  0.00000000000E+00 0.  1.
         11    1    4    4    0    0 -0.11555625852E+02 -0.25536303089E+02 -0.61872333839E+01  0.28703956543E+02  0.00000000000E+00 0. -1.
         -1    1    1    2    0  502  0.24105718222E+02 -0.31603481069E+01  0.13420191541E+01  0.24349013667E+02  0.00000000000E+00 0.  1.
<scales pt_clust_5="13000.00000" pt_clust_6="13000.00000" pt_clust_7="13000.00000" pt_clust_8="13000.00000" pt_clust_9="24.31200"></scales>
<clustering>
<clus scale="   24.312">  2  9  1 -1</clus>
<clus scale="   91.986">  5  6 -1 -1</clus>
<clus scale="   96.494">  1  5  2 -1</clus>
<clus scale="  100.171">  7  8 -1 -1</clus>
<clus scale="   24.312">  2  5  1 -1</clus>
</clustering>
</event>
<event>
 9    1  0.1610296E-005  0.1230081E+03  0.7546771E-02  0.1238850E+00
          1   -1    0    0  502    0 -0.00000000000E+00  0.00000000000E+00  0.46603830845E+03  0.46603830845E+03  0.00000000000E+00 0. -1.
         21   -1    0    0  501  502  0.00000000000E+00 -0.00000000000E+00 -0.34670536366E+03  0.34670536366E+03  0.00000000000E+00 0. -1.
         23    2    1    2    0    0 -0.27490060375E+02 -0.61049597885E+02  0.22561824299E+03  0.25350350232E+03  0.94221426973E+02 0.  0.
         23    2    1    2    0    0 -0.21239077544E+02  0.10739812656E+03  0.19985298980E+03  0.24580219129E+03  0.92152285412E+02 0.  0.
        -11    1    3    3    0    0 -0.60047546550E+02 -0.25807508788E+02  0.15404373934E+03  0.16733561781E+03  0.00000000000E+00 0. -1.
         11    1    3    3    0    0  0.32557486176E+02 -0.35242089097E+02  0.71574503641E+02  0.86167884513E+02  0.00000000000E+00 0.  1.
        -13    1    4    4    0    0 -0.18877120121E+02  0.37971552502E+02  0.16040650529E+03  0.16591694128E+03  0.00000000000E+00 0. -1.
         13    1    4    4    0    0 -0.23619574231E+01  0.69426574063E+02  0.39446484504E+02  0.79885250007E+02  0.00000000000E+00 0.  1.
          1    1    1    2  501    0  0.48729137919E+02 -0.46348528680E+02 -0.30613828799E+03  0.31343797850E+03  0.00000000000E+00 0. -1.
<scales pt_clust_5="13000.00000" pt_clust_6="13000.00000" pt_clust_7="13000.00000" pt_clust_8="13000.00000" pt_clust_9="67.25113"></scales>
<clustering>
<clus scale="   67.251">  2  9  1 -1</clus>
<clus scale="   92.152">  7  8 -1 -1</clus>
<clus scale="   94.221">  5  6 -1 -1</clus>
<clus scale="  121.430">  2  7  1 -1</clus>
<clus scale="   67.251">  2  5  1 -1</clus>
</clustering>
</event>
<event>
 9    1  0.2036562E-005  0.1131524E+03  0.7546771E-02  0.1255823E+00
         21   -1    0    0  501  502  0.00000000000E+00  0.00000000000E+00  0.56911857997E+02  0.56911857997E+02  0.00000000000E+00 0. -1.
          1   -1    0    0  502    0 -0.00000000000E+00 -0.00000000000E+00 -0.82247560899E+03  0.82247560899E+03  0.00000000000E+00 0. -1.
         23    2    1    2    0    0 -0.83510487180E+02  0.14337874945E+01 -0.62025105743E+03  0.63284174340E+03  0.93814928020E+02 0.  0.
         23    2    1    2    0    0  0.21248834863E+02 -0.74856888627E+01 -0.15696364042E+03  0.18291488655E+03  0.91174134424E+02 0.  0.
        -11    1    3    3    0    0  0.11519221156E+02 -0.21517593105E+02 -0.74279958726E+02  0.78187029215E+02  0.00000000000E+00 0.  1.
         11    1    3    3    0    0 -0.95029708336E+02  0.22951380600E+02 -0.54597109871E+03  0.55465471418E+03  0.00000000000E+00 0. -1.
        -13    1    4    4    0    0  0.35566809073E+02 -0.42874767964E+02 -0.95534654740E+02  0.11058984534E+03  0.00000000000E+00 0. -1.
         13    1    4    4    0    0 -0.14317974210E+02  0.35389079101E+02 -0.61428985677E+02  0.72325041213E+02  0.00000000000E+00 0.  1.
          1    1    1    2  501    0  0.62261652318E+02  0.60519013682E+01  0.11650946862E+02  0.63630837039E+02  0.00000000000E+00 0. -1.
<scales pt_clust_5="13000.00000" pt_clust_6="13000.00000" pt_clust_7="13000.00000" pt_clust_8="13000.00000" pt_clust_9="62.55509"></scales>
<clustering>
<clus scale="   62.555">  1  9  2 -1</clus>
<clus scale="   91.174">  7  8 -1 -1</clus>
<clus scale="   93.815">  5  6 -1 -1</clus>
<clus scale="  110.973">  1  7  2 -1</clus>
<clus scale="   62.555">  1  5  2 -1</clus>
</clustering>
</event>
<event>
 9    1  0.1610296E-005  0.2334095E+03  0.7546771E-02  0.1147405E+00
         21   -1    0    0  501  502  0.00000000000E+00  0.00000000000E+00  0.10491925113E+03  0.10491925113E+03  0.00000000000E+00 0. -1.
          1   -1    0    0  502    0 -0.00000000000E+00 -0.00000000000E+00 -0.12127450859E+04  0.12127450859E+04  0.00000000000E+00 0. -1.
         23    2    1    2    0    0  0.93797485836E+02  0.76979699195E+01 -0.32463808574E+03  0.35082445403E+03  0.93971717774E+02 0.  0.
         23    2    1    2    0    0 -0.12721234714E+03  0.20320112679E+03 -0.68613169367E+03  0.73228741589E+03  0.89411851718E+02 0.  0.
        -11    1    3    3    0    0  0.91980215427E+01  0.37523408512E+02 -0.59681837616E+02  0.71095228588E+02  0.00000000000E+00 0.  1.
         11    1    3    3    0    0  0.84599464293E+02 -0.29825438592E+02 -0.26495624812E+03  0.27972922544E+03  0.00000000000E+00 0. -1.
        -13    1    4    4    0    0 -0.17962392646E+02  0.10649470741E+03 -0.24783808935E+03  0.27034697851E+03  0.00000000000E+00 0.  1.
         13    1    4    4    0    0 -0.10924995449E+03  0.96706419378E+02 -0.43829360432E+03  0.46194043738E+03  0.00000000000E+00 0. -1.
          1    1    1    2  501    0  0.33414861302E+02 -0.21089909671E+03 -0.97056055378E+02  0.23455246712E+03  0.00000000000E+00 0. -1.
<scales pt_clust_5="13000.00000" pt_clust_6="13000.00000" pt_clust_7="13000.00000" pt_clust_8="13000.00000" pt_clust_9="215.60505"></scales>
<clustering>
<clus scale="   89.412">  7  8 -1 -1</clus>
<clus scale="   93.972">  5  6 -1 -1</clus>
<clus scale="  132.996">  2  5  1 -1</clus>
<clus scale="  215.605">  1  9  2 -1</clus>
<clus scale="  215.605">  1  5  2 -1</clus>
</clustering>
</event>
<event>
 9    1  0.1610296E-005  0.9537132E+02  0.7546771E-02  0.1290360E+00
         21   -1    0    0  501  502  0.00000000000E+00  0.00000000000E+00  0.17403397226E+03  0.17403397226E+03  0.00000000000E+00 0.  1.
         -4   -1    0    0    0  501 -0.00000000000E+00 -0.00000000000E+00 -0.10157930982E+03  0.10157930982E+03  0.00000000000E+00 0.  1.
         23    2    1    2    0    0  0.10296789378E+02 -0.44064422904E+02  0.45480765819E+01  0.99393567879E+02  0.88378159620E+02 0.  0.
         23    2    1    2    0    0 -0.47329695568E+02 -0.31240722579E+01  0.56539263157E+02  0.11516722661E+03  0.88413471235E+02 0.  0.
        -11    1    4    4    0    0 -0.69428139060E+02  0.91543942424E+01  0.56350992327E+02  0.89886059895E+02  0.00000000000E+00 0.  1.
         11    1    4    4    0    0  0.22098443492E+02 -0.12278466500E+02  0.18827083066E+00  0.25281166711E+02  0.00000000000E+00 0. -1.
        -13    1    3    3    0    0  0.22468947237E+02  0.20785346909E+02  0.12238663123E+02  0.32964664583E+02  0.00000000000E+00 0. -1.
         13    1    3    3    0    0 -0.12172157858E+02 -0.64849769813E+02 -0.76905865407E+01  0.66428903296E+02  0.00000000000E+00 0.  1.
         -4    1    1    2    0  502  0.37032906189E+02  0.47188495162E+02  0.11367322698E+02  0.61052487597E+02  0.00000000000E+00 0.  1.
<scales pt_clust_5="13000.00000" pt_clust_6="13000.00000" pt_clust_7="13000.00000" pt_clust_8="13000.00000" pt_clust_9="59.98495"></scales>
<clustering>
<clus scale="   59.985">  1  9  2 -1</clus>
<clus scale="   88.378">  7  8 -1 -1</clus>
<clus scale="   88.413">  5  6 -1 -1</clus>
<clus scale="   95.339">  2  7  1 -1</clus>
<clus scale="   59.985">  1  5  2 -1</clus>
</clustering>
</event>
<event>
 9    1  0.1610296E-005  0.9899920E+02  0.7546771E-02  0.1282644E+00
         21   -1    0    0  501  502  0.00000000000E+00  0.00000000000E+00  0.40413601865E+03  0.40413601865E+03  0.00000000000E+00 0.  1.
          4   -1    0    0  502    0 -0.00000000000E+00 -0.00000000000E+00 -0.32380441652E+02  0.32380441652E+02  0.00000000000E+00 0. -1.
         23    2    1    2    0    0  0.34637966815E+02  0.25249722490E+02  0.10930048735E+03  0.14884279083E+03  0.91489030042E+02 0.  0.
         23    2    1    2    0    0 -0.31329423884E+02 -0.41751512437E+01  0.21926735679E+03  0.23950454783E+03  0.91023568321E+02 0.  0.
        -11    1    3    3    0    0  0.17203047662E+02  0.59481570382E+02  0.75764044068E+02  0.97847802415E+02  0.00000000000E+00 0.  1.
         11    1    3    3    0    0  0.17434919153E+02 -0.34231847892E+02  0.33536443278E+02  0.50994988418E+02  0.00000000000E+00 0. -1.
        -13    1    4    4    0    0 -0.89822256853E+00  0.40254057764E+02  0.11994178569E+03  0.12651967406E+03  0.00000000000E+00 0.  1.
         13    1    4    4    0    0 -0.30431201315E+02 -0.44429209008E+02  0.99325571096E+02  0.11298487377E+03  0.00000000000E+00 0. -1.
          4    1    1    2  501    0 -0.33085429314E+01 -0.21074571247E+02  0.43187732868E+02  0.48169121643E+02  0.00000000000E+00 0. -1.
<scales pt_clust_5="13000.00000" pt_clust_6="13000.00000" pt_clust_7="13000.00000" pt_clust_8="13000.00000" pt_clust_9="21.33270"></scales>
<clustering>
<clus scale="   21.333">  1  9  2 -1</clus>
<clus scale="   91.024">  7  8 -1 -1</clus>
<clus scale="   91.489">  5  6 -1 -1</clus>
<clus scale="   98.569">  1  7  2 -1</clus>
<clus scale="   21.333">  1  5  2 -1</clus>
</clustering>
</event>
<event>
 9    1  0.1610296E-005  0.1115655E+03  0.7546771E-02  0.1262819E+00
         -1   -1    0    0    0  501 -0.00000000000E+00  0.00000000000E+00  0.30654230818E+03  0.30654230818E+03  0.00000000000E+00 0.  1.
         21   -1    0    0  501  502  0.00000000000E+00 -0.00000000000E+00 -0.70511742396E+02  0.70511742396E+02  0.00000000000E+00 0. -1.
         23    2    1    2    0    0 -0.44221011902E+02 -0.22612393848E+02  0.16358457774E+03  0.20041735160E+03  0.10459628339E+03 0.  0.
         23    2    1    2    0    0  0.17683408957E+02  0.22790952707E+02  0.99107532671E+02  0.13901869511E+03  0.93122307104E+02 0.  0.
        -11    1    4    4    0    0 -0.20050838695E+02  0.37948914002E+02  0.86301183349E+02  0.96384907811E+02  0.00000000000E+00 0. -1.
         11    1    4    4    0    0  0.37734247652E+02 -0.15157961295E+02  0.12806349322E+02  0.42633787299E+02  0.00000000000E+00 0.  1.
        -11    1    3    3    0    0  0.87920955747E+01 -0.38833243118E+02  0.12916454088E+03  0.13516212612E+03  0.00000000000E+00 0.  1.
         11    1    3    3    0    0 -0.53013107476E+02  0.16220849270E+02  0.34420036854E+02  0.65255225479E+02  0.00000000000E+00 0. -1.
         -1    1    1    2    0  502  0.26537602944E+02 -0.17855885917E+00 -0.26661544623E+02  0.37618003867E+02  0.00000000000E+00 0.  1.
<scales pt_clust_5="13000.00000" pt_clust_6="13000.00000" pt_clust_7="13000.00000" pt_clust_8="13000.00000" pt_clust_9="26.53820"></scales>
<clustering>
<clus scale="   26.538">  2  9  1 -1</clus>
<clus scale="   93.122">  5  6 -1 -1</clus>
<clus scale="  100.887">  2  5  1 -1</clus>
<clus scale="  104.596">  7  8 -1 -1</clus>
<clus scale="   26.538">  2  5  1 -1</clus>
</clustering>
</event>
<event>
 9    1  0.1610296E-005  0.1538441E+03  0.7546771E-02  0.1196369E+00
          2   -1    0    0  502    0 -0.00000000000E+00  0.00000000000E+00  0.54832281201E+03  0.54832281201E+03  0.00000000000E+00 0. -1.
         21   -1    0    0  501  502  0.00000000000E+00 -0.00000000000E+00 -0.91782323962E+02  0.91782323962E+02  0.00000000000E+00 0. -1.
         23    2    1    2    0    0  0.33813817536E+02 -0.14006641869E+03  0.40041866587E+03  0.43524960804E+03  0.91351723710E+02 0.  0.
         23    2    1    2    0    0 -0.16807649111E+02  0.72018590503E+02  0.61094063235E+02  0.13453881678E+03  0.94334692509E+02 0.  0.
        -11    1    4    4    0    0 -0.19682016053E+02 -0.66338220552E+01 -0.14563333308E+02  0.25366908128E+02  0.00000000000E+00 0.  1.
         11    1    4    4    0    0  0.28743669420E+01  0.78652412558E+02  0.75657396543E+02  0.10917190865E+03  0.00000000000E+00 0. -1.
        -13    1    3    3    0    0 -0.29198682311E+02 -0.21712401687E+02  0.92839733410E+02  0.99715633355E+02  0.00000000000E+00 0.  1.
         13    1    3    3    0    0  0.63012499847E+02 -0.11835401700E+03  0.30757893246E+03  0.33553397469E+03  0.00000000000E+00 0. -1.
          2    1    1    2  501    0 -0.17006168425E+02  0.68047828189E+02 -0.49722410564E+01  0.70316711149E+02  0.00000000000E+00 0. -1.
<scales pt_clust_5="13000.00000" pt_clust_6="13000.00000" pt_clust_7="13000.00000" pt_clust_8="13000.00000" pt_clust_9="70.14069"></scales>
<clustering>
<clus scale="   70.141">  2  9  1 -1</clus>
<clus scale="   91.352">  7  8 -1 -1</clus>
<clus scale="   94.335">  5  6 -1 -1</clus>
<clus scale="  152.033">  1  7  2 -1</clus>
<clus scale="   70.141">  2  5  1 -1</clus>
</clustering>
</event>
<event>
 9    1  0.1610296E-005  0.1017108E+03  0.7546771E-02  0.1278278E+00
         21   -1    0    0  501  502  0.00000000000E+00  0.00000000000E+00  0.10181559841E+03  0.10181559841E+03  0.00000000000E+00 0. -1.
         -1   -1    0    0    0  501 -0.00000000000E+00 -0.00000000000E+00 -0.18993945418E+03  0.18993945418E+03  0.00000000000E+00 0.  1.
         23    2    1    2    0    0  0.40165273965E+02 -0.15846718577E+02 -0.12558632427E+03  0.16043961648E+03  0.90025429568E+02 0.  0.
         23    2    1    2    0    0 -0.32687195594E+02 -0.44751377886E+01  0.44616205702E+02  0.10851027314E+03  0.93249096254E+02 0.  0.
        -13    1    4    4    0    0  0.50084474228E+01 -0.34583822761E+02 -0.92997989122E+01  0.36160912629E+02  0.00000000000E+00 0.  1.
         13    1    4    4    0    0 -0.37695643017E+02  0.30108684972E+02  0.53916004614E+02  0.72349360514E+02  0.00000000000E+00 0. -1.
        -13    1    3    3    0    0  0.21525775048E+02 -0.52737932626E+02 -0.86376830979E+02  0.10346789579E+03  0.00000000000E+00 0.  1.
         13    1    3    3    0    0  0.18639498917E+02  0.36891214049E+02 -0.39209493293E+02  0.56971720688E+02  0.00000000000E+00 0. -1.
         -1    1    1    2    0  502 -0.74780783705E+01  0.20321856366E+02 -0.71537372052E+01  0.22805162974E+02  0.00000000000E+00 0.  1.
<scales pt_clust_5="13000.00000" pt_clust_6="13000.00000" pt_clust_7="13000.00000" pt_clust_8="13000.00000" pt_clust_9="21.65410"></scales>
<clustering>
<clus scale="   21.654">  1  9  2 -1</clus>
<clus scale="   90.025">  7  8 -1 -1</clus>
<clus scale="   93.249">  5  6 -1 -1</clus>
<clus scale="   98.764">  2  7  1 -1</clus>
<clus scale="   21.654">  1  5  2 -1</clus>
</clustering>
</event>
<event>
 9    1  0.1610296E-005  0.1035061E+03  0.7546771E-02  0.1274733E+00
         21   -1    0    0  501  502  0.00000000000E+00  0.00000000000E+00  0.54686906977E+02  0.54686906977E+02  0.00000000000E+00 0.  1.
          2   -1    0    0  502    0 -0.00000000000E+00 -0.00000000000E+00 -0.41819763146E+03  0.41819763146E+03  0.00000000000E+00 0. -1.
         23    2    1    2    0    0  0.36161709314E+02  0.19739501480E+02 -0.29080668250E+03  0.30847373910E+03  0.94287878246E+02 0.  0.
         23    2    1    2    0    0 -0.53213817706E+02  0.47379262676E+01 -0.81667736209E+02  0.13326169528E+03  0.90746360537E+02 0.  0.
        -11    1    4    4    0    0 -0.73493317172E+02  0.16753646862E+01 -0.85113258214E+02  0.11246484446E+03  0.00000000000E+00 0.  1.
         11    1    4    4    0    0  0.20279499466E+02  0.30625615814E+01  0.34455220046E+01  0.20796850817E+02  0.00000000000E+00 0. -1.
        -13    1    3    3    0    0  0.58564901424E+02  0.36539884448E+02 -0.24714194372E+03  0.25660115195E+03  0.00000000000E+00 0. -1.
         13    1    3    3    0    0 -0.22403192110E+02 -0.16800382968E+02 -0.43664738779E+02  0.51872587146E+02  0.00000000000E+00 0.  1.
          2    1    1    2  501    0  0.17052108392E+02 -0.24477427748E+02  0.89636942284E+01  0.31149104064E+02  0.00000000000E+00 0. -1.
<scales pt_clust_5="13000.00000" pt_clust_6="13000.00000" pt_clust_7="13000.00000" pt_clust_8="13000.00000" pt_clust_9="29.83151"></scales>
<clustering>
<clus scale="   29.832">  1  9  2 -1</clus>
<clus scale="   90.746">  5  6 -1 -1</clus>
<clus scale="   94.288">  7  8 -1 -1</clus>
<clus scale="  100.291">  1  5  2 -1</clus>
<clus scale="   29.832">  1  5  2 -1</clus>
</clustering>
</event>
<event>
 9    1  0.1610296E-005  0.1627029E+03  0.7546771E-02  0.1186491E+00
         21   -1    0    0  501  502  0.00000000000E+00  0.00000000000E+00  0.44854219462E+02  0.44854219462E+02  0.00000000000E+00 0.  1.
          2   -1    0    0  502    0 -0.00000000000E+00 -0.00000000000E+00 -0.77360744872E+03  0.77360744872E+03  0.00000000000E+00 0. -1.
         23    2    1    2    0    0 -0.97526197503E+02  0.97491552835E+02 -0.50172416206E+03  0.52897466595E+03  0.95242324368E+02 0.  0.
         23    2    1    2    0    0  0.75036085075E+02 -0.93067237606E+02 -0.16233074985E+03  0.22084844171E+03  0.90171154369E+02 0.  0.
        -11    1    4    4    0    0  0.14559960652E+02 -0.73946616076E+02 -0.12848036858E+03  0.14895401838E+03  0.00000000000E+00 0. -1.
         11    1    4    4    0    0  0.60476124423E+02 -0.19120621531E+02 -0.33850381268E+02  0.71894423323E+02  0.00000000000E+00 0.  1.
        -11    1    3    3    0    0 -0.28717507195E+02  0.65694004962E+02 -0.11991602985E+03  0.13971489442E+03  0.00000000000E+00 0.  1.
         11    1    3    3    0    0 -0.68808690309E+02  0.31797547873E+02 -0.38180813221E+03  0.38925977153E+03  0.00000000000E+00 0. -1.
          2    1    1    2  501    0  0.22490112428E+02 -0.44243152293E+01 -0.64698317358E+02  0.68638560527E+02  0.00000000000E+00 0. -1.
<scales pt_clust_5="13000.00000" pt_clust_6="13000.00000" pt_clust_7="13000.00000" pt_clust_8="13000.00000" pt_clust_9="22.92117"></scales>
<clustering>
<clus scale="   22.921">  1  9  2 -1</clus>
<clus scale="   90.171">  5  6 -1 -1</clus>
<clus scale="   95.242">  7  8 -1 -1</clus>
<clus scale="  159.787">  1  5  2 -1</clus>
<clus scale="   22.921">  1  5  2 -1</clus>
</clustering>
</event>
<event>
 9    1  0.1610296E-005  0.1323807E+03  0.7546771E-02  0.1242989E+00
         21   -1    0    0  501  502  0.00000000000E+00  0.00000000000E+00  0.56102634248E+02  0.56102634248E+02  0.00000000000E+00 0. -1.
          4   -1    0    0  502    0 -0.00000000000E+00 -0.00000000000E+00 -0.50715927751E+03  0.50715927751E+03  0.00000000000E+00 0. -1.
         23    2    1    2    0    0  0.32621927994E+01 -0.60089336073E+01 -0.91134666303E+02  0.12778768422E+03  0.89316379521E+02 0.  0.
         23    2    1    2    0    0  0.90236097958E+02 -0.63858166771E+01 -0.29038644308E+03  0.31829594166E+03  0.93833299655E+02 0.  0.
        -11    1    4    4    0    0  0.10587562250E+03 -0.19741850562E+02 -0.26173189141E+03  0.28302468281E+03  0.00000000000E+00 0. -1.
         11    1    4    4    0    0 -0.15639524542E+02  0.13356033885E+02 -0.28654551679E+02  0.35271258851E+02  0.00000000000E+00 0.  1.
        -11    1    3    3    0    0 -0.40353435208E+02  0.34061350388E+01 -0.23684436864E+02  0.46914326581E+02  0.00000000000E+00 0.  1.
         11    1    3    3    0    0  0.43615628008E+02 -0.94150686461E+01 -0.67450229439E+02  0.80873357637E+02  0.00000000000E+00 0. -1.
          4    1    1    2  501    0 -0.93498290757E+02  0.12394750284E+02 -0.69535533875E+02  0.11717828587E+03  0.00000000000E+00 0. -1.
<scales pt_clust_5="13000.00000" pt_clust_6="13000.00000" pt_clust_7="13000.00000" pt_clust_8="13000.00000" pt_clust_9="93.38079"></scales>
<clustering>
<clus scale="   89.316">  7  8 -1 -1</clus>
<clus scale="   89.578">  2  7  1 -1</clus>
<clus scale="   93.381">  1  9  2 -1</clus>
<clus scale="   93.833">  5  6 -1 -1</clus>
<clus scale="   93.381">  1  5  2 -1</clus>
</clustering>
</event>
<event>
 9    1  0.1610296E-005  0.1040344E+03  0.7546771E-02  0.1272071E+00
         21   -1    0    0  501  502  0.00000000000E+00  0.00000000000E+00  0.61230638618E+02  0.61230638618E+02  0.00000000000E+00 0. -1.
          4   -1    0    0  502    0 -0.00000000000E+00 -0.00000000000E+00 -0.30238707314E+03  0.30238707314E+03  0.00000000000E+00 0. -1.
         23    2    1    2    0    0  0.37737034926E+01  0.52105600788E+02 -0.18568661520E+03  0.21288834476E+03  0.90070493508E+02 0.  0.
         23    2    1    2    0    0  0.22227897609E+02 -0.51387418845E+02 -0.63448068690E+02  0.12352180356E+03  0.89984622496E+02 0.  0.
        -13    1    4    4    0    0 -0.29179976529E+02 -0.28845391226E+02 -0.31677060276E+01  0.41152909821E+02  0.00000000000E+00 0.  1.
         13    1    4    4    0    0  0.51407874138E+02 -0.22542027619E+02 -0.60280362662E+02  0.82368893736E+02  0.00000000000E+00 0. -1.
        -13    1    3    3    0    0 -0.12962386607E+02  0.64744007455E+02 -0.73687823921E+02  0.98942939931E+02  0.00000000000E+00 0.  1.
         13    1    3    3    0    0  0.16736090099E+02 -0.12638406667E+02 -0.11199879128E+03  0.11394540483E+03  0.00000000000E+00 0. -1.
          4    1    1    2  501    0 -0.26001601101E+02 -0.71818194294E+00  0.79782493686E+01  0.27207563436E+02  0.00000000000E+00 0. -1.
<scales pt_clust_5="13000.00000" pt_clust_6="13000.00000" pt_clust_7="13000.00000" pt_clust_8="13000.00000" pt_clust_9="26.01152"></scales>
<clustering>
<clus scale="   26.012">  1  9  2 -1</clus>
<clus scale="   89.985">  5  6 -1 -1</clus>
<clus scale="   90.070">  7  8 -1 -1</clus>
<clus scale="  103.960">  1  5  2 -1</clus>
<clus scale="   26.012">  1  5  2 -1</clus>
</clustering>
</event>
<event>
 9    1  0.1610296E-005  0.1332106E+03  0.7546771E-02  0.1226100E+00
         21   -1    0    0  501  502  0.00000000000E+00  0.00000000000E+00  0.26143278016E+03  0.26143278016E+03  0.00000000000E+00 0. -1.
          4   -1    0    0  502    0 -0.00000000000E+00 -0.00000000000E+00 -0.12331081019E+03  0.12331081019E+03  0.00000000000E+00 0. -1.
         23    2    1    2    0    0  0.76970978801E+02  0.20658072357E+02 -0.14655581336E+02  0.11855252708E+03  0.86536859671E+02 0.  0.
         23    2    1    2    0    0 -0.12456312850E+03 -0.58527004499E+00  0.14240791785E+03  0.21350843422E+03  0.98942007735E+02 0.  0.
        -11    1    3    3    0    0 -0.10814213289E+02  0.18254457143E+02 -0.21829702660E+02  0.30441884516E+02  0.00000000000E+00 0. -1.
         11    1    3    3    0    0  0.87785192090E+02  0.24036152134E+01  0.71741213236E+01  0.88110642565E+02  0.00000000000E+00 0.  1.
        -13    1    4    4    0    0 -0.62481442863E+01  0.21946735022E+02  0.68494632264E+02  0.72195658693E+02  0.00000000000E+00 0.  1.
         13    1    4    4    0    0 -0.11831498421E+03 -0.22532005067E+02  0.73913285585E+02  0.14131277553E+03  0.00000000000E+00 0. -1.
          4    1    1    2  501    0  0.47592149694E+02 -0.20072802312E+02  0.10369633462E+02  0.52682629047E+02  0.00000000000E+00 0. -1.
<scales pt_clust_5="13000.00000" pt_clust_6="13000.00000" pt_clust_7="13000.00000" pt_clust_8="13000.00000" pt_clust_9="51.65204"></scales>
<clustering>
<clus scale="   51.652">  1  9  2 -1</clus>
<clus scale="   86.537">  5  6 -1 -1</clus>
<clus scale="   98.942">  7  8 -1 -1</clus>
<clus scale="  124.275">  2  5  1 -1</clus>
<clus scale="   51.652">  1  5  2 -1</clus>
</clustering>
</event>
<event>
 9    1  0.1610296E-005  0.1144517E+03  0.7546771E-02  0.1254491E+00
         21   -1    0    0  501  502  0.00000000000E+00  0.00000000000E+00  0.11628945962E+03  0.11628945962E+03  0.00000000000E+00 0.  1.
          1   -1    0    0  502    0 -0.00000000000E+00 -0.00000000000E+00 -0.42722789585E+03  0.42722789585E+03  0.00000000000E+00 0. -1.
         23    2    1    2    0    0  0.44385546213E+02  0.50591804237E+02 -0.33854944025E+03  0.35737743081E+03  0.92592101114E+02 0.  0.
         23    2    1    2    0    0 -0.15742768504E+02 -0.74120956795E+02  0.65797821708E+02  0.13292091696E+03  0.87160001305E+02 0.  0.
        -13    1    3    3    0    0  0.24181698950E+02  0.71349725062E+02 -0.29905940699E+03  0.30840244282E+03  0.00000000000E+00 0. -1.
         13    1    3    3    0    0  0.20203847263E+02 -0.20757920826E+02 -0.39490033265E+02  0.48974987989E+02  0.00000000000E+00 0.  1.
        -13    1    4    4    0    0 -0.46735762240E+02 -0.17591848902E+02  0.19769763908E+02  0.53707989954E+02  0.00000000000E+00 0. -1.
         13    1    4    4    0    0  0.30992993736E+02 -0.56529107893E+02  0.46028057801E+02  0.79212927005E+02  0.00000000000E+00 0.  1.
          1    1    1    2  501    0 -0.28642777708E+02  0.23529152559E+02 -0.38186817687E+02  0.53219007695E+02  0.00000000000E+00 0. -1.
<scales pt_clust_5="13000.00000" pt_clust_6="13000.00000" pt_clust_7="13000.00000" pt_clust_8="13000.00000" pt_clust_9="37.06793"></scales>
<clustering>
<clus scale="   37.068">  1  9  2 -1</clus>
<clus scale="   87.160">  7  8 -1 -1</clus>
<clus scale="   92.592">  5  6 -1 -1</clus>
<clus scale="  110.103">  1  7  2 -1</clus>
<clus scale="   37.068">  1  5  2 -1</clus>
</clustering>
</event>
<event>
 9    1  0.1610296E-005  0.2187887E+03  0.7546771E-02  0.1169636E+00
          1   -1    0    0  502    0 -0.00000000000E+00  0.00000000000E+00  0.24165575864E+03  0.24165575864E+03  0.00000000000E+00 0. -1.
         21   -1    0    0  501  502  0.00000000000E+00 -0.00000000000E+00 -0.30823820369E+03  0.30823820369E+03  0.00000000000E+00 0.  1.
         23    2    1    2    0    0 -0.26243132048E+02 -0.63567912525E+01 -0.62926155353E+02  0.11487676015E+03  0.92238051915E+02 0.  0.
         23    2    1    2    0    0  0.19844768207E+03  0.87313107331E+02  0.44013807188E+02  0.23885204141E+03  0.90044551377E+02 0.  0.
        -11    1    4    4    0    0  0.15485794209E+02  0.13896752241E+02 -0.22638055218E+02  0.30747537937E+02  0.00000000000E+00 0. -1.
         11    1    4    4    0    0  0.18296188786E+03  0.73416355090E+02  0.66651862406E+02  0.20810450347E+03  0.00000000000E+00 0.  1.
        -13    1    3    3    0    0 -0.57426832326E+02  0.70117197148E+01 -0.55447522185E+02  0.80133844291E+02  0.00000000000E+00 0.  1.
         13    1    3    3    0    0  0.31183700278E+02 -0.13368510967E+02 -0.74786331684E+01  0.34742915862E+02  0.00000000000E+00 0. -1.
          1    1    1    2  501    0 -0.17220455002E+03 -0.80956316079E+02 -0.47670096887E+02  0.19616516076E+03  0.00000000000E+00 0. -1.
<scales pt_clust_5="13000.00000" pt_clust_6="13000.00000" pt_clust_7="13000.00000" pt_clust_8="13000.00000" pt_clust_9="199.40033"></scales>
<clustering>
<clus scale="   90.045">  5  6 -1 -1</clus>
<clus scale="   92.238">  7  8 -1 -1</clus>
<clus scale="   96.109">  1  7  2 -1</clus>
<clus scale="  199.400">  2  9  1 -1</clus>
<clus scale="  199.400">  2  5  1 -1</clus>
</clustering>
</event>
<event>
 9    1  0.1610296E-005  0.1035820E+03  0.7546771E-02  0.1273172E+00
         21   -1    0    0  501  502  0.00000000000E+00  0.00000000000E+00  0.46417669667E+02  0.46417669667E+02  0.00000000000E+00 0. -1.
          2   -1    0    0  502    0 -0.00000000000E+00 -0.00000000000E+00 -0.81744628737E+03  0.81744628737E+03  0.00000000000E+00 0. -1.
         23    2    1    2    0    0  0.52422757453E+02  0.32801442498E+01 -0.48517606905E+03  0.49659858206E+03  0.91953406029E+02 0.  0.
         23    2    1    2    0    0 -0.28468927856E+02 -0.47110627478E+02 -0.29742581010E+03  0.31599318375E+03  0.91431332656E+02 0.  0.
        -11    1    3    3    0    0 -0.52785078602E+01  0.37317026766E+02 -0.21230299415E+03  0.21562231902E+03  0.00000000000E+00 0.  1.
         11    1    3    3    0    0  0.57701265314E+02 -0.34036882516E+02 -0.27287307489E+03  0.28097626304E+03  0.00000000000E+00 0. -1.
        -11    1    4    4    0    0  0.18663554790E+02  0.17972288830E+02 -0.85699083894E+02  0.89530243066E+02  0.00000000000E+00 0.  1.
         11    1    4    4    0    0 -0.47132482646E+02 -0.65082916308E+02 -0.21172672620E+03  0.22646294069E+03  0.00000000000E+00 0. -1.
          2    1    1    2  501    0 -0.23953829597E+02  0.43830483228E+02  0.11573261445E+02  0.51272191224E+02  0.00000000000E+00 0. -1.
<scales pt_clust_5="13000.00000" pt_clust_6="13000.00000" pt_clust_7="13000.00000" pt_clust_8="13000.00000" pt_clust_9="49.94895"></scales>
<clustering>
<clus scale="   49.949">  1  9  2 -1</clus>
<clus scale="   91.431">  7  8 -1 -1</clus>
<clus scale="   91.953">  5  6 -1 -1</clus>
<clus scale="  103.119">  1  7  2 -1</clus>
<clus scale="   49.949">  1  5  2 -1</clus>
</clustering>
</event>
<event>
 9    1  0.1610296E-005  0.1981333E+03  0.7546771E-02  0.1168952E+00
          3   -1    0    0  502    0 -0.00000000000E+00  0.00000000000E+00  0.25524633128E+03  0.25524633128E+03  0.00000000000E+00 0. -1.
         21   -1    0    0  501  502  0.00000000000E+00 -0.00000000000E+00 -0.54290534429E+03  0.54290534429E+03  0.00000000000E+00 0. -1.
         23    2    1    2    0    0  0.90361216051E+02  0.17953581151E+02  0.14120849254E+03  0.19292381564E+03  0.93767157547E+02 0.  0.
         23    2    1    2    0    0  0.10967488099E+03 -0.45091206293E+01 -0.11201212483E+02  0.14193494395E+03  0.89281294044E+02 0.  0.
        -11    1    3    3    0    0  0.23139763765E+02 -0.37544317528E+02  0.42744720829E+02  0.61417714093E+02  0.00000000000E+00 0.  1.
         11    1    3    3    0    0  0.67221452286E+02  0.55497898679E+02  0.98463771708E+02  0.13150610155E+03  0.00000000000E+00 0. -1.
        -13    1    4    4    0    0  0.47718603248E+02  0.21862660379E+02 -0.42636438396E+02  0.67623271837E+02  0.00000000000E+00 0.  1.
         13    1    4    4    0    0  0.61956277737E+02 -0.26371781008E+02  0.31435225914E+02  0.74311672117E+02  0.00000000000E+00 0. -1.
          3    1    1    2  501    0 -0.20003609704E+03 -0.13444460522E+02 -0.41766629306E+03  0.46329291597E+03  0.00000000000E+00 0. -1.
<scales pt_clust_5="13000.00000" pt_clust_6="13000.00000" pt_clust_7="13000.00000" pt_clust_8="13000.00000" pt_clust_9="176.87755"></scales>
<clustering>
<clus scale="   89.281">  7  8 -1 -1</clus>
<clus scale="   93.767">  5  6 -1 -1</clus>
<clus scale="  131.453">  1  5  2 -1</clus>
<clus scale="  176.878">  2  9  1 -1</clus>
<clus scale="  176.878">  2  5  1 -1</clus>
</clustering>
</event>
<event>
 9    1  0.1610296E-005  0.9952167E+02  0.7546771E-02  0.1284132E+00
          2   -1    0    0  502    0 -0.00000000000E+00  0.00000000000E+00  0.63386725338E+03  0.63386725338E+03  0.00000000000E+00 0. -1.
         21   -1    0    0  501  502  0.00000000000E+00 -0.00000000000E+00 -0.25336407919E+02  0.25336407919E+02  0.00000000000E+00 0.  1.
         23    2    1    2    0    0  0.94327374409E+01 -0.12706081321E+02  0.32337471423E+03  0.33651044967E+03  0.91747784121E+02 0.  0.
         23    2    1    2    0    0  0.84695989787E+01  0.35025934782E+02  0.27230235927E+03  0.29132620729E+03  0.97076433667E+02 0.  0.
        -11    1    4    4    0    0 -0.32683112454E+02 -0.16446936256E+02  0.11793578584E+03  0.12348091810E+03  0.00000000000E+00 0. -1.
         11    1    4    4    0    0  0.41152711432E+02  0.51472871038E+02  0.15436657343E+03  0.16784528919E+03  0.00000000000E+00 0.  1.
        -11    1    3    3    0    0 -0.37427101523E+02 -0.86393695334E+01  0.21446733560E+03  0.21787993179E+03  0.00000000000E+00 0.  1.
         11    1    3    3    0    0  0.46859838964E+02 -0.40667117876E+01  0.10890737863E+03  0.11863051788E+03  0.00000000000E+00 0. -1.
          2    1    1    2  501    0 -0.17902336420E+02 -0.22319853461E+02  0.12853771951E+02  0.31367004338E+02  0.00000000000E+00 0. -1.
<scales pt_clust_5="13000.00000" pt_clust_6="13000.00000" pt_clust_7="13000.00000" pt_clust_8="13000.00000" pt_clust_9="28.61240"></scales>
<clustering>
<clus scale="   28.612">  2  9  1 -1</clus>
<clus scale="   91.748">  7  8 -1 -1</clus>
<clus scale="   94.331">  1  7  2 -1</clus>
<clus scale="   97.076">  5  6 -1 -1</clus>
<clus scale="   28.612">  2  5  1 -1</clus>
</clustering>
</event>
<event>
 9    1  0.1610296E-005  0.9993549E+02  0.7546771E-02  0.1281701E+00
         21   -1    0    0  501  502  0.00000000000E+00  0.00000000000E+00  0.20346804354E+03  0.20346804354E+03  0.00000000000E+00 0.  1.
         -1   -1    0    0    0  501 -0.00000000000E+00 -0.00000000000E+00 -0.15404352505E+03  0.15404352505E+03  0.00000000000E+00 0.  1.
         23    2    1    2    0    0 -0.97693207703E+01 -0.32905710280E+02 -0.11055832693E+03  0.14742375606E+03  0.91281952222E+02 0.  0.
         23    2    1    2    0    0  0.36491088363E+02  0.24710616051E+02  0.14538854058E+03  0.17855677755E+03  0.93821538041E+02 0.  0.
        -11    1    3    3    0    0 -0.49518981250E+02 -0.27828449944E+02 -0.73050919575E+02  0.92536419755E+02  0.00000000000E+00 0.  1.
         11    1    3    3    0    0  0.39749660479E+02 -0.50772603365E+01 -0.37507407352E+02  0.54887336308E+02  0.00000000000E+00 0. -1.
        -13    1    4    4    0    0  0.50278905242E+02 -0.17303749442E+02  0.48142247972E+02  0.71729102161E+02  0.00000000000E+00 0.  1.
         13    1    4    4    0    0 -0.13787816879E+02  0.42014365493E+02  0.97246292612E+02  0.10682767539E+03  0.00000000000E+00 0. -1.
         -1    1    1    2    0  502 -0.26721767593E+02  0.81950942289E+01  0.14594304837E+02  0.31531034972E+02  0.00000000000E+00 0.  1.
<scales pt_clust_5="13000.00000" pt_clust_6="13000.00000" pt_clust_7="13000.00000" pt_clust_8="13000.00000" pt_clust_9="27.95018"></scales>
<clustering>
<clus scale="   27.950">  1  9  2 -1</clus>
<clus scale="   91.282">  5  6 -1 -1</clus>
<clus scale="   93.822">  7  8 -1 -1</clus>
<clus scale="   97.555">  2  5  1 -1</clus>
<clus scale="   27.950">  1  5  2 -1</clus>
</clustering>
</event>
<event>
 9    1  0.1610296E-005  0.1567657E+03  0.7546771E-02  0.1192464E+00
         21   -1    0    0  501  502  0.00000000000E+00  0.00000000000E+00  0.35781066018E+03  0.35781066018E+03  0.00000000000E+00 0.  1.
          2   -1    0    0  502    0 -0.00000000000E+00 -0.00000000000E+00 -0.11885283687E+03  0.11885283687E+03  0.00000000000E+00 0. -1.
         23    2    1    2    0    0 -0.12593801993E+03  0.53316076659E+02 -0.89439056718E+01  0.16490440723E+03  0.91708675605E+02 0.  0.
         23    2    1    2    0    0  0.84489909158E+02 -0.44829568198E+02  0.23050793593E+03  0.26601512028E+03  0.92097235321E+02 0.  0.
        -11    1    4    4    0    0  0.54232499588E+02 -0.71485577231E+02  0.18214104060E+03  0.20304361708E+03  0.00000000000E+00 0.  1.
         11    1    4    4    0    0  0.30257409569E+02  0.26656009033E+02  0.48366895328E+02  0.62971503198E+02  0.00000000000E+00 0. -1.
        -13    1    3    3    0    0 -0.76284217928E+02  0.77613174052E+02 -0.12323374646E+02  0.10952146937E+03  0.00000000000E+00 0. -1.
         13    1    3    3    0    0 -0.49653802005E+02 -0.24297097393E+02  0.33794689738E+01  0.55382937859E+02  0.00000000000E+00 0.  1.
          2    1    1    2  501    0  0.41448110775E+02 -0.84865084607E+01  0.17393793048E+02  0.45743969540E+02  0.00000000000E+00 0. -1.
<scales pt_clust_5="13000.00000" pt_clust_6="13000.00000" pt_clust_7="13000.00000" pt_clust_8="13000.00000" pt_clust_9="42.30802"></scales>
<clustering>
<clus scale="   42.308">  1  9  2 -1</clus>
<clus scale="   91.709">  7  8 -1 -1</clus>
<clus scale="   92.097">  5  6 -1 -1</clus>
<clus scale="  156.538">  2  7  1 -1</clus>
<clus scale="   42.308">  1  5  2 -1</clus>
</clustering>
</event>
<event>
 9    1  0.1610296E-005  0.1046968E+03  0.7546771E-02  0.1271265E+00
         21   -1    0    0  501  502  0.00000000000E+00  0.00000000000E+00  0.34837837413E+02  0.34837837413E+02  0.00000000000E+00 0.  1.
          2   -1    0    0  502    0 -0.00000000000E+00 -0.00000000000E+00 -0.68402880904E+03  0.68402880904E+03  0.00000000000E+00 0. -1.
         23    2    1    2    0    0 -0.17433257663E+02  0.43248425150E+02 -0.35565249486E+03  0.37022437756E+03  0.91668139981E+02 0.  0.
         23    2    1    2    0    0  0.74697352432E+02 -0.17896733894E+02 -0.23338985479E+03  0.26181058387E+03  0.90410010295E+02 0.  0.
        -11    1    3    3    0    0 -0.44264397702E+02 -0.70194752195E+01 -0.18319024936E+03  0.18859288798E+03  0.00000000000E+00 0. -1.
         11    1    3    3    0    0  0.26831140039E+02  0.50267900369E+02 -0.17246224550E+03  0.18163148957E+03  0.00000000000E+00 0.  1.
        -13    1    4    4    0    0  0.77878757304E+02 -0.45623747492E+02 -0.16792220169E+03  0.19064231691E+03  0.00000000000E+00 0.  1.
         13    1    4    4    0    0 -0.31814048717E+01  0.27727013598E+02 -0.65467653095E+02  0.71168266958E+02  0.00000000000E+00 0. -1.
          2    1    1    2  501    0 -0.57264094769E+02 -0.25351691256E+02 -0.60148621984E+02  0.86831685034E+02  0.00000000000E+00 0. -1.
<scales pt_clust_5="13000.00000" pt_clust_6="13000.00000" pt_clust_7="13000.00000" pt_clust_8="13000.00000" pt_clust_9="62.62495"></scales>
<clustering>
<clus scale="   62.625">  1  9  2 -1</clus>
<clus scale="   90.410">  7  8 -1 -1</clus>
<clus scale="   91.668">  5  6 -1 -1</clus>
<clus scale="  103.597">  1  7  2 -1</clus>
<clus scale="   62.625">  1  5  2 -1</clus>
</clustering>
</event>
<event>
 9    1  0.1610296E-005  0.1301506E+03  0.7546771E-02  0.1227337E+00
         -1   -1    0    0    0  501 -0.00000000000E+00  0.00000000000E+00  0.27149242381E+03  0.27149242381E+03  0.00000000000E+00 0.  1.
         21   -1    0    0  501  502  0.00000000000E+00 -0.00000000000E+00 -0.94739273637E+02  0.94739273637E+02  0.00000000000E+00 0. -1.
         23    2    1    2    0    0  0.51093329760E+02  0.86641098890E+02  0.14638574167E+03  0.19949488291E+03  0.90841700657E+02 0.  0.
         23    2    1    2    0    0 -0.46728586955E+02 -0.66698053390E+02  0.55543575661E+02  0.13432361606E+03  0.91244473089E+02 0.  0.
        -13    1    3    3    0    0  0.13639502072E+02  0.88408136945E+02  0.67209513428E+02  0.11188902265E+03  0.00000000000E+00 0.  1.
         13    1    3    3    0    0  0.37453827688E+02 -0.17670380548E+01  0.79176228243E+02  0.87605860254E+02  0.00000000000E+00 0. -1.
        -13    1    4    4    0    0 -0.89610221934E+01 -0.54829047287E+02  0.72430594675E+02  0.91283708241E+02  0.00000000000E+00 0.  1.
         13    1    4    4    0    0 -0.37767564762E+02 -0.11869006104E+02 -0.16887019014E+02  0.43039907819E+02  0.00000000000E+00 0. -1.
         -1    1    1    2    0  502 -0.43647428050E+01 -0.19943045500E+02 -0.25176167154E+02  0.32413198487E+02  0.00000000000E+00 0.  1.
<scales pt_clust_5="13000.00000" pt_clust_6="13000.00000" pt_clust_7="13000.00000" pt_clust_8="13000.00000" pt_clust_9="20.41509"></scales>
<clustering>
<clus scale="   20.415">  2  9  1 -1</clus>
<clus scale="   90.842">  5  6 -1 -1</clus>
<clus scale="   91.244">  7  8 -1 -1</clus>
<clus scale="  129.869">  1  5  2 -1</clus>
<clus scale="   20.415">  2  5  1 -1</clus>
</clustering>
</event>
<event>
 9    1  0.1610296E-005  0.1035393E+03  0.7546771E-02  0.1280102E+00
         -1   -1    0    0    0  501 -0.00000000000E+00  0.00000000000E+00  0.88594060776E+02  0.88594060776E+02  0.00000000000E+00 0.  1.
         21   -1    0    0  501  502  0.00000000000E+00 -0.00000000000E+00 -0.26584834665E+03  0.26584834665E+03  0.00000000000E+00 0. -1.
         23    2    1    2    0    0  0.29862165083E+02  0.24898838075E+02  0.11044390858E+02  0.85183954025E+02  0.74984174417E+02 0.  0.
         23    2    1    2    0    0 -0.69485323545E+02 -0.68289101177E+02 -0.11877071033E+03  0.17822632869E+03  0.90368861209E+02 0.  0.
        -13    1    4    4    0    0 -0.25362275238E+02 -0.26052410040E+02  0.82497743447E+01  0.37283130916E+02  0.00000000000E+00 0.  1.
         13    1    4    4    0    0 -0.44123048306E+02 -0.42236691137E+02 -0.12702048468E+03  0.14094319777E+03  0.00000000000E+00 0. -1.
        -13    1    3    3    0    0 -0.23134960124E+02 -0.30475499323E+01 -0.33258580462E+01  0.23570644291E+02  0.00000000000E+00 0.  1.
         13    1    3    3    0    0  0.52997125207E+02  0.27946388008E+02  0.14370248904E+02  0.61613309735E+02  0.00000000000E+00 0. -1.
         -1    1    1    2    0  502  0.39623158462E+02  0.43390263102E+02 -0.69527966402E+02  0.91032124717E+02  0.00000000000E+00 0.  1.
<scales pt_clust_5="13000.00000" pt_clust_6="13000.00000" pt_clust_7="13000.00000" pt_clust_8="13000.00000" pt_clust_9="58.75976"></scales>
<clustering>
<clus scale="   58.760">  2  9  1 -1</clus>
<clus scale="   74.984">  7  8 -1 -1</clus>
<clus scale="   90.369">  5  6 -1 -1</clus>
<clus scale="   90.424">  1  7  2 -1</clus>
<clus scale="   58.760">  2  5  1 -1</clus>
</clustering>
</event>
<event>
 9    1  0.1610296E-005  0.1261755E+03  0.7546771E-02  0.1233641E+00
         21   -1    0    0  501  502  0.00000000000E+00  0.00000000000E+00  0.35382092123E+02  0.35382092123E+02  0.00000000000E+00 0. -1.
          2   -1    0    0  502    0 -0.00000000000E+00 -0.00000000000E+00 -0.11325979399E+04  0.11325979399E+04  0.00000000000E+00 0. -1.
         23    2    1    2    0    0 -0.86504155228E+02 -0.30800994532E+02 -0.67747726731E+03  0.68968023262E+03  0.90838898124E+02 0.  0.
         23    2    1    2    0    0  0.59829839059E+02  0.56191101811E+02 -0.42363935156E+03  0.44126747969E+03  0.92247703896E+02 0.  0.
        -11    1    4    4    0    0  0.44186714962E+02 -0.10838087418E+02 -0.92907054397E+02  0.10344878286E+03  0.00000000000E+00 0.  1.
         11    1    4    4    0    0  0.15643124096E+02  0.67029189229E+02 -0.33073229717E+03  0.33781869683E+03  0.00000000000E+00 0. -1.
        -11    1    3    3    0    0 -0.35436072450E+02 -0.60444423562E+02 -0.35806170524E+03  0.36485261179E+03  0.00000000000E+00 0.  1.
         11    1    3    3    0    0 -0.51068082778E+02  0.29643429030E+02 -0.31941556207E+03  0.32482762084E+03  0.00000000000E+00 0. -1.
          2    1    1    2  501    0  0.26674316170E+02 -0.25390107280E+02  0.39007710625E+01  0.37032319745E+02  0.00000000000E+00 0. -1.
<scales pt_clust_5="13000.00000" pt_clust_6="13000.00000" pt_clust_7="13000.00000" pt_clust_8="13000.00000" pt_clust_9="36.82630"></scales>
<clustering>
<clus scale="   36.826">  1  9  2 -1</clus>
<clus scale="   90.839">  7  8 -1 -1</clus>
<clus scale="   92.248">  5  6 -1 -1</clus>
<clus scale="  125.149">  2  7  1 -1</clus>
<clus scale="   36.826">  1  5  2 -1</clus>
</clustering>
</event>
<event>
 9    1  0.1610296E-005  0.9888100E+02  0.7546771E-02  0.1283705E+00
         -1   -1    0    0    0  501 -0.00000000000E+00  0.00000000000E+00  0.67271847585E+02  0.67271847585E+02  0.00000000000E+00 0.  1.
         21   -1    0    0  501  502  0.00000000000E+00 -0.00000000000E+00 -0.20662397163E+03  0.20662397163E+03  0.00000000000E+00 0. -1.
         23    2    1    2    0    0 -0.35908226609E+02 -0.40697239069E+02 -0.45438035820E+02  0.11557083186E+03  0.91358284088E+02 0.  0.
         23    2    1    2    0    0  0.71453848874E+01  0.19531111090E+02 -0.64885784193E+02  0.11230381318E+03  0.89271835641E+02 0.  0.
        -11    1    3    3    0    0 -0.26470228986E+02  0.29257727040E+01 -0.62383314959E+02  0.67830016613E+02  0.00000000000E+00 0. -1.
         11    1    3    3    0    0 -0.94379976234E+01 -0.43623011773E+02  0.16945279139E+02  0.47740815246E+02  0.00000000000E+00 0.  1.
        -13    1    4    4    0    0 -0.21128719313E+02 -0.27404300144E+02 -0.13372962578E+02  0.37097905255E+02  0.00000000000E+00 0.  1.
         13    1    4    4    0    0  0.28274104200E+02  0.46935411234E+02 -0.51512821615E+02  0.75205907924E+02  0.00000000000E+00 0. -1.
         -1    1    1    2    0  502  0.28762841722E+02  0.21166127979E+02 -0.29028304030E+02  0.46021174175E+02  0.00000000000E+00 0.  1.
<scales pt_clust_5="13000.00000" pt_clust_6="13000.00000" pt_clust_7="13000.00000" pt_clust_8="13000.00000" pt_clust_9="35.71143"></scales>
<clustering>
<clus scale="   35.711">  2  9  1 -1</clus>
<clus scale="   89.272">  7  8 -1 -1</clus>
<clus scale="   91.358">  5  6 -1 -1</clus>
<clus scale="   96.957">  2  7  1 -1</clus>
<clus scale="   35.711">  2  5  1 -1</clus>
</clustering>
</event>
<event>
 9    1  0.1610296E-005  0.9716336E+02  0.7546771E-02  0.1288837E+00
         21   -1    0    0  501  502  0.00000000000E+00  0.00000000000E+00  0.53109700819E+02  0.53109700819E+02  0.00000000000E+00 0. -1.
          3   -1    0    0  502    0 -0.00000000000E+00 -0.00000000000E+00 -0.35273517725E+03  0.35273517725E+03  0.00000000000E+00 0. -1.
         23    2    1    2    0    0 -0.12421381989E+02 -0.39452839428E+01 -0.18605389716E+03  0.20964754781E+03  0.95740198771E+02 0.  0.
         23    2    1    2    0    0  0.81300482431E+01  0.23952604122E+02 -0.13606573648E+03  0.16578852372E+03  0.91280474488E+02 0.  0.
        -11    1    3    3    0    0 -0.32952892793E+02 -0.29565205731E+02 -0.39085194213E+02  0.59056303136E+02  0.00000000000E+00 0.  1.
         11    1    3    3    0    0  0.20531510804E+02  0.25619921788E+02 -0.14696870294E+03  0.15059124468E+03  0.00000000000E+00 0. -1.
        -13    1    4    4    0    0 -0.34986775877E+02  0.35523235418E+02 -0.66153184650E+02  0.82838509042E+02  0.00000000000E+00 0.  1.
         13    1    4    4    0    0  0.43116824120E+02 -0.11570631296E+02 -0.69912551834E+02  0.82950014676E+02  0.00000000000E+00 0. -1.
          3    1    1    2  501    0  0.42913337460E+01 -0.20007320179E+02  0.22494157215E+02  0.30408806535E+02  0.00000000000E+00 0. -1.
<scales pt_clust_5="13000.00000" pt_clust_6="13000.00000" pt_clust_7="13000.00000" pt_clust_8="13000.00000" pt_clust_9="20.46237"></scales>
<clustering>
<clus scale="   20.462">  1  9  2 -1</clus>
<clus scale="   91.280">  7  8 -1 -1</clus>
<clus scale="   92.772">  1  7  2 -1</clus>
<clus scale="   95.740">  5  6 -1 -1</clus>
<clus scale="   20.462">  1  5  2 -1</clus>
</clustering>
</event>
<event>
 9    1  0.1610296E-005  0.1366872E+03  0.7546771E-02  0.1218443E+00
         21   -1    0    0  501  502  0.00000000000E+00  0.00000000000E+00  0.27065130184E+03  0.27065130184E+03  0.00000000000E+00 0.  1.
          1   -1    0    0  502    0 -0.00000000000E+00 -0.00000000000E+00 -0.15293823655E+03  0.15293823655E+03  0.00000000000E+00 0. -1.
         23    2    1    2    0    0  0.80861648115E+02  0.60505032266E+02 -0.76705228085E+02  0.15715568787E+03  0.92815694525E+02 0.  0.
         23    2    1    2    0    0 -0.10153650449E+03 -0.24665381706E+02  0.12878168869E+03  0.18884458507E+03  0.90330012563E+02 0.  0.
        -11    1    4    4    0    0 -0.10882655424E+03 -0.43710536781E+02  0.11484980955E+03  0.16414721651E+03  0.00000000000E+00 0.  1.
         11    1    4    4    0    0  0.72900497590E+01  0.19045155075E+02  0.13931879145E+02  0.24697368561E+02  0.00000000000E+00 0. -1.
        -11    1    3    3    0    0  0.36389838082E+02  0.69823699092E+02 -0.14402064191E+02  0.80043667604E+02  0.00000000000E+00 0.  1.
         11    1    3    3    0    0  0.44471810033E+02 -0.93186668255E+01 -0.62303163893E+02  0.77112020270E+02  0.00000000000E+00 0. -1.
          1    1    1    2  501    0  0.20674856371E+02 -0.35839650561E+02  0.65636604682E+02  0.77589265446E+02  0.00000000000E+00 0. -1.
<scales pt_clust_5="13000.00000" pt_clust_6="13000.00000" pt_clust_7="13000.00000" pt_clust_8="13000.00000" pt_clust_9="41.37548"></scales>
<clustering>
<clus scale="   41.375">  1  9  2 -1</clus>
<clus scale="   90.330">  5  6 -1 -1</clus>
<clus scale="   92.816">  7  8 -1 -1</clus>
<clus scale="  135.012">  1  5  2 -1</clus>
<clus scale="   41.375">  1  5  2 -1</clus>
</clustering>
</event>
<event>
 9    1  0.1610296E-005  0.1300014E+03  0.7546771E-02  0.1227968E+00
         -1   -1    0    0    0  501 -0.00000000000E+00  0.00000000000E+00  0.45303859768E+03  0.45303859768E+03  0.00000000000E+00 0.  1.
         21   -1    0    0  501  502  0.00000000000E+00 -0.00000000000E+00 -0.79306824051E+02  0.79306824051E+02  0.00000000000E+00 0.  1.
         23    2    1    2    0    0 -0.68597804655E+02 -0.17986852946E+02  0.15873362318E+03  0.19608434935E+03  0.90683643783E+02 0.  0.
         23    2    1    2    0    0  0.12932647069E+03 -0.41439314354E+02  0.18163656551E+03  0.24497889675E+03  0.92629720544E+02 0.  0.
        -11    1    4    4    0    0  0.35388633596E+02 -0.38311415416E+02  0.16035844608E+02  0.54564349636E+02  0.00000000000E+00 0. -1.
         11    1    4    4    0    0  0.93937837094E+02 -0.31278989378E+01  0.16560072090E+03  0.19041454712E+03  0.00000000000E+00 0.  1.
        -13    1    3    3    0    0 -0.71598304285E+02 -0.45553509230E+02  0.10014404719E+03  0.13126412140E+03  0.00000000000E+00 0. -1.
         13    1    3    3    0    0  0.30004996302E+01  0.27566656284E+02  0.58589575985E+02  0.64820227945E+02  0.00000000000E+00 0.  1.
         -1    1    1    2    0  502 -0.60728666035E+02  0.59426167300E+02  0.33361584943E+02  0.91282175633E+02  0.00000000000E+00 0.  1.
<scales pt_clust_5="13000.00000" pt_clust_6="13000.00000" pt_clust_7="13000.00000" pt_clust_8="13000.00000" pt_clust_9="84.96729"></scales>
<clustering>
<clus scale="   84.967">  2  9  1 -1</clus>
<clus scale="   90.684">  7  8 -1 -1</clus>
<clus scale="   92.630">  5  6 -1 -1</clus>
<clus scale="  128.622">  1  7  2 -1</clus>
<clus scale="   84.967">  2  5  1 -1</clus>
</clustering>
</event>
<event>
 9    1  0.1610296E-005  0.1018976E+03  0.7546771E-02  0.1279467E+00
         21   -1    0    0  501  502  0.00000000000E+00  0.00000000000E+00  0.64525791016E+02  0.64525791016E+02  0.00000000000E+00 0. -1.
          1   -1    0    0  502    0 -0.00000000000E+00 -0.00000000000E+00 -0.40308815424E+03  0.40308815424E+03  0.00000000000E+00 0. -1.
         23    2    1    2    0    0  0.33261897069E+02 -0.28974611896E+02 -0.28712443587E+03  0.30260436364E+03  0.84753037073E+02 0.  0.
         23    2    1    2    0    0 -0.62722568404E+02  0.27053170205E+01 -0.16067455919E+02  0.11200885276E+03  0.91358527956E+02 0.  0.
        -11    1    4    4    0    0 -0.19677229249E+02 -0.38307522845E+02  0.14129540036E+02  0.45324425634E+02  0.00000000000E+00 0. -1.
         11    1    4    4    0    0 -0.43045339155E+02  0.41012839866E+02 -0.30196995955E+02  0.66684427129E+02  0.00000000000E+00 0.  1.
        -13    1    3    3    0    0 -0.28383145791E+02 -0.14989460186E+02 -0.86879868926E+02  0.92619644278E+02  0.00000000000E+00 0.  1.
         13    1    3    3    0    0  0.61645042860E+02 -0.13985151710E+02 -0.20024456694E+03  0.20998471937E+03  0.00000000000E+00 0. -1.
          1    1    1    2  501    0  0.29460671335E+02  0.26269294876E+02 -0.35370471436E+02  0.53000728848E+02  0.00000000000E+00 0. -1.
<scales pt_clust_5="13000.00000" pt_clust_6="13000.00000" pt_clust_7="13000.00000" pt_clust_8="13000.00000" pt_clust_9="39.47160"></scales>
<clustering>
<clus scale="   39.472">  1  9  2 -1</clus>
<clus scale="   84.753">  7  8 -1 -1</clus>
<clus scale="   91.359">  5  6 -1 -1</clus>
<clus scale="   96.020">  2  7  1 -1</clus>
<clus scale="   39.472">  1  5  2 -1</clus>
</clustering>
</event>
<event>
 9    1  0.1610296E-005  0.2209301E+03  0.7546771E-02  0.1143249E+00
         21   -1    0    0  501  502  0.00000000000E+00  0.00000000000E+00  0.13562036907E+03  0.13562036907E+03  0.00000000000E+00 0.  1.
          1   -1    0    0  502    0 -0.00000000000E+00 -0.00000000000E+00 -0.13518425243E+04  0.13518425243E+04  0.00000000000E+00 0. -1.
         23    2    1    2    0    0  0.10484903560E+02  0.14662604525E+03 -0.86258341261E+03  0.87980116362E+03  0.91601383498E+02 0.  0.
         23    2    1    2    0    0  0.18194703562E+03 -0.12096235799E+03 -0.42593144464E+02  0.24100379624E+03  0.92369031742E+02 0.  0.
        -11    1    4    4    0    0  0.12336579130E+03 -0.82349588567E+02 -0.72061810691E+02  0.16490445040E+03  0.00000000000E+00 0. -1.
         11    1    4    4    0    0  0.58581244322E+02 -0.38612769421E+02  0.29468666227E+02  0.76099345844E+02  0.00000000000E+00 0.  1.
        -13    1    3    3    0    0 -0.15132723804E+02  0.13455444905E+03 -0.79617308045E+03  0.80760477532E+03  0.00000000000E+00 0.  1.
         13    1    3    3    0    0  0.25617627363E+02  0.12071596206E+02 -0.66410332158E+02  0.72196388303E+02  0.00000000000E+00 0. -1.
          1    1    1    2  501    0 -0.19243193918E+03 -0.25663687263E+02 -0.31104559813E+03  0.36665793347E+03  0.00000000000E+00 0. -1.
<scales pt_clust_5="13000.00000" pt_clust_6="13000.00000" pt_clust_7="13000.00000" pt_clust_8="13000.00000" pt_clust_9="200.69403"></scales>
<clustering>
<clus scale="   91.601">  7  8 -1 -1</clus>
<clus scale="   92.369">  5  6 -1 -1</clus>
<clus scale="  173.205">  2  7  1 -1</clus>
<clus scale="  200.694">  1  9  2 -1</clus>
<clus scale="  200.694">  1  5  2 -1</clus>
</clustering>
</event>
<event>
 9    1  0.1610296E-005  0.2015380E+03  0.7546771E-02  0.1148496E+00
          2   -1    0    0  502    0 -0.00000000000E+00  0.00000000000E+00  0.18080722957E+03  0.18080722957E+03  0.00000000000E+00 0. -1.
         21   -1    0    0  501  502  0.00000000000E+00 -0.00000000000E+00 -0.41721600836E+03  0.41721600836E+03  0.00000000000E+00 0.  1.
         23    2    1    2    0    0 -0.12761929997E+03  0.12642513249E+03  0.70891158439E+02  0.21265381417E+03  0.89028582412E+02 0.  0.
         23    2    1    2    0    0  0.11832541452E+03 -0.14493514625E+03 -0.29759329230E+03  0.36249551128E+03  0.88510608059E+02 0.  0.
        -11    1    3    3    0    0 -0.23136670503E+02  0.16467892809E+02 -0.20990140479E+02  0.35314062537E+02  0.00000000000E+00 0.  1.
         11    1    3    3    0    0 -0.10448262946E+03  0.10995723968E+03  0.91881298918E+02  0.17733975163E+03  0.00000000000E+00 0. -1.
        -11    1    4    4    0    0  0.79317619262E+02 -0.13180726501E+03 -0.27610241565E+03  0.31606484107E+03  0.00000000000E+00 0.  1.
         11    1    4    4    0    0  0.39007795262E+02 -0.13127881235E+02 -0.21490876650E+02  0.46430670210E+02  0.00000000000E+00 0. -1.
          2    1    1    2  501    0  0.92938854432E+01  0.18510013762E+02 -0.97066449280E+01  0.22873912474E+02  0.00000000000E+00 0. -1.
<scales pt_clust_5="13000.00000" pt_clust_6="13000.00000" pt_clust_7="13000.00000" pt_clust_8="13000.00000" pt_clust_9="20.71224"></scales>
<clustering>
<clus scale="   20.712">  2  9  1 -1</clus>
<clus scale="   88.511">  7  8 -1 -1</clus>
<clus scale="   89.029">  5  6 -1 -1</clus>
<clus scale="  201.310">  2  7  1 -1</clus>
<clus scale="   20.712">  2  5  1 -1</clus>
</clustering>
</event>
<event>
 9    1  0.1610296E-005  0.1418521E+03  0.7546771E-02  0.1230757E+00
         21   -1    0    0  501  502  0.00000000000E+00  0.00000000000E+00  0.99401547316E+02  0.99401547316E+02  0.00000000000E+00 0. -1.
          1   -1    0    0  502    0 -0.00000000000E+00 -0.00000000000E+00 -0.36437155592E+03  0.36437155592E+03  0.00000000000E+00 0. -1.
         23    2    1    2    0    0  0.52625780300E+01  0.18439454435E+02 -0.36622700623E+02  0.10037832385E+03  0.91470637319E+02 0.  0.
         23    2    1    2    0    0  0.51288301847E+02 -0.10890582495E+03 -0.20495301015E+03  0.25417271486E+03  0.90039235867E+02 0.  0.
        -11    1    4    4    0    0  0.34786959420E+02 -0.82637579637E+01 -0.15410748201E+02  0.38934732586E+02  0.00000000000E+00 0.  1.
         11    1    4    4    0    0  0.16501342427E+02 -0.10064206698E+03 -0.18954226195E+03  0.21523798227E+03  0.00000000000E+00 0. -1.
        -13    1    3    3    0    0 -0.27474390240E+02  0.43239036322E+02 -0.28112695034E+02  0.58436118995E+02  0.00000000000E+00 0.  1.
         13    1    3    3    0    0  0.32736968270E+02 -0.24799581887E+02 -0.85100055886E+01  0.41942204859E+02  0.00000000000E+00 0. -1.
          1    1    1    2  501    0 -0.56550879877E+02  0.90466370512E+02 -0.23394297836E+02  0.10922206453E+03  0.00000000000E+00 0. -1.
<scales pt_clust_5="13000.00000" pt_clust_6="13000.00000" pt_clust_7="13000.00000" pt_clust_8="13000.00000" pt_clust_9="109.61271"></scales>
<clustering>
<clus scale="   90.039">  5  6 -1 -1</clus>
<clus scale="   91.471">  7  8 -1 -1</clus>
<clus scale="   93.459">  2  7  1 -1</clus>
<clus scale="  109.613">  1  9  2 -1</clus>
<clus scale="  109.613">  1  5  2 -1</clus>
</clustering>
</event>
<event>
 9    1  0.1610296E-005  0.3612190E+03  0.7546771E-02  0.1058172E+00
          2   -1    0    0  502    0 -0.00000000000E+00  0.00000000000E+00  0.27021920391E+04  0.27021920391E+04  0.00000000000E+00 0. -1.
         21   -1    0    0  501  502  0.00000000000E+00 -0.00000000000E+00 -0.11719512799E+03  0.11719512799E+03  0.00000000000E+00 0. -1.
         23    2    1    2    0    0 -0.28007414996E+03  0.26435532001E+03  0.18603231674E+04  0.19020072293E+04  0.92216854115E+02 0.  0.
         23    2    1    2    0    0  0.20804665453E+03 -0.21200355867E+03  0.76055309536E+03  0.82137996438E+03  0.89415410673E+02 0.  0.
        -11    1    3    3    0    0 -0.16203960144E+03  0.97339642169E+02  0.10000474443E+04  0.10177557316E+04  0.00000000000E+00 0.  1.
         11    1    3    3    0    0 -0.11803454852E+03  0.16701567784E+03  0.86027572314E+03  0.88425149766E+03  0.00000000000E+00 0. -1.
        -13    1    4    4    0    0  0.16876802549E+03 -0.20028810508E+03  0.58256242108E+03  0.63873073038E+03  0.00000000000E+00 0. -1.
         13    1    4    4    0    0  0.39278629036E+02 -0.11715453590E+02  0.17799067428E+03  0.18264923400E+03  0.00000000000E+00 0.  1.
          2    1    1    2  501    0  0.72027495429E+02 -0.52351761335E+02 -0.35879351732E+02  0.95999973403E+02  0.00000000000E+00 0. -1.
<scales pt_clust_5="13000.00000" pt_clust_6="13000.00000" pt_clust_7="13000.00000" pt_clust_8="13000.00000" pt_clust_9="89.04306"></scales>
<clustering>
<clus scale="   89.043">  2  9  1 -1</clus>
<clus scale="   89.415">  7  8 -1 -1</clus>
<clus scale="   92.217">  5  6 -1 -1</clus>
<clus scale="  360.514">  2  7  1 -1</clus>
<clus scale="   89.043">  2  5  1 -1</clus>
</clustering>
</event>
<event>
 9    1  0.1610296E-005  0.1412370E+03  0.7546771E-02  0.1213342E+00
         21   -1    0    0  501  502  0.00000000000E+00  0.00000000000E+00  0.48859553882E+03  0.48859553882E+03  0.00000000000E+00 0. -1.
          2   -1    0    0  502    0 -0.00000000000E+00 -0.00000000000E+00 -0.48526469295E+03  0.48526469295E+03  0.00000000000E+00 0. -1.
         23    2    1    2    0    0 -0.91796339860E+02  0.14317961807E+02 -0.37205796897E+03  0.39446469489E+03  0.92432089656E+02 0.  0.
         23    2    1    2    0    0  0.16124122055E+03  0.24995435465E+01 -0.77313392306E+01  0.18966938637E+03  0.99547594631E+02 0.  0.
        -11    1    4    4    0    0  0.32984368008E+02  0.42304754570E+02 -0.13279541743E+02  0.55263071042E+02  0.00000000000E+00 0.  1.
         11    1    4    4    0    0  0.12825685254E+03 -0.39805211024E+02  0.55482025126E+01  0.13440631532E+03  0.00000000000E+00 0. -1.
        -11    1    3    3    0    0  0.13117943219E+02  0.20206059529E+02 -0.46520117179E+02  0.52387847621E+02  0.00000000000E+00 0.  1.
         11    1    3    3    0    0 -0.10491428308E+03 -0.58880977223E+01 -0.32553785179E+03  0.34207684727E+03  0.00000000000E+00 0. -1.
          2    1    1    2  501    0 -0.69444880687E+02 -0.16817505354E+02  0.38312015407E+03  0.38972615051E+03  0.00000000000E+00 0. -1.
<scales pt_clust_5="13000.00000" pt_clust_6="13000.00000" pt_clust_7="13000.00000" pt_clust_8="13000.00000" pt_clust_9="71.45222"></scales>
<clustering>
<clus scale="   71.452">  1  9  2 -1</clus>
<clus scale="   92.432">  7  8 -1 -1</clus>
<clus scale="   99.548">  5  6 -1 -1</clus>
<clus scale="  136.315">  2  7  1 -1</clus>
<clus scale="   71.452">  1  5  2 -1</clus>
</clustering>
</event>
<event>
 9    1  0.1610296E-005  0.1123012E+03  0.7546771E-02  0.1257060E+00
         21   -1    0    0  501  502  0.00000000000E+00  0.00000000000E+00  0.33217353842E+03  0.33217353842E+03  0.00000000000E+00 0.  1.
          3   -1    0    0  502    0 -0.00000000000E+00 -0.00000000000E+00 -0.62452820531E+02  0.62452820531E+02  0.00000000000E+00 0. -1.
         23    2    1    2    0    0  0.51775316024E+02 -0.51746558369E+02  0.36859653025E+02  0.12238607822E+03  0.90891850391E+02 0.  0.
         23    2    1    2    0    0 -0.30643131876E+02  0.32630930390E+02  0.13194390114E+03  0.16737727308E+03  0.92747934462E+02 0.  0.
        -11    1    4    4    0    0  0.25717471846E+02  0.13894729977E+01  0.68329459812E+01  0.26645978010E+02  0.00000000000E+00 0. -1.
         11    1    4    4    0    0 -0.56360603722E+02  0.31241457392E+02  0.12511095515E+03  0.14073129507E+03  0.00000000000E+00 0.  1.
        -13    1    3    3    0    0  0.57833111341E+02 -0.73541289086E+02  0.34186369492E+02  0.99607719715E+02  0.00000000000E+00 0. -1.
         13    1    3    3    0    0 -0.60577953171E+01  0.21794730717E+02  0.26732835335E+01  0.22778358501E+02  0.00000000000E+00 0.  1.
          3    1    1    2  501    0 -0.21132184148E+02  0.19115627979E+02  0.10091716373E+03  0.10486300766E+03  0.00000000000E+00 0. -1.
<scales pt_clust_5="13000.00000" pt_clust_6="13000.00000" pt_clust_7="13000.00000" pt_clust_8="13000.00000" pt_clust_9="28.49520"></scales>
<clustering>
<clus scale="   28.495">  1  9  2 -1</clus>
<clus scale="   90.892">  7  8 -1 -1</clus>
<clus scale="   92.748">  5  6 -1 -1</clus>
<clus scale="  110.773">  2  7  1 -1</clus>
<clus scale="   28.495">  1  5  2 -1</clus>
</clustering>
</event>
<event>
 9    1  0.1610296E-005  0.1160106E+03  0.7546771E-02  0.1251026E+00
         -2   -1    0    0    0  501 -0.00000000000E+00  0.00000000000E+00  0.46094602824E+03  0.46094602824E+03  0.00000000000E+00 0.  1.
         21   -1    0    0  501  502  0.00000000000E+00 -0.00000000000E+00 -0.85874970373E+02  0.85874970373E+02  0.00000000000E+00 0.  1.
         23    2    1    2    0    0  0.36616419949E+02 -0.70828016381E+02  0.24763681936E+03  0.27746145587E+03  0.96454627046E+02 0.  0.
         23    2    1    2    0    0 -0.35497895800E+02  0.36432929696E+02  0.17856884824E+03  0.20772334074E+03  0.93138036023E+02 0.  0.
        -11    1    4    4    0    0 -0.40934178946E+02  0.64836951193E+02  0.13849037731E+03  0.15830041647E+03  0.00000000000E+00 0.  1.
         11    1    4    4    0    0  0.54362831456E+01 -0.28404021498E+02  0.40078470928E+02  0.49422924272E+02  0.00000000000E+00 0. -1.
        -11    1    3    3    0    0  0.56260946678E+02 -0.19952443930E+02  0.18508737901E+03  0.19447553062E+03  0.00000000000E+00 0.  1.
         11    1    3    3    0    0 -0.19644526729E+02 -0.50875572451E+02  0.62549440349E+02  0.82985925256E+02  0.00000000000E+00 0. -1.
         -2    1    1    2    0  502 -0.11185241486E+01  0.34395086685E+02 -0.51134609733E+02  0.61636201999E+02  0.00000000000E+00 0.  1.
<scales pt_clust_5="13000.00000" pt_clust_6="13000.00000" pt_clust_7="13000.00000" pt_clust_8="13000.00000" pt_clust_9="34.41327"></scales>
<clustering>
<clus scale="   34.413">  2  9  1 -1</clus>
<clus scale="   93.138">  5  6 -1 -1</clus>
<clus scale="   96.455">  7  8 -1 -1</clus>
<clus scale="  113.268">  2  5  1 -1</clus>
<clus scale="   34.413">  2  5  1 -1</clus>
</clustering>
</event>
<event>
 9    1  0.1610296E-005  0.9817408E+02  0.7546771E-02  0.1284949E+00
          2   -1    0    0  502    0 -0.00000000000E+00  0.00000000000E+00  0.15144387513E+03  0.15144387513E+03  0.00000000000E+00 0. -1.
         21   -1    0    0  501  502  0.00000000000E+00 -0.00000000000E+00 -0.92976656747E+02  0.92976656747E+02  0.00000000000E+00 0.  1.
         23    2    1    2    0    0  0.24350142814E+02 -0.34417495614E+02  0.71187760295E+02  0.12140537159E+03  0.88848599182E+02 0.  0.
         23    2    1    2    0    0 -0.67164894892E+00  0.35119997541E+02 -0.19383991920E+01  0.96987882619E+02  0.90382667829E+02 0.  0.
        -11    1    4    4    0    0  0.38365689916E+02  0.42387350002E+02 -0.31831993205E+01  0.57260338462E+02  0.00000000000E+00 0.  1.
         11    1    4    4    0    0 -0.39037338865E+02 -0.72673524602E+01  0.12448001285E+01  0.39727544157E+02  0.00000000000E+00 0. -1.
        -11    1    3    3    0    0  0.47146228431E+02 -0.46378324709E+02  0.29512857182E+02  0.72420470843E+02  0.00000000000E+00 0.  1.
         11    1    3    3    0    0 -0.22796085617E+02  0.11960829095E+02  0.41674903113E+02  0.48984900751E+02  0.00000000000E+00 0. -1.
          2    1    1    2  501    0 -0.23678493865E+02 -0.70250192721E+00 -0.10782142723E+02  0.26027277660E+02  0.00000000000E+00 0. -1.
<scales pt_clust_5="13000.00000" pt_clust_6="13000.00000" pt_clust_7="13000.00000" pt_clust_8="13000.00000" pt_clust_9="23.68891"></scales>
<clustering>
<clus scale="   23.689">  2  9  1 -1</clus>
<clus scale="   88.849">  7  8 -1 -1</clus>
<clus scale="   90.383">  5  6 -1 -1</clus>
<clus scale="   96.764">  1  7  2 -1</clus>
<clus scale="   23.689">  2  5  1 -1</clus>
</clustering>
</event>
<event>
 9    1  0.1610296E-005  0.1172264E+03  0.7546771E-02  0.1249571E+00
         21   -1    0    0  501  502  0.00000000000E+00  0.00000000000E+00  0.16310785270E+03  0.16310785270E+03  0.00000000000E+00 0. -1.
          1   -1    0    0  502    0 -0.00000000000E+00 -0.00000000000E+00 -0.34771695568E+03  0.34771695568E+03  0.00000000000E+00 0. -1.
         23    2    1    2    0    0 -0.24655510428E+01 -0.65783464774E+02 -0.28769892786E+03  0.30865604622E+03  0.90356729678E+02 0.  0.
         23    2    1    2    0    0  0.33413426942E+02  0.89331753592E+02  0.79636222332E+02  0.15675549977E+03  0.95570599561E+02 0.  0.
        -11    1    4    4    0    0 -0.10317747478E+02  0.56610453578E+02  0.84159161589E+02  0.10195079130E+03  0.00000000000E+00 0.  1.
         11    1    4    4    0    0  0.43731174420E+02  0.32721300014E+02 -0.45229392573E+01  0.54804708468E+02  0.00000000000E+00 0. -1.
        -13    1    3    3    0    0 -0.17041310358E+02  0.18297467501E+02 -0.88122649640E+02  0.91601337082E+02  0.00000000000E+00 0.  1.
         13    1    3    3    0    0  0.14575759315E+02 -0.84080932274E+02 -0.19957627822E+03  0.21705470914E+03  0.00000000000E+00 0. -1.
          1    1    1    2  501    0 -0.30947875899E+02 -0.23548288818E+02  0.23453602543E+02  0.45413262393E+02  0.00000000000E+00 0. -1.
<scales pt_clust_5="13000.00000" pt_clust_6="13000.00000" pt_clust_7="13000.00000" pt_clust_8="13000.00000" pt_clust_9="38.88821"></scales>
<clustering>
<clus scale="   38.888">  1  9  2 -1</clus>
<clus scale="   90.357">  7  8 -1 -1</clus>
<clus scale="   95.571">  5  6 -1 -1</clus>
<clus scale="  113.016">  2  7  1 -1</clus>
<clus scale="   38.888">  1  5  2 -1</clus>
</clustering>
</event>
<event>
 9    1  0.1610296E-005  0.1533726E+03  0.7546771E-02  0.1196678E+00
         21   -1    0    0  501  502  0.00000000000E+00  0.00000000000E+00  0.22390214137E+03  0.22390214137E+03  0.00000000000E+00 0. -1.
          1   -1    0    0  502    0 -0.00000000000E+00 -0.00000000000E+00 -0.32083990030E+03  0.32083990030E+03  0.00000000000E+00 0. -1.
         23    2    1    2    0    0 -0.11802039631E+03 -0.11495126637E+03 -0.18902162505E+03  0.26626599803E+03  0.89586825947E+02 0.  0.
         23    2    1    2    0    0  0.65787384870E+02  0.38491738711E+02 -0.32513676256E+02  0.12323785755E+03  0.91218618899E+02 0.  0.
        -11    1    4    4    0    0  0.72272011691E+02 -0.42463032519E+01 -0.62694397366E+01  0.72667603785E+02  0.00000000000E+00 0. -1.
         11    1    4    4    0    0 -0.64846268208E+01  0.42738041963E+02 -0.26244236520E+02  0.50570253770E+02  0.00000000000E+00 0.  1.
        -11    1    3    3    0    0 -0.89861685354E+02 -0.10134095104E+03 -0.90493539650E+02  0.16289319068E+03  0.00000000000E+00 0.  1.
         11    1    3    3    0    0 -0.28158710954E+02 -0.13610315336E+02 -0.98528085399E+02  0.10337280735E+03  0.00000000000E+00 0. -1.
          1    1    1    2  501    0  0.52233011438E+02  0.76459527661E+02  0.12459754238E+03  0.15523818609E+03  0.00000000000E+00 0. -1.
<scales pt_clust_5="13000.00000" pt_clust_6="13000.00000" pt_clust_7="13000.00000" pt_clust_8="13000.00000" pt_clust_9="92.59777"></scales>
<clustering>
<clus scale="   89.587">  7  8 -1 -1</clus>
<clus scale="   91.219">  5  6 -1 -1</clus>
<clus scale="   92.598">  1  9  2 -1</clus>
<clus scale="  152.408">  2  7  1 -1</clus>
<clus scale="   92.598">  1  5  2 -1</clus>
</clustering>
</event>
<event>
 9    1  0.1610296E-005  0.9338711E+02  0.7546771E-02  0.1296694E+00
         21   -1    0    0  501  502  0.00000000000E+00  0.00000000000E+00  0.76102512515E+02  0.76102512515E+02  0.00000000000E+00 0.  1.
          3   -1    0    0  502    0 -0.00000000000E+00 -0.00000000000E+00 -0.30534039984E+03  0.30534039984E+03  0.00000000000E+00 0. -1.
         23    2    1    2    0    0 -0.48108111443E+01  0.24808962763E+02 -0.25072872767E+03  0.26670135999E+03  0.87327498569E+02 0.  0.
         23    2    1    2    0    0  0.90202933307E+01 -0.47783310505E+01  0.11191193360E+02  0.91828048149E+02  0.90570135689E+02 0.  0.
        -11    1    3    3    0    0  0.32955495864E+02  0.15560748407E+02 -0.47946879994E+02  0.60225450599E+02  0.00000000000E+00 0.  1.
         11    1    3    3    0    0 -0.37766307008E+02  0.92482143554E+01 -0.20278184768E+03  0.20647590940E+03  0.00000000000E+00 0. -1.
        -11    1    4    4    0    0  0.13004651316E+01 -0.46410337457E+02  0.16238951087E+02  0.49186524220E+02  0.00000000000E+00 0.  1.
         11    1    4    4    0    0  0.77198281991E+01  0.41632006407E+02 -0.50477577270E+01  0.42641523929E+02  0.00000000000E+00 0. -1.
          3    1    1    2  501    0 -0.42094821864E+01 -0.20030631712E+02  0.10299646989E+02  0.22913504209E+02  0.00000000000E+00 0. -1.
<scales pt_clust_5="13000.00000" pt_clust_6="13000.00000" pt_clust_7="13000.00000" pt_clust_8="13000.00000" pt_clust_9="20.46817"></scales>
<clustering>
<clus scale="   20.468">  1  9  2 -1</clus>
<clus scale="   87.327">  5  6 -1 -1</clus>
<clus scale="   90.246">  2  5  1 -1</clus>
<clus scale="   90.570">  7  8 -1 -1</clus>
<clus scale="   20.468">  1  5  2 -1</clus>
</clustering>
</event>
<event>
 9    1  0.1610296E-005  0.1993905E+03  0.7546771E-02  0.1150551E+00
         -1   -1    0    0    0  501 -0.00000000000E+00  0.00000000000E+00  0.38153565214E+03  0.38153565214E+03  0.00000000000E+00 0.  1.
         21   -1    0    0  501  502  0.00000000000E+00 -0.00000000000E+00 -0.21265635920E+03  0.21265635920E+03  0.00000000000E+00 0. -1.
         23    2    1    2    0    0 -0.57343632103E+02  0.17165292402E+03  0.26244212643E+03  0.33134309555E+03  0.90329169018E+02 0.  0.
         23    2    1    2    0    0  0.11191700453E+02 -0.16360031959E+03 -0.42246227594E+02  0.19336338296E+03  0.93350604692E+02 0.  0.
        -11    1    3    3    0    0 -0.67962091446E+02  0.71557215792E+02  0.10190010750E+03  0.14185525339E+03  0.00000000000E+00 0.  1.
         11    1    3    3    0    0  0.10618459343E+02  0.10009570823E+03  0.16054201892E+03  0.18948784215E+03  0.00000000000E+00 0. -1.
        -13    1    4    4    0    0 -0.30828085266E+02 -0.15235247633E+02 -0.52386093754E+01  0.34783999768E+02  0.00000000000E+00 0.  1.
         13    1    4    4    0    0  0.42019785720E+02 -0.14836507196E+03 -0.37007618219E+02  0.15857938320E+03  0.00000000000E+00 0. -1.
         -1    1    1    2    0  502  0.46151931650E+02 -0.80526044291E+01 -0.51316605888E+02  0.69485532832E+02  0.00000000000E+00 0.  1.
<scales pt_clust_5="13000.00000" pt_clust_6="13000.00000" pt_clust_7="13000.00000" pt_clust_8="13000.00000" pt_clust_9="46.84918"></scales>
<clustering>
<clus scale="   46.849">  2  9  1 -1</clus>
<clus scale="   90.329">  5  6 -1 -1</clus>
<clus scale="   93.351">  7  8 -1 -1</clus>
<clus scale="  197.994">  1  5  2 -1</clus>
<clus scale="   46.849">  2  5  1 -1</clus>
</clustering>
</event>
<event>
 9    1  0.1610296E-005  0.8806975E+02  0.7546771E-02  0.1313112E+00
         21   -1    0    0  501  502  0.00000000000E+00  0.00000000000E+00  0.20738293042E+03  0.20738293042E+03  0.00000000000E+00 0. -1.
         -1   -1    0    0    0  501 -0.00000000000E+00 -0.00000000000E+00 -0.70624351033E+02  0.70624351033E+02  0.00000000000E+00 0.  1.
         23    2    1    2    0    0  0.63119760439E+01 -0.12072634056E+02 -0.17315512542E+02  0.80566664488E+02  0.77495618699E+02 0.  0.
         23    2    1    2    0    0 -0.26218762963E+02  0.26540009575E+02  0.95381833823E+02  0.13379812894E+03  0.86095583196E+02 0.  0.
        -11    1    4    4    0    0 -0.21738396128E+02 -0.23950516437E+02  0.88847061759E+01  0.33542854793E+02  0.00000000000E+00 0.  1.
         11    1    4    4    0    0 -0.44803668350E+01  0.50490526012E+02  0.86497127647E+02  0.10025527415E+03  0.00000000000E+00 0. -1.
        -11    1    3    3    0    0 -0.11817458127E+02 -0.33836015704E+02  0.13876433124E+02  0.38432846259E+02  0.00000000000E+00 0.  1.
         11    1    3    3    0    0  0.18129434171E+02  0.21763381648E+02 -0.31191945666E+02  0.42133818229E+02  0.00000000000E+00 0. -1.
         -1    1    1    2    0  502  0.19906786919E+02 -0.14467375519E+02  0.58692258107E+02  0.63642488022E+02  0.00000000000E+00 0.  1.
<scales pt_clust_5="13000.00000" pt_clust_6="13000.00000" pt_clust_7="13000.00000" pt_clust_8="13000.00000" pt_clust_9="24.60864"></scales>
<clustering>
<clus scale="   24.609">  1  9  2 -1</clus>
<clus scale="   77.496">  7  8 -1 -1</clus>
<clus scale="   79.683">  2  7  1 -1</clus>
<clus scale="   86.096">  5  6 -1 -1</clus>
<clus scale="   24.609">  1  5  2 -1</clus>
</clustering>
</event>
<event>
 9    1  0.1610296E-005  0.1145085E+03  0.7546771E-02  0.1252505E+00
         21   -1    0    0  501  502  0.00000000000E+00  0.00000000000E+00  0.58719160864E+02  0.58719160864E+02  0.00000000000E+00 0.  1.
          1   -1    0    0  502    0 -0.00000000000E+00 -0.00000000000E+00 -0.51185736870E+03  0.51185736870E+03  0.00000000000E+00 0. -1.
         23    2    1    2    0    0  0.66122302868E+02 -0.41848446402E+02 -0.35077118743E+03  0.37080556667E+03  0.91284669810E+02 0.  0.
         23    2    1    2    0    0 -0.34052538085E+02  0.40922857436E+02 -0.12266636328E+03  0.16180532251E+03  0.91102525222E+02 0.  0.
        -13    1    3    3    0    0  0.69179027022E+02  0.63707590165E+01 -0.16898507774E+03  0.18270818495E+03  0.00000000000E+00 0.  1.
         13    1    3    3    0    0 -0.30567241540E+01 -0.48219205419E+02 -0.18178610969E+03  0.18809738172E+03  0.00000000000E+00 0. -1.
        -13    1    4    4    0    0 -0.53898330609E+02  0.55237109512E+02 -0.72033984321E+02  0.10557018143E+03  0.00000000000E+00 0. -1.
         13    1    4    4    0    0  0.19845792524E+02 -0.14314252077E+02 -0.50632378962E+02  0.56235141084E+02  0.00000000000E+00 0.  1.
          1    1    1    2  501    0 -0.32069764784E+02  0.92558896695E+00  0.20299342875E+02  0.37965640379E+02  0.00000000000E+00 0. -1.
<scales pt_clust_5="13000.00000" pt_clust_6="13000.00000" pt_clust_7="13000.00000" pt_clust_8="13000.00000" pt_clust_9="32.08312"></scales>
<clustering>
<clus scale="   32.083">  1  9  2 -1</clus>
<clus scale="   91.103">  7  8 -1 -1</clus>
<clus scale="   91.285">  5  6 -1 -1</clus>
<clus scale="  114.363">  1  7  2 -1</clus>
<clus scale="   32.083">  1  5  2 -1</clus>
</clustering>
</event>
<event>
 9    1  0.1610296E-005  0.1042986E+03  0.7546771E-02  0.1272568E+00
          1   -1    0    0  502    0 -0.00000000000E+00  0.00000000000E+00  0.81979812396E+03  0.81979812396E+03  0.00000000000E+00 0. -1.
         21   -1    0    0  501  502  0.00000000000E+00 -0.00000000000E+00 -0.39979240186E+02  0.39979240186E+02  0.00000000000E+00 0. -1.
         23    2    1    2    0    0  0.23482621157E+02 -0.36771680302E+02  0.36366820832E+03  0.37687592903E+03  0.88754212107E+02 0.  0.
         23    2    1    2    0    0 -0.10160752287E+03 -0.23502983328E+02  0.30039400850E+03  0.33079574395E+03  0.91174475281E+02 0.  0.
        -11    1    3    3    0    0  0.33313773100E+02 -0.62338372732E+02  0.28260289503E+03  0.29130787232E+03  0.00000000000E+00 0. -1.
         11    1    3    3    0    0 -0.98311519426E+01  0.25566692430E+02  0.81065313289E+02  0.85568056709E+02  0.00000000000E+00 0.  1.
        -11    1    4    4    0    0 -0.75121574421E+02 -0.36186994212E+02  0.28635108017E+03  0.29824434716E+03  0.00000000000E+00 0. -1.
         11    1    4    4    0    0 -0.26485948446E+02  0.12684010884E+02  0.14042928328E+02  0.32551396794E+02  0.00000000000E+00 0.  1.
          1    1    1    2  501    0  0.78124901710E+02  0.60274663630E+02  0.11575666695E+03  0.15210569117E+03  0.00000000000E+00 0. -1.
<scales pt_clust_5="13000.00000" pt_clust_6="13000.00000" pt_clust_7="13000.00000" pt_clust_8="13000.00000" pt_clust_9="98.67388"></scales>
<clustering>
<clus scale="   88.754">  5  6 -1 -1</clus>
<clus scale="   91.174">  7  8 -1 -1</clus>
<clus scale="   98.674">  2  9  1 -1</clus>
<clus scale="  102.190">  1  5  2 -1</clus>
<clus scale="   98.674">  2  5  1 -1</clus>
</clustering>
</event>
<event>
 9    1  0.1610296E-005  0.2185384E+03  0.7546771E-02  0.1135054E+00
          1   -1    0    0  502    0 -0.00000000000E+00  0.00000000000E+00  0.89882050847E+03  0.89882050847E+03  0.00000000000E+00 0. -1.
         21   -1    0    0  501  502  0.00000000000E+00 -0.00000000000E+00 -0.68156052708E+02  0.68156052708E+02  0.00000000000E+00 0. -1.
         23    2    1    2    0    0  0.56785426680E+02  0.19540157269E+03  0.48211147884E+03  0.53098264172E+03  0.90026265555E+02 0.  0.
         23    2    1    2    0    0 -0.91093785997E+02 -0.17201303410E+03  0.25037303799E+03  0.32939472779E+03  0.89037446018E+02 0.  0.
        -11    1    4    4    0    0 -0.19613530327E+02 -0.35829343132E+02  0.12329432323E+03  0.12988426595E+03  0.00000000000E+00 0.  1.
         11    1    4    4    0    0 -0.71480255669E+02 -0.13618369096E+03  0.12707871476E+03  0.19951046183E+03  0.00000000000E+00 0. -1.
        -11    1    3    3    0    0 -0.94147227769E+01  0.11823571933E+03  0.29660444298E+03  0.31944094591E+03  0.00000000000E+00 0.  1.
         11    1    3    3    0    0  0.66200149457E+02  0.77165853358E+02  0.18550703586E+03  0.21154169581E+03  0.00000000000E+00 0. -1.
          1    1    1    2  501    0  0.34308359317E+02 -0.23388538591E+02  0.98179938934E+02  0.10659919167E+03  0.00000000000E+00 0. -1.
<scales pt_clust_5="13000.00000" pt_clust_6="13000.00000" pt_clust_7="13000.00000" pt_clust_8="13000.00000" pt_clust_9="41.52215"></scales>
<clustering>
<clus scale="   41.522">  2  9  1 -1</clus>
<clus scale="   89.037">  5  6 -1 -1</clus>
<clus scale="   90.026">  7  8 -1 -1</clus>
<clus scale="  218.133">  2  5  1 -1</clus>
<clus scale="   41.522">  2  5  1 -1</clus>
</clustering>
</event>
<event>
 9    1  0.1610296E-005  0.1052161E+03  0.7546771E-02  0.1271882E+00
          2   -1    0    0  502    0 -0.00000000000E+00  0.00000000000E+00  0.39154728609E+03  0.39154728609E+03  0.00000000000E+00 0. -1.
         21   -1    0    0  501  502  0.00000000000E+00 -0.00000000000E+00 -0.46311798691E+03  0.46311798691E+03  0.00000000000E+00 0. -1.
         23    2    1    2    0    0  0.15881279063E+01  0.39495813176E+02  0.33908156935E+03  0.35481761276E+03  0.96730482471E+02 0.  0.
         23    2    1    2    0    0  0.45846602169E+02 -0.12772089900E+03 -0.33941661387E+03  0.37693208713E+03  0.91976201078E+02 0.  0.
        -13    1    3    3    0    0  0.25478964005E+02 -0.18489737710E+02  0.50567599973E+02  0.59566183145E+02  0.00000000000E+00 0.  1.
         13    1    3    3    0    0 -0.23890836098E+02  0.57985550886E+02  0.28851396938E+03  0.29525142961E+03  0.00000000000E+00 0. -1.
        -13    1    4    4    0    0  0.14823748355E+02 -0.12974707276E+03 -0.24655151678E+03  0.27900124880E+03  0.00000000000E+00 0. -1.
         13    1    4    4    0    0  0.31022853814E+02  0.20261737554E+01 -0.92865097086E+02  0.97930838328E+02  0.00000000000E+00 0.  1.
          2    1    1    2  501    0 -0.47434730076E+02  0.88225085826E+02 -0.71235656308E+02  0.12291557312E+03  0.00000000000E+00 0. -1.
<scales pt_clust_5="13000.00000" pt_clust_6="13000.00000" pt_clust_7="13000.00000" pt_clust_8="13000.00000" pt_clust_9="100.16846"></scales>
<clustering>
<clus scale="   91.976">  7  8 -1 -1</clus>
<clus scale="   96.730">  5  6 -1 -1</clus>
<clus scale="  100.168">  2  9  1 -1</clus>
<clus scale="  100.863">  2  7  1 -1</clus>
<clus scale="  100.168">  2  5  1 -1</clus>
</clustering>
</event>
<event>
 9    1  0.1610296E-005  0.1253528E+03  0.7546771E-02  0.1235280E+00
          3   -1    0    0  502    0 -0.00000000000E+00  0.00000000000E+00  0.40861264876E+03  0.40861264876E+03  0.00000000000E+00 0. -1.
         21   -1    0    0  501  502  0.00000000000E+00 -0.00000000000E+00 -0.16769182308E+03  0.16769182308E+03  0.00000000000E+00 0. -1.
         23    2    1    2    0    0 -0.58769229304E+02  0.94769242221E+02  0.31121079906E+03  0.34275069658E+03  0.90503298100E+02 0.  0.
         23    2    1    2    0    0  0.56860906900E+01 -0.21361726117E+02  0.28154905869E+02  0.99770826882E+02  0.93128213782E+02 0.  0.
        -13    1    4    4    0    0  0.42296870065E+02 -0.24604619228E+02 -0.63683874798E+01  0.49345403673E+02  0.00000000000E+00 0.  1.
         13    1    4    4    0    0 -0.36610779375E+02  0.32428931105E+01  0.34523293349E+02  0.50425423209E+02  0.00000000000E+00 0. -1.
        -13    1    3    3    0    0  0.10960876938E+02  0.35062504538E+02  0.31603401174E+02  0.48459209790E+02  0.00000000000E+00 0.  1.
         13    1    3    3    0    0 -0.69730106242E+02  0.59706737683E+02  0.27960739789E+03  0.29429148679E+03  0.00000000000E+00 0. -1.
          3    1    1    2  501    0  0.53083138614E+02 -0.73407516104E+02 -0.98444879254E+02  0.13378294838E+03  0.00000000000E+00 0. -1.
<scales pt_clust_5="13000.00000" pt_clust_6="13000.00000" pt_clust_7="13000.00000" pt_clust_8="13000.00000" pt_clust_9="90.58964"></scales>
<clustering>
<clus scale="   90.503">  7  8 -1 -1</clus>
<clus scale="   90.590">  2  9  1 -1</clus>
<clus scale="   93.128">  5  6 -1 -1</clus>
<clus scale="  123.415">  1  7  2 -1</clus>
<clus scale="   90.590">  2  5  1 -1</clus>
</clustering>
</event>
<event>
 9    1  0.1610296E-005  0.1092935E+03  0.7546771E-02  0.1263763E+00
         21   -1    0    0  501  502  0.00000000000E+00  0.00000000000E+00  0.16827956764E+03  0.16827956764E+03  0.00000000000E+00 0. -1.
         -2   -1    0    0    0  501 -0.00000000000E+00 -0.00000000000E+00 -0.10017048422E+03  0.10017048422E+03  0.00000000000E+00 0.  1.
         23    2    1    2    0    0 -0.63733038998E+02  0.14084374000E+02  0.16763619787E+01  0.11472512109E+03  0.94333309968E+02 0.  0.
         23    2    1    2    0    0  0.45327041367E+02  0.27224542825E+01  0.22255798199E+02  0.10300165433E+03  0.89733314915E+02 0.  0.
        -11    1    3    3    0    0 -0.54576929506E+02 -0.25697792336E+02  0.27630261806E+02  0.66350954271E+02  0.00000000000E+00 0. -1.
         11    1    3    3    0    0 -0.91561094925E+01  0.39782166337E+02 -0.25953899827E+02  0.48374166822E+02  0.00000000000E+00 0.  1.
        -13    1    4    4    0    0  0.50176234927E+00  0.41087441029E+02  0.42282009355E+01  0.41307472192E+02  0.00000000000E+00 0. -1.
         13    1    4    4    0    0  0.44825279018E+02 -0.38364986746E+02  0.18027597264E+02  0.61694182142E+02  0.00000000000E+00 0.  1.
         -2    1    1    2    0  502  0.18405997631E+02 -0.16806828283E+02  0.44176923235E+02  0.50723276435E+02  0.00000000000E+00 0.  1.
<scales pt_clust_5="13000.00000" pt_clust_6="13000.00000" pt_clust_7="13000.00000" pt_clust_8="13000.00000" pt_clust_9="24.92489"></scales>
<clustering>
<clus scale="   24.925">  1  9  2 -1</clus>
<clus scale="   89.733">  7  8 -1 -1</clus>
<clus scale="   94.333">  5  6 -1 -1</clus>
<clus scale="  105.349">  1  7  2 -1</clus>
<clus scale="   24.925">  1  5  2 -1</clus>
</clustering>
</event>
<event>
 9    1  0.1610296E-005  0.1024843E+03  0.7546771E-02  0.1277363E+00
         21   -1    0    0  501  502  0.00000000000E+00  0.00000000000E+00  0.30682372896E+03  0.30682372896E+03  0.00000000000E+00 0.  1.
         -1   -1    0    0    0  501 -0.00000000000E+00 -0.00000000000E+00 -0.27553210938E+03  0.27553210938E+03  0.00000000000E+00 0.  1.
         23    2    1    2    0    0  0.33310596648E+02 -0.95529211935E+01 -0.23747500090E+03  0.25833973713E+03  0.95625255946E+02 0.  0.
         23    2    1    2    0    0 -0.62864060963E+02  0.29626421345E+01  0.89898900469E+02  0.14260358705E+03  0.91067575593E+02 0.  0.
        -11    1    4    4    0    0 -0.31123340283E+02 -0.10008059257E+02 -0.12204414507E+02  0.34896579974E+02  0.00000000000E+00 0.  1.
         11    1    4    4    0    0 -0.31740720681E+02  0.12970701391E+02  0.10210331498E+03  0.10770700708E+03  0.00000000000E+00 0. -1.
        -13    1    3    3    0    0 -0.31962984349E+02 -0.11511834867E+02 -0.10976564608E+03  0.11490279270E+03  0.00000000000E+00 0. -1.
         13    1    3    3    0    0  0.65273580997E+02  0.19589136737E+01 -0.12770935482E+03  0.14343694443E+03  0.00000000000E+00 0.  1.
         -1    1    1    2    0  502  0.29553464316E+02  0.65902790590E+01  0.17886772002E+03  0.18141251416E+03  0.00000000000E+00 0.  1.
<scales pt_clust_5="13000.00000" pt_clust_6="13000.00000" pt_clust_7="13000.00000" pt_clust_8="13000.00000" pt_clust_9="30.27935"></scales>
<clustering>
<clus scale="   30.279">  1  9  2 -1</clus>
<clus scale="   91.068">  5  6 -1 -1</clus>
<clus scale="   95.625">  7  8 -1 -1</clus>
<clus scale="   98.245">  1  5  2 -1</clus>
<clus scale="   30.279">  1  5  2 -1</clus>
</clustering>
</event>
<event>
 9    1  0.1610296E-005  0.1390036E+03  0.7546771E-02  0.1215098E+00
         21   -1    0    0  501  502  0.00000000000E+00  0.00000000000E+00  0.12285927401E+03  0.12285927401E+03  0.00000000000E+00 0.  1.
          3   -1    0    0  502    0 -0.00000000000E+00 -0.00000000000E+00 -0.21246521529E+03  0.21246521529E+03  0.00000000000E+00 0. -1.
         23    2    1    2    0    0  0.10220884695E+03 -0.53197413124E+02 -0.52368504440E+02  0.15396513676E+03  0.87670918343E+02 0.  0.
         23    2    1    2    0    0 -0.97536221027E+02  0.14347033061E+02 -0.98225652680E+01  0.13358110804E+03  0.89600657730E+02 0.  0.
        -11    1    4    4    0    0 -0.11276246883E+02 -0.22350875286E+02 -0.28566569899E+02  0.37983737120E+02  0.00000000000E+00 0. -1.
         11    1    4    4    0    0 -0.86259974145E+02  0.36697908347E+02  0.18744004631E+02  0.95597370916E+02  0.00000000000E+00 0.  1.
        -13    1    3    3    0    0  0.17271179289E+02  0.23807679795E+02 -0.17064978317E+02  0.34004598752E+02  0.00000000000E+00 0.  1.
         13    1    3    3    0    0  0.84937667658E+02 -0.77005092920E+02 -0.35303526123E+02  0.11996053801E+03  0.00000000000E+00 0. -1.
          3    1    1    2  501    0 -0.46726259196E+01  0.38850380063E+02 -0.27414871581E+02  0.47778244504E+02  0.00000000000E+00 0. -1.
<scales pt_clust_5="13000.00000" pt_clust_6="13000.00000" pt_clust_7="13000.00000" pt_clust_8="13000.00000" pt_clust_9="39.13038"></scales>
<clustering>
<clus scale="   39.130">  1  9  2 -1</clus>
<clus scale="   87.671">  7  8 -1 -1</clus>
<clus scale="   89.601">  5  6 -1 -1</clus>
<clus scale="  137.768">  2  7  1 -1</clus>
<clus scale="   39.130">  1  5  2 -1</clus>
</clustering>
</event>
<event>
 9    1  0.1610296E-005  0.1252538E+03  0.7546771E-02  0.1239716E+00
          2   -1    0    0  502    0 -0.00000000000E+00  0.00000000000E+00  0.39417547905E+03  0.39417547905E+03  0.00000000000E+00 0. -1.
         21   -1    0    0  501  502  0.00000000000E+00 -0.00000000000E+00 -0.58872663922E+02  0.58872663922E+02  0.00000000000E+00 0.  1.
         23    2    1    2    0    0 -0.61998101621E+02 -0.35134065229E+02  0.24886799197E+03  0.27538145440E+03  0.93922845229E+02 0.  0.
         23    2    1    2    0    0  0.31776430777E+02  0.20021831698E+02  0.42624709341E+02  0.12233988617E+03  0.10834928059E+03 0.  0.
        -11    1    3    3    0    0  0.17127798705E+02 -0.34536284808E+02  0.73818098944E+02  0.83278017439E+02  0.00000000000E+00 0. -1.
         11    1    3    3    0    0 -0.79125900325E+02 -0.59778042120E+00  0.17504989303E+03  0.19210343696E+03  0.00000000000E+00 0.  1.
        -13    1    4    4    0    0 -0.37916825539E+02  0.23226521679E+02  0.11394182079E+02  0.45901899236E+02  0.00000000000E+00 0.  1.
         13    1    4    4    0    0  0.69693256316E+02 -0.32046899812E+01  0.31230527262E+02  0.76437986937E+02  0.00000000000E+00 0. -1.
          2    1    1    2  501    0  0.30221670844E+02  0.15112233531E+02  0.43810113812E+02  0.55326802393E+02  0.00000000000E+00 0. -1.
<scales pt_clust_5="13000.00000" pt_clust_6="13000.00000" pt_clust_7="13000.00000" pt_clust_8="13000.00000" pt_clust_9="33.78950"></scales>
<clustering>
<clus scale="   33.789">  2  9  1 -1</clus>
<clus scale="   93.923">  5  6 -1 -1</clus>
<clus scale="  108.349">  7  8 -1 -1</clus>
<clus scale="  113.006">  1  5  2 -1</clus>
<clus scale="   33.789">  2  5  1 -1</clus>
</clustering>
</event>
<event>
 9    1  0.1610296E-005  0.9373181E+02  0.7546771E-02  0.1294129E+00
          1   -1    0    0  502    0 -0.00000000000E+00  0.00000000000E+00  0.47684225831E+03  0.47684225831E+03  0.00000000000E+00 0. -1.
         21   -1    0    0  501  502  0.00000000000E+00 -0.00000000000E+00 -0.27803584845E+02  0.27803584845E+02  0.00000000000E+00 0.  1.
         23    2    1    2    0    0  0.24308815102E+02  0.14928731884E+02  0.25698428131E+03  0.27402083128E+03  0.90734280249E+02 0.  0.
         23    2    1    2    0    0  0.55658073510E+01 -0.26762673182E+02  0.13071943110E+03  0.16138259220E+03  0.90606580951E+02 0.  0.
        -11    1    3    3    0    0  0.53335634858E+02 -0.12859991059E+02  0.15330533583E+03  0.16282688755E+03  0.00000000000E+00 0. -1.
         11    1    3    3    0    0 -0.29026819756E+02  0.27788722943E+02  0.10367894547E+03  0.11119394373E+03  0.00000000000E+00 0.  1.
        -11    1    4    4    0    0  0.46787832854E+02 -0.17982254586E+02  0.88608518399E+02  0.10180340032E+03  0.00000000000E+00 0. -1.
         11    1    4    4    0    0 -0.41222025503E+02 -0.87804185967E+01  0.42110912700E+02  0.59579191886E+02  0.00000000000E+00 0.  1.
          1    1    1    2  501    0 -0.29874622453E+02  0.11833941298E+02  0.61334961057E+02  0.69242419666E+02  0.00000000000E+00 0. -1.
<scales pt_clust_5="13000.00000" pt_clust_6="13000.00000" pt_clust_7="13000.00000" pt_clust_8="13000.00000" pt_clust_9="32.13309"></scales>
<clustering>
<clus scale="   32.133">  2  9  1 -1</clus>
<clus scale="   90.607">  7  8 -1 -1</clus>
<clus scale="   90.734">  5  6 -1 -1</clus>
<clus scale="   93.608">  2  7  1 -1</clus>
<clus scale="   32.133">  2  5  1 -1</clus>
</clustering>
</event>
<event>
 9    1  0.1610296E-005  0.1414191E+03  0.7546771E-02  0.1212433E+00
         -1   -1    0    0    0  501 -0.00000000000E+00  0.00000000000E+00  0.67525111203E+03  0.67525111203E+03  0.00000000000E+00 0.  1.
         21   -1    0    0  501  502  0.00000000000E+00 -0.00000000000E+00 -0.18323810743E+03  0.18323810743E+03  0.00000000000E+00 0.  1.
         23    2    1    2    0    0  0.10835984892E+03  0.33736415225E+02  0.59815776396E+03  0.61510366583E+03  0.87634505565E+02 0.  0.
         23    2    1    2    0    0 -0.49765097162E+02 -0.53822543545E+02  0.30059364923E+01  0.11788387280E+03  0.92272101540E+02 0.  0.
        -11    1    3    3    0    0  0.30645793439E+02  0.52736784651E+02  0.20467336331E+03  0.21356853411E+03  0.00000000000E+00 0.  1.
         11    1    3    3    0    0  0.77714055478E+02 -0.19000369426E+02  0.39348440065E+03  0.40153513173E+03  0.00000000000E+00 0. -1.
        -13    1    4    4    0    0 -0.18807488716E+02 -0.39521984376E+02 -0.42507113480E+02  0.61012814861E+02  0.00000000000E+00 0.  1.
         13    1    4    4    0    0 -0.30957608446E+02 -0.14300559169E+02  0.45513049972E+02  0.56871057938E+02  0.00000000000E+00 0. -1.
         -1    1    1    2    0  502 -0.58594751756E+02  0.20086128321E+02 -0.10915069586E+03  0.12550168083E+03  0.00000000000E+00 0.  1.
<scales pt_clust_5="13000.00000" pt_clust_6="13000.00000" pt_clust_7="13000.00000" pt_clust_8="13000.00000" pt_clust_9="61.94189"></scales>
<clustering>
<clus scale="   61.942">  2  9  1 -1</clus>
<clus scale="   87.635">  5  6 -1 -1</clus>
<clus scale="   92.272">  7  8 -1 -1</clus>
<clus scale="  138.438">  1  5  2 -1</clus>
<clus scale="   61.942">  2  5  1 -1</clus>
</clustering>
</event>
<event>
 9    1  0.1610296E-005  0.9573714E+02  0.7546771E-02  0.1289917E+00
         21   -1    0    0  501  502  0.00000000000E+00  0.00000000000E+00  0.20960028054E+03  0.20960028054E+03  0.00000000000E+00 0. -1.
         -1   -1    0    0    0  501 -0.00000000000E+00 -0.00000000000E+00 -0.89145804790E+02  0.89145804790E+02  0.00000000000E+00 0.  1.
         23    2    1    2    0    0  0.16037275521E+02  0.24070228726E+01  0.62902693722E+01  0.93887842247E+02  0.92262513881E+02 0.  0.
         23    2    1    2    0    0 -0.28790708926E+02 -0.52565253914E+02  0.10623451385E+03  0.15250007058E+03  0.91534085198E+02 0.  0.
        -11    1    3    3    0    0  0.50622909681E+02  0.11873160046E+02  0.19701887963E+02  0.55604094304E+02  0.00000000000E+00 0. -1.
         11    1    3    3    0    0 -0.34585634161E+02 -0.94661371737E+01 -0.13411618591E+02  0.38283747942E+02  0.00000000000E+00 0.  1.
        -11    1    4    4    0    0 -0.43122369961E+02 -0.29046129128E+02  0.10709609758E+02  0.53084010300E+02  0.00000000000E+00 0.  1.
         11    1    4    4    0    0  0.14331661035E+02 -0.23519124786E+02  0.95524904094E+02  0.99416060277E+02  0.00000000000E+00 0. -1.
         -1    1    1    2    0  502  0.12753433405E+02  0.50158231041E+02  0.79296925273E+01  0.52358172508E+02  0.00000000000E+00 0.  1.
<scales pt_clust_5="13000.00000" pt_clust_6="13000.00000" pt_clust_7="13000.00000" pt_clust_8="13000.00000" pt_clust_9="51.75424"></scales>
<clustering>
<clus scale="   51.754">  1  9  2 -1</clus>
<clus scale="   91.534">  7  8 -1 -1</clus>
<clus scale="   92.263">  5  6 -1 -1</clus>
<clus scale="   95.035">  1  7  2 -1</clus>
<clus scale="   51.754">  1  5  2 -1</clus>
</clustering>
</event>
<event>
 9    1  0.1610296E-005  0.1266786E+03  0.7546771E-02  0.1232687E+00
         21   -1    0    0  501  502  0.00000000000E+00  0.00000000000E+00  0.59870076463E+02  0.59870076463E+02  0.00000000000E+00 0. -1.
         -1   -1    0    0    0  501 -0.00000000000E+00 -0.00000000000E+00 -0.36891760677E+03  0.36891760677E+03  0.00000000000E+00 0.  1.
         23    2    1    2    0    0  0.49152539971E+02 -0.69811421268E+02 -0.21029623952E+03  0.24494031613E+03  0.92095838037E+02 0.  0.
         23    2    1    2    0    0 -0.67534008455E+02  0.58385306961E+02 -0.98565487840E+02  0.16220322253E+03  0.92871113046E+02 0.  0.
        -11    1    3    3    0    0 -0.19446046146E+02 -0.46566644684E+02 -0.11197392055E+03  0.12282003090E+03  0.00000000000E+00 0.  1.
         11    1    3    3    0    0  0.68598586117E+02 -0.23244776584E+02 -0.98322318972E+02  0.12212028523E+03  0.00000000000E+00 0. -1.
        -11    1    4    4    0    0 -0.66098526315E+02  0.13801431106E+02 -0.96201137402E+02  0.11753362718E+03  0.00000000000E+00 0.  1.
         11    1    4    4    0    0 -0.14354821403E+01  0.44583875856E+02 -0.23643504389E+01  0.44669595345E+02  0.00000000000E+00 0. -1.
         -1    1    1    2    0  502  0.18381468484E+02  0.11426114307E+02 -0.18580294867E+00  0.21644144578E+02  0.00000000000E+00 0.  1.
<scales pt_clust_5="13000.00000" pt_clust_6="13000.00000" pt_clust_7="13000.00000" pt_clust_8="13000.00000" pt_clust_9="21.64335"></scales>
<clustering>
<clus scale="   21.643">  1  9  2 -1</clus>
<clus scale="   92.096">  5  6 -1 -1</clus>
<clus scale="   92.871">  7  8 -1 -1</clus>
<clus scale="  126.111">  2  5  1 -1</clus>
<clus scale="   21.643">  1  5  2 -1</clus>
</clustering>
</event>
<event>
 9    1  0.1610296E-005  0.9409584E+02  0.7546771E-02  0.1299511E+00
          2   -1    0    0  502    0 -0.00000000000E+00  0.00000000000E+00  0.29876395512E+03  0.29876395512E+03  0.00000000000E+00 0. -1.
         21   -1    0    0  501  502  0.00000000000E+00 -0.00000000000E+00 -0.12782849959E+03  0.12782849959E+03  0.00000000000E+00 0.  1.
         23    2    1    2    0    0 -0.18590047437E+02  0.18959866428E+02  0.24950455639E+03  0.26330281333E+03  0.79817175129E+02 0.  0.
         23    2    1    2    0    0 -0.21428365007E+02 -0.34097109408E+02 -0.44952440613E+02  0.10887742487E+03  0.90618894451E+02 0.  0.
        -11    1    4    4    0    0 -0.51159853025E+02 -0.31928914342E+02 -0.50375354023E+02  0.78577747649E+02  0.00000000000E+00 0.  1.
         11    1    4    4    0    0  0.29731488018E+02 -0.21681950668E+01  0.54229134102E+01  0.30299677217E+02  0.00000000000E+00 0. -1.
        -11    1    3    3    0    0  0.24028761613E+02  0.50883698863E+01  0.27725117580E+02  0.37039911414E+02  0.00000000000E+00 0.  1.
         11    1    3    3    0    0 -0.42618809050E+02  0.13871496542E+02  0.22177943881E+03  0.22626290191E+03  0.00000000000E+00 0. -1.
          2    1    1    2  501    0  0.40018412444E+02  0.15137242981E+02 -0.33616660256E+02  0.54412216517E+02  0.00000000000E+00 0. -1.
<scales pt_clust_5="13000.00000" pt_clust_6="13000.00000" pt_clust_7="13000.00000" pt_clust_8="13000.00000" pt_clust_9="42.78562"></scales>
<clustering>
<clus scale="   42.786">  2  9  1 -1</clus>
<clus scale="   79.817">  7  8 -1 -1</clus>
<clus scale="   83.744">  1  7  2 -1</clus>
<clus scale="   90.619">  5  6 -1 -1</clus>
<clus scale="   42.786">  2  5  1 -1</clus>
</clustering>
</event>
<event>
 9    1  0.1610296E-005  0.1192087E+03  0.7546771E-02  0.1244672E+00
         21   -1    0    0  501  502  0.00000000000E+00  0.00000000000E+00  0.52327593999E+02  0.52327593999E+02  0.00000000000E+00 0. -1.
          2   -1    0    0  502    0 -0.00000000000E+00 -0.00000000000E+00 -0.35234770119E+03  0.35234770119E+03  0.00000000000E+00 0.  1.
         23    2    1    2    0    0  0.68735703881E+01 -0.65573518992E+02 -0.13214678849E+03  0.17340349661E+03  0.90878306347E+02 0.  0.
         23    2    1    2    0    0  0.81535136689E+01  0.90200137699E+02 -0.12463131760E+03  0.17928954908E+03  0.91701867245E+02 0.  0.
        -11    1    4    4    0    0 -0.25075597483E+02  0.88733207507E+02 -0.71825760988E+02  0.11688159669E+03  0.00000000000E+00 0. -1.
         11    1    4    4    0    0  0.33229111152E+02  0.14669301913E+01 -0.52805556609E+02  0.62407952385E+02  0.00000000000E+00 0.  1.
        -13    1    3    3    0    0 -0.99832083142E+01  0.20918603470E+02 -0.37505736015E+02  0.44090051638E+02  0.00000000000E+00 0. -1.
         13    1    3    3    0    0  0.16856778702E+02 -0.86492122462E+02 -0.94641052479E+02  0.12931344497E+03  0.00000000000E+00 0.  1.
          2    1    1    2  501    0 -0.15027084057E+02 -0.24626618707E+02 -0.43242001102E+02  0.51982249504E+02  0.00000000000E+00 0.  1.
<scales pt_clust_5="13000.00000" pt_clust_6="13000.00000" pt_clust_7="13000.00000" pt_clust_8="13000.00000" pt_clust_9="28.84934"></scales>
<clustering>
<clus scale="   28.849">  1  9  2 -1</clus>
<clus scale="   90.878">  7  8 -1 -1</clus>
<clus scale="   91.702">  5  6 -1 -1</clus>
<clus scale="  118.576">  2  7  1 -1</clus>
<clus scale="   28.849">  1  5  2 -1</clus>
</clustering>
</event>
<event>
 9    1  0.1610296E-005  0.9628724E+02  0.7546771E-02  0.1290635E+00
         -1   -1    0    0    0  501 -0.00000000000E+00  0.00000000000E+00  0.17494724575E+03  0.17494724575E+03  0.00000000000E+00 0.  1.
         21   -1    0    0  501  502  0.00000000000E+00 -0.00000000000E+00 -0.39632795602E+03  0.39632795602E+03  0.00000000000E+00 0.  1.
         23    2    1    2    0    0  0.17474822326E+02 -0.25582137058E+02  0.14557271976E+03  0.17430656066E+03  0.90727863401E+02 0.  0.
         23    2    1    2    0    0 -0.28062699154E+02  0.56291313854E+02 -0.33412197208E+03  0.35078356445E+03  0.86344598912E+02 0.  0.
        -13    1    3    3    0    0  0.25385128225E+02 -0.51893264338E+02  0.55397401787E+02  0.80038664053E+02  0.00000000000E+00 0.  1.
         13    1    3    3    0    0 -0.79103058999E+01  0.26311127279E+02  0.90175317977E+02  0.94267896605E+02  0.00000000000E+00 0. -1.
        -13    1    4    4    0    0  0.18927654104E+02 -0.10181769322E+02 -0.37796410219E+02  0.43479801539E+02  0.00000000000E+00 0. -1.
         13    1    4    4    0    0 -0.46990353258E+02  0.66473083176E+02 -0.29632556186E+03  0.30730376291E+03  0.00000000000E+00 0.  1.
         -1    1    1    2    0  502  0.10587876828E+02 -0.30709176795E+02 -0.32831457949E+02  0.46185076661E+02  0.00000000000E+00 0.  1.
<scales pt_clust_5="13000.00000" pt_clust_6="13000.00000" pt_clust_7="13000.00000" pt_clust_8="13000.00000" pt_clust_9="32.48318"></scales>
<clustering>
<clus scale="   32.483">  2  9  1 -1</clus>
<clus scale="   86.345">  7  8 -1 -1</clus>
<clus scale="   90.728">  5  6 -1 -1</clus>
<clus scale="   92.169">  2  7  1 -1</clus>
<clus scale="   32.483">  2  5  1 -1</clus>
</clustering>
</event>
<event>
 9    1  0.1610296E-005  0.1530501E+03  0.7546771E-02  0.1197527E+00
         21   -1    0    0  501  502  0.00000000000E+00  0.00000000000E+00  0.33227883254E+02  0.33227883254E+02  0.00000000000E+00 0. -1.
          4   -1    0    0  502    0 -0.00000000000E+00 -0.00000000000E+00 -0.12256146607E+04  0.12256146607E+04  0.00000000000E+00 0. -1.
         23    2    1    2    0    0  0.11168359041E+03 -0.42505708509E+02 -0.83281012439E+03  0.84618856175E+03  0.90456725163E+02 0.  0.
         23    2    1    2    0    0 -0.10314220900E+03  0.70577517692E+02 -0.34696833755E+03  0.38071730601E+03  0.94547017674E+02 0.  0.
        -13    1    4    4    0    0 -0.87580996571E+02  0.87181743146E+02 -0.32985739407E+03  0.35224563549E+03  0.00000000000E+00 0.  1.
         13    1    4    4    0    0 -0.15561212433E+02 -0.16604225454E+02 -0.17110943473E+02  0.28471670514E+02  0.00000000000E+00 0. -1.
        -13    1    3    3    0    0  0.40730208024E+02 -0.63885624341E+02 -0.42450207300E+03  0.43121031159E+03  0.00000000000E+00 0.  1.
         13    1    3    3    0    0  0.70953382390E+02  0.21379915832E+02 -0.40830805139E+03  0.41497825016E+03  0.00000000000E+00 0. -1.
          4    1    1    2  501    0 -0.85413814100E+01 -0.28071809183E+02 -0.12608315528E+02  0.31936676215E+02  0.00000000000E+00 0. -1.
<scales pt_clust_5="13000.00000" pt_clust_6="13000.00000" pt_clust_7="13000.00000" pt_clust_8="13000.00000" pt_clust_9="29.34249"></scales>
<clustering>
<clus scale="   29.342">  1  9  2 -1</clus>
<clus scale="   90.457">  7  8 -1 -1</clus>
<clus scale="   94.547">  5  6 -1 -1</clus>
<clus scale="  150.558">  2  7  1 -1</clus>
<clus scale="   29.342">  1  5  2 -1</clus>
</clustering>
</event>
<event>
 9    1  0.1610296E-005  0.2324621E+03  0.7546771E-02  0.1125464E+00
         21   -1    0    0  501  502  0.00000000000E+00  0.00000000000E+00  0.57794245753E+03  0.57794245753E+03  0.00000000000E+00 0.  1.
          3   -1    0    0  502    0 -0.00000000000E+00 -0.00000000000E+00 -0.44544329629E+03  0.44544329629E+03  0.00000000000E+00 0. -1.
         23    2    1    2    0    0  0.19498828181E+03 -0.43404773125E+02 -0.29652409580E+03  0.36867251085E+03  0.89935957720E+02 0.  0.
         23    2    1    2    0    0 -0.33037184940E+03 -0.14598559547E+02  0.26978593433E+03  0.43780399485E+03  0.97617676279E+02 0.  0.
        -11    1    3    3    0    0  0.25046540632E+02  0.24634682936E+02 -0.36342931361E+02  0.50547061842E+02  0.00000000000E+00 0.  1.
         11    1    3    3    0    0  0.16994174118E+03 -0.68039456061E+02 -0.26018116444E+03  0.31812544901E+03  0.00000000000E+00 0. -1.
        -13    1    4    4    0    0 -0.56128500112E+02 -0.90685529034E+00  0.10082657605E+03  0.11540030047E+03  0.00000000000E+00 0. -1.
         13    1    4    4    0    0 -0.27424334929E+03 -0.13691704257E+02  0.16895935829E+03  0.32240369438E+03  0.00000000000E+00 0.  1.
          3    1    1    2  501    0  0.13538356759E+03  0.58003332673E+02  0.15923732272E+03  0.21690924812E+03  0.00000000000E+00 0. -1.
<scales pt_clust_5="13000.00000" pt_clust_6="13000.00000" pt_clust_7="13000.00000" pt_clust_8="13000.00000" pt_clust_9="147.28577"></scales>
<clustering>
<clus scale="   89.936">  5  6 -1 -1</clus>
<clus scale="   97.618">  7  8 -1 -1</clus>
<clus scale="  147.286">  1  9  2 -1</clus>
<clus scale="  229.342">  2  5  1 -1</clus>
<clus scale="  147.286">  1  5  2 -1</clus>
</clustering>
</event>
<event>
 9    1  0.1610296E-005  0.9275720E+02  0.7546771E-02  0.1296349E+00
         -1   -1    0    0    0  501 -0.00000000000E+00  0.00000000000E+00  0.21764385272E+03  0.21764385272E+03  0.00000000000E+00 0.  1.
         21   -1    0    0  501  502  0.00000000000E+00 -0.00000000000E+00 -0.70538075846E+02  0.70538075846E+02  0.00000000000E+00 0. -1.
         23    2    1    2    0    0  0.14063562547E+02 -0.57114373794E+01  0.90362760259E+02  0.12901377817E+03  0.90822476331E+02 0.  0.
         23    2    1    2    0    0 -0.43231097498E+00  0.29726615767E+02  0.78729729468E+02  0.12387005761E+03  0.90893136668E+02 0.  0.
        -11    1    3    3    0    0 -0.34205294027E+02  0.15012404173E+02  0.24095286969E+02  0.44451740940E+02  0.00000000000E+00 0.  1.
         11    1    3    3    0    0  0.48268856574E+02 -0.20723841552E+02  0.66267473291E+02  0.84562037227E+02  0.00000000000E+00 0. -1.
        -11    1    4    4    0    0 -0.33739340219E+02  0.35164750708E+02  0.75641795727E+02  0.89981020396E+02  0.00000000000E+00 0.  1.
         11    1    4    4    0    0  0.33307029244E+02 -0.54381349405E+01  0.30879337410E+01  0.33889037217E+02  0.00000000000E+00 0. -1.
         -1    1    1    2    0  502 -0.13631251572E+02 -0.24015178388E+02 -0.21986712851E+02  0.35298092787E+02  0.00000000000E+00 0.  1.
<scales pt_clust_5="13000.00000" pt_clust_6="13000.00000" pt_clust_7="13000.00000" pt_clust_8="13000.00000" pt_clust_9="27.61412"></scales>
<clustering>
<clus scale="   27.614">  2  9  1 -1</clus>
<clus scale="   90.822">  5  6 -1 -1</clus>
<clus scale="   90.893">  7  8 -1 -1</clus>
<clus scale="   92.688">  1  5  2 -1</clus>
<clus scale="   27.614">  2  5  1 -1</clus>
</clustering>
</event>
<event>
 9    1  0.1610296E-005  0.1032324E+03  0.7546771E-02  0.1274407E+00
         21   -1    0    0  501  502  0.00000000000E+00  0.00000000000E+00  0.71087562806E+02  0.71087562806E+02  0.00000000000E+00 0. -1.
          1   -1    0    0  502    0 -0.00000000000E+00 -0.00000000000E+00 -0.28363154412E+03  0.28363154412E+03  0.00000000000E+00 0. -1.
         23    2    1    2    0    0  0.29967658230E+02  0.41499706552E+02 -0.12341401732E+03  0.16164845148E+03  0.90988548789E+02 0.  0.
         23    2    1    2    0    0 -0.44664541037E+02 -0.10220197952E+02 -0.11138401442E+03  0.15196531780E+03  0.92669765683E+02 0.  0.
        -13    1    4    4    0    0  0.35512594233E+01 -0.31752352061E+02 -0.38703241325E+01  0.32183889041E+02  0.00000000000E+00 0.  1.
         13    1    4    4    0    0 -0.48215800460E+02  0.21532154110E+02 -0.10751369029E+03  0.11978142876E+03  0.00000000000E+00 0. -1.
        -13    1    3    3    0    0 -0.25101635717E+02  0.37660213455E+02 -0.77938256172E+02  0.90126331160E+02  0.00000000000E+00 0. -1.
         13    1    3    3    0    0  0.55069293946E+02  0.38394930972E+01 -0.45475761150E+02  0.71522120320E+02  0.00000000000E+00 0.  1.
          1    1    1    2  501    0  0.14696882807E+02 -0.31279508601E+02  0.22254050432E+02  0.41105337649E+02  0.00000000000E+00 0. -1.
<scales pt_clust_5="13000.00000" pt_clust_6="13000.00000" pt_clust_7="13000.00000" pt_clust_8="13000.00000" pt_clust_9="34.56018"></scales>
<clustering>
<clus scale="   34.560">  1  9  2 -1</clus>
<clus scale="   90.989">  7  8 -1 -1</clus>
<clus scale="   92.670">  5  6 -1 -1</clus>
<clus scale="  101.726">  2  7  1 -1</clus>
<clus scale="   34.560">  1  5  2 -1</clus>
</clustering>
</event>
<event>
 9    1  0.1610296E-005  0.1371270E+03  0.7546771E-02  0.1217626E+00
          1   -1    0    0  502    0 -0.00000000000E+00  0.00000000000E+00  0.45974076010E+03  0.45974076010E+03  0.00000000000E+00 0. -1.
         21   -1    0    0  501  502  0.00000000000E+00 -0.00000000000E+00 -0.17160867597E+03  0.17160867597E+03  0.00000000000E+00 0.  1.
         23    2    1    2    0    0  0.98695380316E+02  0.12097787633E+01  0.38761152607E+03  0.41076863019E+03  0.93519681059E+02 0.  0.
         23    2    1    2    0    0 -0.11743104668E+03 -0.38471574205E+02 -0.87763270096E+02  0.17725950308E+03  0.91915325754E+02 0.  0.
        -11    1    4    4    0    0 -0.10792006741E+03 -0.64204461271E+02 -0.63894280791E+02  0.14089511317E+03  0.00000000000E+00 0.  1.
         11    1    4    4    0    0 -0.95109792736E+01  0.25732887066E+02 -0.23868989305E+02  0.36364389916E+02  0.00000000000E+00 0. -1.
        -13    1    3    3    0    0  0.75878340641E+02 -0.37613166470E+02  0.18885449852E+03  0.20697413965E+03  0.00000000000E+00 0. -1.
         13    1    3    3    0    0  0.22817039675E+02  0.38822945234E+02  0.19875702755E+03  0.20379449055E+03  0.00000000000E+00 0.  1.
          1    1    1    2  501    0  0.18735666365E+02  0.37261795442E+02 -0.11716171846E+02  0.43321302801E+02  0.00000000000E+00 0. -1.
<scales pt_clust_5="13000.00000" pt_clust_6="13000.00000" pt_clust_7="13000.00000" pt_clust_8="13000.00000" pt_clust_9="41.70691"></scales>
<clustering>
<clus scale="   41.707">  2  9  1 -1</clus>
<clus scale="   91.915">  5  6 -1 -1</clus>
<clus scale="   93.520">  7  8 -1 -1</clus>
<clus scale="  136.038">  2  5  1 -1</clus>
<clus scale="   41.707">  2  5  1 -1</clus>
</clustering>
</event>
<event>
 9    1  0.1610296E-005  0.9435318E+02  0.7546771E-02  0.1294374E+00
         21   -1    0    0  501  502  0.00000000000E+00  0.00000000000E+00  0.35462563022E+02  0.35462563022E+02  0.00000000000E+00 0.  1.
          1   -1    0    0  502    0 -0.00000000000E+00 -0.00000000000E+00 -0.36836841418E+03  0.36836841418E+03  0.00000000000E+00 0. -1.
         23    2    1    2    0    0  0.16124289085E+02  0.25534925321E+02 -0.20390498437E+03  0.22502722726E+03  0.90266191050E+02 0.  0.
         23    2    1    2    0    0  0.82680447964E+01 -0.28551623851E+02 -0.12276572780E+03  0.15344702735E+03  0.87126405255E+02 0.  0.
        -11    1    4    4    0    0 -0.11557690578E+02  0.28290869384E+02 -0.54043055511E+02  0.62085468115E+02  0.00000000000E+00 0. -1.
         11    1    4    4    0    0  0.19825735375E+02 -0.56842493236E+02 -0.68722672288E+02  0.91361559240E+02  0.00000000000E+00 0.  1.
        -13    1    3    3    0    0 -0.13107463552E+02  0.41441511831E+02 -0.44574270989E+02  0.62258092951E+02  0.00000000000E+00 0. -1.
         13    1    3    3    0    0  0.29231752637E+02 -0.15906586510E+02 -0.15933071338E+03  0.16276913431E+03  0.00000000000E+00 0.  1.
          1    1    1    2  501    0 -0.24392333881E+02  0.30166985301E+01 -0.62351389865E+01  0.25356722587E+02  0.00000000000E+00 0. -1.
<scales pt_clust_5="13000.00000" pt_clust_6="13000.00000" pt_clust_7="13000.00000" pt_clust_8="13000.00000" pt_clust_9="24.57817"></scales>
<clustering>
<clus scale="   24.578">  1  9  2 -1</clus>
<clus scale="   87.126">  5  6 -1 -1</clus>
<clus scale="   90.266">  7  8 -1 -1</clus>
<clus scale="   91.354">  1  5  2 -1</clus>
<clus scale="   24.578">  1  5  2 -1</clus>
</clustering>
</event>
<event>
 9    1  0.1610296E-005  0.1813950E+03  0.7546771E-02  0.1166599E+00
          2   -1    0    0  502    0 -0.00000000000E+00  0.00000000000E+00  0.14325478541E+04  0.14325478541E+04  0.00000000000E+00 0. -1.
         21   -1    0    0  501  502  0.00000000000E+00 -0.00000000000E+00 -0.41790358408E+02  0.41790358408E+02  0.00000000000E+00 0.  1.
         23    2    1    2    0    0  0.11336030105E+03 -0.36712913152E+02  0.42927783399E+03  0.45494921714E+03  0.92200518317E+02 0.  0.
         23    2    1    2    0    0 -0.16849188702E+03  0.12224059477E+03  0.76633126803E+03  0.79930407619E+03  0.91055559211E+02 0.  0.
        -11    1    4    4    0    0 -0.54719243492E+02  0.80574703380E+02  0.23600783753E+03  0.25531583932E+03  0.00000000000E+00 0. -1.
         11    1    4    4    0    0 -0.11377264353E+03  0.41665891388E+02  0.53032343050E+03  0.54398823687E+03  0.00000000000E+00 0.  1.
        -13    1    3    3    0    0  0.57847110203E+02  0.42815844113E+01  0.79401529413E+02  0.98332207323E+02  0.00000000000E+00 0.  1.
         13    1    3    3    0    0  0.55513190843E+02 -0.40994497563E+02  0.34987630457E+03  0.35661700982E+03  0.00000000000E+00 0. -1.
          2    1    1    2  501    0  0.55131585976E+02 -0.85527681616E+02  0.19514839371E+03  0.22008491921E+03  0.00000000000E+00 0. -1.
<scales pt_clust_5="13000.00000" pt_clust_6="13000.00000" pt_clust_7="13000.00000" pt_clust_8="13000.00000" pt_clust_9="101.75695"></scales>
<clustering>
<clus scale="   91.056">  5  6 -1 -1</clus>
<clus scale="   92.201">  7  8 -1 -1</clus>
<clus scale="  101.757">  2  9  1 -1</clus>
<clus scale="  180.816">  2  5  1 -1</clus>
<clus scale="  101.757">  2  5  1 -1</clus>
</clustering>
</event>
<event>
 9    1  0.1610296E-005  0.1368816E+03  0.7546771E-02  0.1217729E+00
          1   -1    0    0  502    0 -0.00000000000E+00  0.00000000000E+00  0.40174144268E+03  0.40174144268E+03  0.00000000000E+00 0. -1.
         21   -1    0    0  501  502  0.00000000000E+00 -0.00000000000E+00 -0.61646312000E+02  0.61646312000E+02  0.00000000000E+00 0.  1.
         23    2    1    2    0    0  0.24094671641E+02  0.78604429862E+02  0.11945888334E+03  0.17199785135E+03  0.92485817645E+02 0.  0.
         23    2    1    2    0    0 -0.41848530809E+02 -0.11261743602E+03  0.18568326185E+03  0.23948811821E+03  0.91881981948E+02 0.  0.
        -11    1    4    4    0    0  0.77038696685E+01 -0.95396549923E+02  0.14189502045E+03  0.17115504133E+03  0.00000000000E+00 0.  1.
         11    1    4    4    0    0 -0.49552400477E+02 -0.17220886100E+02  0.43788241402E+02  0.68333076882E+02  0.00000000000E+00 0. -1.
        -13    1    3    3    0    0 -0.11486997953E+02  0.22753148460E+02  0.99676483846E+02  0.10288371260E+03  0.00000000000E+00 0. -1.
         13    1    3    3    0    0  0.35581669594E+02  0.55851281402E+02  0.19782399493E+02  0.69114138749E+02  0.00000000000E+00 0.  1.
          1    1    1    2  501    0  0.17753859168E+02  0.34013006161E+02  0.34952985494E+02  0.51901785117E+02  0.00000000000E+00 0. -1.
<scales pt_clust_5="13000.00000" pt_clust_6="13000.00000" pt_clust_7="13000.00000" pt_clust_8="13000.00000" pt_clust_9="38.36775"></scales>
<clustering>
<clus scale="   38.368">  2  9  1 -1</clus>
<clus scale="   91.882">  5  6 -1 -1</clus>
<clus scale="   92.486">  7  8 -1 -1</clus>
<clus scale="  136.474">  2  5  1 -1</clus>
<clus scale="   38.368">  2  5  1 -1</clus>
</clustering>
</event>
<event>
 9    1  0.1610296E-005  0.1310370E+03  0.7546771E-02  0.1225993E+00
         21   -1    0    0  501  502  0.00000000000E+00  0.00000000000E+00  0.13118319227E+03  0.13118319227E+03  0.00000000000E+00 0.  1.
          1   -1    0    0  502    0 -0.00000000000E+00 -0.00000000000E+00 -0.22086677423E+03  0.22086677423E+03  0.00000000000E+00 0. -1.
         23    2    1    2    0    0 -0.18591236966E+02 -0.10813758101E+03 -0.10392915894E+03  0.17684991664E+03  0.91843630257E+02 0.  0.
         23    2    1    2    0    0  0.21369828331E+02  0.69636204521E+02 -0.25534869128E+02  0.11976936833E+03  0.91579481909E+02 0.  0.
        -11    1    4    4    0    0 -0.28024072990E+02  0.40960756486E+02 -0.36506891513E+02  0.61610756908E+02  0.00000000000E+00 0.  1.
         11    1    4    4    0    0  0.49393901321E+02  0.28675448035E+02  0.10972022385E+02  0.58158611426E+02  0.00000000000E+00 0. -1.
        -13    1    3    3    0    0 -0.49135665057E+00 -0.53029970972E+02  0.51763566763E+01  0.53284274613E+02  0.00000000000E+00 0.  1.
         13    1    3    3    0    0 -0.18099880316E+02 -0.55107610039E+02 -0.10910551561E+03  0.12356564203E+03  0.00000000000E+00 0. -1.
          1    1    1    2  501    0 -0.27785913650E+01  0.38501376489E+02  0.39780446108E+02  0.55430681523E+02  0.00000000000E+00 0. -1.
<scales pt_clust_5="13000.00000" pt_clust_6="13000.00000" pt_clust_7="13000.00000" pt_clust_8="13000.00000" pt_clust_9="38.60151"></scales>
<clustering>
<clus scale="   38.602">  1  9  2 -1</clus>
<clus scale="   91.579">  5  6 -1 -1</clus>
<clus scale="   91.844">  7  8 -1 -1</clus>
<clus scale="  130.852">  1  5  2 -1</clus>
<clus scale="   38.602">  1  5  2 -1</clus>
</clustering>
</event>
<event>
 9    1  0.1610296E-005  0.1016130E+03  0.7546771E-02  0.1277155E+00
          1   -1    0    0  502    0 -0.00000000000E+00  0.00000000000E+00  0.48300806543E+03  0.48300806543E+03  0.00000000000E+00 0. -1.
         21   -1    0    0  501  502  0.00000000000E+00 -0.00000000000E+00 -0.51006541847E+02  0.51006541847E+02  0.00000000000E+00 0.  1.
         23    2    1    2    0    0  0.90291945035E+01 -0.40819109403E+02  0.33360315022E+03  0.34781937618E+03  0.89104043479E+02 0.  0.
         23    2    1    2    0    0 -0.24037059935E+02  0.73540187705E+02  0.92629742817E+02  0.14973728150E+03  0.88628690378E+02 0.  0.
        -11    1    4    4    0    0  0.37880024171E+01  0.36706157980E+02  0.96596223971E+02  0.10340464923E+03  0.00000000000E+00 0. -1.
         11    1    4    4    0    0 -0.27825062352E+02  0.36834029725E+02 -0.39664811534E+01  0.46332632273E+02  0.00000000000E+00 0.  1.
        -11    1    3    3    0    0  0.32084859695E+02  0.14774878078E+02  0.85263731192E+02  0.92291056450E+02  0.00000000000E+00 0.  1.
         11    1    3    3    0    0 -0.23055665191E+02 -0.55593987480E+02  0.24833941903E+03  0.25552831973E+03  0.00000000000E+00 0. -1.
          1    1    1    2  501    0  0.15007865431E+02 -0.32721078302E+02  0.57686305381E+01  0.36457949591E+02  0.00000000000E+00 0. -1.
<scales pt_clust_5="13000.00000" pt_clust_6="13000.00000" pt_clust_7="13000.00000" pt_clust_8="13000.00000" pt_clust_9="35.99868"></scales>
<clustering>
<clus scale="   35.999">  2  9  1 -1</clus>
<clus scale="   88.629">  5  6 -1 -1</clus>
<clus scale="   89.104">  7  8 -1 -1</clus>
<clus scale="  101.196">  2  5  1 -1</clus>
<clus scale="   35.999">  2  5  1 -1</clus>
</clustering>
</event>
<event>
 9    1  0.1610296E-005  0.9401787E+02  0.7546771E-02  0.1299646E+00
          1   -1    0    0  502    0 -0.00000000000E+00  0.00000000000E+00  0.29108805443E+03  0.29108805443E+03  0.00000000000E+00 0. -1.
         21   -1    0    0  501  502  0.00000000000E+00 -0.00000000000E+00 -0.58765275315E+02  0.58765275315E+02  0.00000000000E+00 0.  1.
         23    2    1    2    0    0  0.12507923127E+02 -0.56309015104E+02  0.14000483213E+03  0.17606417094E+03  0.89833657096E+02 0.  0.
         23    2    1    2    0    0 -0.10213479547E+02 -0.10013555565E+02  0.58166333182E+02  0.99154846476E+02  0.79017560101E+02 0.  0.
        -11    1    4    4    0    0 -0.34542886165E+02  0.11519512852E+02  0.55733144622E+02  0.66573970668E+02  0.00000000000E+00 0. -1.
         11    1    4    4    0    0  0.24329406618E+02 -0.21533068418E+02  0.24331885600E+01  0.32580875808E+02  0.00000000000E+00 0.  1.
        -13    1    3    3    0    0  0.15509281321E+02 -0.78634599087E+02  0.86045441956E+02  0.11759147955E+03  0.00000000000E+00 0.  1.
         13    1    3    3    0    0 -0.30013581939E+01  0.22325583983E+02  0.53959390170E+02  0.58472691393E+02  0.00000000000E+00 0. -1.
          1    1    1    2  501    0 -0.22944435800E+01  0.66322570669E+02  0.34151613810E+02  0.74634312332E+02  0.00000000000E+00 0. -1.
<scales pt_clust_5="13000.00000" pt_clust_6="13000.00000" pt_clust_7="13000.00000" pt_clust_8="13000.00000" pt_clust_9="66.36225"></scales>
<clustering>
<clus scale="   66.362">  2  9  1 -1</clus>
<clus scale="   79.018">  5  6 -1 -1</clus>
<clus scale="   83.744">  2  5  1 -1</clus>
<clus scale="   89.834">  7  8 -1 -1</clus>
<clus scale="   66.362">  2  5  1 -1</clus>
</clustering>
</event>
<event>
 9    1  0.1610296E-005  0.1096510E+03  0.7546771E-02  0.1261285E+00
         21   -1    0    0  501  502  0.00000000000E+00  0.00000000000E+00  0.58927847318E+02  0.58927847318E+02  0.00000000000E+00 0. -1.
          2   -1    0    0  502    0 -0.00000000000E+00 -0.00000000000E+00 -0.29611417164E+03  0.29611417164E+03  0.00000000000E+00 0. -1.
         23    2    1    2    0    0 -0.19814325315E+02 -0.53506272210E+02 -0.95322841305E+02  0.14400003026E+03  0.91618971767E+02 0.  0.
         23    2    1    2    0    0 -0.36928527669E+01  0.67323598814E+02 -0.68242602023E+02  0.13253377222E+03  0.91444212115E+02 0.  0.
        -11    1    3    3    0    0  0.34308411404E+02 -0.16467102557E+02 -0.16547244563E+02  0.41497516339E+02  0.00000000000E+00 0.  1.
         11    1    3    3    0    0 -0.54122736719E+02 -0.37039169653E+02 -0.78775596742E+02  0.10250251392E+03  0.00000000000E+00 0. -1.
        -13    1    4    4    0    0 -0.43731944455E+02  0.28711701310E+02 -0.53850764201E+02  0.75078289558E+02  0.00000000000E+00 0. -1.
         13    1    4    4    0    0  0.40039091688E+02  0.38611897504E+02 -0.14391837822E+02  0.57455482663E+02  0.00000000000E+00 0.  1.
          2    1    1    2  501    0  0.23507178082E+02 -0.13817326604E+02 -0.73620880990E+02  0.78508216472E+02  0.00000000000E+00 0. -1.
<scales pt_clust_5="13000.00000" pt_clust_6="13000.00000" pt_clust_7="13000.00000" pt_clust_8="13000.00000" pt_clust_9="27.26732"></scales>
<clustering>
<clus scale="   27.267">  1  9  2 -1</clus>
<clus scale="   91.444">  7  8 -1 -1</clus>
<clus scale="   91.619">  5  6 -1 -1</clus>
<clus scale="  109.505">  1  7  2 -1</clus>
<clus scale="   27.267">  1  5  2 -1</clus>
</clustering>
</event>
<event>
 9    1  0.1610296E-005  0.9568430E+02  0.7546771E-02  0.1289922E+00
         21   -1    0    0  501  502  0.00000000000E+00  0.00000000000E+00  0.48523482478E+02  0.48523482478E+02  0.00000000000E+00 0.  1.
          1   -1    0    0  502    0 -0.00000000000E+00 -0.00000000000E+00 -0.23344966347E+03  0.23344966347E+03  0.00000000000E+00 0. -1.
         23    2    1    2    0    0  0.36167352873E+02  0.20061249242E+02 -0.89044495595E+02  0.13338727819E+03  0.90292373166E+02 0.  0.
         23    2    1    2    0    0 -0.17060700708E+02 -0.13729497912E+02 -0.70656728216E+02  0.11631430603E+03  0.89761227280E+02 0.  0.
        -11    1    4    4    0    0 -0.17192637924E+02 -0.35154566545E+02 -0.82874970915E+02  0.91649828979E+02  0.00000000000E+00 0. -1.
         11    1    4    4    0    0  0.13193721667E+00  0.21425068633E+02  0.12218242699E+02  0.24664477047E+02  0.00000000000E+00 0.  1.
        -11    1    3    3    0    0  0.65955385184E+02  0.21209250214E+02 -0.58087191257E+02  0.90410546495E+02  0.00000000000E+00 0.  1.
         11    1    3    3    0    0 -0.29788032311E+02 -0.11480009720E+01 -0.30957304338E+02  0.42976731694E+02  0.00000000000E+00 0. -1.
          1    1    1    2  501    0 -0.19106652166E+02 -0.63317513299E+01 -0.25224957178E+02  0.32271561731E+02  0.00000000000E+00 0. -1.
<scales pt_clust_5="13000.00000" pt_clust_6="13000.00000" pt_clust_7="13000.00000" pt_clust_8="13000.00000" pt_clust_9="20.12848"></scales>
<clustering>
<clus scale="   20.128">  1  9  2 -1</clus>
<clus scale="   89.761">  5  6 -1 -1</clus>
<clus scale="   90.292">  7  8 -1 -1</clus>
<clus scale="   95.183">  1  5  2 -1</clus>
<clus scale="   20.128">  1  5  2 -1</clus>
</clustering>
</event>
<event>
 9    1  0.1610296E-005  0.9371840E+02  0.7546771E-02  0.1295918E+00
         21   -1    0    0  501  502  0.00000000000E+00  0.00000000000E+00  0.10129840524E+03  0.10129840524E+03  0.00000000000E+00 0.  1.
          2   -1    0    0  502    0 -0.00000000000E+00 -0.00000000000E+00 -0.17143209166E+03  0.17143209166E+03  0.00000000000E+00 0. -1.
         23    2    1    2    0    0  0.11935885207E+02  0.21494560780E+02 -0.11196269459E+03  0.14487873057E+03  0.88598646112E+02 0.  0.
         23    2    1    2    0    0 -0.17545557679E+01  0.18980464792E+01  0.19354161780E+02  0.93851880091E+02  0.91798206802E+02 0.  0.
        -11    1    3    3    0    0  0.36552669021E+02  0.52899922603E+01 -0.93234820248E+01  0.38092111359E+02  0.00000000000E+00 0.  1.
         11    1    3    3    0    0 -0.24616783815E+02  0.16204568520E+02 -0.10263921257E+03  0.10678661921E+03  0.00000000000E+00 0. -1.
        -13    1    4    4    0    0 -0.20728013397E+02 -0.35072529294E+02 -0.11225383578E+02  0.42258041683E+02  0.00000000000E+00 0.  1.
         13    1    4    4    0    0  0.18973457629E+02  0.36970575773E+02  0.30579545358E+02  0.51593838408E+02  0.00000000000E+00 0. -1.
          2    1    1    2  501    0 -0.10181329439E+02 -0.23392607259E+02  0.22474846397E+02  0.33999886237E+02  0.00000000000E+00 0. -1.
<scales pt_clust_5="13000.00000" pt_clust_6="13000.00000" pt_clust_7="13000.00000" pt_clust_8="13000.00000" pt_clust_9="25.51222"></scales>
<clustering>
<clus scale="   25.512">  1  9  2 -1</clus>
<clus scale="   88.599">  5  6 -1 -1</clus>
<clus scale="   90.587">  2  5  1 -1</clus>
<clus scale="   91.798">  7  8 -1 -1</clus>
<clus scale="   25.512">  1  5  2 -1</clus>
</clustering>
</event>
<event>
 9    1  0.1610296E-005  0.1178309E+03  0.7546771E-02  0.1247402E+00
         -1   -1    0    0    0  501 -0.00000000000E+00  0.00000000000E+00  0.15714984776E+03  0.15714984776E+03  0.00000000000E+00 0.  1.
         21   -1    0    0  501  502  0.00000000000E+00 -0.00000000000E+00 -0.10998499460E+03  0.10998499460E+03  0.00000000000E+00 0.  1.
         23    2    1    2    0    0  0.78508397498E+01  0.84350181249E+02  0.36342662120E+02  0.12740003605E+03  0.87939702825E+02 0.  0.
         23    2    1    2    0    0 -0.19387366435E+02 -0.64978614347E+02  0.21550222480E+02  0.11476603160E+03  0.90048540352E+02 0.  0.
        -13    1    3    3    0    0  0.42204638399E+02  0.15963259006E+02  0.18812098412E+02  0.48887137237E+02  0.00000000000E+00 0. -1.
         13    1    3    3    0    0 -0.34353798649E+02  0.68386922243E+02  0.17530563708E+02  0.78512898809E+02  0.00000000000E+00 0.  1.
        -13    1    4    4    0    0 -0.49062253120E+02 -0.43805583407E+02 -0.10032865083E+02  0.66533391621E+02  0.00000000000E+00 0.  1.
         13    1    4    4    0    0  0.29674886685E+02 -0.21173030940E+02  0.31583087563E+02  0.48232639975E+02  0.00000000000E+00 0. -1.
         -1    1    1    2    0  502  0.11536526686E+02 -0.19371566902E+02 -0.10728031447E+02  0.24968774718E+02  0.00000000000E+00 0.  1.
<scales pt_clust_5="13000.00000" pt_clust_6="13000.00000" pt_clust_7="13000.00000" pt_clust_8="13000.00000" pt_clust_9="22.54660"></scales>
<clustering>
<clus scale="   22.547">  2  9  1 -1</clus>
<clus scale="   87.940">  5  6 -1 -1</clus>
<clus scale="   90.049">  7  8 -1 -1</clus>
<clus scale="  116.227">  1  5  2 -1</clus>
<clus scale="   22.547">  2  5  1 -1</clus>
</clustering>
</event>
<event>
 9    1  0.1610296E-005  0.1765543E+03  0.7546771E-02  0.1171208E+00
         -1   -1    0    0    0  501 -0.00000000000E+00  0.00000000000E+00  0.10456008709E+04  0.10456008709E+04  0.00000000000E+00 0.  1.
         21   -1    0    0  501  502  0.00000000000E+00 -0.00000000000E+00 -0.79772205347E+02  0.79772205347E+02  0.00000000000E+00 0.  1.
         23    2    1    2    0    0 -0.17232598433E+03 -0.10446917104E+02  0.78344620936E+03  0.80752655881E+03  0.92226879350E+02 0.  0.
         23    2    1    2    0    0  0.10837669089E+03  0.16030404495E+02  0.20482553719E+03  0.24984372821E+03  0.92010362711E+02 0.  0.
        -11    1    4    4    0    0  0.11530469033E+03  0.34844358615E+02  0.18977129844E+03  0.22477198814E+03  0.00000000000E+00 0.  1.
         11    1    4    4    0    0 -0.69279994459E+01 -0.18813954119E+02  0.15054238741E+02  0.25071740068E+02  0.00000000000E+00 0. -1.
        -13    1    3    3    0    0 -0.14205942821E+03  0.10694970108E+02  0.72135849555E+03  0.73529133180E+03  0.00000000000E+00 0.  1.
         13    1    3    3    0    0 -0.30266556120E+02 -0.21141887213E+02  0.62087713809E+02  0.72235227004E+02  0.00000000000E+00 0. -1.
         -1    1    1    2    0  502  0.63949293439E+02 -0.55834873912E+01 -0.22443080966E+02  0.68002789252E+02  0.00000000000E+00 0.  1.
<scales pt_clust_5="13000.00000" pt_clust_6="13000.00000" pt_clust_7="13000.00000" pt_clust_8="13000.00000" pt_clust_9="64.19258"></scales>
<clustering>
<clus scale="   64.193">  2  9  1 -1</clus>
<clus scale="   92.010">  5  6 -1 -1</clus>
<clus scale="   92.227">  7  8 -1 -1</clus>
<clus scale="  176.441">  2  5  1 -1</clus>
<clus scale="   64.193">  2  5  1 -1</clus>
</clustering>
</event>
<event>
 9    1  0.1610296E-005  0.1283867E+03  0.7546771E-02  0.1237465E+00
          1   -1    0    0  502    0 -0.00000000000E+00  0.00000000000E+00  0.25808623753E+03  0.25808623753E+03  0.00000000000E+00 0. -1.
         21   -1    0    0  501  502  0.00000000000E+00 -0.00000000000E+00 -0.14348532331E+03  0.14348532331E+03  0.00000000000E+00 0. -1.
         23    2    1    2    0    0 -0.89702738367E+01  0.63554241647E+02  0.11306269683E+03  0.15689933629E+03  0.87832914508E+02 0.  0.
         23    2    1    2    0    0 -0.11414437527E+02 -0.69848467585E+02  0.86606279083E+02  0.15696972255E+03  0.11013513705E+03 0.  0.
        -11    1    3    3    0    0  0.10848265001E+02  0.79896923022E+02  0.70095761998E+02  0.10683922038E+03  0.00000000000E+00 0. -1.
         11    1    3    3    0    0 -0.19818538838E+02 -0.16342681375E+02  0.42966934832E+02  0.50060115911E+02  0.00000000000E+00 0.  1.
        -13    1    4    4    0    0 -0.52633325012E+02 -0.60972140864E+02  0.81349085893E+02  0.11447944199E+03  0.00000000000E+00 0. -1.
         13    1    4    4    0    0  0.41218887485E+02 -0.88763267208E+01  0.52571931899E+01  0.42490280557E+02  0.00000000000E+00 0.  1.
          1    1    1    2  501    0  0.20384711364E+02  0.62942259379E+01 -0.85068061691E+02  0.87702502002E+02  0.00000000000E+00 0. -1.
<scales pt_clust_5="13000.00000" pt_clust_6="13000.00000" pt_clust_7="13000.00000" pt_clust_8="13000.00000" pt_clust_9="21.33433"></scales>
<clustering>
<clus scale="   21.334">  2  9  1 -1</clus>
<clus scale="   87.833">  5  6 -1 -1</clus>
<clus scale="  109.855">  1  5  2 -1</clus>
<clus scale="  110.135">  7  8 -1 -1</clus>
<clus scale="   21.334">  2  5  1 -1</clus>
</clustering>
</event>
<event>
 9    1  0.1610296E-005  0.1472177E+03  0.7546771E-02  0.1204408E+00
         21   -1    0    0  501  502  0.00000000000E+00  0.00000000000E+00  0.11646159669E+03  0.11646159669E+03  0.00000000000E+00 0. -1.
          1   -1    0    0  502    0 -0.00000000000E+00 -0.00000000000E+00 -0.45194775607E+03  0.45194775607E+03  0.00000000000E+00 0. -1.
         23    2    1    2    0    0 -0.91764318508E+02 -0.73762184777E+02 -0.36800825017E+03  0.39655018777E+03  0.89221237226E+02 0.  0.
         23    2    1    2    0    0  0.93430731484E+02  0.44847101548E+02  0.18162238288E+02  0.13953171018E+03  0.91644242284E+02 0.  0.
        -13    1    4    4    0    0  0.12123037493E+02 -0.27049967553E+02  0.67148961708E+01  0.30393397528E+02  0.00000000000E+00 0.  1.
         13    1    4    4    0    0  0.81307693991E+02  0.71897069102E+02  0.11447342118E+02  0.10913831265E+03  0.00000000000E+00 0. -1.
        -13    1    3    3    0    0 -0.40565054329E+02 -0.80630796858E+02 -0.28332095241E+03  0.29735098976E+03  0.00000000000E+00 0. -1.
         13    1    3    3    0    0 -0.51199264179E+02  0.68686120815E+01 -0.84687297761E+02  0.99199198013E+02  0.00000000000E+00 0.  1.
          1    1    1    2  501    0 -0.16664129753E+01  0.28915083228E+02  0.14359852504E+02  0.32327454806E+02  0.00000000000E+00 0. -1.
<scales pt_clust_5="13000.00000" pt_clust_6="13000.00000" pt_clust_7="13000.00000" pt_clust_8="13000.00000" pt_clust_9="28.96306"></scales>
<clustering>
<clus scale="   28.963">  1  9  2 -1</clus>
<clus scale="   89.221">  7  8 -1 -1</clus>
<clus scale="   91.644">  5  6 -1 -1</clus>
<clus scale="  145.722">  2  7  1 -1</clus>
<clus scale="   28.963">  1  5  2 -1</clus>
</clustering>
</event>
<event>
 9    1  0.1610296E-005  0.9386212E+02  0.7546771E-02  0.1295298E+00
         21   -1    0    0  501  502  0.00000000000E+00  0.00000000000E+00  0.37472215024E+02  0.37472215024E+02  0.00000000000E+00 0. -1.
          1   -1    0    0  502    0 -0.00000000000E+00 -0.00000000000E+00 -0.83846601002E+03  0.83846601002E+03  0.00000000000E+00 0. -1.
         23    2    1    2    0    0 -0.17724137158E+01  0.11986538612E+01 -0.45395591735E+03  0.46298455236E+03  0.90962314205E+02 0.  0.
         23    2    1    2    0    0 -0.18241434649E+02  0.16648806741E+01 -0.37015138558E+03  0.38224555967E+03  0.93616760652E+02 0.  0.
        -13    1    4    4    0    0 -0.33774525322E+02  0.39434650327E+02 -0.25026455246E+03  0.25559373315E+03  0.00000000000E+00 0. -1.
         13    1    4    4    0    0  0.15533090673E+02 -0.37769769653E+02 -0.11988683312E+03  0.12665182652E+03  0.00000000000E+00 0.  1.
        -13    1    3    3    0    0 -0.50604875479E+01 -0.44636528425E+02 -0.21292671524E+03  0.21761391102E+03  0.00000000000E+00 0.  1.
         13    1    3    3    0    0  0.32880738322E+01  0.45835182286E+02 -0.24102920210E+03  0.24537064134E+03  0.00000000000E+00 0. -1.
          1    1    1    2  501    0  0.20013848364E+02 -0.28635345354E+01  0.23113507929E+02  0.30708113019E+02  0.00000000000E+00 0. -1.
<scales pt_clust_5="13000.00000" pt_clust_6="13000.00000" pt_clust_7="13000.00000" pt_clust_8="13000.00000" pt_clust_9="20.21766"></scales>
<clustering>
<clus scale="   20.218">  1  9  2 -1</clus>
<clus scale="   90.962">  7  8 -1 -1</clus>
<clus scale="   91.215">  2  7  1 -1</clus>
<clus scale="   93.617">  5  6 -1 -1</clus>
<clus scale="   20.218">  1  5  2 -1</clus>
</clustering>
</event>
<event>
 9    1  0.1610296E-005  0.9751963E+02  0.7546771E-02  0.1285671E+00
         21   -1    0    0  501  502  0.00000000000E+00  0.00000000000E+00  0.53725432833E+03  0.53725432833E+03  0.00000000000E+00 0.  1.
         -4   -1    0    0    0  501 -0.00000000000E+00 -0.00000000000E+00 -0.30805524876E+02  0.30805524876E+02  0.00000000000E+00 0.  1.
         23    2    1    2    0    0 -0.12557932664E+02 -0.28458517992E+02  0.11491594402E+03  0.15038015888E+03  0.91874528983E+02 0.  0.
         23    2    1    2    0    0 -0.13253822077E+02  0.39139429014E+02  0.19755213787E+03  0.22169793783E+03  0.91736414556E+02 0.  0.
        -11    1    4    4    0    0  0.14498200213E+02 -0.16486100455E+02  0.12152193787E+03  0.12348915216E+03  0.00000000000E+00 0. -1.
         11    1    4    4    0    0 -0.27752022290E+02  0.55625529469E+02  0.76030200006E+02  0.98208785670E+02  0.00000000000E+00 0.  1.
        -13    1    3    3    0    0  0.49011012167E+01 -0.48997975604E+02  0.11310826426E+03  0.12336248154E+03  0.00000000000E+00 0.  1.
         13    1    3    3    0    0 -0.17459033881E+02  0.20539457612E+02  0.18076797599E+01  0.27017677346E+02  0.00000000000E+00 0. -1.
         -4    1    1    2    0  502  0.25811754741E+02 -0.10680911022E+02  0.19398072156E+03  0.19598175650E+03  0.00000000000E+00 0.  1.
<scales pt_clust_5="13000.00000" pt_clust_6="13000.00000" pt_clust_7="13000.00000" pt_clust_8="13000.00000" pt_clust_9="27.93436"></scales>
<clustering>
<clus scale="   27.934">  1  9  2 -1</clus>
<clus scale="   91.736">  5  6 -1 -1</clus>
<clus scale="   91.875">  7  8 -1 -1</clus>
<clus scale="   97.390">  1  5  2 -1</clus>
<clus scale="   27.934">  1  5  2 -1</clus>
</clustering>
</event>
<event>
 9    1  0.1610296E-005  0.9879696E+02  0.7546771E-02  0.1285029E+00
         21   -1    0    0  501  502  0.00000000000E+00  0.00000000000E+00  0.14858861493E+03  0.14858861493E+03  0.00000000000E+00 0. -1.
          3   -1    0    0  502    0 -0.00000000000E+00 -0.00000000000E+00 -0.16472647384E+03  0.16472647384E+03  0.00000000000E+00 0. -1.
         23    2    1    2    0    0  0.27449377720E+02  0.37482590791E+02 -0.10981167620E+03  0.14672164902E+03  0.85499854456E+02 0.  0.
         23    2    1    2    0    0 -0.13839273667E+02 -0.17491504414E+02  0.28255811034E+02  0.96848231961E+02  0.89909459761E+02 0.  0.
        -13    1    3    3    0    0  0.54826238543E+02  0.17483688502E+02 -0.43127394512E+02  0.71913614523E+02  0.00000000000E+00 0. -1.
         13    1    3    3    0    0 -0.27376860823E+02  0.19998902289E+02 -0.66684281685E+02  0.74808034496E+02  0.00000000000E+00 0.  1.
        -13    1    4    4    0    0 -0.23917063344E+02 -0.44643255301E+02 -0.71034737839E+01  0.51142013087E+02  0.00000000000E+00 0.  1.
         13    1    4    4    0    0  0.10077789677E+02  0.27151750886E+02  0.35359284817E+02  0.45706218874E+02  0.00000000000E+00 0. -1.
          3    1    1    2  501    0 -0.13610104053E+02 -0.19991086377E+02  0.65418006261E+02  0.69745207792E+02  0.00000000000E+00 0. -1.
<scales pt_clust_5="13000.00000" pt_clust_6="13000.00000" pt_clust_7="13000.00000" pt_clust_8="13000.00000" pt_clust_9="24.18426"></scales>
<clustering>
<clus scale="   24.184">  1  9  2 -1</clus>
<clus scale="   85.500">  5  6 -1 -1</clus>
<clus scale="   89.909">  7  8 -1 -1</clus>
<clus scale="   94.802">  2  5  1 -1</clus>
<clus scale="   24.184">  1  5  2 -1</clus>
</clustering>
</event>
<event>
 9    1  0.1610296E-005  0.1116984E+03  0.7546771E-02  0.1257502E+00
          4   -1    0    0  502    0 -0.00000000000E+00  0.00000000000E+00  0.35138414851E+03  0.35138414851E+03  0.00000000000E+00 0. -1.
         21   -1    0    0  501  502  0.00000000000E+00 -0.00000000000E+00 -0.16715129821E+03  0.16715129821E+03  0.00000000000E+00 0. -1.
         23    2    1    2    0    0 -0.35851326887E+01  0.65277518063E+02  0.29221880587E+03  0.31333699137E+03  0.92272596762E+02 0.  0.
         23    2    1    2    0    0 -0.17085732088E+02 -0.49686330499E+02 -0.13147177106E+02  0.10688892539E+03  0.92150639860E+02 0.  0.
        -11    1    3    3    0    0  0.35765489471E+02  0.22796253232E+00  0.11676463196E+03  0.12211961955E+03  0.00000000000E+00 0. -1.
         11    1    3    3    0    0 -0.39350622159E+02  0.65049555531E+02  0.17545417392E+03  0.19121737182E+03  0.00000000000E+00 0.  1.
        -13    1    4    4    0    0 -0.31807863175E+02 -0.72351769593E+02 -0.90049948373E+01  0.79546267386E+02  0.00000000000E+00 0.  1.
         13    1    4    4    0    0  0.14722131087E+02  0.22665439093E+02 -0.41421822684E+01  0.27342658009E+02  0.00000000000E+00 0. -1.
          4    1    1    2  501    0  0.20670864777E+02 -0.15591187564E+02 -0.94838778466E+02  0.98309529961E+02  0.00000000000E+00 0. -1.
<scales pt_clust_5="13000.00000" pt_clust_6="13000.00000" pt_clust_7="13000.00000" pt_clust_8="13000.00000" pt_clust_9="25.89150"></scales>
<clustering>
<clus scale="   25.892">  2  9  1 -1</clus>
<clus scale="   92.151">  7  8 -1 -1</clus>
<clus scale="   92.273">  5  6 -1 -1</clus>
<clus scale="  111.598">  2  7  1 -1</clus>
<clus scale="   25.892">  2  5  1 -1</clus>
</clustering>
</event>
<event>
 9    1  0.1610296E-005  0.1842518E+03  0.7546771E-02  0.1189730E+00
          1   -1    0    0  502    0 -0.00000000000E+00  0.00000000000E+00  0.50721267560E+03  0.50721267560E+03  0.00000000000E+00 0. -1.
         21   -1    0    0  501  502  0.00000000000E+00 -0.00000000000E+00 -0.26505596031E+03  0.26505596031E+03  0.00000000000E+00 0. -1.
         23    2    1    2    0    0 -0.48932021714E+02  0.37220565364E+01  0.44144296548E+02  0.11151332528E+03  0.89879398879E+02 0.  0.
         23    2    1    2    0    0  0.15566467550E+03  0.10849493228E+03  0.37153439684E+03  0.42817330608E+03  0.96394659983E+02 0.  0.
        -11    1    4    4    0    0  0.34433407238E+02 -0.13942841628E+02  0.40337133734E+02  0.54837457313E+02  0.00000000000E+00 0.  1.
         11    1    4    4    0    0  0.12123126826E+03  0.12243777391E+03  0.33119726310E+03  0.37333584876E+03  0.00000000000E+00 0. -1.
        -13    1    3    3    0    0  0.95137198720E+01 -0.30851764971E+02  0.25366922514E+02  0.41058775255E+02  0.00000000000E+00 0.  1.
         13    1    3    3    0    0 -0.58445741586E+02  0.34573821508E+02  0.18777374034E+02  0.70454550022E+02  0.00000000000E+00 0. -1.
          1    1    1    2  501    0 -0.10673265378E+03 -0.11221698882E+03 -0.17352197810E+03  0.23258200456E+03  0.00000000000E+00 0. -1.
<scales pt_clust_5="13000.00000" pt_clust_6="13000.00000" pt_clust_7="13000.00000" pt_clust_8="13000.00000" pt_clust_9="157.02486"></scales>
<clustering>
<clus scale="   89.879">  7  8 -1 -1</clus>
<clus scale="   96.395">  5  6 -1 -1</clus>
<clus scale="  102.404">  1  7  2 -1</clus>
<clus scale="  157.025">  2  9  1 -1</clus>
<clus scale="  157.025">  2  5  1 -1</clus>
</clustering>
</event>
<event>
 9    1  0.1610296E-005  0.2068783E+03  0.7546771E-02  0.1144830E+00
         21   -1    0    0  501  502  0.00000000000E+00  0.00000000000E+00  0.29924510413E+03  0.29924510413E+03  0.00000000000E+00 0.  1.
         -3   -1    0    0    0  501 -0.00000000000E+00 -0.00000000000E+00 -0.25312799256E+03  0.25312799256E+03  0.00000000000E+00 0.  1.
         23    2    1    2    0    0 -0.17480038759E+03 -0.25760380614E+02 -0.13171567164E+03  0.24237739297E+03  0.10089107868E+03 0.  0.
         23    2    1    2    0    0  0.19764922449E+03 -0.30687054962E+00  0.16177663019E+03  0.27179398935E+03  0.92924617106E+02 0.  0.
        -13    1    4    4    0    0  0.72200491390E+02 -0.34731527202E+02  0.98982430199E+02  0.12734485238E+03  0.00000000000E+00 0. -1.
         13    1    4    4    0    0  0.12544873310E+03  0.34424656653E+02  0.62794199990E+02  0.14444913698E+03  0.00000000000E+00 0.  1.
        -13    1    3    3    0    0 -0.82242831625E+02 -0.29329565840E+02 -0.77929503281E+01  0.87663201292E+02  0.00000000000E+00 0. -1.
         13    1    3    3    0    0 -0.92557555964E+02  0.35691852265E+01 -0.12392272131E+03  0.15471419168E+03  0.00000000000E+00 0.  1.
         -3    1    1    2    0  502 -0.22848836899E+02  0.26067251163E+02  0.16056153021E+02  0.38201714368E+02  0.00000000000E+00 0.  1.
<scales pt_clust_5="13000.00000" pt_clust_6="13000.00000" pt_clust_7="13000.00000" pt_clust_8="13000.00000" pt_clust_9="34.66368"></scales>
<clustering>
<clus scale="   34.664">  1  9  2 -1</clus>
<clus scale="   92.925">  5  6 -1 -1</clus>
<clus scale="  100.891">  7  8 -1 -1</clus>
<clus scale="  203.112">  1  5  2 -1</clus>
<clus scale="   34.664">  1  5  2 -1</clus>
</clustering>
</event>
<event>
 9    1  0.1610296E-005  0.1057146E+03  0.7546771E-02  0.1269091E+00
          2   -1    0    0  502    0 -0.00000000000E+00  0.00000000000E+00  0.36008791670E+03  0.36008791670E+03  0.00000000000E+00 0. -1.
         21   -1    0    0  501  502  0.00000000000E+00 -0.00000000000E+00 -0.45402521003E+02  0.45402521003E+02  0.00000000000E+00 0.  1.
         23    2    1    2    0    0 -0.37126336267E+02 -0.17814226645E+02  0.15098894665E+03  0.18156112978E+03  0.92038417625E+02 0.  0.
         23    2    1    2    0    0  0.53793027984E+02  0.41133750637E+02  0.93773794283E+02  0.14835976075E+03  0.92905429410E+02 0.  0.
        -11    1    3    3    0    0 -0.57331895248E+02 -0.12616536776E+02  0.14953741128E+03  0.16064731739E+03  0.00000000000E+00 0. -1.
         11    1    3    3    0    0  0.20205558980E+02 -0.51976898692E+01  0.14515353770E+01  0.20913812389E+02  0.00000000000E+00 0.  1.
        -13    1    4    4    0    0  0.30228926440E+02 -0.15990557996E+02  0.77118634884E+02  0.84360949408E+02  0.00000000000E+00 0. -1.
         13    1    4    4    0    0  0.23564101544E+02  0.57124308632E+02  0.16655159400E+02  0.63998811340E+02  0.00000000000E+00 0.  1.
          2    1    1    2  501    0 -0.16666691717E+02 -0.23319523992E+02  0.69922654760E+02  0.75569547178E+02  0.00000000000E+00 0. -1.
<scales pt_clust_5="13000.00000" pt_clust_6="13000.00000" pt_clust_7="13000.00000" pt_clust_8="13000.00000" pt_clust_9="28.66321"></scales>
<clustering>
<clus scale="   28.663">  2  9  1 -1</clus>
<clus scale="   92.038">  5  6 -1 -1</clus>
<clus scale="   92.905">  7  8 -1 -1</clus>
<clus scale="  104.953">  1  5  2 -1</clus>
<clus scale="   28.663">  2  5  1 -1</clus>
</clustering>
</event>
<event>
 9    1  0.1610296E-005  0.9404317E+02  0.7546771E-02  0.1293692E+00
          1   -1    0    0  502    0 -0.00000000000E+00  0.00000000000E+00  0.13712196259E+03  0.13712196259E+03  0.00000000000E+00 0. -1.
         21   -1    0    0  501  502  0.00000000000E+00 -0.00000000000E+00 -0.15033438006E+03  0.15033438006E+03  0.00000000000E+00 0. -1.
         23    2    1    2    0    0 -0.45625303483E+02 -0.19470376926E+02  0.34061235708E+02  0.11002847434E+03  0.92115869923E+02 0.  0.
         23    2    1    2    0    0 -0.17967680667E+02 -0.32342042085E+01  0.28309807179E+01  0.93344338557E+02  0.91497833107E+02 0.  0.
        -11    1    3    3    0    0 -0.64554991075E+02 -0.39615195583E+02  0.17269678825E+02  0.77684956076E+02  0.00000000000E+00 0. -1.
         11    1    3    3    0    0  0.18929687592E+02  0.20144818657E+02  0.16791556883E+02  0.32343518262E+02  0.00000000000E+00 0.  1.
        -11    1    4    4    0    0  0.10930540831E+02  0.38435193501E+02  0.12192654052E+02  0.41778004202E+02  0.00000000000E+00 0. -1.
         11    1    4    4    0    0 -0.28898221497E+02 -0.41669397709E+02 -0.93616733341E+01  0.51566334355E+02  0.00000000000E+00 0.  1.
          1    1    1    2  501    0  0.63592984150E+02  0.22704581134E+02 -0.50104633899E+02  0.84083529753E+02  0.00000000000E+00 0. -1.
<scales pt_clust_5="13000.00000" pt_clust_6="13000.00000" pt_clust_7="13000.00000" pt_clust_8="13000.00000" pt_clust_9="67.52456"></scales>
<clustering>
<clus scale="   67.525">  2  9  1 -1</clus>
<clus scale="   91.498">  7  8 -1 -1</clus>
<clus scale="   92.116">  5  6 -1 -1</clus>
<clus scale="   93.438">  2  7  1 -1</clus>
<clus scale="   67.525">  2  5  1 -1</clus>
</clustering>
</event>
<event>
 9    1  0.1610296E-005  0.9600802E+02  0.7546771E-02  0.1289172E+00
         21   -1    0    0  501  502  0.00000000000E+00  0.00000000000E+00  0.23425779146E+02  0.23425779146E+02  0.00000000000E+00 0.  1.
          3   -1    0    0  502    0 -0.00000000000E+00 -0.00000000000E+00 -0.50731276297E+03  0.50731276297E+03  0.00000000000E+00 0. -1.
         23    2    1    2    0    0  0.22539340459E+02  0.41970572314E+01 -0.22203339427E+03  0.24101575304E+03  0.90907248800E+02 0.  0.
         23    2    1    2    0    0 -0.36145404201E+02  0.11853992147E+02 -0.23884858628E+03  0.25854601354E+03  0.91380449654E+02 0.  0.
        -11    1    3    3    0    0 -0.20300992082E+02  0.22862215251E+02 -0.28080856004E+02  0.41513198379E+02  0.00000000000E+00 0.  1.
         11    1    3    3    0    0  0.42840332542E+02 -0.18665158020E+02 -0.19395253827E+03  0.19950255466E+03  0.00000000000E+00 0. -1.
        -11    1    4    4    0    0  0.19322680620E+02 -0.15947120244E+02 -0.23186885773E+02  0.34136612343E+02  0.00000000000E+00 0. -1.
         11    1    4    4    0    0 -0.55468084820E+02  0.27801112391E+02 -0.21566170050E+03  0.22440940120E+03  0.00000000000E+00 0.  1.
          3    1    1    2  501    0  0.13606063741E+02 -0.16051049379E+02 -0.23005003273E+02  0.31176775527E+02  0.00000000000E+00 0. -1.
<scales pt_clust_5="13000.00000" pt_clust_6="13000.00000" pt_clust_7="13000.00000" pt_clust_8="13000.00000" pt_clust_9="21.04189"></scales>
<clustering>
<clus scale="   21.042">  1  9  2 -1</clus>
<clus scale="   90.907">  5  6 -1 -1</clus>
<clus scale="   91.380">  7  8 -1 -1</clus>
<clus scale="   95.558">  2  5  1 -1</clus>
<clus scale="   21.042">  1  5  2 -1</clus>
</clustering>
</event>
<event>
 9    1  0.1610296E-005  0.1503870E+03  0.7546771E-02  0.1200558E+00
          1   -1    0    0  502    0 -0.00000000000E+00  0.00000000000E+00  0.16696002008E+03  0.16696002008E+03  0.00000000000E+00 0. -1.
         21   -1    0    0  501  502  0.00000000000E+00 -0.00000000000E+00 -0.33529985981E+03  0.33529985981E+03  0.00000000000E+00 0. -1.
         23    2    1    2    0    0 -0.88731727789E+02  0.78087680749E+02  0.96655663169E+02  0.17735506980E+03  0.90230250796E+02 0.  0.
         23    2    1    2    0    0  0.65577701575E+02 -0.10158044699E+03 -0.23553480322E+03  0.28067866601E+03  0.93192531207E+02 0.  0.
        -11    1    3    3    0    0 -0.25803600521E+02  0.70126191944E+02  0.19026319346E+02  0.77107129529E+02  0.00000000000E+00 0.  1.
         11    1    3    3    0    0 -0.62928127267E+02  0.79614888051E+01  0.77629343823E+02  0.10024794027E+03  0.00000000000E+00 0. -1.
        -11    1    4    4    0    0  0.33031187015E+02  0.99486366347E+01 -0.36543706454E+02  0.50254125879E+02  0.00000000000E+00 0.  1.
         11    1    4    4    0    0  0.32546514560E+02 -0.11152908362E+03 -0.19899109676E+03  0.23042454013E+03  0.00000000000E+00 0. -1.
          1    1    1    2  501    0  0.23154026214E+02  0.23492766238E+02 -0.29460699679E+02  0.44226144089E+02  0.00000000000E+00 0. -1.
<scales pt_clust_5="13000.00000" pt_clust_6="13000.00000" pt_clust_7="13000.00000" pt_clust_8="13000.00000" pt_clust_9="32.98513"></scales>
<clustering>
<clus scale="   32.985">  2  9  1 -1</clus>
<clus scale="   90.230">  5  6 -1 -1</clus>
<clus scale="   93.193">  7  8 -1 -1</clus>
<clus scale="  148.570">  1  5  2 -1</clus>
<clus scale="   32.985">  2  5  1 -1</clus>
</clustering>
</event>
<event>
 9    1  0.1610296E-005  0.1406538E+03  0.7546771E-02  0.1212693E+00
         -2   -1    0    0    0  501 -0.00000000000E+00  0.00000000000E+00  0.47157577494E+03  0.47157577494E+03  0.00000000000E+00 0.  1.
         21   -1    0    0  501  502  0.00000000000E+00 -0.00000000000E+00 -0.22355125178E+03  0.22355125178E+03  0.00000000000E+00 0.  1.
         23    2    1    2    0    0 -0.81164624334E+02 -0.81957191411E+02  0.28094303741E+03  0.31647875790E+03  0.89023235524E+02 0.  0.
         23    2    1    2    0    0  0.85430266552E+02  0.50350182665E+02  0.14525984284E+03  0.19763797729E+03  0.90149191823E+02 0.  0.
        -11    1    3    3    0    0 -0.11689854983E+02 -0.72160554691E+02  0.11441888463E+03  0.13577731594E+03  0.00000000000E+00 0. -1.
         11    1    3    3    0    0 -0.69474769351E+02 -0.97966367195E+01  0.16652415278E+03  0.18070144196E+03  0.00000000000E+00 0.  1.
        -11    1    4    4    0    0  0.59566197160E+02  0.34633028166E+02  0.24477208071E+02  0.73121215793E+02  0.00000000000E+00 0. -1.
         11    1    4    4    0    0  0.25864069392E+02  0.15717154499E+02  0.12078263477E+03  0.12451676149E+03  0.00000000000E+00 0.  1.
         -2    1    1    2    0  502 -0.42656422186E+01  0.31607008746E+02 -0.17817835709E+03  0.18101029153E+03  0.00000000000E+00 0.  1.
<scales pt_clust_5="13000.00000" pt_clust_6="13000.00000" pt_clust_7="13000.00000" pt_clust_8="13000.00000" pt_clust_9="31.89355"></scales>
<clustering>
<clus scale="   31.894">  2  9  1 -1</clus>
<clus scale="   89.023">  5  6 -1 -1</clus>
<clus scale="   90.149">  7  8 -1 -1</clus>
<clus scale="  139.935">  1  5  2 -1</clus>
<clus scale="   31.894">  2  5  1 -1</clus>
</clustering>
</event>
<event>
 9    1  0.1610296E-005  0.1282780E+03  0.7546771E-02  0.1241322E+00
          2   -1    0    0  502    0 -0.00000000000E+00  0.00000000000E+00  0.72081934423E+03  0.72081934423E+03  0.00000000000E+00 0. -1.
         21   -1    0    0  501  502  0.00000000000E+00 -0.00000000000E+00 -0.45171929643E+02  0.45171929643E+02  0.00000000000E+00 0. -1.
         23    2    1    2    0    0 -0.45374854993E+02 -0.14523772885E+02  0.37901236963E+03  0.39245325231E+03  0.89996452560E+02 0.  0.
         23    2    1    2    0    0 -0.16896859732E+02 -0.75101415990E+02  0.17250144915E+03  0.20825163210E+03  0.87671350837E+02 0.  0.
        -13    1    3    3    0    0 -0.19621565881E+01  0.30664379361E+02  0.60728350504E+02  0.68059435606E+02  0.00000000000E+00 0.  1.
         13    1    3    3    0    0 -0.43412698404E+02 -0.45188152245E+02  0.31828401913E+03  0.32439381671E+03  0.00000000000E+00 0. -1.
        -13    1    4    4    0    0 -0.24810934048E+02  0.13129484272E+02  0.40112119685E+02  0.48958635103E+02  0.00000000000E+00 0.  1.
         13    1    4    4    0    0  0.79140743164E+01 -0.88230900262E+02  0.13238932947E+03  0.15929299699E+03  0.00000000000E+00 0. -1.
          2    1    1    2  501    0  0.62271714724E+02  0.89625188874E+02  0.12413359580E+03  0.16528638947E+03  0.00000000000E+00 0. -1.
<scales pt_clust_5="13000.00000" pt_clust_6="13000.00000" pt_clust_7="13000.00000" pt_clust_8="13000.00000" pt_clust_9="93.64286"></scales>
<clustering>
<clus scale="   87.671">  7  8 -1 -1</clus>
<clus scale="   89.996">  5  6 -1 -1</clus>
<clus scale="  101.829">  1  5  2 -1</clus>
<clus scale="   93.643">  2  9  1 -1</clus>
<clus scale="   93.643">  2  5  1 -1</clus>
</clustering>
</event>
<event>
 9    1  0.1610296E-005  0.1508133E+03  0.7546771E-02  0.1199500E+00
         21   -1    0    0  501  502  0.00000000000E+00  0.00000000000E+00  0.81339852419E+02  0.81339852419E+02  0.00000000000E+00 0.  1.
          1   -1    0    0  502    0 -0.00000000000E+00 -0.00000000000E+00 -0.69133983466E+03  0.69133983466E+03  0.00000000000E+00 0. -1.
         23    2    1    2    0    0  0.89225243101E+02  0.62326177615E+02 -0.34823164356E+03  0.37608037152E+03  0.91244023621E+02 0.  0.
         23    2    1    2    0    0 -0.77520342712E+02 -0.12412240711E+03 -0.28201063660E+03  0.33052716334E+03  0.91117677017E+02 0.  0.
        -11    1    4    4    0    0 -0.53400312186E+02 -0.88193191058E+01 -0.10036166051E+03  0.11402559639E+03  0.00000000000E+00 0. -1.
         11    1    4    4    0    0 -0.24120030526E+02 -0.11530308801E+03 -0.18164897609E+03  0.21650156695E+03  0.00000000000E+00 0.  1.
        -13    1    3    3    0    0  0.58596082910E+02 -0.11783289352E+02 -0.11781634963E+03  0.13210995072E+03  0.00000000000E+00 0.  1.
         13    1    3    3    0    0  0.30629160191E+02  0.74109466967E+02 -0.23041529393E+03  0.24397042080E+03  0.00000000000E+00 0. -1.
          1    1    1    2  501    0 -0.11704900389E+02  0.61796229497E+02  0.20242297924E+02  0.66072152216E+02  0.00000000000E+00 0. -1.
<scales pt_clust_5="13000.00000" pt_clust_6="13000.00000" pt_clust_7="13000.00000" pt_clust_8="13000.00000" pt_clust_9="62.89498"></scales>
<clustering>
<clus scale="   62.895">  1  9  2 -1</clus>
<clus scale="   91.118">  5  6 -1 -1</clus>
<clus scale="   91.244">  7  8 -1 -1</clus>
<clus scale="  150.737">  1  5  2 -1</clus>
<clus scale="   62.895">  1  5  2 -1</clus>
</clustering>
</event>
<event>
 9    1  0.1610296E-005  0.5630220E+03  0.7546771E-02  0.1057509E+00
         21   -1    0    0  501  502  0.00000000000E+00  0.00000000000E+00  0.34512971333E+03  0.34512971333E+03  0.00000000000E+00 0. -1.
          1   -1    0    0  502    0 -0.00000000000E+00 -0.00000000000E+00 -0.12356667199E+04  0.12356667199E+04  0.00000000000E+00 0. -1.
         23    2    1    2    0    0 -0.17279677322E+02 -0.17459332142E+02 -0.29732806193E+03  0.31274858656E+03  0.93831159321E+02 0.  0.
         23    2    1    2    0    0 -0.10081059252E+03 -0.53467984375E+03 -0.34612662540E+03  0.65172597145E+03  0.94328098475E+02 0.  0.
        -13    1    4    4    0    0  0.25452394548E+01 -0.47379238260E+02 -0.44262169016E+01  0.47653560811E+02  0.00000000000E+00 0.  1.
         13    1    4    4    0    0 -0.10335583198E+03 -0.48730060549E+03 -0.34170040850E+03  0.60407241063E+03  0.00000000000E+00 0. -1.
        -13    1    3    3    0    0  0.27435876282E+02 -0.38711248763E+02 -0.14980846718E+03  0.15714281698E+03  0.00000000000E+00 0. -1.
         13    1    3    3    0    0 -0.44715553604E+02  0.21251916620E+02 -0.14751959474E+03  0.15560576958E+03  0.00000000000E+00 0.  1.
          1    1    1    2  501    0  0.11809026985E+03  0.55213917590E+03 -0.24708231924E+03  0.61632187522E+03  0.00000000000E+00 0. -1.
<scales pt_clust_5="13000.00000" pt_clust_6="13000.00000" pt_clust_7="13000.00000" pt_clust_8="13000.00000" pt_clust_9="555.06399"></scales>
<clustering>
<clus scale="   93.831">  7  8 -1 -1</clus>
<clus scale="   94.328">  5  6 -1 -1</clus>
<clus scale="   96.993">  2  7  1 -1</clus>
<clus scale="  555.064">  1  9  2 -1</clus>
<clus scale="  555.064">  1  5  2 -1</clus>
</clustering>
</event>
<event>
 9    1  0.1610296E-005  0.9965171E+02  0.7546771E-02  0.1281198E+00
          2   -1    0    0  502    0 -0.00000000000E+00  0.00000000000E+00  0.56698638308E+03  0.56698638308E+03  0.00000000000E+00 0. -1.
         21   -1    0    0  501  502  0.00000000000E+00 -0.00000000000E+00 -0.36869513969E+03  0.36869513969E+03  0.00000000000E+00 0. -1.
         23    2    1    2    0    0 -0.35482612471E+02 -0.19046469961E+02  0.53476221756E+03  0.54413639349E+03  0.92152056841E+02 0.  0.
         23    2    1    2    0    0  0.40637799602E+01 -0.22185821278E+02 -0.63947099942E+02  0.11413477097E+03  0.91808438504E+02 0.  0.
        -11    1    3    3    0    0 -0.50547683500E+02 -0.46496918959E+02  0.39311381817E+03  0.39906829719E+03  0.00000000000E+00 0. -1.
         11    1    3    3    0    0  0.15065071028E+02  0.27450448998E+02  0.14164839939E+03  0.14506809630E+03  0.00000000000E+00 0.  1.
        -13    1    4    4    0    0  0.43212169992E+02  0.71795699132E+01 -0.19216084058E+02  0.47834043798E+02  0.00000000000E+00 0.  1.
         13    1    4    4    0    0 -0.39148390031E+02 -0.29365391191E+02 -0.44731015884E+02  0.66300727174E+02  0.00000000000E+00 0. -1.
          2    1    1    2  501    0  0.31418832511E+02  0.41232291239E+02 -0.27252387422E+03  0.27741035831E+03  0.00000000000E+00 0. -1.
<scales pt_clust_5="13000.00000" pt_clust_6="13000.00000" pt_clust_7="13000.00000" pt_clust_8="13000.00000" pt_clust_9="51.83864"></scales>
<clustering>
<clus scale="   51.839">  2  9  1 -1</clus>
<clus scale="   91.808">  7  8 -1 -1</clus>
<clus scale="   92.152">  5  6 -1 -1</clus>
<clus scale="   99.334">  2  7  1 -1</clus>
<clus scale="   51.839">  2  5  1 -1</clus>
</clustering>
</event>
<event>
 9    1  0.1610296E-005  0.9354622E+02  0.7546771E-02  0.1295549E+00
         21   -1    0    0  501  502  0.00000000000E+00  0.00000000000E+00  0.56111559277E+02  0.56111559277E+02  0.00000000000E+00 0. -1.
         -3   -1    0    0    0  501 -0.00000000000E+00 -0.00000000000E+00 -0.58810207941E+03  0.58810207941E+03  0.00000000000E+00 0.  1.
         23    2    1    2    0    0  0.84371894604E+01 -0.24130775845E+02 -0.25858593337E+03  0.27529737619E+03  0.90931182172E+02 0.  0.
         23    2    1    2    0    0 -0.63420622974E+02 -0.42203199094E+02 -0.46269702060E+02  0.12598905109E+03  0.89045326851E+02 0.  0.
        -11    1    3    3    0    0  0.31472981790E+02  0.10801749637E+02 -0.36860458261E+02  0.49658028165E+02  0.00000000000E+00 0.  1.
         11    1    3    3    0    0 -0.23035792330E+02 -0.34932525482E+02 -0.22172547511E+03  0.22563934803E+03  0.00000000000E+00 0. -1.
        -11    1    4    4    0    0 -0.83964128938E+02 -0.46651329097E+02 -0.35820536422E+02  0.10251552216E+03  0.00000000000E+00 0. -1.
         11    1    4    4    0    0  0.20543505964E+02  0.44481300032E+01 -0.10449165638E+02  0.23473528929E+02  0.00000000000E+00 0.  1.
         -3    1    1    2    0  502  0.54983433513E+02  0.66333974938E+02 -0.22713488470E+03  0.24292721140E+03  0.00000000000E+00 0.  1.
<scales pt_clust_5="13000.00000" pt_clust_6="13000.00000" pt_clust_7="13000.00000" pt_clust_8="13000.00000" pt_clust_9="86.15905"></scales>
<clustering>
<clus scale="   86.159">  1  9  2 -1</clus>
<clus scale="   89.045">  7  8 -1 -1</clus>
<clus scale="   90.931">  5  6 -1 -1</clus>
<clus scale="   91.714">  1  7  2 -1</clus>
<clus scale="   86.159">  1  5  2 -1</clus>
</clustering>
</event>
<event>
 9    1  0.1610296E-005  0.1366387E+03  0.7546771E-02  0.1220038E+00
          2   -1    0    0  502    0 -0.00000000000E+00  0.00000000000E+00  0.30978430861E+03  0.30978430861E+03  0.00000000000E+00 0. -1.
         21   -1    0    0  501  502  0.00000000000E+00 -0.00000000000E+00 -0.30908628208E+03  0.30908628208E+03  0.00000000000E+00 0. -1.
         23    2    1    2    0    0  0.95843954565E+02 -0.71077257407E+02  0.19266512047E+03  0.24508662681E+03  0.93325054780E+02 0.  0.
         23    2    1    2    0    0 -0.78458262480E+02  0.79854942896E+01  0.47980884499E+02  0.12507154919E+03  0.84387558735E+02 0.  0.
        -13    1    4    4    0    0 -0.78095182315E+02  0.34894598739E+02  0.48153765718E+02  0.98159440069E+02  0.00000000000E+00 0.  1.
         13    1    4    4    0    0 -0.36308016534E+00 -0.26909104449E+02 -0.17288121858E+00  0.26912109122E+02  0.00000000000E+00 0. -1.
        -13    1    3    3    0    0  0.39160655824E+02 -0.13888978006E+02  0.62412888653E+01  0.42016834261E+02  0.00000000000E+00 0.  1.
         13    1    3    3    0    0  0.56683298741E+02 -0.57188279401E+02  0.18642383160E+03  0.20306979255E+03  0.00000000000E+00 0. -1.
          2    1    1    2  501    0 -0.17385692084E+02  0.63091763118E+02 -0.23994797844E+03  0.24871241468E+03  0.00000000000E+00 0. -1.
<scales pt_clust_5="13000.00000" pt_clust_6="13000.00000" pt_clust_7="13000.00000" pt_clust_8="13000.00000" pt_clust_9="65.44336"></scales>
<clustering>
<clus scale="   65.443">  2  9  1 -1</clus>
<clus scale="   84.388">  5  6 -1 -1</clus>
<clus scale="   93.325">  7  8 -1 -1</clus>
<clus scale="  130.697">  2  5  1 -1</clus>
<clus scale="   65.443">  2  5  1 -1</clus>
</clustering>
</event>
<event>
 9    1  0.1610296E-005  0.1114744E+03  0.7546771E-02  0.1258202E+00
          3   -1    0    0  502    0 -0.00000000000E+00  0.00000000000E+00  0.20121477443E+03  0.20121477443E+03  0.00000000000E+00 0. -1.
         21   -1    0    0  501  502  0.00000000000E+00 -0.00000000000E+00 -0.12561193050E+03  0.12561193050E+03  0.00000000000E+00 0. -1.
         23    2    1    2    0    0  0.29108795465E+02  0.43069622774E+02  0.87512676854E+02  0.13734630298E+03  0.92212927251E+02 0.  0.
         23    2    1    2    0    0 -0.53073157757E+02 -0.62405494435E+02  0.40078146386E+02  0.12905758684E+03  0.91314824066E+02 0.  0.
        -11    1    4    4    0    0  0.23343344512E+02 -0.28629160556E+02  0.23786668229E+02  0.43935704758E+02  0.00000000000E+00 0. -1.
         11    1    4    4    0    0 -0.76416502269E+02 -0.33776333879E+02  0.16291478157E+02  0.85121882086E+02  0.00000000000E+00 0.  1.
        -11    1    3    3    0    0  0.29673095085E+02  0.16273229871E+02  0.10158525963E+03  0.10707415914E+03  0.00000000000E+00 0. -1.
         11    1    3    3    0    0 -0.56429962072E+00  0.26796392903E+02 -0.14072582772E+02  0.30272143837E+02  0.00000000000E+00 0.  1.
          3    1    1    2  501    0  0.23964362292E+02  0.19335871661E+02 -0.51987979306E+02  0.60422815105E+02  0.00000000000E+00 0. -1.
<scales pt_clust_5="13000.00000" pt_clust_6="13000.00000" pt_clust_7="13000.00000" pt_clust_8="13000.00000" pt_clust_9="30.79231"></scales>
<clustering>
<clus scale="   30.792">  2  9  1 -1</clus>
<clus scale="   91.315">  5  6 -1 -1</clus>
<clus scale="   92.213">  7  8 -1 -1</clus>
<clus scale="  110.733">  2  5  1 -1</clus>
<clus scale="   30.792">  2  5  1 -1</clus>
</clustering>
</event>
<event>
 9    1  0.1610296E-005  0.9514569E+02  0.7546771E-02  0.1291702E+00
          2   -1    0    0  502    0 -0.00000000000E+00  0.00000000000E+00  0.73380804217E+03  0.73380804217E+03  0.00000000000E+00 0. -1.
         21   -1    0    0  501  502  0.00000000000E+00 -0.00000000000E+00 -0.18403651985E+02  0.18403651985E+02  0.00000000000E+00 0.  1.
         23    2    1    2    0    0 -0.24969207889E+02 -0.10221320745E+02  0.46198521971E+03  0.47172496719E+03  0.91466740931E+02 0.  0.
         23    2    1    2    0    0  0.82587627647E+01 -0.10084328143E+02  0.19838133226E+03  0.21948900580E+03  0.93007364434E+02 0.  0.
        -11    1    3    3    0    0  0.77889271837E+01  0.36697850302E+02  0.20993231517E+03  0.21325800467E+03  0.00000000000E+00 0.  1.
         11    1    3    3    0    0 -0.32758135073E+02 -0.46919171048E+02  0.25205290454E+03  0.25846696251E+03  0.00000000000E+00 0. -1.
        -11    1    4    4    0    0 -0.23317413604E+02 -0.41700652098E+02  0.83171910640E+02  0.95917740184E+02  0.00000000000E+00 0. -1.
         11    1    4    4    0    0  0.31576176368E+02  0.31616323955E+02  0.11520942162E+03  0.12357126561E+03  0.00000000000E+00 0.  1.
          2    1    1    2  501    0  0.16710445124E+02  0.20305648888E+02  0.55037838207E+02  0.60997721166E+02  0.00000000000E+00 0. -1.
<scales pt_clust_5="13000.00000" pt_clust_6="13000.00000" pt_clust_7="13000.00000" pt_clust_8="13000.00000" pt_clust_9="26.29750"></scales>
<clustering>
<clus scale="   26.297">  2  9  1 -1</clus>
<clus scale="   91.467">  5  6 -1 -1</clus>
<clus scale="   93.007">  7  8 -1 -1</clus>
<clus scale="   93.640">  1  5  2 -1</clus>
<clus scale="   26.297">  2  5  1 -1</clus>
</clustering>
</event>
<event>
 9    1  0.1610296E-005  0.1298124E+03  0.7546771E-02  0.1228241E+00
         21   -1    0    0  501  502  0.00000000000E+00  0.00000000000E+00  0.65910933661E+03  0.65910933661E+03  0.00000000000E+00 0.  1.
          2   -1    0    0  502    0 -0.00000000000E+00 -0.00000000000E+00 -0.44390323237E+02  0.44390323237E+02  0.00000000000E+00 0.  1.
         23    2    1    2    0    0 -0.10944073475E+03  0.36798480582E+01  0.19060323606E+03  0.23866887569E+03  0.92964632642E+02 0.  0.
         23    2    1    2    0    0  0.59510926073E+02  0.45065666614E+02  0.30264199469E+03  0.32474155951E+03  0.91062829393E+02 0.  0.
        -11    1    4    4    0    0  0.31235434085E+02 -0.18699022901E+02  0.45308225884E+02  0.58121778471E+02  0.00000000000E+00 0. -1.
         11    1    4    4    0    0  0.28275491988E+02  0.63764689515E+02  0.25733376880E+03  0.26661978104E+03  0.00000000000E+00 0.  1.
        -13    1    3    3    0    0 -0.43646452975E+02  0.19404617936E+02  0.15506430999E+03  0.16225440606E+03  0.00000000000E+00 0. -1.
         13    1    3    3    0    0 -0.65794281777E+02 -0.15724769878E+02  0.35538926071E+02  0.76414469628E+02  0.00000000000E+00 0.  1.
          2    1    1    2  501    0  0.49929808679E+02 -0.48745514672E+02  0.12147378263E+03  0.14008922464E+03  0.00000000000E+00 0.  1.
<scales pt_clust_5="13000.00000" pt_clust_6="13000.00000" pt_clust_7="13000.00000" pt_clust_8="13000.00000" pt_clust_9="69.77905"></scales>
<clustering>
<clus scale="   69.779">  1  9  2 -1</clus>
<clus scale="   91.063">  5  6 -1 -1</clus>
<clus scale="   92.965">  7  8 -1 -1</clus>
<clus scale="  128.457">  1  5  2 -1</clus>
<clus scale="   69.779">  1  5  2 -1</clus>
</clustering>
</event>
<event>
 9    1  0.1610296E-005  0.1188496E+03  0.7546771E-02  0.1245765E+00
         21   -1    0    0  501  502  0.00000000000E+00  0.00000000000E+00  0.65269133692E+02  0.65269133692E+02  0.00000000000E+00 0. -1.
          3   -1    0    0  502    0 -0.00000000000E+00 -0.00000000000E+00 -0.65330173098E+03  0.65330173098E+03  0.00000000000E+00 0. -1.
         23    2    1    2    0    0  0.76565876211E+02 -0.54012767680E+02 -0.45156756484E+03  0.47066918363E+03  0.94002671907E+02 0.  0.
         23    2    1    2    0    0 -0.39518101620E+02  0.13882478580E+02 -0.15944189744E+03  0.18864871462E+03  0.91718129611E+02 0.  0.
        -11    1    3    3    0    0  0.79660146682E+02 -0.36469325599E+01 -0.23012012241E+03  0.24354529317E+03  0.00000000000E+00 0. -1.
         11    1    3    3    0    0 -0.30942704707E+01 -0.50365835120E+02 -0.22144744243E+03  0.22712389045E+03  0.00000000000E+00 0.  1.
        -13    1    4    4    0    0  0.71131907150E+01  0.27845245347E+02 -0.12685805730E+03  0.13007275608E+03  0.00000000000E+00 0.  1.
         13    1    4    4    0    0 -0.46631292335E+02 -0.13962766767E+02 -0.32583840138E+02  0.58575958539E+02  0.00000000000E+00 0. -1.
          3    1    1    2  501    0 -0.37047774591E+02  0.40130289100E+02  0.22976864998E+02  0.59252966428E+02  0.00000000000E+00 0. -1.
<scales pt_clust_5="13000.00000" pt_clust_6="13000.00000" pt_clust_7="13000.00000" pt_clust_8="13000.00000" pt_clust_9="54.61664"></scales>
<clustering>
<clus scale="   54.617">  1  9  2 -1</clus>
<clus scale="   91.718">  7  8 -1 -1</clus>
<clus scale="   94.003">  5  6 -1 -1</clus>
<clus scale="  117.051">  1  7  2 -1</clus>
<clus scale="   54.617">  1  5  2 -1</clus>
</clustering>
</event>
<event>
 9    1  0.1610296E-005  0.1064245E+03  0.7546771E-02  0.1267556E+00
          2   -1    0    0  502    0 -0.00000000000E+00  0.00000000000E+00  0.10269972009E+03  0.10269972009E+03  0.00000000000E+00 0. -1.
         21   -1    0    0  501  502  0.00000000000E+00 -0.00000000000E+00 -0.22990477170E+03  0.22990477170E+03  0.00000000000E+00 0. -1.
         23    2    1    2    0    0  0.62062199284E+02 -0.37190147522E+02  0.40961569495E+01  0.11619607793E+03  0.90829105309E+02 0.  0.
         23    2    1    2    0    0 -0.17131320307E+02  0.37039769323E+02 -0.26798649030E+02  0.10265608885E+03  0.90303257640E+02 0.  0.
        -13    1    4    4    0    0 -0.32505859041E+02 -0.19565543266E+02 -0.21873123584E+02  0.43793548504E+02  0.00000000000E+00 0.  1.
         13    1    4    4    0    0  0.15374538734E+02  0.56605312589E+02 -0.49255254464E+01  0.58862540342E+02  0.00000000000E+00 0. -1.
        -13    1    3    3    0    0 -0.23548417631E+02 -0.97081647501E+01 -0.45261423145E+01  0.25870106300E+02  0.00000000000E+00 0.  1.
         13    1    3    3    0    0  0.85610616915E+02 -0.27481982772E+02  0.86222992640E+01  0.90325971626E+02  0.00000000000E+00 0. -1.
          2    1    1    2  501    0 -0.44930878976E+02  0.15037819888E+00 -0.10450255953E+03  0.11375232502E+03  0.00000000000E+00 0. -1.
<scales pt_clust_5="13000.00000" pt_clust_6="13000.00000" pt_clust_7="13000.00000" pt_clust_8="13000.00000" pt_clust_9="44.93113"></scales>
<clustering>
<clus scale="   44.931">  2  9  1 -1</clus>
<clus scale="   90.303">  5  6 -1 -1</clus>
<clus scale="   90.829">  7  8 -1 -1</clus>
<clus scale="  105.976">  2  5  1 -1</clus>
<clus scale="   44.931">  2  5  1 -1</clus>
</clustering>
</event>
<event>
 9    1  0.1610296E-005  0.1032386E+03  0.7546771E-02  0.1274704E+00
          1   -1    0    0  502    0 -0.00000000000E+00  0.00000000000E+00  0.46138770358E+03  0.46138770358E+03  0.00000000000E+00 0. -1.
         21   -1    0    0  501  502  0.00000000000E+00 -0.00000000000E+00 -0.61824416179E+02  0.61824416179E+02  0.00000000000E+00 0.  1.
         23    2    1    2    0    0 -0.44527850761E+02  0.25028986515E+02  0.33312797860E+03  0.34916202042E+03  0.91272595665E+02 0.  0.
         23    2    1    2    0    0  0.29777659079E+02  0.11069753096E+02  0.85452357371E+02  0.13066421116E+03  0.93604392444E+02 0.  0.
        -13    1    3    3    0    0  0.74691715800E+01  0.42144187668E+02  0.86226635116E+02  0.96265017954E+02  0.00000000000E+00 0.  1.
         13    1    3    3    0    0 -0.51997022341E+02 -0.17115201153E+02  0.24690134349E+03  0.25289700247E+03  0.00000000000E+00 0. -1.
        -13    1    4    4    0    0  0.53383324313E+02 -0.22390224849E+02  0.49082632596E+02  0.75896022993E+02  0.00000000000E+00 0.  1.
         13    1    4    4    0    0 -0.23605665235E+02  0.33459977945E+02  0.36369724775E+02  0.54768188170E+02  0.00000000000E+00 0. -1.
          1    1    1    2  501    0  0.14750191682E+02 -0.36098739611E+02 -0.19017048572E+02  0.43385888173E+02  0.00000000000E+00 0. -1.
<scales pt_clust_5="13000.00000" pt_clust_6="13000.00000" pt_clust_7="13000.00000" pt_clust_8="13000.00000" pt_clust_9="38.99599"></scales>
<clustering>
<clus scale="   38.996">  2  9  1 -1</clus>
<clus scale="   91.273">  5  6 -1 -1</clus>
<clus scale="   93.604">  7  8 -1 -1</clus>
<clus scale="  101.129">  1  5  2 -1</clus>
<clus scale="   38.996">  2  5  1 -1</clus>
</clustering>
</event>
<event>
 9    1  0.1610296E-005  0.1249319E+03  0.7546771E-02  0.1235755E+00
         21   -1    0    0  501  502  0.00000000000E+00  0.00000000000E+00  0.32753511794E+03  0.32753511794E+03  0.00000000000E+00 0. -1.
          4   -1    0    0  502    0 -0.00000000000E+00 -0.00000000000E+00 -0.10677515443E+03  0.10677515443E+03  0.00000000000E+00 0. -1.
         23    2    1    2    0    0 -0.36361268824E+02 -0.75510667089E+02 -0.31819455833E+02  0.12919025872E+03  0.93024956138E+02 0.  0.
         23    2    1    2    0    0  0.60236639986E+02  0.60828694195E+02  0.13381352734E+03  0.18309161213E+03  0.91037879472E+02 0.  0.
        -11    1    4    4    0    0 -0.79166985819E+01  0.33230877668E+02  0.92821684461E+02  0.98908192042E+02  0.00000000000E+00 0.  1.
         11    1    4    4    0    0  0.68153338567E+02  0.27597816527E+02  0.40991842881E+02  0.84183420088E+02  0.00000000000E+00 0. -1.
        -11    1    3    3    0    0 -0.33365531250E+02  0.46244846838E+00  0.18365709673E+02  0.38088998753E+02  0.00000000000E+00 0.  1.
         11    1    3    3    0    0 -0.29957375738E+01 -0.75973115557E+02 -0.50185165506E+02  0.91101259969E+02  0.00000000000E+00 0. -1.
          4    1    1    2  501    0 -0.23875371161E+02  0.14681972894E+02  0.11876589199E+03  0.12202840152E+03  0.00000000000E+00 0. -1.
<scales pt_clust_5="13000.00000" pt_clust_6="13000.00000" pt_clust_7="13000.00000" pt_clust_8="13000.00000" pt_clust_9="28.02844"></scales>
<clustering>
<clus scale="   28.028">  1  9  2 -1</clus>
<clus scale="   91.038">  5  6 -1 -1</clus>
<clus scale="   93.025">  7  8 -1 -1</clus>
<clus scale="  123.459">  1  5  2 -1</clus>
<clus scale="   28.028">  1  5  2 -1</clus>
</clustering>
</event>
<event>
 9    1  0.1610296E-005  0.9389487E+02  0.7546771E-02  0.1293686E+00
          1   -1    0    0  502    0 -0.00000000000E+00  0.00000000000E+00  0.78116045545E+02  0.78116045545E+02  0.00000000000E+00 0. -1.
         21   -1    0    0  501  502  0.00000000000E+00 -0.00000000000E+00 -0.20491297834E+03  0.20491297834E+03  0.00000000000E+00 0. -1.
         23    2    1    2    0    0  0.26665053143E+01  0.24544838124E+02  0.17925168592E+02  0.95780501538E+02  0.90791153075E+02 0.  0.
         23    2    1    2    0    0  0.19273211945E+02 -0.21398033938E+02 -0.10504369243E+03  0.14179932315E+03  0.90793932465E+02 0.  0.
        -11    1    3    3    0    0 -0.16199653429E+02 -0.31089765159E+02  0.10315474068E+02  0.36543279465E+02  0.00000000000E+00 0.  1.
         11    1    3    3    0    0  0.18866158743E+02  0.55634603283E+02  0.76096945242E+01  0.59237222073E+02  0.00000000000E+00 0. -1.
        -13    1    4    4    0    0  0.39619040452E+02 -0.35879311270E+02 -0.10384933242E+03  0.11679759068E+03  0.00000000000E+00 0. -1.
         13    1    4    4    0    0 -0.20345828507E+02  0.14481277332E+02 -0.11943600028E+01  0.25001732472E+02  0.00000000000E+00 0.  1.
          1    1    1    2  501    0 -0.21939717259E+02 -0.31468041854E+01 -0.39678408964E+02  0.45449199200E+02  0.00000000000E+00 0. -1.
<scales pt_clust_5="13000.00000" pt_clust_6="13000.00000" pt_clust_7="13000.00000" pt_clust_8="13000.00000" pt_clust_9="22.16424"></scales>
<clustering>
<clus scale="   22.164">  2  9  1 -1</clus>
<clus scale="   90.791">  5  6 -1 -1</clus>
<clus scale="   90.794">  7  8 -1 -1</clus>
<clus scale="   93.892">  1  5  2 -1</clus>
<clus scale="   22.164">  2  5  1 -1</clus>
</clustering>
</event>
<event>
 9    1  0.1610296E-005  0.1105013E+03  0.7546771E-02  0.1260395E+00
         21   -1    0    0  501  502  0.00000000000E+00  0.00000000000E+00  0.18463509697E+03  0.18463509697E+03  0.00000000000E+00 0. -1.
         -1   -1    0    0    0  501 -0.00000000000E+00 -0.00000000000E+00 -0.99695950769E+02  0.99695950769E+02  0.00000000000E+00 0.  1.
         23    2    1    2    0    0  0.35130907498E+02 -0.57915299379E+02 -0.24124479056E+02  0.11537371727E+03  0.90226058230E+02 0.  0.
         23    2    1    2    0    0 -0.23940414208E+02  0.39710991365E+02  0.70810059820E+02  0.12513999099E+03  0.92172916332E+02 0.  0.
        -11    1    4    4    0    0  0.29285861198E+02  0.39024062470E+00  0.45865933565E+02  0.54419645493E+02  0.00000000000E+00 0.  1.
         11    1    4    4    0    0 -0.53226275405E+02  0.39320750741E+02  0.24944126255E+02  0.70720345495E+02  0.00000000000E+00 0. -1.
        -11    1    3    3    0    0  0.41886278963E+01  0.22985300017E+02  0.51866666735E+01  0.23932616483E+02  0.00000000000E+00 0. -1.
         11    1    3    3    0    0  0.30942279602E+02 -0.80900599396E+02 -0.29311145729E+02  0.91441100789E+02  0.00000000000E+00 0.  1.
         -1    1    1    2    0  502 -0.11190493290E+02  0.18204308014E+02  0.38253565438E+02  0.43817339479E+02  0.00000000000E+00 0.  1.
<scales pt_clust_5="13000.00000" pt_clust_6="13000.00000" pt_clust_7="13000.00000" pt_clust_8="13000.00000" pt_clust_9="21.36876"></scales>
<clustering>
<clus scale="   21.369">  1  9  2 -1</clus>
<clus scale="   90.226">  7  8 -1 -1</clus>
<clus scale="   92.173">  5  6 -1 -1</clus>
<clus scale="  108.883">  2  7  1 -1</clus>
<clus scale="   21.369">  1  5  2 -1</clus>
</clustering>
</event>
<event>
 9    1  0.1610296E-005  0.1036609E+03  0.7546771E-02  0.1273010E+00
         21   -1    0    0  501  502  0.00000000000E+00  0.00000000000E+00  0.17526443438E+03  0.17526443438E+03  0.00000000000E+00 0.  1.
         -3   -1    0    0    0  501 -0.00000000000E+00 -0.00000000000E+00 -0.24525804889E+03  0.24525804889E+03  0.00000000000E+00 0.  1.
         23    2    1    2    0    0  0.35942862363E+02  0.33722556854E+02 -0.16598641343E+03  0.19665202746E+03  0.93227840607E+02 0.  0.
         23    2    1    2    0    0 -0.36932086143E+01 -0.42748889374E+02 -0.19159892049E+02  0.10394690897E+03  0.92718666348E+02 0.  0.
        -13    1    3    3    0    0 -0.22723841624E+02 -0.16591024821E+02 -0.42207097360E+02  0.50725478315E+02  0.00000000000E+00 0. -1.
         13    1    3    3    0    0  0.58666703988E+02  0.50313581675E+02 -0.12377931607E+03  0.14592654915E+03  0.00000000000E+00 0.  1.
        -13    1    4    4    0    0  0.35339300048E+02  0.68955922424E+01 -0.19179422726E+02  0.40795411217E+02  0.00000000000E+00 0.  1.
         13    1    4    4    0    0 -0.39032508663E+02 -0.49644481617E+02  0.19530676687E-01  0.63151497757E+02  0.00000000000E+00 0. -1.
         -3    1    1    2    0  502 -0.32249653749E+02  0.90263325205E+01  0.11515269098E+03  0.11992354683E+03  0.00000000000E+00 0.  1.
<scales pt_clust_5="13000.00000" pt_clust_6="13000.00000" pt_clust_7="13000.00000" pt_clust_8="13000.00000" pt_clust_9="33.48903"></scales>
<clustering>
<clus scale="   33.489">  1  9  2 -1</clus>
<clus scale="   92.719">  7  8 -1 -1</clus>
<clus scale="   93.228">  5  6 -1 -1</clus>
<clus scale="  103.203">  1  7  2 -1</clus>
<clus scale="   33.489">  1  5  2 -1</clus>
</clustering>
</event>
<event>
 9    1  0.1610296E-005  0.1328385E+03  0.7546771E-02  0.1224393E+00
          1   -1    0    0  502    0 -0.00000000000E+00  0.00000000000E+00  0.45729114172E+03  0.45729114172E+03  0.00000000000E+00 0. -1.
         21   -1    0    0  501  502  0.00000000000E+00 -0.00000000000E+00 -0.11170642129E+03  0.11170642129E+03  0.00000000000E+00 0. -1.
         23    2    1    2    0    0  0.19299312296E+01  0.10354100390E+03  0.34700872340E+03  0.37279007149E+03  0.88503780523E+02 0.  0.
         23    2    1    2    0    0 -0.20418260129E+02 -0.69070710850E+02  0.53236842691E+02  0.12899270552E+03  0.92829349961E+02 0.  0.
        -11    1    3    3    0    0 -0.10134860250E+02  0.52416722973E+02  0.29157195422E+03  0.29641935283E+03  0.00000000000E+00 0. -1.
         11    1    3    3    0    0  0.12064791480E+02  0.51124280924E+02  0.55436769176E+02  0.76370718670E+02  0.00000000000E+00 0.  1.
        -13    1    4    4    0    0 -0.38454739664E+02 -0.51521519280E+02 -0.60616042263E+01  0.64575359057E+02  0.00000000000E+00 0.  1.
         13    1    4    4    0    0  0.18036479536E+02 -0.17549191570E+02  0.59298446917E+02  0.64417346465E+02  0.00000000000E+00 0. -1.
          1    1    1    2  501    0  0.18488328899E+02 -0.34470293047E+02 -0.54660845659E+02  0.67214785995E+02  0.00000000000E+00 0. -1.
<scales pt_clust_5="13000.00000" pt_clust_6="13000.00000" pt_clust_7="13000.00000" pt_clust_8="13000.00000" pt_clust_9="39.11546"></scales>
<clustering>
<clus scale="   39.115">  2  9  1 -1</clus>
<clus scale="   88.504">  5  6 -1 -1</clus>
<clus scale="   92.829">  7  8 -1 -1</clus>
<clus scale="  129.853">  1  5  2 -1</clus>
<clus scale="   39.115">  2  5  1 -1</clus>
</clustering>
</event>
<event>
 9    1  0.1610296E-005  0.1132392E+03  0.7546771E-02  0.1254975E+00
         21   -1    0    0  501  502  0.00000000000E+00  0.00000000000E+00  0.76844315542E+02  0.76844315542E+02  0.00000000000E+00 0. -1.
          2   -1    0    0  502    0 -0.00000000000E+00 -0.00000000000E+00 -0.37549231933E+03  0.37549231933E+03  0.00000000000E+00 0. -1.
         23    2    1    2    0    0 -0.72410300968E+01 -0.40875451686E+02 -0.13869381585E+03  0.17124419373E+03  0.91462365276E+02 0.  0.
         23    2    1    2    0    0  0.51379926726E+02  0.98316108437E+02 -0.14973038112E+03  0.20793372690E+03  0.92256672962E+02 0.  0.
        -11    1    3    3    0    0  0.30445032482E+02 -0.40928117081E+02 -0.37645665632E+02  0.63397215329E+02  0.00000000000E+00 0. -1.
         11    1    3    3    0    0 -0.37686062579E+02  0.52665394849E-01 -0.10104815022E+03  0.10784697840E+03  0.00000000000E+00 0.  1.
        -13    1    4    4    0    0  0.39721938295E+02  0.11532908135E+03 -0.11558529341E+03  0.16804341534E+03  0.00000000000E+00 0. -1.
         13    1    4    4    0    0  0.11657988431E+02 -0.17012972918E+02 -0.34145087708E+02  0.39890311559E+02  0.00000000000E+00 0.  1.
          2    1    1    2  501    0 -0.44138896629E+02 -0.57440656751E+02 -0.10223806817E+02  0.73158714241E+02  0.00000000000E+00 0. -1.
<scales pt_clust_5="13000.00000" pt_clust_6="13000.00000" pt_clust_7="13000.00000" pt_clust_8="13000.00000" pt_clust_9="72.44081"></scales>
<clustering>
<clus scale="   72.441">  1  9  2 -1</clus>
<clus scale="   91.462">  5  6 -1 -1</clus>
<clus scale="   92.257">  7  8 -1 -1</clus>
<clus scale="  112.593">  2  5  1 -1</clus>
<clus scale="   72.441">  1  5  2 -1</clus>
</clustering>
</event>
<event>
 9    1  0.1610296E-005  0.1526045E+03  0.7546771E-02  0.1197456E+00
         21   -1    0    0  501  502  0.00000000000E+00  0.00000000000E+00  0.48226386637E+02  0.48226386637E+02  0.00000000000E+00 0. -1.
          2   -1    0    0  502    0 -0.00000000000E+00 -0.00000000000E+00 -0.77485111983E+03  0.77485111983E+03  0.00000000000E+00 0. -1.
         23    2    1    2    0    0 -0.10302477741E+03 -0.28934619422E+02 -0.32111529680E+03  0.35060570442E+03  0.91422148149E+02 0.  0.
         23    2    1    2    0    0  0.14243893150E+03 -0.30621606738E+01 -0.37885145420E+03  0.41513143674E+03  0.92235889916E+02 0.  0.
        -11    1    3    3    0    0 -0.20235234558E+02  0.31250234468E+02 -0.66950093230E+02  0.76605201229E+02  0.00000000000E+00 0.  1.
         11    1    3    3    0    0 -0.82789542853E+02 -0.60184853890E+02 -0.25416520357E+03  0.27400050319E+03  0.00000000000E+00 0. -1.
        -13    1    4    4    0    0  0.44070814089E+02  0.69712942486E+00 -0.31697781697E+02  0.54290625419E+02  0.00000000000E+00 0.  1.
         13    1    4    4    0    0  0.98368117407E+02 -0.37592900986E+01 -0.34715367250E+03  0.36084081132E+03  0.00000000000E+00 0. -1.
          2    1    1    2  501    0 -0.39414154084E+02  0.31996780096E+02 -0.26657982195E+02  0.57340365306E+02  0.00000000000E+00 0. -1.
<scales pt_clust_5="13000.00000" pt_clust_6="13000.00000" pt_clust_7="13000.00000" pt_clust_8="13000.00000" pt_clust_9="50.76681"></scales>
<clustering>
<clus scale="   50.767">  1  9  2 -1</clus>
<clus scale="   91.422">  5  6 -1 -1</clus>
<clus scale="   92.236">  7  8 -1 -1</clus>
<clus scale="  152.114">  2  5  1 -1</clus>
<clus scale="   50.767">  1  5  2 -1</clus>
</clustering>
</event>
<event>
 9    1  0.1610296E-005  0.1515622E+03  0.7546771E-02  0.1200389E+00
         21   -1    0    0  501  502  0.00000000000E+00  0.00000000000E+00  0.33910645124E+03  0.33910645124E+03  0.00000000000E+00 0. -1.
         -4   -1    0    0    0  501 -0.00000000000E+00 -0.00000000000E+00 -0.20341664959E+03  0.20341664959E+03  0.00000000000E+00 0.  1.
         23    2    1    2    0    0 -0.84372059900E+02 -0.83820451892E+02 -0.69798094628E+02  0.17067006174E+03  0.10055835776E+03 0.  0.
         23    2    1    2    0    0  0.55877535838E+02  0.93098794074E+02 -0.20902455469E+02  0.14348794346E+03  0.91445026126E+02 0.  0.
        -11    1    4    4    0    0  0.10941572537E+02  0.79617812950E+02 -0.43534108642E+02  0.91399851005E+02  0.00000000000E+00 0.  1.
         11    1    4    4    0    0  0.44935963301E+02  0.13480981125E+02  0.22631653173E+02  0.52088092451E+02  0.00000000000E+00 0. -1.
        -11    1    3    3    0    0  0.16140379614E+02 -0.44648515383E+02 -0.15815933421E+02  0.50041438129E+02  0.00000000000E+00 0. -1.
         11    1    3    3    0    0 -0.10051243951E+03 -0.39171936509E+02 -0.53982161207E+02  0.12062862362E+03  0.00000000000E+00 0.  1.
         -4    1    1    2    0  502  0.28494524061E+02 -0.92783421820E+01  0.22639035175E+03  0.22836509563E+03  0.00000000000E+00 0.  1.
<scales pt_clust_5="13000.00000" pt_clust_6="13000.00000" pt_clust_7="13000.00000" pt_clust_8="13000.00000" pt_clust_9="29.96707"></scales>
<clustering>
<clus scale="   29.967">  1  9  2 -1</clus>
<clus scale="   91.445">  5  6 -1 -1</clus>
<clus scale="  100.558">  7  8 -1 -1</clus>
<clus scale="  145.675">  1  5  2 -1</clus>
<clus scale="   29.967">  1  5  2 -1</clus>
</clustering>
</event>
<event>
 9    1  0.1610296E-005  0.1037530E+03  0.7546771E-02  0.1274384E+00
          1   -1    0    0  502    0 -0.00000000000E+00  0.00000000000E+00  0.35306428093E+03  0.35306428093E+03  0.00000000000E+00 0. -1.
         21   -1    0    0  501  502  0.00000000000E+00 -0.00000000000E+00 -0.48650016449E+02  0.48650016449E+02  0.00000000000E+00 0.  1.
         23    2    1    2    0    0 -0.23273004015E+02  0.29527265157E+02  0.16288285350E+03  0.19096813481E+03  0.92328286278E+02 0.  0.
         23    2    1    2    0    0  0.53635047150E+02  0.23343350713E+01  0.11570319627E+03  0.15971566279E+03  0.96123336965E+02 0.  0.
        -11    1    3    3    0    0  0.18021175915E+02  0.45679777492E+02  0.11831059067E+03  0.12809684117E+03  0.00000000000E+00 0.  1.
         11    1    3    3    0    0 -0.41294179930E+02 -0.16152512335E+02  0.44572262830E+02  0.62871293645E+02  0.00000000000E+00 0. -1.
        -11    1    4    4    0    0 -0.18346210721E+02 -0.24876692153E+02  0.48696278068E+02  0.57678078661E+02  0.00000000000E+00 0. -1.
         11    1    4    4    0    0  0.71981257871E+02  0.27211027224E+02  0.67006918201E+02  0.10203758412E+03  0.00000000000E+00 0.  1.
          1    1    1    2  501    0 -0.30362043135E+02 -0.31861600228E+02  0.25828214714E+02  0.51030499779E+02  0.00000000000E+00 0. -1.
<scales pt_clust_5="13000.00000" pt_clust_6="13000.00000" pt_clust_7="13000.00000" pt_clust_8="13000.00000" pt_clust_9="44.01154"></scales>
<clustering>
<clus scale="   44.012">  2  9  1 -1</clus>
<clus scale="   92.328">  5  6 -1 -1</clus>
<clus scale="   96.123">  7  8 -1 -1</clus>
<clus scale="  100.247">  1  5  2 -1</clus>
<clus scale="   44.012">  2  5  1 -1</clus>
</clustering>
</event>
<event>
 9    1  0.1610296E-005  0.1013235E+03  0.7546771E-02  0.1277706E+00
          1   -1    0    0  502    0 -0.00000000000E+00  0.00000000000E+00  0.48931018623E+02  0.48931018623E+02  0.00000000000E+00 0. -1.
         21   -1    0    0  501  502  0.00000000000E+00 -0.00000000000E+00 -0.44272069812E+03  0.44272069812E+03  0.00000000000E+00 0. -1.
         23    2    1    2    0    0 -0.36169723408E+02 -0.30188254202E+01 -0.72294206377E+02  0.12168330100E+03  0.90901107078E+02 0.  0.
         23    2    1    2    0    0  0.50254429732E+02 -0.35942441050E+02 -0.11471332510E+03  0.15907693660E+03  0.91263125221E+02 0.  0.
        -13    1    4    4    0    0  0.76816132315E+02 -0.26489208649E+02 -0.76599717356E+02  0.11166876492E+03  0.00000000000E+00 0. -1.
         13    1    4    4    0    0 -0.26561702583E+02 -0.94532324010E+01 -0.38113607743E+02  0.47408171681E+02  0.00000000000E+00 0.  1.
        -13    1    3    3    0    0 -0.24093166688E+02  0.26979507295E+02 -0.80558059635E+02  0.88306146259E+02  0.00000000000E+00 0.  1.
         13    1    3    3    0    0 -0.12076556720E+02 -0.29998332715E+02  0.82638532583E+01  0.33377154740E+02  0.00000000000E+00 0. -1.
          1    1    1    2  501    0 -0.14084706324E+02  0.38961266470E+02 -0.20678214802E+03  0.21089147915E+03  0.00000000000E+00 0. -1.
<scales pt_clust_5="13000.00000" pt_clust_6="13000.00000" pt_clust_7="13000.00000" pt_clust_8="13000.00000" pt_clust_9="41.42897"></scales>
<clustering>
<clus scale="   41.429">  2  9  1 -1</clus>
<clus scale="   90.901">  7  8 -1 -1</clus>
<clus scale="   91.263">  5  6 -1 -1</clus>
<clus scale="  100.998">  1  7  2 -1</clus>
<clus scale="   41.429">  2  5  1 -1</clus>
</clustering>
</event>
<event>
 9    1  0.1610296E-005  0.1108908E+03  0.7546771E-02  0.1259468E+00
         21   -1    0    0  501  502  0.00000000000E+00  0.00000000000E+00  0.11447436969E+03  0.11447436969E+03  0.00000000000E+00 0. -1.
          2   -1    0    0  502    0 -0.00000000000E+00 -0.00000000000E+00 -0.15521601901E+03  0.15521601901E+03  0.00000000000E+00 0.  1.
         23    2    1    2    0    0  0.60531550561E+02  0.30457286655E+02 -0.70032814533E+02  0.13378180128E+03  0.91658389241E+02 0.  0.
         23    2    1    2    0    0 -0.47161438055E+02 -0.84037795672E+01  0.13149834176E+02  0.10548393212E+03  0.93054376821E+02 0.  0.
        -11    1    4    4    0    0 -0.11419554164E+01 -0.30848139282E+02  0.37679804462E+02  0.48710157294E+02  0.00000000000E+00 0. -1.
         11    1    4    4    0    0 -0.46019482639E+02  0.22444359715E+02 -0.24529970286E+02  0.56773774822E+02  0.00000000000E+00 0.  1.
        -11    1    3    3    0    0  0.82218819353E+01  0.41002868101E+02 -0.68670984639E+02  0.80402354856E+02  0.00000000000E+00 0.  1.
         11    1    3    3    0    0  0.52309668625E+02 -0.10545581446E+02 -0.13618298938E+01  0.53379446423E+02  0.00000000000E+00 0. -1.
          2    1    1    2  501    0 -0.13370112506E+02 -0.22053507088E+02  0.16141331036E+02  0.30424655313E+02  0.00000000000E+00 0.  1.
<scales pt_clust_5="13000.00000" pt_clust_6="13000.00000" pt_clust_7="13000.00000" pt_clust_8="13000.00000" pt_clust_9="25.78986"></scales>
<clustering>
<clus scale="   25.790">  1  9  2 -1</clus>
<clus scale="   91.658">  7  8 -1 -1</clus>
<clus scale="   93.054">  5  6 -1 -1</clus>
<clus scale="  109.722">  2  7  1 -1</clus>
<clus scale="   25.790">  1  5  2 -1</clus>
</clustering>
</event>
<event>
 9    1  0.1610296E-005  0.9510231E+02  0.7546771E-02  0.1292455E+00
         -1   -1    0    0    0  501 -0.00000000000E+00  0.00000000000E+00  0.20352464355E+03  0.20352464355E+03  0.00000000000E+00 0.  1.
         21   -1    0    0  501  502  0.00000000000E+00 -0.00000000000E+00 -0.11956729119E+03  0.11956729119E+03  0.00000000000E+00 0. -1.
         23    2    1    2    0    0 -0.50129192959E+02  0.78607635717E+01  0.74369663408E+02  0.12985347669E+03  0.93575375942E+02 0.  0.
         23    2    1    2    0    0 -0.34229747476E+02  0.24741556755E+02  0.20009660814E+02  0.10220022641E+03  0.90888280375E+02 0.  0.
        -11    1    4    4    0    0  0.26961489704E+02  0.29962354855E+01  0.25235178136E+02  0.37050149388E+02  0.00000000000E+00 0.  1.
         11    1    4    4    0    0 -0.61191237180E+02  0.21745321270E+02 -0.52255173214E+01  0.65150077022E+02  0.00000000000E+00 0. -1.
        -11    1    3    3    0    0 -0.68849035252E+01 -0.39520386523E+02  0.41706438538E+02  0.57867865547E+02  0.00000000000E+00 0.  1.
         11    1    3    3    0    0 -0.43244289434E+02  0.47381150094E+02  0.32663224870E+02  0.71985611144E+02  0.00000000000E+00 0. -1.
         -1    1    1    2    0  502  0.84358940435E+02 -0.32602320327E+02 -0.10421971858E+02  0.91038231636E+02  0.00000000000E+00 0.  1.
<scales pt_clust_5="13000.00000" pt_clust_6="13000.00000" pt_clust_7="13000.00000" pt_clust_8="13000.00000" pt_clust_9="90.43972"></scales>
<clustering>
<clus scale="   90.440">  2  9  1 -1</clus>
<clus scale="   90.888">  5  6 -1 -1</clus>
<clus scale="   92.460">  2  5  1 -1</clus>
<clus scale="   93.575">  7  8 -1 -1</clus>
<clus scale="   90.440">  2  5  1 -1</clus>
</clustering>
</event>
<event>
 9    1  0.1610296E-005  0.1287532E+03  0.7546771E-02  0.1232800E+00
         -1   -1    0    0    0  501 -0.00000000000E+00  0.00000000000E+00  0.10315767624E+03  0.10315767624E+03  0.00000000000E+00 0.  1.
         21   -1    0    0  501  502  0.00000000000E+00 -0.00000000000E+00 -0.38902608975E+03  0.38902608975E+03  0.00000000000E+00 0. -1.
         23    2    1    2    0    0  0.85672008680E+02 -0.87939042947E+01  0.16436799561E+02  0.12584704716E+03  0.90278929296E+02 0.  0.
         23    2    1    2    0    0 -0.10541748558E+03  0.65299289086E+02 -0.19675271773E+03  0.24499393313E+03  0.77029552229E+02 0.  0.
        -11    1    4    4    0    0 -0.22507971313E+02 -0.13247566847E+02 -0.14387131166E+02  0.29817718612E+02  0.00000000000E+00 0.  1.
         11    1    4    4    0    0 -0.82909514266E+02  0.78546855933E+02 -0.18236558656E+03  0.21517621452E+03  0.00000000000E+00 0. -1.
        -11    1    3    3    0    0  0.21090696523E+02 -0.24412214945E+02  0.43454574124E+02  0.54120917681E+02  0.00000000000E+00 0.  1.
         11    1    3    3    0    0  0.64581312157E+02  0.15618310650E+02 -0.27017774564E+02  0.71726129478E+02  0.00000000000E+00 0. -1.
         -1    1    1    2    0  502  0.19745476899E+02 -0.56505384791E+02 -0.10555249534E+03  0.12134278570E+03  0.00000000000E+00 0.  1.
<scales pt_clust_5="13000.00000" pt_clust_6="13000.00000" pt_clust_7="13000.00000" pt_clust_8="13000.00000" pt_clust_9="59.85601"></scales>
<clustering>
<clus scale="   59.856">  2  9  1 -1</clus>
<clus scale="   77.030">  5  6 -1 -1</clus>
<clus scale="   90.279">  7  8 -1 -1</clus>
<clus scale="  119.836">  2  5  1 -1</clus>
<clus scale="   59.856">  2  5  1 -1</clus>
</clustering>
</event>
<event>
 9    1  0.1610296E-005  0.2632357E+03  0.7546771E-02  0.1107475E+00
         21   -1    0    0  501  502  0.00000000000E+00  0.00000000000E+00  0.55775529538E+03  0.55775529538E+03  0.00000000000E+00 0.  1.
          1   -1    0    0  502    0 -0.00000000000E+00 -0.00000000000E+00 -0.19957718883E+03  0.19957718883E+03  0.00000000000E+00 0. -1.
         23    2    1    2    0    0  0.33622941537E+02 -0.24058766669E+03 -0.25544353143E+02  0.27424392513E+03  0.12467673774E+03 0.  0.
         23    2    1    2    0    0 -0.72768021428E+02  0.19568829680E+03  0.25612485767E+03  0.34227151914E+03  0.89223066800E+02 0.  0.
        -11    1    4    4    0    0 -0.46064050459E+02  0.21521887371E+02  0.57641003887E+02  0.76860742319E+02  0.00000000000E+00 0. -1.
         11    1    4    4    0    0 -0.26703970969E+02  0.17416640943E+03  0.19848385378E+03  0.26541077682E+03  0.00000000000E+00 0.  1.
        -13    1    3    3    0    0  0.58029306495E+02 -0.76067526792E+02 -0.46910764900E+02  0.10655650570E+03  0.00000000000E+00 0.  1.
         13    1    3    3    0    0 -0.24406364958E+02 -0.16452013990E+03  0.21366411757E+02  0.16768741942E+03  0.00000000000E+00 0. -1.
          1    1    1    2  501    0  0.39145079891E+02  0.44899369886E+02  0.12759760202E+03  0.14081703994E+03  0.00000000000E+00 0. -1.
<scales pt_clust_5="13000.00000" pt_clust_6="13000.00000" pt_clust_7="13000.00000" pt_clust_8="13000.00000" pt_clust_9="59.56753"></scales>
<clustering>
<clus scale="   59.568">  1  9  2 -1</clus>
<clus scale="   89.223">  5  6 -1 -1</clus>
<clus scale="  124.677">  7  8 -1 -1</clus>
<clus scale="  248.414">  1  5  2 -1</clus>
<clus scale="   59.568">  1  5  2 -1</clus>
</clustering>
</event>
<event>
 9    1  0.1610296E-005  0.9310265E+02  0.7546771E-02  0.1297304E+00
         -3   -1    0    0    0  501 -0.00000000000E+00  0.00000000000E+00  0.52022342017E+02  0.52022342017E+02  0.00000000000E+00 0.  1.
         21   -1    0    0  501  502  0.00000000000E+00 -0.00000000000E+00 -0.33079213080E+03  0.33079213080E+03  0.00000000000E+00 0.  1.
         23    2    1    2    0    0  0.18215430635E+02  0.23828539650E+02 -0.40544144354E+02  0.10086897068E+03  0.87356284203E+02 0.  0.
         23    2    1    2    0    0  0.30170747179E+02 -0.17786652139E+02 -0.12186055675E+03  0.15577672534E+03  0.90497258998E+02 0.  0.
        -11    1    3    3    0    0  0.39819422986E+02 -0.13141054696E+02 -0.45913961731E-01  0.41931800266E+02  0.00000000000E+00 0.  1.
         11    1    3    3    0    0 -0.21603992351E+02  0.36969594346E+02 -0.40498230392E+02  0.58937170415E+02  0.00000000000E+00 0. -1.
        -13    1    4    4    0    0  0.23480847418E+02  0.22804481620E+02 -0.65951103958E+01  0.33389969430E+02  0.00000000000E+00 0. -1.
         13    1    4    4    0    0  0.66898997606E+01 -0.40591133759E+02 -0.11526544635E+03  0.12238675591E+03  0.00000000000E+00 0.  1.
         -3    1    1    2    0  502 -0.48386177814E+02 -0.60418875103E+01 -0.11636508769E+03  0.12616877680E+03  0.00000000000E+00 0.  1.
<scales pt_clust_5="13000.00000" pt_clust_6="13000.00000" pt_clust_7="13000.00000" pt_clust_8="13000.00000" pt_clust_9="48.76194"></scales>
<clustering>
<clus scale="   48.762">  2  9  1 -1</clus>
<clus scale="   87.356">  5  6 -1 -1</clus>
<clus scale="   90.053">  1  5  2 -1</clus>
<clus scale="   90.497">  7  8 -1 -1</clus>
<clus scale="   48.762">  2  5  1 -1</clus>
</clustering>
</event>
<event>
 9    1  0.1610296E-005  0.1508977E+03  0.7546771E-02  0.1201738E+00
         21   -1    0    0  501  502  0.00000000000E+00  0.00000000000E+00  0.93438982247E+02  0.93438982247E+02  0.00000000000E+00 0.  1.
         -3   -1    0    0    0  501 -0.00000000000E+00 -0.00000000000E+00 -0.51396004572E+03  0.51396004572E+03  0.00000000000E+00 0.  1.
         23    2    1    2    0    0 -0.75545746422E+02 -0.68823460605E+02 -0.15258098094E+03  0.20649502914E+03  0.94421463569E+02 0.  0.
         23    2    1    2    0    0  0.15603201626E+03 -0.68123428567E+01 -0.21607781500E+03  0.27888551994E+03  0.81823670051E+02 0.  0.
        -11    1    3    3    0    0  0.17856673401E+02 -0.29641418505E+02 -0.60036617857E+02  0.69295526260E+02  0.00000000000E+00 0. -1.
         11    1    3    3    0    0 -0.93402419823E+02 -0.39182042100E+02 -0.92544363080E+02  0.13719950288E+03  0.00000000000E+00 0.  1.
        -13    1    4    4    0    0  0.11770970936E+03 -0.40954266649E+02 -0.16097220188E+03  0.20358014985E+03  0.00000000000E+00 0.  1.
         13    1    4    4    0    0  0.38322306900E+02  0.34141923792E+02 -0.55105613115E+02  0.75305370082E+02  0.00000000000E+00 0. -1.
         -3    1    1    2    0  502 -0.80486269841E+02  0.75635803462E+02 -0.51862267541E+02  0.12201847890E+03  0.00000000000E+00 0.  1.
<scales pt_clust_5="13000.00000" pt_clust_6="13000.00000" pt_clust_7="13000.00000" pt_clust_8="13000.00000" pt_clust_9="110.44824"></scales>
<clustering>
<clus scale="   81.824">  7  8 -1 -1</clus>
<clus scale="   94.421">  5  6 -1 -1</clus>
<clus scale="  110.448">  1  9  2 -1</clus>
<clus scale="  143.352">  1  7  2 -1</clus>
<clus scale="  110.448">  1  5  2 -1</clus>
</clustering>
</event>
<event>
 9    1  0.1610296E-005  0.1569883E+03  0.7546771E-02  0.1192387E+00
         21   -1    0    0  501  502  0.00000000000E+00  0.00000000000E+00  0.27358379470E+03  0.27358379470E+03  0.00000000000E+00 0. -1.
          1   -1    0    0  502    0 -0.00000000000E+00 -0.00000000000E+00 -0.28116356927E+03  0.28116356927E+03  0.00000000000E+00 0. -1.
         23    2    1    2    0    0  0.10829414198E+03 -0.25945953047E+02 -0.10315823563E+03  0.17723533029E+03  0.91487305453E+02 0.  0.
         23    2    1    2    0    0 -0.14385651012E+03  0.40263228081E+02 -0.83238658515E+02  0.19463166666E+03  0.92935398830E+02 0.  0.
        -11    1    3    3    0    0  0.27268630285E+02  0.31520089166E+02 -0.48162316206E+02  0.63692251655E+02  0.00000000000E+00 0. -1.
         11    1    3    3    0    0  0.81025511695E+02 -0.57466042213E+02 -0.54995919420E+02  0.11354307864E+03  0.00000000000E+00 0.  1.
        -13    1    4    4    0    0 -0.36501555586E+02 -0.22976877923E+02  0.27887392632E+01  0.43221262660E+02  0.00000000000E+00 0.  1.
         13    1    4    4    0    0 -0.10735495453E+03  0.63240106005E+02 -0.86027397778E+02  0.15141040400E+03  0.00000000000E+00 0. -1.
          1    1    1    2  501    0  0.35562368140E+02 -0.14317275034E+02  0.17881711957E+03  0.18288036703E+03  0.00000000000E+00 0. -1.
<scales pt_clust_5="13000.00000" pt_clust_6="13000.00000" pt_clust_7="13000.00000" pt_clust_8="13000.00000" pt_clust_9="38.33623"></scales>
<clustering>
<clus scale="   38.336">  1  9  2 -1</clus>
<clus scale="   91.487">  5  6 -1 -1</clus>
<clus scale="   92.935">  7  8 -1 -1</clus>
<clus scale="  156.135">  2  5  1 -1</clus>
<clus scale="   38.336">  1  5  2 -1</clus>
</clustering>
</event>
<event>
 9    1  0.1610296E-005  0.1394557E+03  0.7546771E-02  0.1214614E+00
         -4   -1    0    0    0  501 -0.00000000000E+00  0.00000000000E+00  0.21364339584E+03  0.21364339584E+03  0.00000000000E+00 0.  1.
         21   -1    0    0  501  502  0.00000000000E+00 -0.00000000000E+00 -0.19966453287E+03  0.19966453287E+03  0.00000000000E+00 0. -1.
         23    2    1    2    0    0  0.76044682484E+02 -0.67619411561E+02  0.79019264177E+02  0.15633037709E+03  0.88543571965E+02 0.  0.
         23    2    1    2    0    0 -0.25513840616E+02  0.13433057049E+03 -0.51831350112E+02  0.17225315292E+03  0.91043954254E+02 0.  0.
        -11    1    4    4    0    0  0.24825760089E+02  0.89701299699E+02 -0.48364893004E+02  0.10488948664E+03  0.00000000000E+00 0. -1.
         11    1    4    4    0    0 -0.50339600705E+02  0.44629270788E+02 -0.34664571073E+01  0.67363666283E+02  0.00000000000E+00 0.  1.
        -13    1    3    3    0    0  0.46095869515E+01  0.19838182908E+02  0.39920109158E+01  0.20754227138E+02  0.00000000000E+00 0. -1.
         13    1    3    3    0    0  0.71435095532E+02 -0.87457594469E+02  0.75027253261E+02  0.13557614995E+03  0.00000000000E+00 0.  1.
         -4    1    1    2    0  502 -0.50530841868E+02 -0.66711158926E+02 -0.13209051095E+02  0.84724398705E+02  0.00000000000E+00 0.  1.
<scales pt_clust_5="13000.00000" pt_clust_6="13000.00000" pt_clust_7="13000.00000" pt_clust_8="13000.00000" pt_clust_9="83.68838"></scales>
<clustering>
<clus scale="   83.688">  2  9  1 -1</clus>
<clus scale="   88.544">  7  8 -1 -1</clus>
<clus scale="   91.044">  5  6 -1 -1</clus>
<clus scale="  137.836">  1  7  2 -1</clus>
<clus scale="   83.688">  2  5  1 -1</clus>
</clustering>
</event>
<event>
 9    1  0.1610296E-005  0.9467021E+02  0.7546771E-02  0.1292607E+00
         21   -1    0    0  501  502  0.00000000000E+00  0.00000000000E+00  0.74093754197E+02  0.74093754197E+02  0.00000000000E+00 0. -1.
          2   -1    0    0  502    0 -0.00000000000E+00 -0.00000000000E+00 -0.32624763370E+03  0.32624763370E+03  0.00000000000E+00 0.  1.
         23    2    1    2    0    0  0.44771223416E+02 -0.40922348472E+02 -0.14208002667E+03  0.17925484422E+03  0.90920097598E+02 0.  0.
         23    2    1    2    0    0  0.25191975439E+02 -0.20577081750E+02 -0.66777175690E+02  0.11836540971E+03  0.92158163519E+02 0.  0.
        -11    1    4    4    0    0  0.23418194077E+02  0.34280929972E+02 -0.19253487754E+02  0.45763421684E+02  0.00000000000E+00 0. -1.
         11    1    4    4    0    0  0.17737813620E+01 -0.54858011722E+02 -0.47523687936E+02  0.72601988027E+02  0.00000000000E+00 0.  1.
        -11    1    3    3    0    0  0.10258182187E+02 -0.36838352212E+02 -0.13922824125E+03  0.14438420155E+03  0.00000000000E+00 0.  1.
         11    1    3    3    0    0  0.34513041229E+02 -0.40839962602E+01 -0.28517854215E+01  0.34870642673E+02  0.00000000000E+00 0. -1.
          2    1    1    2  501    0 -0.69963198854E+02  0.61499430222E+02 -0.43296677142E+02  0.10272113397E+03  0.00000000000E+00 0.  1.
<scales pt_clust_5="13000.00000" pt_clust_6="13000.00000" pt_clust_7="13000.00000" pt_clust_8="13000.00000" pt_clust_9="93.15057"></scales>
<clustering>
<clus scale="   90.920">  7  8 -1 -1</clus>
<clus scale="   92.158">  5  6 -1 -1</clus>
<clus scale="   93.151">  1  9  2 -1</clus>
<clus scale="   93.465">  2  7  1 -1</clus>
<clus scale="   93.151">  1  5  2 -1</clus>
</clustering>
</event>
<event>
 9    1  0.1610296E-005  0.9273881E+02  0.7546771E-02  0.1299208E+00
         21   -1    0    0  501  502  0.00000000000E+00  0.00000000000E+00  0.63330755491E+02  0.63330755491E+02  0.00000000000E+00 0.  1.
          3   -1    0    0  502    0 -0.00000000000E+00 -0.00000000000E+00 -0.28969330220E+03  0.28969330220E+03  0.00000000000E+00 0. -1.
         23    2    1    2    0    0 -0.35706866229E+02  0.10552654143E+01 -0.12760507719E+03  0.16160735907E+03  0.92508318011E+02 0.  0.
         23    2    1    2    0    0 -0.29185218332E+02  0.43744628504E+01 -0.83229229211E+02  0.12447201373E+03  0.87722657919E+02 0.  0.
        -11    1    3    3    0    0 -0.29272659234E+01  0.44554796795E+02 -0.54999761773E+02  0.70842590285E+02  0.00000000000E+00 0. -1.
         11    1    3    3    0    0 -0.32779600305E+02 -0.43499531381E+02 -0.72605315416E+02  0.90764768788E+02  0.00000000000E+00 0.  1.
        -11    1    4    4    0    0 -0.57033108403E+02  0.16367222046E+02 -0.39578874194E+02  0.71324250393E+02  0.00000000000E+00 0.  1.
         11    1    4    4    0    0  0.27847890071E+02 -0.11992759195E+02 -0.43650355017E+02  0.53147763336E+02  0.00000000000E+00 0. -1.
          3    1    1    2  501    0  0.64892084561E+02 -0.54297282647E+01 -0.15528240310E+02  0.66944684889E+02  0.00000000000E+00 0. -1.
<scales pt_clust_5="13000.00000" pt_clust_6="13000.00000" pt_clust_7="13000.00000" pt_clust_8="13000.00000" pt_clust_9="65.11885"></scales>
<clustering>
<clus scale="   65.119">  1  9  2 -1</clus>
<clus scale="   87.723">  7  8 -1 -1</clus>
<clus scale="   87.966">  1  7  2 -1</clus>
<clus scale="   92.508">  5  6 -1 -1</clus>
<clus scale="   65.119">  1  5  2 -1</clus>
</clustering>
</event>
<event>
 9    1  0.1610296E-005  0.1375141E+03  0.7546771E-02  0.1217420E+00
         21   -1    0    0  501  502  0.00000000000E+00  0.00000000000E+00  0.12255192468E+03  0.12255192468E+03  0.00000000000E+00 0. -1.
          2   -1    0    0  502    0 -0.00000000000E+00 -0.00000000000E+00 -0.48188707453E+03  0.48188707453E+03  0.00000000000E+00 0. -1.
         23    2    1    2    0    0  0.22637338845E+02  0.90659615083E+02 -0.31770577458E+03  0.34311510821E+03  0.89774179806E+02 0.  0.
         23    2    1    2    0    0 -0.23507706122E+02 -0.12659211960E+03 -0.10370096608E+03  0.18959673571E+03  0.92816242288E+02 0.  0.
        -11    1    4    4    0    0 -0.91090142013E+01 -0.51707688833E+02 -0.10036378745E+03  0.11326759932E+03  0.00000000000E+00 0. -1.
         11    1    4    4    0    0 -0.14398691921E+02 -0.74884430770E+02 -0.33371786313E+01  0.76329136390E+02  0.00000000000E+00 0.  1.
        -13    1    3    3    0    0  0.51736490096E+02  0.77200902292E+02 -0.19090213016E+03  0.21232114125E+03  0.00000000000E+00 0. -1.
         13    1    3    3    0    0 -0.29099151251E+02  0.13458712791E+02 -0.12680364442E+03  0.13079396696E+03  0.00000000000E+00 0.  1.
          2    1    1    2  501    0  0.87036727723E+00  0.35932504520E+02  0.62071590813E+02  0.71727155293E+02  0.00000000000E+00 0. -1.
<scales pt_clust_5="13000.00000" pt_clust_6="13000.00000" pt_clust_7="13000.00000" pt_clust_8="13000.00000" pt_clust_9="35.94304"></scales>
<clustering>
<clus scale="   35.943">  1  9  2 -1</clus>
<clus scale="   89.774">  7  8 -1 -1</clus>
<clus scale="   92.816">  5  6 -1 -1</clus>
<clus scale="  135.479">  2  7  1 -1</clus>
<clus scale="   35.943">  1  5  2 -1</clus>
</clustering>
</event>
<event>
 9    1  0.1610296E-005  0.9838343E+02  0.7546771E-02  0.1285796E+00
         21   -1    0    0  501  502  0.00000000000E+00  0.00000000000E+00  0.33864658970E+03  0.33864658970E+03  0.00000000000E+00 0. -1.
          1   -1    0    0  502    0 -0.00000000000E+00 -0.00000000000E+00 -0.10339799520E+03  0.10339799520E+03  0.00000000000E+00 0. -1.
         23    2    1    2    0    0 -0.60349906754E+01 -0.53898001083E+02 -0.34896547833E+02  0.10788018239E+03  0.86480917361E+02 0.  0.
         23    2    1    2    0    0  0.36295713578E+02 -0.11539978153E+02  0.67863139819E+02  0.11941839203E+03  0.90580332789E+02 0.  0.
        -11    1    3    3    0    0  0.32539378372E+02 -0.38104609994E+02  0.47777465156E+01  0.50334871703E+02  0.00000000000E+00 0. -1.
         11    1    3    3    0    0 -0.38574369047E+02 -0.15793391090E+02 -0.39674294349E+02  0.57545310683E+02  0.00000000000E+00 0.  1.
        -13    1    4    4    0    0 -0.18692975638E+01 -0.44696874904E+02  0.17440483717E+02  0.48015365998E+02  0.00000000000E+00 0.  1.
         13    1    4    4    0    0  0.38165011142E+02  0.33156896752E+02  0.50422656102E+02  0.71403026029E+02  0.00000000000E+00 0. -1.
          1    1    1    2  501    0 -0.30260722902E+02  0.65437979236E+02  0.20228200252E+03  0.21474601049E+03  0.00000000000E+00 0. -1.
<scales pt_clust_5="13000.00000" pt_clust_6="13000.00000" pt_clust_7="13000.00000" pt_clust_8="13000.00000" pt_clust_9="72.09605"></scales>
<clustering>
<clus scale="   72.096">  1  9  2 -1</clus>
<clus scale="   86.481">  5  6 -1 -1</clus>
<clus scale="   90.580">  7  8 -1 -1</clus>
<clus scale="   94.623">  2  5  1 -1</clus>
<clus scale="   72.096">  1  5  2 -1</clus>
</clustering>
</event>
<event>
 9    1  0.1610296E-005  0.9188281E+02  0.7546771E-02  0.1298386E+00
          3   -1    0    0  502    0 -0.00000000000E+00  0.00000000000E+00  0.59131758713E+03  0.59131758713E+03  0.00000000000E+00 0. -1.
         21   -1    0    0  501  502  0.00000000000E+00 -0.00000000000E+00 -0.56901994297E+02  0.56901994297E+02  0.00000000000E+00 0. -1.
         23    2    1    2    0    0 -0.10517052937E+01 -0.15707444085E+02  0.38912330834E+03  0.39966548317E+03  0.89820484649E+02 0.  0.
         23    2    1    2    0    0 -0.17769616334E+02  0.25449299851E+02  0.18249815773E+03  0.20573561039E+03  0.89767130287E+02 0.  0.
        -13    1    4    4    0    0  0.20787371238E+02  0.32098961787E+02  0.30888071597E+02  0.49158225332E+02  0.00000000000E+00 0.  1.
         13    1    4    4    0    0 -0.38556987572E+02 -0.66496619352E+01  0.15161008613E+03  0.15657738506E+03  0.00000000000E+00 0. -1.
        -13    1    3    3    0    0 -0.10770675232E+02  0.35560311291E+02  0.20268907932E+03  0.20606650883E+03  0.00000000000E+00 0. -1.
         13    1    3    3    0    0  0.97189699381E+01 -0.51267755375E+02  0.18643422901E+03  0.19359897434E+03  0.00000000000E+00 0.  1.
          3    1    1    2  501    0  0.18821321628E+02 -0.97418557668E+01 -0.37205873225E+02  0.42818487877E+02  0.00000000000E+00 0. -1.
<scales pt_clust_5="13000.00000" pt_clust_6="13000.00000" pt_clust_7="13000.00000" pt_clust_8="13000.00000" pt_clust_9="21.19306"></scales>
<clustering>
<clus scale="   21.193">  2  9  1 -1</clus>
<clus scale="   89.767">  5  6 -1 -1</clus>
<clus scale="   89.820">  7  8 -1 -1</clus>
<clus scale="   91.831">  2  5  1 -1</clus>
<clus scale="   21.193">  2  5  1 -1</clus>
</clustering>
</event>
<event>
 9    1  0.1610296E-005  0.1204654E+03  0.7546771E-02  0.1242543E+00
         21   -1    0    0  501  502  0.00000000000E+00  0.00000000000E+00  0.54253442624E+02  0.54253442624E+02  0.00000000000E+00 0. -1.
          2   -1    0    0  502    0 -0.00000000000E+00 -0.00000000000E+00 -0.33611203637E+03  0.33611203637E+03  0.00000000000E+00 0. -1.
         23    2    1    2    0    0  0.68128532933E+02  0.13368474072E+02 -0.15243090072E+03  0.19081320469E+03  0.91401786046E+02 0.  0.
         23    2    1    2    0    0 -0.86572013458E+02 -0.26481603578E+02 -0.11297682898E+03  0.17157465705E+03  0.92076654006E+02 0.  0.
        -11    1    3    3    0    0  0.62618199202E+02 -0.29452481833E+02 -0.11206483741E+03  0.13170806862E+03  0.00000000000E+00 0. -1.
         11    1    3    3    0    0  0.55103337318E+01  0.42820955905E+02 -0.40366063312E+02  0.59105136069E+02  0.00000000000E+00 0.  1.
        -13    1    4    4    0    0  0.16543807363E+02 -0.19598854565E+02 -0.19400958745E+02  0.32159133424E+02  0.00000000000E+00 0.  1.
         13    1    4    4    0    0 -0.10311582082E+03 -0.68827490123E+01 -0.93575870235E+02  0.13941552363E+03  0.00000000000E+00 0. -1.
          2    1    1    2  501    0  0.18443480524E+02  0.13113129506E+02 -0.16450864047E+02  0.27977617253E+02  0.00000000000E+00 0. -1.
<scales pt_clust_5="13000.00000" pt_clust_6="13000.00000" pt_clust_7="13000.00000" pt_clust_8="13000.00000" pt_clust_9="22.62998"></scales>
<clustering>
<clus scale="   22.630">  1  9  2 -1</clus>
<clus scale="   91.402">  5  6 -1 -1</clus>
<clus scale="   92.077">  7  8 -1 -1</clus>
<clus scale="  119.950">  2  5  1 -1</clus>
<clus scale="   22.630">  1  5  2 -1</clus>
</clustering>
</event>
<event>
 9    1  0.1610296E-005  0.1036537E+03  0.7546771E-02  0.1274438E+00
         -3   -1    0    0    0  501 -0.00000000000E+00  0.00000000000E+00  0.21368702423E+03  0.21368702423E+03  0.00000000000E+00 0.  1.
         21   -1    0    0  501  502  0.00000000000E+00 -0.00000000000E+00 -0.96043159727E+02  0.96043159727E+02  0.00000000000E+00 0.  1.
         23    2    1    2    0    0  0.10558391393E+02 -0.53312384265E+02  0.72045243533E+02  0.12693639232E+03  0.89267242785E+02 0.  0.
         23    2    1    2    0    0 -0.55583223504E+02  0.88817019422E+01  0.73039417193E+01  0.10884919415E+03  0.92878523562E+02 0.  0.
        -11    1    4    4    0    0  0.19167561574E+02 -0.20697979619E+02  0.15210528045E+01  0.28250935890E+02  0.00000000000E+00 0.  1.
         11    1    4    4    0    0 -0.74750785078E+02  0.29579681562E+02  0.57828889148E+01  0.80598258265E+02  0.00000000000E+00 0. -1.
        -13    1    3    3    0    0  0.28273839698E+02 -0.11382791955E+02 -0.10860974372E+02  0.32356432564E+02  0.00000000000E+00 0. -1.
         13    1    3    3    0    0 -0.17715448305E+02 -0.41929592310E+02  0.82906217905E+02  0.94579959755E+02  0.00000000000E+00 0.  1.
         -3    1    1    2    0  502  0.45024832110E+02  0.44430682323E+02  0.38294679254E+02  0.73944597486E+02  0.00000000000E+00 0.  1.
<scales pt_clust_5="13000.00000" pt_clust_6="13000.00000" pt_clust_7="13000.00000" pt_clust_8="13000.00000" pt_clust_9="63.25603"></scales>
<clustering>
<clus scale="   63.256">  2  9  1 -1</clus>
<clus scale="   89.267">  7  8 -1 -1</clus>
<clus scale="   92.879">  5  6 -1 -1</clus>
<clus scale="  100.431">  1  7  2 -1</clus>
<clus scale="   63.256">  2  5  1 -1</clus>
</clustering>
</event>
<event>
 9    1  0.1610296E-005  0.9369787E+02  0.7546771E-02  0.1294456E+00
          1   -1    0    0  502    0 -0.00000000000E+00  0.00000000000E+00  0.11345238309E+03  0.11345238309E+03  0.00000000000E+00 0. -1.
         21   -1    0    0  501  502  0.00000000000E+00 -0.00000000000E+00 -0.21117221222E+03  0.21117221222E+03  0.00000000000E+00 0. -1.
         23    2    1    2    0    0 -0.43529797028E+02  0.59228101565E+01  0.30744838178E+02  0.10611930460E+03  0.91575863767E+02 0.  0.
         23    2    1    2    0    0 -0.19555675640E+02 -0.38582744020E+01 -0.23594447073E+02  0.96105118063E+02  0.91006511053E+02 0.  0.
        -13    1    3    3    0    0 -0.43934457166E+02 -0.34404994566E+02  0.34514052118E+02  0.65613717858E+02  0.00000000000E+00 0.  1.
         13    1    3    3    0    0  0.40466013849E+00  0.40327804723E+02 -0.37692139391E+01  0.40505586742E+02  0.00000000000E+00 0. -1.
        -13    1    4    4    0    0 -0.47600642088E+02  0.19604838729E+02 -0.29087765445E+02  0.59129256104E+02  0.00000000000E+00 0. -1.
         13    1    4    4    0    0  0.28044966448E+02 -0.23463113131E+02  0.54933183719E+01  0.36975861959E+02  0.00000000000E+00 0.  1.
          1    1    1    2  501    0  0.63085472668E+02 -0.20645357545E+01 -0.10487022024E+03  0.12240017264E+03  0.00000000000E+00 0. -1.
<scales pt_clust_5="13000.00000" pt_clust_6="13000.00000" pt_clust_7="13000.00000" pt_clust_8="13000.00000" pt_clust_9="63.11925"></scales>
<clustering>
<clus scale="   63.119">  2  9  1 -1</clus>
<clus scale="   91.007">  7  8 -1 -1</clus>
<clus scale="   91.576">  5  6 -1 -1</clus>
<clus scale="   93.141">  2  7  1 -1</clus>
<clus scale="   63.119">  2  5  1 -1</clus>
</clustering>
</event>
<event>
 9    1  0.1610296E-005  0.1163007E+03  0.7546771E-02  0.1253833E+00
         21   -1    0    0  501  502  0.00000000000E+00  0.00000000000E+00  0.24706628838E+03  0.24706628838E+03  0.00000000000E+00 0. -1.
          3   -1    0    0  502    0 -0.00000000000E+00 -0.00000000000E+00 -0.14410390639E+03  0.14410390639E+03  0.00000000000E+00 0. -1.
         23    2    1    2    0    0 -0.54657692077E+02  0.51485035923E+01 -0.96396416493E+02  0.15156802214E+03  0.10327935819E+03 0.  0.
         23    2    1    2    0    0  0.42977523532E+02 -0.24824095527E+02  0.13111590861E+03  0.16762545923E+03  0.91889117106E+02 0.  0.
        -11    1    3    3    0    0 -0.78236135720E+02 -0.11400883199E+02 -0.93753885313E+02  0.12264038520E+03  0.00000000000E+00 0. -1.
         11    1    3    3    0    0  0.23578443644E+02  0.16549386791E+02 -0.26425311803E+01  0.28927636939E+02  0.00000000000E+00 0.  1.
        -13    1    4    4    0    0  0.95685822228E+01  0.34653822537E+02  0.39658273964E+02  0.53527786018E+02  0.00000000000E+00 0.  1.
         13    1    4    4    0    0  0.33408941310E+02 -0.59477918063E+02  0.91457634650E+02  0.11409767321E+03  0.00000000000E+00 0. -1.
          3    1    1    2  501    0  0.11680168544E+02  0.19675591934E+02  0.68242889866E+02  0.71976713404E+02  0.00000000000E+00 0. -1.
<scales pt_clust_5="13000.00000" pt_clust_6="13000.00000" pt_clust_7="13000.00000" pt_clust_8="13000.00000" pt_clust_9="22.88133"></scales>
<clustering>
<clus scale="   22.881">  1  9  2 -1</clus>
<clus scale="   91.889">  7  8 -1 -1</clus>
<clus scale="  103.279">  5  6 -1 -1</clus>
<clus scale="  106.315">  1  7  2 -1</clus>
<clus scale="   22.881">  1  5  2 -1</clus>
</clustering>
</event>
<event>
 9    1  0.1610296E-005  0.1019649E+03  0.7546771E-02  0.1277407E+00
          3   -1    0    0  502    0 -0.00000000000E+00  0.00000000000E+00  0.18901510359E+03  0.18901510359E+03  0.00000000000E+00 0. -1.
         21   -1    0    0  501  502  0.00000000000E+00 -0.00000000000E+00 -0.79675198319E+02  0.79675198319E+02  0.00000000000E+00 0.  1.
         23    2    1    2    0    0 -0.54011717893E+02  0.25316067707E+02  0.85886307322E+02  0.13688671035E+03  0.88336542445E+02 0.  0.
         23    2    1    2    0    0  0.22409474931E+02 -0.97547613602E+01  0.12857499350E+02  0.95018631033E+02  0.90916912717E+02 0.  0.
        -11    1    3    3    0    0 -0.15085877870E+02  0.48700733436E+02  0.15801060433E+02  0.53376199370E+02  0.00000000000E+00 0. -1.
         11    1    3    3    0    0 -0.38925840023E+02 -0.23384665729E+02  0.70085246889E+02  0.83510510980E+02  0.00000000000E+00 0.  1.
        -11    1    4    4    0    0 -0.26915542472E+02  0.74234211559E+01 -0.19061711521E+02  0.33806840348E+02  0.00000000000E+00 0.  1.
         11    1    4    4    0    0  0.49325017402E+02 -0.17178182516E+02  0.31919210871E+02  0.61211790685E+02  0.00000000000E+00 0. -1.
          3    1    1    2  501    0  0.31602242963E+02 -0.15561306347E+02  0.10596098603E+02  0.36784960529E+02  0.00000000000E+00 0. -1.
<scales pt_clust_5="13000.00000" pt_clust_6="13000.00000" pt_clust_7="13000.00000" pt_clust_8="13000.00000" pt_clust_9="35.22579"></scales>
<clustering>
<clus scale="   35.226">  2  9  1 -1</clus>
<clus scale="   88.337">  5  6 -1 -1</clus>
<clus scale="   90.917">  7  8 -1 -1</clus>
<clus scale="   99.671">  1  5  2 -1</clus>
<clus scale="   35.226">  2  5  1 -1</clus>
</clustering>
</event>
<event>
 9    1  0.1610296E-005  0.1189783E+03  0.7546771E-02  0.1245683E+00
         21   -1    0    0  501  502  0.00000000000E+00  0.00000000000E+00  0.10928751264E+03  0.10928751264E+03  0.00000000000E+00 0.  1.
          1   -1    0    0  502    0 -0.00000000000E+00 -0.00000000000E+00 -0.27250543905E+03  0.27250543905E+03  0.00000000000E+00 0. -1.
         23    2    1    2    0    0  0.69559310859E+02  0.50999274201E+01 -0.15251699424E+03  0.18933063508E+03  0.87864377660E+02 0.  0.
         23    2    1    2    0    0 -0.10901435421E+03 -0.63093948672E+01  0.18822656565E+02  0.14316925880E+03  0.90659838827E+02 0.  0.
        -13    1    4    4    0    0 -0.90253281260E+02 -0.43070968650E+02  0.19520583955E+02  0.10189119843E+03  0.00000000000E+00 0.  1.
         13    1    4    4    0    0 -0.18761072952E+02  0.36761573783E+02 -0.69792739077E+00  0.41278060370E+02  0.00000000000E+00 0. -1.
        -13    1    3    3    0    0 -0.70383137288E+00  0.22111008509E+02 -0.18280336598E+01  0.22197607596E+02  0.00000000000E+00 0.  1.
         13    1    3    3    0    0  0.70263142232E+02 -0.17011081089E+02 -0.15068896058E+03  0.16713302748E+03  0.00000000000E+00 0. -1.
          1    1    1    2  501    0  0.39455043354E+02  0.12094674470E+01 -0.29523588736E+02  0.49293057822E+02  0.00000000000E+00 0. -1.
<scales pt_clust_5="13000.00000" pt_clust_6="13000.00000" pt_clust_7="13000.00000" pt_clust_8="13000.00000" pt_clust_9="39.47360"></scales>
<clustering>
<clus scale="   39.474">  1  9  2 -1</clus>
<clus scale="   87.864">  7  8 -1 -1</clus>
<clus scale="   90.660">  5  6 -1 -1</clus>
<clus scale="  116.862">  2  7  1 -1</clus>
<clus scale="   39.474">  1  5  2 -1</clus>
</clustering>
</event>
<event>
 9    1  0.1610296E-005  0.1243464E+03  0.7546771E-02  0.1237015E+00
          1   -1    0    0  502    0 -0.00000000000E+00  0.00000000000E+00  0.84367350591E+03  0.84367350591E+03  0.00000000000E+00 0. -1.
         21   -1    0    0  501  502  0.00000000000E+00 -0.00000000000E+00 -0.23485738132E+02  0.23485738132E+02  0.00000000000E+00 0.  1.
         23    2    1    2    0    0 -0.30843825345E+02  0.75818833262E+02  0.45859052841E+03  0.47486367480E+03  0.92143365793E+02 0.  0.
         23    2    1    2    0    0  0.78638699262E+01 -0.88146610627E+02  0.28594563750E+03  0.31227546357E+03  0.88990966563E+02 0.  0.
        -11    1    3    3    0    0 -0.63143690621E+02  0.44171713690E+02  0.31676983052E+03  0.32600826904E+03  0.00000000000E+00 0.  1.
         11    1    3    3    0    0  0.32299865277E+02  0.31647119572E+02  0.14182069789E+03  0.14885540576E+03  0.00000000000E+00 0. -1.
        -11    1    4    4    0    0  0.40625420243E+02 -0.11614189077E+02  0.96655837103E+02  0.10548774812E+03  0.00000000000E+00 0. -1.
         11    1    4    4    0    0 -0.32761550316E+02 -0.76532421549E+02  0.18928980040E+03  0.20678771545E+03  0.00000000000E+00 0.  1.
          1    1    1    2  501    0  0.22979955419E+02  0.12327777365E+02  0.75651601871E+02  0.80020105670E+02  0.00000000000E+00 0. -1.
<scales pt_clust_5="13000.00000" pt_clust_6="13000.00000" pt_clust_7="13000.00000" pt_clust_8="13000.00000" pt_clust_9="26.07782"></scales>
<clustering>
<clus scale="   26.078">  2  9  1 -1</clus>
<clus scale="   88.991">  7  8 -1 -1</clus>
<clus scale="   92.143">  5  6 -1 -1</clus>
<clus scale="  122.029">  2  7  1 -1</clus>
<clus scale="   26.078">  2  5  1 -1</clus>
</clustering>
</event>
<event>
 9    1  0.1610296E-005  0.1335114E+03  0.7546771E-02  0.1223204E+00
          1   -1    0    0  502    0 -0.00000000000E+00  0.00000000000E+00  0.60310008538E+03  0.60310008538E+03  0.00000000000E+00 0. -1.
         21   -1    0    0  501  502  0.00000000000E+00 -0.00000000000E+00 -0.45866877304E+02  0.45866877304E+02  0.00000000000E+00 0. -1.
         23    2    1    2    0    0  0.49885434117E+02 -0.70016645479E+02  0.33184215165E+03  0.35483026809E+03  0.91621058477E+02 0.  0.
         23    2    1    2    0    0 -0.70113957532E+02  0.82349006403E+02  0.22867418858E+03  0.27021893462E+03  0.95021377630E+02 0.  0.
        -11    1    4    4    0    0 -0.38452885138E+02 -0.30965403012E+01  0.22146766799E+02  0.44482493376E+02  0.00000000000E+00 0.  1.
         11    1    4    4    0    0 -0.31661072394E+02  0.85445546705E+02  0.20652742178E+03  0.22573644124E+03  0.00000000000E+00 0. -1.
        -13    1    3    3    0    0 -0.10582621216E+02 -0.61081865503E+02  0.20241975559E+03  0.21169965427E+03  0.00000000000E+00 0.  1.
         13    1    3    3    0    0  0.60468055334E+02 -0.89347799754E+01  0.12942239606E+03  0.14313061382E+03  0.00000000000E+00 0. -1.
          1    1    1    2  501    0  0.20228523415E+02 -0.12332360925E+02 -0.32831321599E+01  0.23917759976E+02  0.00000000000E+00 0. -1.
<scales pt_clust_5="13000.00000" pt_clust_6="13000.00000" pt_clust_7="13000.00000" pt_clust_8="13000.00000" pt_clust_9="23.69135"></scales>
<clustering>
<clus scale="   23.691">  2  9  1 -1</clus>
<clus scale="   91.621">  7  8 -1 -1</clus>
<clus scale="   95.021">  5  6 -1 -1</clus>
<clus scale="  131.113">  1  7  2 -1</clus>
<clus scale="   23.691">  2  5  1 -1</clus>
</clustering>
</event>
<event>
 9    1  0.1610296E-005  0.9765182E+02  0.7546771E-02  0.1286305E+00
         21   -1    0    0  501  502  0.00000000000E+00  0.00000000000E+00  0.68014220967E+02  0.68014220967E+02  0.00000000000E+00 0. -1.
          1   -1    0    0  502    0 -0.00000000000E+00 -0.00000000000E+00 -0.19463207316E+03  0.19463207316E+03  0.00000000000E+00 0. -1.
         23    2    1    2    0    0  0.88679296101E+01  0.20771923524E+02 -0.62697174332E+02  0.11294726234E+03  0.91192299123E+02 0.  0.
         23    2    1    2    0    0 -0.11239914894E+02 -0.47004949249E+02 -0.69189577153E+02  0.12283717681E+03  0.89252302376E+02 0.  0.
        -11    1    3    3    0    0 -0.37240451365E+02 -0.79751420974E+00 -0.46392342484E+02  0.59495686297E+02  0.00000000000E+00 0.  1.
         11    1    3    3    0    0  0.46108380975E+02  0.21569437733E+02 -0.16304831847E+02  0.53451576046E+02  0.00000000000E+00 0. -1.
        -11    1    4    4    0    0  0.21682256599E+02 -0.61689992321E+02 -0.42578384779E+02  0.78030085570E+02  0.00000000000E+00 0. -1.
         11    1    4    4    0    0 -0.32922171493E+02  0.14685043072E+02 -0.26611192375E+02  0.44807091240E+02  0.00000000000E+00 0.  1.
          1    1    1    2  501    0  0.23719852839E+01  0.26233025726E+02  0.52688992910E+01  0.26861854974E+02  0.00000000000E+00 0. -1.
<scales pt_clust_5="13000.00000" pt_clust_6="13000.00000" pt_clust_7="13000.00000" pt_clust_8="13000.00000" pt_clust_9="26.34004"></scales>
<clustering>
<clus scale="   26.340">  1  9  2 -1</clus>
<clus scale="   89.252">  7  8 -1 -1</clus>
<clus scale="   91.192">  5  6 -1 -1</clus>
<clus scale="   95.843">  1  7  2 -1</clus>
<clus scale="   26.340">  1  5  2 -1</clus>
</clustering>
</event>
<event>
 9    1  0.1610296E-005  0.1143062E+03  0.7546771E-02  0.1255334E+00
         21   -1    0    0  501  502  0.00000000000E+00  0.00000000000E+00  0.11816811180E+03  0.11816811180E+03  0.00000000000E+00 0. -1.
          1   -1    0    0  502    0 -0.00000000000E+00 -0.00000000000E+00 -0.44986246408E+03  0.44986246408E+03  0.00000000000E+00 0. -1.
         23    2    1    2    0    0  0.38454115539E+02  0.61299202432E+02 -0.29768210494E+03  0.32142766403E+03  0.97287185079E+02 0.  0.
         23    2    1    2    0    0  0.67738361286E+02 -0.49136440498E+02 -0.59146104685E+02  0.13680088228E+03  0.90627503107E+02 0.  0.
        -11    1    3    3    0    0  0.26751374973E+02 -0.10402914665E+02 -0.21534050517E+02  0.35882753910E+02  0.00000000000E+00 0.  1.
         11    1    3    3    0    0  0.11702740566E+02  0.71702117097E+02 -0.27614805442E+03  0.28554491012E+03  0.00000000000E+00 0. -1.
        -11    1    4    4    0    0  0.32947366631E+02  0.18493807876E+02  0.39393413252E+01  0.37987738913E+02  0.00000000000E+00 0.  1.
         11    1    4    4    0    0  0.34790994655E+02 -0.67630248374E+02 -0.63085446010E+02  0.98813143369E+02  0.00000000000E+00 0. -1.
          1    1    1    2  501    0 -0.10619247683E+03 -0.12162761933E+02  0.25133857340E+02  0.10980202957E+03  0.00000000000E+00 0. -1.
<scales pt_clust_5="13000.00000" pt_clust_6="13000.00000" pt_clust_7="13000.00000" pt_clust_8="13000.00000" pt_clust_9="106.88674"></scales>
<clustering>
<clus scale="   90.628">  7  8 -1 -1</clus>
<clus scale="   97.287">  5  6 -1 -1</clus>
<clus scale="  106.887">  1  9  2 -1</clus>
<clus scale="  108.694">  1  7  2 -1</clus>
<clus scale="  106.887">  1  5  2 -1</clus>
</clustering>
</event>
<event>
 9    1  0.1610296E-005  0.2365116E+03  0.7546771E-02  0.1122242E+00
         21   -1    0    0  501  502  0.00000000000E+00  0.00000000000E+00  0.10521108258E+03  0.10521108258E+03  0.00000000000E+00 0. -1.
          2   -1    0    0  502    0 -0.00000000000E+00 -0.00000000000E+00 -0.13384939593E+04  0.13384939593E+04  0.00000000000E+00 0. -1.
         23    2    1    2    0    0 -0.21022132408E+03 -0.46387220763E+02 -0.10648745538E+04  0.10903458331E+04  0.92474001184E+02 0.  0.
         23    2    1    2    0    0  0.21872313135E+03  0.70433714800E+02 -0.19627820502E+03  0.31558031346E+03  0.90912507984E+02 0.  0.
        -13    1    3    3    0    0 -0.15861747089E+02  0.18914542735E+02 -0.62145535709E+02  0.66868696385E+02  0.00000000000E+00 0.  1.
         13    1    3    3    0    0 -0.19435957699E+03 -0.65301763498E+02 -0.10027290181E+04  0.10234771367E+04  0.00000000000E+00 0. -1.
        -13    1    4    4    0    0  0.20798454142E+03  0.39484509790E+02 -0.18435282545E+03  0.28071793714E+03  0.00000000000E+00 0. -1.
         13    1    4    4    0    0  0.10738589927E+02  0.30949205010E+02 -0.11925379579E+02  0.34862376317E+02  0.00000000000E+00 0.  1.
          2    1    1    2  501    0 -0.85018072622E+01 -0.24046494038E+02  0.27869882157E+02  0.37778895348E+02  0.00000000000E+00 0. -1.
<scales pt_clust_5="13000.00000" pt_clust_6="13000.00000" pt_clust_7="13000.00000" pt_clust_8="13000.00000" pt_clust_9="25.50519"></scales>
<clustering>
<clus scale="   25.505">  1  9  2 -1</clus>
<clus scale="   90.913">  7  8 -1 -1</clus>
<clus scale="   92.474">  5  6 -1 -1</clus>
<clus scale="  235.905">  1  7  2 -1</clus>
<clus scale="   25.505">  1  5  2 -1</clus>
</clustering>
</event>
<event>
 9    1  0.1610296E-005  0.1209831E+03  0.7546771E-02  0.1242157E+00
         -2   -1    0    0    0  501 -0.00000000000E+00  0.00000000000E+00  0.16454041406E+03  0.16454041406E+03  0.00000000000E+00 0.  1.
         21   -1    0    0  501  502  0.00000000000E+00 -0.00000000000E+00 -0.29627066594E+03  0.29627066594E+03  0.00000000000E+00 0.  1.
         23    2    1    2    0    0 -0.42421656660E+02  0.62526452014E+02  0.10162029408E+03  0.15411511897E+03  0.87838667850E+02 0.  0.
         23    2    1    2    0    0  0.51080360828E+02 -0.10929687356E+03 -0.16422946747E+03  0.22279024622E+03  0.90050907768E+02 0.  0.
        -11    1    3    3    0    0  0.19012725791E+02  0.48130646972E+02  0.56015681005E+02  0.76261388909E+02  0.00000000000E+00 0.  1.
         11    1    3    3    0    0 -0.61434382451E+02  0.14395805042E+02  0.45604613074E+02  0.77853730056E+02  0.00000000000E+00 0. -1.
        -13    1    4    4    0    0 -0.24736292884E+02 -0.14728083061E+02 -0.39393127001E+02  0.48791588120E+02  0.00000000000E+00 0. -1.
         13    1    4    4    0    0  0.75816653712E+02 -0.94568790500E+02 -0.12483634047E+03  0.17399865810E+03  0.00000000000E+00 0.  1.
         -2    1    1    2    0  502 -0.86587041674E+01  0.46770421546E+02 -0.69121078481E+02  0.83905714823E+02  0.00000000000E+00 0.  1.
<scales pt_clust_5="13000.00000" pt_clust_6="13000.00000" pt_clust_7="13000.00000" pt_clust_8="13000.00000" pt_clust_9="47.56517"></scales>
<clustering>
<clus scale="   47.565">  2  9  1 -1</clus>
<clus scale="   87.839">  5  6 -1 -1</clus>
<clus scale="   90.051">  7  8 -1 -1</clus>
<clus scale="  119.346">  1  5  2 -1</clus>
<clus scale="   47.565">  2  5  1 -1</clus>
</clustering>
</event>
<event>
 9    1  0.1610296E-005  0.9302668E+02  0.7546771E-02  0.1297374E+00
          1   -1    0    0  502    0 -0.00000000000E+00  0.00000000000E+00  0.26401353285E+03  0.26401353285E+03  0.00000000000E+00 0. -1.
         21   -1    0    0  501  502  0.00000000000E+00 -0.00000000000E+00 -0.10968127352E+03  0.10968127352E+03  0.00000000000E+00 0. -1.
         23    2    1    2    0    0 -0.11069291926E+02  0.39576697390E+01  0.12284086069E+03  0.15219616827E+03  0.89082008322E+02 0.  0.
         23    2    1    2    0    0  0.14217204869E+02  0.18362182911E+02  0.10682114586E+03  0.14286877105E+03  0.91986030793E+02 0.  0.
        -11    1    3    3    0    0 -0.13496828836E+02 -0.40735599037E+02  0.76853611221E+02  0.88022900288E+02  0.00000000000E+00 0.  1.
         11    1    3    3    0    0  0.24275369095E+01  0.44693268776E+02  0.45987249467E+02  0.64173267977E+02  0.00000000000E+00 0. -1.
        -13    1    4    4    0    0  0.38831114060E+02 -0.20914879030E+02  0.73735295531E+02  0.85919621688E+02  0.00000000000E+00 0. -1.
         13    1    4    4    0    0 -0.24613909191E+02  0.39277061941E+02  0.33085850333E+02  0.56949149358E+02  0.00000000000E+00 0.  1.
          1    1    1    2  501    0 -0.31479129433E+01 -0.22319852650E+02 -0.75329747223E+02  0.78629867066E+02  0.00000000000E+00 0. -1.
<scales pt_clust_5="13000.00000" pt_clust_6="13000.00000" pt_clust_7="13000.00000" pt_clust_8="13000.00000" pt_clust_9="22.54074"></scales>
<clustering>
<clus scale="   22.541">  2  9  1 -1</clus>
<clus scale="   89.082">  5  6 -1 -1</clus>
<clus scale="   90.156">  1  5  2 -1</clus>
<clus scale="   91.986">  7  8 -1 -1</clus>
<clus scale="   22.541">  2  5  1 -1</clus>
</clustering>
</event>
<event>
 9    1  0.1610296E-005  0.1379191E+03  0.7546771E-02  0.1216181E+00
          1   -1    0    0  502    0 -0.00000000000E+00  0.00000000000E+00  0.20235437336E+03  0.20235437336E+03  0.00000000000E+00 0. -1.
         21   -1    0    0  501  502  0.00000000000E+00 -0.00000000000E+00 -0.20848264681E+03  0.20848264681E+03  0.00000000000E+00 0.  1.
         23    2    1    2    0    0 -0.66032243897E+02  0.58260818178E+02  0.71214211326E+02  0.14555941316E+03  0.91441230827E+02 0.  0.
         23    2    1    2    0    0  0.94074907842E+02 -0.12490096287E+03 -0.60662740662E+02  0.19107845776E+03  0.91545999919E+02 0.  0.
        -11    1    4    4    0    0  0.18092217581E+02 -0.26543836626E+02  0.24510862282E+02  0.40406509000E+02  0.00000000000E+00 0. -1.
         11    1    4    4    0    0  0.75982690261E+02 -0.98357126248E+02 -0.85173602944E+02  0.15067194875E+03  0.00000000000E+00 0.  1.
        -13    1    3    3    0    0 -0.25716921951E+02  0.77850265607E+02  0.42770144551E+02  0.92473289087E+02  0.00000000000E+00 0.  1.
         13    1    3    3    0    0 -0.40315321946E+02 -0.19589447429E+02  0.28444066776E+02  0.53086124071E+02  0.00000000000E+00 0. -1.
          1    1    1    2  501    0 -0.28042663946E+02  0.66640144696E+02 -0.16679744113E+02  0.74199149253E+02  0.00000000000E+00 0. -1.
<scales pt_clust_5="13000.00000" pt_clust_6="13000.00000" pt_clust_7="13000.00000" pt_clust_8="13000.00000" pt_clust_9="72.30007"></scales>
<clustering>
<clus scale="   72.300">  2  9  1 -1</clus>
<clus scale="   91.441">  7  8 -1 -1</clus>
<clus scale="   91.546">  5  6 -1 -1</clus>
<clus scale="  137.850">  1  7  2 -1</clus>
<clus scale="   72.300">  2  5  1 -1</clus>
</clustering>
</event>
<event>
 9    1  0.1610296E-005  0.1084696E+03  0.7546771E-02  0.1264100E+00
         -3   -1    0    0    0  501 -0.00000000000E+00  0.00000000000E+00  0.24230937808E+03  0.24230937808E+03  0.00000000000E+00 0.  1.
         21   -1    0    0  501  502  0.00000000000E+00 -0.00000000000E+00 -0.11261165280E+03  0.11261165280E+03  0.00000000000E+00 0.  1.
         23    2    1    2    0    0 -0.42273115281E+02 -0.29713643796E+02  0.14364638962E+03  0.17829340820E+03  0.92110462243E+02 0.  0.
         23    2    1    2    0    0  0.65316882704E+02  0.29726125996E+02  0.36562846148E+02  0.12110800395E+03  0.90445393302E+02 0.  0.
        -11    1    3    3    0    0  0.11143204324E+02 -0.44827308277E+02  0.89653379613E+02  0.10085329467E+03  0.00000000000E+00 0.  1.
         11    1    3    3    0    0 -0.53416319605E+02  0.15113664481E+02  0.53993010003E+02  0.77440113529E+02  0.00000000000E+00 0. -1.
        -13    1    4    4    0    0  0.46735854754E+02 -0.51119585925E+01 -0.20848687064E+02  0.51429952290E+02  0.00000000000E+00 0.  1.
         13    1    4    4    0    0  0.18581027950E+02  0.34838084589E+02  0.57411533212E+02  0.69678051661E+02  0.00000000000E+00 0. -1.
         -3    1    1    2    0  502 -0.23043767423E+02 -0.12482200504E-01 -0.50511510479E+02  0.55519618728E+02  0.00000000000E+00 0.  1.
<scales pt_clust_5="13000.00000" pt_clust_6="13000.00000" pt_clust_7="13000.00000" pt_clust_8="13000.00000" pt_clust_9="23.04377"></scales>
<clustering>
<clus scale="   23.044">  2  9  1 -1</clus>
<clus scale="   90.445">  7  8 -1 -1</clus>
<clus scale="   92.110">  5  6 -1 -1</clus>
<clus scale="  107.059">  2  7  1 -1</clus>
<clus scale="   23.044">  2  5  1 -1</clus>
</clustering>
</event>
<event>
 9    1  0.1610296E-005  0.2204880E+03  0.7546771E-02  0.1133820E+00
         21   -1    0    0  501  502  0.00000000000E+00  0.00000000000E+00  0.14046621719E+04  0.14046621719E+04  0.00000000000E+00 0.  1.
          1   -1    0    0  502    0 -0.00000000000E+00 -0.00000000000E+00 -0.50113575669E+02  0.50113575669E+02  0.00000000000E+00 0. -1.
         23    2    1    2    0    0 -0.19953282097E+03 -0.35110280312E+02  0.33081605345E+03  0.39828092799E+03  0.90235015135E+02 0.  0.
         23    2    1    2    0    0  0.18886990065E+03  0.62058501929E+02  0.98238654097E+03  0.10060032719E+04  0.86233231561E+02 0.  0.
        -11    1    4    4    0    0  0.63407612185E+02  0.64879200711E+02  0.37923007159E+03  0.38992984390E+03  0.00000000000E+00 0. -1.
         11    1    4    4    0    0  0.12546228847E+03 -0.28206987816E+01  0.60315646938E+03  0.61607342803E+03  0.00000000000E+00 0.  1.
        -11    1    3    3    0    0 -0.44105240944E+02  0.12161341572E+02  0.14203376506E+03  0.14922051107E+03  0.00000000000E+00 0.  1.
         11    1    3    3    0    0 -0.15542758002E+03 -0.47271621884E+02  0.18878228839E+03  0.24906041692E+03  0.00000000000E+00 0. -1.
          1    1    1    2  501    0  0.10662920311E+02 -0.26948221618E+02  0.41346001819E+02  0.50491547653E+02  0.00000000000E+00 0. -1.
<scales pt_clust_5="13000.00000" pt_clust_6="13000.00000" pt_clust_7="13000.00000" pt_clust_8="13000.00000" pt_clust_9="28.98112"></scales>
<clustering>
<clus scale="   28.981">  1  9  2 -1</clus>
<clus scale="   86.233">  5  6 -1 -1</clus>
<clus scale="   90.235">  7  8 -1 -1</clus>
<clus scale="  218.881">  1  5  2 -1</clus>
<clus scale="   28.981">  1  5  2 -1</clus>
</clustering>
</event>
<event>
 9    1  0.1610296E-005  0.1062204E+03  0.7546771E-02  0.1270108E+00
          1   -1    0    0  502    0 -0.00000000000E+00  0.00000000000E+00  0.96717626620E+02  0.96717626620E+02  0.00000000000E+00 0. -1.
         21   -1    0    0  501  502  0.00000000000E+00 -0.00000000000E+00 -0.18164270308E+03  0.18164270308E+03  0.00000000000E+00 0.  1.
         23    2    1    2    0    0 -0.21464759552E+02  0.11322064658E+02  0.20757882558E+02  0.10814825907E+03  0.10332584963E+03 0.  0.
         23    2    1    2    0    0  0.31641868223E+02  0.15590455482E+02 -0.85725433254E+02  0.13519550146E+03  0.98410891583E+02 0.  0.
        -11    1    4    4    0    0  0.55466255051E+02  0.28937913084E+02 -0.87799359824E+02  0.10780832922E+03  0.00000000000E+00 0.  1.
         11    1    4    4    0    0 -0.23824386828E+02 -0.13347457602E+02  0.20739265704E+01  0.27387172245E+02  0.00000000000E+00 0. -1.
        -11    1    3    3    0    0  0.33117774599E+02 -0.17756564913E+02  0.26582480089E+02  0.46029456217E+02  0.00000000000E+00 0.  1.
         11    1    3    3    0    0 -0.54582534151E+02  0.29078629572E+02 -0.58245975310E+01  0.62118802858E+02  0.00000000000E+00 0. -1.
          1    1    1    2  501    0 -0.10177108671E+02 -0.26912520140E+02 -0.19957525762E+02  0.35016569160E+02  0.00000000000E+00 0. -1.
<scales pt_clust_5="13000.00000" pt_clust_6="13000.00000" pt_clust_7="13000.00000" pt_clust_8="13000.00000" pt_clust_9="28.77251"></scales>
<clustering>
<clus scale="   28.773">  2  9  1 -1</clus>
<clus scale="   98.411">  5  6 -1 -1</clus>
<clus scale="  101.446">  2  5  1 -1</clus>
<clus scale="  103.326">  7  8 -1 -1</clus>
<clus scale="   28.773">  2  5  1 -1</clus>
</clustering>
</event>
<event>
 9    1  0.1610296E-005  0.9328606E+02  0.7546771E-02  0.1295575E+00
          1   -1    0    0  502    0 -0.00000000000E+00  0.00000000000E+00  0.28260944564E+03  0.28260944564E+03  0.00000000000E+00 0. -1.
         21   -1    0    0  501  502  0.00000000000E+00 -0.00000000000E+00 -0.55147081119E+02  0.55147081119E+02  0.00000000000E+00 0.  1.
         23    2    1    2    0    0  0.14592245054E+02 -0.11959456632E+02  0.18479456914E+03  0.20639800334E+03  0.89973000284E+02 0.  0.
         23    2    1    2    0    0 -0.35768986758E+02 -0.39167830345E+01  0.31906446766E+02  0.10278727915E+03  0.90842951332E+02 0.  0.
        -11    1    4    4    0    0  0.42442322865E+01  0.38389758390E+02  0.61350353571E+01  0.39107872811E+02  0.00000000000E+00 0.  1.
         11    1    4    4    0    0 -0.40013219044E+02 -0.42306541425E+02  0.25771411409E+02  0.63679406338E+02  0.00000000000E+00 0. -1.
        -13    1    3    3    0    0  0.35373950210E+02 -0.39029832285E+02  0.76714147612E+02  0.93057533846E+02  0.00000000000E+00 0. -1.
         13    1    3    3    0    0 -0.20781705156E+02  0.27070375654E+02  0.10808042153E+03  0.11334046949E+03  0.00000000000E+00 0.  1.
          1    1    1    2  501    0  0.21176741704E+02  0.15876239666E+02  0.10761348616E+02  0.28571244270E+02  0.00000000000E+00 0. -1.
<scales pt_clust_5="13000.00000" pt_clust_6="13000.00000" pt_clust_7="13000.00000" pt_clust_8="13000.00000" pt_clust_9="26.46714"></scales>
<clustering>
<clus scale="   26.467">  2  9  1 -1</clus>
<clus scale="   89.973">  7  8 -1 -1</clus>
<clus scale="   90.843">  5  6 -1 -1</clus>
<clus scale="   92.439">  1  7  2 -1</clus>
<clus scale="   26.467">  2  5  1 -1</clus>
</clustering>
</event>
<event>
 9    1  0.1610296E-005  0.1050609E+03  0.7546771E-02  0.1271378E+00
          1   -1    0    0  502    0 -0.00000000000E+00  0.00000000000E+00  0.41549710156E+03  0.41549710156E+03  0.00000000000E+00 0. -1.
         21   -1    0    0  501  502  0.00000000000E+00 -0.00000000000E+00 -0.31206307115E+03  0.31206307115E+03  0.00000000000E+00 0. -1.
         23    2    1    2    0    0  0.66593268681E+02 -0.24857828853E+02  0.23904484869E+03  0.26630602772E+03  0.93401743162E+02 0.  0.
         23    2    1    2    0    0 -0.14874598025E+02  0.25119408365E+02  0.14644347516E+03  0.17449725533E+03  0.90284895520E+02 0.  0.
        -13    1    4    4    0    0 -0.47197880319E+02  0.35618055795E+02  0.10844665364E+03  0.12351907743E+03  0.00000000000E+00 0.  1.
         13    1    4    4    0    0  0.32323282294E+02 -0.10498647430E+02  0.37996821525E+02  0.50978177901E+02  0.00000000000E+00 0. -1.
        -13    1    3    3    0    0  0.57923530107E+02  0.27406097284E+02  0.12108952074E+03  0.13699964066E+03  0.00000000000E+00 0.  1.
         13    1    3    3    0    0  0.86697385745E+01 -0.52263926137E+02  0.11795532795E+03  0.12930638706E+03  0.00000000000E+00 0. -1.
          1    1    1    2  501    0 -0.51718670656E+02 -0.26157951172E+00 -0.28205429343E+03  0.28675688965E+03  0.00000000000E+00 0. -1.
<scales pt_clust_5="13000.00000" pt_clust_6="13000.00000" pt_clust_7="13000.00000" pt_clust_8="13000.00000" pt_clust_9="51.71933"></scales>
<clustering>
<clus scale="   51.719">  2  9  1 -1</clus>
<clus scale="   90.285">  5  6 -1 -1</clus>
<clus scale="   93.402">  7  8 -1 -1</clus>
<clus scale="  102.300">  2  5  1 -1</clus>
<clus scale="   51.719">  2  5  1 -1</clus>
</clustering>
</event>
<event>
 9    1  0.1610296E-005  0.2007030E+03  0.7546771E-02  0.1162132E+00
          1   -1    0    0  502    0 -0.00000000000E+00  0.00000000000E+00  0.93146745726E+03  0.93146745726E+03  0.00000000000E+00 0. -1.
         21   -1    0    0  501  502  0.00000000000E+00 -0.00000000000E+00 -0.93958115497E+02  0.93958115497E+02  0.00000000000E+00 0.  1.
         23    2    1    2    0    0  0.93398975517E+02 -0.67314113802E+02  0.75736026272E+02  0.16625370336E+03  0.93004245398E+02 0.  0.
         23    2    1    2    0    0  0.78115063622E+02  0.16007879011E+03  0.43173908843E+03  0.47583788730E+03  0.91081679326E+02 0.  0.
        -11    1    3    3    0    0  0.48048071404E+02 -0.82749520970E+02  0.68787724863E+02  0.11784672875E+03  0.00000000000E+00 0. -1.
         11    1    3    3    0    0  0.45350904114E+02  0.15435407168E+02  0.69483014090E+01  0.48406974609E+02  0.00000000000E+00 0.  1.
        -13    1    4    4    0    0  0.57729988230E+02  0.13846433819E+03  0.41598458167E+03  0.44220843126E+03  0.00000000000E+00 0.  1.
         13    1    4    4    0    0  0.20385075392E+02  0.21614451921E+02  0.15754506760E+02  0.33629456044E+02  0.00000000000E+00 0. -1.
          1    1    1    2  501    0 -0.17151403914E+03 -0.92764676306E+02  0.33003422706E+03  0.38333398209E+03  0.00000000000E+00 0. -1.
<scales pt_clust_5="13000.00000" pt_clust_6="13000.00000" pt_clust_7="13000.00000" pt_clust_8="13000.00000" pt_clust_9="178.84578"></scales>
<clustering>
<clus scale="   91.082">  7  8 -1 -1</clus>
<clus scale="   93.004">  5  6 -1 -1</clus>
<clus scale="  148.001">  1  5  2 -1</clus>
<clus scale="  178.846">  2  9  1 -1</clus>
<clus scale="  178.846">  2  5  1 -1</clus>
</clustering>
</event>
<event>
 9    1  0.2048975E-005  0.9459913E+02  0.7546771E-02  0.1293882E+00
         -2   -1    0    0    0  501 -0.00000000000E+00  0.00000000000E+00  0.16749042229E+03  0.16749042229E+03  0.00000000000E+00 0.  1.
         21   -1    0    0  501  502  0.00000000000E+00 -0.00000000000E+00 -0.26841101286E+03  0.26841101286E+03  0.00000000000E+00 0. -1.
         23    2    1    2    0    0  0.10668410293E+02  0.63816120796E+01  0.13074950225E+03  0.16117060806E+03  0.93413021636E+02 0.  0.
         23    2    1    2    0    0 -0.35181766746E+02 -0.58874906443E+01 -0.94732622692E+02  0.13561569661E+03  0.90249255444E+02 0.  0.
        -11    1    3    3    0    0 -0.21272591195E+02  0.40539184885E+02  0.49512258793E+02  0.67434504655E+02  0.00000000000E+00 0. -1.
         11    1    3    3    0    0  0.31941001488E+02 -0.34157572805E+02  0.81237243462E+02  0.93736103404E+02  0.00000000000E+00 0.  1.
        -11    1    4    4    0    0 -0.12213002676E+02 -0.24619543642E+02  0.80564152530E+01  0.28638875506E+02  0.00000000000E+00 0.  1.
         11    1    4    4    0    0 -0.22968764069E+02  0.18732052998E+02 -0.10278903794E+03  0.10697682111E+03  0.00000000000E+00 0. -1.
         -2    1    1    2    0  502  0.24513356452E+02 -0.49412143533E+00 -0.13693747014E+03  0.13911513048E+03  0.00000000000E+00 0.  1.
<scales pt_clust_5="13000.00000" pt_clust_6="13000.00000" pt_clust_7="13000.00000" pt_clust_8="13000.00000" pt_clust_9="24.51834"></scales>
<clustering>
<clus scale="   24.518">  2  9  1 -1</clus>
<clus scale="   90.249">  7  8 -1 -1</clus>
<clus scale="   91.476">  2  7  1 -1</clus>
<clus scale="   93.413">  5  6 -1 -1</clus>
<clus scale="   24.518">  2  5  1 -1</clus>
</clustering>
</event>
<event>
 9    1  0.1610296E-005  0.1064214E+03  0.7546771E-02  0.1267560E+00
         21   -1    0    0  501  502  0.00000000000E+00  0.00000000000E+00  0.11444775449E+03  0.11444775449E+03  0.00000000000E+00 0. -1.
          2   -1    0    0  502    0 -0.00000000000E+00 -0.00000000000E+00 -0.42990508994E+03  0.42990508994E+03  0.00000000000E+00 0. -1.
         23    2    1    2    0    0  0.81221650155E-01  0.63848097691E+02 -0.31093832564E+03  0.32942766634E+03  0.88109924649E+02 0.  0.
         23    2    1    2    0    0 -0.26631086197E+02 -0.46869892770E+02 -0.81842524699E+02  0.13142619185E+03  0.87570791107E+02 0.  0.
        -11    1    4    4    0    0 -0.17459227786E+02  0.13504448596E+02  0.74089104014E+01  0.23282755853E+02  0.00000000000E+00 0.  1.
         11    1    4    4    0    0 -0.91718584105E+01 -0.60374341366E+02 -0.89251435101E+02  0.10814343600E+03  0.00000000000E+00 0. -1.
        -13    1    3    3    0    0 -0.27735354080E+02 -0.95658321460E+01 -0.66307366740E+02  0.72508081581E+02  0.00000000000E+00 0.  1.
         13    1    3    3    0    0  0.27816575730E+02  0.73413929837E+02 -0.24463095890E+03  0.25691958476E+03  0.00000000000E+00 0. -1.
          2    1    1    2  501    0  0.26549864547E+02 -0.16978204921E+02  0.77323514887E+02  0.83498986247E+02  0.00000000000E+00 0. -1.
<scales pt_clust_5="13000.00000" pt_clust_6="13000.00000" pt_clust_7="13000.00000" pt_clust_8="13000.00000" pt_clust_9="31.51436"></scales>
<clustering>
<clus scale="   31.514">  1  9  2 -1</clus>
<clus scale="   87.571">  5  6 -1 -1</clus>
<clus scale="   88.110">  7  8 -1 -1</clus>
<clus scale="  105.975">  1  5  2 -1</clus>
<clus scale="   31.514">  1  5  2 -1</clus>
</clustering>
</event>
<event>
 9    1  0.1610296E-005  0.2016301E+03  0.7546771E-02  0.1172114E+00
          1   -1    0    0  502    0 -0.00000000000E+00  0.00000000000E+00  0.60341994929E+03  0.60341994929E+03  0.00000000000E+00 0. -1.
         21   -1    0    0  501  502  0.00000000000E+00 -0.00000000000E+00 -0.13698495452E+03  0.13698495452E+03  0.00000000000E+00 0. -1.
         23    2    1    2    0    0  0.23915585459E+02 -0.62917199268E+02  0.28426739570E+03  0.30703802471E+03  0.94519136534E+02 0.  0.
         23    2    1    2    0    0  0.14624016405E+03  0.11995064196E+03  0.12951194091E+03  0.24634171765E+03  0.90202865403E+02 0.  0.
        -11    1    4    4    0    0  0.65696995024E+02  0.56810517520E+02  0.76261946882E+01  0.87187664847E+02  0.00000000000E+00 0.  1.
         11    1    4    4    0    0  0.80543169029E+02  0.63140124442E+02  0.12188574622E+03  0.15915405280E+03  0.00000000000E+00 0. -1.
        -13    1    3    3    0    0  0.48897103571E+02 -0.31410916462E+02  0.24126447306E+03  0.24816550601E+03  0.00000000000E+00 0. -1.
         13    1    3    3    0    0 -0.24981518112E+02 -0.31506282806E+02  0.43002922640E+02  0.58872518708E+02  0.00000000000E+00 0.  1.
          1    1    1    2  501    0 -0.17015574951E+03 -0.57033442694E+02  0.52655658169E+02  0.18702516145E+03  0.00000000000E+00 0. -1.
<scales pt_clust_5="13000.00000" pt_clust_6="13000.00000" pt_clust_7="13000.00000" pt_clust_8="13000.00000" pt_clust_9="180.32786"></scales>
<clustering>
<clus scale="   90.203">  5  6 -1 -1</clus>
<clus scale="   94.519">  7  8 -1 -1</clus>
<clus scale="  116.036">  1  7  2 -1</clus>
<clus scale="  180.328">  2  9  1 -1</clus>
<clus scale="  180.328">  2  5  1 -1</clus>
</clustering>
</event>
<event>
 9    1  0.1610296E-005  0.9158503E+02  0.7546771E-02  0.1299701E+00
         -1   -1    0    0    0  501 -0.00000000000E+00  0.00000000000E+00  0.17857833519E+03  0.17857833519E+03  0.00000000000E+00 0.  1.
         21   -1    0    0  501  502  0.00000000000E+00 -0.00000000000E+00 -0.35362196271E+03  0.35362196271E+03  0.00000000000E+00 0.  1.
         23    2    1    2    0    0  0.31749924223E+01 -0.30839894747E+00  0.11346415047E+03  0.14556448043E+03  0.91130284949E+02 0.  0.
         23    2    1    2    0    0  0.54359708845E+02 -0.12758991350E+02 -0.15205215250E+02  0.10703737445E+03  0.90044606457E+02 0.  0.
        -11    1    4    4    0    0 -0.16366540578E+02  0.21307340430E+02 -0.88065921009E+01  0.28274060040E+02  0.00000000000E+00 0.  1.
         11    1    4    4    0    0  0.70726249423E+02 -0.34066331781E+02 -0.63986231495E+01  0.78763314409E+02  0.00000000000E+00 0. -1.
        -13    1    3    3    0    0  0.34519659680E+02  0.66689818715E+01  0.90218194080E+01  0.36297044633E+02  0.00000000000E+00 0. -1.
         13    1    3    3    0    0 -0.31344667258E+02 -0.69773808190E+01  0.10444233106E+03  0.10926743580E+03  0.00000000000E+00 0.  1.
         -1    1    1    2    0  502 -0.57534701268E+02  0.13067390298E+02 -0.27330256274E+03  0.27959844302E+03  0.00000000000E+00 0.  1.
<scales pt_clust_5="13000.00000" pt_clust_6="13000.00000" pt_clust_7="13000.00000" pt_clust_8="13000.00000" pt_clust_9="58.99999"></scales>
<clustering>
<clus scale="   59.000">  2  9  1 -1</clus>
<clus scale="   90.045">  5  6 -1 -1</clus>
<clus scale="   90.505">  2  5  1 -1</clus>
<clus scale="   91.130">  7  8 -1 -1</clus>
<clus scale="   59.000">  2  5  1 -1</clus>
</clustering>
</event>
<event>
 9    1  0.1610296E-005  0.9702634E+02  0.7546771E-02  0.1286916E+00
         -3   -1    0    0    0  501 -0.00000000000E+00  0.00000000000E+00  0.51564686623E+03  0.51564686623E+03  0.00000000000E+00 0.  1.
         21   -1    0    0  501  502  0.00000000000E+00 -0.00000000000E+00 -0.45609820018E+02  0.45609820018E+02  0.00000000000E+00 0.  1.
         23    2    1    2    0    0 -0.27195951045E+02 -0.21313206267E+02  0.37625375289E+03  0.38861333072E+03  0.90882130980E+02 0.  0.
         23    2    1    2    0    0 -0.70968214974E+01  0.42956783663E+02  0.82473257233E+02  0.13054400153E+03  0.91346855657E+02 0.  0.
        -11    1    3    3    0    0  0.87929497038E+01 -0.50249595183E+02  0.19216010941E+03  0.19881610958E+03  0.00000000000E+00 0. -1.
         11    1    3    3    0    0 -0.35988900748E+02  0.28936388916E+02  0.18409364348E+03  0.18979722114E+03  0.00000000000E+00 0.  1.
        -13    1    4    4    0    0  0.24589088100E+02  0.34045096427E+02  0.87680723010E+02  0.97219344947E+02  0.00000000000E+00 0. -1.
         13    1    4    4    0    0 -0.31685909598E+02  0.89116872360E+01 -0.52074657776E+01  0.33324656581E+02  0.00000000000E+00 0.  1.
         -3    1    1    2    0  502  0.34292772542E+02 -0.21643577397E+02  0.11310036087E+02  0.42099354003E+02  0.00000000000E+00 0.  1.
<scales pt_clust_5="13000.00000" pt_clust_6="13000.00000" pt_clust_7="13000.00000" pt_clust_8="13000.00000" pt_clust_9="40.55168"></scales>
<clustering>
<clus scale="   40.552">  2  9  1 -1</clus>
<clus scale="   90.882">  5  6 -1 -1</clus>
<clus scale="   91.347">  7  8 -1 -1</clus>
<clus scale="   96.589">  1  5  2 -1</clus>
<clus scale="   40.552">  2  5  1 -1</clus>
</clustering>
</event>
<event>
 9    1  0.1610296E-005  0.9771582E+02  0.7546771E-02  0.1285702E+00
         -2   -1    0    0    0  501 -0.00000000000E+00  0.00000000000E+00  0.24424409324E+03  0.24424409324E+03  0.00000000000E+00 0.  1.
         21   -1    0    0  501  502  0.00000000000E+00 -0.00000000000E+00 -0.13200426940E+03  0.13200426940E+03  0.00000000000E+00 0.  1.
         23    2    1    2    0    0  0.13835922269E+02  0.21317659370E+02  0.15753816932E+03  0.18427969333E+03  0.92167538951E+02 0.  0.
         23    2    1    2    0    0 -0.45568732504E+02 -0.33177223868E+02  0.28395902252E+02  0.11086094671E+03  0.91140466720E+02 0.  0.
        -13    1    3    3    0    0  0.22845577006E+02  0.48023065336E+02  0.14299642134E+03  0.15256510646E+03  0.00000000000E+00 0.  1.
         13    1    3    3    0    0 -0.90096547366E+01 -0.26705405966E+02  0.14541747981E+02  0.31714586875E+02  0.00000000000E+00 0. -1.
        -13    1    4    4    0    0  0.10865948754E+02 -0.46057154059E+02  0.23349162418E+01  0.47379131653E+02  0.00000000000E+00 0. -1.
         13    1    4    4    0    0 -0.56434681259E+02  0.12879930191E+02  0.26060986011E+02  0.63481815052E+02  0.00000000000E+00 0.  1.
         -2    1    1    2    0  502  0.31732810235E+02  0.11859564498E+02 -0.73694247734E+02  0.81107722595E+02  0.00000000000E+00 0.  1.
<scales pt_clust_5="13000.00000" pt_clust_6="13000.00000" pt_clust_7="13000.00000" pt_clust_8="13000.00000" pt_clust_9="33.87655"></scales>
<clustering>
<clus scale="   33.877">  2  9  1 -1</clus>
<clus scale="   91.140">  7  8 -1 -1</clus>
<clus scale="   92.168">  5  6 -1 -1</clus>
<clus scale="   96.748">  2  7  1 -1</clus>
<clus scale="   33.877">  2  5  1 -1</clus>
</clustering>
</event>
<event>
 9    1  0.1610296E-005  0.9132195E+02  0.7546771E-02  0.1301557E+00
         21   -1    0    0  501  502  0.00000000000E+00  0.00000000000E+00  0.29751796180E+03  0.29751796180E+03  0.00000000000E+00 0. -1.
         -2   -1    0    0    0  501 -0.00000000000E+00 -0.00000000000E+00 -0.40333843398E+02  0.40333843398E+02  0.00000000000E+00 0.  1.
         23    2    1    2    0    0  0.31728395696E+01  0.91390241900E+01  0.68732082947E+02  0.11385689492E+03  0.90253557379E+02 0.  0.
         23    2    1    2    0    0  0.18874983637E+02 -0.21412423614E+02  0.16851323582E+03  0.19183439765E+03  0.87114686389E+02 0.  0.
        -11    1    4    4    0    0 -0.24514442826E+02 -0.86818751879E+01  0.11492828914E+02  0.28432692104E+02  0.00000000000E+00 0.  1.
         11    1    4    4    0    0  0.43389426463E+02 -0.12730548426E+02  0.15702040690E+03  0.16340170555E+03  0.00000000000E+00 0. -1.
        -13    1    3    3    0    0 -0.34658784371E+02  0.25943111348E+02  0.14553048840E+02  0.45673488930E+02  0.00000000000E+00 0.  1.
         13    1    3    3    0    0  0.37831623940E+02 -0.16804087158E+02  0.54179034106E+02  0.68183405986E+02  0.00000000000E+00 0. -1.
         -2    1    1    2    0  502 -0.22047823207E+02  0.12273399424E+02  0.19938799638E+02  0.32160512629E+02  0.00000000000E+00 0.  1.
<scales pt_clust_5="13000.00000" pt_clust_6="13000.00000" pt_clust_7="13000.00000" pt_clust_8="13000.00000" pt_clust_9="25.23378"></scales>
<clustering>
<clus scale="   25.234">  1  9  2 -1</clus>
<clus scale="   87.115">  5  6 -1 -1</clus>
<clus scale="   88.221">  1  5  2 -1</clus>
<clus scale="   90.254">  7  8 -1 -1</clus>
<clus scale="   25.234">  1  5  2 -1</clus>
</clustering>
</event>
<event>
 9    1  0.1610296E-005  0.1533801E+03  0.7546771E-02  0.1218048E+00
          1   -1    0    0  502    0 -0.00000000000E+00  0.00000000000E+00  0.60815540112E+03  0.60815540112E+03  0.00000000000E+00 0. -1.
         21   -1    0    0  501  502  0.00000000000E+00 -0.00000000000E+00 -0.75330214667E+02  0.75330214667E+02  0.00000000000E+00 0. -1.
         23    2    1    2    0    0 -0.24717037631E+02  0.16774994928E+02  0.33145330222E+02  0.10189418144E+03  0.91605015649E+02 0.  0.
         23    2    1    2    0    0 -0.10257311009E+03 -0.40869474247E+02  0.37713859837E+03  0.40326677110E+03  0.90548381864E+02 0.  0.
        -13    1    3    3    0    0 -0.19449470616E+02  0.50849242411E+02  0.54700784830E+00  0.54444711209E+02  0.00000000000E+00 0.  1.
         13    1    3    3    0    0 -0.52675670148E+01 -0.34074247483E+02  0.32598322374E+02  0.47449470233E+02  0.00000000000E+00 0. -1.
        -13    1    4    4    0    0  0.13964556467E+02 -0.19065338504E+02  0.77571618554E+02  0.81091627032E+02  0.00000000000E+00 0.  1.
         13    1    4    4    0    0 -0.11653766656E+03 -0.21804135743E+02  0.29956697981E+03  0.32217514407E+03  0.00000000000E+00 0. -1.
          1    1    1    2  501    0  0.12729014773E+03  0.24094479319E+02  0.12254125786E+03  0.17832466324E+03  0.00000000000E+00 0. -1.
<scales pt_clust_5="13000.00000" pt_clust_6="13000.00000" pt_clust_7="13000.00000" pt_clust_8="13000.00000" pt_clust_9="123.80005"></scales>
<clustering>
<clus scale="   90.548">  7  8 -1 -1</clus>
<clus scale="   91.605">  5  6 -1 -1</clus>
<clus scale="   96.353">  1  5  2 -1</clus>
<clus scale="  123.800">  2  9  1 -1</clus>
<clus scale="  123.800">  2  5  1 -1</clus>
</clustering>
</event>
<event>
 9    1  0.1610296E-005  0.9347634E+02  0.7546771E-02  0.1295460E+00
         21   -1    0    0  501  502  0.00000000000E+00  0.00000000000E+00  0.24342002404E+03  0.24342002404E+03  0.00000000000E+00 0.  1.
          3   -1    0    0  502    0 -0.00000000000E+00 -0.00000000000E+00 -0.49089045124E+02  0.49089045124E+02  0.00000000000E+00 0. -1.
         23    2    1    2    0    0 -0.15364389634E+01  0.34710505991E+01  0.73926590391E+02  0.11874097955E+03  0.92843258345E+02 0.  0.
         23    2    1    2    0    0 -0.21886856133E+02  0.12897666328E+02  0.79073411992E+02  0.12352035068E+03  0.91429143494E+02 0.  0.
        -11    1    4    4    0    0  0.25571974213E+02 -0.15597881275E+02  0.56080483522E+02  0.63578615882E+02  0.00000000000E+00 0.  1.
         11    1    4    4    0    0 -0.47458830346E+02  0.28495547603E+02  0.22992928471E+02  0.59941734799E+02  0.00000000000E+00 0. -1.
        -11    1    3    3    0    0 -0.32647155179E+02 -0.30140263542E+02  0.50611988352E+02  0.67348686643E+02  0.00000000000E+00 0. -1.
         11    1    3    3    0    0  0.31110716215E+02  0.33611314141E+02  0.23314602040E+02  0.51392292905E+02  0.00000000000E+00 0.  1.
          3    1    1    2  501    0  0.23423295096E+02 -0.16368716927E+02  0.41330976534E+02  0.50247738937E+02  0.00000000000E+00 0. -1.
<scales pt_clust_5="13000.00000" pt_clust_6="13000.00000" pt_clust_7="13000.00000" pt_clust_8="13000.00000" pt_clust_9="28.57596"></scales>
<clustering>
<clus scale="   28.576">  1  9  2 -1</clus>
<clus scale="   91.429">  5  6 -1 -1</clus>
<clus scale="   92.072">  1  5  2 -1</clus>
<clus scale="   92.843">  7  8 -1 -1</clus>
<clus scale="   28.576">  1  5  2 -1</clus>
</clustering>
</event>
<event>
 9    1  0.1610296E-005  0.1043420E+03  0.7546771E-02  0.1279524E+00
         -2   -1    0    0    0  501 -0.00000000000E+00  0.00000000000E+00  0.21590853331E+03  0.21590853331E+03  0.00000000000E+00 0.  1.
         21   -1    0    0  501  502  0.00000000000E+00 -0.00000000000E+00 -0.14336226772E+03  0.14336226772E+03  0.00000000000E+00 0. -1.
         23    2    1    2    0    0  0.68704461287E+01  0.12462056539E+02  0.11438714444E+03  0.15505909073E+03  0.10371305087E+03 0.  0.
         23    2    1    2    0    0  0.44536929849E+02  0.21867574428E+02  0.33343403664E+02  0.10687765561E+03  0.88596398170E+02 0.  0.
        -13    1    3    3    0    0 -0.47493534525E+02  0.30224720170E+01  0.67857064512E+02  0.82881556229E+02  0.00000000000E+00 0.  1.
         13    1    3    3    0    0  0.54363980653E+02  0.94395845222E+01  0.46530079925E+02  0.72177534498E+02  0.00000000000E+00 0. -1.
        -13    1    4    4    0    0 -0.23680880776E+02 -0.10017522039E+02  0.38176402342E+01  0.25994407842E+02  0.00000000000E+00 0.  1.
         13    1    4    4    0    0  0.68217810624E+02  0.31885096467E+02  0.29525763430E+02  0.80883247767E+02  0.00000000000E+00 0. -1.
         -2    1    1    2    0  502 -0.51407375978E+02 -0.34329630968E+02 -0.75184282507E+02  0.97334054695E+02  0.00000000000E+00 0.  1.
<scales pt_clust_5="13000.00000" pt_clust_6="13000.00000" pt_clust_7="13000.00000" pt_clust_8="13000.00000" pt_clust_9="61.81619"></scales>
<clustering>
<clus scale="   61.816">  2  9  1 -1</clus>
<clus scale="   88.596">  7  8 -1 -1</clus>
<clus scale="   89.332">  2  7  1 -1</clus>
<clus scale="  103.713">  5  6 -1 -1</clus>
<clus scale="   61.816">  2  5  1 -1</clus>
</clustering>
</event>
<event>
 9    1  0.1610296E-005  0.2080601E+03  0.7546771E-02  0.1143375E+00
          1   -1    0    0  502    0 -0.00000000000E+00  0.00000000000E+00  0.19541665655E+03  0.19541665655E+03  0.00000000000E+00 0. -1.
         21   -1    0    0  501  502  0.00000000000E+00 -0.00000000000E+00 -0.39966919197E+03  0.39966919197E+03  0.00000000000E+00 0.  1.
         23    2    1    2    0    0 -0.81018087513E+02 -0.15959615185E+03  0.60693187721E+02  0.20854074429E+03  0.88151669325E+02 0.  0.
         23    2    1    2    0    0  0.72953837833E+02  0.20371957230E+03 -0.20523461602E+03  0.31186361610E+03  0.91179717260E+02 0.  0.
        -13    1    3    3    0    0 -0.50029038255E+02 -0.14132606214E+03  0.15413308406E+02  0.15071008787E+03  0.00000000000E+00 0. -1.
         13    1    3    3    0    0 -0.30989049258E+02 -0.18270089711E+02  0.45279879315E+02  0.57830656427E+02  0.00000000000E+00 0.  1.
        -13    1    4    4    0    0  0.27708695177E+02  0.11288908529E+02 -0.47172703376E+01  0.30289666285E+02  0.00000000000E+00 0. -1.
         13    1    4    4    0    0  0.45245142655E+02  0.19243066377E+03 -0.20051734569E+03  0.28157394982E+03  0.00000000000E+00 0.  1.
          1    1    1    2  501    0  0.80642496800E+01 -0.44123420451E+02 -0.59711107116E+02  0.74681488123E+02  0.00000000000E+00 0. -1.
<scales pt_clust_5="13000.00000" pt_clust_6="13000.00000" pt_clust_7="13000.00000" pt_clust_8="13000.00000" pt_clust_9="44.85430"></scales>
<clustering>
<clus scale="   44.854">  2  9  1 -1</clus>
<clus scale="   88.152">  5  6 -1 -1</clus>
<clus scale="   91.180">  7  8 -1 -1</clus>
<clus scale="  206.751">  1  5  2 -1</clus>
<clus scale="   44.854">  2  5  1 -1</clus>
</clustering>
</event>
<event>
 9    1  0.1610296E-005  0.1482809E+03  0.7546771E-02  0.1203796E+00
         -1   -1    0    0    0  501 -0.00000000000E+00  0.00000000000E+00  0.82511755730E+02  0.82511755730E+02  0.00000000000E+00 0.  1.
         21   -1    0    0  501  502  0.00000000000E+00 -0.00000000000E+00 -0.51896381155E+03  0.51896381155E+03  0.00000000000E+00 0.  1.
         23    2    1    2    0    0 -0.82147445400E+02  0.58643955624E+02 -0.52005413132E+02  0.14624804090E+03  0.92177058732E+02 0.  0.
         23    2    1    2    0    0  0.12270708156E+03 -0.99511338831E+02 -0.24148981867E+03  0.30111107486E+03  0.85970997779E+02 0.  0.
        -11    1    4    4    0    0  0.87972476020E+02 -0.10583074206E+03 -0.22083992957E+03  0.26021063966E+03  0.00000000000E+00 0.  1.
         11    1    4    4    0    0  0.34734605540E+02  0.63194032317E+01 -0.20649889109E+02  0.40900435198E+02  0.00000000000E+00 0. -1.
        -11    1    3    3    0    0  0.14641531701E+02  0.29998362376E+02 -0.15890256189E+01  0.33418575646E+02  0.00000000000E+00 0. -1.
         11    1    3    3    0    0 -0.96788977101E+02  0.28645593248E+02 -0.50416387513E+02  0.11282946526E+03  0.00000000000E+00 0.  1.
         -1    1    1    2    0  502 -0.40559636160E+02  0.40867383208E+02 -0.14295682402E+03  0.15411645152E+03  0.00000000000E+00 0.  1.
<scales pt_clust_5="13000.00000" pt_clust_6="13000.00000" pt_clust_7="13000.00000" pt_clust_8="13000.00000" pt_clust_9="57.57801"></scales>
<clustering>
<clus scale="   57.578">  2  9  1 -1</clus>
<clus scale="   85.971">  5  6 -1 -1</clus>
<clus scale="   92.177">  7  8 -1 -1</clus>
<clus scale="  144.505">  2  5  1 -1</clus>
<clus scale="   57.578">  2  5  1 -1</clus>
</clustering>
</event>
<event>
 9    1  0.1610296E-005  0.9345570E+02  0.7546771E-02  0.1295053E+00
         21   -1    0    0  501  502  0.00000000000E+00  0.00000000000E+00  0.48439419940E+02  0.48439419940E+02  0.00000000000E+00 0.  1.
          3   -1    0    0  502    0 -0.00000000000E+00 -0.00000000000E+00 -0.42497042538E+03  0.42497042538E+03  0.00000000000E+00 0. -1.
         23    2    1    2    0    0  0.32603635375E+02  0.15480732383E+02 -0.23087161954E+03  0.25121934739E+03  0.92232346167E+02 0.  0.
         23    2    1    2    0    0  0.20174589172E+02 -0.36886149239E+01 -0.13896629001E+03  0.16769836499E+03  0.91599628445E+02 0.  0.
        -11    1    4    4    0    0 -0.18575270531E+01 -0.46065851858E+02 -0.67727073800E+02  0.81929662759E+02  0.00000000000E+00 0.  1.
         11    1    4    4    0    0  0.22032116225E+02  0.42377236934E+02 -0.71239216211E+02  0.85768702228E+02  0.00000000000E+00 0. -1.
        -11    1    3    3    0    0  0.55613638586E+02 -0.17841091437E+02 -0.14291447010E+03  0.15438823499E+03  0.00000000000E+00 0.  1.
         11    1    3    3    0    0 -0.23010003211E+02  0.33321823820E+02 -0.87957149436E+02  0.96831112394E+02  0.00000000000E+00 0. -1.
          3    1    1    2  501    0 -0.52778224548E+02 -0.11792117459E+02 -0.66930958945E+01  0.54492132948E+02  0.00000000000E+00 0. -1.
<scales pt_clust_5="13000.00000" pt_clust_6="13000.00000" pt_clust_7="13000.00000" pt_clust_8="13000.00000" pt_clust_9="54.07952"></scales>
<clustering>
<clus scale="   54.080">  1  9  2 -1</clus>
<clus scale="   91.600">  5  6 -1 -1</clus>
<clus scale="   92.232">  7  8 -1 -1</clus>
<clus scale="   92.831">  1  5  2 -1</clus>
<clus scale="   54.080">  1  5  2 -1</clus>
</clustering>
</event>
<event>
 9    1  0.1610296E-005  0.1045701E+03  0.7546771E-02  0.1271473E+00
          1   -1    0    0  502    0 -0.00000000000E+00  0.00000000000E+00  0.27229210181E+03  0.27229210181E+03  0.00000000000E+00 0. -1.
         21   -1    0    0  501  502  0.00000000000E+00 -0.00000000000E+00 -0.81527382279E+02  0.81527382279E+02  0.00000000000E+00 0.  1.
         23    2    1    2    0    0 -0.43310106029E+02  0.14040600088E+01  0.17523907561E+03  0.20288749544E+03  0.92611368193E+02 0.  0.
         23    2    1    2    0    0  0.62844540682E+02 -0.14709117715E+02  0.38095979452E+02  0.11825112661E+03  0.91467102595E+02 0.  0.
        -11    1    3    3    0    0 -0.33382594396E+02  0.42684266032E+02  0.13002134210E+03  0.14086125648E+03  0.00000000000E+00 0. -1.
         11    1    3    3    0    0 -0.99275116323E+01 -0.41280206023E+02  0.45217733509E+02  0.62026238965E+02  0.00000000000E+00 0.  1.
        -13    1    4    4    0    0  0.81993310390E+02 -0.29719034355E+02  0.25562526501E+02  0.90882158385E+02  0.00000000000E+00 0.  1.
         13    1    4    4    0    0 -0.19148769708E+02  0.15009916640E+02  0.12533452951E+02  0.27368968226E+02  0.00000000000E+00 0. -1.
          1    1    1    2  501    0 -0.19534434653E+02  0.13305057706E+02 -0.22570335526E+02  0.32680862038E+02  0.00000000000E+00 0. -1.
<scales pt_clust_5="13000.00000" pt_clust_6="13000.00000" pt_clust_7="13000.00000" pt_clust_8="13000.00000" pt_clust_9="23.63512"></scales>
<clustering>
<clus scale="   23.635">  2  9  1 -1</clus>
<clus scale="   91.467">  7  8 -1 -1</clus>
<clus scale="   92.611">  5  6 -1 -1</clus>
<clus scale="  103.558">  2  7  1 -1</clus>
<clus scale="   23.635">  2  5  1 -1</clus>
</clustering>
</event>
<event>
 9    1  0.1610296E-005  0.2812192E+03  0.7546771E-02  0.1123795E+00
         21   -1    0    0  501  502  0.00000000000E+00  0.00000000000E+00  0.57072423990E+03  0.57072423990E+03  0.00000000000E+00 0.  1.
         -1   -1    0    0    0  501 -0.00000000000E+00 -0.00000000000E+00 -0.79334808326E+03  0.79334808326E+03  0.00000000000E+00 0.  1.
         23    2    1    2    0    0 -0.73231729764E+02 -0.46956457368E+02 -0.37590770541E+02  0.14015062897E+03  0.10325375363E+03 0.  0.
         23    2    1    2    0    0  0.18355862385E+03  0.28691499494E+03 -0.62146051203E+03  0.71380304818E+03  0.85367680446E+02 0.  0.
        -13    1    3    3    0    0 -0.30375065846E+02 -0.73260553229E+02 -0.34735526427E+01  0.79383996199E+02  0.00000000000E+00 0.  1.
         13    1    3    3    0    0 -0.42856663918E+02  0.26304095861E+02 -0.34117217898E+02  0.60766632771E+02  0.00000000000E+00 0. -1.
        -13    1    4    4    0    0  0.23072652094E+02  0.10298222671E+03 -0.15831891898E+03  0.19026972013E+03  0.00000000000E+00 0. -1.
         13    1    4    4    0    0  0.16048597176E+03  0.18393276823E+03 -0.46314159306E+03  0.52353332805E+03  0.00000000000E+00 0.  1.
         -1    1    1    2    0  502 -0.11032689409E+03 -0.23995853757E+03  0.43642743921E+03  0.51011864601E+03  0.00000000000E+00 0.  1.
<scales pt_clust_5="13000.00000" pt_clust_6="13000.00000" pt_clust_7="13000.00000" pt_clust_8="13000.00000" pt_clust_9="267.94888"></scales>
<clustering>
<clus scale="   85.368">  7  8 -1 -1</clus>
<clus scale="  103.254">  5  6 -1 -1</clus>
<clus scale="  135.015">  2  5  1 -1</clus>
<clus scale="  267.949">  1  9  2 -1</clus>
<clus scale="  267.949">  1  5  2 -1</clus>
</clustering>
</event>
<event>
 9    1  0.1610296E-005  0.9780581E+02  0.7546771E-02  0.1287531E+00
          2   -1    0    0  502    0 -0.00000000000E+00  0.00000000000E+00  0.32123701533E+03  0.32123701533E+03  0.00000000000E+00 0. -1.
         21   -1    0    0  501  502  0.00000000000E+00 -0.00000000000E+00 -0.94146047899E+02  0.94146047899E+02  0.00000000000E+00 0. -1.
         23    2    1    2    0    0 -0.73873810550E+01 -0.26079136536E+02  0.15288809255E+03  0.18168721328E+03  0.94343944503E+02 0.  0.
         23    2    1    2    0    0  0.34517044542E+02  0.45375834552E+01  0.13381537489E+03  0.16474871581E+03  0.89574375671E+02 0.  0.
        -11    1    4    4    0    0  0.67188766216E+00  0.30622830754E+02  0.76891690449E+01  0.31580571829E+02  0.00000000000E+00 0.  1.
         11    1    4    4    0    0  0.33845156880E+02 -0.26085247299E+02  0.12612620584E+03  0.13316814398E+03  0.00000000000E+00 0. -1.
        -11    1    3    3    0    0  0.30611323531E+02 -0.43133046212E+02  0.10915374888E+03  0.12129325496E+03  0.00000000000E+00 0. -1.
         11    1    3    3    0    0 -0.37998704586E+02  0.17053909676E+02  0.43734343669E+02  0.60393958320E+02  0.00000000000E+00 0.  1.
          2    1    1    2  501    0 -0.27129663487E+02  0.21541553081E+02 -0.59612500003E+02  0.68947134144E+02  0.00000000000E+00 0. -1.
<scales pt_clust_5="13000.00000" pt_clust_6="13000.00000" pt_clust_7="13000.00000" pt_clust_8="13000.00000" pt_clust_9="34.64184"></scales>
<clustering>
<clus scale="   34.642">  2  9  1 -1</clus>
<clus scale="   89.574">  5  6 -1 -1</clus>
<clus scale="   93.214">  2  5  1 -1</clus>
<clus scale="   94.344">  7  8 -1 -1</clus>
<clus scale="   34.642">  2  5  1 -1</clus>
</clustering>
</event>
<event>
 9    1  0.1610296E-005  0.2070101E+03  0.7546771E-02  0.1172033E+00
         21   -1    0    0  501  502  0.00000000000E+00  0.00000000000E+00  0.25420285673E+03  0.25420285673E+03  0.00000000000E+00 0. -1.
          1   -1    0    0  502    0 -0.00000000000E+00 -0.00000000000E+00 -0.25454254538E+03  0.25454254538E+03  0.00000000000E+00 0. -1.
         23    2    1    2    0    0 -0.45685225754E+02 -0.30997522109E+02  0.26401501735E+02  0.11061884775E+03  0.92149356773E+02 0.  0.
         23    2    1    2    0    0 -0.24215436506E+01  0.19991646601E+03  0.49105540969E+01  0.21966170125E+03  0.90855336654E+02 0.  0.
        -11    1    3    3    0    0 -0.33702145362E+02  0.25447753437E+02 -0.86451499675E+01  0.43106395986E+02  0.00000000000E+00 0. -1.
         11    1    3    3    0    0 -0.11983080393E+02 -0.56445275546E+02  0.35046651703E+02  0.67512451760E+02  0.00000000000E+00 0.  1.
        -13    1    4    4    0    0 -0.20591901473E+02  0.14365371861E+03 -0.33781997680E+02  0.14900214980E+03  0.00000000000E+00 0. -1.
         13    1    4    4    0    0  0.18170357822E+02  0.56262747398E+02  0.38692551777E+02  0.70659551451E+02  0.00000000000E+00 0.  1.
          1    1    1    2  501    0  0.48106769405E+02 -0.16891894390E+03 -0.31651744478E+02  0.17846485312E+03  0.00000000000E+00 0. -1.
<scales pt_clust_5="13000.00000" pt_clust_6="13000.00000" pt_clust_7="13000.00000" pt_clust_8="13000.00000" pt_clust_9="186.00679"></scales>
<clustering>
<clus scale="   90.855">  7  8 -1 -1</clus>
<clus scale="   92.149">  5  6 -1 -1</clus>
<clus scale="  107.422">  2  5  1 -1</clus>
<clus scale="  186.007">  1  9  2 -1</clus>
<clus scale="  186.007">  1  5  2 -1</clus>
</clustering>
</event>
<event>
 9    1  0.1610296E-005  0.9364387E+02  0.7546771E-02  0.1296637E+00
         21   -1    0    0  501  502  0.00000000000E+00  0.00000000000E+00  0.14142594695E+03  0.14142594695E+03  0.00000000000E+00 0.  1.
          1   -1    0    0  502    0 -0.00000000000E+00 -0.00000000000E+00 -0.18307770253E+03  0.18307770253E+03  0.00000000000E+00 0. -1.
         23    2    1    2    0    0  0.23240849596E+01  0.34284880705E+02 -0.89084484938E+02  0.12891982882E+03  0.86622297301E+02 0.  0.
         23    2    1    2    0    0 -0.32469207896E+02  0.89285580725E+01 -0.30483012296E+02  0.10152536796E+03  0.90797674476E+02 0.  0.
        -11    1    4    4    0    0 -0.13969896614E+02  0.31417774732E+02  0.22483167691E+02  0.41081959666E+02  0.00000000000E+00 0.  1.
         11    1    4    4    0    0 -0.18499311282E+02 -0.22489216660E+02 -0.52966179987E+02  0.60443408295E+02  0.00000000000E+00 0. -1.
        -13    1    3    3    0    0 -0.14412785306E+02  0.60416331745E+02 -0.61298090660E+02  0.87265786196E+02  0.00000000000E+00 0.  1.
         13    1    3    3    0    0  0.16736870265E+02 -0.26131451040E+02 -0.27786394279E+02  0.41654042622E+02  0.00000000000E+00 0. -1.
          1    1    1    2  501    0  0.30145122936E+02 -0.43213438777E+02  0.77915741656E+02  0.94058452707E+02  0.00000000000E+00 0. -1.
<scales pt_clust_5="13000.00000" pt_clust_6="13000.00000" pt_clust_7="13000.00000" pt_clust_8="13000.00000" pt_clust_9="52.68899"></scales>
<clustering>
<clus scale="   52.689">  1  9  2 -1</clus>
<clus scale="   86.622">  7  8 -1 -1</clus>
<clus scale="   89.601">  2  7  1 -1</clus>
<clus scale="   90.798">  5  6 -1 -1</clus>
<clus scale="   52.689">  1  5  2 -1</clus>
</clustering>
</event>
<event>
 9    1  0.1610296E-005  0.1016402E+03  0.7546771E-02  0.1278387E+00
         21   -1    0    0  501  502  0.00000000000E+00  0.00000000000E+00  0.85567238015E+02  0.85567238015E+02  0.00000000000E+00 0. -1.
          3   -1    0    0  502    0 -0.00000000000E+00 -0.00000000000E+00 -0.66566261266E+03  0.66566261266E+03  0.00000000000E+00 0. -1.
         23    2    1    2    0    0  0.95390698091E+00  0.25329041110E+02 -0.43779794394E+03  0.44804466602E+03  0.91839603468E+02 0.  0.
         23    2    1    2    0    0  0.41896647907E+02 -0.75273363469E+02 -0.18475484391E+03  0.22487019678E+03  0.94925469169E+02 0.  0.
        -11    1    3    3    0    0  0.38727559012E+02  0.37325640321E+02 -0.20730131469E+03  0.21416550218E+03  0.00000000000E+00 0. -1.
         11    1    3    3    0    0 -0.37773652031E+02 -0.11996599211E+02 -0.23049662925E+03  0.23387916383E+03  0.00000000000E+00 0.  1.
        -13    1    4    4    0    0  0.34301672131E+02 -0.68826148098E+01 -0.89991543057E+01  0.36124228377E+02  0.00000000000E+00 0.  1.
         13    1    4    4    0    0  0.75949757759E+01 -0.68390748659E+02 -0.17575568961E+03  0.18874596840E+03  0.00000000000E+00 0. -1.
          3    1    1    2  501    0 -0.42850554888E+02  0.49944322359E+02  0.42457413208E+02  0.78314987879E+02  0.00000000000E+00 0. -1.
<scales pt_clust_5="13000.00000" pt_clust_6="13000.00000" pt_clust_7="13000.00000" pt_clust_8="13000.00000" pt_clust_9="65.80734"></scales>
<clustering>
<clus scale="   65.807">  1  9  2 -1</clus>
<clus scale="   91.840">  5  6 -1 -1</clus>
<clus scale="   94.925">  7  8 -1 -1</clus>
<clus scale="   98.764">  2  5  1 -1</clus>
<clus scale="   65.807">  1  5  2 -1</clus>
</clustering>
</event>
<event>
 9    1  0.1610296E-005  0.9439324E+02  0.7546771E-02  0.1293476E+00
         21   -1    0    0  501  502  0.00000000000E+00  0.00000000000E+00  0.53582276762E+02  0.53582276762E+02  0.00000000000E+00 0. -1.
          2   -1    0    0  502    0 -0.00000000000E+00 -0.00000000000E+00 -0.36878166998E+03  0.36878166998E+03  0.00000000000E+00 0. -1.
         23    2    1    2    0    0 -0.15839982956E+02 -0.80838820500E+01 -0.24225955694E+03  0.26034430022E+03  0.93665401945E+02 0.  0.
         23    2    1    2    0    0  0.25685801289E+01 -0.15525891016E+02 -0.90265020163E+02  0.12986823109E+03  0.92034410339E+02 0.  0.
        -13    1    4    4    0    0 -0.19115618565E+02 -0.37885400591E+02 -0.97527714817E+01  0.43541095561E+02  0.00000000000E+00 0. -1.
         13    1    4    4    0    0  0.21684198694E+02  0.22359509575E+02 -0.80512248681E+02  0.86327135532E+02  0.00000000000E+00 0.  1.
        -13    1    3    3    0    0  0.36507711396E+02 -0.17341096845E+02 -0.80552673689E+02  0.90123581096E+02  0.00000000000E+00 0.  1.
         13    1    3    3    0    0 -0.52347694352E+02  0.92572147953E+01 -0.16170688325E+03  0.17022071913E+03  0.00000000000E+00 0. -1.
          2    1    1    2  501    0  0.13271402827E+02  0.23609773066E+02  0.17325183884E+02  0.32151415425E+02  0.00000000000E+00 0. -1.
<scales pt_clust_5="13000.00000" pt_clust_6="13000.00000" pt_clust_7="13000.00000" pt_clust_8="13000.00000" pt_clust_9="27.08416"></scales>
<clustering>
<clus scale="   27.084">  1  9  2 -1</clus>
<clus scale="   92.034">  5  6 -1 -1</clus>
<clus scale="   92.775">  1  5  2 -1</clus>
<clus scale="   93.665">  7  8 -1 -1</clus>
<clus scale="   27.084">  1  5  2 -1</clus>
</clustering>
</event>
<event>
 9    1  0.1610296E-005  0.1079996E+03  0.7546771E-02  0.1265769E+00
          1   -1    0    0  502    0 -0.00000000000E+00  0.00000000000E+00  0.74655343389E+03  0.74655343389E+03  0.00000000000E+00 0. -1.
         21   -1    0    0  501  502  0.00000000000E+00 -0.00000000000E+00 -0.39823038706E+02  0.39823038706E+02  0.00000000000E+00 0.  1.
         23    2    1    2    0    0  0.49669718450E+02  0.26216516970E+02  0.31588449128E+03  0.33341616975E+03  0.90713525609E+02 0.  0.
         23    2    1    2    0    0 -0.72856585466E+02  0.65064867702E+02  0.26719130569E+03  0.29752420135E+03  0.87108768188E+02 0.  0.
        -11    1    3    3    0    0  0.87794070638E+01 -0.33319508961E+02  0.10419348413E+03  0.10974310821E+03  0.00000000000E+00 0. -1.
         11    1    3    3    0    0  0.40890311386E+02  0.59536025931E+02  0.21169100715E+03  0.22367306154E+03  0.00000000000E+00 0.  1.
        -13    1    4    4    0    0 -0.92967355156E+02  0.56611187761E+02  0.22867970364E+03  0.25326303038E+03  0.00000000000E+00 0.  1.
         13    1    4    4    0    0  0.20110769691E+02  0.84536799416E+01  0.38511602054E+02  0.44261170961E+02  0.00000000000E+00 0. -1.
          1    1    1    2  501    0  0.23186867016E+02 -0.91281384672E+02  0.12365459822E+03  0.15543610150E+03  0.00000000000E+00 0. -1.
<scales pt_clust_5="13000.00000" pt_clust_6="13000.00000" pt_clust_7="13000.00000" pt_clust_8="13000.00000" pt_clust_9="94.18026"></scales>
<clustering>
<clus scale="   87.109">  7  8 -1 -1</clus>
<clus scale="   90.714">  5  6 -1 -1</clus>
<clus scale="   94.180">  2  9  1 -1</clus>
<clus scale="  104.990">  2  7  1 -1</clus>
<clus scale="   94.180">  2  5  1 -1</clus>
</clustering>
</event>
<event>
 9    1  0.1610296E-005  0.1345149E+03  0.7546771E-02  0.1233069E+00
          1   -1    0    0  502    0 -0.00000000000E+00  0.00000000000E+00  0.11194728221E+03  0.11194728221E+03  0.00000000000E+00 0. -1.
         21   -1    0    0  501  502  0.00000000000E+00 -0.00000000000E+00 -0.21363760950E+03  0.21363760950E+03  0.00000000000E+00 0.  1.
         23    2    1    2    0    0 -0.67621408719E+02  0.31230590685E+02  0.15534337803E+02  0.13906071241E+03  0.11639828768E+03 0.  0.
         23    2    1    2    0    0  0.44364924428E+02 -0.40988571979E+02 -0.44529612141E+02  0.10957839978E+03  0.79851297976E+02 0.  0.
        -11    1    4    4    0    0 -0.22402814771E+02 -0.19985268909E+02 -0.15714505252E+02  0.33885730896E+02  0.00000000000E+00 0. -1.
         11    1    4    4    0    0  0.66767739200E+02 -0.21003303070E+02 -0.28815106889E+02  0.75692668883E+02  0.00000000000E+00 0.  1.
        -13    1    3    3    0    0 -0.86754999301E+02  0.11592080578E+02  0.45331316480E+02  0.98568425419E+02  0.00000000000E+00 0. -1.
         13    1    3    3    0    0  0.19133590582E+02  0.19638510106E+02 -0.29796978677E+02  0.40492286994E+02  0.00000000000E+00 0.  1.
          1    1    1    2  501    0  0.23256484291E+02  0.97579812948E+01 -0.72695052953E+02  0.76945779509E+02  0.00000000000E+00 0. -1.
<scales pt_clust_5="13000.00000" pt_clust_6="13000.00000" pt_clust_7="13000.00000" pt_clust_8="13000.00000" pt_clust_9="25.22067"></scales>
<clustering>
<clus scale="   25.221">  2  9  1 -1</clus>
<clus scale="   79.851">  5  6 -1 -1</clus>
<clus scale="  104.508">  2  5  1 -1</clus>
<clus scale="  116.398">  7  8 -1 -1</clus>
<clus scale="   25.221">  2  5  1 -1</clus>
</clustering>
</event>
<event>
 9    1  0.1610296E-005  0.1734929E+03  0.7546771E-02  0.1176839E+00
         21   -1    0    0  501  502  0.00000000000E+00  0.00000000000E+00  0.32439664916E+03  0.32439664916E+03  0.00000000000E+00 0. -1.
          1   -1    0    0  502    0 -0.00000000000E+00 -0.00000000000E+00 -0.42206762917E+03  0.42206762917E+03  0.00000000000E+00 0. -1.
         23    2    1    2    0    0 -0.22841935369E+02 -0.13968249608E+03 -0.26712291461E+03  0.31776920753E+03  0.97926829951E+02 0.  0.
         23    2    1    2    0    0 -0.70029544913E+01  0.14890915247E+03 -0.73253299546E+02  0.18398773678E+03  0.79135733600E+02 0.  0.
        -11    1    3    3    0    0  0.17156789582E+02 -0.29127628033E+02 -0.10339054185E+02  0.35350674464E+02  0.00000000000E+00 0.  1.
         11    1    3    3    0    0 -0.39998724950E+02 -0.11055486804E+03 -0.25678386043E+03  0.28241853307E+03  0.00000000000E+00 0. -1.
        -11    1    4    4    0    0 -0.33622232237E+02  0.98698984746E+02 -0.72778053571E+02  0.12715576736E+03  0.00000000000E+00 0. -1.
         11    1    4    4    0    0  0.26619277745E+02  0.50210167719E+02 -0.47524597490E+00  0.56831969426E+02  0.00000000000E+00 0.  1.
          1    1    1    2  501    0  0.29844889860E+02 -0.92266563873E+01  0.24270523415E+03  0.24470733402E+03  0.00000000000E+00 0. -1.
<scales pt_clust_5="13000.00000" pt_clust_6="13000.00000" pt_clust_7="13000.00000" pt_clust_8="13000.00000" pt_clust_9="31.23858"></scales>
<clustering>
<clus scale="   31.239">  1  9  2 -1</clus>
<clus scale="   79.136">  7  8 -1 -1</clus>
<clus scale="   97.927">  5  6 -1 -1</clus>
<clus scale="  163.623">  1  7  2 -1</clus>
<clus scale="   31.239">  1  5  2 -1</clus>
</clustering>
</event>
<event>
 9    1  0.1610296E-005  0.9295047E+02  0.7546771E-02  0.1296374E+00
         21   -1    0    0  501  502  0.00000000000E+00  0.00000000000E+00  0.28415868278E+03  0.28415868278E+03  0.00000000000E+00 0.  1.
          1   -1    0    0  502    0 -0.00000000000E+00 -0.00000000000E+00 -0.63976797506E+02  0.63976797506E+02  0.00000000000E+00 0. -1.
         23    2    1    2    0    0 -0.10597612153E+01 -0.19419690848E+02 -0.67842161144E+01  0.93755517229E+02  0.91464878157E+02 0.  0.
         23    2    1    2    0    0  0.13948705058E+02  0.11641225404E+01  0.19395647576E+03  0.21451737368E+03  0.90568579362E+02 0.  0.
        -11    1    3    3    0    0  0.43665050904E+02 -0.10337929669E+02  0.84132711155E+01  0.45654053392E+02  0.00000000000E+00 0.  1.
         11    1    3    3    0    0 -0.44724812119E+02 -0.90817611793E+01 -0.15197487230E+02  0.48101463837E+02  0.00000000000E+00 0. -1.
        -13    1    4    4    0    0 -0.83262698148E+00 -0.30085232521E+02  0.16955088635E+03  0.17220138660E+03  0.00000000000E+00 0.  1.
         13    1    4    4    0    0  0.14781332040E+02  0.31249355061E+02  0.24405589413E+02  0.42315987088E+02  0.00000000000E+00 0. -1.
          1    1    1    2  501    0 -0.12888943843E+02  0.18255568308E+02  0.33009625626E+02  0.39862589374E+02  0.00000000000E+00 0. -1.
<scales pt_clust_5="13000.00000" pt_clust_6="13000.00000" pt_clust_7="13000.00000" pt_clust_8="13000.00000" pt_clust_9="22.34705"></scales>
<clustering>
<clus scale="   22.347">  1  9  2 -1</clus>
<clus scale="   90.569">  7  8 -1 -1</clus>
<clus scale="   91.465">  5  6 -1 -1</clus>
<clus scale="   92.069">  1  7  2 -1</clus>
<clus scale="   22.347">  1  5  2 -1</clus>
</clustering>
</event>
<event>
 9    1  0.1610296E-005  0.1995647E+03  0.7546771E-02  0.1155700E+00
         21   -1    0    0  501  502  0.00000000000E+00  0.00000000000E+00  0.72358463679E+02  0.72358463679E+02  0.00000000000E+00 0. -1.
          1   -1    0    0  502    0 -0.00000000000E+00 -0.00000000000E+00 -0.15739307557E+04  0.15739307557E+04  0.00000000000E+00 0. -1.
         23    2    1    2    0    0  0.52392466364E+01 -0.14882397985E+03 -0.26959199514E+03  0.32136291018E+03  0.91751019106E+02 0.  0.
         23    2    1    2    0    0  0.17268219423E+03  0.13943594367E+03 -0.10211630665E+04  0.10489044279E+04  0.90360211593E+02 0.  0.
        -13    1    3    3    0    0 -0.31183269420E+02 -0.10926314241E+03 -0.22271197876E+03  0.25002291108E+03  0.00000000000E+00 0.  1.
         13    1    3    3    0    0  0.36422516056E+02 -0.39560837448E+02 -0.46880016383E+02  0.71339999099E+02  0.00000000000E+00 0. -1.
        -13    1    4    4    0    0  0.27162771354E+02  0.71842843992E+02 -0.26503624061E+03  0.27594097053E+03  0.00000000000E+00 0. -1.
         13    1    4    4    0    0  0.14551942287E+03  0.67593099673E+02 -0.75612682590E+03  0.77296345735E+03  0.00000000000E+00 0.  1.
          1    1    1    2  501    0 -0.17792144086E+03  0.93880361889E+01 -0.21081723033E+03  0.27602188128E+03  0.00000000000E+00 0. -1.
<scales pt_clust_5="13000.00000" pt_clust_6="13000.00000" pt_clust_7="13000.00000" pt_clust_8="13000.00000" pt_clust_9="177.93565"></scales>
<clustering>
<clus scale="   90.360">  7  8 -1 -1</clus>
<clus scale="   91.751">  5  6 -1 -1</clus>
<clus scale="  174.912">  2  5  1 -1</clus>
<clus scale="  177.936">  1  9  2 -1</clus>
<clus scale="  177.936">  1  5  2 -1</clus>
</clustering>
</event>
<event>
 9    1  0.1610296E-005  0.1037033E+03  0.7546771E-02  0.1274169E+00
         21   -1    0    0  501  502  0.00000000000E+00  0.00000000000E+00  0.37842290192E+02  0.37842290192E+02  0.00000000000E+00 0. -1.
          2   -1    0    0  502    0 -0.00000000000E+00 -0.00000000000E+00 -0.52217406253E+03  0.52217406253E+03  0.00000000000E+00 0. -1.
         23    2    1    2    0    0  0.76318897436E+01  0.45043037656E+02 -0.29230794252E+03  0.30841251832E+03  0.87104691099E+02 0.  0.
         23    2    1    2    0    0  0.13393972651E+02 -0.60873787795E+02 -0.19629857478E+03  0.22493975775E+03  0.90441957148E+02 0.  0.
        -13    1    4    4    0    0  0.18646447036E+02  0.95310729267E+01 -0.57258229458E+01  0.21709822353E+02  0.00000000000E+00 0.  1.
         13    1    4    4    0    0 -0.52524743846E+01 -0.70404860721E+02 -0.19057275183E+03  0.20322993540E+03  0.00000000000E+00 0. -1.
        -13    1    3    3    0    0  0.35384626801E+02  0.65017472564E+01 -0.21264107232E+03  0.21566309413E+03  0.00000000000E+00 0. -1.
         13    1    3    3    0    0 -0.27752737058E+02  0.38541290400E+02 -0.79666870201E+02  0.92749424189E+02  0.00000000000E+00 0.  1.
          2    1    1    2  501    0 -0.21025862395E+02  0.15830750138E+02  0.42747449614E+01  0.26664076655E+02  0.00000000000E+00 0. -1.
<scales pt_clust_5="13000.00000" pt_clust_6="13000.00000" pt_clust_7="13000.00000" pt_clust_8="13000.00000" pt_clust_9="26.31919"></scales>
<clustering>
<clus scale="   26.319">  1  9  2 -1</clus>
<clus scale="   87.105">  7  8 -1 -1</clus>
<clus scale="   90.442">  5  6 -1 -1</clus>
<clus scale="  100.806">  2  7  1 -1</clus>
<clus scale="   26.319">  1  5  2 -1</clus>
</clustering>
</event>
<event>
 9    1  0.1610296E-005  0.1143287E+03  0.7546771E-02  0.1254056E+00
          3   -1    0    0  502    0 -0.00000000000E+00  0.00000000000E+00  0.18153625251E+03  0.18153625251E+03  0.00000000000E+00 0. -1.
         21   -1    0    0  501  502  0.00000000000E+00 -0.00000000000E+00 -0.10928442561E+03  0.10928442561E+03  0.00000000000E+00 0.  1.
         23    2    1    2    0    0  0.24864268287E+02 -0.62301732323E+02  0.97692357479E+02  0.14798314681E+03  0.88631130774E+02 0.  0.
         23    2    1    2    0    0 -0.45625033493E+02  0.54600606285E+02 -0.12480566331E+02  0.11718061436E+03  0.92264088133E+02 0.  0.
        -11    1    3    3    0    0 -0.30733178564E+02 -0.80826974913E+01  0.40798156390E+02  0.51714096997E+02  0.00000000000E+00 0.  1.
         11    1    3    3    0    0  0.55597446851E+02 -0.54219034832E+02  0.56894201090E+02  0.96269049814E+02  0.00000000000E+00 0. -1.
        -13    1    4    4    0    0  0.19843384331E+02  0.25730502757E+02  0.20473170644E+02  0.38405330229E+02  0.00000000000E+00 0. -1.
         13    1    4    4    0    0 -0.65468417823E+02  0.28870103528E+02 -0.32953736975E+02  0.78775284135E+02  0.00000000000E+00 0.  1.
          3    1    1    2  501    0  0.20760765205E+02  0.77011260382E+01 -0.12959964247E+02  0.25656916951E+02  0.00000000000E+00 0. -1.
<scales pt_clust_5="13000.00000" pt_clust_6="13000.00000" pt_clust_7="13000.00000" pt_clust_8="13000.00000" pt_clust_9="22.14310"></scales>
<clustering>
<clus scale="   22.143">  2  9  1 -1</clus>
<clus scale="   88.631">  5  6 -1 -1</clus>
<clus scale="   92.264">  7  8 -1 -1</clus>
<clus scale="  111.418">  1  5  2 -1</clus>
<clus scale="   22.143">  2  5  1 -1</clus>
</clustering>
</event>
<event>
 9    1  0.1610296E-005  0.2125222E+03  0.7546771E-02  0.1149222E+00
         21   -1    0    0  501  502  0.00000000000E+00  0.00000000000E+00  0.49780789409E+03  0.49780789409E+03  0.00000000000E+00 0. -1.
          2   -1    0    0  502    0 -0.00000000000E+00 -0.00000000000E+00 -0.26991988265E+03  0.26991988265E+03  0.00000000000E+00 0. -1.
         23    2    1    2    0    0 -0.19664522996E+02  0.14012094297E+03  0.26525680189E+02  0.17081924401E+03  0.91951238668E+02 0.  0.
         23    2    1    2    0    0 -0.17409492784E+03 -0.13489768737E+03 -0.82975145456E+02  0.25278964651E+03  0.92256710661E+02 0.  0.
        -11    1    3    3    0    0 -0.52897317687E+02  0.91827435007E+02 -0.11768205257E+01  0.10598013467E+03  0.00000000000E+00 0.  1.
         11    1    3    3    0    0  0.33232794692E+02  0.48293507958E+02  0.27702500715E+02  0.64839109338E+02  0.00000000000E+00 0. -1.
        -13    1    4    4    0    0 -0.57254366975E+02 -0.30364997662E+02  0.16808204825E+02  0.66952306683E+02  0.00000000000E+00 0.  1.
         13    1    4    4    0    0 -0.11684056087E+03 -0.10453268970E+03 -0.99783350281E+02  0.18583733983E+03  0.00000000000E+00 0. -1.
          2    1    1    2  501    0  0.19375945084E+03 -0.52232555993E+01  0.28433747671E+03  0.34411888621E+03  0.00000000000E+00 0. -1.
<scales pt_clust_5="13000.00000" pt_clust_6="13000.00000" pt_clust_7="13000.00000" pt_clust_8="13000.00000" pt_clust_9="191.45333"></scales>
<clustering>
<clus scale="   91.951">  5  6 -1 -1</clus>
<clus scale="   92.257">  7  8 -1 -1</clus>
<clus scale="  168.747">  2  5  1 -1</clus>
<clus scale="  191.453">  1  9  2 -1</clus>
<clus scale="  191.453">  1  5  2 -1</clus>
</clustering>
</event>
<event>
 9    1  0.1610296E-005  0.9480835E+02  0.7546771E-02  0.1293737E+00
         21   -1    0    0  501  502  0.00000000000E+00  0.00000000000E+00  0.17260306618E+03  0.17260306618E+03  0.00000000000E+00 0. -1.
          1   -1    0    0  502    0 -0.00000000000E+00 -0.00000000000E+00 -0.27360546525E+03  0.27360546525E+03  0.00000000000E+00 0. -1.
         23    2    1    2    0    0 -0.83370829315E+01 -0.13641658886E+02 -0.14313402228E+03  0.16815506356E+03  0.86793866476E+02 0.  0.
         23    2    1    2    0    0 -0.43848143070E+02  0.61378548885E+02 -0.76045933435E+02  0.14032894799E+03  0.90660044887E+02 0.  0.
        -13    1    3    3    0    0  0.21968774829E+02 -0.41518594349E+02 -0.72185071494E+02  0.86122617765E+02  0.00000000000E+00 0. -1.
         13    1    3    3    0    0 -0.30305857760E+02  0.27876935463E+02 -0.70948950787E+02  0.82032445795E+02  0.00000000000E+00 0.  1.
        -13    1    4    4    0    0  0.19158682762E+02  0.46500455722E+02 -0.48840926621E+02  0.70105517762E+02  0.00000000000E+00 0. -1.
         13    1    4    4    0    0 -0.63006825832E+02  0.14878093164E+02 -0.27205006814E+02  0.70223430231E+02  0.00000000000E+00 0.  1.
          1    1    1    2  501    0  0.52185226001E+02 -0.47736890000E+02  0.11817755665E+03  0.13772451987E+03  0.00000000000E+00 0. -1.
<scales pt_clust_5="13000.00000" pt_clust_6="13000.00000" pt_clust_7="13000.00000" pt_clust_8="13000.00000" pt_clust_9="70.72559"></scales>
<clustering>
<clus scale="   70.726">  1  9  2 -1</clus>
<clus scale="   86.794">  5  6 -1 -1</clus>
<clus scale="   90.660">  7  8 -1 -1</clus>
<clus scale="   91.118">  2  5  1 -1</clus>
<clus scale="   70.726">  1  5  2 -1</clus>
</clustering>
</event>
<event>
 9    1  0.1610296E-005  0.9560764E+02  0.7546771E-02  0.1293338E+00
         -1   -1    0    0    0  501 -0.00000000000E+00  0.00000000000E+00  0.53578188467E+02  0.53578188467E+02  0.00000000000E+00 0.  1.
         21   -1    0    0  501  502  0.00000000000E+00 -0.00000000000E+00 -0.35542472296E+03  0.35542472296E+03  0.00000000000E+00 0. -1.
         23    2    1    2    0    0 -0.32306401353E+02 -0.10846300554E+02 -0.18465415068E+02  0.99846139642E+02  0.92015945595E+02 0.  0.
         23    2    1    2    0    0  0.41255088674E+01 -0.45444739644E+01 -0.15918930632E+03  0.18088111126E+03  0.85668366952E+02 0.  0.
        -11    1    3    3    0    0  0.23028267766E+02 -0.31434930248E+02 -0.49746238735E+01  0.39283620489E+02  0.00000000000E+00 0.  1.
         11    1    3    3    0    0 -0.55334669119E+02  0.20588629695E+02 -0.13490791195E+02  0.60562519154E+02  0.00000000000E+00 0. -1.
        -13    1    4    4    0    0 -0.18373045934E+02  0.31062769499E+02 -0.11179268654E+03  0.11747369590E+03  0.00000000000E+00 0.  1.
         13    1    4    4    0    0  0.22498554801E+02 -0.35607243463E+02 -0.47396619783E+02  0.63407415355E+02  0.00000000000E+00 0. -1.
         -1    1    1    2    0  502  0.28180892485E+02  0.15390774518E+02 -0.12419181311E+03  0.12827566053E+03  0.00000000000E+00 0.  1.
<scales pt_clust_5="13000.00000" pt_clust_6="13000.00000" pt_clust_7="13000.00000" pt_clust_8="13000.00000" pt_clust_9="32.10979"></scales>
<clustering>
<clus scale="   32.110">  2  9  1 -1</clus>
<clus scale="   85.668">  7  8 -1 -1</clus>
<clus scale="   89.515">  2  7  1 -1</clus>
<clus scale="   92.016">  5  6 -1 -1</clus>
<clus scale="   32.110">  2  5  1 -1</clus>
</clustering>
</event>
<event>
 9    1  0.1610296E-005  0.1842160E+03  0.7546771E-02  0.1163828E+00
          2   -1    0    0  502    0 -0.00000000000E+00  0.00000000000E+00  0.33178265470E+03  0.33178265470E+03  0.00000000000E+00 0. -1.
         21   -1    0    0  501  502  0.00000000000E+00 -0.00000000000E+00 -0.16504313893E+03  0.16504313893E+03  0.00000000000E+00 0.  1.
         23    2    1    2    0    0  0.72520362465E+02  0.14850339938E+03  0.17882973994E+03  0.25961735833E+03  0.90047955331E+02 0.  0.
         23    2    1    2    0    0 -0.48435524174E+02 -0.14564022657E+03  0.37805394438E+02  0.18173006158E+03  0.89663213392E+02 0.  0.
        -11    1    3    3    0    0 -0.63227521637E+01  0.56255161994E+02  0.99997073053E+02  0.11490881196E+03  0.00000000000E+00 0. -1.
         11    1    3    3    0    0  0.78843114628E+02  0.92248237389E+02  0.78832666892E+02  0.14470854638E+03  0.00000000000E+00 0.  1.
        -13    1    4    4    0    0 -0.23891181494E+02  0.88732753605E+00  0.21706071334E+02  0.32291321374E+02  0.00000000000E+00 0. -1.
         13    1    4    4    0    0 -0.24544342680E+02 -0.14652755411E+03  0.16099323104E+02  0.14943874021E+03  0.00000000000E+00 0.  1.
          2    1    1    2  501    0 -0.24084838290E+02 -0.28631728135E+01 -0.49895618607E+02  0.55478373717E+02  0.00000000000E+00 0. -1.
<scales pt_clust_5="13000.00000" pt_clust_6="13000.00000" pt_clust_7="13000.00000" pt_clust_8="13000.00000" pt_clust_9="24.25443"></scales>
<clustering>
<clus scale="   24.254">  2  9  1 -1</clus>
<clus scale="   89.663">  7  8 -1 -1</clus>
<clus scale="   90.048">  5  6 -1 -1</clus>
<clus scale="  184.028">  2  7  1 -1</clus>
<clus scale="   24.254">  2  5  1 -1</clus>
</clustering>
</event>
<event>
 9    1  0.1610296E-005  0.1026620E+03  0.7546771E-02  0.1274826E+00
         21   -1    0    0  501  502  0.00000000000E+00  0.00000000000E+00  0.48097980031E+02  0.48097980031E+02  0.00000000000E+00 0. -1.
         -2   -1    0    0    0  501 -0.00000000000E+00 -0.00000000000E+00 -0.40894534497E+03  0.40894534497E+03  0.00000000000E+00 0.  1.
         23    2    1    2    0    0  0.16817962678E+02  0.37639505553E+02 -0.24711058843E+03  0.26690852919E+03  0.92070319811E+02 0.  0.
         23    2    1    2    0    0 -0.42748855443E+02 -0.38014240529E+02 -0.12176715365E+03  0.16298634129E+03  0.92004133670E+02 0.  0.
        -11    1    3    3    0    0  0.49613441097E+02  0.29615893425E+02 -0.95792572259E+02  0.11186961867E+03  0.00000000000E+00 0.  1.
         11    1    3    3    0    0 -0.32795478418E+02  0.80236121284E+01 -0.15131801617E+03  0.15503891052E+03  0.00000000000E+00 0. -1.
        -13    1    4    4    0    0 -0.27448513101E+02 -0.56213102067E+02 -0.32279258361E+02  0.70393779809E+02  0.00000000000E+00 0. -1.
         13    1    4    4    0    0 -0.15300342342E+02  0.18198861538E+02 -0.89487895294E+02  0.92592561479E+02  0.00000000000E+00 0.  1.
         -2    1    1    2    0  502  0.25930892765E+02  0.37473497641E+00  0.80303771502E+01  0.27148454524E+02  0.00000000000E+00 0.  1.
<scales pt_clust_5="13000.00000" pt_clust_6="13000.00000" pt_clust_7="13000.00000" pt_clust_8="13000.00000" pt_clust_9="25.93360"></scales>
<clustering>
<clus scale="   25.934">  1  9  2 -1</clus>
<clus scale="   92.004">  7  8 -1 -1</clus>
<clus scale="   92.070">  5  6 -1 -1</clus>
<clus scale="  102.603">  1  7  2 -1</clus>
<clus scale="   25.934">  1  5  2 -1</clus>
</clustering>
</event>
<event>
 9    1  0.1610296E-005  0.9371491E+02  0.7546771E-02  0.1294439E+00
         21   -1    0    0  501  502  0.00000000000E+00  0.00000000000E+00  0.33930843964E+02  0.33930843964E+02  0.00000000000E+00 0. -1.
          1   -1    0    0  502    0 -0.00000000000E+00 -0.00000000000E+00 -0.47085889305E+03  0.47085889305E+03  0.00000000000E+00 0. -1.
         23    2    1    2    0    0 -0.96760855729E+01 -0.43990966510E+01 -0.23867072128E+03  0.25564855462E+03  0.90991711711E+02 0.  0.
         23    2    1    2    0    0  0.38593644334E+02  0.55707408994E+01 -0.19694151862E+03  0.22017000173E+03  0.90379009561E+02 0.  0.
        -13    1    4    4    0    0 -0.11421204358E+02 -0.26012833731E+02 -0.23340931722E+02  0.36768335853E+02  0.00000000000E+00 0.  1.
         13    1    4    4    0    0  0.50014848691E+02  0.31583574631E+02 -0.17360058690E+03  0.18340166588E+03  0.00000000000E+00 0. -1.
        -13    1    3    3    0    0  0.49244119527E+00 -0.47409400773E+02 -0.12446490041E+03  0.13318935848E+03  0.00000000000E+00 0. -1.
         13    1    3    3    0    0 -0.10168526768E+02  0.43010304122E+02 -0.11420582087E+03  0.12245919614E+03  0.00000000000E+00 0.  1.
          1    1    1    2  501    0 -0.28917558761E+02 -0.11716442484E+01 -0.13158091825E+01  0.28971180658E+02  0.00000000000E+00 0. -1.
<scales pt_clust_5="13000.00000" pt_clust_6="13000.00000" pt_clust_7="13000.00000" pt_clust_8="13000.00000" pt_clust_9="28.94128"></scales>
<clustering>
<clus scale="   28.941">  1  9  2 -1</clus>
<clus scale="   90.379">  5  6 -1 -1</clus>
<clus scale="   90.992">  7  8 -1 -1</clus>
<clus scale="   93.120">  1  5  2 -1</clus>
<clus scale="   28.941">  1  5  2 -1</clus>
</clustering>
</event>
<event>
 9    1  0.2167233E-005  0.1042865E+03  0.7546771E-02  0.1271720E+00
          2   -1    0    0  502    0 -0.00000000000E+00  0.00000000000E+00  0.20294262392E+03  0.20294262392E+03  0.00000000000E+00 0. -1.
         21   -1    0    0  501  502  0.00000000000E+00 -0.00000000000E+00 -0.64559001069E+03  0.64559001069E+03  0.00000000000E+00 0. -1.
         23    2    1    2    0    0 -0.13872505635E+02 -0.66582335967E+02  0.15162289183E+03  0.18893992190E+03  0.89906278344E+02 0.  0.
         23    2    1    2    0    0 -0.19377112620E+02 -0.61022888887E+01 -0.42190981845E+02  0.10175748461E+03  0.90342660478E+02 0.  0.
        -13    1    4    4    0    0 -0.26702699286E+02 -0.28586741192E+02  0.13396879795E+02  0.41348667565E+02  0.00000000000E+00 0. -1.
         13    1    4    4    0    0  0.73255866659E+01  0.22484452304E+02 -0.55587861639E+02  0.60408817047E+02  0.00000000000E+00 0.  1.
        -13    1    3    3    0    0  0.15140254101E+01 -0.28131983047E+02 -0.34949249802E+01  0.28388646387E+02  0.00000000000E+00 0.  1.
         13    1    3    3    0    0 -0.15386531045E+02 -0.38450352920E+02  0.15511781681E+03  0.16055127551E+03  0.00000000000E+00 0. -1.
          2    1    1    2  501    0  0.33249618255E+02  0.72684624856E+02 -0.55207929675E+03  0.55783522810E+03  0.00000000000E+00 0. -1.
<scales pt_clust_5="13000.00000" pt_clust_6="13000.00000" pt_clust_7="13000.00000" pt_clust_8="13000.00000" pt_clust_9="79.92867"></scales>
<clustering>
<clus scale="   79.929">  2  9  1 -1</clus>
<clus scale="   89.906">  7  8 -1 -1</clus>
<clus scale="   90.343">  5  6 -1 -1</clus>
<clus scale="  103.909">  1  7  2 -1</clus>
<clus scale="   79.929">  2  5  1 -1</clus>
</clustering>
</event>
<event>
 9    1  0.1610296E-005  0.1158237E+03  0.7546771E-02  0.1252060E+00
         21   -1    0    0  501  502  0.00000000000E+00  0.00000000000E+00  0.36902748616E+03  0.36902748616E+03  0.00000000000E+00 0. -1.
         -1   -1    0    0    0  501 -0.00000000000E+00 -0.00000000000E+00 -0.49339723648E+02  0.49339723648E+02  0.00000000000E+00 0.  1.
         23    2    1    2    0    0  0.11929100933E+02 -0.72469385820E+02  0.10246172543E+03  0.15475635733E+03  0.89760846848E+02 0.  0.
         23    2    1    2    0    0 -0.23297203972E+02  0.54267371050E+02  0.12022611738E+03  0.16426533657E+03  0.95084563543E+02 0.  0.
        -11    1    4    4    0    0  0.30641949384E+02  0.48627895425E+02  0.67018800970E+02  0.88289982212E+02  0.00000000000E+00 0.  1.
         11    1    4    4    0    0 -0.53939153356E+02  0.56394756257E+01  0.53207316412E+02  0.75975354358E+02  0.00000000000E+00 0. -1.
        -13    1    3    3    0    0  0.26761866710E+00 -0.47983744146E+02 -0.80136545347E+00  0.47991181571E+02  0.00000000000E+00 0.  1.
         13    1    3    3    0    0  0.11661482266E+02 -0.24485641675E+02  0.10326309088E+03  0.10676517576E+03  0.00000000000E+00 0. -1.
         -1    1    1    2    0  502  0.11368103039E+02  0.18202014770E+02  0.96999919696E+02  0.99345515900E+02  0.00000000000E+00 0.  1.
<scales pt_clust_5="13000.00000" pt_clust_6="13000.00000" pt_clust_7="13000.00000" pt_clust_8="13000.00000" pt_clust_9="21.46036"></scales>
<clustering>
<clus scale="   21.460">  1  9  2 -1</clus>
<clus scale="   89.761">  7  8 -1 -1</clus>
<clus scale="   95.085">  5  6 -1 -1</clus>
<clus scale="  111.495">  2  7  1 -1</clus>
<clus scale="   21.460">  1  5  2 -1</clus>
</clustering>
</event>
<event>
 9    1  0.1610296E-005  0.1316590E+03  0.7546771E-02  0.1228062E+00
         -1   -1    0    0    0  501 -0.00000000000E+00  0.00000000000E+00  0.22837305118E+03  0.22837305118E+03  0.00000000000E+00 0.  1.
         21   -1    0    0  501  502  0.00000000000E+00 -0.00000000000E+00 -0.16359355427E+03  0.16359355427E+03  0.00000000000E+00 0. -1.
         23    2    1    2    0    0  0.71256168684E+02  0.36453463488E+02  0.15371606438E+03  0.19553371429E+03  0.90545615019E+02 0.  0.
         23    2    1    2    0    0 -0.96299168267E+02 -0.43740475172E+02 -0.62275656015E+02  0.15913602043E+03  0.10128798887E+03 0.  0.
        -11    1    4    4    0    0 -0.74489252067E+02  0.21260446115E+02 -0.27026120061E+02  0.82043076539E+02  0.00000000000E+00 0. -1.
         11    1    4    4    0    0 -0.21809916200E+02 -0.65000921287E+02 -0.35249535954E+02  0.77092943891E+02  0.00000000000E+00 0.  1.
        -11    1    3    3    0    0  0.89814240033E+02  0.19854625238E+02  0.13879179870E+03  0.16650515680E+03  0.00000000000E+00 0.  1.
         11    1    3    3    0    0 -0.18558071349E+02  0.16598838250E+02  0.14924265678E+02  0.29028557482E+02  0.00000000000E+00 0. -1.
         -1    1    1    2    0  502  0.25042999584E+02  0.72870116835E+01 -0.26660911451E+02  0.37296870738E+02  0.00000000000E+00 0.  1.
<scales pt_clust_5="13000.00000" pt_clust_6="13000.00000" pt_clust_7="13000.00000" pt_clust_8="13000.00000" pt_clust_9="26.08165"></scales>
<clustering>
<clus scale="   26.082">  2  9  1 -1</clus>
<clus scale="   90.546">  7  8 -1 -1</clus>
<clus scale="  101.288">  5  6 -1 -1</clus>
<clus scale="  123.585">  1  7  2 -1</clus>
<clus scale="   26.082">  2  5  1 -1</clus>
</clustering>
</event>
<event>
 9    1  0.1610296E-005  0.2123978E+03  0.7546771E-02  0.1140249E+00
         21   -1    0    0  501  502  0.00000000000E+00  0.00000000000E+00  0.20661413161E+03  0.20661413161E+03  0.00000000000E+00 0. -1.
          2   -1    0    0  502    0 -0.00000000000E+00 -0.00000000000E+00 -0.10156605737E+04  0.10156605737E+04  0.00000000000E+00 0. -1.
         23    2    1    2    0    0 -0.17690595982E+02  0.19095877615E+03 -0.93879250511E+03  0.96275728004E+03  0.93765671918E+02 0.  0.
         23    2    1    2    0    0 -0.26215495866E+01 -0.17560490537E+03  0.98970944744E+02  0.21957455978E+03  0.87027490396E+02 0.  0.
        -11    1    3    3    0    0 -0.52934339803E+02  0.98427483483E+02 -0.42091894390E+03  0.43550289456E+03  0.00000000000E+00 0.  1.
         11    1    3    3    0    0  0.35243743821E+02  0.92531292671E+02 -0.51787356121E+03  0.52725438548E+03  0.00000000000E+00 0. -1.
        -11    1    4    4    0    0 -0.22545707094E+02 -0.10409412217E+03  0.15105159196E+02  0.10757351446E+03  0.00000000000E+00 0. -1.
         11    1    4    4    0    0  0.19924157507E+02 -0.71510783201E+02  0.83865785548E+02  0.11200104532E+03  0.00000000000E+00 0.  1.
          2    1    1    2  501    0  0.20312145569E+02 -0.15353870779E+02  0.30775118230E+02  0.39942865540E+02  0.00000000000E+00 0. -1.
<scales pt_clust_5="13000.00000" pt_clust_6="13000.00000" pt_clust_7="13000.00000" pt_clust_8="13000.00000" pt_clust_9="25.46222"></scales>
<clustering>
<clus scale="   25.462">  1  9  2 -1</clus>
<clus scale="   87.027">  7  8 -1 -1</clus>
<clus scale="   93.766">  5  6 -1 -1</clus>
<clus scale="  209.510">  1  7  2 -1</clus>
<clus scale="   25.462">  1  5  2 -1</clus>
</clustering>
</event>
<event>
 9    1  0.2793801E-005  0.1926379E+03  0.7546771E-02  0.1156135E+00
         21   -1    0    0  501  502  0.00000000000E+00  0.00000000000E+00  0.62676088152E+03  0.62676088152E+03  0.00000000000E+00 0.  1.
         -3   -1    0    0    0  501 -0.00000000000E+00 -0.00000000000E+00 -0.26214745999E+03  0.26214745999E+03  0.00000000000E+00 0.  1.
         23    2    1    2    0    0 -0.11958193708E+03 -0.11529260324E+03 -0.15545288474E+03  0.24485918549E+03  0.90543897133E+02 0.  0.
         23    2    1    2    0    0  0.15623350691E+03  0.15409943287E+03  0.53778846492E+03  0.58780520075E+03  0.90238445978E+02 0.  0.
        -13    1    3    3    0    0 -0.98173404115E+02 -0.37665897027E+02 -0.11092384993E+03  0.15284252536E+03  0.00000000000E+00 0.  1.
         13    1    3    3    0    0 -0.21408532962E+02 -0.77626706209E+02 -0.44529034809E+02  0.92016660130E+02  0.00000000000E+00 0. -1.
        -13    1    4    4    0    0  0.14601430294E+03  0.11705265036E+03  0.35807589707E+03  0.40402951338E+03  0.00000000000E+00 0.  1.
         13    1    4    4    0    0  0.10219203969E+02  0.37046782517E+02  0.17971256785E+03  0.18377568737E+03  0.00000000000E+00 0. -1.
         -3    1    1    2    0  502 -0.36651569835E+02 -0.38806829639E+02 -0.17722158651E+02  0.56243955278E+02  0.00000000000E+00 0.  1.
<scales pt_clust_5="13000.00000" pt_clust_6="13000.00000" pt_clust_7="13000.00000" pt_clust_8="13000.00000" pt_clust_9="53.37893"></scales>
<clustering>
<clus scale="   53.379">  1  9  2 -1</clus>
<clus scale="   90.238">  7  8 -1 -1</clus>
<clus scale="   90.544">  5  6 -1 -1</clus>
<clus scale="  192.494">  1  7  2 -1</clus>
<clus scale="   53.379">  1  5  2 -1</clus>
</clustering>
</event>
<event>
 9    1  0.1610296E-005  0.1779931E+03  0.7546771E-02  0.1170023E+00
         21   -1    0    0  501  502  0.00000000000E+00  0.00000000000E+00  0.59726685185E+03  0.59726685185E+03  0.00000000000E+00 0.  1.
          3   -1    0    0  502    0 -0.00000000000E+00 -0.00000000000E+00 -0.87857014882E+02  0.87857014882E+02  0.00000000000E+00 0. -1.
         23    2    1    2    0    0  0.12918581434E+02  0.13113980911E+03  0.11796135554E+03  0.19968202688E+03  0.92701085090E+02 0.  0.
         23    2    1    2    0    0 -0.16867575212E+01 -0.18266015206E+03  0.19538773928E+03  0.28241397424E+03  0.90629508896E+02 0.  0.
        -11    1    3    3    0    0 -0.71215015687E+01  0.43739329947E+02  0.98380093271E+02  0.10790035922E+03  0.00000000000E+00 0.  1.
         11    1    3    3    0    0  0.20040083003E+02  0.87400479164E+02  0.19581262268E+02  0.91781667651E+02  0.00000000000E+00 0. -1.
        -13    1    4    4    0    0 -0.36345195623E+02 -0.30022057555E+02  0.51255574303E+02  0.69637856672E+02  0.00000000000E+00 0. -1.
         13    1    4    4    0    0  0.34658438102E+02 -0.15263809450E+03  0.14413216498E+03  0.21277611757E+03  0.00000000000E+00 0.  1.
          3    1    1    2  501    0 -0.11231823913E+02  0.51520342947E+02  0.19606074214E+03  0.20302786561E+03  0.00000000000E+00 0. -1.
<scales pt_clust_5="13000.00000" pt_clust_6="13000.00000" pt_clust_7="13000.00000" pt_clust_8="13000.00000" pt_clust_9="52.73044"></scales>
<clustering>
<clus scale="   52.730">  1  9  2 -1</clus>
<clus scale="   90.630">  7  8 -1 -1</clus>
<clus scale="   92.701">  5  6 -1 -1</clus>
<clus scale="  176.923">  1  7  2 -1</clus>
<clus scale="   52.730">  1  5  2 -1</clus>
</clustering>
</event>
<event>
 9    1  0.1610296E-005  0.1439400E+03  0.7546771E-02  0.1209539E+00
         21   -1    0    0  501  502  0.00000000000E+00  0.00000000000E+00  0.38269523894E+03  0.38269523894E+03  0.00000000000E+00 0.  1.
          1   -1    0    0  502    0 -0.00000000000E+00 -0.00000000000E+00 -0.17721204698E+03  0.17721204698E+03  0.00000000000E+00 0. -1.
         23    2    1    2    0    0  0.79675947273E+02  0.10888289106E+03 -0.47888368819E+02  0.16770017529E+03  0.87328760360E+02 0.  0.
         23    2    1    2    0    0 -0.10771115855E+03 -0.15993075031E+02  0.16404836727E+02  0.13614516635E+03  0.80055702654E+02 0.  0.
        -11    1    3    3    0    0 -0.48816928880E+01  0.65325991239E+02 -0.16741144564E+02  0.67613474827E+02  0.00000000000E+00 0.  1.
         11    1    3    3    0    0  0.84557640161E+02  0.43556899822E+02 -0.31147224255E+02  0.10008670047E+03  0.00000000000E+00 0. -1.
        -13    1    4    4    0    0 -0.39657550217E+02 -0.77978648820E+00  0.45695862845E+02  0.60509844136E+02  0.00000000000E+00 0.  1.
         13    1    4    4    0    0 -0.68053608335E+02 -0.15213288543E+02 -0.29291026118E+02  0.75635322216E+02  0.00000000000E+00 0. -1.
          1    1    1    2  501    0  0.28035211279E+02 -0.92889816030E+02  0.23696672406E+03  0.25606194427E+03  0.00000000000E+00 0. -1.
<scales pt_clust_5="13000.00000" pt_clust_6="13000.00000" pt_clust_7="13000.00000" pt_clust_8="13000.00000" pt_clust_9="97.02830"></scales>
<clustering>
<clus scale="   80.056">  7  8 -1 -1</clus>
<clus scale="   87.329">  5  6 -1 -1</clus>
<clus scale="   97.028">  1  9  2 -1</clus>
<clus scale="  139.647">  1  7  2 -1</clus>
<clus scale="   97.028">  1  5  2 -1</clus>
</clustering>
</event>
<event>
 9    1  0.1610296E-005  0.1018021E+03  0.7546771E-02  0.1277647E+00
         21   -1    0    0  501  502  0.00000000000E+00  0.00000000000E+00  0.79675159366E+02  0.79675159366E+02  0.00000000000E+00 0. -1.
         -1   -1    0    0    0  501 -0.00000000000E+00 -0.00000000000E+00 -0.31596835259E+03  0.31596835259E+03  0.00000000000E+00 0.  1.
         23    2    1    2    0    0 -0.40495732219E+02 -0.23272886678E+02 -0.18947564482E+03  0.21463593802E+03  0.89364614518E+02 0.  0.
         23    2    1    2    0    0  0.48156846271E+02 -0.16935317612E+02 -0.76978415985E+02  0.13016398738E+03  0.91712050779E+02 0.  0.
        -11    1    4    4    0    0  0.15268876363E+02  0.37742899811E+02 -0.35866883114E+02  0.54259546403E+02  0.00000000000E+00 0.  1.
         11    1    4    4    0    0  0.32887969908E+02 -0.54678217424E+02 -0.41111532870E+02  0.75904440978E+02  0.00000000000E+00 0. -1.
        -11    1    3    3    0    0 -0.62492189954E+02 -0.22543304528E+02 -0.17761977354E+03  0.18963717552E+03  0.00000000000E+00 0.  1.
         11    1    3    3    0    0  0.21996457735E+02 -0.72958214989E+00 -0.11855871275E+02  0.24998762503E+02  0.00000000000E+00 0. -1.
         -1    1    1    2    0  502 -0.76611140526E+01  0.40208204290E+02  0.30160867578E+02  0.50843586555E+02  0.00000000000E+00 0.  1.
<scales pt_clust_5="13000.00000" pt_clust_6="13000.00000" pt_clust_7="13000.00000" pt_clust_8="13000.00000" pt_clust_9="40.93156"></scales>
<clustering>
<clus scale="   40.932">  1  9  2 -1</clus>
<clus scale="   89.365">  7  8 -1 -1</clus>
<clus scale="   91.712">  5  6 -1 -1</clus>
<clus scale="   99.692">  2  7  1 -1</clus>
<clus scale="   40.932">  1  5  2 -1</clus>
</clustering>
</event>
<event>
 9    1  0.1610296E-005  0.9092184E+02  0.7546771E-02  0.1302076E+00
         -1   -1    0    0    0  501 -0.00000000000E+00  0.00000000000E+00  0.30910798445E+03  0.30910798445E+03  0.00000000000E+00 0.  1.
         21   -1    0    0  501  502  0.00000000000E+00 -0.00000000000E+00 -0.59870227026E+02  0.59870227026E+02  0.00000000000E+00 0. -1.
         23    2    1    2    0    0 -0.71874004783E+01 -0.14285871106E+02  0.22003797923E+03  0.23843316134E+03  0.90431826706E+02 0.  0.
         23    2    1    2    0    0 -0.19022655753E+02 -0.77224317382E+01  0.32719085732E+02  0.96139847515E+02  0.88038822830E+02 0.  0.
        -11    1    4    4    0    0  0.33086137789E+02  0.11059188938E+02  0.10190547098E+02  0.36343437150E+02  0.00000000000E+00 0. -1.
         11    1    4    4    0    0 -0.52108793542E+02 -0.18781620676E+02  0.22528538634E+02  0.59796410365E+02  0.00000000000E+00 0.  1.
        -13    1    3    3    0    0 -0.33464662889E+02  0.26349410686E+02  0.11929212450E+03  0.12666801520E+03  0.00000000000E+00 0. -1.
         13    1    3    3    0    0  0.26277262411E+02 -0.40635281793E+02  0.10074585473E+03  0.11176514614E+03  0.00000000000E+00 0.  1.
         -1    1    1    2    0  502  0.26210056231E+02  0.22008302845E+02 -0.35193075441E+01  0.34405202620E+02  0.00000000000E+00 0.  1.
<scales pt_clust_5="13000.00000" pt_clust_6="13000.00000" pt_clust_7="13000.00000" pt_clust_8="13000.00000" pt_clust_9="34.22473"></scales>
<clustering>
<clus scale="   34.225">  2  9  1 -1</clus>
<clus scale="   88.039">  5  6 -1 -1</clus>
<clus scale="   88.542">  2  5  1 -1</clus>
<clus scale="   90.432">  7  8 -1 -1</clus>
<clus scale="   34.225">  2  5  1 -1</clus>
</clustering>
</event>
<event>
 9    1  0.1610296E-005  0.1395775E+03  0.7546771E-02  0.1214039E+00
          2   -1    0    0  502    0 -0.00000000000E+00  0.00000000000E+00  0.32500528871E+03  0.32500528871E+03  0.00000000000E+00 0. -1.
         21   -1    0    0  501  502  0.00000000000E+00 -0.00000000000E+00 -0.11982118136E+03  0.11982118136E+03  0.00000000000E+00 0. -1.
         23    2    1    2    0    0 -0.87383451728E+02  0.55516198567E+02  0.16497675162E+03  0.21446178479E+03  0.89769775653E+02 0.  0.
         23    2    1    2    0    0  0.12543537676E+03 -0.64424793063E+00  0.50799845787E+02  0.16275491667E+03  0.90410672882E+02 0.  0.
        -13    1    3    3    0    0 -0.15712749851E+02 -0.18706791925E+02  0.63682510326E+01  0.25246567950E+02  0.00000000000E+00 0.  1.
         13    1    3    3    0    0 -0.71670701877E+02  0.74222990492E+02  0.15860850059E+03  0.18921521684E+03  0.00000000000E+00 0. -1.
        -13    1    4    4    0    0  0.22041884453E+02  0.35559992211E+02  0.29402864106E+02  0.51135957349E+02  0.00000000000E+00 0. -1.
         13    1    4    4    0    0  0.10339349230E+03 -0.36204240142E+02  0.21396981681E+02  0.11161895932E+03  0.00000000000E+00 0.  1.
          2    1    1    2  501    0 -0.38051925029E+02 -0.54871950636E+02 -0.10592490054E+02  0.67609768603E+02  0.00000000000E+00 0. -1.
<scales pt_clust_5="13000.00000" pt_clust_6="13000.00000" pt_clust_7="13000.00000" pt_clust_8="13000.00000" pt_clust_9="66.77485"></scales>
<clustering>
<clus scale="   66.775">  2  9  1 -1</clus>
<clus scale="   89.770">  5  6 -1 -1</clus>
<clus scale="   90.411">  7  8 -1 -1</clus>
<clus scale="  139.163">  1  5  2 -1</clus>
<clus scale="   66.775">  2  5  1 -1</clus>
</clustering>
</event>
<event>
 9    1  0.1610296E-005  0.9145263E+02  0.7546771E-02  0.1299621E+00
         21   -1    0    0  501  502  0.00000000000E+00  0.00000000000E+00  0.50744067025E+02  0.50744067025E+02  0.00000000000E+00 0. -1.
         -3   -1    0    0    0  501 -0.00000000000E+00 -0.00000000000E+00 -0.32257975983E+03  0.32257975983E+03  0.00000000000E+00 0.  1.
         23    2    1    2    0    0 -0.12379522068E+02 -0.22532765291E+02 -0.16343844900E+03  0.18832715811E+03  0.89966737138E+02 0.  0.
         23    2    1    2    0    0 -0.75025021057E+01  0.86160510324E+01 -0.12601406164E+03  0.15500796935E+03  0.89539951736E+02 0.  0.
        -11    1    4    4    0    0  0.82883205860E+00 -0.38660717923E+02 -0.35222625121E+02  0.52306513871E+02  0.00000000000E+00 0.  1.
         11    1    4    4    0    0 -0.83313341643E+01  0.47276768955E+02 -0.90791436520E+02  0.10270145548E+03  0.00000000000E+00 0. -1.
        -11    1    3    3    0    0 -0.37297718876E+02  0.33319885414E+01 -0.14120769633E+03  0.14608845089E+03  0.00000000000E+00 0. -1.
         11    1    3    3    0    0  0.24918196808E+02 -0.25864753833E+02 -0.22230752667E+02  0.42238707214E+02  0.00000000000E+00 0.  1.
         -3    1    1    2    0  502  0.19882024174E+02  0.13916714259E+02  0.17616817835E+02  0.29988699399E+02  0.00000000000E+00 0.  1.
<scales pt_clust_5="13000.00000" pt_clust_6="13000.00000" pt_clust_7="13000.00000" pt_clust_8="13000.00000" pt_clust_9="24.26870"></scales>
<clustering>
<clus scale="   24.269">  1  9  2 -1</clus>
<clus scale="   89.540">  5  6 -1 -1</clus>
<clus scale="   89.967">  7  8 -1 -1</clus>
<clus scale="   91.033">  1  5  2 -1</clus>
<clus scale="   24.269">  1  5  2 -1</clus>
</clustering>
</event>
<event>
 9    1  0.1610296E-005  0.9552693E+02  0.7546771E-02  0.1292903E+00
         21   -1    0    0  501  502  0.00000000000E+00  0.00000000000E+00  0.48690053153E+03  0.48690053153E+03  0.00000000000E+00 0.  1.
         -2   -1    0    0    0  501 -0.00000000000E+00 -0.00000000000E+00 -0.14444456814E+03  0.14444456814E+03  0.00000000000E+00 0.  1.
         23    2    1    2    0    0  0.93112132428E+01 -0.41181310687E+02 -0.39482397718E+02  0.10942348363E+03  0.92908772452E+02 0.  0.
         23    2    1    2    0    0  0.52945898211E+02 -0.24463358652E+02 -0.23810829760E+02  0.10620828160E+03  0.85507423149E+02 0.  0.
        -11    1    3    3    0    0 -0.36113164406E+02  0.55815475294E+01 -0.18352400348E+02  0.40891624017E+02  0.00000000000E+00 0. -1.
         11    1    3    3    0    0  0.45424377649E+02 -0.46762858216E+02 -0.21129997370E+02  0.68531859614E+02  0.00000000000E+00 0.  1.
        -13    1    4    4    0    0  0.12722889107E+02 -0.49309285823E+02 -0.29072099792E+02  0.58638422233E+02  0.00000000000E+00 0.  1.
         13    1    4    4    0    0  0.40223009104E+02  0.24845927170E+02  0.52612700330E+01  0.47569859372E+02  0.00000000000E+00 0. -1.
         -2    1    1    2    0  502 -0.62257111454E+02  0.65644669339E+02  0.40574919086E+03  0.41571333443E+03  0.00000000000E+00 0.  1.
<scales pt_clust_5="13000.00000" pt_clust_6="13000.00000" pt_clust_7="13000.00000" pt_clust_8="13000.00000" pt_clust_9="90.47193"></scales>
<clustering>
<clus scale="   85.507">  7  8 -1 -1</clus>
<clus scale="   90.472">  1  9  2 -1</clus>
<clus scale="   90.472">  1  7  2 -1</clus>
<clus scale="   92.909">  5  6 -1 -1</clus>
<clus scale="   90.472">  1  5  2 -1</clus>
</clustering>
</event>
<event>
 9    1  0.1610296E-005  0.3165077E+03  0.7546771E-02  0.1077348E+00
          1   -1    0    0  502    0 -0.00000000000E+00  0.00000000000E+00  0.43524936661E+03  0.43524936661E+03  0.00000000000E+00 0. -1.
         21   -1    0    0  501  502  0.00000000000E+00 -0.00000000000E+00 -0.93939668247E+03  0.93939668247E+03  0.00000000000E+00 0. -1.
         23    2    1    2    0    0  0.13294255658E+02 -0.31084493497E+03  0.33867936064E+03  0.46935214528E+03  0.93735884919E+02 0.  0.
         23    2    1    2    0    0 -0.16722993427E+02  0.21544060099E+03 -0.61807785381E+03  0.66111000488E+03  0.91388698016E+02 0.  0.
        -13    1    4    4    0    0  0.12143980483E+02  0.19052442233E+03 -0.45113054128E+03  0.48986303906E+03  0.00000000000E+00 0.  1.
         13    1    4    4    0    0 -0.28866973910E+02  0.24916178660E+02 -0.16694731253E+03  0.17124696582E+03  0.00000000000E+00 0. -1.
        -13    1    3    3    0    0 -0.15448179724E+02 -0.11233498286E+03  0.67190210243E+02  0.13180409320E+03  0.00000000000E+00 0.  1.
         13    1    3    3    0    0  0.28742435382E+02 -0.19850995211E+03  0.27148915040E+03  0.33754805208E+03  0.00000000000E+00 0. -1.
          1    1    1    2  501    0  0.34287377693E+01  0.95404333982E+02 -0.22474882270E+03  0.24418389891E+03  0.00000000000E+00 0. -1.
<scales pt_clust_5="13000.00000" pt_clust_6="13000.00000" pt_clust_7="13000.00000" pt_clust_8="13000.00000" pt_clust_9="95.46593"></scales>
<clustering>
<clus scale="   91.389">  5  6 -1 -1</clus>
<clus scale="   93.736">  7  8 -1 -1</clus>
<clus scale="   95.466">  2  9  1 -1</clus>
<clus scale="  315.821">  2  5  1 -1</clus>
<clus scale="   95.466">  2  5  1 -1</clus>
</clustering>
</event>
<event>
 9    1  0.1610296E-005  0.1020010E+03  0.7546771E-02  0.1280137E+00
          1   -1    0    0  502    0 -0.00000000000E+00  0.00000000000E+00  0.81473946368E+03  0.81473946368E+03  0.00000000000E+00 0. -1.
         21   -1    0    0  501  502  0.00000000000E+00 -0.00000000000E+00 -0.35452576987E+02  0.35452576987E+02  0.00000000000E+00 0.  1.
         23    2    1    2    0    0  0.14054446259E+02 -0.37360319372E+02  0.41862529891E+03  0.43009453752E+03  0.90226655673E+02 0.  0.
         23    2    1    2    0    0  0.11938103453E+02  0.17320423054E+02  0.37207415758E+03  0.38534902354E+03  0.98041704578E+02 0.  0.
        -11    1    4    4    0    0  0.50172716905E+02  0.31225650241E+02  0.23877447769E+03  0.24597884858E+03  0.00000000000E+00 0. -1.
         11    1    4    4    0    0 -0.38234613451E+02 -0.13905227187E+02  0.13329967989E+03  0.13937017496E+03  0.00000000000E+00 0.  1.
        -11    1    3    3    0    0  0.50554014600E+02 -0.29043507292E+02  0.20148294651E+03  0.20974892477E+03  0.00000000000E+00 0. -1.
         11    1    3    3    0    0 -0.36499568341E+02 -0.83168120795E+01  0.21714235240E+03  0.22034561275E+03  0.00000000000E+00 0.  1.
          1    1    1    2  501    0 -0.25992549712E+02  0.20039896318E+02 -0.11412569804E+02  0.34748479599E+02  0.00000000000E+00 0. -1.
<scales pt_clust_5="13000.00000" pt_clust_6="13000.00000" pt_clust_7="13000.00000" pt_clust_8="13000.00000" pt_clust_9="32.82088"></scales>
<clustering>
<clus scale="   32.821">  2  9  1 -1</clus>
<clus scale="   90.227">  7  8 -1 -1</clus>
<clus scale="   94.514">  1  7  2 -1</clus>
<clus scale="   98.042">  5  6 -1 -1</clus>
<clus scale="   32.821">  2  5  1 -1</clus>
</clustering>
</event>
<event>
 9    1  0.1610296E-005  0.9387895E+02  0.7546771E-02  0.1302942E+00
         21   -1    0    0  501  502  0.00000000000E+00  0.00000000000E+00  0.50743228283E+03  0.50743228283E+03  0.00000000000E+00 0. -1.
         -1   -1    0    0    0  501 -0.00000000000E+00 -0.00000000000E+00 -0.48960771332E+02  0.48960771332E+02  0.00000000000E+00 0.  1.
         23    2    1    2    0    0 -0.74234225418E+01  0.18786189135E+02 -0.13282048712E+01  0.79731671305E+02  0.77119045485E+02 0.  0.
         23    2    1    2    0    0  0.14985897999E+02  0.62202195762E+01  0.28626557764E+03  0.30117175691E+03  0.92158439368E+02 0.  0.
        -13    1    4    4    0    0  0.49630161045E+02  0.80324928906E+00  0.10008104688E+03  0.11171398319E+03  0.00000000000E+00 0. -1.
         13    1    4    4    0    0 -0.34644263046E+02  0.54169702872E+01  0.18618453076E+03  0.18945777372E+03  0.00000000000E+00 0.  1.
        -13    1    3    3    0    0 -0.19615969545E+02 -0.43735409842E+01 -0.33004010964E+02  0.38641672604E+02  0.00000000000E+00 0.  1.
         13    1    3    3    0    0  0.12192547003E+02  0.23159730119E+02  0.31675806093E+02  0.41089998701E+02  0.00000000000E+00 0. -1.
         -1    1    1    2    0  502 -0.75624754568E+01 -0.25006408711E+02  0.17353413873E+03  0.17548962595E+03  0.00000000000E+00 0.  1.
<scales pt_clust_5="13000.00000" pt_clust_6="13000.00000" pt_clust_7="13000.00000" pt_clust_8="13000.00000" pt_clust_9="26.12492"></scales>
<clustering>
<clus scale="   26.125">  1  9  2 -1</clus>
<clus scale="   77.119">  7  8 -1 -1</clus>
<clus scale="   79.167">  2  7  1 -1</clus>
<clus scale="   92.158">  5  6 -1 -1</clus>
<clus scale="   26.125">  1  5  2 -1</clus>
</clustering>
</event>
<event>
 9    1  0.1610296E-005  0.1189949E+03  0.7546771E-02  0.1245899E+00
          2   -1    0    0  502    0 -0.00000000000E+00  0.00000000000E+00  0.41496904116E+03  0.41496904116E+03  0.00000000000E+00 0. -1.
         21   -1    0    0  501  502  0.00000000000E+00 -0.00000000000E+00 -0.48214778325E+02  0.48214778325E+02  0.00000000000E+00 0. -1.
         23    2    1    2    0    0  0.31633626413E+02  0.61069890677E+02  0.23541886738E+03  0.26155091956E+03  0.90865959151E+02 0.  0.
         23    2    1    2    0    0 -0.53134838668E+02 -0.64261291193E+02  0.89348669740E+02  0.15435317593E+03  0.94280928661E+02 0.  0.
        -11    1    3    3    0    0  0.37193243036E+02  0.76119552016E+01  0.18147086462E+03  0.18539944416E+03  0.00000000000E+00 0.  1.
         11    1    3    3    0    0 -0.55596166230E+01  0.53457935476E+02  0.53948002762E+02  0.76151475391E+02  0.00000000000E+00 0. -1.
        -11    1    4    4    0    0  0.20917695178E+02  0.50683797994E+01  0.29685023431E+02  0.36666593262E+02  0.00000000000E+00 0.  1.
         11    1    4    4    0    0 -0.74052533847E+02 -0.69329670992E+02  0.59663646309E+02  0.11768658267E+03  0.00000000000E+00 0. -1.
          2    1    1    2  501    0  0.21501212255E+02  0.31914005160E+01  0.41986725713E+02  0.47279724003E+02  0.00000000000E+00 0. -1.
<scales pt_clust_5="13000.00000" pt_clust_6="13000.00000" pt_clust_7="13000.00000" pt_clust_8="13000.00000" pt_clust_9="21.73678"></scales>
<clustering>
<clus scale="   21.737">  2  9  1 -1</clus>
<clus scale="   90.866">  5  6 -1 -1</clus>
<clus scale="   94.281">  7  8 -1 -1</clus>
<clus scale="  116.308">  1  5  2 -1</clus>
<clus scale="   21.737">  2  5  1 -1</clus>
</clustering>
</event>
<event>
 9    1  0.1610296E-005  0.1368704E+03  0.7546771E-02  0.1235076E+00
         21   -1    0    0  501  502  0.00000000000E+00  0.00000000000E+00  0.20973489561E+03  0.20973489561E+03  0.00000000000E+00 0.  1.
         -1   -1    0    0    0  501 -0.00000000000E+00 -0.00000000000E+00 -0.35043946448E+03  0.35043946448E+03  0.00000000000E+00 0.  1.
         23    2    1    2    0    0 -0.10114120126E+02 -0.11499474312E+02 -0.40385753444E+01  0.95288330251E+02  0.93962878074E+02 0.  0.
         23    2    1    2    0    0  0.96953409825E+02 -0.40018442861E+02 -0.26622045887E+03  0.30063160063E+03  0.92220318407E+02 0.  0.
        -13    1    4    4    0    0  0.10455793219E+03 -0.15714928877E+02 -0.24715064102E+03  0.26881733488E+03  0.00000000000E+00 0.  1.
         13    1    4    4    0    0 -0.76045223627E+01 -0.24303513984E+02 -0.19069817852E+02  0.31814265750E+02  0.00000000000E+00 0. -1.
        -13    1    3    3    0    0 -0.37057306579E+02 -0.73362242920E+01  0.32408246902E+02  0.49773071284E+02  0.00000000000E+00 0.  1.
         13    1    3    3    0    0  0.26943186453E+02 -0.41632500205E+01 -0.36446822247E+02  0.45515258967E+02  0.00000000000E+00 0. -1.
         -1    1    1    2    0  502 -0.86839289699E+02  0.51517917173E+02  0.12955446535E+03  0.16425442921E+03  0.00000000000E+00 0.  1.
<scales pt_clust_5="13000.00000" pt_clust_6="13000.00000" pt_clust_7="13000.00000" pt_clust_8="13000.00000" pt_clust_9="101.13812"></scales>
<clustering>
<clus scale="   92.220">  5  6 -1 -1</clus>
<clus scale="   93.963">  7  8 -1 -1</clus>
<clus scale="   95.203">  2  7  1 -1</clus>
<clus scale="  101.138">  1  9  2 -1</clus>
<clus scale="  101.138">  1  5  2 -1</clus>
</clustering>
</event>
<event>
 9    1  0.1610296E-005  0.1092808E+03  0.7546771E-02  0.1268328E+00
         21   -1    0    0  501  502  0.00000000000E+00  0.00000000000E+00  0.41563663653E+03  0.41563663653E+03  0.00000000000E+00 0.  1.
         -1   -1    0    0    0  501 -0.00000000000E+00 -0.00000000000E+00 -0.88400812412E+02  0.88400812412E+02  0.00000000000E+00 0.  1.
         23    2    1    2    0    0 -0.11025007974E+02  0.58656431011E+02 -0.34442228756E+02  0.11396043551E+03  0.90766657090E+02 0.  0.
         23    2    1    2    0    0  0.42737847362E+02 -0.62976780914E+02  0.32127761979E+03  0.33853514115E+03  0.74793945505E+02 0.  0.
        -11    1    4    4    0    0  0.64250659494E+02 -0.50942851646E+02  0.25181668473E+03  0.26483006644E+03  0.00000000000E+00 0.  1.
         11    1    4    4    0    0 -0.21512812132E+02 -0.12033929269E+02  0.69460935058E+02  0.73705074715E+02  0.00000000000E+00 0. -1.
        -13    1    3    3    0    0  0.82287770142E+01  0.78689658412E+02 -0.34147643198E+02  0.86173294286E+02  0.00000000000E+00 0.  1.
         13    1    3    3    0    0 -0.19253784988E+02 -0.20033227401E+02 -0.29458555736E+00  0.27787141219E+02  0.00000000000E+00 0. -1.
         -1    1    1    2    0  502 -0.31712839388E+02  0.43203499038E+01  0.40400433077E+02  0.51541872280E+02  0.00000000000E+00 0.  1.
<scales pt_clust_5="13000.00000" pt_clust_6="13000.00000" pt_clust_7="13000.00000" pt_clust_8="13000.00000" pt_clust_9="32.00577"></scales>
<clustering>
<clus scale="   32.006">  1  9  2 -1</clus>
<clus scale="   74.794">  5  6 -1 -1</clus>
<clus scale="   90.767">  7  8 -1 -1</clus>
<clus scale="   96.425">  1  5  2 -1</clus>
<clus scale="   32.006">  1  5  2 -1</clus>
</clustering>
</event>
<event>
 9    1  0.1610296E-005  0.1420040E+03  0.7546771E-02  0.1214374E+00
         -1   -1    0    0    0  501 -0.00000000000E+00  0.00000000000E+00  0.47348034140E+03  0.47348034140E+03  0.00000000000E+00 0.  1.
         21   -1    0    0  501  502  0.00000000000E+00 -0.00000000000E+00 -0.84085020904E+02  0.84085020904E+02  0.00000000000E+00 0.  1.
         23    2    1    2    0    0  0.35516279794E+02  0.66693277668E+02  0.15854892869E+03  0.19716800270E+03  0.89599436865E+02 0.  0.
         23    2    1    2    0    0 -0.11447379303E+03 -0.10175044538E+03  0.12484577521E+03  0.22365152009E+03  0.10476703883E+03 0.  0.
        -11    1    3    3    0    0 -0.65400680913E+01  0.71670490374E+02  0.77766966132E+02  0.10595816487E+03  0.00000000000E+00 0.  1.
         11    1    3    3    0    0  0.42056347886E+02 -0.49772127062E+01  0.80781962554E+02  0.91209837835E+02  0.00000000000E+00 0. -1.
        -11    1    4    4    0    0 -0.77853609094E+02 -0.12003371359E+03  0.84408310923E+02  0.16611453819E+03  0.00000000000E+00 0.  1.
         11    1    4    4    0    0 -0.36620183933E+02  0.18283268206E+02  0.40437464289E+02  0.57536981896E+02  0.00000000000E+00 0. -1.
         -1    1    1    2    0  502  0.78957513233E+02  0.35057167713E+02  0.10600061660E+03  0.13674583951E+03  0.00000000000E+00 0.  1.
<scales pt_clust_5="13000.00000" pt_clust_6="13000.00000" pt_clust_7="13000.00000" pt_clust_8="13000.00000" pt_clust_9="86.39040"></scales>
<clustering>
<clus scale="   86.390">  2  9  1 -1</clus>
<clus scale="   89.599">  5  6 -1 -1</clus>
<clus scale="  104.767">  7  8 -1 -1</clus>
<clus scale="  131.214">  1  5  2 -1</clus>
<clus scale="   86.390">  2  5  1 -1</clus>
</clustering>
</event>
<event>
 9    1  0.1610296E-005  0.1475622E+03  0.7546771E-02  0.1203860E+00
          1   -1    0    0  502    0 -0.00000000000E+00  0.00000000000E+00  0.20078749059E+03  0.20078749059E+03  0.00000000000E+00 0. -1.
         21   -1    0    0  501  502  0.00000000000E+00 -0.00000000000E+00 -0.30497956845E+03  0.30497956845E+03  0.00000000000E+00 0. -1.
         23    2    1    2    0    0  0.13910051598E+02  0.11459227867E+03  0.10126115249E+03  0.17893702214E+03  0.91868150206E+02 0.  0.
         23    2    1    2    0    0 -0.46430377326E+02 -0.10941029650E+03 -0.34904369050E+02  0.15313104837E+03  0.90024497098E+02 0.  0.
        -11    1    3    3    0    0  0.12976815562E+02  0.74549498403E+02  0.63691766708E+01  0.75938079155E+02  0.00000000000E+00 0.  1.
         11    1    3    3    0    0  0.93323603641E+00  0.40042780266E+02  0.94891975819E+02  0.10299894298E+03  0.00000000000E+00 0. -1.
        -13    1    4    4    0    0  0.18747329699E+02 -0.24751014966E+02 -0.34327938166E+02  0.46286957681E+02  0.00000000000E+00 0.  1.
         13    1    4    4    0    0 -0.65177707025E+02 -0.84659281538E+02 -0.57643088403E+00  0.10684409069E+03  0.00000000000E+00 0. -1.
          1    1    1    2  501    0  0.32520325728E+02 -0.51819821650E+01 -0.17054886130E+03  0.17369898853E+03  0.00000000000E+00 0. -1.
<scales pt_clust_5="13000.00000" pt_clust_6="13000.00000" pt_clust_7="13000.00000" pt_clust_8="13000.00000" pt_clust_9="32.93060"></scales>
<clustering>
<clus scale="   32.931">  2  9  1 -1</clus>
<clus scale="   90.024">  7  8 -1 -1</clus>
<clus scale="   91.868">  5  6 -1 -1</clus>
<clus scale="  146.422">  2  7  1 -1</clus>
<clus scale="   32.931">  2  5  1 -1</clus>
</clustering>
</event>
<event>
 9    1  0.1610296E-005  0.1590566E+03  0.7546771E-02  0.1190339E+00
         -3   -1    0    0    0  501 -0.00000000000E+00  0.00000000000E+00  0.32041309046E+03  0.32041309046E+03  0.00000000000E+00 0.  1.
         21   -1    0    0  501  502  0.00000000000E+00 -0.00000000000E+00 -0.23075732259E+03  0.23075732259E+03  0.00000000000E+00 0.  1.
         23    2    1    2    0    0 -0.11747250543E+03 -0.98728391924E+02  0.22082008942E+03  0.28308811876E+03  0.88488904302E+02 0.  0.
         23    2    1    2    0    0  0.69926413304E+02  0.41529479368E+02 -0.65559619579E+01  0.12296306829E+03  0.91992035480E+02 0.  0.
        -13    1    3    3    0    0 -0.13139113852E+03 -0.83537111653E+02  0.18534313361E+03  0.24206230082E+03  0.00000000000E+00 0.  1.
         13    1    3    3    0    0  0.13918633086E+02 -0.15191280271E+02  0.35476955816E+02  0.41025817935E+02  0.00000000000E+00 0. -1.
        -13    1    4    4    0    0  0.38188862923E+02  0.59610290740E+02  0.24607840930E+02  0.74948794845E+02  0.00000000000E+00 0.  1.
         13    1    4    4    0    0  0.31737550380E+02 -0.18080811371E+02 -0.31163802888E+02  0.48014273444E+02  0.00000000000E+00 0. -1.
         -3    1    1    2    0  502  0.47546092129E+02  0.57198912556E+02 -0.12460835960E+03  0.14511922600E+03  0.00000000000E+00 0.  1.
<scales pt_clust_5="13000.00000" pt_clust_6="13000.00000" pt_clust_7="13000.00000" pt_clust_8="13000.00000" pt_clust_9="74.37975"></scales>
<clustering>
<clus scale="   74.380">  2  9  1 -1</clus>
<clus scale="   88.489">  5  6 -1 -1</clus>
<clus scale="   91.992">  7  8 -1 -1</clus>
<clus scale="  157.057">  1  5  2 -1</clus>
<clus scale="   74.380">  2  5  1 -1</clus>
</clustering>
</event>
<event>
 9    1  0.1610296E-005  0.1147441E+03  0.7546771E-02  0.1259003E+00
          1   -1    0    0  502    0 -0.00000000000E+00  0.00000000000E+00  0.68050706337E+03  0.68050706337E+03  0.00000000000E+00 0. -1.
         21   -1    0    0  501  502  0.00000000000E+00 -0.00000000000E+00 -0.48100515701E+02  0.48100515701E+02  0.00000000000E+00 0.  1.
         23    2    1    2    0    0 -0.40230845883E+01 -0.39635963754E+02  0.46058831381E+03  0.47105662529E+03  0.90363458206E+02 0.  0.
         23    2    1    2    0    0 -0.39059551766E+02  0.53394250181E+02  0.17135144735E+03  0.21232240207E+03  0.10650300172E+03 0.  0.
        -11    1    4    4    0    0  0.24857500687E+02 -0.14886738572E+02  0.61948154633E+02  0.68389211051E+02  0.00000000000E+00 0. -1.
         11    1    4    4    0    0 -0.63917052454E+02  0.68280988753E+02  0.10940329271E+03  0.14393319102E+03  0.00000000000E+00 0.  1.
        -13    1    3    3    0    0 -0.35296831684E+01  0.29416798900E+02  0.13008148428E+03  0.13341289021E+03  0.00000000000E+00 0.  1.
         13    1    3    3    0    0 -0.49340141997E+00 -0.69052762654E+02  0.33050682953E+03  0.33764373508E+03  0.00000000000E+00 0. -1.
          1    1    1    2  501    0  0.43082636355E+02 -0.13758286427E+02  0.46678651432E+00  0.45228551716E+02  0.00000000000E+00 0. -1.
<scales pt_clust_5="13000.00000" pt_clust_6="13000.00000" pt_clust_7="13000.00000" pt_clust_8="13000.00000" pt_clust_9="45.22614"></scales>
<clustering>
<clus scale="   45.226">  2  9  1 -1</clus>
<clus scale="   90.363">  7  8 -1 -1</clus>
<clus scale="   99.944">  1  7  2 -1</clus>
<clus scale="  106.503">  5  6 -1 -1</clus>
<clus scale="   45.226">  2  5  1 -1</clus>
</clustering>
</event>
<event>
 9    1  0.1610296E-005  0.9346636E+02  0.7546771E-02  0.1294818E+00
         21   -1    0    0  501  502  0.00000000000E+00  0.00000000000E+00  0.69397492481E+02  0.69397492481E+02  0.00000000000E+00 0. -1.
          2   -1    0    0  502    0 -0.00000000000E+00 -0.00000000000E+00 -0.36431620160E+03  0.36431620160E+03  0.00000000000E+00 0. -1.
         23    2    1    2    0    0 -0.67808216677E+01 -0.19423604495E+02 -0.19721472158E+03  0.21882884392E+03  0.92569760562E+02 0.  0.
         23    2    1    2    0    0 -0.22446854271E+02  0.97232517108E+00 -0.13432665720E+03  0.16452686487E+03  0.92307268112E+02 0.  0.
        -11    1    4    4    0    0  0.22943037841E+01  0.44688318254E+02 -0.65115118318E+02  0.79008153072E+02  0.00000000000E+00 0.  1.
         11    1    4    4    0    0 -0.24741158055E+02 -0.43715993083E+02 -0.69211538879E+02  0.85518711796E+02  0.00000000000E+00 0. -1.
        -13    1    3    3    0    0  0.42002301652E+02 -0.16326037048E+02 -0.79787161272E+02  0.91633639749E+02  0.00000000000E+00 0. -1.
         13    1    3    3    0    0 -0.48783123320E+02 -0.30975674462E+01 -0.11742756031E+03  0.12719520417E+03  0.00000000000E+00 0.  1.
          2    1    1    2  501    0  0.29227675939E+02  0.18451279324E+02  0.36622669660E+02  0.50357985290E+02  0.00000000000E+00 0. -1.
<scales pt_clust_5="13000.00000" pt_clust_6="13000.00000" pt_clust_7="13000.00000" pt_clust_8="13000.00000" pt_clust_9="34.56453"></scales>
<clustering>
<clus scale="   34.565">  1  9  2 -1</clus>
<clus scale="   92.307">  5  6 -1 -1</clus>
<clus scale="   92.570">  7  8 -1 -1</clus>
<clus scale="   93.206">  1  5  2 -1</clus>
<clus scale="   34.565">  1  5  2 -1</clus>
</clustering>
</event>
<event>
 9    1  0.1610296E-005  0.1482469E+03  0.7546771E-02  0.1217506E+00
         -3   -1    0    0    0  501 -0.00000000000E+00  0.00000000000E+00  0.10815570690E+03  0.10815570690E+03  0.00000000000E+00 0.  1.
         21   -1    0    0  501  502  0.00000000000E+00 -0.00000000000E+00 -0.62996252409E+03  0.62996252409E+03  0.00000000000E+00 0.  1.
         23    2    1    2    0    0  0.14124236280E+00 -0.56499025000E+02 -0.13681945462E+03  0.17426917749E+03  0.91967512115E+02 0.  0.
         23    2    1    2    0    0 -0.13492388188E+02 -0.66442592431E+02  0.41546123430E+02  0.11975029301E+03  0.89539877571E+02 0.  0.
        -13    1    4    4    0    0  0.31896255802E+02 -0.22860304868E+02  0.41097165534E+02  0.56823777486E+02  0.00000000000E+00 0.  1.
         13    1    4    4    0    0 -0.45388643990E+02 -0.43582287563E+02  0.44895789553E+00  0.62926515522E+02  0.00000000000E+00 0. -1.
        -13    1    3    3    0    0 -0.27700888610E+02 -0.44630529698E+02 -0.24532518883E+02  0.57974717711E+02  0.00000000000E+00 0. -1.
         13    1    3    3    0    0  0.27842130973E+02 -0.11868495302E+02 -0.11228693573E+03  0.11629445978E+03  0.00000000000E+00 0.  1.
         -3    1    1    2    0  502  0.13351145825E+02  0.12294161743E+03 -0.42653348600E+03  0.44409876049E+03  0.00000000000E+00 0.  1.
<scales pt_clust_5="13000.00000" pt_clust_6="13000.00000" pt_clust_7="13000.00000" pt_clust_8="13000.00000" pt_clust_9="118.15142"></scales>
<clustering>
<clus scale="   89.540">  5  6 -1 -1</clus>
<clus scale="   91.968">  7  8 -1 -1</clus>
<clus scale="  107.936">  1  7  2 -1</clus>
<clus scale="  118.151">  2  9  1 -1</clus>
<clus scale="  118.151">  2  5  1 -1</clus>
</clustering>
</event>
<event>
 9    1  0.1610296E-005  0.1809800E+03  0.7546771E-02  0.1166995E+00
          1   -1    0    0  502    0 -0.00000000000E+00  0.00000000000E+00  0.15789163705E+04  0.15789163705E+04  0.00000000000E+00 0. -1.
         21   -1    0    0  501  502  0.00000000000E+00 -0.00000000000E+00 -0.55792657455E+02  0.55792657455E+02  0.00000000000E+00 0. -1.
         23    2    1    2    0    0 -0.11814480904E+03  0.12184157214E+03  0.83493874402E+03  0.85698115074E+03  0.92143485198E+02 0.  0.
         23    2    1    2    0    0  0.14363283569E+03 -0.46555343623E+02  0.67439193511E+03  0.69705629921E+03  0.91023132368E+02 0.  0.
        -11    1    3    3    0    0  0.14801949830E+02  0.19163225092E+02  0.13607286824E+03  0.13821053645E+03  0.00000000000E+00 0.  1.
         11    1    3    3    0    0 -0.13294675887E+03  0.10267834705E+03  0.69886587578E+03  0.71877061430E+03  0.00000000000E+00 0. -1.
        -11    1    4    4    0    0  0.92382327113E+02  0.16885950334E+02  0.32692722398E+03  0.34014855499E+03  0.00000000000E+00 0. -1.
         11    1    4    4    0    0  0.51250508575E+02 -0.63441293957E+02  0.34746471113E+03  0.35690774422E+03  0.00000000000E+00 0.  1.
          1    1    1    2  501    0 -0.25488026645E+02 -0.75286228520E+02  0.13793033884E+02  0.80671577961E+02  0.00000000000E+00 0. -1.
<scales pt_clust_5="13000.00000" pt_clust_6="13000.00000" pt_clust_7="13000.00000" pt_clust_8="13000.00000" pt_clust_9="79.48368"></scales>
<clustering>
<clus scale="   79.484">  2  9  1 -1</clus>
<clus scale="   91.023">  7  8 -1 -1</clus>
<clus scale="   92.143">  5  6 -1 -1</clus>
<clus scale="  180.412">  2  7  1 -1</clus>
<clus scale="   79.484">  2  5  1 -1</clus>
</clustering>
</event>
<event>
 9    1  0.1610296E-005  0.1044208E+03  0.7546771E-02  0.1271307E+00
         21   -1    0    0  501  502  0.00000000000E+00  0.00000000000E+00  0.44367717517E+02  0.44367717517E+02  0.00000000000E+00 0.  1.
          1   -1    0    0  502    0 -0.00000000000E+00 -0.00000000000E+00 -0.35011063880E+03  0.35011063880E+03  0.00000000000E+00 0. -1.
         23    2    1    2    0    0 -0.35890479321E+02  0.18157196593E+02 -0.13007864873E+03  0.16398278983E+03  0.91389770820E+02 0.  0.
         23    2    1    2    0    0  0.39391692733E+02 -0.49572864153E+02 -0.16108921232E+03  0.19568701805E+03  0.91293484929E+02 0.  0.
        -11    1    3    3    0    0  0.26791360623E+02 -0.11211668606E+02 -0.52607876140E+02  0.60092155469E+02  0.00000000000E+00 0.  1.
         11    1    3    3    0    0 -0.62681839944E+02  0.29368865199E+02 -0.77470772591E+02  0.10389063436E+03  0.00000000000E+00 0. -1.
        -11    1    4    4    0    0 -0.40426559857E+01 -0.63999239064E+02 -0.10789991755E+03  0.12551748036E+03  0.00000000000E+00 0.  1.
         11    1    4    4    0    0  0.43434348718E+02  0.14426374911E+02 -0.53189294768E+02  0.70169537689E+02  0.00000000000E+00 0. -1.
          1    1    1    2  501    0 -0.35012134118E+01  0.31415667560E+02 -0.14575060234E+02  0.34808548439E+02  0.00000000000E+00 0. -1.
<scales pt_clust_5="13000.00000" pt_clust_6="13000.00000" pt_clust_7="13000.00000" pt_clust_8="13000.00000" pt_clust_9="31.61017"></scales>
<clustering>
<clus scale="   31.610">  1  9  2 -1</clus>
<clus scale="   91.293">  7  8 -1 -1</clus>
<clus scale="   91.390">  5  6 -1 -1</clus>
<clus scale="  104.337">  1  7  2 -1</clus>
<clus scale="   31.610">  1  5  2 -1</clus>
</clustering>
</event>
<event>
 9    1  0.1610296E-005  0.9350815E+02  0.7546771E-02  0.1294909E+00
         21   -1    0    0  501  502  0.00000000000E+00  0.00000000000E+00  0.75137235155E+02  0.75137235155E+02  0.00000000000E+00 0. -1.
         -1   -1    0    0    0  501 -0.00000000000E+00 -0.00000000000E+00 -0.31741654416E+03  0.31741654416E+03  0.00000000000E+00 0.  1.
         23    2    1    2    0    0 -0.51690453809E+01  0.98460235791E+01 -0.25286278529E+03  0.26944529420E+03  0.92398675171E+02 0.  0.
         23    2    1    2    0    0  0.20783669704E+02 -0.26754409472E+02  0.19864886198E+00  0.97858640626E+02  0.91806942718E+02 0.  0.
        -11    1    3    3    0    0  0.21298987676E+02 -0.34388761376E+02 -0.13171731703E+03  0.13778855319E+03  0.00000000000E+00 0. -1.
         11    1    3    3    0    0 -0.26468033057E+02  0.44234784956E+02 -0.12114546826E+03  0.13165674101E+03  0.00000000000E+00 0.  1.
        -13    1    4    4    0    0  0.54437436675E+02 -0.12818010952E+01 -0.74640460274E+01  0.54961709479E+02  0.00000000000E+00 0. -1.
         13    1    4    4    0    0 -0.33653766971E+02 -0.25472608377E+02  0.76626948894E+01  0.42896931147E+02  0.00000000000E+00 0.  1.
         -1    1    1    2    0  502 -0.15614624323E+02  0.16908385893E+02  0.10384827419E+02  0.25249844490E+02  0.00000000000E+00 0.  1.
<scales pt_clust_5="13000.00000" pt_clust_6="13000.00000" pt_clust_7="13000.00000" pt_clust_8="13000.00000" pt_clust_9="23.01543"></scales>
<clustering>
<clus scale="   23.015">  1  9  2 -1</clus>
<clus scale="   91.807">  7  8 -1 -1</clus>
<clus scale="   92.399">  5  6 -1 -1</clus>
<clus scale="   92.923">  1  7  2 -1</clus>
<clus scale="   23.015">  1  5  2 -1</clus>
</clustering>
</event>
<event>
 9    1  0.1610296E-005  0.1461728E+03  0.7546771E-02  0.1205260E+00
         21   -1    0    0  501  502  0.00000000000E+00  0.00000000000E+00  0.63704955381E+02  0.63704955381E+02  0.00000000000E+00 0. -1.
          2   -1    0    0  502    0 -0.00000000000E+00 -0.00000000000E+00 -0.10671477678E+04  0.10671477678E+04  0.00000000000E+00 0. -1.
         23    2    1    2    0    0 -0.91733877461E+02  0.76806101112E+02 -0.78545793248E+03  0.79966348685E+03  0.90571778520E+02 0.  0.
         23    2    1    2    0    0  0.89712513228E+02 -0.52094866075E+02 -0.25313994328E+03  0.28817052498E+03  0.90555013557E+02 0.  0.
        -11    1    4    4    0    0  0.13619492599E+02 -0.28836931924E+02 -0.17047954018E+03  0.17343682665E+03  0.00000000000E+00 0. -1.
         11    1    4    4    0    0  0.76093020629E+02 -0.23257934151E+02 -0.82660403108E+02  0.11473369833E+03  0.00000000000E+00 0.  1.
        -13    1    3    3    0    0 -0.12825120451E+02  0.69644253676E+02 -0.36608533146E+03  0.37287166116E+03  0.00000000000E+00 0. -1.
         13    1    3    3    0    0 -0.78908757011E+02  0.71618474362E+01 -0.41937260103E+03  0.42679182570E+03  0.00000000000E+00 0.  1.
          2    1    1    2  501    0  0.20213642333E+01 -0.24711235037E+02  0.35155063326E+02  0.43018711369E+02  0.00000000000E+00 0. -1.
<scales pt_clust_5="13000.00000" pt_clust_6="13000.00000" pt_clust_7="13000.00000" pt_clust_8="13000.00000" pt_clust_9="24.79377"></scales>
<clustering>
<clus scale="   24.794">  1  9  2 -1</clus>
<clus scale="   90.555">  5  6 -1 -1</clus>
<clus scale="   90.572">  7  8 -1 -1</clus>
<clus scale="  146.162">  1  5  2 -1</clus>
<clus scale="   24.794">  1  5  2 -1</clus>
</clustering>
</event>
<event>
 9    1  0.1610296E-005  0.1486619E+03  0.7546771E-02  0.1202452E+00
          3   -1    0    0  502    0 -0.00000000000E+00  0.00000000000E+00  0.32013643548E+03  0.32013643548E+03  0.00000000000E+00 0. -1.
         21   -1    0    0  501  502  0.00000000000E+00 -0.00000000000E+00 -0.93932413120E+02  0.93932413120E+02  0.00000000000E+00 0.  1.
         23    2    1    2    0    0  0.12011692278E+03 -0.25994806981E+02  0.15428331261E+03  0.21827183019E+03  0.93463608834E+02 0.  0.
         23    2    1    2    0    0 -0.10798933536E+03 -0.21353987625E+01  0.81737617894E+02  0.16362935550E+03  0.91800170606E+02 0.  0.
        -11    1    4    4    0    0 -0.72083586857E+02  0.42512397063E+02  0.40062632532E+02  0.92781258472E+02  0.00000000000E+00 0.  1.
         11    1    4    4    0    0 -0.35905748502E+02 -0.44647795826E+02  0.41674985362E+02  0.70848097029E+02  0.00000000000E+00 0. -1.
        -11    1    3    3    0    0  0.47653812942E+02  0.22311505589E+02  0.16266131480E+02  0.55075186816E+02  0.00000000000E+00 0.  1.
         11    1    3    3    0    0  0.72463109843E+02 -0.48306312570E+02  0.13801718113E+03  0.16319664337E+03  0.00000000000E+00 0. -1.
          3    1    1    2  501    0 -0.12127587426E+02  0.28130205743E+02 -0.98169081379E+01  0.32167662914E+02  0.00000000000E+00 0. -1.
<scales pt_clust_5="13000.00000" pt_clust_6="13000.00000" pt_clust_7="13000.00000" pt_clust_8="13000.00000" pt_clust_9="30.63310"></scales>
<clustering>
<clus scale="   30.633">  2  9  1 -1</clus>
<clus scale="   91.800">  5  6 -1 -1</clus>
<clus scale="   93.464">  7  8 -1 -1</clus>
<clus scale="  147.622">  2  5  1 -1</clus>
<clus scale="   30.633">  2  5  1 -1</clus>
</clustering>
</event>
<event>
 9    1  0.1610296E-005  0.1327999E+03  0.7546771E-02  0.1223735E+00
         21   -1    0    0  501  502  0.00000000000E+00  0.00000000000E+00  0.48270032612E+02  0.48270032612E+02  0.00000000000E+00 0.  1.
          1   -1    0    0  502    0 -0.00000000000E+00 -0.00000000000E+00 -0.49079816928E+03  0.49079816928E+03  0.00000000000E+00 0. -1.
         23    2    1    2    0    0 -0.79721264974E+02 -0.31579553182E+02 -0.20078594289E+03  0.23703154237E+03  0.92283308069E+02 0.  0.
         23    2    1    2    0    0  0.99671124196E+02  0.34377259213E+02 -0.24488295567E+03  0.28164822096E+03  0.90785072813E+02 0.  0.
        -13    1    3    3    0    0 -0.54975992467E+02  0.24193387304E+02 -0.66957404088E+02  0.89949839906E+02  0.00000000000E+00 0.  1.
         13    1    3    3    0    0 -0.24745272507E+02 -0.55772940486E+02 -0.13382853880E+03  0.14708170246E+03  0.00000000000E+00 0. -1.
        -13    1    4    4    0    0  0.48671998338E+02  0.22319533847E+02 -0.31932394434E+02  0.62344228503E+02  0.00000000000E+00 0.  1.
         13    1    4    4    0    0  0.50999125858E+02  0.12057725366E+02 -0.21295056123E+03  0.21930399246E+03  0.00000000000E+00 0. -1.
          1    1    1    2  501    0 -0.19949859221E+02 -0.27977060311E+01  0.31407618803E+01  0.20388438566E+02  0.00000000000E+00 0. -1.
<scales pt_clust_5="13000.00000" pt_clust_6="13000.00000" pt_clust_7="13000.00000" pt_clust_8="13000.00000" pt_clust_9="20.14507"></scales>
<clustering>
<clus scale="   20.145">  1  9  2 -1</clus>
<clus scale="   90.785">  7  8 -1 -1</clus>
<clus scale="   92.283">  5  6 -1 -1</clus>
<clus scale="  131.763">  1  7  2 -1</clus>
<clus scale="   20.145">  1  5  2 -1</clus>
</clustering>
</event>
<event>
 9    1  0.1610296E-005  0.3616392E+03  0.7546771E-02  0.1058059E+00
         21   -1    0    0  501  502  0.00000000000E+00  0.00000000000E+00  0.15090919592E+03  0.15090919592E+03  0.00000000000E+00 0.  1.
         -4   -1    0    0    0  501 -0.00000000000E+00 -0.00000000000E+00 -0.12870557861E+04  0.12870557861E+04  0.00000000000E+00 0.  1.
         23    2    1    2    0    0  0.43028282731E+02 -0.36633553289E+03 -0.91391875010E+03  0.99010473629E+03  0.94903905460E+02 0.  0.
         23    2    1    2    0    0 -0.29770313189E+02  0.29601930663E+03 -0.14637833440E+03  0.34358516269E+03  0.90058013473E+02 0.  0.
        -13    1    3    3    0    0  0.37980509876E+02 -0.34093753169E+03 -0.89361736571E+03  0.95720056203E+03  0.00000000000E+00 0.  1.
         13    1    3    3    0    0  0.50477728549E+01 -0.25398001205E+02 -0.20301384387E+02  0.32904174265E+02  0.00000000000E+00 0. -1.
        -13    1    4    4    0    0 -0.29967134271E+02  0.51688079744E+02 -0.59356989126E+02  0.84219587283E+02  0.00000000000E+00 0. -1.
         13    1    4    4    0    0  0.19682108200E+00  0.24433122689E+03 -0.87021345272E+02  0.25936557540E+03  0.00000000000E+00 0.  1.
         -4    1    1    2    0  502 -0.13257969542E+02  0.70316226256E+02 -0.75849505671E+02  0.10427508303E+03  0.00000000000E+00 0.  1.
<scales pt_clust_5="13000.00000" pt_clust_6="13000.00000" pt_clust_7="13000.00000" pt_clust_8="13000.00000" pt_clust_9="71.55519"></scales>
<clustering>
<clus scale="   71.555">  1  9  2 -1</clus>
<clus scale="   90.058">  7  8 -1 -1</clus>
<clus scale="   94.904">  5  6 -1 -1</clus>
<clus scale="  360.398">  1  7  2 -1</clus>
<clus scale="   71.555">  1  5  2 -1</clus>
</clustering>
</event>
<event>
 9    1  0.1610296E-005  0.9760625E+02  0.7546771E-02  0.1285845E+00
         21   -1    0    0  501  502  0.00000000000E+00  0.00000000000E+00  0.13186301179E+03  0.13186301179E+03  0.00000000000E+00 0. -1.
          2   -1    0    0  502    0 -0.00000000000E+00 -0.00000000000E+00 -0.19620571035E+03  0.19620571035E+03  0.00000000000E+00 0. -1.
         23    2    1    2    0    0 -0.38797985699E+02 -0.50192872064E+02 -0.83248208165E+02  0.13967504190E+03  0.92489161883E+02 0.  0.
         23    2    1    2    0    0 -0.87273747382E+00 -0.29848350991E+02 -0.29091093703E+01  0.96435856950E+02  0.91650018334E+02 0.  0.
        -11    1    4    4    0    0  0.71089712449E+01  0.21474107077E+02 -0.30224437145E+02  0.37751706553E+02  0.00000000000E+00 0.  1.
         11    1    4    4    0    0 -0.79817087187E+01 -0.51322458068E+02  0.27315327775E+02  0.58684150396E+02  0.00000000000E+00 0. -1.
        -13    1    3    3    0    0 -0.43581376021E+02  0.51804917412E+01 -0.56860052955E+01  0.44254993919E+02  0.00000000000E+00 0.  1.
         13    1    3    3    0    0  0.47833903225E+01 -0.55373363805E+02 -0.77562202869E+02  0.95420047977E+02  0.00000000000E+00 0. -1.
          2    1    1    2  501    0  0.39670723172E+02  0.80041223055E+02  0.21814618971E+02  0.91957823300E+02  0.00000000000E+00 0. -1.
<scales pt_clust_5="13000.00000" pt_clust_6="13000.00000" pt_clust_7="13000.00000" pt_clust_8="13000.00000" pt_clust_9="89.33288"></scales>
<clustering>
<clus scale="   89.333">  1  9  2 -1</clus>
<clus scale="   91.650">  5  6 -1 -1</clus>
<clus scale="   92.489">  7  8 -1 -1</clus>
<clus scale="   96.811">  1  5  2 -1</clus>
<clus scale="   89.333">  1  5  2 -1</clus>
</clustering>
</event>
<event>
 9    1  0.1610296E-005  0.1042779E+03  0.7546771E-02  0.1275333E+00
         21   -1    0    0  501  502  0.00000000000E+00  0.00000000000E+00  0.21247164953E+03  0.21247164953E+03  0.00000000000E+00 0.  1.
          2   -1    0    0  502    0 -0.00000000000E+00 -0.00000000000E+00 -0.17010488357E+03  0.17010488357E+03  0.00000000000E+00 0. -1.
         23    2    1    2    0    0  0.54067840039E+01  0.41369733433E+02 -0.13164927947E+03  0.16315952685E+03  0.86883889524E+02 0.  0.
         23    2    1    2    0    0  0.90094819434E+01 -0.57953900714E+02  0.14328265592E+03  0.18163599833E+03  0.94983635586E+02 0.  0.
        -11    1    3    3    0    0 -0.27717509287E+02  0.22235940376E+02 -0.11686607067E+03  0.12214899034E+03  0.00000000000E+00 0. -1.
         11    1    3    3    0    0  0.33124293291E+02  0.19133793057E+02 -0.14783208798E+02  0.41010536514E+02  0.00000000000E+00 0.  1.
        -13    1    4    4    0    0 -0.22039073843E+02 -0.40295539324E+02  0.13810750852E+03  0.14554427222E+03  0.00000000000E+00 0.  1.
         13    1    4    4    0    0  0.31048555787E+02 -0.17658361390E+02  0.51751474027E+01  0.36091726117E+02  0.00000000000E+00 0. -1.
          2    1    1    2  501    0 -0.14416265947E+02  0.16584167281E+02  0.30733389516E+02  0.37781007919E+02  0.00000000000E+00 0. -1.
<scales pt_clust_5="13000.00000" pt_clust_6="13000.00000" pt_clust_7="13000.00000" pt_clust_8="13000.00000" pt_clust_9="21.97415"></scales>
<clustering>
<clus scale="   21.974">  1  9  2 -1</clus>
<clus scale="   86.884">  5  6 -1 -1</clus>
<clus scale="   94.984">  7  8 -1 -1</clus>
<clus scale="   96.958">  2  5  1 -1</clus>
<clus scale="   21.974">  1  5  2 -1</clus>
</clustering>
</event>
<event>
 9    1  0.1610296E-005  0.9341207E+02  0.7546771E-02  0.1295701E+00
         21   -1    0    0  501  502  0.00000000000E+00  0.00000000000E+00  0.18456813534E+03  0.18456813534E+03  0.00000000000E+00 0. -1.
          2   -1    0    0  502    0 -0.00000000000E+00 -0.00000000000E+00 -0.21370200185E+03  0.21370200185E+03  0.00000000000E+00 0. -1.
         23    2    1    2    0    0  0.31980549050E+01  0.12385329029E+02 -0.16288490487E+03  0.18692225812E+03  0.90800960436E+02 0.  0.
         23    2    1    2    0    0 -0.54588455641E+02  0.28955756048E+01  0.70465333592E+02  0.12840476747E+03  0.92380394147E+02 0.  0.
        -11    1    4    4    0    0 -0.14002114491E+02 -0.29761895611E+02 -0.83451395519E+01  0.33933331618E+02  0.00000000000E+00 0.  1.
         11    1    4    4    0    0 -0.40586341151E+02  0.32657471216E+02  0.78810473144E+02  0.94471435849E+02  0.00000000000E+00 0. -1.
        -13    1    3    3    0    0  0.19949701498E+02 -0.34542205848E+02 -0.53600584240E+02  0.66814498468E+02  0.00000000000E+00 0.  1.
         13    1    3    3    0    0 -0.16751646593E+02  0.46927534877E+02 -0.10928432063E+03  0.12010775965E+03  0.00000000000E+00 0. -1.
          2    1    1    2  501    0  0.51390400736E+02 -0.15280904634E+02  0.63285704764E+02  0.82943111599E+02  0.00000000000E+00 0. -1.
<scales pt_clust_5="13000.00000" pt_clust_6="13000.00000" pt_clust_7="13000.00000" pt_clust_8="13000.00000" pt_clust_9="53.61417"></scales>
<clustering>
<clus scale="   53.614">  1  9  2 -1</clus>
<clus scale="   90.801">  7  8 -1 -1</clus>
<clus scale="   91.850">  2  7  1 -1</clus>
<clus scale="   92.380">  5  6 -1 -1</clus>
<clus scale="   53.614">  1  5  2 -1</clus>
</clustering>
</event>
<event>
 9    1  0.1610296E-005  0.2584420E+03  0.7546771E-02  0.1108214E+00
          1   -1    0    0  502    0 -0.00000000000E+00  0.00000000000E+00  0.74732609796E+03  0.74732609796E+03  0.00000000000E+00 0. -1.
         21   -1    0    0  501  502  0.00000000000E+00 -0.00000000000E+00 -0.30298199874E+03  0.30298199874E+03  0.00000000000E+00 0. -1.
         23    2    1    2    0    0  0.37805567310E+00  0.22426873201E+03  0.33402009447E+03  0.41215922662E+03  0.89494119882E+02 0.  0.
         23    2    1    2    0    0  0.96201938578E+02 -0.26003992125E+03  0.30224797198E+03  0.42033683537E+03  0.91943705451E+02 0.  0.
        -11    1    3    3    0    0  0.18281333988E+01  0.32204552380E+02  0.12148641880E+03  0.12569576453E+03  0.00000000000E+00 0.  1.
         11    1    3    3    0    0 -0.14500777257E+01  0.19206417963E+03  0.21253367566E+03  0.28646346209E+03  0.00000000000E+00 0. -1.
        -11    1    4    4    0    0  0.11025357662E+03 -0.19154532805E+03  0.21281955694E+03  0.30681855823E+03  0.00000000000E+00 0. -1.
         11    1    4    4    0    0 -0.14051638041E+02 -0.68494593199E+02  0.89428415037E+02  0.11351827714E+03  0.00000000000E+00 0.  1.
          1    1    1    2  501    0 -0.96579994251E+02  0.35771189237E+02 -0.19192396723E+03  0.21781203472E+03  0.00000000000E+00 0. -1.
<scales pt_clust_5="13000.00000" pt_clust_6="13000.00000" pt_clust_7="13000.00000" pt_clust_8="13000.00000" pt_clust_9="102.99162"></scales>
<clustering>
<clus scale="   89.494">  5  6 -1 -1</clus>
<clus scale="   91.944">  7  8 -1 -1</clus>
<clus scale="  102.992">  2  9  1 -1</clus>
<clus scale="  257.581">  1  5  2 -1</clus>
<clus scale="  102.992">  2  5  1 -1</clus>
</clustering>
</event>
<event>
 9    1  0.1610296E-005  0.1067704E+03  0.7546771E-02  0.1272403E+00
          1   -1    0    0  502    0 -0.00000000000E+00  0.00000000000E+00  0.43499356236E+03  0.43499356236E+03  0.00000000000E+00 0. -1.
         21   -1    0    0  501  502  0.00000000000E+00 -0.00000000000E+00 -0.45060559303E+02  0.45060559303E+02  0.00000000000E+00 0.  1.
         23    2    1    2    0    0  0.34190067613E+02  0.21182692452E+02  0.23434409385E+03  0.25299482252E+03  0.86438178597E+02 0.  0.
         23    2    1    2    0    0 -0.13975330790E+02 -0.47525201315E+02  0.15910246411E+03  0.19366905467E+03  0.98692218631E+02 0.  0.
        -11    1    3    3    0    0  0.31428985766E+02 -0.17106576085E+02  0.35234833952E+02  0.50218618214E+02  0.00000000000E+00 0.  1.
         11    1    3    3    0    0  0.27610818477E+01  0.38289268537E+02  0.19910925989E+03  0.20277620431E+03  0.00000000000E+00 0. -1.
        -13    1    4    4    0    0 -0.51642185236E+02 -0.26934895517E+01  0.79824631573E+02  0.95111208528E+02  0.00000000000E+00 0.  1.
         13    1    4    4    0    0  0.37666854446E+02 -0.44831711763E+02  0.79277832541E+02  0.98557846141E+02  0.00000000000E+00 0. -1.
          1    1    1    2  501    0 -0.20214736823E+02  0.26342508863E+02 -0.35135549014E+01  0.33390244474E+02  0.00000000000E+00 0. -1.
<scales pt_clust_5="13000.00000" pt_clust_6="13000.00000" pt_clust_7="13000.00000" pt_clust_8="13000.00000" pt_clust_9="33.20487"></scales>
<clustering>
<clus scale="   33.205">  2  9  1 -1</clus>
<clus scale="   86.438">  5  6 -1 -1</clus>
<clus scale="   95.558">  1  5  2 -1</clus>
<clus scale="   98.692">  7  8 -1 -1</clus>
<clus scale="   33.205">  2  5  1 -1</clus>
</clustering>
</event>
<event>
 9    1  0.1610296E-005  0.1377777E+03  0.7546771E-02  0.1219815E+00
         -1   -1    0    0    0  501 -0.00000000000E+00  0.00000000000E+00  0.33233621697E+03  0.33233621697E+03  0.00000000000E+00 0.  1.
         21   -1    0    0  501  502  0.00000000000E+00 -0.00000000000E+00 -0.40273112838E+03  0.40273112838E+03  0.00000000000E+00 0.  1.
         23    2    1    2    0    0 -0.40393260127E+02 -0.84001945684E+02  0.27942035108E+03  0.30871597084E+03  0.92422268498E+02 0.  0.
         23    2    1    2    0    0  0.19509960693E+02  0.55347857493E+02 -0.60727748192E+02  0.13509760219E+03  0.10544893940E+03 0.  0.
        -11    1    3    3    0    0 -0.92652566507E+01 -0.52061002068E+02  0.24942222362E+03  0.25496595568E+03  0.00000000000E+00 0.  1.
         11    1    3    3    0    0 -0.31128003476E+02 -0.31940943616E+02  0.29998127455E+02  0.53750015166E+02  0.00000000000E+00 0. -1.
        -11    1    4    4    0    0  0.47090008177E+02  0.19226886106E+02 -0.72113279506E+02  0.88246626567E+02  0.00000000000E+00 0.  1.
         11    1    4    4    0    0 -0.27580047484E+02  0.36120971386E+02  0.11385531314E+02  0.46850975619E+02  0.00000000000E+00 0. -1.
         -1    1    1    2    0  502  0.20883299434E+02  0.28654088191E+02 -0.28908751430E+03  0.29125377231E+03  0.00000000000E+00 0.  1.
<scales pt_clust_5="13000.00000" pt_clust_6="13000.00000" pt_clust_7="13000.00000" pt_clust_8="13000.00000" pt_clust_9="35.45658"></scales>
<clustering>
<clus scale="   35.457">  2  9  1 -1</clus>
<clus scale="   92.422">  5  6 -1 -1</clus>
<clus scale="  105.449">  7  8 -1 -1</clus>
<clus scale="  128.082">  1  5  2 -1</clus>
<clus scale="   35.457">  2  5  1 -1</clus>
</clustering>
</event>
<event>
 9    1  0.1610296E-005  0.1003673E+03  0.7546771E-02  0.1280060E+00
          2   -1    0    0  502    0 -0.00000000000E+00  0.00000000000E+00  0.34631259226E+02  0.34631259226E+02  0.00000000000E+00 0. -1.
         21   -1    0    0  501  502  0.00000000000E+00 -0.00000000000E+00 -0.50049192679E+03  0.50049192679E+03  0.00000000000E+00 0.  1.
         23    2    1    2    0    0 -0.98411237997E+01  0.50266723508E+02 -0.98204059336E+02  0.14334513859E+03  0.90995605808E+02 0.  0.
         23    2    1    2    0    0  0.13153776891E+02 -0.10004899592E+02 -0.28092317331E+03  0.29609797183E+03  0.92103527364E+02 0.  0.
        -11    1    3    3    0    0  0.32082577911E+02  0.15215956757E+02 -0.76884388525E+02  0.84687816977E+02  0.00000000000E+00 0. -1.
         11    1    3    3    0    0 -0.41923701710E+02  0.35050766750E+02 -0.21319670811E+02  0.58657321609E+02  0.00000000000E+00 0.  1.
        -11    1    4    4    0    0  0.54925156938E+01  0.36654617265E+02 -0.62913254570E+02  0.73019218676E+02  0.00000000000E+00 0.  1.
         11    1    4    4    0    0  0.76612611972E+01 -0.46659516857E+02 -0.21800991874E+03  0.22307875315E+03  0.00000000000E+00 0. -1.
          2    1    1    2  501    0 -0.33126530913E+01 -0.40261823915E+02 -0.86733434916E+02  0.95680075606E+02  0.00000000000E+00 0. -1.
<scales pt_clust_5="13000.00000" pt_clust_6="13000.00000" pt_clust_7="13000.00000" pt_clust_8="13000.00000" pt_clust_9="40.39787"></scales>
<clustering>
<clus scale="   40.398">  2  9  1 -1</clus>
<clus scale="   90.996">  5  6 -1 -1</clus>
<clus scale="   92.104">  7  8 -1 -1</clus>
<clus scale="   99.352">  1  5  2 -1</clus>
<clus scale="   40.398">  2  5  1 -1</clus>
</clustering>
</event>
<event>
 9    1  0.1610296E-005  0.1452654E+03  0.7546771E-02  0.1206751E+00
          1   -1    0    0  502    0 -0.00000000000E+00  0.00000000000E+00  0.77423153575E+03  0.77423153575E+03  0.00000000000E+00 0. -1.
         21   -1    0    0  501  502  0.00000000000E+00 -0.00000000000E+00 -0.55070593943E+02  0.55070593943E+02  0.00000000000E+00 0. -1.
         23    2    1    2    0    0  0.95331958590E+02  0.14663734115E+02  0.22517563714E+03  0.26174162892E+03  0.92203065672E+02 0.  0.
         23    2    1    2    0    0 -0.14353424264E+03  0.22576234724E+02  0.18273163032E+03  0.25040261381E+03  0.90547529515E+02 0.  0.
        -13    1    4    4    0    0 -0.34521016187E+02  0.18189331741E+02  0.17249597626E+01  0.39058006016E+02  0.00000000000E+00 0.  1.
         13    1    4    4    0    0 -0.10901322645E+03  0.43869029831E+01  0.18100667055E+03  0.21134460780E+03  0.00000000000E+00 0. -1.
        -13    1    3    3    0    0  0.57731404835E+02 -0.26924475667E+02  0.60769231846E+02  0.88038298673E+02  0.00000000000E+00 0.  1.
         13    1    3    3    0    0  0.37600553755E+02  0.41588209782E+02  0.16440640530E+03  0.17370333025E+03  0.00000000000E+00 0. -1.
          1    1    1    2  501    0  0.48202284050E+02 -0.37239968840E+02  0.31125367435E+03  0.31715788696E+03  0.00000000000E+00 0. -1.
<scales pt_clust_5="13000.00000" pt_clust_6="13000.00000" pt_clust_7="13000.00000" pt_clust_8="13000.00000" pt_clust_9="60.91206"></scales>
<clustering>
<clus scale="   60.912">  2  9  1 -1</clus>
<clus scale="   90.548">  5  6 -1 -1</clus>
<clus scale="   92.203">  7  8 -1 -1</clus>
<clus scale="  144.220">  2  5  1 -1</clus>
<clus scale="   60.912">  2  5  1 -1</clus>
</clustering>
</event>
<event>
 9    1  0.1610296E-005  0.1218601E+03  0.7546771E-02  0.1240685E+00
         21   -1    0    0  501  502  0.00000000000E+00  0.00000000000E+00  0.52616800413E+02  0.52616800413E+02  0.00000000000E+00 0.  1.
          1   -1    0    0  502    0 -0.00000000000E+00 -0.00000000000E+00 -0.51079976354E+03  0.51079976354E+03  0.00000000000E+00 0. -1.
         23    2    1    2    0    0 -0.79112746040E+02 -0.10230024906E+02 -0.32215079909E+03  0.34438875169E+03  0.91972794590E+02 0.  0.
         23    2    1    2    0    0  0.82184719047E+02 -0.34653494009E+02 -0.98993017260E+02  0.16075375558E+03  0.89927525115E+02 0.  0.
        -11    1    3    3    0    0 -0.23407870115E+02 -0.42031598397E+02 -0.75433322366E+02  0.89469378953E+02  0.00000000000E+00 0.  1.
         11    1    3    3    0    0 -0.55704875925E+02  0.31801573491E+02 -0.24671747672E+03  0.25491937274E+03  0.00000000000E+00 0. -1.
        -13    1    4    4    0    0  0.69275933831E+02 -0.58620910920E+02 -0.47314613789E+02  0.10234372909E+03  0.00000000000E+00 0.  1.
         13    1    4    4    0    0  0.12908785216E+02  0.23967416911E+02 -0.51678403471E+02  0.58410026489E+02  0.00000000000E+00 0. -1.
          1    1    1    2  501    0 -0.30719730069E+01  0.44883518915E+02 -0.37039146780E+02  0.58274056685E+02  0.00000000000E+00 0. -1.
<scales pt_clust_5="13000.00000" pt_clust_6="13000.00000" pt_clust_7="13000.00000" pt_clust_8="13000.00000" pt_clust_9="44.98852"></scales>
<clustering>
<clus scale="   44.989">  1  9  2 -1</clus>
<clus scale="   89.928">  7  8 -1 -1</clus>
<clus scale="   91.973">  5  6 -1 -1</clus>
<clus scale="  120.324">  1  7  2 -1</clus>
<clus scale="   44.989">  1  5  2 -1</clus>
</clustering>
</event>
<event>
 9    1  0.1610296E-005  0.9779607E+02  0.7546771E-02  0.1286751E+00
         -2   -1    0    0    0  501 -0.00000000000E+00  0.00000000000E+00  0.36949492718E+03  0.36949492718E+03  0.00000000000E+00 0.  1.
         21   -1    0    0  501  502  0.00000000000E+00 -0.00000000000E+00 -0.12830355824E+03  0.12830355824E+03  0.00000000000E+00 0.  1.
         23    2    1    2    0    0 -0.21238067490E+02  0.15586223141E+02  0.22430824363E+03  0.24364113581E+03  0.91393812896E+02 0.  0.
         23    2    1    2    0    0  0.37179189331E+02 -0.36639457142E+02  0.11419852725E+03  0.15332260618E+03  0.87987362720E+02 0.  0.
        -11    1    4    4    0    0 -0.16259970125E+01  0.27388069854E+02  0.30879323673E+02  0.41307176945E+02  0.00000000000E+00 0.  1.
         11    1    4    4    0    0  0.38805186343E+02 -0.64027526997E+02  0.83319203581E+02  0.11201542923E+03  0.00000000000E+00 0. -1.
        -13    1    3    3    0    0 -0.56444384008E+02  0.15425230867E+02  0.15938006000E+03  0.16978194768E+03  0.00000000000E+00 0. -1.
         13    1    3    3    0    0  0.35206316518E+02  0.16099227456E+00  0.64928183637E+02  0.73859188133E+02  0.00000000000E+00 0.  1.
         -2    1    1    2    0  502 -0.15941121841E+02  0.21053234001E+02 -0.97315401947E+02  0.10083474343E+03  0.00000000000E+00 0.  1.
<scales pt_clust_5="13000.00000" pt_clust_6="13000.00000" pt_clust_7="13000.00000" pt_clust_8="13000.00000" pt_clust_9="26.40754"></scales>
<clustering>
<clus scale="   26.408">  2  9  1 -1</clus>
<clus scale="   87.987">  5  6 -1 -1</clus>
<clus scale="   91.394">  7  8 -1 -1</clus>
<clus scale="   94.620">  2  5  1 -1</clus>
<clus scale="   26.408">  2  5  1 -1</clus>
</clustering>
</event>
<event>
 9    1  0.1610296E-005  0.1119981E+03  0.7546771E-02  0.1258561E+00
         -4   -1    0    0    0  501 -0.00000000000E+00  0.00000000000E+00  0.32019497210E+03  0.32019497210E+03  0.00000000000E+00 0.  1.
         21   -1    0    0  501  502  0.00000000000E+00 -0.00000000000E+00 -0.53197613783E+03  0.53197613783E+03  0.00000000000E+00 0.  1.
         23    2    1    2    0    0  0.45266768854E+02 -0.37220877183E+02  0.29160453236E+03  0.31216360435E+03  0.94754622743E+02 0.  0.
         23    2    1    2    0    0 -0.48778350871E+02  0.93073523199E+02 -0.33512166226E+03  0.36268115382E+03  0.90493549968E+02 0.  0.
        -11    1    3    3    0    0 -0.62333779205E+01 -0.55677509460E+02  0.16473823373E+03  0.17400438417E+03  0.00000000000E+00 0.  1.
         11    1    3    3    0    0  0.51500146774E+02  0.18456632277E+02  0.12686629863E+03  0.13815922018E+03  0.00000000000E+00 0. -1.
        -13    1    4    4    0    0 -0.66397312835E+02  0.44783902840E+02 -0.25678898375E+03  0.26898844451E+03  0.00000000000E+00 0.  1.
         13    1    4    4    0    0  0.17618961964E+02  0.48289620359E+02 -0.78332678515E+02  0.93692709313E+02  0.00000000000E+00 0. -1.
         -4    1    1    2    0  502  0.35115820170E+01 -0.55852646017E+02 -0.16826403583E+03  0.17732635176E+03  0.00000000000E+00 0.  1.
<scales pt_clust_5="13000.00000" pt_clust_6="13000.00000" pt_clust_7="13000.00000" pt_clust_8="13000.00000" pt_clust_9="55.96293"></scales>
<clustering>
<clus scale="   55.963">  2  9  1 -1</clus>
<clus scale="   90.494">  7  8 -1 -1</clus>
<clus scale="   94.755">  5  6 -1 -1</clus>
<clus scale="  108.417">  2  7  1 -1</clus>
<clus scale="   55.963">  2  5  1 -1</clus>
</clustering>
</event>
<event>
 9    1  0.1610296E-005  0.1195076E+03  0.7546771E-02  0.1254701E+00
          4   -1    0    0  502    0 -0.00000000000E+00  0.00000000000E+00  0.55118199641E+03  0.55118199641E+03  0.00000000000E+00 0. -1.
         21   -1    0    0  501  502  0.00000000000E+00 -0.00000000000E+00 -0.37607936437E+02  0.37607936437E+02  0.00000000000E+00 0.  1.
         23    2    1    2    0    0  0.38791964219E+02 -0.97293902441E+01  0.33611525347E+03  0.35069267506E+03  0.91719197576E+02 0.  0.
         23    2    1    2    0    0 -0.17474598591E+01 -0.52226697556E+01  0.15008619152E+03  0.18967082438E+03  0.11583966005E+03 0.  0.
        -13    1    3    3    0    0 -0.12743682873E+02 -0.37192233345E+02  0.99689512735E+02  0.10716185246E+03  0.00000000000E+00 0.  1.
         13    1    3    3    0    0  0.51535647092E+02  0.27462843101E+02  0.23642574073E+03  0.24353082260E+03  0.00000000000E+00 0. -1.
        -13    1    4    4    0    0 -0.26800244970E+02 -0.14575582553E+02  0.15867700680E+03  0.16158308459E+03  0.00000000000E+00 0. -1.
         13    1    4    4    0    0  0.25052785111E+02  0.93529127975E+01 -0.85908152770E+01  0.28087739794E+02  0.00000000000E+00 0.  1.
          4    1    1    2  501    0 -0.37044504360E+02  0.14952060000E+02  0.27372614981E+02  0.48426433406E+02  0.00000000000E+00 0. -1.
<scales pt_clust_5="13000.00000" pt_clust_6="13000.00000" pt_clust_7="13000.00000" pt_clust_8="13000.00000" pt_clust_9="39.94821"></scales>
<clustering>
<clus scale="   39.948">  2  9  1 -1</clus>
<clus scale="   91.719">  5  6 -1 -1</clus>
<clus scale="   96.310">  1  5  2 -1</clus>
<clus scale="  115.840">  7  8 -1 -1</clus>
<clus scale="   39.948">  2  5  1 -1</clus>
</clustering>
</event>
<event>
 9    1  0.1610296E-005  0.1180577E+03  0.7546771E-02  0.1246866E+00
          2   -1    0    0  502    0 -0.00000000000E+00  0.00000000000E+00  0.10439140182E+03  0.10439140182E+03  0.00000000000E+00 0. -1.
         21   -1    0    0  501  502  0.00000000000E+00 -0.00000000000E+00 -0.56152366405E+03  0.56152366405E+03  0.00000000000E+00 0. -1.
         23    2    1    2    0    0  0.28553222444E+02  0.85446801138E+02  0.27880216816E+02  0.13055198285E+03  0.90277745876E+02 0.  0.
         23    2    1    2    0    0  0.60294059125E+02 -0.39212797021E+02 -0.16963578083E+03  0.20446448170E+03  0.88636387121E+02 0.  0.
        -11    1    4    4    0    0  0.18926628828E+02 -0.58540962372E+02 -0.61071318005E+02  0.86688911846E+02  0.00000000000E+00 0.  1.
         11    1    4    4    0    0  0.41367430297E+02  0.19328165351E+02 -0.10856446282E+03  0.11777556985E+03  0.00000000000E+00 0. -1.
        -13    1    3    3    0    0  0.16397848623E+02  0.17458890435E+02  0.52116449240E+02  0.57357009825E+02  0.00000000000E+00 0. -1.
         13    1    3    3    0    0  0.12155373822E+02  0.67987910703E+02 -0.24236232424E+02  0.73194973028E+02  0.00000000000E+00 0.  1.
          2    1    1    2  501    0 -0.88847281570E+02 -0.46234004117E+02 -0.31537669821E+03  0.33089860132E+03  0.00000000000E+00 0. -1.
<scales pt_clust_5="13000.00000" pt_clust_6="13000.00000" pt_clust_7="13000.00000" pt_clust_8="13000.00000" pt_clust_9="100.15699"></scales>
<clustering>
<clus scale="   88.636">  5  6 -1 -1</clus>
<clus scale="   90.278">  7  8 -1 -1</clus>
<clus scale="  100.157">  2  9  1 -1</clus>
<clus scale="  116.807">  2  5  1 -1</clus>
<clus scale="  100.157">  2  5  1 -1</clus>
</clustering>
</event>
<event>
 9    1  0.1610296E-005  0.1064227E+03  0.7546771E-02  0.1269184E+00
          1   -1    0    0  502    0 -0.00000000000E+00  0.00000000000E+00  0.68094555293E+03  0.68094555293E+03  0.00000000000E+00 0. -1.
         21   -1    0    0  501  502  0.00000000000E+00 -0.00000000000E+00 -0.45016874306E+02  0.45016874306E+02  0.00000000000E+00 0. -1.
         23    2    1    2    0    0 -0.66779231380E+01  0.25738120735E+02  0.25412393969E+03  0.27175888875E+03  0.92557395012E+02 0.  0.
         23    2    1    2    0    0 -0.19593881086E+02 -0.81108281927E+02  0.37301918315E+03  0.39229030535E+03  0.88237741921E+02 0.  0.
        -11    1    4    4    0    0 -0.45488288591E+02 -0.52124549043E+02  0.31464572661E+03  0.32216158413E+03  0.00000000000E+00 0. -1.
         11    1    4    4    0    0  0.25894407505E+02 -0.28983732883E+02  0.58373456534E+02  0.70128721217E+02  0.00000000000E+00 0.  1.
        -11    1    3    3    0    0  0.25893695623E+02 -0.18528603361E+02  0.15670259294E+03  0.15990464424E+03  0.00000000000E+00 0.  1.
         11    1    3    3    0    0 -0.32571618761E+02  0.44266724096E+02  0.97421346751E+02  0.11185424450E+03  0.00000000000E+00 0. -1.
          1    1    1    2  501    0  0.26271804224E+02  0.55370161191E+02  0.87855557818E+01  0.61913233141E+02  0.00000000000E+00 0. -1.
<scales pt_clust_5="13000.00000" pt_clust_6="13000.00000" pt_clust_7="13000.00000" pt_clust_8="13000.00000" pt_clust_9="61.28672"></scales>
<clustering>
<clus scale="   61.287">  2  9  1 -1</clus>
<clus scale="   88.238">  5  6 -1 -1</clus>
<clus scale="   92.557">  7  8 -1 -1</clus>
<clus scale="  102.688">  2  5  1 -1</clus>
<clus scale="   61.287">  2  5  1 -1</clus>
</clustering>
</event>
<event>
 9    1  0.1610296E-005  0.1114091E+03  0.7546771E-02  0.1258285E+00
          2   -1    0    0  502    0 -0.00000000000E+00  0.00000000000E+00  0.56669217765E+03  0.56669217765E+03  0.00000000000E+00 0. -1.
         21   -1    0    0  501  502  0.00000000000E+00 -0.00000000000E+00 -0.78488053572E+02  0.78488053572E+02  0.00000000000E+00 0. -1.
         23    2    1    2    0    0 -0.89927547751E+02 -0.59870962369E+01  0.35437394585E+03  0.37687159547E+03  0.91260598324E+02 0.  0.
         23    2    1    2    0    0 -0.46002115205E+00  0.61421819055E+02  0.11839665102E+03  0.16115867137E+03  0.90451638510E+02 0.  0.
        -11    1    4    4    0    0 -0.31029517533E+02  0.68302987244E+02  0.99337212367E+02  0.12448297388E+03  0.00000000000E+00 0. -1.
         11    1    4    4    0    0  0.30569496381E+02 -0.68811681888E+01  0.19059438654E+02  0.36675697491E+02  0.00000000000E+00 0.  1.
        -11    1    3    3    0    0 -0.82094951678E+02  0.16912600313E+02  0.33650664399E+03  0.34678860793E+03  0.00000000000E+00 0. -1.
         11    1    3    3    0    0 -0.78325960730E+01 -0.22899696550E+02  0.17867301857E+02  0.30082987534E+02  0.00000000000E+00 0.  1.
          2    1    1    2  501    0  0.90387568903E+02 -0.55434722818E+02  0.15433527207E+02  0.10714996439E+03  0.00000000000E+00 0. -1.
<scales pt_clust_5="13000.00000" pt_clust_6="13000.00000" pt_clust_7="13000.00000" pt_clust_8="13000.00000" pt_clust_9="106.03264"></scales>
<clustering>
<clus scale="   90.452">  5  6 -1 -1</clus>
<clus scale="   91.261">  7  8 -1 -1</clus>
<clus scale="  106.033">  2  9  1 -1</clus>
<clus scale="  110.747">  2  5  1 -1</clus>
<clus scale="  106.033">  2  5  1 -1</clus>
</clustering>
</event>
<event>
 9    1  0.1610296E-005  0.9703758E+02  0.7546771E-02  0.1289812E+00
         21   -1    0    0  501  502  0.00000000000E+00  0.00000000000E+00  0.38829727812E+02  0.38829727812E+02  0.00000000000E+00 0.  1.
          1   -1    0    0  502    0 -0.00000000000E+00 -0.00000000000E+00 -0.56007864247E+03  0.56007864247E+03  0.00000000000E+00 0. -1.
         23    2    1    2    0    0 -0.83354833905E+01  0.14778383470E+02 -0.25538776006E+03  0.27011573499E+03  0.86323353731E+02 0.  0.
         23    2    1    2    0    0  0.73905967727E+02  0.69387082182E+01 -0.20500890715E+03  0.23673767069E+03  0.92227083749E+02 0.  0.
        -13    1    4    4    0    0  0.49237978345E+02 -0.30996955069E+02 -0.16953115173E+03  0.17923727610E+03  0.00000000000E+00 0. -1.
         13    1    4    4    0    0  0.24667989382E+02  0.37935663287E+02 -0.35477755418E+02  0.57500394596E+02  0.00000000000E+00 0.  1.
        -13    1    3    3    0    0  0.16939094153E+02  0.38171491796E+02 -0.20416347519E+03  0.20839078746E+03  0.00000000000E+00 0.  1.
         13    1    3    3    0    0 -0.25274577543E+02 -0.23393108326E+02 -0.51224284873E+02  0.61724947533E+02  0.00000000000E+00 0. -1.
          1    1    1    2  501    0 -0.65570484337E+02 -0.21717091688E+02 -0.60852247442E+02  0.92054964594E+02  0.00000000000E+00 0. -1.
<scales pt_clust_5="13000.00000" pt_clust_6="13000.00000" pt_clust_7="13000.00000" pt_clust_8="13000.00000" pt_clust_9="69.07330"></scales>
<clustering>
<clus scale="   69.073">  1  9  2 -1</clus>
<clus scale="   86.323">  7  8 -1 -1</clus>
<clus scale="   91.445">  2  7  1 -1</clus>
<clus scale="   92.227">  5  6 -1 -1</clus>
<clus scale="   69.073">  1  5  2 -1</clus>
</clustering>
</event>
<event>
 9    1  0.1610296E-005  0.1198904E+03  0.7546771E-02  0.1244362E+00
          1   -1    0    0  502    0 -0.00000000000E+00  0.00000000000E+00  0.40936122569E+03  0.40936122569E+03  0.00000000000E+00 0. -1.
         21   -1    0    0  501  502  0.00000000000E+00 -0.00000000000E+00 -0.80620303164E+02  0.80620303164E+02  0.00000000000E+00 0. -1.
         23    2    1    2    0    0 -0.34828208577E+02  0.76693808752E+02  0.31008215016E+03  0.33399284193E+03  0.91133606339E+02 0.  0.
         23    2    1    2    0    0 -0.37666426538E+00 -0.41701283662E+02  0.24194659432E+02  0.10604365784E+03  0.94449652666E+02 0.  0.
        -11    1    3    3    0    0  0.29131149567E+02  0.16629468236E+02  0.57058378343E+02  0.66187775518E+02  0.00000000000E+00 0.  1.
         11    1    3    3    0    0 -0.63959358144E+02  0.60064340516E+02  0.25302377181E+03  0.26780506642E+03  0.00000000000E+00 0. -1.
        -11    1    4    4    0    0  0.23725542519E+02 -0.65177193892E+02  0.12883628554E+02  0.70547543232E+02  0.00000000000E+00 0. -1.
         11    1    4    4    0    0 -0.24102206784E+02  0.23475910230E+02  0.11311030878E+02  0.35496114611E+02  0.00000000000E+00 0.  1.
          1    1    1    2  501    0  0.35204872842E+02 -0.34992525090E+02 -0.55358870607E+01  0.49945029078E+02  0.00000000000E+00 0. -1.
<scales pt_clust_5="13000.00000" pt_clust_6="13000.00000" pt_clust_7="13000.00000" pt_clust_8="13000.00000" pt_clust_9="49.63728"></scales>
<clustering>
<clus scale="   49.637">  2  9  1 -1</clus>
<clus scale="   91.134">  5  6 -1 -1</clus>
<clus scale="   94.450">  7  8 -1 -1</clus>
<clus scale="  117.296">  1  5  2 -1</clus>
<clus scale="   49.637">  2  5  1 -1</clus>
</clustering>
</event>
<event>
 9    1  0.1610296E-005  0.1084456E+03  0.7546771E-02  0.1263625E+00
          1   -1    0    0  502    0 -0.00000000000E+00  0.00000000000E+00  0.25391308531E+03  0.25391308531E+03  0.00000000000E+00 0. -1.
         21   -1    0    0  501  502  0.00000000000E+00 -0.00000000000E+00 -0.64231504022E+02  0.64231504022E+02  0.00000000000E+00 0.  1.
         23    2    1    2    0    0 -0.24840920197E+02  0.51597564611E+02  0.10405400505E+03  0.14949945778E+03  0.90793567608E+02 0.  0.
         23    2    1    2    0    0  0.53832164288E+02 -0.37125776692E+02  0.73080370510E+02  0.13389808490E+03  0.91168697365E+02 0.  0.
        -11    1    3    3    0    0 -0.47950252996E+01  0.32473513217E+02  0.11508820981E+03  0.11967797360E+03  0.00000000000E+00 0. -1.
         11    1    3    3    0    0 -0.20045894897E+02  0.19124051394E+02 -0.11034204758E+02  0.29821484178E+02  0.00000000000E+00 0.  1.
        -11    1    4    4    0    0  0.51548375498E+02  0.17888149331E+02  0.50631466294E+02  0.74436323673E+02  0.00000000000E+00 0.  1.
         11    1    4    4    0    0  0.22837887908E+01 -0.55013926023E+02  0.22448904216E+02  0.59461761227E+02  0.00000000000E+00 0. -1.
          1    1    1    2  501    0 -0.28991244092E+02 -0.14471787918E+02  0.12547205728E+02  0.34747046653E+02  0.00000000000E+00 0. -1.
<scales pt_clust_5="13000.00000" pt_clust_6="13000.00000" pt_clust_7="13000.00000" pt_clust_8="13000.00000" pt_clust_9="32.40254"></scales>
<clustering>
<clus scale="   32.403">  2  9  1 -1</clus>
<clus scale="   90.794">  5  6 -1 -1</clus>
<clus scale="   91.169">  7  8 -1 -1</clus>
<clus scale="  108.130">  1  5  2 -1</clus>
<clus scale="   32.403">  2  5  1 -1</clus>
</clustering>
</event>
<event>
 9    1  0.1610296E-005  0.1012426E+03  0.7546771E-02  0.1278282E+00
         21   -1    0    0  501  502  0.00000000000E+00  0.00000000000E+00  0.42000447926E+02  0.42000447926E+02  0.00000000000E+00 0.  1.
          1   -1    0    0  502    0 -0.00000000000E+00 -0.00000000000E+00 -0.59401086121E+03  0.59401086121E+03  0.00000000000E+00 0. -1.
         23    2    1    2    0    0  0.36142540980E+02  0.14190303649E+02 -0.35775083948E+03  0.37162866355E+03  0.92814613238E+02 0.  0.
         23    2    1    2    0    0 -0.50050156741E+02  0.35600186480E+02 -0.17940662329E+03  0.21059486982E+03  0.91602790615E+02 0.  0.
        -11    1    4    4    0    0 -0.25661957009E+02  0.55111997381E+02 -0.16567466253E+03  0.17647651996E+03  0.00000000000E+00 0. -1.
         11    1    4    4    0    0 -0.24388199733E+02 -0.19511810901E+02 -0.13731960754E+02  0.34118349858E+02  0.00000000000E+00 0.  1.
        -11    1    3    3    0    0  0.30696983374E+02  0.50845004957E+02 -0.26850030431E+03  0.27499078663E+03  0.00000000000E+00 0. -1.
         11    1    3    3    0    0  0.54455576066E+01 -0.36654701308E+02 -0.89250535177E+02  0.96637876916E+02  0.00000000000E+00 0.  1.
          1    1    1    2  501    0  0.13907615761E+02 -0.49790490129E+02 -0.14852950513E+02  0.53787775771E+02  0.00000000000E+00 0. -1.
<scales pt_clust_5="13000.00000" pt_clust_6="13000.00000" pt_clust_7="13000.00000" pt_clust_8="13000.00000" pt_clust_9="51.69637"></scales>
<clustering>
<clus scale="   51.696">  1  9  2 -1</clus>
<clus scale="   91.603">  5  6 -1 -1</clus>
<clus scale="   92.815">  7  8 -1 -1</clus>
<clus scale="  100.133">  1  5  2 -1</clus>
<clus scale="   51.696">  1  5  2 -1</clus>
</clustering>
</event>
<event>
 9    1  0.1610296E-005  0.1380076E+03  0.7546771E-02  0.1216834E+00
          1   -1    0    0  502    0 -0.00000000000E+00  0.00000000000E+00  0.88484443396E+02  0.88484443396E+02  0.00000000000E+00 0. -1.
         21   -1    0    0  501  502  0.00000000000E+00 -0.00000000000E+00 -0.50707626395E+03  0.50707626395E+03  0.00000000000E+00 0. -1.
         23    2    1    2    0    0 -0.12215068541E+03  0.12207986733E+02 -0.41852076422E+02  0.15870758507E+03  0.91469537940E+02 0.  0.
         23    2    1    2    0    0  0.66070475341E+02  0.38992990339E+02 -0.12820530946E+03  0.17697642992E+03  0.94859339897E+02 0.  0.
        -11    1    3    3    0    0 -0.65950986934E+02 -0.35499537061E+02 -0.40124279064E+02  0.84968862411E+02  0.00000000000E+00 0.  1.
         11    1    3    3    0    0 -0.56199698475E+02  0.47707523794E+02 -0.17277973584E+01  0.73738722655E+02  0.00000000000E+00 0. -1.
        -11    1    4    4    0    0  0.63609135702E+02  0.71029798426E+00 -0.12271607313E+03  0.13822395332E+03  0.00000000000E+00 0.  1.
         11    1    4    4    0    0  0.24613396388E+01  0.38282692355E+02 -0.54892363296E+01  0.38752476595E+02  0.00000000000E+00 0. -1.
          1    1    1    2  501    0  0.56080210067E+02 -0.51200977072E+02 -0.24853443467E+03  0.25987669236E+03  0.00000000000E+00 0. -1.
<scales pt_clust_5="13000.00000" pt_clust_6="13000.00000" pt_clust_7="13000.00000" pt_clust_8="13000.00000" pt_clust_9="75.93767"></scales>
<clustering>
<clus scale="   75.938">  2  9  1 -1</clus>
<clus scale="   91.470">  5  6 -1 -1</clus>
<clus scale="   94.859">  7  8 -1 -1</clus>
<clus scale="  135.700">  1  5  2 -1</clus>
<clus scale="   75.938">  2  5  1 -1</clus>
</clustering>
</event>
<event>
 9    1  0.1610296E-005  0.9551430E+02  0.7546771E-02  0.1292795E+00
         21   -1    0    0  501  502  0.00000000000E+00  0.00000000000E+00  0.37320790185E+03  0.37320790185E+03  0.00000000000E+00 0. -1.
          1   -1    0    0  502    0 -0.00000000000E+00 -0.00000000000E+00 -0.22996482052E+03  0.22996482052E+03  0.00000000000E+00 0. -1.
         23    2    1    2    0    0 -0.18870579589E+02 -0.52035222495E+01 -0.19808754776E+03  0.21968191330E+03  0.92942407090E+02 0.  0.
         23    2    1    2    0    0  0.58475199477E+02 -0.72824558807E+01  0.12783804211E+03  0.16599710740E+03  0.87977790029E+02 0.  0.
        -11    1    3    3    0    0 -0.21066457405E+02 -0.42448728058E+02 -0.15784379690E+03  0.16480398770E+03  0.00000000000E+00 0. -1.
         11    1    3    3    0    0  0.21958778162E+01  0.37245205808E+02 -0.40243750860E+02  0.54877925602E+02  0.00000000000E+00 0.  1.
        -13    1    4    4    0    0  0.44175340256E+02 -0.42107300492E+02  0.47704422331E+02  0.77460940811E+02  0.00000000000E+00 0. -1.
         13    1    4    4    0    0  0.14299859221E+02  0.34824844612E+02  0.80133619776E+02  0.88536166589E+02  0.00000000000E+00 0.  1.
          1    1    1    2  501    0 -0.39604619888E+02  0.12485978130E+02  0.21349258699E+03  0.21749370167E+03  0.00000000000E+00 0. -1.
<scales pt_clust_5="13000.00000" pt_clust_6="13000.00000" pt_clust_7="13000.00000" pt_clust_8="13000.00000" pt_clust_9="41.52620"></scales>
<clustering>
<clus scale="   41.526">  1  9  2 -1</clus>
<clus scale="   87.978">  7  8 -1 -1</clus>
<clus scale="   90.691">  1  7  2 -1</clus>
<clus scale="   92.942">  5  6 -1 -1</clus>
<clus scale="   41.526">  1  5  2 -1</clus>
</clustering>
</event>
<event>
 9    1  0.1610296E-005  0.1008710E+03  0.7546771E-02  0.1279719E+00
         21   -1    0    0  501  502  0.00000000000E+00  0.00000000000E+00  0.74874909202E+02  0.74874909202E+02  0.00000000000E+00 0. -1.
         -2   -1    0    0    0  501 -0.00000000000E+00 -0.00000000000E+00 -0.29867065795E+03  0.29867065795E+03  0.00000000000E+00 0.  1.
         23    2    1    2    0    0 -0.30234180304E+02 -0.18153283207E+02 -0.13903272088E+03  0.17030150289E+03  0.91808807103E+02 0.  0.
         23    2    1    2    0    0  0.73297497271E+02 -0.21584123161E+02 -0.26083546840E+02  0.12031763767E+03  0.89205297157E+02 0.  0.
        -11    1    3    3    0    0  0.95209748527E+01 -0.47023839052E+02 -0.82181159662E+02  0.95161091864E+02  0.00000000000E+00 0. -1.
         11    1    3    3    0    0 -0.39755155157E+02  0.28870555845E+02 -0.56851561215E+02  0.75140411024E+02  0.00000000000E+00 0.  1.
        -13    1    4    4    0    0  0.93357991543E+02 -0.20766364640E+02 -0.29204636886E+02  0.99999336502E+02  0.00000000000E+00 0. -1.
         13    1    4    4    0    0 -0.20060494272E+02 -0.81775852099E+00  0.31210900457E+01  0.20318301172E+02  0.00000000000E+00 0.  1.
         -2    1    1    2    0  502 -0.43063316967E+02  0.39737406368E+02 -0.58679481032E+02  0.82926426591E+02  0.00000000000E+00 0.  1.
<scales pt_clust_5="13000.00000" pt_clust_6="13000.00000" pt_clust_7="13000.00000" pt_clust_8="13000.00000" pt_clust_9="58.59620"></scales>
<clustering>
<clus scale="   58.596">  1  9  2 -1</clus>
<clus scale="   89.205">  7  8 -1 -1</clus>
<clus scale="   91.809">  5  6 -1 -1</clus>
<clus scale="   98.507">  1  7  2 -1</clus>
<clus scale="   58.596">  1  5  2 -1</clus>
</clustering>
</event>
<event>
 9    1  0.1610296E-005  0.9925222E+02  0.7546771E-02  0.1290407E+00
         -2   -1    0    0    0  501 -0.00000000000E+00  0.00000000000E+00  0.83248703941E+03  0.83248703941E+03  0.00000000000E+00 0.  1.
         21   -1    0    0  501  502  0.00000000000E+00 -0.00000000000E+00 -0.42024295159E+02  0.42024295159E+02  0.00000000000E+00 0.  1.
         23    2    1    2    0    0  0.23606032857E+02 -0.43416168383E+02  0.59115878642E+03  0.60008027759E+03  0.90473312751E+02 0.  0.
         23    2    1    2    0    0 -0.22257365767E+02  0.18758862294E+02  0.22509185972E+03  0.23872647002E+03  0.74004708842E+02 0.  0.
        -11    1    3    3    0    0 -0.31268500263E+02  0.25223058933E+01  0.16534816913E+03  0.16829764755E+03  0.00000000000E+00 0.  1.
         11    1    3    3    0    0  0.54874533120E+02 -0.45938474277E+02  0.42581061729E+03  0.43178263004E+03  0.00000000000E+00 0. -1.
        -11    1    4    4    0    0  0.25884539833E+02 -0.40136158776E+01  0.69461525273E+02  0.74236258042E+02  0.00000000000E+00 0. -1.
         11    1    4    4    0    0 -0.48141905600E+02  0.22772478171E+02  0.15563033445E+03  0.16449021198E+03  0.00000000000E+00 0.  1.
         -2    1    1    2    0  502 -0.13486670892E+01  0.24657306089E+02 -0.25787901888E+02  0.35704586964E+02  0.00000000000E+00 0.  1.
<scales pt_clust_5="13000.00000" pt_clust_6="13000.00000" pt_clust_7="13000.00000" pt_clust_8="13000.00000" pt_clust_9="24.69416"></scales>
<clustering>
<clus scale="   24.694">  2  9  1 -1</clus>
<clus scale="   74.005">  7  8 -1 -1</clus>
<clus scale="   84.512">  2  7  1 -1</clus>
<clus scale="   90.473">  5  6 -1 -1</clus>
<clus scale="   24.694">  2  5  1 -1</clus>
</clustering>
</event>
<event>
 9    1  0.1610296E-005  0.9681385E+02  0.7546771E-02  0.1290698E+00
         21   -1    0    0  501  502  0.00000000000E+00  0.00000000000E+00  0.45097748998E+02  0.45097748998E+02  0.00000000000E+00 0. -1.
          3   -1    0    0  502    0 -0.00000000000E+00 -0.00000000000E+00 -0.28200410029E+03  0.28200410029E+03  0.00000000000E+00 0. -1.
         23    2    1    2    0    0  0.25370238942E+02 -0.96949962320E+01 -0.11530770843E+03  0.14921234616E+03  0.90723837263E+02 0.  0.
         23    2    1    2    0    0 -0.45935289645E+02 -0.84557198506E+01 -0.68232050474E+02  0.11788647830E+03  0.84024157371E+02 0.  0.
        -13    1    3    3    0    0 -0.20838507964E+02 -0.30318427744E+02 -0.21457845453E+02  0.42589782889E+02  0.00000000000E+00 0.  1.
         13    1    3    3    0    0  0.46208746906E+02  0.20623431512E+02 -0.93849862973E+02  0.10662256327E+03  0.00000000000E+00 0. -1.
        -13    1    4    4    0    0 -0.46845100197E+02  0.31313387707E+02 -0.39309138025E+02  0.68703711649E+02  0.00000000000E+00 0.  1.
         13    1    4    4    0    0  0.90981055138E+00 -0.39769107558E+02 -0.28922912449E+02  0.49182766654E+02  0.00000000000E+00 0. -1.
          3    1    1    2  501    0  0.20565050703E+02  0.18150716083E+02 -0.53366592395E+02  0.60003024829E+02  0.00000000000E+00 0. -1.
<scales pt_clust_5="13000.00000" pt_clust_6="13000.00000" pt_clust_7="13000.00000" pt_clust_8="13000.00000" pt_clust_9="27.42937"></scales>
<clustering>
<clus scale="   27.429">  1  9  2 -1</clus>
<clus scale="   84.024">  7  8 -1 -1</clus>
<clus scale="   90.566">  1  7  2 -1</clus>
<clus scale="   90.724">  5  6 -1 -1</clus>
<clus scale="   27.429">  1  5  2 -1</clus>
</clustering>
</event>
<event>
 9    1  0.1610296E-005  0.1070873E+03  0.7546771E-02  0.1266892E+00
         21   -1    0    0  501  502  0.00000000000E+00  0.00000000000E+00  0.96499251561E+03  0.96499251561E+03  0.00000000000E+00 0. -1.
         -2   -1    0    0    0  501 -0.00000000000E+00 -0.00000000000E+00 -0.17017640287E+02  0.17017640287E+02  0.00000000000E+00 0.  1.
         23    2    1    2    0    0 -0.55291976423E+02 -0.10735518276E+02  0.38919923663E+03  0.40323402502E+03  0.89158169174E+02 0.  0.
         23    2    1    2    0    0  0.56748719364E+02 -0.24118965144E+02  0.48257696661E+03  0.49497162776E+03  0.91182465215E+02 0.  0.
        -11    1    4    4    0    0  0.73659468716E+02  0.61667163429E+01  0.28846763324E+03  0.29778737573E+03  0.00000000000E+00 0. -1.
         11    1    4    4    0    0 -0.16910749352E+02 -0.30285681487E+02  0.19410933337E+03  0.19718425203E+03  0.00000000000E+00 0.  1.
        -11    1    3    3    0    0 -0.64989307867E+02  0.85426273476E+01  0.36487944989E+03  0.37072037923E+03  0.00000000000E+00 0.  1.
         11    1    3    3    0    0  0.96973314434E+01 -0.19278145623E+02  0.24319786732E+02  0.32513645789E+02  0.00000000000E+00 0. -1.
         -2    1    1    2    0  502 -0.14567429405E+01  0.34854483419E+02  0.76198672086E+02  0.83804503114E+02  0.00000000000E+00 0.  1.
<scales pt_clust_5="13000.00000" pt_clust_6="13000.00000" pt_clust_7="13000.00000" pt_clust_8="13000.00000" pt_clust_9="34.88493"></scales>
<clustering>
<clus scale="   34.885">  1  9  2 -1</clus>
<clus scale="   89.158">  7  8 -1 -1</clus>
<clus scale="   91.182">  5  6 -1 -1</clus>
<clus scale="  105.369">  2  7  1 -1</clus>
<clus scale="   34.885">  1  5  2 -1</clus>
</clustering>
</event>
<event>
 9    1  0.1610296E-005  0.1041949E+03  0.7546771E-02  0.1272562E+00
         21   -1    0    0  501  502  0.00000000000E+00  0.00000000000E+00  0.28686146279E+02  0.28686146279E+02  0.00000000000E+00 0.  1.
          3   -1    0    0  502    0 -0.00000000000E+00 -0.00000000000E+00 -0.10155568645E+04  0.10155568645E+04  0.00000000000E+00 0. -1.
         23    2    1    2    0    0 -0.17721767749E+02  0.23156087762E+02 -0.24636047438E+03  0.26431701207E+03  0.91212576351E+02 0.  0.
         23    2    1    2    0    0  0.93573425535E+02 -0.26505785839E+02 -0.24201656106E+03  0.27568335251E+03  0.89279070187E+02 0.  0.
        -11    1    4    4    0    0  0.49152667933E+02 -0.48682435657E+02 -0.19652040952E+03  0.20834163210E+03  0.00000000000E+00 0.  1.
         11    1    4    4    0    0  0.44420757602E+02  0.22176649818E+02 -0.45496151539E+02  0.67341720411E+02  0.00000000000E+00 0. -1.
        -13    1    3    3    0    0  0.15326787277E+02  0.47755203941E+02 -0.17362788737E+03  0.18072662555E+03  0.00000000000E+00 0. -1.
         13    1    3    3    0    0 -0.33048555025E+02 -0.24599116179E+02 -0.72732587007E+02  0.83590386521E+02  0.00000000000E+00 0.  1.
          3    1    1    2  501    0 -0.75851657786E+02  0.33496980769E+01 -0.49849368273E+03  0.50424264614E+03  0.00000000000E+00 0. -1.
<scales pt_clust_5="13000.00000" pt_clust_6="13000.00000" pt_clust_7="13000.00000" pt_clust_8="13000.00000" pt_clust_9="75.92562"></scales>
<clustering>
<clus scale="   75.926">  1  9  2 -1</clus>
<clus scale="   89.279">  5  6 -1 -1</clus>
<clus scale="   91.213">  7  8 -1 -1</clus>
<clus scale="  102.507">  1  5  2 -1</clus>
<clus scale="   75.926">  1  5  2 -1</clus>
</clustering>
</event>
<event>
 9    1  0.1610296E-005  0.9680373E+02  0.7546771E-02  0.1287261E+00
          1   -1    0    0  502    0 -0.00000000000E+00  0.00000000000E+00  0.57341637347E+03  0.57341637347E+03  0.00000000000E+00 0. -1.
         21   -1    0    0  501  502  0.00000000000E+00 -0.00000000000E+00 -0.37177082211E+02  0.37177082211E+02  0.00000000000E+00 0. -1.
         23    2    1    2    0    0  0.27243238454E+02  0.86332358026E+01  0.36746157834E+03  0.37937973776E+03  0.89912441100E+02 0.  0.
         23    2    1    2    0    0 -0.60875793101E+02  0.18881580458E+02  0.14318753686E+03  0.18078484765E+03  0.90100578044E+02 0.  0.
        -11    1    3    3    0    0  0.36966040490E+02 -0.33079231643E+02  0.23452247950E+03  0.23971132036E+03  0.00000000000E+00 0.  1.
         11    1    3    3    0    0 -0.97228020364E+01  0.41712467446E+02  0.13293909884E+03  0.13966841740E+03  0.00000000000E+00 0. -1.
        -11    1    4    4    0    0  0.82763745838E+01  0.26050636382E+02  0.75331876490E+01  0.28352829635E+02  0.00000000000E+00 0.  1.
         11    1    4    4    0    0 -0.69152167685E+02 -0.71690559244E+01  0.13565434921E+03  0.15243201802E+03  0.00000000000E+00 0. -1.
          1    1    1    2  501    0  0.33632554647E+02 -0.27514816260E+02  0.25590176071E+02  0.50428870275E+02  0.00000000000E+00 0. -1.
<scales pt_clust_5="13000.00000" pt_clust_6="13000.00000" pt_clust_7="13000.00000" pt_clust_8="13000.00000" pt_clust_9="43.45358"></scales>
<clustering>
<clus scale="   43.454">  2  9  1 -1</clus>
<clus scale="   89.912">  5  6 -1 -1</clus>
<clus scale="   90.101">  7  8 -1 -1</clus>
<clus scale="   96.629">  1  5  2 -1</clus>
<clus scale="   43.454">  2  5  1 -1</clus>
</clustering>
</event>
<event>
 9    1  0.1610296E-005  0.4180620E+03  0.7546771E-02  0.1037712E+00
         21   -1    0    0  501  502  0.00000000000E+00  0.00000000000E+00  0.13535566871E+03  0.13535566871E+03  0.00000000000E+00 0.  1.
          1   -1    0    0  502    0 -0.00000000000E+00 -0.00000000000E+00 -0.15307325529E+04  0.15307325529E+04  0.00000000000E+00 0. -1.
         23    2    1    2    0    0 -0.33088232375E+03 -0.26754151120E+03 -0.77175128564E+03  0.88573286811E+03  0.88662812809E+02 0.  0.
         23    2    1    2    0    0  0.30768972224E+03  0.24097162811E+03 -0.62774421050E+03  0.74484734850E+03  0.89411900910E+02 0.  0.
        -11    1    4    4    0    0  0.88065700619E+02  0.33415839970E+02 -0.10509090245E+03  0.14112506426E+03  0.00000000000E+00 0. -1.
         11    1    4    4    0    0  0.21962402162E+03  0.20755578814E+03 -0.52265330806E+03  0.60372228424E+03  0.00000000000E+00 0.  1.
        -11    1    3    3    0    0 -0.67585298940E+02 -0.75711345408E+02 -0.12046762758E+03  0.15751961703E+03  0.00000000000E+00 0.  1.
         11    1    3    3    0    0 -0.26329702481E+03 -0.19183016580E+03 -0.65128365806E+03  0.72821325108E+03  0.00000000000E+00 0. -1.
          1    1    1    2  501    0  0.23192601507E+02  0.26569883095E+02  0.41186119746E+01  0.35508004970E+02  0.00000000000E+00 0. -1.
<scales pt_clust_5="13000.00000" pt_clust_6="13000.00000" pt_clust_7="13000.00000" pt_clust_8="13000.00000" pt_clust_9="35.26833"></scales>
<clustering>
<clus scale="   35.268">  1  9  2 -1</clus>
<clus scale="   88.663">  7  8 -1 -1</clus>
<clus scale="   89.412">  5  6 -1 -1</clus>
<clus scale="  417.902">  2  7  1 -1</clus>
<clus scale="   35.268">  1  5  2 -1</clus>
</clustering>
</event>
<event>
 9    1  0.1610296E-005  0.9459874E+02  0.7546771E-02  0.1296583E+00
         21   -1    0    0  501  502  0.00000000000E+00  0.00000000000E+00  0.12660852975E+03  0.12660852975E+03  0.00000000000E+00 0.  1.
          2   -1    0    0  502    0 -0.00000000000E+00 -0.00000000000E+00 -0.92743808706E+02  0.92743808706E+02  0.00000000000E+00 0. -1.
         23    2    1    2    0    0  0.96232862023E+01  0.55583582047E+01 -0.17369458360E+02  0.87487628840E+02  0.85022844772E+02 0.  0.
         23    2    1    2    0    0 -0.30129608479E+02 -0.14053090664E+02  0.35926477042E+02  0.10490185583E+03  0.92781490281E+02 0.  0.
        -11    1    4    4    0    0  0.31845687289E+02  0.37444444309E+01  0.22135397857E+02  0.38963373844E+02  0.00000000000E+00 0. -1.
         11    1    4    4    0    0 -0.61975295769E+02 -0.17797535095E+02  0.13791079185E+02  0.65938481982E+02  0.00000000000E+00 0.  1.
        -13    1    3    3    0    0  0.23377688631E+02  0.21542197566E+02 -0.43520077673E+02  0.53894153323E+02  0.00000000000E+00 0. -1.
         13    1    3    3    0    0 -0.13754402429E+02 -0.15983839361E+02  0.26150619313E+02  0.33593475518E+02  0.00000000000E+00 0.  1.
          2    1    1    2  501    0  0.20506322277E+02  0.84947324593E+01  0.15307702362E+02  0.26962853790E+02  0.00000000000E+00 0. -1.
<scales pt_clust_5="13000.00000" pt_clust_6="13000.00000" pt_clust_7="13000.00000" pt_clust_8="13000.00000" pt_clust_9="22.19616"></scales>
<clustering>
<clus scale="   22.196">  1  9  2 -1</clus>
<clus scale="   85.023">  7  8 -1 -1</clus>
<clus scale="   87.002">  2  7  1 -1</clus>
<clus scale="   92.781">  5  6 -1 -1</clus>
<clus scale="   22.196">  1  5  2 -1</clus>
</clustering>
</event>
<event>
 9    1  0.1610296E-005  0.1245837E+03  0.7546771E-02  0.1236512E+00
         21   -1    0    0  501  502  0.00000000000E+00  0.00000000000E+00  0.11848472314E+03  0.11848472314E+03  0.00000000000E+00 0. -1.
          2   -1    0    0  502    0 -0.00000000000E+00 -0.00000000000E+00 -0.46979530803E+03  0.46979530803E+03  0.00000000000E+00 0. -1.
         23    2    1    2    0    0  0.63447439368E+02 -0.50616792902E+00 -0.23153329593E+03  0.25696182206E+03  0.91629018886E+02 0.  0.
         23    2    1    2    0    0 -0.14023716228E+03  0.18678921904E+02 -0.16953252193E+03  0.23803105169E+03  0.88893991756E+02 0.  0.
        -11    1    3    3    0    0 -0.12963244218E+02  0.23134374581E+02 -0.95920923678E+02  0.99519187030E+02  0.00000000000E+00 0.  1.
         11    1    3    3    0    0  0.76410683586E+02 -0.23640542510E+02 -0.13561237226E+03  0.15744263503E+03  0.00000000000E+00 0. -1.
        -13    1    4    4    0    0 -0.10292662420E+03  0.10115962207E+02 -0.17086480485E+03  0.19972732461E+03  0.00000000000E+00 0. -1.
         13    1    4    4    0    0 -0.37310538078E+02  0.85629596977E+01  0.13322829189E+01  0.38303727080E+02  0.00000000000E+00 0.  1.
          2    1    1    2  501    0  0.76789722912E+02 -0.18172753975E+02  0.49755232971E+02  0.93287157422E+02  0.00000000000E+00 0. -1.
<scales pt_clust_5="13000.00000" pt_clust_6="13000.00000" pt_clust_7="13000.00000" pt_clust_8="13000.00000" pt_clust_9="78.91078"></scales>
<clustering>
<clus scale="   78.911">  1  9  2 -1</clus>
<clus scale="   88.894">  7  8 -1 -1</clus>
<clus scale="   91.629">  5  6 -1 -1</clus>
<clus scale="  122.586">  1  7  2 -1</clus>
<clus scale="   78.911">  1  5  2 -1</clus>
</clustering>
</event>
<event>
 9    1  0.1610296E-005  0.1908909E+03  0.7546771E-02  0.1158090E+00
         21   -1    0    0  501  502  0.00000000000E+00  0.00000000000E+00  0.12729947047E+03  0.12729947047E+03  0.00000000000E+00 0. -1.
          2   -1    0    0  502    0 -0.00000000000E+00 -0.00000000000E+00 -0.71827030796E+03  0.71827030796E+03  0.00000000000E+00 0. -1.
         23    2    1    2    0    0 -0.15159196805E+03  0.58761406690E+02 -0.46612490118E+03  0.50173751427E+03  0.89638619119E+02 0.  0.
         23    2    1    2    0    0  0.18536989522E+03 -0.27709277377E+02 -0.17895804458E+03  0.27288648656E+03  0.85505851979E+02 0.  0.
        -11    1    4    4    0    0  0.14479369838E+03  0.16786713862E+02 -0.12873952713E+03  0.19447589748E+03  0.00000000000E+00 0. -1.
         11    1    4    4    0    0  0.40576196834E+02 -0.44495991239E+02 -0.50218517448E+02  0.78410589084E+02  0.00000000000E+00 0.  1.
        -11    1    3    3    0    0 -0.99600911356E+02  0.81221971264E+02 -0.30608087422E+03  0.33196814865E+03  0.00000000000E+00 0. -1.
         11    1    3    3    0    0 -0.51991056691E+02 -0.22460564574E+02 -0.16004402696E+03  0.16976936562E+03  0.00000000000E+00 0.  1.
          2    1    1    2  501    0 -0.33777927169E+02 -0.31052129313E+02  0.54112108266E+02  0.70945777603E+02  0.00000000000E+00 0. -1.
<scales pt_clust_5="13000.00000" pt_clust_6="13000.00000" pt_clust_7="13000.00000" pt_clust_8="13000.00000" pt_clust_9="45.88227"></scales>
<clustering>
<clus scale="   45.882">  1  9  2 -1</clus>
<clus scale="   85.506">  5  6 -1 -1</clus>
<clus scale="   89.639">  7  8 -1 -1</clus>
<clus scale="  188.985">  1  5  2 -1</clus>
<clus scale="   45.882">  1  5  2 -1</clus>
</clustering>
</event>
<event>
 9    1  0.1610296E-005  0.1170456E+03  0.7546771E-02  0.1251004E+00
         21   -1    0    0  501  502  0.00000000000E+00  0.00000000000E+00  0.12457839443E+03  0.12457839443E+03  0.00000000000E+00 0. -1.
          2   -1    0    0  502    0 -0.00000000000E+00 -0.00000000000E+00 -0.41162636084E+03  0.41162636084E+03  0.00000000000E+00 0. -1.
         23    2    1    2    0    0 -0.20357652622E+02  0.73386095933E+02 -0.35389285630E+03  0.37336088440E+03  0.91423427851E+02 0.  0.
         23    2    1    2    0    0  0.34086025355E+00 -0.57203076797E+02  0.10716389471E+02  0.10109461464E+03  0.82661792412E+02 0.  0.
        -11    1    4    4    0    0 -0.29303653422E+02 -0.27128755711E+02  0.34374486004E+02  0.52690404993E+02  0.00000000000E+00 0. -1.
         11    1    4    4    0    0  0.29644513675E+02 -0.30074321086E+02 -0.23658096533E+02  0.48404209645E+02  0.00000000000E+00 0.  1.
        -13    1    3    3    0    0  0.23072337531E+02 -0.89017023098E+01 -0.98158075807E+02  0.10122539656E+03  0.00000000000E+00 0.  1.
         13    1    3    3    0    0 -0.43429990153E+02  0.82287798242E+02 -0.25573478050E+03  0.27213548784E+03  0.00000000000E+00 0. -1.
          2    1    1    2  501    0  0.20016792369E+02 -0.16183019136E+02  0.56128500425E+02  0.61749256230E+02  0.00000000000E+00 0. -1.
<scales pt_clust_5="13000.00000" pt_clust_6="13000.00000" pt_clust_7="13000.00000" pt_clust_8="13000.00000" pt_clust_9="25.74028"></scales>
<clustering>
<clus scale="   25.740">  1  9  2 -1</clus>
<clus scale="   82.662">  5  6 -1 -1</clus>
<clus scale="   91.423">  7  8 -1 -1</clus>
<clus scale="  110.338">  1  5  2 -1</clus>
<clus scale="   25.740">  1  5  2 -1</clus>
</clustering>
</event>
<event>
 9    1  0.1610296E-005  0.1085413E+03  0.7546771E-02  0.1263528E+00
         21   -1    0    0  501  502  0.00000000000E+00  0.00000000000E+00  0.22788318790E+03  0.22788318790E+03  0.00000000000E+00 0.  1.
         -1   -1    0    0    0  501 -0.00000000000E+00 -0.00000000000E+00 -0.67553298187E+02  0.67553298187E+02  0.00000000000E+00 0.  1.
         23    2    1    2    0    0 -0.41318582043E+02 -0.47305914081E+02  0.36784272404E+02  0.11729110567E+03  0.91973072390E+02 0.  0.
         23    2    1    2    0    0  0.20836711222E+02  0.45317274740E+02  0.11684891762E+03  0.15650496671E+03  0.91390979481E+02 0.  0.
        -13    1    4    4    0    0  0.31283487103E+02  0.25497659618E+02  0.29967612582E+01  0.40469343822E+02  0.00000000000E+00 0. -1.
         13    1    4    4    0    0 -0.10446775881E+02  0.19819615122E+02  0.11385215637E+03  0.11603562289E+03  0.00000000000E+00 0.  1.
        -13    1    3    3    0    0 -0.66472191365E+02 -0.13153643909E+02  0.30882982789E+02  0.74466967166E+02  0.00000000000E+00 0.  1.
         13    1    3    3    0    0  0.25153609322E+02 -0.34152270172E+02  0.59012896149E+01  0.42824138508E+02  0.00000000000E+00 0. -1.
         -1    1    1    2    0  502  0.20481870820E+02  0.19886393408E+01  0.66966996900E+01  0.21640413708E+02  0.00000000000E+00 0.  1.
<scales pt_clust_5="13000.00000" pt_clust_6="13000.00000" pt_clust_7="13000.00000" pt_clust_8="13000.00000" pt_clust_9="20.57820"></scales>
<clustering>
<clus scale="   20.578">  1  9  2 -1</clus>
<clus scale="   91.391">  5  6 -1 -1</clus>
<clus scale="   91.973">  7  8 -1 -1</clus>
<clus scale="  108.048">  1  5  2 -1</clus>
<clus scale="   20.578">  1  5  2 -1</clus>
</clustering>
</event>
<event>
 9    1  0.1610296E-005  0.1002223E+03  0.7546771E-02  0.1280357E+00
          1   -1    0    0  502    0 -0.00000000000E+00  0.00000000000E+00  0.38236662273E+03  0.38236662273E+03  0.00000000000E+00 0. -1.
         21   -1    0    0  501  502  0.00000000000E+00 -0.00000000000E+00 -0.60191766000E+02  0.60191766000E+02  0.00000000000E+00 0. -1.
         23    2    1    2    0    0  0.86289434123E+01  0.40578467840E+02  0.30165372132E+03  0.31797221210E+03  0.91598522701E+02 0.  0.
         23    2    1    2    0    0  0.25171382172E+01 -0.20012534627E+02  0.22055001058E+01  0.94876662315E+02  0.92681601703E+02 0.  0.
        -11    1    4    4    0    0 -0.38859710204E+02 -0.61169074496E+00 -0.20398601657E+02  0.43892530028E+02  0.00000000000E+00 0.  1.
         11    1    4    4    0    0  0.41376848421E+02 -0.19400843882E+02  0.22604101763E+02  0.50984132287E+02  0.00000000000E+00 0. -1.
        -13    1    3    3    0    0 -0.19077318939E+02  0.43353863482E+02  0.27624667065E+03  0.28027794173E+03  0.00000000000E+00 0.  1.
         13    1    3    3    0    0  0.27706262351E+02 -0.27753956427E+01  0.25407050676E+02  0.37694270367E+02  0.00000000000E+00 0. -1.
          1    1    1    2  501    0 -0.11146081630E+02 -0.20565933213E+02  0.18315635302E+02  0.29709514320E+02  0.00000000000E+00 0. -1.
<scales pt_clust_5="13000.00000" pt_clust_6="13000.00000" pt_clust_7="13000.00000" pt_clust_8="13000.00000" pt_clust_9="23.39215"></scales>
<clustering>
<clus scale="   23.392">  2  9  1 -1</clus>
<clus scale="   91.599">  7  8 -1 -1</clus>
<clus scale="   92.682">  5  6 -1 -1</clus>
<clus scale="   99.222">  1  7  2 -1</clus>
<clus scale="   23.392">  2  5  1 -1</clus>
</clustering>
</event>
<event>
 9    1  0.1610296E-005  0.1198251E+03  0.7546771E-02  0.1245058E+00
          2   -1    0    0  502    0 -0.00000000000E+00  0.00000000000E+00  0.10365455169E+03  0.10365455169E+03  0.00000000000E+00 0. -1.
         21   -1    0    0  501  502  0.00000000000E+00 -0.00000000000E+00 -0.29996595196E+03  0.29996595196E+03  0.00000000000E+00 0.  1.
         23    2    1    2    0    0 -0.46791789919E+02  0.60620188817E+02  0.12071764996E+02  0.11877395911E+03  0.89984704011E+02 0.  0.
         23    2    1    2    0    0  0.58594093172E+01 -0.66016754060E+02 -0.21382507509E+03  0.24320285258E+03  0.95046937185E+02 0.  0.
        -11    1    3    3    0    0 -0.19443216460E+02  0.76775869481E+02  0.27002019890E+02  0.83676053199E+02  0.00000000000E+00 0. -1.
         11    1    3    3    0    0 -0.27348573459E+02 -0.16155680664E+02 -0.14930254893E+02  0.35097905908E+02  0.00000000000E+00 0.  1.
        -13    1    4    4    0    0  0.32059875285E+02 -0.89879870258E+01 -0.15015156815E+03  0.15379893671E+03  0.00000000000E+00 0. -1.
         13    1    4    4    0    0 -0.26200465968E+02 -0.57028767034E+02 -0.63673506943E+02  0.89403915869E+02  0.00000000000E+00 0.  1.
          2    1    1    2  501    0  0.40932380602E+02  0.53965652428E+01  0.54419098238E+01  0.41643691967E+02  0.00000000000E+00 0. -1.
<scales pt_clust_5="13000.00000" pt_clust_6="13000.00000" pt_clust_7="13000.00000" pt_clust_8="13000.00000" pt_clust_9="41.28661"></scales>
<clustering>
<clus scale="   41.287">  2  9  1 -1</clus>
<clus scale="   89.985">  5  6 -1 -1</clus>
<clus scale="   95.047">  7  8 -1 -1</clus>
<clus scale="  115.851">  1  5  2 -1</clus>
<clus scale="   41.287">  2  5  1 -1</clus>
</clustering>
</event>
<event>
 9    1  0.1610296E-005  0.1108326E+03  0.7546771E-02  0.1262414E+00
         -1   -1    0    0    0  501 -0.00000000000E+00  0.00000000000E+00  0.43613261044E+03  0.43613261044E+03  0.00000000000E+00 0.  1.
         21   -1    0    0  501  502  0.00000000000E+00 -0.00000000000E+00 -0.11417030736E+03  0.11417030736E+03  0.00000000000E+00 0. -1.
         23    2    1    2    0    0  0.60154920258E+02  0.25594038459E+02  0.37639557025E+03  0.39286568395E+03  0.91630513929E+02 0.  0.
         23    2    1    2    0    0 -0.38433026842E+02 -0.26010299408E+02  0.40186524405E+01  0.95078266305E+02  0.82886029755E+02 0.  0.
        -11    1    4    4    0    0  0.47343907430E+01 -0.46827107912E+02  0.23618531545E+01  0.47125055347E+02  0.00000000000E+00 0.  1.
         11    1    4    4    0    0 -0.43167417585E+02  0.20816808505E+02  0.16567992860E+01  0.47953210957E+02  0.00000000000E+00 0. -1.
        -11    1    3    3    0    0  0.51304971910E+02  0.58883410065E+02  0.26419078458E+03  0.27549269823E+03  0.00000000000E+00 0. -1.
         11    1    3    3    0    0  0.88499483475E+01 -0.33289371606E+02  0.11220478567E+03  0.11737298572E+03  0.00000000000E+00 0.  1.
         -1    1    1    2    0  502 -0.21721893416E+02  0.41626094860E+00 -0.58451919618E+02  0.62358967549E+02  0.00000000000E+00 0.  1.
<scales pt_clust_5="13000.00000" pt_clust_6="13000.00000" pt_clust_7="13000.00000" pt_clust_8="13000.00000" pt_clust_9="21.72588"></scales>
<clustering>
<clus scale="   21.726">  2  9  1 -1</clus>
<clus scale="   82.886">  5  6 -1 -1</clus>
<clus scale="   91.631">  7  8 -1 -1</clus>
<clus scale="  103.720">  2  5  1 -1</clus>
<clus scale="   21.726">  2  5  1 -1</clus>
</clustering>
</event>
<event>
 9    1  0.1610296E-005  0.1257648E+03  0.7546771E-02  0.1235026E+00
         -1   -1    0    0    0  501 -0.00000000000E+00  0.00000000000E+00  0.21361725905E+03  0.21361725905E+03  0.00000000000E+00 0.  1.
         21   -1    0    0  501  502  0.00000000000E+00 -0.00000000000E+00 -0.10077286058E+03  0.10077286058E+03  0.00000000000E+00 0.  1.
         23    2    1    2    0    0 -0.73515947881E+02 -0.56269022992E+02  0.11535280959E+03  0.17518769319E+03  0.93881093003E+02 0.  0.
         23    2    1    2    0    0  0.48358980746E+02  0.46273534531E+02 -0.25561213786E+01  0.11213242346E+03  0.89929503604E+02 0.  0.
        -11    1    4    4    0    0  0.43583615763E+02  0.68436055930E+02  0.16165252405E+02  0.82730530637E+02  0.00000000000E+00 0.  1.
         11    1    4    4    0    0  0.47753649832E+01 -0.22162521398E+02 -0.18721373784E+02  0.29401892827E+02  0.00000000000E+00 0. -1.
        -13    1    3    3    0    0 -0.54131156997E+02 -0.82056853746E+02  0.75721906224E+02  0.12408592381E+03  0.00000000000E+00 0.  1.
         13    1    3    3    0    0 -0.19384790885E+02  0.25787830753E+02  0.39630903365E+02  0.51101769384E+02  0.00000000000E+00 0. -1.
         -1    1    1    2    0  502  0.25156967135E+02  0.99954884610E+01  0.47710266683E-01  0.27070002979E+02  0.00000000000E+00 0.  1.
<scales pt_clust_5="13000.00000" pt_clust_6="13000.00000" pt_clust_7="13000.00000" pt_clust_8="13000.00000" pt_clust_9="27.06996"></scales>
<clustering>
<clus scale="   27.070">  2  9  1 -1</clus>
<clus scale="   89.930">  5  6 -1 -1</clus>
<clus scale="   93.881">  7  8 -1 -1</clus>
<clus scale="  122.843">  2  5  1 -1</clus>
<clus scale="   27.070">  2  5  1 -1</clus>
</clustering>
</event>
<event>
 9    1  0.1610296E-005  0.1125714E+03  0.7546771E-02  0.1257115E+00
         21   -1    0    0  501  502  0.00000000000E+00  0.00000000000E+00  0.31215456005E+03  0.31215456005E+03  0.00000000000E+00 0. -1.
          1   -1    0    0  502    0 -0.00000000000E+00 -0.00000000000E+00 -0.59908700640E+02  0.59908700640E+02  0.00000000000E+00 0. -1.
         23    2    1    2    0    0 -0.29241449420E+02  0.56606083653E+02  0.36370442175E+02  0.11711597907E+03  0.91290921885E+02 0.  0.
         23    2    1    2    0    0  0.51303074364E+01 -0.57790751706E+02  0.16774457412E+03  0.20110186710E+03  0.94539027742E+02 0.  0.
        -11    1    4    4    0    0  0.30030431764E+02  0.16504195267E+01  0.11175565305E+03  0.11573191740E+03  0.00000000000E+00 0.  1.
         11    1    4    4    0    0 -0.24900124328E+02 -0.59441171232E+02  0.55988921078E+02  0.85369949704E+02  0.00000000000E+00 0. -1.
        -13    1    3    3    0    0 -0.99759493443E+01  0.75217911370E+02  0.52549893410E+01  0.76058324128E+02  0.00000000000E+00 0.  1.
         13    1    3    3    0    0 -0.19265500076E+02 -0.18611827717E+02  0.31115452834E+02  0.41057654941E+02  0.00000000000E+00 0. -1.
          1    1    1    2  501    0  0.24111141984E+02  0.11846680525E+01  0.48130843107E+02  0.53845414515E+02  0.00000000000E+00 0. -1.
<scales pt_clust_5="13000.00000" pt_clust_6="13000.00000" pt_clust_7="13000.00000" pt_clust_8="13000.00000" pt_clust_9="24.14023"></scales>
<clustering>
<clus scale="   24.140">  1  9  2 -1</clus>
<clus scale="   91.291">  7  8 -1 -1</clus>
<clus scale="   94.539">  5  6 -1 -1</clus>
<clus scale="  109.858">  2  7  1 -1</clus>
<clus scale="   24.140">  1  5  2 -1</clus>
</clustering>
</event>
<event>
 9    1  0.1610296E-005  0.2097335E+03  0.7546771E-02  0.1175929E+00
         21   -1    0    0  501  502  0.00000000000E+00  0.00000000000E+00  0.91355195801E+02  0.91355195801E+02  0.00000000000E+00 0.  1.
         -1   -1    0    0    0  501 -0.00000000000E+00 -0.00000000000E+00 -0.77642741479E+03  0.77642741479E+03  0.00000000000E+00 0.  1.
         23    2    1    2    0    0 -0.29645037694E+01  0.27478272165E+02 -0.26438398363E+03  0.28077963638E+03  0.90412773887E+02 0.  0.
         23    2    1    2    0    0 -0.78861761953E+02 -0.17478311816E+03 -0.13793705848E+03  0.25784878019E+03  0.10339751181E+03 0.  0.
        -11    1    3    3    0    0 -0.43829569069E+02 -0.66093282889E+00 -0.10296615244E+03  0.11190842911E+03  0.00000000000E+00 0. -1.
         11    1    3    3    0    0  0.40865065300E+02  0.28139204993E+02 -0.16141783119E+03  0.16887120727E+03  0.00000000000E+00 0.  1.
        -11    1    4    4    0    0 -0.23701838943E+02 -0.82802132182E+02 -0.12211949400E+03  0.14943607690E+03  0.00000000000E+00 0. -1.
         11    1    4    4    0    0 -0.55159923011E+02 -0.91980985980E+02 -0.15817564475E+02  0.10841270329E+03  0.00000000000E+00 0.  1.
         -1    1    1    2    0  502  0.81826265723E+02  0.14730484600E+03 -0.28275117688E+03  0.32915419402E+03  0.00000000000E+00 0.  1.
<scales pt_clust_5="13000.00000" pt_clust_6="13000.00000" pt_clust_7="13000.00000" pt_clust_8="13000.00000" pt_clust_9="182.47502"></scales>
<clustering>
<clus scale="   90.413">  5  6 -1 -1</clus>
<clus scale="   94.543">  2  5  1 -1</clus>
<clus scale="  103.398">  7  8 -1 -1</clus>
<clus scale="  182.475">  1  9  2 -1</clus>
<clus scale="  182.475">  1  5  2 -1</clus>
</clustering>
</event>
<event>
 9    1  0.1610296E-005  0.1020061E+03  0.7546771E-02  0.1277950E+00
         -1   -1    0    0    0  501 -0.00000000000E+00  0.00000000000E+00  0.19830472231E+03  0.19830472231E+03  0.00000000000E+00 0.  1.
         21   -1    0    0  501  502  0.00000000000E+00 -0.00000000000E+00 -0.27940418199E+03  0.27940418199E+03  0.00000000000E+00 0.  1.
         23    2    1    2    0    0  0.15963235320E+02 -0.25255460592E+02  0.15791624732E+03  0.18805420202E+03  0.97643118326E+02 0.  0.
         23    2    1    2    0    0  0.23449879080E+02  0.42267201768E+02 -0.10522296280E+03  0.14914387948E+03  0.93997934617E+02 0.  0.
        -11    1    3    3    0    0  0.32288988575E+02  0.23647542180E+02  0.29633126330E+02  0.49798666754E+02  0.00000000000E+00 0. -1.
         11    1    3    3    0    0 -0.16325753255E+02 -0.48903002773E+02  0.12828312099E+03  0.13825553526E+03  0.00000000000E+00 0.  1.
        -13    1    4    4    0    0  0.14686345905E+02 -0.17942145890E+02  0.45575057752E+01  0.23630070124E+02  0.00000000000E+00 0.  1.
         13    1    4    4    0    0  0.87635331750E+01  0.60209347657E+02 -0.10978046857E+03  0.12551380935E+03  0.00000000000E+00 0. -1.
         -1    1    1    2    0  502 -0.39413114400E+02 -0.17011741175E+02 -0.13379274421E+03  0.14051082281E+03  0.00000000000E+00 0.  1.
<scales pt_clust_5="13000.00000" pt_clust_6="13000.00000" pt_clust_7="13000.00000" pt_clust_8="13000.00000" pt_clust_9="42.92776"></scales>
<clustering>
<clus scale="   42.928">  2  9  1 -1</clus>
<clus scale="   93.998">  7  8 -1 -1</clus>
<clus scale="   97.643">  5  6 -1 -1</clus>
<clus scale="   98.522">  2  7  1 -1</clus>
<clus scale="   42.928">  2  5  1 -1</clus>
</clustering>
</event>
<event>
 9    1  0.1610296E-005  0.1652145E+03  0.7546771E-02  0.1183579E+00
         21   -1    0    0  501  502  0.00000000000E+00  0.00000000000E+00  0.12772813748E+03  0.12772813748E+03  0.00000000000E+00 0.  1.
         -1   -1    0    0    0  501 -0.00000000000E+00 -0.00000000000E+00 -0.37579859121E+03  0.37579859121E+03  0.00000000000E+00 0.  1.
         23    2    1    2    0    0  0.12054436760E+03  0.79596988586E+02 -0.24462367057E+03  0.29735624393E+03  0.87825796026E+02 0.  0.
         23    2    1    2    0    0 -0.84492948840E+02 -0.88645281714E+02 -0.35239362573E+02  0.15725888583E+03  0.92149335997E+02 0.  0.
        -13    1    3    3    0    0  0.77595707363E+02  0.95485828413E+02 -0.17132624634E+03  0.21092965632E+03  0.00000000000E+00 0.  1.
         13    1    3    3    0    0  0.42948660240E+02 -0.15888839828E+02 -0.73297424231E+02  0.86426587613E+02  0.00000000000E+00 0. -1.
        -13    1    4    4    0    0 -0.36002603189E+02 -0.94749206269E+02 -0.38146762324E+02  0.10829946907E+03  0.00000000000E+00 0.  1.
         13    1    4    4    0    0 -0.48490345651E+02  0.61039245551E+01  0.29073997510E+01  0.48959416762E+02  0.00000000000E+00 0. -1.
         -1    1    1    2    0  502 -0.36051418763E+02  0.90482931284E+01  0.31792579423E+02  0.48911598929E+02  0.00000000000E+00 0.  1.
<scales pt_clust_5="13000.00000" pt_clust_6="13000.00000" pt_clust_7="13000.00000" pt_clust_8="13000.00000" pt_clust_9="37.16956"></scales>
<clustering>
<clus scale="   37.170">  1  9  2 -1</clus>
<clus scale="   87.826">  5  6 -1 -1</clus>
<clus scale="   92.149">  7  8 -1 -1</clus>
<clus scale="  162.843">  2  5  1 -1</clus>
<clus scale="   37.170">  1  5  2 -1</clus>
</clustering>
</event>
<event>
 9    1  0.1610296E-005  0.1006690E+03  0.7546771E-02  0.1282720E+00
         21   -1    0    0  501  502  0.00000000000E+00  0.00000000000E+00  0.47685934358E+02  0.47685934358E+02  0.00000000000E+00 0. -1.
         -1   -1    0    0    0  501 -0.00000000000E+00 -0.00000000000E+00 -0.42769977777E+03  0.42769977777E+03  0.00000000000E+00 0.  1.
         23    2    1    2    0    0  0.10432599473E+02 -0.15036583821E+02 -0.28288965477E+03  0.29822562609E+03  0.92612252413E+02 0.  0.
         23    2    1    2    0    0 -0.97403996696E+00 -0.11917777758E+02 -0.30999151109E+02  0.10512868632E+03  0.99740218256E+02 0.  0.
        -11    1    3    3    0    0 -0.38885649474E+02  0.40908326287E+01 -0.15438641930E+03  0.15926077706E+03  0.00000000000E+00 0.  1.
         11    1    3    3    0    0  0.49318248947E+02 -0.19127416450E+02 -0.12850323548E+03  0.13896484903E+03  0.00000000000E+00 0. -1.
        -11    1    4    4    0    0 -0.30596541415E+02  0.16334921886E+02 -0.49308479496E+02  0.60285190303E+02  0.00000000000E+00 0.  1.
         11    1    4    4    0    0  0.29622501448E+02 -0.28252699644E+02  0.18309328388E+02  0.44843496019E+02  0.00000000000E+00 0. -1.
         -1    1    1    2    0  502 -0.94585595060E+01  0.26954361579E+02 -0.66125037532E+02  0.72031399713E+02  0.00000000000E+00 0.  1.
<scales pt_clust_5="13000.00000" pt_clust_6="13000.00000" pt_clust_7="13000.00000" pt_clust_8="13000.00000" pt_clust_9="28.56576"></scales>
<clustering>
<clus scale="   28.566">  1  9  2 -1</clus>
<clus scale="   92.612">  5  6 -1 -1</clus>
<clus scale="   93.612">  2  5  1 -1</clus>
<clus scale="   99.740">  7  8 -1 -1</clus>
<clus scale="   28.566">  1  5  2 -1</clus>
</clustering>
</event>
<event>
 9    1  0.1610296E-005  0.1055475E+03  0.7546771E-02  0.1269987E+00
          2   -1    0    0  502    0 -0.00000000000E+00  0.00000000000E+00  0.23871312254E+03  0.23871312254E+03  0.00000000000E+00 0. -1.
         21   -1    0    0  501  502  0.00000000000E+00 -0.00000000000E+00 -0.76438109886E+02  0.76438109886E+02  0.00000000000E+00 0.  1.
         23    2    1    2    0    0 -0.22080026559E+02  0.38093723572E+02  0.13600176228E+03  0.17064026022E+03  0.93182400241E+02 0.  0.
         23    2    1    2    0    0  0.34676811247E+02 -0.57223822498E+02  0.47258135509E+01  0.11306368770E+03  0.91016575762E+02 0.  0.
        -11    1    4    4    0    0  0.72758010619E+01 -0.60446763849E+02  0.36497549662E+02  0.70984643919E+02  0.00000000000E+00 0. -1.
         11    1    4    4    0    0  0.27401010186E+02  0.32229413518E+01 -0.31771736111E+02  0.42079043783E+02  0.00000000000E+00 0.  1.
        -11    1    3    3    0    0 -0.13186287165E+02 -0.29408867884E+02  0.26632807649E+02  0.41809880682E+02  0.00000000000E+00 0.  1.
         11    1    3    3    0    0 -0.88937393946E+01  0.67502591456E+02  0.10936895463E+03  0.12883037953E+03  0.00000000000E+00 0. -1.
          2    1    1    2  501    0 -0.12596784688E+02  0.19130098926E+02  0.21547436824E+02  0.31447284510E+02  0.00000000000E+00 0. -1.
<scales pt_clust_5="13000.00000" pt_clust_6="13000.00000" pt_clust_7="13000.00000" pt_clust_8="13000.00000" pt_clust_9="22.90503"></scales>
<clustering>
<clus scale="   22.905">  2  9  1 -1</clus>
<clus scale="   91.017">  5  6 -1 -1</clus>
<clus scale="   93.182">  7  8 -1 -1</clus>
<clus scale="  103.640">  2  5  1 -1</clus>
<clus scale="   22.905">  2  5  1 -1</clus>
</clustering>
</event>
<event>
 9    1  0.1610296E-005  0.2011238E+03  0.7546771E-02  0.1149080E+00
         -2   -1    0    0    0  501 -0.00000000000E+00  0.00000000000E+00  0.76747780666E+03  0.76747780666E+03  0.00000000000E+00 0.  1.
         21   -1    0    0  501  502  0.00000000000E+00 -0.00000000000E+00 -0.30178765452E+03  0.30178765452E+03  0.00000000000E+00 0.  1.
         23    2    1    2    0    0  0.14238810436E+03 -0.15317268652E+03  0.57223986912E+03  0.61588268327E+03  0.90093105100E+02 0.  0.
         23    2    1    2    0    0 -0.13770504589E+03  0.18026813588E+02  0.10853472127E+03  0.19932047535E+03  0.93065678428E+02 0.  0.
        -11    1    3    3    0    0  0.10743704912E+03 -0.12153143807E+03  0.31452235124E+03  0.35388828660E+03  0.00000000000E+00 0.  1.
         11    1    3    3    0    0  0.34951055247E+02 -0.31641248443E+02  0.25771751788E+03  0.26199439668E+03  0.00000000000E+00 0. -1.
        -13    1    4    4    0    0 -0.12597429288E+03 -0.15159617458E+02  0.10354288766E+03  0.16376955167E+03  0.00000000000E+00 0.  1.
         13    1    4    4    0    0 -0.11730753006E+02  0.33186431047E+02  0.49918336059E+01  0.35550923679E+02  0.00000000000E+00 0. -1.
         -2    1    1    2    0  502 -0.46830584772E+01  0.13514587293E+03 -0.21508443824E+03  0.25406230256E+03  0.00000000000E+00 0.  1.
<scales pt_clust_5="13000.00000" pt_clust_6="13000.00000" pt_clust_7="13000.00000" pt_clust_8="13000.00000" pt_clust_9="135.22699"></scales>
<clustering>
<clus scale="   90.093">  5  6 -1 -1</clus>
<clus scale="   93.066">  7  8 -1 -1</clus>
<clus scale="  135.227">  2  9  1 -1</clus>
<clus scale="  199.766">  1  5  2 -1</clus>
<clus scale="  135.227">  2  5  1 -1</clus>
</clustering>
</event>
<event>
 9    1  0.1610296E-005  0.1083572E+03  0.7546771E-02  0.1263678E+00
          2   -1    0    0  502    0 -0.00000000000E+00  0.00000000000E+00  0.51321593744E+03  0.51321593744E+03  0.00000000000E+00 0. -1.
         21   -1    0    0  501  502  0.00000000000E+00 -0.00000000000E+00 -0.18714832213E+03  0.18714832213E+03  0.00000000000E+00 0. -1.
         23    2    1    2    0    0 -0.17171127955E+02  0.49417385926E+02  0.29630174041E+03  0.31530355438E+03  0.94258603681E+02 0.  0.
         23    2    1    2    0    0  0.11689082711E+03 -0.27916197372E+02 -0.12655923845E+03  0.19839560247E+03  0.94344023163E+02 0.  0.
        -13    1    3    3    0    0 -0.42107052581E+02  0.10114730847E+02  0.57364292541E+02  0.71874708458E+02  0.00000000000E+00 0.  1.
         13    1    3    3    0    0  0.24935924625E+02  0.39302655079E+02  0.23893744787E+03  0.24342884592E+03  0.00000000000E+00 0. -1.
        -13    1    4    4    0    0  0.37227735999E+02 -0.56837860626E+02 -0.59724859420E+02  0.90462730232E+02  0.00000000000E+00 0.  1.
         13    1    4    4    0    0  0.79663091106E+02  0.28921663255E+02 -0.66834379031E+02  0.10793287224E+03  0.00000000000E+00 0. -1.
          2    1    1    2  501    0 -0.99719699150E+02 -0.21501188554E+02  0.15632511336E+03  0.18666510272E+03  0.00000000000E+00 0. -1.
<scales pt_clust_5="13000.00000" pt_clust_6="13000.00000" pt_clust_7="13000.00000" pt_clust_8="13000.00000" pt_clust_9="102.01142"></scales>
<clustering>
<clus scale="   94.259">  5  6 -1 -1</clus>
<clus scale="   94.344">  7  8 -1 -1</clus>
<clus scale="  102.011">  2  9  1 -1</clus>
<clus scale="  108.283">  1  5  2 -1</clus>
<clus scale="  102.011">  2  5  1 -1</clus>
</clustering>
</event>
<event>
 9    1  0.1610296E-005  0.1216334E+03  0.7546771E-02  0.1240836E+00
         21   -1    0    0  501  502  0.00000000000E+00  0.00000000000E+00  0.17861958665E+03  0.17861958665E+03  0.00000000000E+00 0. -1.
          1   -1    0    0  502    0 -0.00000000000E+00 -0.00000000000E+00 -0.47887530111E+03  0.47887530111E+03  0.00000000000E+00 0. -1.
         23    2    1    2    0    0  0.25085270841E+02 -0.63503187815E+02 -0.22044850817E+03  0.24830727138E+03  0.91635312999E+02 0.  0.
         23    2    1    2    0    0 -0.27501967219E+02  0.90906554000E+02 -0.22555795332E+03  0.26086342698E+03  0.90293839595E+02 0.  0.
        -13    1    4    4    0    0 -0.48834232587E+02  0.97173092299E+02 -0.19015893188E+03  0.21906120495E+03  0.00000000000E+00 0. -1.
         13    1    4    4    0    0  0.21332265367E+02 -0.62665382990E+01 -0.35399021435E+02  0.41802222029E+02  0.00000000000E+00 0.  1.
        -13    1    3    3    0    0  0.19621411146E+02 -0.87243301250E+02 -0.16324335407E+03  0.18613109906E+03  0.00000000000E+00 0.  1.
         13    1    3    3    0    0  0.54638596946E+01  0.23740113435E+02 -0.57205154100E+02  0.62176172320E+02  0.00000000000E+00 0. -1.
          1    1    1    2  501    0  0.24166963784E+01 -0.27403366185E+02  0.14575074703E+03  0.14832418940E+03  0.00000000000E+00 0. -1.
<scales pt_clust_5="13000.00000" pt_clust_6="13000.00000" pt_clust_7="13000.00000" pt_clust_8="13000.00000" pt_clust_9="27.50972"></scales>
<clustering>
<clus scale="   27.510">  1  9  2 -1</clus>
<clus scale="   90.294">  5  6 -1 -1</clus>
<clus scale="   91.635">  7  8 -1 -1</clus>
<clus scale="  120.626">  1  5  2 -1</clus>
<clus scale="   27.510">  1  5  2 -1</clus>
</clustering>
</event>
<event>
 9    1  0.1610296E-005  0.9410959E+02  0.7546771E-02  0.1294491E+00
         -1   -1    0    0    0  501 -0.00000000000E+00  0.00000000000E+00  0.39449444114E+03  0.39449444114E+03  0.00000000000E+00 0.  1.
         21   -1    0    0  501  502  0.00000000000E+00 -0.00000000000E+00 -0.56189652334E+02  0.56189652334E+02  0.00000000000E+00 0. -1.
         23    2    1    2    0    0 -0.11675831733E+02 -0.37010461939E+02  0.23719993169E+03  0.25715519795E+03  0.91426959355E+02 0.  0.
         23    2    1    2    0    0 -0.26711640596E+02 -0.20435253764E+02  0.49883117041E+02  0.10752148340E+03  0.89114716446E+02 0.  0.
        -13    1    4    4    0    0 -0.51490672182E+02 -0.21304604979E+02  0.58952321556E+02  0.81120599923E+02  0.00000000000E+00 0. -1.
         13    1    4    4    0    0  0.24779031586E+02  0.86935121548E+00 -0.90692045144E+01  0.26400883477E+02  0.00000000000E+00 0.  1.
        -13    1    3    3    0    0  0.49236849379E+01  0.23099276904E+02  0.19279650090E+02  0.30488098899E+02  0.00000000000E+00 0.  1.
         13    1    3    3    0    0 -0.16599516671E+02 -0.60109738844E+02  0.21792028160E+03  0.22666709905E+03  0.00000000000E+00 0. -1.
         -1    1    1    2    0  502  0.38387472329E+02  0.57445715703E+02  0.51221740070E+02  0.86007412124E+02  0.00000000000E+00 0.  1.
<scales pt_clust_5="13000.00000" pt_clust_6="13000.00000" pt_clust_7="13000.00000" pt_clust_8="13000.00000" pt_clust_9="69.09130"></scales>
<clustering>
<clus scale="   69.091">  2  9  1 -1</clus>
<clus scale="   89.115">  5  6 -1 -1</clus>
<clus scale="   91.427">  7  8 -1 -1</clus>
<clus scale="   91.865">  2  5  1 -1</clus>
<clus scale="   69.091">  2  5  1 -1</clus>
</clustering>
</event>
<event>
 9    1  0.1610296E-005  0.2200732E+03  0.7546771E-02  0.1133847E+00
          1   -1    0    0  502    0 -0.00000000000E+00  0.00000000000E+00  0.92709114284E+03  0.92709114284E+03  0.00000000000E+00 0. -1.
         21   -1    0    0  501  502  0.00000000000E+00 -0.00000000000E+00 -0.98277136869E+02  0.98277136869E+02  0.00000000000E+00 0. -1.
         23    2    1    2    0    0  0.42134121226E+02 -0.18112106105E+03  0.45245383521E+03  0.49776839951E+03  0.92080310722E+02 0.  0.
         23    2    1    2    0    0  0.39975860396E+02  0.24440649467E+03  0.24507763676E+03  0.36032107424E+03  0.91845655589E+02 0.  0.
        -11    1    4    4    0    0  0.26039576863E+02  0.56071368301E+02  0.11639994822E+03  0.13179911172E+03  0.00000000000E+00 0.  1.
         11    1    4    4    0    0  0.13936283532E+02  0.18833512637E+03  0.12867768854E+03  0.22852196251E+03  0.00000000000E+00 0. -1.
        -11    1    3    3    0    0  0.50255615156E+02 -0.65147827532E+02  0.11937706571E+03  0.14498534445E+03  0.00000000000E+00 0.  1.
         11    1    3    3    0    0 -0.81214939299E+01 -0.11597323352E+03  0.33307676950E+03  0.35278305506E+03  0.00000000000E+00 0. -1.
          1    1    1    2  501    0 -0.82109981622E+02 -0.63285433623E+02  0.13128253401E+03  0.16727880597E+03  0.00000000000E+00 0. -1.
<scales pt_clust_5="13000.00000" pt_clust_6="13000.00000" pt_clust_7="13000.00000" pt_clust_8="13000.00000" pt_clust_9="103.66820"></scales>
<clustering>
<clus scale="   91.846">  5  6 -1 -1</clus>
<clus scale="   92.080">  7  8 -1 -1</clus>
<clus scale="  103.668">  2  9  1 -1</clus>
<clus scale="  219.975">  2  5  1 -1</clus>
<clus scale="  103.668">  2  5  1 -1</clus>
</clustering>
</event>
<event>
 9    1  0.1610296E-005  0.9886810E+02  0.7546771E-02  0.1283219E+00
         -2   -1    0    0    0  501 -0.00000000000E+00  0.00000000000E+00  0.54990508752E+03  0.54990508752E+03  0.00000000000E+00 0.  1.
         21   -1    0    0  501  502  0.00000000000E+00 -0.00000000000E+00 -0.48540360802E+02  0.48540360802E+02  0.00000000000E+00 0.  1.
         23    2    1    2    0    0 -0.82600244478E+01  0.34185925346E+02  0.38333456412E+03  0.39583155587E+03  0.92197218392E+02 0.  0.
         23    2    1    2    0    0 -0.45487301221E+02 -0.42320529000E+02  0.80436351979E+02  0.13652121971E+03  0.91147764447E+02 0.  0.
        -11    1    3    3    0    0  0.30247954558E+02 -0.10003477119E+02  0.67968804438E+02  0.75065083002E+02  0.00000000000E+00 0. -1.
         11    1    3    3    0    0 -0.38507979006E+02  0.44189402465E+02  0.31536575969E+03  0.32076647287E+03  0.00000000000E+00 0.  1.
        -13    1    4    4    0    0 -0.14094108423E+02  0.28848171439E+02  0.29022823064E+02  0.43280308989E+02  0.00000000000E+00 0.  1.
         13    1    4    4    0    0 -0.31393192797E+02 -0.71168700439E+02  0.51413528916E+02  0.93240910719E+02  0.00000000000E+00 0. -1.
         -2    1    1    2    0  502  0.53747325668E+02  0.81346036545E+01  0.37593810614E+02  0.66092672738E+02  0.00000000000E+00 0.  1.
<scales pt_clust_5="13000.00000" pt_clust_6="13000.00000" pt_clust_7="13000.00000" pt_clust_8="13000.00000" pt_clust_9="54.35942"></scales>
<clustering>
<clus scale="   54.359">  2  9  1 -1</clus>
<clus scale="   91.148">  7  8 -1 -1</clus>
<clus scale="   92.197">  5  6 -1 -1</clus>
<clus scale="   97.890">  2  7  1 -1</clus>
<clus scale="   54.359">  2  5  1 -1</clus>
</clustering>
</event>
<event>
 9    1  0.1610296E-005  0.9729406E+02  0.7546771E-02  0.1290786E+00
         -1   -1    0    0    0  501 -0.00000000000E+00  0.00000000000E+00  0.22205349290E+03  0.22205349290E+03  0.00000000000E+00 0.  1.
         21   -1    0    0  501  502  0.00000000000E+00 -0.00000000000E+00 -0.81408498313E+02  0.81408498313E+02  0.00000000000E+00 0.  1.
         23    2    1    2    0    0  0.27875805466E+01 -0.38021356161E+02  0.77163521081E+02  0.11906994073E+03  0.82280299399E+02 0.  0.
         23    2    1    2    0    0 -0.18979874858E+02  0.20492493262E+02 -0.20172043293E+02  0.97401463052E+02  0.91104092907E+02 0.  0.
        -11    1    3    3    0    0 -0.19881111244E+02  0.14371340746E+02  0.18987432674E+01  0.24604862225E+02  0.00000000000E+00 0.  1.
         11    1    3    3    0    0  0.22668691790E+02 -0.52392696908E+02  0.75264777814E+02  0.94465078500E+02  0.00000000000E+00 0. -1.
        -13    1    4    4    0    0  0.28544637947E+02  0.21574196813E+02  0.14455041973E+02  0.38590031901E+02  0.00000000000E+00 0. -1.
         13    1    4    4    0    0 -0.47524512805E+02 -0.10817035514E+01 -0.34627085266E+02  0.58811431151E+02  0.00000000000E+00 0.  1.
         -1    1    1    2    0  502  0.16192294311E+02  0.17528862899E+02  0.83653516802E+02  0.86990587439E+02  0.00000000000E+00 0.  1.
<scales pt_clust_5="13000.00000" pt_clust_6="13000.00000" pt_clust_7="13000.00000" pt_clust_8="13000.00000" pt_clust_9="23.86319"></scales>
<clustering>
<clus scale="   23.863">  2  9  1 -1</clus>
<clus scale="   82.280">  5  6 -1 -1</clus>
<clus scale="   89.085">  1  5  2 -1</clus>
<clus scale="   91.104">  7  8 -1 -1</clus>
<clus scale="   23.863">  2  5  1 -1</clus>
</clustering>
</event>
<event>
 9    1  0.1610296E-005  0.1122440E+03  0.7546771E-02  0.1260283E+00
          1   -1    0    0  502    0 -0.00000000000E+00  0.00000000000E+00  0.72244098599E+02  0.72244098599E+02  0.00000000000E+00 0. -1.
         21   -1    0    0  501  502  0.00000000000E+00 -0.00000000000E+00 -0.35571727520E+03  0.35571727520E+03  0.00000000000E+00 0. -1.
         23    2    1    2    0    0  0.46602055660E+02  0.37625658021E+02 -0.32911457169E+01  0.11187891825E+03  0.94438440131E+02 0.  0.
         23    2    1    2    0    0 -0.62836608473E+02 -0.20546696635E+02 -0.15414326266E+03  0.18785990402E+03  0.84620281302E+02 0.  0.
        -13    1    3    3    0    0 -0.19043600743E+02  0.27506272609E+02 -0.25258496402E+02  0.41919511002E+02  0.00000000000E+00 0.  1.
         13    1    3    3    0    0  0.65645656404E+02  0.10119385412E+02  0.21967350685E+02  0.69959407244E+02  0.00000000000E+00 0. -1.
        -13    1    4    4    0    0  0.60723355845E+01  0.23080188652E+02 -0.51485240392E+02  0.56747672603E+02  0.00000000000E+00 0.  1.
         13    1    4    4    0    0 -0.68908944057E+02 -0.43626885287E+02 -0.10265802227E+03  0.13111223142E+03  0.00000000000E+00 0. -1.
          1    1    1    2  501    0  0.16234552812E+02 -0.17078961386E+02 -0.12603876822E+03  0.12822255153E+03  0.00000000000E+00 0. -1.
<scales pt_clust_5="13000.00000" pt_clust_6="13000.00000" pt_clust_7="13000.00000" pt_clust_8="13000.00000" pt_clust_9="23.56378"></scales>
<clustering>
<clus scale="   23.564">  2  9  1 -1</clus>
<clus scale="   84.620">  7  8 -1 -1</clus>
<clus scale="   94.438">  5  6 -1 -1</clus>
<clus scale="  104.119">  2  7  1 -1</clus>
<clus scale="   23.564">  2  5  1 -1</clus>
</clustering>
</event>
<event>
 9    1  0.1610296E-005  0.1196060E+03  0.7546771E-02  0.1250256E+00
         -1   -1    0    0    0  501 -0.00000000000E+00  0.00000000000E+00  0.16711742551E+03  0.16711742551E+03  0.00000000000E+00 0.  1.
         21   -1    0    0  501  502  0.00000000000E+00 -0.00000000000E+00 -0.21024495109E+03  0.21024495109E+03  0.00000000000E+00 0.  1.
         23    2    1    2    0    0 -0.20050692058E+02  0.81286229266E+02  0.10037217443E+03  0.14979178290E+03  0.73167776405E+02 0.  0.
         23    2    1    2    0    0  0.98917052127E+01 -0.50040062534E+02 -0.31159845387E+02  0.11052457332E+03  0.92967153621E+02 0.  0.
        -11    1    3    3    0    0 -0.36407985013E+02  0.18223173670E+02  0.62025664027E+02  0.74194396212E+02  0.00000000000E+00 0.  1.
         11    1    3    3    0    0  0.16357292955E+02  0.63063055596E+02  0.38346510407E+02  0.75597386690E+02  0.00000000000E+00 0. -1.
        -13    1    4    4    0    0  0.27311881294E+02 -0.63606011878E+02 -0.46720144993E+02  0.83513086130E+02  0.00000000000E+00 0. -1.
         13    1    4    4    0    0 -0.17420176082E+02  0.13565949344E+02  0.15560299606E+02  0.27011487189E+02  0.00000000000E+00 0.  1.
         -1    1    1    2    0  502  0.10158986845E+02 -0.31246166733E+02 -0.11233985463E+03  0.11704602038E+03  0.00000000000E+00 0.  1.
<scales pt_clust_5="13000.00000" pt_clust_6="13000.00000" pt_clust_7="13000.00000" pt_clust_8="13000.00000" pt_clust_9="32.85617"></scales>
<clustering>
<clus scale="   32.856">  2  9  1 -1</clus>
<clus scale="   73.168">  5  6 -1 -1</clus>
<clus scale="   92.967">  7  8 -1 -1</clus>
<clus scale="  104.958">  1  5  2 -1</clus>
<clus scale="   32.856">  2  5  1 -1</clus>
</clustering>
</event>
<event>
 9    1  0.1610296E-005  0.1331136E+03  0.7546771E-02  0.1224024E+00
         -1   -1    0    0    0  501 -0.00000000000E+00  0.00000000000E+00  0.10383749424E+03  0.10383749424E+03  0.00000000000E+00 0.  1.
         21   -1    0    0  501  502  0.00000000000E+00 -0.00000000000E+00 -0.20997746181E+03  0.20997746181E+03  0.00000000000E+00 0.  1.
         23    2    1    2    0    0  0.62084534872E+02 -0.67813532237E+02 -0.26382621936E+02  0.13433107610E+03  0.94316650917E+02 0.  0.
         23    2    1    2    0    0 -0.44121051034E+02  0.88241669478E+02 -0.63988091399E+02  0.14804083744E+03  0.89935278583E+02 0.  0.
        -11    1    4    4    0    0 -0.61044256289E+02  0.76897388083E+02 -0.20903715286E+02  0.10038214399E+03  0.00000000000E+00 0.  1.
         11    1    4    4    0    0  0.16923205255E+02  0.11344281395E+02 -0.43084376113E+02  0.47658693452E+02  0.00000000000E+00 0. -1.
        -11    1    3    3    0    0  0.37559600531E+02 -0.87228719220E+02 -0.36062536120E+02  0.10158779238E+03  0.00000000000E+00 0. -1.
         11    1    3    3    0    0  0.24524934341E+02  0.19415186983E+02  0.96799141848E+01  0.32743283718E+02  0.00000000000E+00 0.  1.
         -1    1    1    2    0  502 -0.17963483838E+02 -0.20428137241E+02 -0.15769254235E+02  0.31443042504E+02  0.00000000000E+00 0.  1.
<scales pt_clust_5="13000.00000" pt_clust_6="13000.00000" pt_clust_7="13000.00000" pt_clust_8="13000.00000" pt_clust_9="27.20286"></scales>
<clustering>
<clus scale="   27.203">  2  9  1 -1</clus>
<clus scale="   89.935">  5  6 -1 -1</clus>
<clus scale="   94.317">  7  8 -1 -1</clus>
<clus scale="  130.046">  2  5  1 -1</clus>
<clus scale="   27.203">  2  5  1 -1</clus>
</clustering>
</event>
<event>
 9    1  0.1610296E-005  0.9280448E+02  0.7546771E-02  0.1298105E+00
         21   -1    0    0  501  502  0.00000000000E+00  0.00000000000E+00  0.87300227190E+02  0.87300227190E+02  0.00000000000E+00 0. -1.
          2   -1    0    0  502    0 -0.00000000000E+00 -0.00000000000E+00 -0.26813885004E+03  0.26813885004E+03  0.00000000000E+00 0. -1.
         23    2    1    2    0    0  0.88608444679E+01 -0.67502873291E-01 -0.17538729730E+03  0.19861865411E+03  0.92790875553E+02 0.  0.
         23    2    1    2    0    0  0.15552488254E+02 -0.25038637150E+01 -0.51588120610E+02  0.10455928460E+03  0.89572097128E+02 0.  0.
        -11    1    4    4    0    0  0.41450981891E+02  0.12414795309E+02 -0.59567181537E+02  0.73624453536E+02  0.00000000000E+00 0. -1.
         11    1    4    4    0    0 -0.25898493637E+02 -0.14918659024E+02  0.79790609265E+01  0.30934831065E+02  0.00000000000E+00 0.  1.
        -13    1    3    3    0    0  0.31392915893E+02 -0.32967947982E+02 -0.13228740155E+03  0.13990124149E+03  0.00000000000E+00 0. -1.
         13    1    3    3    0    0 -0.22532071425E+02  0.32900445109E+02 -0.43099895747E+02  0.58717412617E+02  0.00000000000E+00 0.  1.
          2    1    1    2  501    0 -0.24413332722E+02  0.25713665883E+01  0.46136795059E+02  0.52261138517E+02  0.00000000000E+00 0. -1.
<scales pt_clust_5="13000.00000" pt_clust_6="13000.00000" pt_clust_7="13000.00000" pt_clust_8="13000.00000" pt_clust_9="24.54838"></scales>
<clustering>
<clus scale="   24.548">  1  9  2 -1</clus>
<clus scale="   89.572">  5  6 -1 -1</clus>
<clus scale="   89.586">  1  5  2 -1</clus>
<clus scale="   92.791">  7  8 -1 -1</clus>
<clus scale="   24.548">  1  5  2 -1</clus>
</clustering>
</event>
<event>
 9    1  0.1610296E-005  0.1451818E+03  0.7546771E-02  0.1206841E+00
          1   -1    0    0  502    0 -0.00000000000E+00  0.00000000000E+00  0.44145549904E+03  0.44145549904E+03  0.00000000000E+00 0. -1.
         21   -1    0    0  501  502  0.00000000000E+00 -0.00000000000E+00 -0.13581398804E+03  0.13581398804E+03  0.00000000000E+00 0. -1.
         23    2    1    2    0    0 -0.83539320927E+02  0.50673022410E+02  0.24346839150E+03  0.27765230545E+03  0.90925088537E+02 0.  0.
         23    2    1    2    0    0  0.14573049276E+03 -0.50744371483E+02  0.11873023806E+03  0.21555497487E+03  0.92491675344E+02 0.  0.
        -13    1    4    4    0    0 -0.27816423185E+01 -0.27062559405E+02  0.66802893588E+01  0.28013316860E+02  0.00000000000E+00 0.  1.
         13    1    4    4    0    0  0.14851213507E+03 -0.23681812078E+02  0.11204994870E+03  0.18754165801E+03  0.00000000000E+00 0. -1.
        -13    1    3    3    0    0  0.10132368994E+02  0.18594012240E+02  0.87631163089E+01  0.22917120239E+02  0.00000000000E+00 0.  1.
         13    1    3    3    0    0 -0.93671689921E+02  0.32079010170E+02  0.23470527519E+03  0.25473518521E+03  0.00000000000E+00 0. -1.
          1    1    1    2  501    0 -0.62191171830E+02  0.71349073090E-01 -0.56557118552E+02  0.84062206747E+02  0.00000000000E+00 0. -1.
<scales pt_clust_5="13000.00000" pt_clust_6="13000.00000" pt_clust_7="13000.00000" pt_clust_8="13000.00000" pt_clust_9="62.19121"></scales>
<clustering>
<clus scale="   62.191">  2  9  1 -1</clus>
<clus scale="   90.925">  7  8 -1 -1</clus>
<clus scale="   92.492">  5  6 -1 -1</clus>
<clus scale="  144.189">  1  7  2 -1</clus>
<clus scale="   62.191">  2  5  1 -1</clus>
</clustering>
</event>
<event>
 9    1  0.1610296E-005  0.9817000E+02  0.7546771E-02  0.1287057E+00
         21   -1    0    0  501  502  0.00000000000E+00  0.00000000000E+00  0.10756199148E+03  0.10756199148E+03  0.00000000000E+00 0.  1.
          1   -1    0    0  502    0 -0.00000000000E+00 -0.00000000000E+00 -0.24155106938E+03  0.24155106938E+03  0.00000000000E+00 0. -1.
         23    2    1    2    0    0  0.17177865618E+01 -0.35626702504E+02 -0.13714104849E+03  0.16742809961E+03  0.89175605608E+02 0.  0.
         23    2    1    2    0    0 -0.21349191555E+02  0.69759724399E+02  0.49046783322E+02  0.12121357065E+03  0.83456189861E+02 0.  0.
        -13    1    3    3    0    0  0.23604016901E+02  0.20459804455E+02 -0.73289089504E+02  0.79668336574E+02  0.00000000000E+00 0. -1.
         13    1    3    3    0    0 -0.21886230339E+02 -0.56086506960E+02 -0.63851958985E+02  0.87759763033E+02  0.00000000000E+00 0.  1.
        -13    1    4    4    0    0 -0.49646708791E+02  0.51452538280E+02  0.50409287576E+02  0.87482887830E+02  0.00000000000E+00 0.  1.
         13    1    4    4    0    0  0.28297517236E+02  0.18307186119E+02 -0.13625042538E+01  0.33730682815E+02  0.00000000000E+00 0. -1.
          1    1    1    2  501    0  0.19631404993E+02 -0.34133021894E+02 -0.45894812740E+02  0.60471390608E+02  0.00000000000E+00 0. -1.
<scales pt_clust_5="13000.00000" pt_clust_6="13000.00000" pt_clust_7="13000.00000" pt_clust_8="13000.00000" pt_clust_9="39.37584"></scales>
<clustering>
<clus scale="   39.376">  1  9  2 -1</clus>
<clus scale="   83.456">  7  8 -1 -1</clus>
<clus scale="   89.176">  5  6 -1 -1</clus>
<clus scale="   93.005">  1  7  2 -1</clus>
<clus scale="   39.376">  1  5  2 -1</clus>
</clustering>
</event>
<event>
 9    1  0.1610296E-005  0.1099573E+03  0.7546771E-02  0.1263959E+00
         21   -1    0    0  501  502  0.00000000000E+00  0.00000000000E+00  0.21433652597E+03  0.21433652597E+03  0.00000000000E+00 0. -1.
          3   -1    0    0  502    0 -0.00000000000E+00 -0.00000000000E+00 -0.12740776805E+03  0.12740776805E+03  0.00000000000E+00 0. -1.
         23    2    1    2    0    0 -0.79334832948E+01 -0.45009530179E+02 -0.53542279393E+02  0.11646864535E+03  0.92786700037E+02 0.  0.
         23    2    1    2    0    0 -0.48414156818E+02  0.43502368430E+02  0.91895699380E+02  0.15086535678E+03  0.10039496836E+03 0.  0.
        -11    1    4    4    0    0 -0.49046713504E+02 -0.14923543337E+02  0.13361097673E+02  0.52979346752E+02  0.00000000000E+00 0. -1.
         11    1    4    4    0    0  0.63255668573E+00  0.58425911767E+02  0.78534601707E+02  0.97886010027E+02  0.00000000000E+00 0.  1.
        -13    1    3    3    0    0 -0.46782908667E+02 -0.22648742880E+02 -0.48968426315E+02  0.71410873634E+02  0.00000000000E+00 0.  1.
         13    1    3    3    0    0  0.38849425372E+02 -0.22360787299E+02 -0.45738530782E+01  0.45057771720E+02  0.00000000000E+00 0. -1.
          3    1    1    2  501    0  0.56347640113E+02  0.15071617495E+01  0.48575337940E+02  0.74410291888E+02  0.00000000000E+00 0. -1.
<scales pt_clust_5="13000.00000" pt_clust_6="13000.00000" pt_clust_7="13000.00000" pt_clust_8="13000.00000" pt_clust_9="56.36779"></scales>
<clustering>
<clus scale="   56.368">  1  9  2 -1</clus>
<clus scale="   92.787">  7  8 -1 -1</clus>
<clus scale="  100.395">  5  6 -1 -1</clus>
<clus scale="  103.057">  2  7  1 -1</clus>
<clus scale="   56.368">  1  5  2 -1</clus>
</clustering>
</event>
<event>
 9    1  0.1610296E-005  0.1267826E+03  0.7546771E-02  0.1232358E+00
         21   -1    0    0  501  502  0.00000000000E+00  0.00000000000E+00  0.61406735145E+02  0.61406735145E+02  0.00000000000E+00 0. -1.
          1   -1    0    0  502    0 -0.00000000000E+00 -0.00000000000E+00 -0.55778848403E+03  0.55778848403E+03  0.00000000000E+00 0. -1.
         23    2    1    2    0    0  0.96009248163E+02 -0.19533391306E+02 -0.33187906581E+03  0.35762506766E+03  0.90292001790E+02 0.  0.
         23    2    1    2    0    0 -0.75305066666E+02  0.17439825725E+02 -0.19281344245E+03  0.22643405547E+03  0.90113025136E+02 0.  0.
        -11    1    4    4    0    0 -0.54193074313E+02  0.53879565537E+02 -0.13036234887E+03  0.15111002247E+03  0.00000000000E+00 0. -1.
         11    1    4    4    0    0 -0.21111992353E+02 -0.36439739812E+02 -0.62451093580E+02  0.75324033004E+02  0.00000000000E+00 0.  1.
        -13    1    3    3    0    0 -0.11857367020E+02 -0.22298536697E+02 -0.67907953970E+02  0.72452136641E+02  0.00000000000E+00 0.  1.
         13    1    3    3    0    0  0.10786661518E+03  0.27651453910E+01 -0.26397111184E+03  0.28517293102E+03  0.00000000000E+00 0. -1.
          1    1    1    2  501    0 -0.20704181496E+02  0.20935655804E+01  0.28310759382E+02  0.35136096042E+02  0.00000000000E+00 0. -1.
<scales pt_clust_5="13000.00000" pt_clust_6="13000.00000" pt_clust_7="13000.00000" pt_clust_8="13000.00000" pt_clust_9="20.80976"></scales>
<clustering>
<clus scale="   20.810">  1  9  2 -1</clus>
<clus scale="   90.113">  5  6 -1 -1</clus>
<clus scale="   90.292">  7  8 -1 -1</clus>
<clus scale="  126.655">  1  5  2 -1</clus>
<clus scale="   20.810">  1  5  2 -1</clus>
</clustering>
</event>
<event>
 9    1  0.1610296E-005  0.1307940E+03  0.7546771E-02  0.1227925E+00
         -1   -1    0    0    0  501 -0.00000000000E+00  0.00000000000E+00  0.70715157121E+03  0.70715157121E+03  0.00000000000E+00 0.  1.
         21   -1    0    0  501  502  0.00000000000E+00 -0.00000000000E+00 -0.51665750269E+02  0.51665750269E+02  0.00000000000E+00 0. -1.
         23    2    1    2    0    0  0.78080919935E+02 -0.69325731681E+01  0.42860362112E+03  0.44517552598E+03  0.91298928055E+02 0.  0.
         23    2    1    2    0    0 -0.12733602643E+03 -0.11118208742E+02  0.14497882236E+03  0.21637895839E+03  0.97277523147E+02 0.  0.
        -11    1    4    4    0    0 -0.11340966461E+03  0.25242497426E+02  0.81534201991E+02  0.14193928913E+03  0.00000000000E+00 0. -1.
         11    1    4    4    0    0 -0.13926361818E+02 -0.36360706168E+02  0.63444620373E+02  0.74439669269E+02  0.00000000000E+00 0.  1.
        -11    1    3    3    0    0  0.82190419739E+01 -0.39680653817E+02  0.10621423945E+03  0.11368188774E+03  0.00000000000E+00 0. -1.
         11    1    3    3    0    0  0.69861877961E+02  0.32748080649E+02  0.32238938167E+03  0.33149363824E+03  0.00000000000E+00 0.  1.
         -1    1    1    2    0  502  0.49255106493E+02  0.18050781910E+02  0.81903377454E+02  0.97262837104E+02  0.00000000000E+00 0.  1.
<scales pt_clust_5="13000.00000" pt_clust_6="13000.00000" pt_clust_7="13000.00000" pt_clust_8="13000.00000" pt_clust_9="52.45852"></scales>
<clustering>
<clus scale="   52.459">  2  9  1 -1</clus>
<clus scale="   91.299">  7  8 -1 -1</clus>
<clus scale="   97.278">  5  6 -1 -1</clus>
<clus scale="  126.411">  1  7  2 -1</clus>
<clus scale="   52.459">  2  5  1 -1</clus>
</clustering>
</event>
<event>
 9    1  0.1610296E-005  0.1075026E+03  0.7546771E-02  0.1269889E+00
          1   -1    0    0  502    0 -0.00000000000E+00  0.00000000000E+00  0.53971788689E+03  0.53971788689E+03  0.00000000000E+00 0. -1.
         21   -1    0    0  501  502  0.00000000000E+00 -0.00000000000E+00 -0.49572569413E+02  0.49572569413E+02  0.00000000000E+00 0.  1.
         23    2    1    2    0    0  0.42600682555E+02 -0.17069595452E+02  0.29588013976E+03  0.31528674661E+03  0.98764802632E+02 0.  0.
         23    2    1    2    0    0 -0.12076833792E+01  0.57964346616E+02  0.18760718098E+03  0.21543673971E+03  0.88629625312E+02 0.  0.
        -13    1    3    3    0    0  0.29006312322E+02  0.35447692225E+02  0.19948031453E+03  0.20467120199E+03  0.00000000000E+00 0.  1.
         13    1    3    3    0    0  0.13594370232E+02 -0.52517287677E+02  0.96399825233E+02  0.11061554462E+03  0.00000000000E+00 0. -1.
        -13    1    4    4    0    0 -0.28766981601E+02 -0.51493273812E+01  0.23622105918E+02  0.37577369398E+02  0.00000000000E+00 0. -1.
         13    1    4    4    0    0  0.27559298222E+02  0.63113673997E+02  0.16398507506E+03  0.17785937031E+03  0.00000000000E+00 0.  1.
          1    1    1    2  501    0 -0.41392999175E+02 -0.40894751163E+02  0.66579967417E+01  0.58566969992E+02  0.00000000000E+00 0. -1.
<scales pt_clust_5="13000.00000" pt_clust_6="13000.00000" pt_clust_7="13000.00000" pt_clust_8="13000.00000" pt_clust_9="58.18729"></scales>
<clustering>
<clus scale="   58.187">  2  9  1 -1</clus>
<clus scale="   88.630">  7  8 -1 -1</clus>
<clus scale="   98.273">  2  7  1 -1</clus>
<clus scale="   98.765">  5  6 -1 -1</clus>
<clus scale="   58.187">  2  5  1 -1</clus>
</clustering>
</event>
<event>
 9    1  0.1610296E-005  0.1273710E+03  0.7546771E-02  0.1233762E+00
          1   -1    0    0  502    0 -0.00000000000E+00  0.00000000000E+00  0.80611383046E+03  0.80611383046E+03  0.00000000000E+00 0. -1.
         21   -1    0    0  501  502  0.00000000000E+00 -0.00000000000E+00 -0.26801082157E+02  0.26801082157E+02  0.00000000000E+00 0.  1.
         23    2    1    2    0    0  0.81469844278E+02  0.38785972743E+02  0.50071399430E+03  0.51844348482E+03  0.99636618060E+02 0.  0.
         23    2    1    2    0    0 -0.58480889413E+02 -0.28412541017E+02  0.25948026944E+03  0.28282310109E+03  0.91823795199E+02 0.  0.
        -11    1    3    3    0    0  0.41173113234E+02  0.61204288693E+02  0.41105530041E+03  0.41762141971E+03  0.00000000000E+00 0. -1.
         11    1    3    3    0    0  0.40296731044E+02 -0.22418315950E+02  0.89658693891E+02  0.10082206511E+03  0.00000000000E+00 0.  1.
        -13    1    4    4    0    0 -0.51866254594E+02  0.25293064346E+02  0.14954950593E+03  0.16029629501E+03  0.00000000000E+00 0. -1.
         13    1    4    4    0    0 -0.66146348193E+01 -0.53705605363E+02  0.10993076351E+03  0.12252680608E+03  0.00000000000E+00 0.  1.
          1    1    1    2  501    0 -0.22988954865E+02 -0.10373431725E+02  0.19118484560E+02  0.31648326708E+02  0.00000000000E+00 0. -1.
<scales pt_clust_5="13000.00000" pt_clust_6="13000.00000" pt_clust_7="13000.00000" pt_clust_8="13000.00000" pt_clust_9="25.22103"></scales>
<clustering>
<clus scale="   25.221">  2  9  1 -1</clus>
<clus scale="   91.824">  7  8 -1 -1</clus>
<clus scale="   99.637">  5  6 -1 -1</clus>
<clus scale="  121.357">  2  7  1 -1</clus>
<clus scale="   25.221">  2  5  1 -1</clus>
</clustering>
</event>
<event>
 9    1  0.1610296E-005  0.2349308E+03  0.7546771E-02  0.1123351E+00
         21   -1    0    0  501  502  0.00000000000E+00  0.00000000000E+00  0.18197560717E+03  0.18197560717E+03  0.00000000000E+00 0. -1.
          2   -1    0    0  502    0 -0.00000000000E+00 -0.00000000000E+00 -0.74758990381E+03  0.74758990381E+03  0.00000000000E+00 0. -1.
         23    2    1    2    0    0 -0.17664492833E+03 -0.12130045500E+03 -0.59604398840E+03  0.63982226669E+03  0.90481300601E+02 0.  0.
         23    2    1    2    0    0  0.16575444590E+03  0.15875103787E+03  0.36966675580E+02  0.25019730995E+03  0.92497191527E+02 0.  0.
        -11    1    3    3    0    0 -0.44923668172E+02 -0.74642008640E+02 -0.30108738461E+03  0.31343767896E+03  0.00000000000E+00 0.  1.
         11    1    3    3    0    0 -0.13172126016E+03 -0.46658446363E+02 -0.29495660379E+03  0.32638458774E+03  0.00000000000E+00 0. -1.
        -13    1    4    4    0    0  0.72616337627E+02  0.17128193556E+02  0.30403229140E+02  0.80565897544E+02  0.00000000000E+00 0.  1.
         13    1    4    4    0    0  0.93138108275E+02  0.14162284432E+03  0.65634464394E+01  0.16963141241E+03  0.00000000000E+00 0. -1.
          2    1    1    2  501    0  0.10890482426E+02 -0.37450582871E+02 -0.65369838203E+01  0.39545934334E+02  0.00000000000E+00 0. -1.
<scales pt_clust_5="13000.00000" pt_clust_6="13000.00000" pt_clust_7="13000.00000" pt_clust_8="13000.00000" pt_clust_9="39.00191"></scales>
<clustering>
<clus scale="   39.002">  1  9  2 -1</clus>
<clus scale="   90.481">  5  6 -1 -1</clus>
<clus scale="   92.497">  7  8 -1 -1</clus>
<clus scale="  234.144">  2  5  1 -1</clus>
<clus scale="   39.002">  1  5  2 -1</clus>
</clustering>
</event>
<event>
 9    1  0.1610296E-005  0.4707718E+03  0.7546771E-02  0.1021934E+00
         21   -1    0    0  501  502  0.00000000000E+00  0.00000000000E+00  0.95837877082E+03  0.95837877082E+03  0.00000000000E+00 0. -1.
          1   -1    0    0  502    0 -0.00000000000E+00 -0.00000000000E+00 -0.49853015495E+03  0.49853015495E+03  0.00000000000E+00 0. -1.
         23    2    1    2    0    0 -0.47783594081E+03 -0.16768737408E+03 -0.22502795206E+03  0.56147608466E+03  0.90396751493E+02 0.  0.
         23    2    1    2    0    0  0.31988360078E+03  0.14907985200E+03  0.28741748052E+03  0.46733366129E+03  0.10602651814E+03 0.  0.
        -11    1    3    3    0    0 -0.40116421378E+03 -0.10696731367E+03 -0.16529707020E+03  0.44687565836E+03  0.00000000000E+00 0.  1.
         11    1    3    3    0    0 -0.76671727027E+02 -0.60720060408E+02 -0.59730881856E+02  0.11460042630E+03  0.00000000000E+00 0. -1.
        -13    1    4    4    0    0  0.33805566532E+02  0.10858263283E+02 -0.45976563083E+01  0.35803025760E+02  0.00000000000E+00 0. -1.
         13    1    4    4    0    0  0.28607803424E+03  0.13822158871E+03  0.29201513683E+03  0.43153063553E+03  0.00000000000E+00 0.  1.
          1    1    1    2  501    0  0.15795234003E+03  0.18607522079E+02  0.39745908741E+03  0.42809917982E+03  0.00000000000E+00 0. -1.
<scales pt_clust_5="13000.00000" pt_clust_6="13000.00000" pt_clust_7="13000.00000" pt_clust_8="13000.00000" pt_clust_9="159.04459"></scales>
<clustering>
<clus scale="   90.397">  5  6 -1 -1</clus>
<clus scale="  106.027">  7  8 -1 -1</clus>
<clus scale="  159.045">  1  9  2 -1</clus>
<clus scale="  467.500">  2  5  1 -1</clus>
<clus scale="  159.045">  1  5  2 -1</clus>
</clustering>
</event>
<event>
 9    1  0.1610296E-005  0.9218552E+02  0.7546771E-02  0.1298102E+00
         -4   -1    0    0    0  501 -0.00000000000E+00  0.00000000000E+00  0.25986074018E+02  0.25986074018E+02  0.00000000000E+00 0. -1.
         21   -1    0    0  501  502  0.00000000000E+00 -0.00000000000E+00 -0.98815716970E+03  0.98815716970E+03  0.00000000000E+00 0. -1.
         23    2    1    2    0    0  0.77685127165E+01  0.89436279334E+01 -0.14441789612E+03  0.17039325036E+03  0.89649276502E+02 0.  0.
         23    2    1    2    0    0  0.77386663532E+02 -0.55404737584E+01 -0.39904399904E+03  0.41645573866E+03  0.90442669960E+02 0.  0.
        -11    1    3    3    0    0 -0.14724684732E+02  0.35104010853E+02 -0.12528862104E+03  0.13094405859E+03  0.00000000000E+00 0.  1.
         11    1    3    3    0    0  0.22493197448E+02 -0.26160382920E+02 -0.19129275081E+02  0.39449191767E+02  0.00000000000E+00 0. -1.
        -11    1    4    4    0    0 -0.25135713747E+00  0.28751132712E+02 -0.54585848808E+02  0.61695264832E+02  0.00000000000E+00 0.  1.
         11    1    4    4    0    0  0.77638020669E+02 -0.34291606471E+02 -0.34445815023E+03  0.35476047383E+03  0.00000000000E+00 0. -1.
         -4    1    1    2    0  502 -0.85155176248E+02 -0.34031541750E+01 -0.41870920052E+03  0.42729425470E+03  0.00000000000E+00 0. -1.
<scales pt_clust_5="13000.00000" pt_clust_6="13000.00000" pt_clust_7="13000.00000" pt_clust_8="13000.00000" pt_clust_9="85.22315"></scales>
<clustering>
<clus scale="   85.223">  2  9  1 -1</clus>
<clus scale="   89.649">  5  6 -1 -1</clus>
<clus scale="   90.443">  7  8 -1 -1</clus>
<clus scale="   91.407">  1  5  2 -1</clus>
<clus scale="   85.223">  2  5  1 -1</clus>
</clustering>
</event>
<event>
 9    1  0.1610296E-005  0.9309097E+02  0.7546771E-02  0.1319646E+00
         -1   -1    0    0    0  501 -0.00000000000E+00  0.00000000000E+00  0.18455478342E+03  0.18455478342E+03  0.00000000000E+00 0.  1.
         21   -1    0    0  501  502  0.00000000000E+00 -0.00000000000E+00 -0.12315113803E+03  0.12315113803E+03  0.00000000000E+00 0. -1.
         23    2    1    2    0    0 -0.14197558601E+02  0.84141668162E+01  0.13630400028E+03  0.14884973589E+03  0.57489951372E+02 0.  0.
         23    2    1    2    0    0  0.72662107535E+00 -0.44373182040E+02 -0.54616147780E+02  0.11542847561E+03  0.91494820183E+02 0.  0.
        -13    1    4    4    0    0 -0.34357587296E+02 -0.52608892600E+02 -0.21289547453E+02  0.66342928908E+02  0.00000000000E+00 0.  1.
         13    1    4    4    0    0  0.35084208372E+02  0.82357105594E+01 -0.33326600327E+02  0.49085546700E+02  0.00000000000E+00 0. -1.
        -13    1    3    3    0    0  0.89343793832E+00  0.31851652660E+02  0.76334554944E+02  0.82718137594E+02  0.00000000000E+00 0. -1.
         13    1    3    3    0    0 -0.15090996539E+02 -0.23437485844E+02  0.59969445335E+02  0.66131598295E+02  0.00000000000E+00 0.  1.
         -1    1    1    2    0  502  0.13470937526E+02  0.35959015224E+02 -0.20284207107E+02  0.43427709952E+02  0.00000000000E+00 0.  1.
<scales pt_clust_5="13000.00000" pt_clust_6="13000.00000" pt_clust_7="13000.00000" pt_clust_8="13000.00000" pt_clust_9="38.39944"></scales>
<clustering>
<clus scale="   38.399">  2  9  1 -1</clus>
<clus scale="   57.490">  7  8 -1 -1</clus>
<clus scale="   59.998">  1  7  2 -1</clus>
<clus scale="   91.495">  5  6 -1 -1</clus>
<clus scale="   38.399">  2  5  1 -1</clus>
</clustering>
</event>
<event>
 9    1  0.1610296E-005  0.1038893E+03  0.7546771E-02  0.1273178E+00
          2   -1    0    0  502    0 -0.00000000000E+00  0.00000000000E+00  0.32243724020E+03  0.32243724020E+03  0.00000000000E+00 0. -1.
         21   -1    0    0  501  502  0.00000000000E+00 -0.00000000000E+00 -0.69044920016E+02  0.69044920016E+02  0.00000000000E+00 0.  1.
         23    2    1    2    0    0  0.43974179142E+02  0.64047133715E+01  0.21731363972E+03  0.24004815004E+03  0.91777707239E+02 0.  0.
         23    2    1    2    0    0 -0.63771874882E+02 -0.27373575099E+02  0.12570875337E+02  0.11422838129E+03  0.89855058540E+02 0.  0.
        -11    1    3    3    0    0 -0.15981441567E+02 -0.28160332230E+02  0.79283913875E+02  0.85640818452E+02  0.00000000000E+00 0.  1.
         11    1    3    3    0    0  0.59955620709E+02  0.34565045602E+02  0.13802972585E+03  0.15440733159E+03  0.00000000000E+00 0. -1.
        -11    1    4    4    0    0 -0.68388878994E+02  0.15691993342E+02  0.60264984691E+01  0.70424399954E+02  0.00000000000E+00 0.  1.
         11    1    4    4    0    0  0.46170041128E+01 -0.43065568440E+02  0.65443768683E+01  0.43803981333E+02  0.00000000000E+00 0. -1.
          2    1    1    2  501    0  0.19797695740E+02  0.20968861727E+02  0.23507805121E+02  0.37205628880E+02  0.00000000000E+00 0. -1.
<scales pt_clust_5="13000.00000" pt_clust_6="13000.00000" pt_clust_7="13000.00000" pt_clust_8="13000.00000" pt_clust_9="28.83820"></scales>
<clustering>
<clus scale="   28.838">  2  9  1 -1</clus>
<clus scale="   89.855">  7  8 -1 -1</clus>
<clus scale="   91.778">  5  6 -1 -1</clus>
<clus scale="  102.195">  2  7  1 -1</clus>
<clus scale="   28.838">  2  5  1 -1</clus>
</clustering>
</event>
<event>
 9    1  0.1610296E-005  0.1435448E+03  0.7546771E-02  0.1209019E+00
         21   -1    0    0  501  502  0.00000000000E+00  0.00000000000E+00  0.31120683856E+03  0.31120683856E+03  0.00000000000E+00 0. -1.
          1   -1    0    0  502    0 -0.00000000000E+00 -0.00000000000E+00 -0.13166884206E+03  0.13166884206E+03  0.00000000000E+00 0. -1.
         23    2    1    2    0    0  0.51648359407E+02  0.13378164853E+03 -0.69404376606E+00  0.17059248402E+03  0.92391727960E+02 0.  0.
         23    2    1    2    0    0  0.61438620971E+01 -0.60812774433E+02  0.11492958178E+03  0.15857827789E+03  0.90566665374E+02 0.  0.
        -13    1    4    4    0    0  0.22551218404E+02 -0.34347553006E+02  0.12017115844E+03  0.12700165027E+03  0.00000000000E+00 0. -1.
         13    1    4    4    0    0 -0.16407356307E+02 -0.26465221427E+02 -0.52415766693E+01  0.31576627625E+02  0.00000000000E+00 0.  1.
        -13    1    3    3    0    0  0.38549056922E+00  0.62813783722E+02  0.39561173326E+02  0.74234806280E+02  0.00000000000E+00 0.  1.
         13    1    3    3    0    0  0.51262868837E+02  0.70967864805E+02 -0.40255217092E+02  0.96357677740E+02  0.00000000000E+00 0. -1.
          1    1    1    2  501    0 -0.57792221504E+02 -0.72968874094E+02  0.65302458492E+02  0.11370491871E+03  0.00000000000E+00 0. -1.
<scales pt_clust_5="13000.00000" pt_clust_6="13000.00000" pt_clust_7="13000.00000" pt_clust_8="13000.00000" pt_clust_9="93.08275"></scales>
<clustering>
<clus scale="   90.567">  5  6 -1 -1</clus>
<clus scale="   92.392">  7  8 -1 -1</clus>
<clus scale="   93.083">  1  9  2 -1</clus>
<clus scale="  142.377">  1  5  2 -1</clus>
<clus scale="   93.083">  1  5  2 -1</clus>
</clustering>
</event>
<event>
 9    1  0.1610296E-005  0.1274862E+03  0.7546771E-02  0.1231441E+00
          2   -1    0    0  502    0 -0.00000000000E+00  0.00000000000E+00  0.20491868229E+03  0.20491868229E+03  0.00000000000E+00 0. -1.
         21   -1    0    0  501  502  0.00000000000E+00 -0.00000000000E+00 -0.14366667340E+03  0.14366667340E+03  0.00000000000E+00 0.  1.
         23    2    1    2    0    0  0.69314688152E+02  0.61502505880E+02  0.10157968272E+03  0.16581579184E+03  0.92678803724E+02 0.  0.
         23    2    1    2    0    0 -0.22616370063E+02 -0.75757538473E+02 -0.51340876238E+02  0.13271729623E+03  0.93419967437E+02 0.  0.
        -11    1    3    3    0    0  0.11193811139E+01 -0.22684646309E+02  0.17098756975E+02  0.28429099218E+02  0.00000000000E+00 0.  1.
         11    1    3    3    0    0  0.68195307038E+02  0.84187152189E+02  0.84480925745E+02  0.13738669263E+03  0.00000000000E+00 0. -1.
        -11    1    4    4    0    0 -0.20889877017E+01 -0.66624596519E+02 -0.74829779656E+02  0.10021325588E+03  0.00000000000E+00 0.  1.
         11    1    4    4    0    0 -0.20527382361E+02 -0.91329419534E+01  0.23488903418E+02  0.32504040351E+02  0.00000000000E+00 0. -1.
          2    1    1    2  501    0 -0.46698318089E+02  0.14255032593E+02  0.11013202409E+02  0.50052267620E+02  0.00000000000E+00 0. -1.
<scales pt_clust_5="13000.00000" pt_clust_6="13000.00000" pt_clust_7="13000.00000" pt_clust_8="13000.00000" pt_clust_9="48.82562"></scales>
<clustering>
<clus scale="   48.826">  2  9  1 -1</clus>
<clus scale="   92.679">  5  6 -1 -1</clus>
<clus scale="   93.420">  7  8 -1 -1</clus>
<clus scale="  126.944">  1  5  2 -1</clus>
<clus scale="   48.826">  2  5  1 -1</clus>
</clustering>
</event>
<event>
 9    1  0.1610296E-005  0.1515105E+03  0.7546771E-02  0.1199959E+00
         21   -1    0    0  501  502  0.00000000000E+00  0.00000000000E+00  0.40247727242E+02  0.40247727242E+02  0.00000000000E+00 0. -1.
          2   -1    0    0  502    0 -0.00000000000E+00 -0.00000000000E+00 -0.11565151994E+04  0.11565151994E+04  0.00000000000E+00 0. -1.
         23    2    1    2    0    0 -0.55099808571E+02  0.69471623100E+02 -0.33825367459E+03  0.36322981522E+03  0.98275403678E+02 0.  0.
         23    2    1    2    0    0 -0.12494489472E+01 -0.15857447487E+03 -0.59269997901E+03  0.62032952712E+03  0.91476947322E+02 0.  0.
        -11    1    4    4    0    0 -0.37760541485E+02 -0.46137409592E+02 -0.27398305911E+03  0.28039478551E+03  0.00000000000E+00 0.  1.
         11    1    4    4    0    0  0.36511092537E+02 -0.11243706528E+03 -0.31871691990E+03  0.33993474162E+03  0.00000000000E+00 0. -1.
        -13    1    3    3    0    0  0.16290762754E+02  0.54498663029E+02 -0.11385573759E+03  0.12727380801E+03  0.00000000000E+00 0.  1.
         13    1    3    3    0    0 -0.71390571325E+02  0.14972960071E+02 -0.22439793700E+03  0.23595600720E+03  0.00000000000E+00 0. -1.
          2    1    1    2  501    0  0.56349257519E+02  0.89102851769E+02 -0.18531381860E+03  0.21320358435E+03  0.00000000000E+00 0. -1.
<scales pt_clust_5="13000.00000" pt_clust_6="13000.00000" pt_clust_7="13000.00000" pt_clust_8="13000.00000" pt_clust_9="105.42560"></scales>
<clustering>
<clus scale="   91.477">  5  6 -1 -1</clus>
<clus scale="   98.275">  7  8 -1 -1</clus>
<clus scale="  105.426">  1  9  2 -1</clus>
<clus scale="  147.192">  1  5  2 -1</clus>
<clus scale="  105.426">  1  5  2 -1</clus>
</clustering>
</event>
<event>
 9    1  0.1610296E-005  0.1026117E+03  0.7546771E-02  0.1277495E+00
         21   -1    0    0  501  502  0.00000000000E+00  0.00000000000E+00  0.79587921623E+02  0.79587921623E+02  0.00000000000E+00 0.  1.
          2   -1    0    0  502    0 -0.00000000000E+00 -0.00000000000E+00 -0.72448617765E+03  0.72448617765E+03  0.00000000000E+00 0. -1.
         23    2    1    2    0    0  0.28337420202E+02 -0.21105213858E+02 -0.55176891914E+03  0.56126973079E+03  0.96572931703E+02 0.  0.
         23    2    1    2    0    0  0.30695204628E+02  0.74611405512E+02 -0.20984770340E+01  0.12183172370E+03  0.91266137610E+02 0.  0.
        -11    1    3    3    0    0 -0.56744785833E+01  0.35849372748E+02 -0.17868388261E+03  0.18233295680E+03  0.00000000000E+00 0.  1.
         11    1    3    3    0    0  0.34011898785E+02 -0.56954586606E+02 -0.37308503654E+03  0.37893677399E+03  0.00000000000E+00 0. -1.
        -13    1    4    4    0    0  0.55687199378E+02  0.48797812346E+02 -0.26229028416E+02  0.78550955411E+02  0.00000000000E+00 0. -1.
         13    1    4    4    0    0 -0.24991994750E+02  0.25813593165E+02  0.24130551382E+02  0.43280768289E+02  0.00000000000E+00 0.  1.
          2    1    1    2  501    0 -0.59032624829E+02 -0.53506191654E+02 -0.91030859849E+02  0.12097264478E+03  0.00000000000E+00 0. -1.
<scales pt_clust_5="13000.00000" pt_clust_6="13000.00000" pt_clust_7="13000.00000" pt_clust_8="13000.00000" pt_clust_9="79.67285"></scales>
<clustering>
<clus scale="   79.673">  1  9  2 -1</clus>
<clus scale="   91.266">  7  8 -1 -1</clus>
<clus scale="   96.573">  5  6 -1 -1</clus>
<clus scale="   97.634">  1  7  2 -1</clus>
<clus scale="   79.673">  1  5  2 -1</clus>
</clustering>
</event>
<event>
 9    1  0.1610296E-005  0.1246100E+03  0.7546771E-02  0.1238016E+00
         21   -1    0    0  501  502  0.00000000000E+00  0.00000000000E+00  0.79333152581E+02  0.79333152581E+02  0.00000000000E+00 0. -1.
          1   -1    0    0  502    0 -0.00000000000E+00 -0.00000000000E+00 -0.90640472119E+03  0.90640472119E+03  0.00000000000E+00 0. -1.
         23    2    1    2    0    0 -0.16831679773E+02 -0.57184263543E+02 -0.39682025741E+03  0.41334798991E+03  0.99181140507E+02 0.  0.
         23    2    1    2    0    0  0.54636085098E+02  0.76854723118E+02 -0.48527116949E+03  0.50279617115E+03  0.91783067766E+02 0.  0.
        -11    1    4    4    0    0  0.78002441009E+02  0.56014797718E+02 -0.41329437009E+03  0.42430445993E+03  0.00000000000E+00 0. -1.
         11    1    4    4    0    0 -0.23366355911E+02  0.20839925401E+02 -0.71976799394E+02  0.78491711220E+02  0.00000000000E+00 0.  1.
        -13    1    3    3    0    0  0.70033479468E+01 -0.81281586724E+02 -0.26789570081E+03  0.28004258557E+03  0.00000000000E+00 0.  1.
         13    1    3    3    0    0 -0.23835027720E+02  0.24097323182E+02 -0.12892455661E+03  0.13330540434E+03  0.00000000000E+00 0. -1.
          1    1    1    2  501    0 -0.37804405325E+02 -0.19670459576E+02  0.55019858290E+02  0.69593712706E+02  0.00000000000E+00 0. -1.
<scales pt_clust_5="13000.00000" pt_clust_6="13000.00000" pt_clust_7="13000.00000" pt_clust_8="13000.00000" pt_clust_9="42.61573"></scales>
<clustering>
<clus scale="   42.616">  1  9  2 -1</clus>
<clus scale="   91.783">  5  6 -1 -1</clus>
<clus scale="   99.181">  7  8 -1 -1</clus>
<clus scale="  118.806">  1  5  2 -1</clus>
<clus scale="   42.616">  1  5  2 -1</clus>
</clustering>
</event>
<event>
 9    1  0.1610296E-005  0.1025160E+03  0.7546771E-02  0.1277376E+00
         -2   -1    0    0    0  501 -0.00000000000E+00  0.00000000000E+00  0.23078883292E+03  0.23078883292E+03  0.00000000000E+00 0.  1.
         21   -1    0    0  501  502  0.00000000000E+00 -0.00000000000E+00 -0.16216485104E+03  0.16216485104E+03  0.00000000000E+00 0. -1.
         23    2    1    2    0    0  0.81978756507E+01  0.37379826586E+02  0.17701806610E+03  0.20254235193E+03  0.90683802299E+02 0.  0.
         23    2    1    2    0    0  0.14873365688E+02 -0.32275761076E+02 -0.12523070476E+03  0.16139744824E+03  0.95412080593E+02 0.  0.
        -11    1    4    4    0    0  0.33010637763E+02 -0.46490702064E+02 -0.32048022330E+02  0.65407670187E+02  0.00000000000E+00 0. -1.
         11    1    4    4    0    0 -0.18137272075E+02  0.14214940989E+02 -0.93182682428E+02  0.95989778050E+02  0.00000000000E+00 0.  1.
        -11    1    3    3    0    0  0.25236048864E+02 -0.23538632396E+02  0.74044277559E+02  0.81691372963E+02  0.00000000000E+00 0. -1.
         11    1    3    3    0    0 -0.17038173213E+02  0.60918458982E+02  0.10297378854E+03  0.12085097897E+03  0.00000000000E+00 0.  1.
         -2    1    1    2    0  502 -0.23071241338E+02 -0.51040655105E+01  0.16836620542E+02  0.29013883796E+02  0.00000000000E+00 0.  1.
<scales pt_clust_5="13000.00000" pt_clust_6="13000.00000" pt_clust_7="13000.00000" pt_clust_8="13000.00000" pt_clust_9="23.62910"></scales>
<clustering>
<clus scale="   23.629">  2  9  1 -1</clus>
<clus scale="   90.684">  7  8 -1 -1</clus>
<clus scale="   95.412">  5  6 -1 -1</clus>
<clus scale="   98.131">  1  7  2 -1</clus>
<clus scale="   23.629">  2  5  1 -1</clus>
</clustering>
</event>
<event>
 9    1  0.1610296E-005  0.9557158E+02  0.7546771E-02  0.1290380E+00
          4   -1    0    0  502    0 -0.00000000000E+00  0.00000000000E+00  0.64953173141E+03  0.64953173141E+03  0.00000000000E+00 0. -1.
         21   -1    0    0  501  502  0.00000000000E+00 -0.00000000000E+00 -0.19353243778E+02  0.19353243778E+02  0.00000000000E+00 0.  1.
         23    2    1    2    0    0  0.17202939650E+02  0.11719910797E+02  0.36773753964E+03  0.37942418864E+03  0.91096209724E+02 0.  0.
         23    2    1    2    0    0 -0.16269499330E+02 -0.34092165103E+02  0.22135232920E+03  0.24266694434E+03  0.91996847259E+02 0.  0.
        -11    1    4    4    0    0  0.13771713551E+02 -0.55170514580E+02  0.17206570169E+03  0.18121824265E+03  0.00000000000E+00 0. -1.
         11    1    4    4    0    0 -0.30041212881E+02  0.21078349477E+02  0.49286627512E+02  0.61448701691E+02  0.00000000000E+00 0.  1.
        -11    1    3    3    0    0 -0.36493061672E+02 -0.44401298127E+01  0.16723620288E+03  0.17122910342E+03  0.00000000000E+00 0. -1.
         11    1    3    3    0    0  0.53696001322E+02  0.16160040610E+02  0.20050133676E+03  0.20819508522E+03  0.00000000000E+00 0.  1.
          4    1    1    2  501    0 -0.93344032019E+00  0.22372254306E+02  0.41088618791E+02  0.46793842199E+02  0.00000000000E+00 0. -1.
<scales pt_clust_5="13000.00000" pt_clust_6="13000.00000" pt_clust_7="13000.00000" pt_clust_8="13000.00000" pt_clust_9="22.39172"></scales>
<clustering>
<clus scale="   22.392">  2  9  1 -1</clus>
<clus scale="   91.096">  7  8 -1 -1</clus>
<clus scale="   91.997">  5  6 -1 -1</clus>
<clus scale="   94.705">  1  7  2 -1</clus>
<clus scale="   22.392">  2  5  1 -1</clus>
</clustering>
</event>
<event>
 9    1  0.1610296E-005  0.2783182E+03  0.7546771E-02  0.1096710E+00
         -1   -1    0    0    0  501 -0.00000000000E+00  0.00000000000E+00  0.11997543671E+03  0.11997543671E+03  0.00000000000E+00 0.  1.
         21   -1    0    0  501  502  0.00000000000E+00 -0.00000000000E+00 -0.11924984081E+04  0.11924984081E+04  0.00000000000E+00 0.  1.
         23    2    1    2    0    0 -0.12763179657E+03  0.15004114259E+03 -0.43323686053E+03  0.48454161600E+03  0.91017472751E+02 0.  0.
         23    2    1    2    0    0  0.26922740580E+03 -0.21760625804E+03 -0.51641787770E+03  0.62865612865E+03  0.93194549751E+02 0.  0.
        -11    1    3    3    0    0 -0.71152002636E+02  0.13319104957E+03 -0.36100326918E+03  0.39131294832E+03  0.00000000000E+00 0.  1.
         11    1    3    3    0    0 -0.56479793936E+02  0.16850093028E+02 -0.72233591352E+02  0.93228667681E+02  0.00000000000E+00 0. -1.
        -11    1    4    4    0    0  0.22217584558E+03 -0.13514384071E+03 -0.41489520889E+03  0.48965702119E+03  0.00000000000E+00 0.  1.
         11    1    4    4    0    0  0.47051560223E+02 -0.82462417333E+02 -0.10152266881E+03  0.13899910746E+03  0.00000000000E+00 0. -1.
         -1    1    1    2    0  502 -0.14159560923E+03  0.67565115449E+02 -0.12286823316E+03  0.19927610017E+03  0.00000000000E+00 0.  1.
<scales pt_clust_5="13000.00000" pt_clust_6="13000.00000" pt_clust_7="13000.00000" pt_clust_8="13000.00000" pt_clust_9="156.88973"></scales>
<clustering>
<clus scale="   91.017">  5  6 -1 -1</clus>
<clus scale="   93.195">  7  8 -1 -1</clus>
<clus scale="  156.890">  2  9  1 -1</clus>
<clus scale="  277.597">  1  5  2 -1</clus>
<clus scale="  156.890">  2  5  1 -1</clus>
</clustering>
</event>
<event>
 9    1  0.1610296E-005  0.9093335E+02  0.7546771E-02  0.1301595E+00
          2   -1    0    0  502    0 -0.00000000000E+00  0.00000000000E+00  0.11859084643E+03  0.11859084643E+03  0.00000000000E+00 0. -1.
         21   -1    0    0  501  502  0.00000000000E+00 -0.00000000000E+00 -0.12335358142E+03  0.12335358142E+03  0.00000000000E+00 0.  1.
         23    2    1    2    0    0  0.13304289202E+02 -0.28777520254E+01  0.35027699153E+02  0.96658827872E+02  0.89054498649E+02 0.  0.
         23    2    1    2    0    0  0.13726029211E+02  0.10868855923E+02  0.48404641301E+01  0.92499115581E+02  0.90697962399E+02 0.  0.
        -11    1    3    3    0    0 -0.20316461975E+02 -0.34334502137E+02  0.30842278973E+02  0.50426806725E+02  0.00000000000E+00 0. -1.
         11    1    3    3    0    0  0.33620751176E+02  0.31456750112E+02  0.41854201794E+01  0.46232021147E+02  0.00000000000E+00 0.  1.
        -13    1    4    4    0    0  0.17747611719E+02  0.36257777000E+02 -0.29215254357E+02  0.49831066634E+02  0.00000000000E+00 0.  1.
         13    1    4    4    0    0 -0.40215825080E+01 -0.25388921077E+02  0.34055718487E+02  0.42668048948E+02  0.00000000000E+00 0. -1.
          2    1    1    2  501    0 -0.27030318413E+02 -0.79911038973E+01 -0.44630898274E+02  0.52786484404E+02  0.00000000000E+00 0. -1.
<scales pt_clust_5="13000.00000" pt_clust_6="13000.00000" pt_clust_7="13000.00000" pt_clust_8="13000.00000" pt_clust_9="28.18680"></scales>
<clustering>
<clus scale="   28.187">  2  9  1 -1</clus>
<clus scale="   89.054">  5  6 -1 -1</clus>
<clus scale="   89.294">  1  5  2 -1</clus>
<clus scale="   90.698">  7  8 -1 -1</clus>
<clus scale="   28.187">  2  5  1 -1</clus>
</clustering>
</event>
<event>
 9    1  0.1610296E-005  0.3987080E+03  0.7546771E-02  0.1044266E+00
          1   -1    0    0  502    0 -0.00000000000E+00  0.00000000000E+00  0.86090061170E+03  0.86090061170E+03  0.00000000000E+00 0. -1.
         21   -1    0    0  501  502  0.00000000000E+00 -0.00000000000E+00 -0.33379741581E+03  0.33379741581E+03  0.00000000000E+00 0. -1.
         23    2    1    2    0    0 -0.25890338514E+03  0.28788541339E+03  0.62225339923E+03  0.73849297048E+03  0.90904348214E+02 0.  0.
         23    2    1    2    0    0  0.22897243935E+03 -0.31835105347E+03 -0.92239876730E+02  0.41339750230E+03  0.92809098825E+02 0.  0.
        -11    1    3    3    0    0 -0.19805849248E+03  0.21509873324E+03  0.38862151292E+03  0.48633456775E+03  0.00000000000E+00 0. -1.
         11    1    3    3    0    0 -0.60844892662E+02  0.72786680153E+02  0.23363188631E+03  0.25215840274E+03  0.00000000000E+00 0.  1.
        -13    1    4    4    0    0  0.67449092266E+02 -0.62633551889E+02 -0.58501101999E+02  0.10906292131E+03  0.00000000000E+00 0. -1.
         13    1    4    4    0    0  0.16152334709E+03 -0.25571750158E+03 -0.33738774731E+02  0.30433458099E+03  0.00000000000E+00 0.  1.
          1    1    1    2  501    0  0.29930945786E+02  0.30465640079E+02 -0.29103266101E+01  0.42807554731E+02  0.00000000000E+00 0. -1.
<scales pt_clust_5="13000.00000" pt_clust_6="13000.00000" pt_clust_7="13000.00000" pt_clust_8="13000.00000" pt_clust_9="42.70851"></scales>
<clustering>
<clus scale="   42.709">  2  9  1 -1</clus>
<clus scale="   90.904">  5  6 -1 -1</clus>
<clus scale="   92.809">  7  8 -1 -1</clus>
<clus scale="  398.269">  1  5  2 -1</clus>
<clus scale="   42.709">  2  5  1 -1</clus>
</clustering>
</event>
<event>
 9    1  0.1610296E-005  0.1259931E+03  0.7546771E-02  0.1233751E+00
         21   -1    0    0  501  502  0.00000000000E+00  0.00000000000E+00  0.22215834420E+03  0.22215834420E+03  0.00000000000E+00 0. -1.
         -3   -1    0    0    0  501 -0.00000000000E+00 -0.00000000000E+00 -0.14729043099E+03  0.14729043099E+03  0.00000000000E+00 0.  1.
         23    2    1    2    0    0 -0.93682993392E+02 -0.16204607456E+02 -0.28162330675E+02  0.13466579876E+03  0.91118976803E+02 0.  0.
         23    2    1    2    0    0  0.77759276810E+02 -0.43736786488E+01 -0.80034992403E+01  0.12074121776E+03  0.91917090203E+02 0.  0.
        -13    1    4    4    0    0  0.12732120980E+02 -0.42406130248E+02 -0.99622087250E+01  0.45383172983E+02  0.00000000000E+00 0.  1.
         13    1    4    4    0    0  0.65027155830E+02  0.38032451600E+02  0.19587094847E+01  0.75358044779E+02  0.00000000000E+00 0. -1.
        -13    1    3    3    0    0 -0.25271087992E+01  0.20323104024E+02 -0.30145004046E+02  0.36443601702E+02  0.00000000000E+00 0. -1.
         13    1    3    3    0    0 -0.91155884593E+02 -0.36527711480E+02  0.19826733708E+01  0.98222197061E+02  0.00000000000E+00 0.  1.
         -3    1    1    2    0  502  0.15923716582E+02  0.20578286105E+02  0.11103374312E+03  0.11404175867E+03  0.00000000000E+00 0.  1.
<scales pt_clust_5="13000.00000" pt_clust_6="13000.00000" pt_clust_7="13000.00000" pt_clust_8="13000.00000" pt_clust_9="26.01981"></scales>
<clustering>
<clus scale="   26.020">  1  9  2 -1</clus>
<clus scale="   91.119">  7  8 -1 -1</clus>
<clus scale="   91.917">  5  6 -1 -1</clus>
<clus scale="  125.412">  2  7  1 -1</clus>
<clus scale="   26.020">  1  5  2 -1</clus>
</clustering>
</event>
<event>
 9    1  0.1610296E-005  0.1605987E+03  0.7546771E-02  0.1209879E+00
         21   -1    0    0  501  502  0.00000000000E+00  0.00000000000E+00  0.15029673647E+03  0.15029673647E+03  0.00000000000E+00 0. -1.
          1   -1    0    0  502    0 -0.00000000000E+00 -0.00000000000E+00 -0.34698180106E+03  0.34698180106E+03  0.00000000000E+00 0. -1.
         23    2    1    2    0    0  0.82102805965E+00  0.58617780818E+02 -0.12843980819E+03  0.16266475010E+03  0.80785631647E+02 0.  0.
         23    2    1    2    0    0  0.60741727936E+02 -0.15958750984E+03 -0.89877052284E+02  0.21439401494E+03  0.93430071756E+02 0.  0.
        -13    1    3    3    0    0  0.21166606870E+02  0.50209210336E+02 -0.12963171049E+03  0.14061781685E+03  0.00000000000E+00 0. -1.
         13    1    3    3    0    0 -0.20345578811E+02  0.84085704822E+01  0.11919023012E+01  0.22046933252E+02  0.00000000000E+00 0.  1.
        -13    1    4    4    0    0  0.27132049897E+02 -0.94787227478E+02  0.17152521022E-01  0.98593949707E+02  0.00000000000E+00 0.  1.
         13    1    4    4    0    0  0.33609678039E+02 -0.64800282359E+02 -0.89894204805E+02  0.11580006524E+03  0.00000000000E+00 0. -1.
          1    1    1    2  501    0 -0.61562755996E+02  0.10096972902E+03  0.21631795887E+02  0.12021977249E+03  0.00000000000E+00 0. -1.
<scales pt_clust_5="13000.00000" pt_clust_6="13000.00000" pt_clust_7="13000.00000" pt_clust_8="13000.00000" pt_clust_9="130.62450"></scales>
<clustering>
<clus scale="   80.786">  5  6 -1 -1</clus>
<clus scale="   93.430">  7  8 -1 -1</clus>
<clus scale="   99.815">  2  5  1 -1</clus>
<clus scale="  130.624">  1  9  2 -1</clus>
<clus scale="  130.624">  1  5  2 -1</clus>
</clustering>
</event>
<event>
 9    1  0.1610296E-005  0.1217420E+03  0.7546771E-02  0.1240603E+00
          1   -1    0    0  502    0 -0.00000000000E+00  0.00000000000E+00  0.45944484496E+03  0.45944484496E+03  0.00000000000E+00 0. -1.
         21   -1    0    0  501  502  0.00000000000E+00 -0.00000000000E+00 -0.20028454984E+03  0.20028454984E+03  0.00000000000E+00 0.  1.
         23    2    1    2    0    0  0.75966019321E+02  0.52295765010E+01  0.38467829287E+03  0.40266640564E+03  0.91458518819E+02 0.  0.
         23    2    1    2    0    0 -0.12943039634E+03  0.22753338675E+02 -0.10987409254E+03  0.19472347582E+03  0.92601154991E+02 0.  0.
        -11    1    4    4    0    0 -0.79474464011E+02 -0.21387708072E+02 -0.96324949678E+02  0.12669696294E+03  0.00000000000E+00 0. -1.
         11    1    4    4    0    0 -0.49955932332E+02  0.44141046747E+02 -0.13549142863E+02  0.68026512886E+02  0.00000000000E+00 0.  1.
        -13    1    3    3    0    0  0.86147876266E+02 -0.13190650159E+02  0.35918825461E+03  0.36961013526E+03  0.00000000000E+00 0. -1.
         13    1    3    3    0    0 -0.10181856945E+02  0.18420226660E+02  0.25490038261E+02  0.33056270382E+02  0.00000000000E+00 0.  1.
          1    1    1    2  501    0  0.53464377022E+02 -0.27982915176E+02 -0.15643905214E+02  0.62339513332E+02  0.00000000000E+00 0. -1.
<scales pt_clust_5="13000.00000" pt_clust_6="13000.00000" pt_clust_7="13000.00000" pt_clust_8="13000.00000" pt_clust_9="60.34470"></scales>
<clustering>
<clus scale="   60.345">  2  9  1 -1</clus>
<clus scale="   91.459">  7  8 -1 -1</clus>
<clus scale="   92.601">  5  6 -1 -1</clus>
<clus scale="  120.875">  1  7  2 -1</clus>
<clus scale="   60.345">  2  5  1 -1</clus>
</clustering>
</event>
<event>
 9    1  0.1610296E-005  0.9691972E+02  0.7546771E-02  0.1289868E+00
         21   -1    0    0  501  502  0.00000000000E+00  0.00000000000E+00  0.22772616197E+03  0.22772616197E+03  0.00000000000E+00 0.  1.
         -4   -1    0    0    0  501 -0.00000000000E+00 -0.00000000000E+00 -0.10057244682E+03  0.10057244682E+03  0.00000000000E+00 0.  1.
         23    2    1    2    0    0  0.43422673155E+02  0.26750072066E+02  0.58658752201E+02  0.11793861086E+03  0.88699333837E+02 0.  0.
         23    2    1    2    0    0  0.21163495770E+01  0.47164756286E+02  0.64464473795E+02  0.12344941580E+03  0.94101523410E+02 0.  0.
        -11    1    4    4    0    0 -0.43718170080E+02  0.25650035562E+02  0.15476885935E+02  0.52997516147E+02  0.00000000000E+00 0. -1.
         11    1    4    4    0    0  0.45834519657E+02  0.21514720725E+02  0.48987587860E+02  0.70451899651E+02  0.00000000000E+00 0.  1.
        -13    1    3    3    0    0  0.47854729217E+02 -0.52183618424E+01  0.68924785111E+02  0.84070996255E+02  0.00000000000E+00 0.  1.
         13    1    3    3    0    0 -0.44320560625E+01  0.31968433908E+02 -0.10266032910E+02  0.33867614608E+02  0.00000000000E+00 0. -1.
         -4    1    1    2    0  502 -0.45539022732E+02 -0.73914828352E+02  0.40304891548E+01  0.86910582121E+02  0.00000000000E+00 0.  1.
<scales pt_clust_5="13000.00000" pt_clust_6="13000.00000" pt_clust_7="13000.00000" pt_clust_8="13000.00000" pt_clust_9="86.81712"></scales>
<clustering>
<clus scale="   86.817">  1  9  2 -1</clus>
<clus scale="   88.699">  7  8 -1 -1</clus>
<clus scale="   91.684">  2  7  1 -1</clus>
<clus scale="   94.102">  5  6 -1 -1</clus>
<clus scale="   86.817">  1  5  2 -1</clus>
</clustering>
</event>
<event>
 9    1  0.1610296E-005  0.1174153E+03  0.7546771E-02  0.1248051E+00
         21   -1    0    0  501  502  0.00000000000E+00  0.00000000000E+00  0.14130740635E+03  0.14130740635E+03  0.00000000000E+00 0.  1.
         -3   -1    0    0    0  501 -0.00000000000E+00 -0.00000000000E+00 -0.38497296464E+03  0.38497296464E+03  0.00000000000E+00 0.  1.
         23    2    1    2    0    0  0.20627906350E+02 -0.76096762238E+02 -0.29330793749E+03  0.31711335754E+03  0.91187211798E+02 0.  0.
         23    2    1    2    0    0  0.41505616811E+02  0.22745733465E+02  0.68843460634E+02  0.12505049604E+03  0.93049018636E+02 0.  0.
        -11    1    4    4    0    0 -0.29553488966E+02  0.10557830555E+02  0.13508899582E+02  0.34166750856E+02  0.00000000000E+00 0. -1.
         11    1    4    4    0    0  0.71059105777E+02  0.12187902910E+02  0.55334561052E+02  0.90883745180E+02  0.00000000000E+00 0.  1.
        -13    1    3    3    0    0 -0.17666938755E+02 -0.80008112783E+02 -0.19295313967E+03  0.20962903650E+03  0.00000000000E+00 0.  1.
         13    1    3    3    0    0  0.38294845105E+02  0.39113505450E+01 -0.10035479782E+03  0.10748432105E+03  0.00000000000E+00 0. -1.
         -3    1    1    2    0  502 -0.62133523161E+02  0.53351028773E+02 -0.19201081438E+02  0.84116517402E+02  0.00000000000E+00 0.  1.
<scales pt_clust_5="13000.00000" pt_clust_6="13000.00000" pt_clust_7="13000.00000" pt_clust_8="13000.00000" pt_clust_9="81.89571"></scales>
<clustering>
<clus scale="   81.896">  1  9  2 -1</clus>
<clus scale="   91.187">  7  8 -1 -1</clus>
<clus scale="   93.049">  5  6 -1 -1</clus>
<clus scale="  115.945">  2  7  1 -1</clus>
<clus scale="   81.896">  1  5  2 -1</clus>
</clustering>
</event>
<event>
 9    1  0.1610296E-005  0.1067242E+03  0.7546771E-02  0.1279818E+00
          2   -1    0    0  502    0 -0.00000000000E+00  0.00000000000E+00  0.69431439692E+03  0.69431439692E+03  0.00000000000E+00 0. -1.
         21   -1    0    0  501  502  0.00000000000E+00 -0.00000000000E+00 -0.26874888278E+02  0.26874888278E+02  0.00000000000E+00 0.  1.
         23    2    1    2    0    0  0.47174953963E+01 -0.43873064832E+02  0.39597542257E+03  0.40425446105E+03  0.68396150591E+02 0.  0.
         23    2    1    2    0    0 -0.27788447398E+02  0.50795805427E+02  0.27059520126E+03  0.29283195867E+03  0.95793430945E+02 0.  0.
        -11    1    4    4    0    0 -0.25760899758E+02  0.13907441925E+01  0.10131849367E+02  0.27716646574E+02  0.00000000000E+00 0.  1.
         11    1    4    4    0    0 -0.20275476401E+01  0.49405061234E+02  0.26046335190E+03  0.26511531209E+03  0.00000000000E+00 0. -1.
        -13    1    3    3    0    0 -0.21969667638E+02 -0.49346772047E+02  0.27402623177E+03  0.27929938401E+03  0.00000000000E+00 0. -1.
         13    1    3    3    0    0  0.26687163035E+02  0.54737072154E+01  0.12194919080E+03  0.12495507704E+03  0.00000000000E+00 0.  1.
          2    1    1    2  501    0  0.23070952001E+02 -0.69227405948E+01  0.86888480609E+00  0.24102865481E+02  0.00000000000E+00 0. -1.
<scales pt_clust_5="13000.00000" pt_clust_6="13000.00000" pt_clust_7="13000.00000" pt_clust_8="13000.00000" pt_clust_9="24.08720"></scales>
<clustering>
<clus scale="   24.087">  2  9  1 -1</clus>
<clus scale="   68.396">  7  8 -1 -1</clus>
<clus scale="   83.016">  1  7  2 -1</clus>
<clus scale="   95.793">  5  6 -1 -1</clus>
<clus scale="   24.087">  2  5  1 -1</clus>
</clustering>
</event>
<event>
 9    1  0.1610296E-005  0.2097802E+03  0.7546771E-02  0.1169483E+00
         21   -1    0    0  501  502  0.00000000000E+00  0.00000000000E+00  0.13483349311E+03  0.13483349311E+03  0.00000000000E+00 0. -1.
          1   -1    0    0  502    0 -0.00000000000E+00 -0.00000000000E+00 -0.82078171271E+03  0.82078171271E+03  0.00000000000E+00 0. -1.
         23    2    1    2    0    0  0.36503495700E+02 -0.47717745741E+02 -0.53908623890E+02  0.12197204310E+03  0.91441517433E+02 0.  0.
         23    2    1    2    0    0  0.81755397542E+02 -0.15778395870E+03 -0.52089665694E+02  0.20709864101E+03  0.92718882574E+02 0.  0.
        -11    1    4    4    0    0  0.43843311654E+02 -0.77251092697E+01 -0.25579902763E+01  0.44592113700E+02  0.00000000000E+00 0.  1.
         11    1    4    4    0    0  0.37912085888E+02 -0.15005884943E+03 -0.49531675418E+02  0.16250652731E+03  0.00000000000E+00 0. -1.
        -11    1    3    3    0    0 -0.30942848050E+02 -0.16589746780E+02 -0.16224204519E+02  0.38676922783E+02  0.00000000000E+00 0.  1.
         11    1    3    3    0    0  0.67446343750E+02 -0.31127998960E+02 -0.37684419371E+02  0.83295120312E+02  0.00000000000E+00 0. -1.
          1    1    1    2  501    0 -0.11825889324E+03  0.20550170444E+03 -0.57994993002E+03  0.62654452171E+03  0.00000000000E+00 0. -1.
<scales pt_clust_5="13000.00000" pt_clust_6="13000.00000" pt_clust_7="13000.00000" pt_clust_8="13000.00000" pt_clust_9="188.17807"></scales>
<clustering>
<clus scale="   91.442">  7  8 -1 -1</clus>
<clus scale="   92.719">  5  6 -1 -1</clus>
<clus scale="  109.412">  2  7  1 -1</clus>
<clus scale="  188.178">  1  9  2 -1</clus>
<clus scale="  188.178">  1  5  2 -1</clus>
</clustering>
</event>
<event>
 9    1  0.1610296E-005  0.1580549E+03  0.7546771E-02  0.1203758E+00
         -4   -1    0    0    0  501 -0.00000000000E+00  0.00000000000E+00  0.51679382778E+03  0.51679382778E+03  0.00000000000E+00 0.  1.
         21   -1    0    0  501  502  0.00000000000E+00 -0.00000000000E+00 -0.24221335657E+03  0.24221335657E+03  0.00000000000E+00 0.  1.
         23    2    1    2    0    0 -0.39832346285E+02 -0.65412316572E+02 -0.34258826362E+02  0.12423514635E+03  0.91625964847E+02 0.  0.
         23    2    1    2    0    0  0.76522208901E+02 -0.60509486389E+02  0.43346585149E+03  0.45384601881E+03  0.92555485976E+02 0.  0.
        -11    1    3    3    0    0 -0.31929507618E+02 -0.23105031959E+02 -0.61684543693E+02  0.73200538858E+02  0.00000000000E+00 0. -1.
         11    1    3    3    0    0 -0.79028386666E+01 -0.42307284613E+02  0.27425717331E+02  0.51034607488E+02  0.00000000000E+00 0.  1.
        -13    1    4    4    0    0  0.18792856943E+02  0.11047927262E+02  0.17830018990E+02  0.28162701327E+02  0.00000000000E+00 0. -1.
         13    1    4    4    0    0  0.57729351958E+02 -0.71557413650E+02  0.41563583250E+03  0.42568331748E+03  0.00000000000E+00 0.  1.
         -4    1    1    2    0  502 -0.36689862616E+02  0.12592180296E+03 -0.12462655392E+03  0.18092601919E+03  0.00000000000E+00 0.  1.
<scales pt_clust_5="13000.00000" pt_clust_6="13000.00000" pt_clust_7="13000.00000" pt_clust_8="13000.00000" pt_clust_9="128.12039"></scales>
<clustering>
<clus scale="   91.626">  5  6 -1 -1</clus>
<clus scale="   92.555">  7  8 -1 -1</clus>
<clus scale="  119.418">  1  5  2 -1</clus>
<clus scale="  128.120">  2  9  1 -1</clus>
<clus scale="  128.120">  2  5  1 -1</clus>
</clustering>
</event>
<event>
 9    1  0.1610296E-005  0.9785917E+02  0.7546771E-02  0.1287262E+00
         21   -1    0    0  501  502  0.00000000000E+00  0.00000000000E+00  0.12513029970E+03  0.12513029970E+03  0.00000000000E+00 0.  1.
         -1   -1    0    0    0  501 -0.00000000000E+00 -0.00000000000E+00 -0.38069439165E+03  0.38069439165E+03  0.00000000000E+00 0.  1.
         23    2    1    2    0    0  0.11374004670E+02 -0.21207192696E+02 -0.19997088102E+03  0.22131256026E+03  0.91715773288E+02 0.  0.
         23    2    1    2    0    0 -0.19152382473E+02 -0.26785872094E+01 -0.15421286534E+03  0.18274342334E+03  0.96122642255E+02 0.  0.
        -11    1    3    3    0    0  0.42062059434E+02  0.15235817247E+02 -0.12193424566E+03  0.12988189725E+03  0.00000000000E+00 0.  1.
         11    1    3    3    0    0 -0.30688054764E+02 -0.36443009943E+02 -0.78036635360E+02  0.91430663003E+02  0.00000000000E+00 0. -1.
        -13    1    4    4    0    0 -0.55043281700E+02  0.41711407178E+01 -0.59181381202E+02  0.80929581465E+02  0.00000000000E+00 0. -1.
         13    1    4    4    0    0  0.35890899226E+02 -0.68497279272E+01 -0.95031484138E+02  0.10181384188E+03  0.00000000000E+00 0.  1.
         -1    1    1    2    0  502  0.77783778037E+01  0.23885779905E+02  0.98619654407E+02  0.10176870776E+03  0.00000000000E+00 0.  1.
<scales pt_clust_5="13000.00000" pt_clust_6="13000.00000" pt_clust_7="13000.00000" pt_clust_8="13000.00000" pt_clust_9="25.12038"></scales>
<clustering>
<clus scale="   25.120">  1  9  2 -1</clus>
<clus scale="   91.716">  5  6 -1 -1</clus>
<clus scale="   93.534">  2  5  1 -1</clus>
<clus scale="   96.123">  7  8 -1 -1</clus>
<clus scale="   25.120">  1  5  2 -1</clus>
</clustering>
</event>
<event>
 9    1  0.1610296E-005  0.9837865E+02  0.7546771E-02  0.1284896E+00
         -3   -1    0    0    0  501 -0.00000000000E+00  0.00000000000E+00  0.39792073981E+03  0.39792073981E+03  0.00000000000E+00 0.  1.
         21   -1    0    0  501  502  0.00000000000E+00 -0.00000000000E+00 -0.41381733297E+02  0.41381733297E+02  0.00000000000E+00 0. -1.
         23    2    1    2    0    0  0.12513236006E+02 -0.20954182008E+02  0.18015800079E+03  0.20362400499E+03  0.91706986317E+02 0.  0.
         23    2    1    2    0    0 -0.59540526522E+02  0.19166286873E+02  0.11893189141E+03  0.16141432228E+03  0.89428003392E+02 0.  0.
        -11    1    3    3    0    0  0.43941008483E+02  0.11185865568E+02  0.59102985923E+02  0.74492273157E+02  0.00000000000E+00 0.  1.
         11    1    3    3    0    0 -0.31427772477E+02 -0.32140047576E+02  0.12105501487E+03  0.12913173183E+03  0.00000000000E+00 0. -1.
        -11    1    4    4    0    0 -0.13055140014E+02  0.32257659923E+02  0.10578696177E+03  0.11136370408E+03  0.00000000000E+00 0.  1.
         11    1    4    4    0    0 -0.46485386508E+02 -0.13091373050E+02  0.13144929638E+02  0.50050618201E+02  0.00000000000E+00 0. -1.
         -3    1    1    2    0  502  0.47027290516E+02  0.17878951342E+01  0.57449114306E+02  0.74264145836E+02  0.00000000000E+00 0.  1.
<scales pt_clust_5="13000.00000" pt_clust_6="13000.00000" pt_clust_7="13000.00000" pt_clust_8="13000.00000" pt_clust_9="47.06126"></scales>
<clustering>
<clus scale="   47.061">  2  9  1 -1</clus>
<clus scale="   89.428">  7  8 -1 -1</clus>
<clus scale="   91.707">  5  6 -1 -1</clus>
<clus scale="   96.258">  2  7  1 -1</clus>
<clus scale="   47.061">  2  5  1 -1</clus>
</clustering>
</event>
<event>
 9    1  0.1610296E-005  0.1065483E+03  0.7546771E-02  0.1269510E+00
         -3   -1    0    0    0  501 -0.00000000000E+00  0.00000000000E+00  0.20374383779E+03  0.20374383779E+03  0.00000000000E+00 0.  1.
         21   -1    0    0  501  502  0.00000000000E+00 -0.00000000000E+00 -0.15709395075E+03  0.15709395075E+03  0.00000000000E+00 0.  1.
         23    2    1    2    0    0 -0.46627083619E+02  0.38103127702E+02  0.12342881581E+03  0.16759387699E+03  0.96057804282E+02 0.  0.
         23    2    1    2    0    0 -0.43499497974E+01 -0.29309958710E+02  0.61009166287E+01  0.95545157572E+02  0.90629245880E+02 0.  0.
        -13    1    3    3    0    0 -0.67240956984E+02  0.49299781922E+01  0.10407571269E+03  0.12400566501E+03  0.00000000000E+00 0.  1.
         13    1    3    3    0    0  0.20613873364E+02  0.33173149509E+02  0.19353103120E+02  0.43588211982E+02  0.00000000000E+00 0. -1.
        -13    1    4    4    0    0 -0.31060036303E+02 -0.44780416250E+02 -0.16892021822E+02  0.57055691529E+02  0.00000000000E+00 0.  1.
         13    1    4    4    0    0  0.26710086505E+02  0.15470457540E+02  0.22992938451E+02  0.38489466042E+02  0.00000000000E+00 0. -1.
         -3    1    1    2    0  502  0.50977033417E+02 -0.87931689915E+01 -0.82879845402E+02  0.97698753988E+02  0.00000000000E+00 0.  1.
<scales pt_clust_5="13000.00000" pt_clust_6="13000.00000" pt_clust_7="13000.00000" pt_clust_8="13000.00000" pt_clust_9="51.72985"></scales>
<clustering>
<clus scale="   51.730">  2  9  1 -1</clus>
<clus scale="   90.629">  7  8 -1 -1</clus>
<clus scale="   96.058">  5  6 -1 -1</clus>
<clus scale="  101.681">  2  7  1 -1</clus>
<clus scale="   51.730">  2  5  1 -1</clus>
</clustering>
</event>
<event>
 9    1  0.1610296E-005  0.1642322E+03  0.7546771E-02  0.1185776E+00
         21   -1    0    0  501  502  0.00000000000E+00  0.00000000000E+00  0.27344790148E+03  0.27344790148E+03  0.00000000000E+00 0. -1.
         -4   -1    0    0    0  501 -0.00000000000E+00 -0.00000000000E+00 -0.18605381379E+03  0.18605381379E+03  0.00000000000E+00 0.  1.
         23    2    1    2    0    0  0.70266554873E+02  0.99035881073E+02 -0.44067693378E+02  0.16487886265E+03  0.10245771457E+03 0.  0.
         23    2    1    2    0    0 -0.10035929124E+03 -0.97209279498E+02  0.78772190639E+01  0.16741415316E+03  0.91890242895E+02 0.  0.
        -13    1    3    3    0    0  0.70740046967E+01 -0.19369041143E+02  0.62455984531E+01  0.21545505269E+02  0.00000000000E+00 0. -1.
         13    1    3    3    0    0  0.63192550176E+02  0.11840492222E+03 -0.50313291831E+02  0.14333335738E+03  0.00000000000E+00 0.  1.
        -13    1    4    4    0    0 -0.26755420881E+02 -0.33806712999E+02 -0.40266421939E+02  0.58992636202E+02  0.00000000000E+00 0.  1.
         13    1    4    4    0    0 -0.73603870357E+02 -0.63402566499E+02  0.48143641003E+02  0.10842151696E+03  0.00000000000E+00 0. -1.
         -4    1    1    2    0  502  0.30092736364E+02 -0.18266015743E+01  0.12358456200E+03  0.12720869947E+03  0.00000000000E+00 0.  1.
<scales pt_clust_5="13000.00000" pt_clust_6="13000.00000" pt_clust_7="13000.00000" pt_clust_8="13000.00000" pt_clust_9="30.14812"></scales>
<clustering>
<clus scale="   30.148">  1  9  2 -1</clus>
<clus scale="   91.890">  7  8 -1 -1</clus>
<clus scale="  102.458">  5  6 -1 -1</clus>
<clus scale="  157.856">  1  7  2 -1</clus>
<clus scale="   30.148">  1  5  2 -1</clus>
</clustering>
</event>
<event>
 9    1  0.1610296E-005  0.9132930E+02  0.7546771E-02  0.1300874E+00
         21   -1    0    0  501  502  0.00000000000E+00  0.00000000000E+00  0.26099045371E+03  0.26099045371E+03  0.00000000000E+00 0.  1.
         -3   -1    0    0    0  501 -0.00000000000E+00 -0.00000000000E+00 -0.58750719773E+02  0.58750719773E+02  0.00000000000E+00 0.  1.
         23    2    1    2    0    0  0.35400639414E+02  0.24494852435E+02  0.16033809287E+02  0.96506997504E+02  0.84872342139E+02 0.  0.
         23    2    1    2    0    0 -0.19152526440E+02  0.44506492435E+01  0.10235128607E+03  0.13304856929E+03  0.82701320920E+02 0.  0.
        -11    1    3    3    0    0  0.24842601701E+01 -0.21893069127E+02  0.30679488197E+02  0.37771801922E+02  0.00000000000E+00 0. -1.
         11    1    3    3    0    0  0.32916379244E+02  0.46387921562E+02 -0.14645678910E+02  0.58735195582E+02  0.00000000000E+00 0.  1.
        -13    1    4    4    0    0 -0.33941649878E+02 -0.17132276014E+02  0.13373549830E+02  0.40303874664E+02  0.00000000000E+00 0.  1.
         13    1    4    4    0    0  0.14789123438E+02  0.21582925257E+02  0.88977736238E+02  0.92744694623E+02  0.00000000000E+00 0. -1.
         -3    1    1    2    0  502 -0.16248112974E+02 -0.28945501679E+02  0.83854638585E+02  0.90185606694E+02  0.00000000000E+00 0.  1.
<scales pt_clust_5="13000.00000" pt_clust_6="13000.00000" pt_clust_7="13000.00000" pt_clust_8="13000.00000" pt_clust_9="33.19402"></scales>
<clustering>
<clus scale="   33.194">  1  9  2 -1</clus>
<clus scale="   82.701">  7  8 -1 -1</clus>
<clus scale="   84.872">  5  6 -1 -1</clus>
<clus scale="   89.315">  1  7  2 -1</clus>
<clus scale="   33.194">  1  5  2 -1</clus>
</clustering>
</event>
<event>
 9    1  0.1610296E-005  0.9805963E+02  0.7546771E-02  0.1286728E+00
         -1   -1    0    0    0  501 -0.00000000000E+00  0.00000000000E+00  0.39111267880E+02  0.39111267880E+02  0.00000000000E+00 0.  1.
         21   -1    0    0  501  502  0.00000000000E+00 -0.00000000000E+00 -0.37508145736E+03  0.37508145736E+03  0.00000000000E+00 0. -1.
         23    2    1    2    0    0  0.57923053138E+01 -0.37082585116E+02 -0.87331719831E+02  0.13126788723E+03  0.90530436921E+02 0.  0.
         23    2    1    2    0    0 -0.89104993181E+01  0.54986677068E+01 -0.13763266380E+03  0.16747114208E+03  0.94837761148E+02 0.  0.
        -13    1    4    4    0    0 -0.62158367684E+01 -0.42933688574E+02 -0.42736925062E+02  0.60896494193E+02  0.00000000000E+00 0. -1.
         13    1    4    4    0    0 -0.26946625497E+01  0.48432356281E+02 -0.94895738739E+02  0.10657464789E+03  0.00000000000E+00 0.  1.
        -13    1    3    3    0    0  0.33441692216E+02 -0.43560499150E+02 -0.86982107018E+02  0.10286763731E+03  0.00000000000E+00 0. -1.
         13    1    3    3    0    0 -0.27649386902E+02  0.64779140340E+01 -0.34961281278E+00  0.28400249918E+02  0.00000000000E+00 0.  1.
         -1    1    1    2    0  502  0.31181940043E+01  0.31583917409E+02 -0.11100580585E+03  0.11545369593E+03  0.00000000000E+00 0.  1.
<scales pt_clust_5="13000.00000" pt_clust_6="13000.00000" pt_clust_7="13000.00000" pt_clust_8="13000.00000" pt_clust_9="31.73747"></scales>
<clustering>
<clus scale="   31.737">  2  9  1 -1</clus>
<clus scale="   90.530">  7  8 -1 -1</clus>
<clus scale="   93.900">  1  7  2 -1</clus>
<clus scale="   94.838">  5  6 -1 -1</clus>
<clus scale="   31.737">  2  5  1 -1</clus>
</clustering>
</event>
<event>
 9    1  0.1610296E-005  0.1129338E+03  0.7546771E-02  0.1256164E+00
         -1   -1    0    0    0  501 -0.00000000000E+00  0.00000000000E+00  0.85299044322E+02  0.85299044322E+02  0.00000000000E+00 0.  1.
         21   -1    0    0  501  502  0.00000000000E+00 -0.00000000000E+00 -0.27956576499E+03  0.27956576499E+03  0.00000000000E+00 0. -1.
         23    2    1    2    0    0  0.65960009637E+02  0.15877345372E+02 -0.11360274169E+01  0.11290211312E+03  0.90237373747E+02 0.  0.
         23    2    1    2    0    0 -0.39364710116E+02 -0.54683160574E+02 -0.13239043596E+03  0.17513444550E+03  0.92763236316E+02 0.  0.
        -11    1    3    3    0    0  0.37742480853E+02  0.53739513489E+02 -0.48123930418E-01  0.65669113645E+02  0.00000000000E+00 0. -1.
         11    1    3    3    0    0  0.28217528784E+02 -0.37862168117E+02 -0.10879034865E+01  0.47232999473E+02  0.00000000000E+00 0.  1.
        -13    1    4    4    0    0 -0.10667458371E+02 -0.67584694583E+02 -0.44092311375E+02  0.81397896363E+02  0.00000000000E+00 0.  1.
         13    1    4    4    0    0 -0.28697251744E+02  0.12901534009E+02 -0.88298124589E+02  0.93736549133E+02  0.00000000000E+00 0. -1.
         -1    1    1    2    0  502 -0.26595299521E+02  0.38805815202E+02 -0.60740257289E+02  0.76828250701E+02  0.00000000000E+00 0.  1.
<scales pt_clust_5="13000.00000" pt_clust_6="13000.00000" pt_clust_7="13000.00000" pt_clust_8="13000.00000" pt_clust_9="47.04467"></scales>
<clustering>
<clus scale="   47.045">  2  9  1 -1</clus>
<clus scale="   90.237">  5  6 -1 -1</clus>
<clus scale="   92.763">  7  8 -1 -1</clus>
<clus scale="  110.868">  1  5  2 -1</clus>
<clus scale="   47.045">  2  5  1 -1</clus>
</clustering>
</event>
<event>
 9    1  0.1610296E-005  0.1049683E+03  0.7546771E-02  0.1270772E+00
         21   -1    0    0  501  502  0.00000000000E+00  0.00000000000E+00  0.44982824127E+02  0.44982824127E+02  0.00000000000E+00 0. -1.
         -3   -1    0    0    0  501 -0.00000000000E+00 -0.00000000000E+00 -0.37312673939E+03  0.37312673939E+03  0.00000000000E+00 0.  1.
         23    2    1    2    0    0  0.33177047954E+02  0.49872688308E+02 -0.23123733364E+03  0.25579511211E+03  0.91501001954E+02 0.  0.
         23    2    1    2    0    0 -0.43250960307E+01 -0.36149381148E+02 -0.63626008523E+02  0.11618029015E+03  0.90133826315E+02 0.  0.
        -11    1    3    3    0    0  0.48089500847E+02  0.73100179594E+01 -0.52987975342E+02  0.71928867537E+02  0.00000000000E+00 0. -1.
         11    1    3    3    0    0 -0.14912452893E+02  0.42562670348E+02 -0.17824935830E+03  0.18386624457E+03  0.00000000000E+00 0.  1.
        -11    1    4    4    0    0 -0.20838137282E+02  0.14108654275E+02 -0.57698901616E+02  0.62947957381E+02  0.00000000000E+00 0.  1.
         11    1    4    4    0    0  0.16513041251E+02 -0.50258035423E+02 -0.59271069075E+01  0.53232332771E+02  0.00000000000E+00 0. -1.
         -3    1    1    2    0  502 -0.28851951923E+02 -0.13723307160E+02 -0.33280573098E+02  0.46134161257E+02  0.00000000000E+00 0.  1.
<scales pt_clust_5="13000.00000" pt_clust_6="13000.00000" pt_clust_7="13000.00000" pt_clust_8="13000.00000" pt_clust_9="31.94940"></scales>
<clustering>
<clus scale="   31.949">  1  9  2 -1</clus>
<clus scale="   90.134">  7  8 -1 -1</clus>
<clus scale="   91.501">  5  6 -1 -1</clus>
<clus scale="  103.779">  1  7  2 -1</clus>
<clus scale="   31.949">  1  5  2 -1</clus>
</clustering>
</event>
<event>
 9    1  0.1610296E-005  0.9207208E+02  0.7546771E-02  0.1299271E+00
         21   -1    0    0  501  502  0.00000000000E+00  0.00000000000E+00  0.87052336789E+02  0.87052336789E+02  0.00000000000E+00 0. -1.
         -3   -1    0    0    0  501 -0.00000000000E+00 -0.00000000000E+00 -0.18304443386E+03  0.18304443386E+03  0.00000000000E+00 0.  1.
         23    2    1    2    0    0 -0.71475304978E+00 -0.68800617893E+01 -0.95399025545E+02  0.13252553257E+03  0.91728929922E+02 0.  0.
         23    2    1    2    0    0 -0.28856422325E+02 -0.11094884404E+01  0.25450279480E+02  0.97364976663E+02  0.89433203459E+02 0.  0.
        -11    1    3    3    0    0 -0.61660553729E+01 -0.27664409650E+02  0.59184705060E+01  0.28954586740E+02  0.00000000000E+00 0. -1.
         11    1    3    3    0    0  0.54513023231E+01  0.20784347861E+02 -0.10131749605E+03  0.10357094583E+03  0.00000000000E+00 0.  1.
        -11    1    4    4    0    0  0.23298331874E+02  0.11937795690E+02 -0.14921228971E+02  0.30132479288E+02  0.00000000000E+00 0.  1.
         11    1    4    4    0    0 -0.52154754199E+02 -0.13047284130E+02  0.40371508451E+02  0.67232497375E+02  0.00000000000E+00 0. -1.
         -3    1    1    2    0  502  0.29571175375E+02  0.79895502296E+01 -0.26043351009E+02  0.40206261424E+02  0.00000000000E+00 0.  1.
<scales pt_clust_5="13000.00000" pt_clust_6="13000.00000" pt_clust_7="13000.00000" pt_clust_8="13000.00000" pt_clust_9="30.63149"></scales>
<clustering>
<clus scale="   30.631">  1  9  2 -1</clus>
<clus scale="   89.433">  7  8 -1 -1</clus>
<clus scale="   89.785">  1  7  2 -1</clus>
<clus scale="   91.729">  5  6 -1 -1</clus>
<clus scale="   30.631">  1  5  2 -1</clus>
</clustering>
</event>
<event>
 9    1  0.1610296E-005  0.1048368E+03  0.7546771E-02  0.1270847E+00
         -3   -1    0    0    0  501 -0.00000000000E+00  0.00000000000E+00  0.51812310325E+03  0.51812310325E+03  0.00000000000E+00 0.  1.
         21   -1    0    0  501  502  0.00000000000E+00 -0.00000000000E+00 -0.10424050612E+03  0.10424050612E+03  0.00000000000E+00 0.  1.
         23    2    1    2    0    0  0.52765408104E+02  0.14275343379E+02  0.29649484760E+03  0.31468693509E+03  0.90170387276E+02 0.  0.
         23    2    1    2    0    0 -0.31614330548E+02 -0.45958120488E+02  0.19436457349E+03  0.22178955143E+03  0.91112035210E+02 0.  0.
        -11    1    4    4    0    0  0.32338277033E+02 -0.17653032171E+02  0.63790430381E+02  0.73665546319E+02  0.00000000000E+00 0.  1.
         11    1    4    4    0    0 -0.63952607581E+02 -0.28305088318E+02  0.13057414311E+03  0.14812400511E+03  0.00000000000E+00 0. -1.
        -13    1    3    3    0    0  0.51543505195E+02  0.45118151104E+02  0.24728553602E+03  0.25659796728E+03  0.00000000000E+00 0.  1.
         13    1    3    3    0    0  0.12219029092E+01 -0.30842807725E+02  0.49209311579E+02  0.58088967810E+02  0.00000000000E+00 0. -1.
         -3    1    1    2    0  502 -0.21151077556E+02  0.31682777109E+02 -0.76976823952E+02  0.85887122859E+02  0.00000000000E+00 0.  1.
<scales pt_clust_5="13000.00000" pt_clust_6="13000.00000" pt_clust_7="13000.00000" pt_clust_8="13000.00000" pt_clust_9="38.09418"></scales>
<clustering>
<clus scale="   38.094">  2  9  1 -1</clus>
<clus scale="   90.170">  7  8 -1 -1</clus>
<clus scale="   91.112">  5  6 -1 -1</clus>
<clus scale="  104.019">  1  7  2 -1</clus>
<clus scale="   38.094">  2  5  1 -1</clus>
</clustering>
</event>
<event>
 9    1  0.1610296E-005  0.3938863E+03  0.7546771E-02  0.1046027E+00
         -1   -1    0    0    0  501 -0.00000000000E+00  0.00000000000E+00  0.26960361938E+04  0.26960361938E+04  0.00000000000E+00 0.  1.
         21   -1    0    0  501  502  0.00000000000E+00 -0.00000000000E+00 -0.65932166076E+02  0.65932166076E+02  0.00000000000E+00 0.  1.
         23    2    1    2    0    0  0.34924967161E+03  0.13250474339E+03  0.12514824791E+04  0.13093141119E+04  0.92532198539E+02 0.  0.
         23    2    1    2    0    0 -0.35299826901E+03 -0.16668014316E+03  0.13474298348E+04  0.14062329928E+04  0.97642317028E+02 0.  0.
        -11    1    3    3    0    0  0.40288421095E+02 -0.13474721492E+02  0.11631552814E+03  0.12383063870E+03  0.00000000000E+00 0. -1.
         11    1    3    3    0    0  0.30896125051E+03  0.14597946488E+03  0.11351669510E+04  0.11854834732E+04  0.00000000000E+00 0.  1.
        -13    1    4    4    0    0 -0.32463244261E+03 -0.15085273151E+03  0.13024692910E+04  0.13507660876E+04  0.00000000000E+00 0.  1.
         13    1    4    4    0    0 -0.28365826405E+02 -0.15827411651E+02  0.44960543862E+02  0.55466905192E+02  0.00000000000E+00 0. -1.
         -1    1    1    2    0  502  0.37485974005E+01  0.34175399770E+02  0.31191713695E+02  0.46421255209E+02  0.00000000000E+00 0.  1.
<scales pt_clust_5="13000.00000" pt_clust_6="13000.00000" pt_clust_7="13000.00000" pt_clust_8="13000.00000" pt_clust_9="34.38037"></scales>
<clustering>
<clus scale="   34.380">  2  9  1 -1</clus>
<clus scale="   92.532">  5  6 -1 -1</clus>
<clus scale="   97.642">  7  8 -1 -1</clus>
<clus scale="  392.651">  1  5  2 -1</clus>
<clus scale="   34.380">  2  5  1 -1</clus>
</clustering>
</event>
<event>
 9    1  0.1610296E-005  0.1396668E+03  0.7546771E-02  0.1239013E+00
         -2   -1    0    0    0  501 -0.00000000000E+00  0.00000000000E+00  0.41400204501E+03  0.41400204501E+03  0.00000000000E+00 0.  1.
         21   -1    0    0  501  502  0.00000000000E+00 -0.00000000000E+00 -0.95008012954E+02  0.95008012954E+02  0.00000000000E+00 0. -1.
         23    2    1    2    0    0  0.97028464774E+01  0.23295548934E+02  0.14943031601E+03  0.17077966051E+03  0.78736556123E+02 0.  0.
         23    2    1    2    0    0 -0.95606510798E+02 -0.81672052163E+02  0.17650052071E+03  0.23413729042E+03  0.88639200937E+02 0.  0.
        -11    1    3    3    0    0 -0.27922140906E+02  0.26268573652E+02  0.10864629269E+03  0.11521154816E+03  0.00000000000E+00 0. -1.
         11    1    3    3    0    0  0.37624987383E+02 -0.29730247183E+01  0.40784023324E+02  0.55568112349E+02  0.00000000000E+00 0.  1.
        -13    1    4    4    0    0 -0.30946974462E+02 -0.54358149120E+01  0.10919683950E+03  0.11362751897E+03  0.00000000000E+00 0.  1.
         13    1    4    4    0    0 -0.64659536335E+02 -0.76236237251E+02  0.67303681219E+02  0.12050977145E+03  0.00000000000E+00 0. -1.
         -2    1    1    2    0  502  0.85903664320E+02  0.58376503229E+02 -0.69368046684E+01  0.10409310703E+03  0.00000000000E+00 0.  1.
<scales pt_clust_5="13000.00000" pt_clust_6="13000.00000" pt_clust_7="13000.00000" pt_clust_8="13000.00000" pt_clust_9="107.93472"></scales>
<clustering>
<clus scale="   78.737">  5  6 -1 -1</clus>
<clus scale="   82.682">  1  5  2 -1</clus>
<clus scale="   88.639">  7  8 -1 -1</clus>
<clus scale="  107.935">  2  9  1 -1</clus>
<clus scale="  107.935">  2  5  1 -1</clus>
</clustering>
</event>
<event>
 9    1  0.1610296E-005  0.1104515E+03  0.7546771E-02  0.1260395E+00
         21   -1    0    0  501  502  0.00000000000E+00  0.00000000000E+00  0.19039092387E+03  0.19039092387E+03  0.00000000000E+00 0.  1.
          2   -1    0    0  502    0 -0.00000000000E+00 -0.00000000000E+00 -0.16142119567E+03  0.16142119567E+03  0.00000000000E+00 0. -1.
         23    2    1    2    0    0 -0.60629462358E+02  0.19110765730E+02 -0.11314042861E+03  0.15967985010E+03  0.93036255671E+02 0.  0.
         23    2    1    2    0    0  0.34643498331E+02 -0.21299181680E+02  0.93123139450E+02  0.13663643752E+03  0.91344238135E+02 0.  0.
        -11    1    4    4    0    0  0.43779429023E+02 -0.51885078849E+02  0.67096714327E+02  0.95449823919E+02  0.00000000000E+00 0.  1.
         11    1    4    4    0    0 -0.91359306927E+01  0.30585897169E+02  0.26026425123E+02  0.41186613601E+02  0.00000000000E+00 0. -1.
        -11    1    3    3    0    0  0.24665498153E+02  0.84423544481E+01 -0.33934291547E+02  0.42792479369E+02  0.00000000000E+00 0.  1.
         11    1    3    3    0    0 -0.85294960511E+02  0.10668411282E+02 -0.79206137059E+02  0.11688737073E+03  0.00000000000E+00 0. -1.
          2    1    1    2  501    0  0.25985964027E+02  0.21884159502E+01  0.48987017361E+02  0.55495831922E+02  0.00000000000E+00 0. -1.
<scales pt_clust_5="13000.00000" pt_clust_6="13000.00000" pt_clust_7="13000.00000" pt_clust_8="13000.00000" pt_clust_9="26.07795"></scales>
<clustering>
<clus scale="   26.078">  1  9  2 -1</clus>
<clus scale="   91.344">  5  6 -1 -1</clus>
<clus scale="   93.036">  7  8 -1 -1</clus>
<clus scale="  109.030">  1  5  2 -1</clus>
<clus scale="   26.078">  1  5  2 -1</clus>
</clustering>
</event>
<event>
 9    1  0.1610296E-005  0.1185189E+03  0.7546771E-02  0.1252480E+00
          1   -1    0    0  502    0 -0.00000000000E+00  0.00000000000E+00  0.65521993717E+02  0.65521993717E+02  0.00000000000E+00 0. -1.
         21   -1    0    0  501  502  0.00000000000E+00 -0.00000000000E+00 -0.31262914673E+03  0.31262914673E+03  0.00000000000E+00 0.  1.
         23    2    1    2    0    0 -0.13924430000E+02 -0.32548313231E+02 -0.27223230019E+02  0.11975792685E+03  0.11111963978E+03 0.  0.
         23    2    1    2    0    0  0.22381460664E+02  0.53529787267E+02 -0.19764102512E+03  0.22666798505E+03  0.94604612626E+02 0.  0.
        -13    1    3    3    0    0 -0.54849393795E+02 -0.47951019974E+02 -0.18544301704E+02  0.75177439713E+02  0.00000000000E+00 0. -1.
         13    1    3    3    0    0  0.40924963795E+02  0.15402706743E+02 -0.86789283147E+01  0.44580487136E+02  0.00000000000E+00 0.  1.
        -13    1    4    4    0    0 -0.28929788067E+02  0.44809094795E+02 -0.64379881358E+02  0.83603568929E+02  0.00000000000E+00 0. -1.
         13    1    4    4    0    0  0.51311248731E+02  0.87206924716E+01 -0.13326114376E+03  0.14306441612E+03  0.00000000000E+00 0.  1.
          1    1    1    2  501    0 -0.84570306639E+01 -0.20981474036E+02 -0.22242897871E+02  0.31725228543E+02  0.00000000000E+00 0. -1.
<scales pt_clust_5="13000.00000" pt_clust_6="13000.00000" pt_clust_7="13000.00000" pt_clust_8="13000.00000" pt_clust_9="22.62175"></scales>
<clustering>
<clus scale="   22.622">  2  9  1 -1</clus>
<clus scale="   94.605">  7  8 -1 -1</clus>
<clus scale="  103.195">  2  7  1 -1</clus>
<clus scale="  111.120">  5  6 -1 -1</clus>
<clus scale="   22.622">  2  5  1 -1</clus>
</clustering>
</event>
<event>
 9    1  0.1610296E-005  0.9986689E+02  0.7546771E-02  0.1283493E+00
         21   -1    0    0  501  502  0.00000000000E+00  0.00000000000E+00  0.15580108597E+03  0.15580108597E+03  0.00000000000E+00 0. -1.
          1   -1    0    0  502    0 -0.00000000000E+00 -0.00000000000E+00 -0.50046628881E+03  0.50046628881E+03  0.00000000000E+00 0. -1.
         23    2    1    2    0    0  0.48996901356E+02  0.10823619367E+02 -0.29430698961E+03  0.31114098785E+03  0.87602871551E+02 0.  0.
         23    2    1    2    0    0 -0.93777035391E+01 -0.18779355495E+02 -0.18297277377E+03  0.20649162852E+03  0.93376395264E+02 0.  0.
        -11    1    3    3    0    0  0.20634874733E+02  0.45930035539E+02 -0.20480519142E+03  0.21090408401E+03  0.00000000000E+00 0. -1.
         11    1    3    3    0    0  0.28362026623E+02 -0.35106416172E+02 -0.89501798190E+02  0.10023690383E+03  0.00000000000E+00 0.  1.
        -13    1    4    4    0    0  0.62215256142E+01 -0.47838636474E+02 -0.15777702461E+03  0.16498736926E+03  0.00000000000E+00 0. -1.
         13    1    4    4    0    0 -0.15599229153E+02  0.29059280979E+02 -0.25195749159E+02  0.41504259262E+02  0.00000000000E+00 0.  1.
          1    1    1    2  501    0 -0.39619197817E+02  0.79557361280E+01  0.13261456054E+03  0.13863475841E+03  0.00000000000E+00 0. -1.
<scales pt_clust_5="13000.00000" pt_clust_6="13000.00000" pt_clust_7="13000.00000" pt_clust_8="13000.00000" pt_clust_9="40.41008"></scales>
<clustering>
<clus scale="   40.410">  1  9  2 -1</clus>
<clus scale="   87.603">  5  6 -1 -1</clus>
<clus scale="   93.376">  7  8 -1 -1</clus>
<clus scale="   94.491">  2  5  1 -1</clus>
<clus scale="   40.410">  1  5  2 -1</clus>
</clustering>
</event>
<event>
 9    1  0.1610296E-005  0.9939309E+02  0.7546771E-02  0.1283585E+00
          1   -1    0    0  502    0 -0.00000000000E+00  0.00000000000E+00  0.45106247219E+03  0.45106247219E+03  0.00000000000E+00 0. -1.
         21   -1    0    0  501  502  0.00000000000E+00 -0.00000000000E+00 -0.32202060403E+02  0.32202060403E+02  0.00000000000E+00 0.  1.
         23    2    1    2    0    0  0.32502829457E+02  0.16367992777E+02  0.28614041331E+03  0.30330957465E+03  0.93787082449E+02 0.  0.
         23    2    1    2    0    0 -0.13358390587E+02 -0.24680109659E+02  0.80991778578E+02  0.12417494754E+03  0.89845394915E+02 0.  0.
        -13    1    3    3    0    0 -0.26422415680E+02 -0.16306187011E+02  0.12175614068E+03  0.12565267040E+03  0.00000000000E+00 0.  1.
         13    1    3    3    0    0  0.58925245138E+02  0.32674179788E+02  0.16438427263E+03  0.17765690425E+03  0.00000000000E+00 0. -1.
        -13    1    4    4    0    0  0.22431666017E+02 -0.38860710707E+02  0.14165413308E+02  0.47053091409E+02  0.00000000000E+00 0.  1.
         13    1    4    4    0    0 -0.35790056605E+02  0.14180601048E+02  0.66826365270E+02  0.77121856131E+02  0.00000000000E+00 0. -1.
          1    1    1    2  501    0 -0.19144438870E+02  0.83121168827E+01  0.51728219897E+02  0.55780010402E+02  0.00000000000E+00 0. -1.
<scales pt_clust_5="13000.00000" pt_clust_6="13000.00000" pt_clust_7="13000.00000" pt_clust_8="13000.00000" pt_clust_9="20.87106"></scales>
<clustering>
<clus scale="   20.871">  2  9  1 -1</clus>
<clus scale="   89.845">  7  8 -1 -1</clus>
<clus scale="   93.787">  5  6 -1 -1</clus>
<clus scale="   95.683">  2  7  1 -1</clus>
<clus scale="   20.871">  2  5  1 -1</clus>
</clustering>
</event>
<event>
 9    1  0.1691452E-005  0.1017790E+03  0.7546771E-02  0.1276926E+00
         21   -1    0    0  501  502  0.00000000000E+00  0.00000000000E+00  0.12165199241E+03  0.12165199241E+03  0.00000000000E+00 0. -1.
         -1   -1    0    0    0  501 -0.00000000000E+00 -0.00000000000E+00 -0.34398423467E+03  0.34398423467E+03  0.00000000000E+00 0.  1.
         23    2    1    2    0    0  0.34227838913E+02  0.76153540281E+01 -0.21420364459E+03  0.23633623013E+03  0.93499057461E+02 0.  0.
         23    2    1    2    0    0 -0.68684963105E+02 -0.65387813139E+02  0.48595448862E+02  0.14130813429E+03  0.92807763155E+02 0.  0.
        -11    1    3    3    0    0  0.66439911789E+02  0.52083163737E+01 -0.12863344495E+03  0.14487219056E+03  0.00000000000E+00 0.  1.
         11    1    3    3    0    0 -0.32212072877E+02  0.24070376544E+01 -0.85570199635E+02  0.91464039572E+02  0.00000000000E+00 0. -1.
        -13    1    4    4    0    0 -0.13313577370E+02 -0.55963709580E+02 -0.11915641976E+02  0.58746665063E+02  0.00000000000E+00 0.  1.
         13    1    4    4    0    0 -0.55371385736E+02 -0.94241035588E+01  0.60511090837E+02  0.82561469224E+02  0.00000000000E+00 0. -1.
         -1    1    1    2    0  502  0.34457124193E+02  0.57772459111E+02 -0.56724046533E+02  0.87991862660E+02  0.00000000000E+00 0.  1.
<scales pt_clust_5="13000.00000" pt_clust_6="13000.00000" pt_clust_7="13000.00000" pt_clust_8="13000.00000" pt_clust_9="67.26779"></scales>
<clustering>
<clus scale="   67.268">  1  9  2 -1</clus>
<clus scale="   92.808">  7  8 -1 -1</clus>
<clus scale="   93.499">  5  6 -1 -1</clus>
<clus scale="  101.144">  1  7  2 -1</clus>
<clus scale="   67.268">  1  5  2 -1</clus>
</clustering>
</event>
<event>
 9    1  0.1610296E-005  0.3639663E+03  0.7546771E-02  0.1057030E+00
          2   -1    0    0  502    0 -0.00000000000E+00  0.00000000000E+00  0.77536915123E+03  0.77536915123E+03  0.00000000000E+00 0. -1.
         21   -1    0    0  501  502  0.00000000000E+00 -0.00000000000E+00 -0.44897598691E+03  0.44897598691E+03  0.00000000000E+00 0. -1.
         23    2    1    2    0    0  0.29910199707E+03 -0.17192973349E+03  0.44342502055E+03  0.56927444602E+03  0.91792200808E+02 0.  0.
         23    2    1    2    0    0 -0.30508346073E+03  0.20621744093E+03  0.13340960697E+03  0.40222221719E+03  0.91558930820E+02 0.  0.
        -11    1    3    3    0    0  0.29844420864E+02  0.10036917229E+02  0.48554421774E+02  0.57870208553E+02  0.00000000000E+00 0.  1.
         11    1    3    3    0    0  0.26925757621E+03 -0.18196665072E+03  0.39487059878E+03  0.51140423747E+03  0.00000000000E+00 0. -1.
        -11    1    4    4    0    0 -0.10280282130E+03  0.29030078928E+02  0.63888584738E+02  0.12447054596E+03  0.00000000000E+00 0. -1.
         11    1    4    4    0    0 -0.20228063943E+03  0.17718736200E+03  0.69521022228E+02  0.27775167123E+03  0.00000000000E+00 0.  1.
          2    1    1    2  501    0  0.59814636565E+01 -0.34287707443E+02 -0.25044146319E+03  0.25284847493E+03  0.00000000000E+00 0. -1.
<scales pt_clust_5="13000.00000" pt_clust_6="13000.00000" pt_clust_7="13000.00000" pt_clust_8="13000.00000" pt_clust_9="34.80553"></scales>
<clustering>
<clus scale="   34.806">  2  9  1 -1</clus>
<clus scale="   91.559">  7  8 -1 -1</clus>
<clus scale="   91.792">  5  6 -1 -1</clus>
<clus scale="  363.908">  2  7  1 -1</clus>
<clus scale="   34.806">  2  5  1 -1</clus>
</clustering>
</event>
<event>
 9    1  0.1610296E-005  0.9098375E+02  0.7546771E-02  0.1301645E+00
         21   -1    0    0  501  502  0.00000000000E+00  0.00000000000E+00  0.46071867768E+02  0.46071867768E+02  0.00000000000E+00 0. -1.
          1   -1    0    0  502    0 -0.00000000000E+00 -0.00000000000E+00 -0.47586178734E+03  0.47586178734E+03  0.00000000000E+00 0. -1.
         23    2    1    2    0    0  0.54211329813E+00  0.13387752408E+02 -0.30430929311E+03  0.31735798014E+03  0.89064111118E+02 0.  0.
         23    2    1    2    0    0  0.33524393452E+01  0.42790766353E+02 -0.10289743312E+03  0.14390282987E+03  0.90982713563E+02 0.  0.
        -11    1    3    3    0    0  0.33006137675E+02  0.32097929865E+02 -0.22474383599E+03  0.22941114629E+03  0.00000000000E+00 0. -1.
         11    1    3    3    0    0 -0.32464024377E+02 -0.18710177457E+02 -0.79565457113E+02  0.87946833853E+02  0.00000000000E+00 0.  1.
        -13    1    4    4    0    0  0.22840321956E+02 -0.22739530036E+02 -0.32506071658E+02  0.45775661961E+02  0.00000000000E+00 0.  1.
         13    1    4    4    0    0 -0.19487882611E+02  0.65530296388E+02 -0.70391361463E+02  0.98127167910E+02  0.00000000000E+00 0. -1.
          1    1    1    2  501    0 -0.38945526434E+01 -0.56178518761E+02 -0.22583193350E+02  0.60672845098E+02  0.00000000000E+00 0. -1.
<scales pt_clust_5="13000.00000" pt_clust_6="13000.00000" pt_clust_7="13000.00000" pt_clust_8="13000.00000" pt_clust_9="56.31335"></scales>
<clustering>
<clus scale="   56.313">  1  9  2 -1</clus>
<clus scale="   89.064">  5  6 -1 -1</clus>
<clus scale="   89.065">  2  5  1 -1</clus>
<clus scale="   90.983">  7  8 -1 -1</clus>
<clus scale="   56.313">  1  5  2 -1</clus>
</clustering>
</event>
<event>
 9    1  0.1610296E-005  0.9342498E+02  0.7546771E-02  0.1295497E+00
         -4   -1    0    0    0  501 -0.00000000000E+00  0.00000000000E+00  0.74673532500E+02  0.74673532500E+02  0.00000000000E+00 0.  1.
         21   -1    0    0  501  502  0.00000000000E+00 -0.00000000000E+00 -0.21958489078E+03  0.21958489078E+03  0.00000000000E+00 0.  1.
         23    2    1    2    0    0 -0.21186366643E+02  0.25045791784E+02  0.12078461240E+01  0.96656871886E+02  0.90911705369E+02 0.  0.
         23    2    1    2    0    0 -0.49101343232E+01  0.73788586721E+01 -0.11248092923E+03  0.14408595669E+03  0.89611642661E+02 0.  0.
        -11    1    4    4    0    0 -0.23904333992E+02 -0.23850181723E+02 -0.99021521133E+01  0.35189500825E+02  0.00000000000E+00 0. -1.
         11    1    4    4    0    0  0.18994199669E+02  0.31229040395E+02 -0.10257877712E+03  0.10889645587E+03  0.00000000000E+00 0.  1.
        -13    1    3    3    0    0  0.28744116903E+02  0.23979605623E+02  0.21017166643E+02  0.42929791941E+02  0.00000000000E+00 0. -1.
         13    1    3    3    0    0 -0.49930483546E+02  0.10661861607E+01 -0.19809320519E+02  0.53727079946E+02  0.00000000000E+00 0.  1.
         -4    1    1    2    0  502  0.26096500966E+02 -0.32424650456E+02 -0.33638275171E+02  0.53515594702E+02  0.00000000000E+00 0.  1.
<scales pt_clust_5="13000.00000" pt_clust_6="13000.00000" pt_clust_7="13000.00000" pt_clust_8="13000.00000" pt_clust_9="41.62193"></scales>
<clustering>
<clus scale="   41.622">  2  9  1 -1</clus>
<clus scale="   89.612">  5  6 -1 -1</clus>
<clus scale="   90.912">  7  8 -1 -1</clus>
<clus scale="   92.160">  2  5  1 -1</clus>
<clus scale="   41.622">  2  5  1 -1</clus>
</clustering>
</event>
<event>
 9    1  0.1610296E-005  0.1395228E+03  0.7546771E-02  0.1231046E+00
          1   -1    0    0  502    0 -0.00000000000E+00  0.00000000000E+00  0.20759469354E+03  0.20759469354E+03  0.00000000000E+00 0. -1.
         21   -1    0    0  501  502  0.00000000000E+00 -0.00000000000E+00 -0.20217094861E+03  0.20217094861E+03  0.00000000000E+00 0. -1.
         23    2    1    2    0    0  0.31794609685E+02 -0.10012425680E+02 -0.29871944600E+02  0.10210120216E+03  0.91766968645E+02 0.  0.
         23    2    1    2    0    0  0.69239667927E+02 -0.23344524170E+02  0.12122361778E+03  0.17090106694E+03  0.95775313880E+02 0.  0.
        -11    1    4    4    0    0  0.76471875136E+02 -0.49674366099E+02  0.10528158924E+03  0.13928281791E+03  0.00000000000E+00 0.  1.
         11    1    4    4    0    0 -0.72322072091E+01  0.26329841929E+02  0.15942028548E+02  0.31618249024E+02  0.00000000000E+00 0. -1.
        -11    1    3    3    0    0 -0.29428436204E+02 -0.92464784458E+01  0.55841206407E+01  0.31348247549E+02  0.00000000000E+00 0.  1.
         11    1    3    3    0    0  0.61223045889E+02 -0.76594723381E+00 -0.35456065241E+02  0.70752954606E+02  0.00000000000E+00 0. -1.
          1    1    1    2  501    0 -0.10103427761E+03  0.33356949850E+02 -0.85927928247E+02  0.13676337305E+03  0.00000000000E+00 0. -1.
<scales pt_clust_5="13000.00000" pt_clust_6="13000.00000" pt_clust_7="13000.00000" pt_clust_8="13000.00000" pt_clust_9="101.45793"></scales>
<clustering>
<clus scale="   91.767">  7  8 -1 -1</clus>
<clus scale="   95.775">  5  6 -1 -1</clus>
<clus scale="   97.634">  1  7  2 -1</clus>
<clus scale="  101.458">  2  9  1 -1</clus>
<clus scale="  101.458">  2  5  1 -1</clus>
</clustering>
</event>
<event>
 9    1  0.1610296E-005  0.3164192E+03  0.7546771E-02  0.1077418E+00
         -1   -1    0    0    0  501 -0.00000000000E+00  0.00000000000E+00  0.96638940979E+02  0.96638940979E+02  0.00000000000E+00 0.  1.
         21   -1    0    0  501  502  0.00000000000E+00 -0.00000000000E+00 -0.14141856209E+04  0.14141856209E+04  0.00000000000E+00 0.  1.
         23    2    1    2    0    0 -0.18240195014E+03 -0.22835790353E+03 -0.33868075653E+03  0.45657483147E+03  0.91313297879E+02 0.  0.
         23    2    1    2    0    0  0.18249072005E+03  0.27031170414E+03 -0.92884340273E+03  0.98896281104E+03  0.94478010820E+02 0.  0.
        -13    1    4    4    0    0  0.15067517725E+03  0.15163323047E+03 -0.65002454460E+03  0.68427155005E+03  0.00000000000E+00 0.  1.
         13    1    4    4    0    0  0.31815542799E+02  0.11867847368E+03 -0.27881885812E+03  0.30469126099E+03  0.00000000000E+00 0. -1.
        -13    1    3    3    0    0 -0.31278408778E+02 -0.10900494355E+03 -0.11720327366E+03  0.16308594033E+03  0.00000000000E+00 0. -1.
         13    1    3    3    0    0 -0.15112354136E+03 -0.11935295998E+03 -0.22147748286E+03  0.29348889114E+03  0.00000000000E+00 0.  1.
         -1    1    1    2    0  502 -0.88769910453E-01 -0.41953800614E+02 -0.50022520635E+02  0.65286919339E+02  0.00000000000E+00 0.  1.
<scales pt_clust_5="13000.00000" pt_clust_6="13000.00000" pt_clust_7="13000.00000" pt_clust_8="13000.00000" pt_clust_9="41.95392"></scales>
<clustering>
<clus scale="   41.954">  2  9  1 -1</clus>
<clus scale="   91.313">  7  8 -1 -1</clus>
<clus scale="   94.478">  5  6 -1 -1</clus>
<clus scale="  315.489">  1  7  2 -1</clus>
<clus scale="   41.954">  2  5  1 -1</clus>
</clustering>
</event>
<event>
 9    1  0.1610296E-005  0.9727855E+02  0.7546771E-02  0.1286921E+00
          3   -1    0    0  502    0 -0.00000000000E+00  0.00000000000E+00  0.19581623654E+03  0.19581623654E+03  0.00000000000E+00 0. -1.
         21   -1    0    0  501  502  0.00000000000E+00 -0.00000000000E+00 -0.19143307586E+03  0.19143307586E+03  0.00000000000E+00 0. -1.
         23    2    1    2    0    0  0.36351329325E+02  0.15954774332E+02  0.13017247678E+03  0.16334157466E+03  0.90330627889E+02 0.  0.
         23    2    1    2    0    0 -0.16557606126E+02 -0.25063309298E+02  0.25328330727E+01  0.93748869977E+02  0.88769992593E+02 0.  0.
        -11    1    4    4    0    0 -0.43900587957E+02 -0.69614579460E+00 -0.22549676091E+02  0.49358222555E+02  0.00000000000E+00 0.  1.
         11    1    4    4    0    0  0.27342981830E+02 -0.24367163503E+02  0.25082509164E+02  0.44390647422E+02  0.00000000000E+00 0. -1.
        -11    1    3    3    0    0 -0.18657307485E+02  0.34172972995E+02  0.67958275042E+02  0.78321225428E+02  0.00000000000E+00 0.  1.
         11    1    3    3    0    0  0.55008636810E+02 -0.18218198663E+02  0.62214201735E+02  0.85020349233E+02  0.00000000000E+00 0. -1.
          3    1    1    2  501    0 -0.19793723198E+02  0.91085349657E+01 -0.12832214917E+03  0.13015886775E+03  0.00000000000E+00 0. -1.
<scales pt_clust_5="13000.00000" pt_clust_6="13000.00000" pt_clust_7="13000.00000" pt_clust_8="13000.00000" pt_clust_9="21.78892"></scales>
<clustering>
<clus scale="   21.789">  2  9  1 -1</clus>
<clus scale="   88.770">  5  6 -1 -1</clus>
<clus scale="   90.331">  7  8 -1 -1</clus>
<clus scale="   95.831">  2  5  1 -1</clus>
<clus scale="   21.789">  2  5  1 -1</clus>
</clustering>
</event>
<event>
 9    1  0.1610296E-005  0.1126778E+03  0.7546771E-02  0.1256017E+00
         -1   -1    0    0    0  501 -0.00000000000E+00  0.00000000000E+00  0.47137171481E+03  0.47137171481E+03  0.00000000000E+00 0.  1.
         21   -1    0    0  501  502  0.00000000000E+00 -0.00000000000E+00 -0.53087587548E+02  0.53087587548E+02  0.00000000000E+00 0.  1.
         23    2    1    2    0    0  0.24927506081E+02  0.64662977903E+02  0.25354627986E+03  0.27798408118E+03  0.90480672440E+02 0.  0.
         23    2    1    2    0    0  0.32027476958E+02 -0.71170746666E+02  0.14113103870E+03  0.18447923289E+03  0.89574454067E+02 0.  0.
        -13    1    4    4    0    0  0.10111268020E+02 -0.61790122943E+02  0.14712850031E+03  0.15989700635E+03  0.00000000000E+00 0.  1.
         13    1    4    4    0    0  0.21916208938E+02 -0.93806237223E+01 -0.59974616196E+01  0.24582226537E+02  0.00000000000E+00 0. -1.
        -13    1    3    3    0    0  0.62474830696E+01  0.84089437033E+02  0.21506060951E+03  0.23100028188E+03  0.00000000000E+00 0.  1.
         13    1    3    3    0    0  0.18680023011E+02 -0.19426459130E+02  0.38485670351E+02  0.46983799297E+02  0.00000000000E+00 0. -1.
         -1    1    1    2    0  502 -0.56954983039E+02  0.65077687625E+01  0.23606808700E+02  0.61995988292E+02  0.00000000000E+00 0.  1.
<scales pt_clust_5="13000.00000" pt_clust_6="13000.00000" pt_clust_7="13000.00000" pt_clust_8="13000.00000" pt_clust_9="57.32557"></scales>
<clustering>
<clus scale="   57.326">  2  9  1 -1</clus>
<clus scale="   89.574">  5  6 -1 -1</clus>
<clus scale="   90.481">  7  8 -1 -1</clus>
<clus scale="  111.951">  2  5  1 -1</clus>
<clus scale="   57.326">  2  5  1 -1</clus>
</clustering>
</event>
<event>
 9    1  0.1610296E-005  0.2229137E+03  0.7546771E-02  0.1163530E+00
          2   -1    0    0  502    0 -0.00000000000E+00  0.00000000000E+00  0.13889026835E+03  0.13889026835E+03  0.00000000000E+00 0. -1.
         21   -1    0    0  501  502  0.00000000000E+00 -0.00000000000E+00 -0.75072245422E+03  0.75072245422E+03  0.00000000000E+00 0. -1.
         23    2    1    2    0    0  0.14316892583E+00 -0.49387957423E+02 -0.13252012353E+02  0.10541613130E+03  0.92183263514E+02 0.  0.
         23    2    1    2    0    0  0.16373707050E+02  0.24046067259E+03 -0.15626670133E+03  0.30209411528E+03  0.93552868440E+02 0.  0.
        -11    1    4    4    0    0  0.36979098425E+02  0.20572252957E+03 -0.15745139738E+03  0.26168713272E+03  0.00000000000E+00 0.  1.
         11    1    4    4    0    0 -0.20605391375E+02  0.34738143028E+02  0.11846960570E+01  0.40406982558E+02  0.00000000000E+00 0. -1.
        -11    1    3    3    0    0 -0.25468608988E+02 -0.16849120561E+02  0.31893314709E+02  0.44155706659E+02  0.00000000000E+00 0. -1.
         11    1    3    3    0    0  0.25611777913E+02 -0.32538836863E+02 -0.45145327062E+02  0.61260424646E+02  0.00000000000E+00 0.  1.
          2    1    1    2  501    0 -0.16516875976E+02 -0.19107271517E+03 -0.44231347219E+03  0.48210247599E+03  0.00000000000E+00 0. -1.
<scales pt_clust_5="13000.00000" pt_clust_6="13000.00000" pt_clust_7="13000.00000" pt_clust_8="13000.00000" pt_clust_9="202.33236"></scales>
<clustering>
<clus scale="   92.183">  7  8 -1 -1</clus>
<clus scale="   93.553">  5  6 -1 -1</clus>
<clus scale="  104.580">  1  7  2 -1</clus>
<clus scale="  202.332">  2  9  1 -1</clus>
<clus scale="  202.332">  2  5  1 -1</clus>
</clustering>
</event>
<event>
 9    1  0.1610296E-005  0.9903940E+02  0.7546771E-02  0.1283789E+00
         -1   -1    0    0    0  501 -0.00000000000E+00  0.00000000000E+00  0.19212635377E+03  0.19212635377E+03  0.00000000000E+00 0.  1.
         21   -1    0    0  501  502  0.00000000000E+00 -0.00000000000E+00 -0.11768815205E+03  0.11768815205E+03  0.00000000000E+00 0. -1.
         23    2    1    2    0    0 -0.21067291989E+01  0.39643690538E+02  0.14360813641E+03  0.17476645518E+03  0.91345259893E+02 0.  0.
         23    2    1    2    0    0 -0.16367496226E+02 -0.30571649543E+02 -0.61187981293E+02  0.11297293993E+03  0.88410380693E+02 0.  0.
        -11    1    4    4    0    0  0.12952137123E+02 -0.54654076050E+02 -0.28977250907E+02  0.63202111951E+02  0.00000000000E+00 0.  1.
         11    1    4    4    0    0 -0.29319633349E+02  0.24082426507E+02 -0.32210730386E+02  0.49770827984E+02  0.00000000000E+00 0. -1.
        -13    1    3    3    0    0 -0.20227219586E+02 -0.10732141670E+02  0.15442432701E+01  0.22950031901E+02  0.00000000000E+00 0. -1.
         13    1    3    3    0    0  0.18120490387E+02  0.50375832207E+02  0.14206389314E+03  0.15181642327E+03  0.00000000000E+00 0.  1.
         -1    1    1    2    0  502  0.18474225425E+02 -0.90720409950E+01 -0.79819533934E+01  0.22075110710E+02  0.00000000000E+00 0.  1.
<scales pt_clust_5="13000.00000" pt_clust_6="13000.00000" pt_clust_7="13000.00000" pt_clust_8="13000.00000" pt_clust_9="20.58152"></scales>
<clustering>
<clus scale="   20.582">  2  9  1 -1</clus>
<clus scale="   88.410">  5  6 -1 -1</clus>
<clus scale="   91.345">  7  8 -1 -1</clus>
<clus scale="   96.339">  2  5  1 -1</clus>
<clus scale="   20.582">  2  5  1 -1</clus>
</clustering>
</event>
<event>
 9    1  0.1610296E-005  0.1348385E+03  0.7546771E-02  0.1220506E+00
          1   -1    0    0  502    0 -0.00000000000E+00  0.00000000000E+00  0.25997230133E+03  0.25997230133E+03  0.00000000000E+00 0. -1.
         21   -1    0    0  501  502  0.00000000000E+00 -0.00000000000E+00 -0.18565233073E+03  0.18565233073E+03  0.00000000000E+00 0. -1.
         23    2    1    2    0    0 -0.83987734999E+02  0.36675455710E+02  0.90249301250E+02  0.15809949513E+03  0.91931960171E+02 0.  0.
         23    2    1    2    0    0  0.60813580973E+02 -0.10354457489E+03  0.77910157715E+02  0.16999058844E+03  0.91689895095E+02 0.  0.
        -11    1    4    4    0    0  0.69977081807E+02 -0.84312209691E+02  0.93136710392E+02  0.14380468526E+03  0.00000000000E+00 0. -1.
         11    1    4    4    0    0 -0.91635008344E+01 -0.19232365195E+02 -0.15226552676E+02  0.26185903172E+02  0.00000000000E+00 0.  1.
        -13    1    3    3    0    0  0.33181748162E+01  0.38715962092E+02  0.11543218280E+02  0.40536180050E+02  0.00000000000E+00 0.  1.
         13    1    3    3    0    0 -0.87305909815E+02 -0.20405063814E+01  0.78706082970E+02  0.11756331507E+03  0.00000000000E+00 0. -1.
          1    1    1    2  501    0  0.23174154027E+02  0.66869119176E+02 -0.93839488361E+02  0.11753454850E+03  0.00000000000E+00 0. -1.
<scales pt_clust_5="13000.00000" pt_clust_6="13000.00000" pt_clust_7="13000.00000" pt_clust_8="13000.00000" pt_clust_9="70.77090"></scales>
<clustering>
<clus scale="   70.771">  2  9  1 -1</clus>
<clus scale="   91.690">  5  6 -1 -1</clus>
<clus scale="   91.932">  7  8 -1 -1</clus>
<clus scale="  134.674">  2  5  1 -1</clus>
<clus scale="   70.771">  2  5  1 -1</clus>
</clustering>
</event>
<event>
 9    1  0.1610296E-005  0.1141942E+03  0.7546771E-02  0.1253090E+00
         -1   -1    0    0    0  501 -0.00000000000E+00  0.00000000000E+00  0.26790384528E+03  0.26790384528E+03  0.00000000000E+00 0.  1.
         21   -1    0    0  501  502  0.00000000000E+00 -0.00000000000E+00 -0.18087419317E+03  0.18087419317E+03  0.00000000000E+00 0. -1.
         23    2    1    2    0    0  0.52384391052E+02 -0.38754442861E+02  0.20059551201E+03  0.22978886501E+03  0.91204888989E+02 0.  0.
         23    2    1    2    0    0 -0.58224218215E+02  0.70193357362E+02 -0.33942048894E+02  0.13318439381E+03  0.90933234115E+02 0.  0.
        -11    1    3    3    0    0  0.23284428258E+02  0.56928775661E+01  0.18232069348E+01  0.24039499534E+02  0.00000000000E+00 0. -1.
         11    1    3    3    0    0  0.29099962794E+02 -0.44447320427E+02  0.19877230508E+03  0.20574936548E+03  0.00000000000E+00 0.  1.
        -11    1    4    4    0    0  0.18896282987E+02  0.69062329381E+01 -0.26321550454E+02  0.33129889562E+02  0.00000000000E+00 0.  1.
         11    1    4    4    0    0 -0.77120501202E+02  0.63287124424E+02 -0.76204984401E+01  0.10005450425E+03  0.00000000000E+00 0. -1.
         -1    1    1    2    0  502  0.58398271628E+01 -0.31438914501E+02 -0.79623811016E+02  0.85804779628E+02  0.00000000000E+00 0.  1.
<scales pt_clust_5="13000.00000" pt_clust_6="13000.00000" pt_clust_7="13000.00000" pt_clust_8="13000.00000" pt_clust_9="31.97669"></scales>
<clustering>
<clus scale="   31.977">  2  9  1 -1</clus>
<clus scale="   90.933">  7  8 -1 -1</clus>
<clus scale="   91.205">  5  6 -1 -1</clus>
<clus scale="  113.977">  2  7  1 -1</clus>
<clus scale="   31.977">  2  5  1 -1</clus>
</clustering>
</event>
<event>
 9    1  0.1610296E-005  0.1008952E+03  0.7546771E-02  0.1279887E+00
         21   -1    0    0  501  502  0.00000000000E+00  0.00000000000E+00  0.60535044859E+03  0.60535044859E+03  0.00000000000E+00 0. -1.
         -1   -1    0    0    0  501 -0.00000000000E+00 -0.00000000000E+00 -0.12290542123E+03  0.12290542123E+03  0.00000000000E+00 0.  1.
         23    2    1    2    0    0  0.10642226501E+02 -0.25536033035E+02 -0.57450432064E+02  0.11015679562E+03  0.89825505895E+02 0.  0.
         23    2    1    2    0    0 -0.35247010091E+02  0.83308922560E+02  0.76600589177E+02  0.15056807101E+03  0.92845923165E+02 0.  0.
        -11    1    4    4    0    0  0.29188748733E+02  0.14583289946E+02  0.34166672999E+02  0.47244226547E+02  0.00000000000E+00 0.  1.
         11    1    4    4    0    0 -0.64435758824E+02  0.68725632614E+02  0.42433916178E+02  0.10332384447E+03  0.00000000000E+00 0. -1.
        -13    1    3    3    0    0  0.37767887432E+01  0.27003854741E+02 -0.49587955335E+02  0.56590084099E+02  0.00000000000E+00 0. -1.
         13    1    3    3    0    0  0.68654377576E+01 -0.52539887775E+02 -0.78624767296E+01  0.53566711523E+02  0.00000000000E+00 0.  1.
         -1    1    1    2    0  502  0.24604783590E+02 -0.57772889526E+02  0.46329487025E+03  0.46753100319E+03  0.00000000000E+00 0.  1.
<scales pt_clust_5="13000.00000" pt_clust_6="13000.00000" pt_clust_7="13000.00000" pt_clust_8="13000.00000" pt_clust_9="62.79413"></scales>
<clustering>
<clus scale="   62.794">  1  9  2 -1</clus>
<clus scale="   89.826">  7  8 -1 -1</clus>
<clus scale="   92.846">  5  6 -1 -1</clus>
<clus scale="   98.123">  2  7  1 -1</clus>
<clus scale="   62.794">  1  5  2 -1</clus>
</clustering>
</event>
<event>
 9    1  0.1610296E-005  0.1054857E+03  0.7546771E-02  0.1269851E+00
         21   -1    0    0  501  502  0.00000000000E+00  0.00000000000E+00  0.96634771947E+02  0.96634771947E+02  0.00000000000E+00 0.  1.
          1   -1    0    0  502    0 -0.00000000000E+00 -0.00000000000E+00 -0.43250083376E+03  0.43250083376E+03  0.00000000000E+00 0. -1.
         23    2    1    2    0    0  0.15285688857E+02  0.64021013087E+02 -0.33000172622E+03  0.34879689462E+03  0.91792112885E+02 0.  0.
         23    2    1    2    0    0 -0.84998799353E+01  0.22209112482E+02  0.34824277647E+01  0.93338459685E+02  0.90191175384E+02 0.  0.
        -11    1    4    4    0    0 -0.71353283212E+01  0.57361173036E+02  0.57399913112E+01  0.58087559620E+02  0.00000000000E+00 0.  1.
         11    1    4    4    0    0 -0.13645516141E+01 -0.35152060554E+02 -0.22575635465E+01  0.35250900066E+02  0.00000000000E+00 0. -1.
        -13    1    3    3    0    0 -0.14884395210E+02  0.47581207122E+02 -0.29700379512E+03  0.30115904570E+03  0.00000000000E+00 0.  1.
         13    1    3    3    0    0  0.30170084067E+02  0.16439805965E+02 -0.32997931102E+02  0.47637848921E+02  0.00000000000E+00 0. -1.
          1    1    1    2  501    0 -0.67858089214E+01 -0.86230125569E+02 -0.93467633554E+01  0.87000251400E+02  0.00000000000E+00 0. -1.
<scales pt_clust_5="13000.00000" pt_clust_6="13000.00000" pt_clust_7="13000.00000" pt_clust_8="13000.00000" pt_clust_9="86.49672"></scales>
<clustering>
<clus scale="   86.497">  1  9  2 -1</clus>
<clus scale="   90.191">  5  6 -1 -1</clus>
<clus scale="   91.792">  7  8 -1 -1</clus>
<clus scale="  104.096">  1  5  2 -1</clus>
<clus scale="   86.497">  1  5  2 -1</clus>
</clustering>
</event>
<event>
 9    1  0.1610296E-005  0.1058098E+03  0.7546771E-02  0.1268800E+00
         21   -1    0    0  501  502  0.00000000000E+00  0.00000000000E+00  0.60513712228E+02  0.60513712228E+02  0.00000000000E+00 0.  1.
         -3   -1    0    0    0  501 -0.00000000000E+00 -0.00000000000E+00 -0.42414032029E+03  0.42414032029E+03  0.00000000000E+00 0.  1.
         23    2    1    2    0    0 -0.15068197180E+01 -0.31830136341E+02 -0.17227165445E+03  0.19741514404E+03  0.90993340868E+02 0.  0.
         23    2    1    2    0    0 -0.41650083947E+02  0.89016059074E+02 -0.16027077580E+03  0.20914295899E+03  0.91626783495E+02 0.  0.
        -13    1    4    4    0    0  0.81019289231E+01  0.52399904122E+02 -0.21447743692E+02  0.57196126737E+02  0.00000000000E+00 0. -1.
         13    1    4    4    0    0 -0.49752012870E+02  0.36616154952E+02 -0.13882303210E+03  0.15194683225E+03  0.00000000000E+00 0.  1.
        -13    1    3    3    0    0  0.47291494893E+01 -0.61937470448E+02 -0.13821832762E+03  0.15153521436E+03  0.00000000000E+00 0.  1.
         13    1    3    3    0    0 -0.62359692073E+01  0.30107334107E+02 -0.34053326830E+02  0.45879929677E+02  0.00000000000E+00 0. -1.
         -3    1    1    2    0  502  0.43156903665E+02 -0.57185922734E+02 -0.31084177812E+02  0.78095929491E+02  0.00000000000E+00 0.  1.
<scales pt_clust_5="13000.00000" pt_clust_6="13000.00000" pt_clust_7="13000.00000" pt_clust_8="13000.00000" pt_clust_9="71.64320"></scales>
<clustering>
<clus scale="   71.643">  1  9  2 -1</clus>
<clus scale="   90.993">  7  8 -1 -1</clus>
<clus scale="   91.627">  5  6 -1 -1</clus>
<clus scale="  105.262">  2  7  1 -1</clus>
<clus scale="   71.643">  1  5  2 -1</clus>
</clustering>
</event>
<event>
 9    1  0.1610296E-005  0.9703607E+02  0.7546771E-02  0.1288926E+00
         -1   -1    0    0    0  501 -0.00000000000E+00  0.00000000000E+00  0.71808272054E+03  0.71808272054E+03  0.00000000000E+00 0.  1.
         21   -1    0    0  501  502  0.00000000000E+00 -0.00000000000E+00 -0.39291661422E+02  0.39291661422E+02  0.00000000000E+00 0.  1.
         23    2    1    2    0    0 -0.14024866151E+02  0.87943668906E+01  0.46843804376E+03  0.47831386041E+03  0.95267572936E+02 0.  0.
         23    2    1    2    0    0 -0.23989055142E+01 -0.31372320605E+02  0.22694998304E+03  0.24658031826E+03  0.91134962009E+02 0.  0.
        -11    1    3    3    0    0  0.15858673325E+02 -0.37991170359E+02  0.19576413142E+03  0.20004604894E+03  0.00000000000E+00 0. -1.
         11    1    3    3    0    0 -0.29883539476E+02  0.46785537250E+02  0.27267391234E+03  0.27826781147E+03  0.00000000000E+00 0.  1.
        -13    1    4    4    0    0 -0.24122198214E+02  0.25124020644E+02  0.66027010367E+02  0.74650270984E+02  0.00000000000E+00 0.  1.
         13    1    4    4    0    0  0.21723292699E+02 -0.56496341249E+02  0.16092297267E+03  0.17193004727E+03  0.00000000000E+00 0. -1.
         -1    1    1    2    0  502  0.16423771666E+02  0.22577953715E+02 -0.16596967690E+02  0.32480203296E+02  0.00000000000E+00 0.  1.
<scales pt_clust_5="13000.00000" pt_clust_6="13000.00000" pt_clust_7="13000.00000" pt_clust_8="13000.00000" pt_clust_9="27.91960"></scales>
<clustering>
<clus scale="   27.920">  2  9  1 -1</clus>
<clus scale="   91.135">  7  8 -1 -1</clus>
<clus scale="   92.982">  2  7  1 -1</clus>
<clus scale="   95.268">  5  6 -1 -1</clus>
<clus scale="   27.920">  2  5  1 -1</clus>
</clustering>
</event>
<event>
 9    1  0.1610296E-005  0.1132850E+03  0.7546771E-02  0.1256184E+00
         21   -1    0    0  501  502  0.00000000000E+00  0.00000000000E+00  0.62716298201E+03  0.62716298201E+03  0.00000000000E+00 0.  1.
         -2   -1    0    0    0  501 -0.00000000000E+00 -0.00000000000E+00 -0.55141599437E+02  0.55141599437E+02  0.00000000000E+00 0.  1.
         23    2    1    2    0    0 -0.58812614115E+02  0.17847010979E+02  0.33920959154E+02  0.11783955146E+03  0.94647181880E+02 0.  0.
         23    2    1    2    0    0  0.50072531303E+02 -0.51980448634E+02  0.26579943651E+03  0.28989389516E+03  0.90442824848E+02 0.  0.
        -11    1    3    3    0    0 -0.25344258558E+02 -0.38527399382E+02  0.22422083618E+02  0.51278082830E+02  0.00000000000E+00 0.  1.
         11    1    3    3    0    0 -0.33468355557E+02  0.56374410361E+02  0.11498875536E+02  0.66561468627E+02  0.00000000000E+00 0. -1.
        -13    1    4    4    0    0 -0.22699674185E+02 -0.30979720764E+02  0.68119395176E+02  0.78200193771E+02  0.00000000000E+00 0.  1.
         13    1    4    4    0    0  0.72772205488E+02 -0.21000727870E+02  0.19768004134E+03  0.21169370138E+03  0.00000000000E+00 0. -1.
         -2    1    1    2    0  502  0.87400828120E+01  0.34133437654E+02  0.27230098691E+03  0.27457113483E+03  0.00000000000E+00 0.  1.
<scales pt_clust_5="13000.00000" pt_clust_6="13000.00000" pt_clust_7="13000.00000" pt_clust_8="13000.00000" pt_clust_9="35.23465"></scales>
<clustering>
<clus scale="   35.235">  1  9  2 -1</clus>
<clus scale="   90.443">  7  8 -1 -1</clus>
<clus scale="   94.647">  5  6 -1 -1</clus>
<clus scale="  109.797">  1  7  2 -1</clus>
<clus scale="   35.235">  1  5  2 -1</clus>
</clustering>
</event>
<event>
 9    1  0.1610296E-005  0.9564669E+02  0.7546771E-02  0.1290388E+00
          1   -1    0    0  502    0 -0.00000000000E+00  0.00000000000E+00  0.80312720452E+02  0.80312720452E+02  0.00000000000E+00 0. -1.
         21   -1    0    0  501  502  0.00000000000E+00 -0.00000000000E+00 -0.14908410459E+03  0.14908410459E+03  0.00000000000E+00 0. -1.
         23    2    1    2    0    0  0.31157941311E+02  0.10004799871E+02 -0.38042899285E+01  0.98080693991E+02  0.92382014400E+02 0.  0.
         23    2    1    2    0    0 -0.10249732620E+02 -0.60492834746E+01 -0.58913788620E+02  0.10919279927E+03  0.91162393962E+02 0.  0.
        -11    1    4    4    0    0 -0.45287090770E+02  0.12431440832E+02 -0.13362015043E+02  0.48826271182E+02  0.00000000000E+00 0.  1.
         11    1    4    4    0    0  0.35037358150E+02 -0.18480724306E+02 -0.45551773576E+02  0.60366528084E+02  0.00000000000E+00 0. -1.
        -11    1    3    3    0    0  0.13108171564E+02 -0.41452241028E+02 -0.18498523228E+01  0.43514760732E+02  0.00000000000E+00 0.  1.
         11    1    3    3    0    0  0.18049769746E+02  0.51457040899E+02 -0.19544376057E+01  0.54565933258E+02  0.00000000000E+00 0. -1.
          1    1    1    2  501    0 -0.20908208690E+02 -0.39555163966E+01 -0.60533055881E+01  0.22123331782E+02  0.00000000000E+00 0. -1.
<scales pt_clust_5="13000.00000" pt_clust_6="13000.00000" pt_clust_7="13000.00000" pt_clust_8="13000.00000" pt_clust_9="21.27909"></scales>
<clustering>
<clus scale="   21.279">  2  9  1 -1</clus>
<clus scale="   91.162">  5  6 -1 -1</clus>
<clus scale="   92.382">  7  8 -1 -1</clus>
<clus scale="   94.469">  2  5  1 -1</clus>
<clus scale="   21.279">  2  5  1 -1</clus>
</clustering>
</event>
<event>
 9    1  0.1610296E-005  0.1054179E+03  0.7546771E-02  0.1269767E+00
          2   -1    0    0  502    0 -0.00000000000E+00  0.00000000000E+00  0.65931765785E+03  0.65931765785E+03  0.00000000000E+00 0. -1.
         21   -1    0    0  501  502  0.00000000000E+00 -0.00000000000E+00 -0.62357535088E+02  0.62357535088E+02  0.00000000000E+00 0.  1.
         23    2    1    2    0    0 -0.34294303475E+02 -0.40994484117E+02  0.37701913058E+03  0.39093987456E+03  0.88509399031E+02 0.  0.
         23    2    1    2    0    0  0.10181950668E+03 -0.19097086007E+02  0.19408757895E+03  0.23671910252E+03  0.87372962407E+02 0.  0.
        -11    1    4    4    0    0  0.10745007042E+03  0.77103522374E+01  0.16173782915E+03  0.19432985499E+03  0.00000000000E+00 0.  1.
         11    1    4    4    0    0 -0.56305637415E+01 -0.26807438244E+02  0.32349749806E+02  0.42389247526E+02  0.00000000000E+00 0. -1.
        -11    1    3    3    0    0  0.45303891577E+01 -0.55969651302E+02  0.15058705661E+03  0.16071586080E+03  0.00000000000E+00 0.  1.
         11    1    3    3    0    0 -0.38824692633E+02  0.14975167185E+02  0.22643207397E+03  0.23022401376E+03  0.00000000000E+00 0. -1.
          2    1    1    2  501    0 -0.67525203205E+02  0.60091570124E+02  0.25853413222E+02  0.94016215852E+02  0.00000000000E+00 0. -1.
<scales pt_clust_5="13000.00000" pt_clust_6="13000.00000" pt_clust_7="13000.00000" pt_clust_8="13000.00000" pt_clust_9="90.39165"></scales>
<clustering>
<clus scale="   87.373">  5  6 -1 -1</clus>
<clus scale="   88.509">  7  8 -1 -1</clus>
<clus scale="   90.392">  2  9  1 -1</clus>
<clus scale="  104.466">  2  5  1 -1</clus>
<clus scale="   90.392">  2  5  1 -1</clus>
</clustering>
</event>
<event>
 9    1  0.1610296E-005  0.1550423E+03  0.7546771E-02  0.1196648E+00
         21   -1    0    0  501  502  0.00000000000E+00  0.00000000000E+00  0.30348425189E+02  0.30348425189E+02  0.00000000000E+00 0. -1.
          1   -1    0    0  502    0 -0.00000000000E+00 -0.00000000000E+00 -0.10072952712E+04  0.10072952712E+04  0.00000000000E+00 0. -1.
         23    2    1    2    0    0  0.83651091067E+02  0.87908657948E+02 -0.48748418939E+03  0.51350026219E+03  0.10637785099E+03 0.  0.
         23    2    1    2    0    0 -0.91789051207E+02 -0.51667484085E+02 -0.31150090608E+03  0.34234675180E+03  0.95256102925E+02 0.  0.
        -13    1    3    3    0    0  0.56850517787E+01 -0.21350868947E+02 -0.33832874999E+02  0.40408450220E+02  0.00000000000E+00 0.  1.
         13    1    3    3    0    0  0.77966039288E+02  0.10925952689E+03 -0.45365131440E+03  0.47309181197E+03  0.00000000000E+00 0. -1.
        -13    1    4    4    0    0 -0.27314776335E+02  0.28241695266E+02 -0.82204871672E+02  0.91111641871E+02  0.00000000000E+00 0. -1.
         13    1    4    4    0    0 -0.64474274872E+02 -0.79909179351E+02 -0.22929603441E+03  0.25123510993E+03  0.00000000000E+00 0.  1.
          1    1    1    2  501    0  0.81379601404E+01 -0.36241173862E+02 -0.17796175052E+03  0.18179668239E+03  0.00000000000E+00 0. -1.
<scales pt_clust_5="13000.00000" pt_clust_6="13000.00000" pt_clust_7="13000.00000" pt_clust_8="13000.00000" pt_clust_9="37.14365"></scales>
<clustering>
<clus scale="   37.144">  1  9  2 -1</clus>
<clus scale="   95.256">  7  8 -1 -1</clus>
<clus scale="  106.378">  5  6 -1 -1</clus>
<clus scale="  147.633">  1  7  2 -1</clus>
<clus scale="   37.144">  1  5  2 -1</clus>
</clustering>
</event>
<event>
 9    1  0.1610296E-005  0.1261669E+03  0.7546771E-02  0.1234158E+00
         -1   -1    0    0    0  501 -0.00000000000E+00  0.00000000000E+00  0.89295039593E+02  0.89295039593E+02  0.00000000000E+00 0.  1.
         21   -1    0    0  501  502  0.00000000000E+00 -0.00000000000E+00 -0.34567671305E+03  0.34567671305E+03  0.00000000000E+00 0. -1.
         23    2    1    2    0    0  0.85123385850E+02 -0.25933225935E+01  0.48654860653E+01  0.12273403549E+03  0.88245421254E+02 0.  0.
         23    2    1    2    0    0 -0.11137958169E+03  0.12386551155E+02 -0.23496427911E+03  0.27381786618E+03  0.84906851994E+02 0.  0.
        -11    1    4    4    0    0 -0.74257584692E+02 -0.35530365299E+01 -0.21741025493E+03  0.22976951909E+03  0.00000000000E+00 0. -1.
         11    1    4    4    0    0 -0.37121996999E+02  0.15939587685E+02 -0.17554024178E+02  0.44048347093E+02  0.00000000000E+00 0.  1.
        -13    1    3    3    0    0  0.17692428233E+02 -0.30913401117E+02 -0.25228571193E+02  0.43647923087E+02  0.00000000000E+00 0. -1.
         13    1    3    3    0    0  0.67430957617E+02  0.28320078524E+02  0.30094057258E+02  0.79086112403E+02  0.00000000000E+00 0.  1.
         -1    1    1    2    0  502  0.26256195841E+02 -0.97932285617E+01 -0.26282880409E+02  0.38419850967E+02  0.00000000000E+00 0.  1.
<scales pt_clust_5="13000.00000" pt_clust_6="13000.00000" pt_clust_7="13000.00000" pt_clust_8="13000.00000" pt_clust_9="28.02312"></scales>
<clustering>
<clus scale="   28.023">  2  9  1 -1</clus>
<clus scale="   84.907">  5  6 -1 -1</clus>
<clus scale="   88.245">  7  8 -1 -1</clus>
<clus scale="  123.855">  2  5  1 -1</clus>
<clus scale="   28.023">  2  5  1 -1</clus>
</clustering>
</event>
<event>
 9    1  0.1610296E-005  0.1729010E+03  0.7546771E-02  0.1198164E+00
          1   -1    0    0  502    0 -0.00000000000E+00  0.00000000000E+00  0.36113195235E+03  0.36113195235E+03  0.00000000000E+00 0. -1.
         21   -1    0    0  501  502  0.00000000000E+00 -0.00000000000E+00 -0.13934962459E+03  0.13934962459E+03  0.00000000000E+00 0. -1.
         23    2    1    2    0    0  0.10628501678E+02  0.47835759512E+02  0.13079369631E+03  0.16647284983E+03  0.90581420833E+02 0.  0.
         23    2    1    2    0    0 -0.82754952576E+02 -0.14810277554E+03  0.31160565828E+02  0.19676770970E+03  0.94677011024E+02 0.  0.
        -11    1    3    3    0    0  0.30504141508E+02  0.66428785308E+02  0.11064083080E+03  0.13260723814E+03  0.00000000000E+00 0.  1.
         11    1    3    3    0    0 -0.19875639830E+02 -0.18593025796E+02  0.20152865502E+02  0.33865611686E+02  0.00000000000E+00 0. -1.
        -13    1    4    4    0    0 -0.89609746973E-01 -0.96042035328E+02  0.22844695784E+02  0.98721632408E+02  0.00000000000E+00 0.  1.
         13    1    4    4    0    0 -0.82665342829E+02 -0.52060740216E+02  0.83158700443E+01  0.98046077288E+02  0.00000000000E+00 0. -1.
          1    1    1    2  501    0  0.72126450898E+02  0.10026701603E+03  0.59828065625E+02  0.13724101741E+03  0.00000000000E+00 0. -1.
<scales pt_clust_5="13000.00000" pt_clust_6="13000.00000" pt_clust_7="13000.00000" pt_clust_8="13000.00000" pt_clust_9="144.67561"></scales>
<clustering>
<clus scale="   90.581">  5  6 -1 -1</clus>
<clus scale="   94.677">  7  8 -1 -1</clus>
<clus scale="  102.986">  1  5  2 -1</clus>
<clus scale="  144.676">  2  9  1 -1</clus>
<clus scale="  144.676">  2  5  1 -1</clus>
</clustering>
</event>
<event>
 9    1  0.1610296E-005  0.2621439E+03  0.7546771E-02  0.1105951E+00
          1   -1    0    0  502    0 -0.00000000000E+00  0.00000000000E+00  0.17282593806E+03  0.17282593806E+03  0.00000000000E+00 0. -1.
         21   -1    0    0  501  502  0.00000000000E+00 -0.00000000000E+00 -0.82860155866E+03  0.82860155866E+03  0.00000000000E+00 0. -1.
         23    2    1    2    0    0  0.16609220765E+03 -0.22230897579E+03 -0.58709611567E+02  0.29895716703E+03  0.94449283070E+02 0.  0.
         23    2    1    2    0    0 -0.62837031348E+02  0.19129044166E+03 -0.22813545205E+03  0.31810912357E+03  0.92774481596E+02 0.  0.
        -11    1    4    4    0    0 -0.82608989896E+02  0.12488533078E+03 -0.13202287013E+03  0.19962622396E+03  0.00000000000E+00 0.  1.
         11    1    4    4    0    0  0.19771958548E+02  0.66405110887E+02 -0.96112581919E+02  0.11848289961E+03  0.00000000000E+00 0. -1.
        -13    1    3    3    0    0  0.15622699619E+03 -0.14965606872E+03 -0.23478287167E+02  0.21761213939E+03  0.00000000000E+00 0. -1.
         13    1    3    3    0    0  0.98652114600E+01 -0.72652907069E+02 -0.35231324401E+02  0.81345027640E+02  0.00000000000E+00 0.  1.
          1    1    1    2  501    0 -0.10325517630E+03  0.31018534121E+02 -0.36893055699E+03  0.38436120612E+03  0.00000000000E+00 0. -1.
<scales pt_clust_5="13000.00000" pt_clust_6="13000.00000" pt_clust_7="13000.00000" pt_clust_8="13000.00000" pt_clust_9="107.81364"></scales>
<clustering>
<clus scale="   92.774">  5  6 -1 -1</clus>
<clus scale="   94.449">  7  8 -1 -1</clus>
<clus scale="  107.814">  2  9  1 -1</clus>
<clus scale="  261.545">  2  5  1 -1</clus>
<clus scale="  107.814">  2  5  1 -1</clus>
</clustering>
</event>
<event>
 9    1  0.1610296E-005  0.1034665E+03  0.7546771E-02  0.1296892E+00
         21   -1    0    0  501  502  0.00000000000E+00  0.00000000000E+00  0.98660922931E+02  0.98660922931E+02  0.00000000000E+00 0.  1.
          1   -1    0    0  502    0 -0.00000000000E+00 -0.00000000000E+00 -0.17097397497E+03  0.17097397497E+03  0.00000000000E+00 0. -1.
         23    2    1    2    0    0 -0.17626372278E+02  0.11311671423E+02 -0.89510651350E+02  0.11158514426E+03  0.63249069598E+02 0.  0.
         23    2    1    2    0    0 -0.20510541408E+02 -0.36461694821E+02  0.22015303879E+02  0.11211329601E+03  0.10165913652E+03 0.  0.
        -11    1    3    3    0    0 -0.25763085613E+02 -0.10321015197E+02 -0.83082664569E+02  0.87595599700E+02  0.00000000000E+00 0. -1.
         11    1    3    3    0    0  0.81367133347E+01  0.21632686619E+02 -0.64279867813E+01  0.23989544563E+02  0.00000000000E+00 0.  1.
        -11    1    4    4    0    0 -0.30572413658E+02 -0.64695362736E+02 -0.50438620465E+01  0.71732858445E+02  0.00000000000E+00 0. -1.
         11    1    4    4    0    0  0.10061872250E+02  0.28233667914E+02  0.27059165926E+02  0.40380437562E+02  0.00000000000E+00 0.  1.
          1    1    1    2  501    0  0.38136913686E+02  0.25150023399E+02 -0.48177045684E+01  0.45936457632E+02  0.00000000000E+00 0. -1.
<scales pt_clust_5="13000.00000" pt_clust_6="13000.00000" pt_clust_7="13000.00000" pt_clust_8="13000.00000" pt_clust_9="45.68312"></scales>
<clustering>
<clus scale="   45.683">  1  9  2 -1</clus>
<clus scale="   63.249">  5  6 -1 -1</clus>
<clus scale="   66.115">  2  5  1 -1</clus>
<clus scale="  101.659">  7  8 -1 -1</clus>
<clus scale="   45.683">  1  5  2 -1</clus>
</clustering>
</event>
<event>
 9    1  0.1610296E-005  0.1115810E+03  0.7546771E-02  0.1257844E+00
         21   -1    0    0  501  502  0.00000000000E+00  0.00000000000E+00  0.11989261731E+03  0.11989261731E+03  0.00000000000E+00 0. -1.
          1   -1    0    0  502    0 -0.00000000000E+00 -0.00000000000E+00 -0.19485067545E+03  0.19485067545E+03  0.00000000000E+00 0. -1.
         23    2    1    2    0    0 -0.30053704093E+01  0.40812506580E+02 -0.40260537775E+02  0.10883082834E+03  0.92458343868E+02 0.  0.
         23    2    1    2    0    0 -0.39331321925E+02 -0.90618168191E+02 -0.38686522153E+02  0.14042268214E+03  0.91996072598E+02 0.  0.
        -11    1    4    4    0    0 -0.15752844316E+01 -0.20631590617E+02  0.29252801523E+02  0.35831137986E+02  0.00000000000E+00 0.  1.
         11    1    4    4    0    0 -0.37756037494E+02 -0.69986577574E+02 -0.67939323675E+02  0.10459154416E+03  0.00000000000E+00 0. -1.
        -11    1    3    3    0    0  0.17057430908E+02 -0.19214882346E+02  0.10442382689E+02  0.27734653576E+02  0.00000000000E+00 0.  1.
         11    1    3    3    0    0 -0.20062801317E+02  0.60027388926E+02 -0.50702920464E+02  0.81096174765E+02  0.00000000000E+00 0. -1.
          1    1    1    2  501    0  0.42336692335E+02  0.49805661611E+02  0.39890017871E+01  0.65489782269E+02  0.00000000000E+00 0. -1.
<scales pt_clust_5="13000.00000" pt_clust_6="13000.00000" pt_clust_7="13000.00000" pt_clust_8="13000.00000" pt_clust_9="65.36818"></scales>
<clustering>
<clus scale="   65.368">  1  9  2 -1</clus>
<clus scale="   91.996">  5  6 -1 -1</clus>
<clus scale="   92.458">  7  8 -1 -1</clus>
<clus scale="  111.198">  1  5  2 -1</clus>
<clus scale="   65.368">  1  5  2 -1</clus>
</clustering>
</event>
<event>
 9    1  0.1610296E-005  0.1043512E+03  0.7546771E-02  0.1274366E+00
          3   -1    0    0  502    0 -0.00000000000E+00  0.00000000000E+00  0.37895988113E+03  0.37895988113E+03  0.00000000000E+00 0. -1.
         21   -1    0    0  501  502  0.00000000000E+00 -0.00000000000E+00 -0.64126001561E+02  0.64126001561E+02  0.00000000000E+00 0.  1.
         23    2    1    2    0    0 -0.36022937170E+02 -0.23885184302E+00  0.30535277578E+03  0.32292296719E+03  0.98697598799E+02 0.  0.
         23    2    1    2    0    0  0.23091152511E+02  0.16586047847E+02  0.16388418000E+02  0.98204480637E+02  0.92559394257E+02 0.  0.
        -13    1    3    3    0    0 -0.19298750622E+01 -0.45447048592E+02  0.99137366267E+02  0.10907509355E+03  0.00000000000E+00 0. -1.
         13    1    3    3    0    0 -0.34093062108E+02  0.45208196749E+02  0.20621540952E+03  0.21384787364E+03  0.00000000000E+00 0.  1.
        -13    1    4    4    0    0 -0.35283241085E+02  0.13646991266E+02  0.11558727777E+02  0.39556941994E+02  0.00000000000E+00 0.  1.
         13    1    4    4    0    0  0.58374393596E+02  0.29390565803E+01  0.48296902229E+01  0.58647538643E+02  0.00000000000E+00 0. -1.
          3    1    1    2  501    0  0.12931784659E+02 -0.16347196004E+02 -0.69073142186E+01  0.21958434857E+02  0.00000000000E+00 0. -1.
<scales pt_clust_5="13000.00000" pt_clust_6="13000.00000" pt_clust_7="13000.00000" pt_clust_8="13000.00000" pt_clust_9="20.84375"></scales>
<clustering>
<clus scale="   20.844">  2  9  1 -1</clus>
<clus scale="   92.559">  7  8 -1 -1</clus>
<clus scale="   98.566">  2  7  1 -1</clus>
<clus scale="   98.698">  5  6 -1 -1</clus>
<clus scale="   20.844">  2  5  1 -1</clus>
</clustering>
</event>
<event>
 9    1  0.1610296E-005  0.1072724E+03  0.7546771E-02  0.1267044E+00
         -3   -1    0    0    0  501 -0.00000000000E+00  0.00000000000E+00  0.16371813242E+03  0.16371813242E+03  0.00000000000E+00 0.  1.
         21   -1    0    0  501  502  0.00000000000E+00 -0.00000000000E+00 -0.31795159910E+03  0.31795159910E+03  0.00000000000E+00 0.  1.
         23    2    1    2    0    0 -0.49199572447E+02  0.33721198953E+02  0.12302301879E+03  0.16250252965E+03  0.87833318302E+02 0.  0.
         23    2    1    2    0    0  0.22354702078E+02 -0.33611833314E+02 -0.10469473924E+03  0.14452981959E+03  0.91095511879E+02 0.  0.
        -11    1    3    3    0    0  0.24188904570E+02  0.96309512971E+01  0.16146919950E+02  0.30636275084E+02  0.00000000000E+00 0. -1.
         11    1    3    3    0    0 -0.73388477017E+02  0.24090247655E+02  0.10687609884E+03  0.13186625457E+03  0.00000000000E+00 0.  1.
        -11    1    4    4    0    0  0.51660627475E+01 -0.56185188215E+02 -0.28474723150E+02  0.63200264537E+02  0.00000000000E+00 0.  1.
         11    1    4    4    0    0  0.17188639331E+02  0.22573354901E+02 -0.76220016086E+02  0.81329555057E+02  0.00000000000E+00 0. -1.
         -3    1    1    2    0  502  0.26844870369E+02 -0.10936563858E+00 -0.17256174623E+03  0.17463738227E+03  0.00000000000E+00 0.  1.
<scales pt_clust_5="13000.00000" pt_clust_6="13000.00000" pt_clust_7="13000.00000" pt_clust_8="13000.00000" pt_clust_9="26.84509"></scales>
<clustering>
<clus scale="   26.845">  2  9  1 -1</clus>
<clus scale="   87.833">  5  6 -1 -1</clus>
<clus scale="   91.096">  7  8 -1 -1</clus>
<clus scale="  104.516">  1  5  2 -1</clus>
<clus scale="   26.845">  2  5  1 -1</clus>
</clustering>
</event>
<event>
 9    1  0.1610296E-005  0.1276855E+03  0.7546771E-02  0.1231467E+00
         21   -1    0    0  501  502  0.00000000000E+00  0.00000000000E+00  0.35286588092E+02  0.35286588092E+02  0.00000000000E+00 0.  1.
          2   -1    0    0  502    0 -0.00000000000E+00 -0.00000000000E+00 -0.63493478271E+03  0.63493478271E+03  0.00000000000E+00 0. -1.
         23    2    1    2    0    0 -0.85959483888E+02 -0.30297185052E+02 -0.38710565426E+03  0.40803002363E+03  0.91272998912E+02 0.  0.
         23    2    1    2    0    0  0.67291136774E+02  0.47976562180E+02 -0.19377218543E+03  0.23035750066E+03  0.93204456206E+02 0.  0.
        -11    1    4    4    0    0 -0.95529336093E+01  0.46637441773E+02 -0.78760170294E+02  0.92029744868E+02  0.00000000000E+00 0. -1.
         11    1    4    4    0    0  0.76844070384E+02  0.13391204065E+01 -0.11501201514E+03  0.13832775579E+03  0.00000000000E+00 0.  1.
        -11    1    3    3    0    0 -0.12812930446E+02  0.16515020422E+02 -0.14504043381E+02  0.25441783753E+02  0.00000000000E+00 0.  1.
         11    1    3    3    0    0 -0.73146553441E+02 -0.46812205474E+02 -0.37260161088E+03  0.38258823988E+03  0.00000000000E+00 0. -1.
          2    1    1    2  501    0  0.18668347113E+02 -0.17679377128E+02 -0.18770354922E+02  0.31833846507E+02  0.00000000000E+00 0. -1.
<scales pt_clust_5="13000.00000" pt_clust_6="13000.00000" pt_clust_7="13000.00000" pt_clust_8="13000.00000" pt_clust_9="25.71123"></scales>
<clustering>
<clus scale="   25.711">  1  9  2 -1</clus>
<clus scale="   91.273">  7  8 -1 -1</clus>
<clus scale="   93.204">  5  6 -1 -1</clus>
<clus scale="  126.283">  2  7  1 -1</clus>
<clus scale="   25.711">  1  5  2 -1</clus>
</clustering>
</event>
<event>
 9    1  0.1610296E-005  0.1042286E+03  0.7546771E-02  0.1271964E+00
         21   -1    0    0  501  502  0.00000000000E+00  0.00000000000E+00  0.43221867548E+02  0.43221867548E+02  0.00000000000E+00 0.  1.
          1   -1    0    0  502    0 -0.00000000000E+00 -0.00000000000E+00 -0.36123198102E+03  0.36123198102E+03  0.00000000000E+00 0. -1.
         23    2    1    2    0    0  0.39142801697E+02  0.40647142636E+02 -0.15129517740E+03  0.18599859662E+03  0.92308710905E+02 0.  0.
         23    2    1    2    0    0 -0.46634082416E+02 -0.41036207558E+01 -0.13330930436E+03  0.16838046281E+03  0.91591660533E+02 0.  0.
        -11    1    4    4    0    0 -0.37494172702E+02 -0.36422540624E+02 -0.12235422142E+03  0.13305250825E+03  0.00000000000E+00 0. -1.
         11    1    4    4    0    0 -0.91399097148E+01  0.32318919868E+02 -0.10955082945E+02  0.35327954560E+02  0.00000000000E+00 0.  1.
        -13    1    3    3    0    0  0.13524864261E+02  0.63596348635E+02 -0.60128623855E+02  0.88559973575E+02  0.00000000000E+00 0.  1.
         13    1    3    3    0    0  0.25617937437E+02 -0.22949205998E+02 -0.91166553549E+02  0.97438623043E+02  0.00000000000E+00 0. -1.
          1    1    1    2  501    0  0.74912807193E+01 -0.36543521881E+02 -0.33405631710E+02  0.50074789148E+02  0.00000000000E+00 0. -1.
<scales pt_clust_5="13000.00000" pt_clust_6="13000.00000" pt_clust_7="13000.00000" pt_clust_8="13000.00000" pt_clust_9="37.30346"></scales>
<clustering>
<clus scale="   37.303">  1  9  2 -1</clus>
<clus scale="   91.592">  5  6 -1 -1</clus>
<clus scale="   92.309">  7  8 -1 -1</clus>
<clus scale="  103.594">  1  5  2 -1</clus>
<clus scale="   37.303">  1  5  2 -1</clus>
</clustering>
</event>
<event>
 9    1  0.1610296E-005  0.1005227E+03  0.7546771E-02  0.1280134E+00
         21   -1    0    0  501  502  0.00000000000E+00  0.00000000000E+00  0.96663184194E+02  0.96663184194E+02  0.00000000000E+00 0. -1.
          2   -1    0    0  502    0 -0.00000000000E+00 -0.00000000000E+00 -0.34381116680E+03  0.34381116680E+03  0.00000000000E+00 0. -1.
         23    2    1    2    0    0 -0.38843030355E+02 -0.14548078513E+01 -0.23673336924E+03  0.25632493797E+03  0.90271192737E+02 0.  0.
         23    2    1    2    0    0  0.60811067801E+02 -0.17027605973E+01 -0.64887243461E+02  0.12532907354E+03  0.88295735740E+02 0.  0.
        -11    1    3    3    0    0  0.29121056861E+02  0.57809016479E+01 -0.63581466982E+02  0.70171630451E+02  0.00000000000E+00 0. -1.
         11    1    3    3    0    0 -0.67964087215E+02 -0.72357094992E+01 -0.17315190226E+03  0.18615330752E+03  0.00000000000E+00 0.  1.
        -13    1    4    4    0    0  0.21388773200E+01  0.32037037094E+02 -0.44054656825E+02  0.54513845305E+02  0.00000000000E+00 0.  1.
         13    1    4    4    0    0  0.58672190481E+02 -0.33739797691E+02 -0.20832586636E+02  0.70815228236E+02  0.00000000000E+00 0. -1.
          2    1    1    2  501    0 -0.21968037447E+02  0.31575684486E+01  0.54472630096E+02  0.58820339487E+02  0.00000000000E+00 0. -1.
<scales pt_clust_5="13000.00000" pt_clust_6="13000.00000" pt_clust_7="13000.00000" pt_clust_8="13000.00000" pt_clust_9="22.19380"></scales>
<clustering>
<clus scale="   22.194">  1  9  2 -1</clus>
<clus scale="   88.296">  7  8 -1 -1</clus>
<clus scale="   90.271">  5  6 -1 -1</clus>
<clus scale="   98.753">  1  7  2 -1</clus>
<clus scale="   22.194">  1  5  2 -1</clus>
</clustering>
</event>
<event>
 9    1  0.1610296E-005  0.1114283E+03  0.7546771E-02  0.1264017E+00
         -4   -1    0    0    0  501 -0.00000000000E+00  0.00000000000E+00  0.60401573950E+02  0.60401573950E+02  0.00000000000E+00 0.  1.
         21   -1    0    0  501  502  0.00000000000E+00 -0.00000000000E+00 -0.43398800041E+03  0.43398800041E+03  0.00000000000E+00 0. -1.
         23    2    1    2    0    0  0.37380150801E+02  0.16013674032E+02 -0.25721402546E+02  0.11182876494E+03  0.10094735603E+03 0.  0.
         23    2    1    2    0    0 -0.48392978241E+02 -0.56589447803E+02 -0.22059578234E+03  0.24852672556E+03  0.86941291607E+02 0.  0.
        -11    1    4    4    0    0 -0.57646515375E+02 -0.34167517146E+02 -0.21271749708E+03  0.22302303362E+03  0.00000000000E+00 0. -1.
         11    1    4    4    0    0  0.92535371340E+01 -0.22421930657E+02 -0.78782852628E+01  0.25503691940E+02  0.00000000000E+00 0.  1.
        -13    1    3    3    0    0  0.70914308371E+02  0.19201988640E+02 -0.83879390023E+01  0.73945338056E+02  0.00000000000E+00 0.  1.
         13    1    3    3    0    0 -0.33534157570E+02 -0.31883146080E+01 -0.17333463544E+02  0.37883426883E+02  0.00000000000E+00 0. -1.
         -4    1    1    2    0  502  0.11012827441E+02  0.40575773771E+02 -0.12726924158E+03  0.13403408386E+03  0.00000000000E+00 0.  1.
<scales pt_clust_5="13000.00000" pt_clust_6="13000.00000" pt_clust_7="13000.00000" pt_clust_8="13000.00000" pt_clust_9="42.04374"></scales>
<clustering>
<clus scale="   42.044">  2  9  1 -1</clus>
<clus scale="   86.941">  5  6 -1 -1</clus>
<clus scale="   98.918">  2  5  1 -1</clus>
<clus scale="  100.947">  7  8 -1 -1</clus>
<clus scale="   42.044">  2  5  1 -1</clus>
</clustering>
</event>
<event>
 9    1  0.1610296E-005  0.1518246E+03  0.7546771E-02  0.1198250E+00
         -2   -1    0    0    0  501 -0.00000000000E+00  0.00000000000E+00  0.55570113826E+03  0.55570113826E+03  0.00000000000E+00 0.  1.
         21   -1    0    0  501  502  0.00000000000E+00 -0.00000000000E+00 -0.20671394795E+03  0.20671394795E+03  0.00000000000E+00 0. -1.
         23    2    1    2    0    0  0.18945103550E+02  0.96041583418E+02  0.22812105992E+03  0.26443553592E+03  0.91126461486E+02 0.  0.
         23    2    1    2    0    0  0.74565919213E+02 -0.17424100562E+03  0.24576464969E+03  0.32345419072E+03  0.91117210827E+02 0.  0.
        -11    1    3    3    0    0 -0.32159479590E+02  0.68244985175E+02  0.12312218572E+03  0.14439765491E+03  0.00000000000E+00 0.  1.
         11    1    3    3    0    0  0.51104583140E+02  0.27796598243E+02  0.10499887421E+03  0.12003788101E+03  0.00000000000E+00 0. -1.
        -13    1    4    4    0    0  0.36799829047E+02 -0.75527971834E+02  0.18086932796E+03  0.19943022776E+03  0.00000000000E+00 0.  1.
         13    1    4    4    0    0  0.37766090166E+02 -0.98713033788E+02  0.64895321728E+02  0.12402396296E+03  0.00000000000E+00 0. -1.
         -2    1    1    2    0  502 -0.93511022763E+02  0.78199422204E+02 -0.12489851930E+03  0.17452535957E+03  0.00000000000E+00 0.  1.
<scales pt_clust_5="13000.00000" pt_clust_6="13000.00000" pt_clust_7="13000.00000" pt_clust_8="13000.00000" pt_clust_9="121.89939"></scales>
<clustering>
<clus scale="   91.117">  7  8 -1 -1</clus>
<clus scale="   91.126">  5  6 -1 -1</clus>
<clus scale="  121.899">  2  9  1 -1</clus>
<clus scale="  151.819">  2  7  1 -1</clus>
<clus scale="  121.899">  2  5  1 -1</clus>
</clustering>
</event>
<event>
 9    1  0.1610296E-005  0.1379355E+03  0.7546771E-02  0.1216180E+00
          1   -1    0    0  502    0 -0.00000000000E+00  0.00000000000E+00  0.51722314301E+03  0.51722314301E+03  0.00000000000E+00 0. -1.
         21   -1    0    0  501  502  0.00000000000E+00 -0.00000000000E+00 -0.69485245730E+02  0.69485245730E+02  0.00000000000E+00 0. -1.
         23    2    1    2    0    0 -0.95200967891E+02 -0.72292597757E+01  0.28362211677E+03  0.31301453934E+03  0.91766607409E+02 0.  0.
         23    2    1    2    0    0  0.12079459616E+03  0.52596160145E+02  0.92690081715E+02  0.18529237936E+03  0.91564862672E+02 0.  0.
        -13    1    4    4    0    0  0.81212427771E+02  0.36156729540E+02  0.10790836545E+03  0.13981052481E+03  0.00000000000E+00 0. -1.
         13    1    4    4    0    0  0.39582168387E+02  0.16439430605E+02 -0.15218283732E+02  0.45481854542E+02  0.00000000000E+00 0.  1.
        -13    1    3    3    0    0 -0.73956213846E+01  0.33007973750E+02  0.99567929351E+02  0.10515699740E+03  0.00000000000E+00 0.  1.
         13    1    3    3    0    0 -0.87805346506E+02 -0.40237233526E+02  0.18405418742E+03  0.20785754195E+03  0.00000000000E+00 0. -1.
          1    1    1    2  501    0 -0.25593628267E+02 -0.45366900369E+02  0.71425698792E+02  0.88401470038E+02  0.00000000000E+00 0. -1.
<scales pt_clust_5="13000.00000" pt_clust_6="13000.00000" pt_clust_7="13000.00000" pt_clust_8="13000.00000" pt_clust_9="52.08831"></scales>
<clustering>
<clus scale="   52.088">  2  9  1 -1</clus>
<clus scale="   91.565">  5  6 -1 -1</clus>
<clus scale="   91.767">  7  8 -1 -1</clus>
<clus scale="  137.801">  2  5  1 -1</clus>
<clus scale="   52.088">  2  5  1 -1</clus>
</clustering>
</event>
<event>
 9    1  0.1610296E-005  0.1101147E+03  0.7546771E-02  0.1262442E+00
          2   -1    0    0  502    0 -0.00000000000E+00  0.00000000000E+00  0.39485114790E+03  0.39485114790E+03  0.00000000000E+00 0. -1.
         21   -1    0    0  501  502  0.00000000000E+00 -0.00000000000E+00 -0.52216267884E+02  0.52216267884E+02  0.00000000000E+00 0.  1.
         23    2    1    2    0    0 -0.28151194412E+02  0.26192530324E+02  0.14811153969E+03  0.17823263825E+03  0.91385484390E+02 0.  0.
         23    2    1    2    0    0  0.37321965415E+02 -0.76670833964E+02  0.10708513854E+03  0.16745627236E+03  0.96452218087E+02 0.  0.
        -13    1    4    4    0    0  0.41341203480E+02 -0.13015857509E+02  0.61819995495E+00  0.43346162725E+02  0.00000000000E+00 0.  1.
         13    1    4    4    0    0 -0.40192380644E+01 -0.63654976455E+02  0.10646693859E+03  0.12411010964E+03  0.00000000000E+00 0. -1.
        -13    1    3    3    0    0 -0.24456871596E+02 -0.24330772859E+02  0.10871797766E+03  0.11406017597E+03  0.00000000000E+00 0. -1.
         13    1    3    3    0    0 -0.36943228158E+01  0.50523303183E+02  0.39393562029E+02  0.64172462279E+02  0.00000000000E+00 0.  1.
          2    1    1    2  501    0 -0.91707710032E+01  0.50478303640E+02  0.87438201783E+02  0.10137850517E+03  0.00000000000E+00 0. -1.
<scales pt_clust_5="13000.00000" pt_clust_6="13000.00000" pt_clust_7="13000.00000" pt_clust_8="13000.00000" pt_clust_9="51.30463"></scales>
<clustering>
<clus scale="   51.305">  2  9  1 -1</clus>
<clus scale="   91.385">  7  8 -1 -1</clus>
<clus scale="   96.452">  5  6 -1 -1</clus>
<clus scale="  105.705">  1  7  2 -1</clus>
<clus scale="   51.305">  2  5  1 -1</clus>
</clustering>
</event>
<event>
 9    1  0.1610296E-005  0.1152493E+03  0.7546771E-02  0.1251202E+00
         -3   -1    0    0    0  501 -0.00000000000E+00  0.00000000000E+00  0.45506418927E+03  0.45506418927E+03  0.00000000000E+00 0.  1.
         21   -1    0    0  501  502  0.00000000000E+00 -0.00000000000E+00 -0.52113449452E+02  0.52113449452E+02  0.00000000000E+00 0.  1.
         23    2    1    2    0    0  0.39730541630E+02  0.67395311071E+02  0.30332007680E+03  0.32645299141E+03  0.91912146721E+02 0.  0.
         23    2    1    2    0    0 -0.17946389727E+02 -0.50832521701E+02  0.10848247277E+03  0.15196304441E+03  0.91751304084E+02 0.  0.
        -11    1    3    3    0    0  0.67268811566E+02  0.50885759068E+02  0.25367066749E+03  0.26732613234E+03  0.00000000000E+00 0.  1.
         11    1    3    3    0    0 -0.27538269936E+02  0.16509552003E+02  0.49649409306E+02  0.59126859065E+02  0.00000000000E+00 0. -1.
        -13    1    4    4    0    0 -0.50826767694E+02 -0.40565712034E+02  0.94664064355E+02  0.11484869345E+03  0.00000000000E+00 0. -1.
         13    1    4    4    0    0  0.32880377967E+02 -0.10266809667E+02  0.13818408417E+02  0.37114350960E+02  0.00000000000E+00 0.  1.
         -3    1    1    2    0  502 -0.21784151903E+02 -0.16562789370E+02 -0.88518097538E+01  0.28761602907E+02  0.00000000000E+00 0.  1.
<scales pt_clust_5="13000.00000" pt_clust_6="13000.00000" pt_clust_7="13000.00000" pt_clust_8="13000.00000" pt_clust_9="27.36559"></scales>
<clustering>
<clus scale="   27.366">  2  9  1 -1</clus>
<clus scale="   91.751">  7  8 -1 -1</clus>
<clus scale="   91.912">  5  6 -1 -1</clus>
<clus scale="  115.121">  2  7  1 -1</clus>
<clus scale="   27.366">  2  5  1 -1</clus>
</clustering>
</event>
<event>
 9    1  0.1610296E-005  0.1556073E+03  0.7546771E-02  0.1195015E+00
         21   -1    0    0  501  502  0.00000000000E+00  0.00000000000E+00  0.80475531857E+02  0.80475531857E+02  0.00000000000E+00 0. -1.
          2   -1    0    0  502    0 -0.00000000000E+00 -0.00000000000E+00 -0.70060982805E+03  0.70060982805E+03  0.00000000000E+00 0. -1.
         23    2    1    2    0    0 -0.29912337368E+02 -0.11000376742E+03 -0.42937051586E+03  0.45237759025E+03  0.85386576821E+02 0.  0.
         23    2    1    2    0    0  0.71889326696E+01  0.16431716626E+03 -0.19271641516E+03  0.26980011991E+03  0.92739830449E+02 0.  0.
        -11    1    4    4    0    0 -0.10970287175E+02  0.15576307579E+03 -0.12758073598E+03  0.20164158096E+03  0.00000000000E+00 0. -1.
         11    1    4    4    0    0  0.18159219845E+02  0.85540904699E+01 -0.65135679185E+02  0.68158538952E+02  0.00000000000E+00 0.  1.
        -13    1    3    3    0    0  0.10276279382E+02 -0.94087371597E+02 -0.23677732995E+03  0.25499321440E+03  0.00000000000E+00 0.  1.
         13    1    3    3    0    0 -0.40188616750E+02 -0.15916395821E+02 -0.19259318591E+03  0.19738437585E+03  0.00000000000E+00 0. -1.
          2    1    1    2  501    0  0.22723404699E+02 -0.54313398840E+02  0.19526348353E+01  0.58907649736E+02  0.00000000000E+00 0. -1.
<scales pt_clust_5="13000.00000" pt_clust_6="13000.00000" pt_clust_7="13000.00000" pt_clust_8="13000.00000" pt_clust_9="58.87528"></scales>
<clustering>
<clus scale="   58.875">  1  9  2 -1</clus>
<clus scale="   85.387">  7  8 -1 -1</clus>
<clus scale="   92.740">  5  6 -1 -1</clus>
<clus scale="  151.340">  2  7  1 -1</clus>
<clus scale="   58.875">  1  5  2 -1</clus>
</clustering>
</event>
<event>
 9    1  0.1610296E-005  0.9428880E+02  0.7546771E-02  0.1293279E+00
          2   -1    0    0  502    0 -0.00000000000E+00  0.00000000000E+00  0.39365919299E+03  0.39365919299E+03  0.00000000000E+00 0. -1.
         21   -1    0    0  501  502  0.00000000000E+00 -0.00000000000E+00 -0.96121307021E+02  0.96121307021E+02  0.00000000000E+00 0. -1.
         23    2    1    2    0    0  0.13250227147E+02 -0.21432981386E+01  0.29609012375E+03  0.31047312327E+03  0.92433958263E+02 0.  0.
         23    2    1    2    0    0 -0.42782513520E+02 -0.35989211155E+02  0.43071985212E+02  0.11559850653E+03  0.91554639527E+02 0.  0.
        -11    1    4    4    0    0 -0.39121097107E+02 -0.73961491755E+01 -0.21237227574E+02  0.45124085548E+02  0.00000000000E+00 0.  1.
         11    1    4    4    0    0 -0.36614164126E+01 -0.28593061980E+02  0.64309212785E+02  0.70474420981E+02  0.00000000000E+00 0. -1.
        -11    1    3    3    0    0 -0.30973885999E+02 -0.12918194087E+02  0.50062960320E+02  0.60270733763E+02  0.00000000000E+00 0. -1.
         11    1    3    3    0    0  0.44224113146E+02  0.10774895949E+02  0.24602716343E+03  0.25020238950E+03  0.00000000000E+00 0.  1.
          2    1    1    2  501    0  0.29532286372E+02  0.38132509294E+02 -0.41624223000E+02  0.63708870213E+02  0.00000000000E+00 0. -1.
<scales pt_clust_5="13000.00000" pt_clust_6="13000.00000" pt_clust_7="13000.00000" pt_clust_8="13000.00000" pt_clust_9="48.23115"></scales>
<clustering>
<clus scale="   48.231">  2  9  1 -1</clus>
<clus scale="   91.555">  5  6 -1 -1</clus>
<clus scale="   92.434">  7  8 -1 -1</clus>
<clus scale="   93.427">  2  5  1 -1</clus>
<clus scale="   48.231">  2  5  1 -1</clus>
</clustering>
</event>
<event>
 9    1  0.1610296E-005  0.1431140E+03  0.7546771E-02  0.1229905E+00
         21   -1    0    0  501  502  0.00000000000E+00  0.00000000000E+00  0.28383332660E+03  0.28383332660E+03  0.00000000000E+00 0.  1.
         -1   -1    0    0    0  501 -0.00000000000E+00 -0.00000000000E+00 -0.34863759525E+03  0.34863759525E+03  0.00000000000E+00 0.  1.
         23    2    1    2    0    0  0.14008542623E+02 -0.14676075770E+02 -0.23216721150E+03  0.24996059714E+03  0.90371785191E+02 0.  0.
         23    2    1    2    0    0  0.70180369116E+02  0.85404474861E+02  0.21839906781E+03  0.26128753251E+03  0.91399197411E+02 0.  0.
        -13    1    4    4    0    0  0.82954487187E+02  0.67340827474E+02  0.21332800261E+03  0.23858975395E+03  0.00000000000E+00 0.  1.
         13    1    4    4    0    0 -0.12774118071E+02  0.18063647388E+02  0.50710652006E+01  0.22697778563E+02  0.00000000000E+00 0. -1.
        -13    1    3    3    0    0  0.26895289916E+02 -0.36400116948E+02 -0.21428586930E+03  0.21901314781E+03  0.00000000000E+00 0.  1.
         13    1    3    3    0    0 -0.12886747293E+02  0.21724041178E+02 -0.17881342207E+02  0.30947449330E+02  0.00000000000E+00 0. -1.
         -1    1    1    2    0  502 -0.84188911740E+02 -0.70728399092E+02 -0.51036124964E+02  0.12122279220E+03  0.00000000000E+00 0.  1.
<scales pt_clust_5="13000.00000" pt_clust_6="13000.00000" pt_clust_7="13000.00000" pt_clust_8="13000.00000" pt_clust_9="110.12639"></scales>
<clustering>
<clus scale="   90.372">  7  8 -1 -1</clus>
<clus scale="   91.399">  5  6 -1 -1</clus>
<clus scale="   92.621">  2  7  1 -1</clus>
<clus scale="  110.126">  1  9  2 -1</clus>
<clus scale="  110.126">  1  5  2 -1</clus>
</clustering>
</event>
<event>
 9    1  0.1610296E-005  0.1476124E+03  0.7546771E-02  0.1225871E+00
         -3   -1    0    0    0  501 -0.00000000000E+00  0.00000000000E+00  0.21848030334E+03  0.21848030334E+03  0.00000000000E+00 0.  1.
         21   -1    0    0  501  502  0.00000000000E+00 -0.00000000000E+00 -0.16311292304E+03  0.16311292304E+03  0.00000000000E+00 0.  1.
         23    2    1    2    0    0 -0.35145360149E+01  0.74511221778E+01  0.67926332695E+02  0.11417340912E+03  0.91398629597E+02 0.  0.
         23    2    1    2    0    0  0.33262466089E+02  0.10539541095E+03  0.20893263398E+02  0.14601829287E+03  0.93114064983E+02 0.  0.
        -11    1    3    3    0    0  0.41048886313E+02 -0.17405519135E-02  0.13014608119E+02  0.43062641525E+02  0.00000000000E+00 0.  1.
         11    1    3    3    0    0 -0.44563422328E+02  0.74528627297E+01  0.54911724576E+02  0.71110767598E+02  0.00000000000E+00 0. -1.
        -13    1    4    4    0    0  0.17901370668E+01  0.75960967602E+02 -0.27880244134E+02  0.80935660884E+02  0.00000000000E+00 0.  1.
         13    1    4    4    0    0  0.31472329023E+02  0.29434443347E+02  0.48773507531E+02  0.65082631985E+02  0.00000000000E+00 0. -1.
         -3    1    1    2    0  502 -0.29747930074E+02 -0.11284653313E+03 -0.33452215798E+02  0.12140152439E+03  0.00000000000E+00 0.  1.
<scales pt_clust_5="13000.00000" pt_clust_6="13000.00000" pt_clust_7="13000.00000" pt_clust_8="13000.00000" pt_clust_9="114.53907"></scales>
<clustering>
<clus scale="   91.399">  5  6 -1 -1</clus>
<clus scale="   91.769">  1  5  2 -1</clus>
<clus scale="   93.114">  7  8 -1 -1</clus>
<clus scale="  114.539">  2  9  1 -1</clus>
<clus scale="  114.539">  2  5  1 -1</clus>
</clustering>
</event>
<event>
 9    1  0.1610296E-005  0.1299852E+03  0.7546771E-02  0.1227624E+00
         -1   -1    0    0    0  501 -0.00000000000E+00  0.00000000000E+00  0.14616897963E+03  0.14616897963E+03  0.00000000000E+00 0.  1.
         21   -1    0    0  501  502  0.00000000000E+00 -0.00000000000E+00 -0.16038698763E+03  0.16038698763E+03  0.00000000000E+00 0. -1.
         23    2    1    2    0    0 -0.16882023803E+02  0.84076759837E+02 -0.95222515141E+01  0.12591316186E+03  0.91703581078E+02 0.  0.
         23    2    1    2    0    0  0.57921071847E+02 -0.84182738455E+02 -0.14546882416E+02  0.13843783677E+03  0.92259627377E+02 0.  0.
        -11    1    3    3    0    0  0.31653137256E+02  0.30879501141E+02 -0.26999349158E+02  0.51811480811E+02  0.00000000000E+00 0.  1.
         11    1    3    3    0    0 -0.48535161059E+02  0.53197258696E+02  0.17477097644E+02  0.74101681046E+02  0.00000000000E+00 0. -1.
        -13    1    4    4    0    0  0.29307022142E+02 -0.83664166392E+02 -0.42608443321E+02  0.98356869242E+02  0.00000000000E+00 0. -1.
         13    1    4    4    0    0  0.28614049705E+02 -0.51857206343E+00  0.28061560905E+02  0.40080967527E+02  0.00000000000E+00 0.  1.
         -1    1    1    2    0  502 -0.41039048044E+02  0.10597861828E+00  0.98511259291E+01  0.42204968640E+02  0.00000000000E+00 0.  1.
<scales pt_clust_5="13000.00000" pt_clust_6="13000.00000" pt_clust_7="13000.00000" pt_clust_8="13000.00000" pt_clust_9="41.03921"></scales>
<clustering>
<clus scale="   41.039">  2  9  1 -1</clus>
<clus scale="   91.704">  5  6 -1 -1</clus>
<clus scale="   92.260">  7  8 -1 -1</clus>
<clus scale="  129.591">  1  5  2 -1</clus>
<clus scale="   41.039">  2  5  1 -1</clus>
</clustering>
</event>
<event>
 9    1  0.1610296E-005  0.1717409E+03  0.7546771E-02  0.1176910E+00
          1   -1    0    0  502    0 -0.00000000000E+00  0.00000000000E+00  0.32722290063E+03  0.32722290063E+03  0.00000000000E+00 0. -1.
         21   -1    0    0  501  502  0.00000000000E+00 -0.00000000000E+00 -0.16152464479E+03  0.16152464479E+03  0.00000000000E+00 0.  1.
         23    2    1    2    0    0 -0.14437521812E+03  0.99236012300E+02  0.17137516868E+03  0.26058903589E+03  0.88573175644E+02 0.  0.
         23    2    1    2    0    0  0.72964137450E+02 -0.74141233064E+02  0.30952680095E+02  0.14406916736E+03  0.94747922323E+02 0.  0.
        -13    1    3    3    0    0 -0.10207833548E+02  0.38436051050E+02  0.79104007744E+01  0.40547556356E+02  0.00000000000E+00 0.  1.
         13    1    3    3    0    0 -0.13416738457E+03  0.60799961251E+02  0.16346476791E+03  0.22004147954E+03  0.00000000000E+00 0. -1.
        -13    1    4    4    0    0  0.51546042189E+02 -0.24784810275E+02 -0.28485712660E+02  0.63896143165E+02  0.00000000000E+00 0. -1.
         13    1    4    4    0    0  0.21418095262E+02 -0.49356422789E+02  0.59438392755E+02  0.80173024194E+02  0.00000000000E+00 0.  1.
          1    1    1    2  501    0  0.71411080665E+02 -0.25094779236E+02 -0.36629592936E+02  0.84089342162E+02  0.00000000000E+00 0. -1.
<scales pt_clust_5="13000.00000" pt_clust_6="13000.00000" pt_clust_7="13000.00000" pt_clust_8="13000.00000" pt_clust_9="75.69208"></scales>
<clustering>
<clus scale="   75.692">  2  9  1 -1</clus>
<clus scale="   88.573">  5  6 -1 -1</clus>
<clus scale="   94.748">  7  8 -1 -1</clus>
<clus scale="  168.413">  1  5  2 -1</clus>
<clus scale="   75.692">  2  5  1 -1</clus>
</clustering>
</event>
<event>
 9    1  0.1610296E-005  0.1350281E+03  0.7546771E-02  0.1222839E+00
         21   -1    0    0  501  502  0.00000000000E+00  0.00000000000E+00  0.21141298362E+03  0.21141298362E+03  0.00000000000E+00 0.  1.
          4   -1    0    0  502    0 -0.00000000000E+00 -0.00000000000E+00 -0.25457782435E+03  0.25457782435E+03  0.00000000000E+00 0. -1.
         23    2    1    2    0    0 -0.10091599032E+02  0.67851821459E+02 -0.69961887957E+02  0.13395832529E+03  0.91347999980E+02 0.  0.
         23    2    1    2    0    0 -0.64506608448E+01 -0.17945976499E+03  0.59427687611E+02  0.21458147965E+03  0.10132197727E+03 0.  0.
        -13    1    3    3    0    0  0.27573699716E+02  0.57713802261E+01  0.60752802044E+01  0.28818861450E+02  0.00000000000E+00 0.  1.
         13    1    3    3    0    0 -0.37665298748E+02  0.62080441233E+02 -0.76037168162E+02  0.10513946384E+03  0.00000000000E+00 0. -1.
        -13    1    4    4    0    0 -0.43771886979E+02 -0.44847571981E+02 -0.27320714825E+00  0.62668632061E+02  0.00000000000E+00 0. -1.
         13    1    4    4    0    0  0.37321226134E+02 -0.13461219301E+03  0.59700894760E+02  0.15191284759E+03  0.00000000000E+00 0.  1.
          4    1    1    2  501    0  0.16542259877E+02  0.11160794353E+03 -0.32630640381E+02  0.11745100303E+03  0.00000000000E+00 0. -1.
<scales pt_clust_5="13000.00000" pt_clust_6="13000.00000" pt_clust_7="13000.00000" pt_clust_8="13000.00000" pt_clust_9="112.82727"></scales>
<clustering>
<clus scale="   91.348">  5  6 -1 -1</clus>
<clus scale="  101.322">  7  8 -1 -1</clus>
<clus scale="  112.827">  1  9  2 -1</clus>
<clus scale="  127.714">  2  5  1 -1</clus>
<clus scale="  112.827">  1  5  2 -1</clus>
</clustering>
</event>
<event>
 9    1  0.1610296E-005  0.9090050E+02  0.7546771E-02  0.1302542E+00
         21   -1    0    0  501  502  0.00000000000E+00  0.00000000000E+00  0.18781563052E+03  0.18781563052E+03  0.00000000000E+00 0.  1.
          3   -1    0    0  502    0 -0.00000000000E+00 -0.00000000000E+00 -0.59095404721E+02  0.59095404721E+02  0.00000000000E+00 0. -1.
         23    2    1    2    0    0 -0.10860722614E+01 -0.11443646567E+01  0.46087741870E+02  0.98500430149E+02  0.87038874450E+02 0.  0.
         23    2    1    2    0    0 -0.27604329481E+02  0.40519488831E+01  0.65835071934E+02  0.11503776811E+03  0.90116669382E+02 0.  0.
        -11    1    3    3    0    0 -0.34194640008E+02 -0.25562051289E+02  0.10168341196E+02  0.43887208092E+02  0.00000000000E+00 0. -1.
         11    1    3    3    0    0  0.33108567747E+02  0.24417686632E+02  0.35919400674E+02  0.54613222058E+02  0.00000000000E+00 0.  1.
        -11    1    4    4    0    0  0.20980839459E+02 -0.21350349752E+02  0.75617576919E+00  0.29943360879E+02  0.00000000000E+00 0. -1.
         11    1    4    4    0    0 -0.48585168940E+02  0.25402298635E+02  0.65078896164E+02  0.85094407236E+02  0.00000000000E+00 0.  1.
          3    1    1    2  501    0  0.28690401742E+02 -0.29075842264E+01  0.16797411997E+02  0.33372836978E+02  0.00000000000E+00 0. -1.
<scales pt_clust_5="13000.00000" pt_clust_6="13000.00000" pt_clust_7="13000.00000" pt_clust_8="13000.00000" pt_clust_9="28.83737"></scales>
<clustering>
<clus scale="   28.837">  1  9  2 -1</clus>
<clus scale="   87.039">  5  6 -1 -1</clus>
<clus scale="   87.850">  2  5  1 -1</clus>
<clus scale="   90.117">  7  8 -1 -1</clus>
<clus scale="   28.837">  1  5  2 -1</clus>
</clustering>
</event>
<event>
 9    1  0.1610296E-005  0.1079967E+03  0.7546771E-02  0.1266325E+00
         -1   -1    0    0    0  501 -0.00000000000E+00  0.00000000000E+00  0.13607233482E+03  0.13607233482E+03  0.00000000000E+00 0.  1.
         21   -1    0    0  501  502  0.00000000000E+00 -0.00000000000E+00 -0.19582535448E+03  0.19582535448E+03  0.00000000000E+00 0. -1.
         23    2    1    2    0    0 -0.21599688712E+02  0.55292312406E+02  0.86989045610E+02  0.13910196713E+03  0.90876162114E+02 0.  0.
         23    2    1    2    0    0 -0.27705069010E+00 -0.56481287749E+02 -0.11557551492E+03  0.15469901299E+03  0.85929461469E+02 0.  0.
        -11    1    4    4    0    0 -0.10986139314E+02 -0.37251301584E+02 -0.18698371962E+01  0.38882528440E+02  0.00000000000E+00 0.  1.
         11    1    4    4    0    0  0.10709088624E+02 -0.19229986165E+02 -0.11370567772E+03  0.11581648455E+03  0.00000000000E+00 0. -1.
        -13    1    3    3    0    0  0.17236917624E+02  0.29791283281E+02 -0.62007825338E+01  0.34972583444E+02  0.00000000000E+00 0. -1.
         13    1    3    3    0    0 -0.38836606336E+02  0.25501029125E+02  0.93189828144E+02  0.10412938369E+03  0.00000000000E+00 0.  1.
         -1    1    1    2    0  502  0.21876739402E+02  0.11889753430E+01 -0.31166550351E+02  0.38096709176E+02  0.00000000000E+00 0.  1.
<scales pt_clust_5="13000.00000" pt_clust_6="13000.00000" pt_clust_7="13000.00000" pt_clust_8="13000.00000" pt_clust_9="21.90903"></scales>
<clustering>
<clus scale="   21.909">  2  9  1 -1</clus>
<clus scale="   85.929">  5  6 -1 -1</clus>
<clus scale="   90.876">  7  8 -1 -1</clus>
<clus scale="  103.869">  2  5  1 -1</clus>
<clus scale="   21.909">  2  5  1 -1</clus>
</clustering>
</event>
<event>
 9    1  0.1610296E-005  0.1634158E+03  0.7546771E-02  0.1185892E+00
         21   -1    0    0  501  502  0.00000000000E+00  0.00000000000E+00  0.49195486586E+03  0.49195486586E+03  0.00000000000E+00 0. -1.
          2   -1    0    0  502    0 -0.00000000000E+00 -0.00000000000E+00 -0.11396069568E+03  0.11396069568E+03  0.00000000000E+00 0. -1.
         23    2    1    2    0    0 -0.53377412944E+01 -0.14736878508E+03 -0.39527562715E+01  0.17585269843E+03  0.95720932738E+02 0.  0.
         23    2    1    2    0    0  0.46207532197E+01  0.96008878567E+02  0.18720213597E+03  0.22865807795E+03  0.89447307261E+02 0.  0.
        -13    1    3    3    0    0  0.18232050022E+02 -0.51555799818E+02  0.40084074511E+02  0.67802220998E+02  0.00000000000E+00 0.  1.
         13    1    3    3    0    0 -0.23569791317E+02 -0.95812985261E+02 -0.44036830782E+02  0.10805047743E+03  0.00000000000E+00 0. -1.
        -13    1    4    4    0    0 -0.14429737737E+02  0.47844434847E+02  0.20360581846E+02  0.53961658333E+02  0.00000000000E+00 0.  1.
         13    1    4    4    0    0  0.19050490957E+02  0.48164443720E+02  0.16684155412E+03  0.17469641962E+03  0.00000000000E+00 0. -1.
          2    1    1    2  501    0  0.71698807477E+00  0.51359906512E+02  0.19474479048E+03  0.20140478517E+03  0.00000000000E+00 0. -1.
<scales pt_clust_5="13000.00000" pt_clust_6="13000.00000" pt_clust_7="13000.00000" pt_clust_8="13000.00000" pt_clust_9="51.36491"></scales>
<clustering>
<clus scale="   51.365">  1  9  2 -1</clus>
<clus scale="   89.447">  7  8 -1 -1</clus>
<clus scale="   95.721">  5  6 -1 -1</clus>
<clus scale="  159.822">  1  7  2 -1</clus>
<clus scale="   51.365">  1  5  2 -1</clus>
</clustering>
</event>
<event>
 9    1  0.1610296E-005  0.1682467E+03  0.7546771E-02  0.1180062E+00
         21   -1    0    0  501  502  0.00000000000E+00  0.00000000000E+00  0.45566901394E+03  0.45566901394E+03  0.00000000000E+00 0. -1.
         -3   -1    0    0    0  501 -0.00000000000E+00 -0.00000000000E+00 -0.81729498881E+02  0.81729498881E+02  0.00000000000E+00 0.  1.
         23    2    1    2    0    0  0.10188181120E+03 -0.10543817160E+03  0.12095113666E+03  0.21124245339E+03  0.92179635327E+02 0.  0.
         23    2    1    2    0    0 -0.10717795357E+03  0.76375528695E+02  0.15688098619E+03  0.22561095923E+03  0.94701245939E+02 0.  0.
        -11    1    3    3    0    0 -0.16593285375E+02 -0.12122456636E+02  0.53859474793E+01  0.21243810974E+02  0.00000000000E+00 0. -1.
         11    1    3    3    0    0  0.11847509658E+03 -0.93315714965E+02  0.11556518918E+03  0.18999864241E+03  0.00000000000E+00 0.  1.
        -13    1    4    4    0    0 -0.11285120390E+03  0.31997309116E+02  0.11000375657E+03  0.16081059813E+03  0.00000000000E+00 0. -1.
         13    1    4    4    0    0  0.56732503232E+01  0.44378219578E+02  0.46877229611E+02  0.64800361096E+02  0.00000000000E+00 0.  1.
         -3    1    1    2    0  502  0.52961423689E+01  0.29062642907E+02  0.96107392211E+02  0.10054510020E+03  0.00000000000E+00 0.  1.
<scales pt_clust_5="13000.00000" pt_clust_6="13000.00000" pt_clust_7="13000.00000" pt_clust_8="13000.00000" pt_clust_9="29.54126"></scales>
<clustering>
<clus scale="   29.541">  1  9  2 -1</clus>
<clus scale="   92.180">  5  6 -1 -1</clus>
<clus scale="   94.701">  7  8 -1 -1</clus>
<clus scale="  166.840">  2  5  1 -1</clus>
<clus scale="   29.541">  1  5  2 -1</clus>
</clustering>
</event>
<event>
 9    1  0.1610296E-005  0.1392801E+03  0.7546771E-02  0.1218127E+00
          4   -1    0    0  502    0 -0.00000000000E+00  0.00000000000E+00  0.29495796854E+03  0.29495796854E+03  0.00000000000E+00 0. -1.
         21   -1    0    0  501  502  0.00000000000E+00 -0.00000000000E+00 -0.16931692315E+03  0.16931692315E+03  0.00000000000E+00 0. -1.
         23    2    1    2    0    0  0.75143661295E+02  0.38301340388E+02  0.20386052168E+03  0.23900514436E+03  0.91928147071E+02 0.  0.
         23    2    1    2    0    0 -0.99206595840E+02 -0.76254797042E+02 -0.48287861578E+02  0.17127538420E+03  0.10652134493E+03 0.  0.
        -11    1    3    3    0    0  0.50976635924E+02 -0.20343377337E+02  0.57494997817E+02  0.79486761071E+02  0.00000000000E+00 0. -1.
         11    1    3    3    0    0  0.24167025371E+02  0.58644717725E+02  0.14636552386E+03  0.15951838329E+03  0.00000000000E+00 0.  1.
        -13    1    4    4    0    0 -0.60124417997E+02  0.17078437513E+02 -0.25815832510E+02  0.67624521260E+02  0.00000000000E+00 0.  1.
         13    1    4    4    0    0 -0.39082177843E+02 -0.93333234556E+02 -0.22472029068E+02  0.10365086294E+03  0.00000000000E+00 0. -1.
          4    1    1    2  501    0  0.24062934545E+02  0.37953456654E+02 -0.29931614710E+02  0.53994363132E+02  0.00000000000E+00 0. -1.
<scales pt_clust_5="13000.00000" pt_clust_6="13000.00000" pt_clust_7="13000.00000" pt_clust_8="13000.00000" pt_clust_9="44.93873"></scales>
<clustering>
<clus scale="   44.939">  2  9  1 -1</clus>
<clus scale="   91.928">  5  6 -1 -1</clus>
<clus scale="  106.521">  7  8 -1 -1</clus>
<clus scale="  128.464">  1  5  2 -1</clus>
<clus scale="   44.939">  2  5  1 -1</clus>
</clustering>
</event>
<event>
 9    1  0.1610296E-005  0.1669657E+03  0.7546771E-02  0.1181069E+00
         21   -1    0    0  501  502  0.00000000000E+00  0.00000000000E+00  0.19209625772E+03  0.19209625772E+03  0.00000000000E+00 0. -1.
          2   -1    0    0  502    0 -0.00000000000E+00 -0.00000000000E+00 -0.31894913631E+03  0.31894913631E+03  0.00000000000E+00 0. -1.
         23    2    1    2    0    0 -0.14921971900E+03  0.55171979566E+02 -0.17582686896E+03  0.25431117582E+03  0.91916344740E+02 0.  0.
         23    2    1    2    0    0  0.74249160605E+02 -0.90871708376E+02 -0.17773868158E+02  0.15019628187E+03  0.92045681395E+02 0.  0.
        -11    1    4    4    0    0 -0.17415874123E+02 -0.14426347476E+02 -0.20905167971E+02  0.30797048899E+02  0.00000000000E+00 0.  1.
         11    1    4    4    0    0  0.91665034728E+02 -0.76445360899E+02  0.31312998128E+01  0.11939923297E+03  0.00000000000E+00 0. -1.
        -13    1    3    3    0    0 -0.97513296291E+02  0.39003429451E-01 -0.14013071295E+03  0.17072041819E+03  0.00000000000E+00 0. -1.
         13    1    3    3    0    0 -0.51706422708E+02  0.55132976137E+02 -0.35696156009E+02  0.83590757628E+02  0.00000000000E+00 0.  1.
          2    1    1    2  501    0  0.74970558394E+02  0.35699728809E+02  0.66747858528E+02  0.10653793635E+03  0.00000000000E+00 0. -1.
<scales pt_clust_5="13000.00000" pt_clust_6="13000.00000" pt_clust_7="13000.00000" pt_clust_8="13000.00000" pt_clust_9="83.03647"></scales>
<clustering>
<clus scale="   83.036">  1  9  2 -1</clus>
<clus scale="   91.916">  7  8 -1 -1</clus>
<clus scale="   92.046">  5  6 -1 -1</clus>
<clus scale="  166.894">  2  7  1 -1</clus>
<clus scale="   83.036">  1  5  2 -1</clus>
</clustering>
</event>
<event>
 9    1  0.1610296E-005  0.9869437E+02  0.7546771E-02  0.1287392E+00
         -1   -1    0    0    0  501 -0.00000000000E+00  0.00000000000E+00  0.34193572904E+02  0.34193572904E+02  0.00000000000E+00 0.  1.
         21   -1    0    0  501  502  0.00000000000E+00 -0.00000000000E+00 -0.34056367280E+03  0.34056367280E+03  0.00000000000E+00 0. -1.
         23    2    1    2    0    0  0.85922852410E+01  0.40916637209E+02 -0.12828453346E+03  0.16293371885E+03  0.91337159187E+02 0.  0.
         23    2    1    2    0    0 -0.25107366928E+02 -0.25972855485E+02 -0.12530164137E+03  0.15453297544E+03  0.82915439291E+02 0.  0.
        -11    1    3    3    0    0  0.43257711872E+02  0.47483664964E+02 -0.93081197224E+02  0.11309304732E+03  0.00000000000E+00 0.  1.
         11    1    3    3    0    0 -0.34665426631E+02 -0.65670277550E+01 -0.35203336234E+02  0.49840671535E+02  0.00000000000E+00 0. -1.
        -11    1    4    4    0    0  0.19565123355E+02  0.12706904388E+02 -0.69297496165E+02  0.73119097681E+02  0.00000000000E+00 0.  1.
         11    1    4    4    0    0 -0.44672490283E+02 -0.38679759873E+02 -0.56004145208E+02  0.81413877763E+02  0.00000000000E+00 0. -1.
         -1    1    1    2    0  502  0.16515081686E+02 -0.14943781724E+02 -0.52783925062E+02  0.57290551405E+02  0.00000000000E+00 0.  1.
<scales pt_clust_5="13000.00000" pt_clust_6="13000.00000" pt_clust_7="13000.00000" pt_clust_8="13000.00000" pt_clust_9="22.27251"></scales>
<clustering>
<clus scale="   22.273">  2  9  1 -1</clus>
<clus scale="   82.915">  7  8 -1 -1</clus>
<clus scale="   90.956">  2  7  1 -1</clus>
<clus scale="   91.337">  5  6 -1 -1</clus>
<clus scale="   22.273">  2  5  1 -1</clus>
</clustering>
</event>
<event>
 9    1  0.1610296E-005  0.1496256E+03  0.7546771E-02  0.1200970E+00
         -3   -1    0    0    0  501 -0.00000000000E+00  0.00000000000E+00  0.68903168238E+03  0.68903168238E+03  0.00000000000E+00 0.  1.
         21   -1    0    0  501  502  0.00000000000E+00 -0.00000000000E+00 -0.38951603400E+02  0.38951603400E+02  0.00000000000E+00 0. -1.
         23    2    1    2    0    0 -0.73555905175E+02 -0.80848626059E+02  0.29739025484E+03  0.32956053597E+03  0.90676411872E+02 0.  0.
         23    2    1    2    0    0  0.94708291699E+02  0.88681261394E+02  0.33183589400E+03  0.36770369979E+03  0.90867616092E+02 0.  0.
        -13    1    4    4    0    0  0.92483974427E+02  0.31069937764E+02  0.17138933850E+03  0.19721291010E+03  0.00000000000E+00 0.  1.
         13    1    4    4    0    0  0.22243172720E+01  0.57611323630E+02  0.16044655551E+03  0.17049078970E+03  0.00000000000E+00 0. -1.
        -13    1    3    3    0    0  0.17819324441E+02 -0.27409285315E+02  0.42931067135E+02  0.53961780644E+02  0.00000000000E+00 0. -1.
         13    1    3    3    0    0 -0.91375229616E+02 -0.53439340744E+02  0.25445918771E+03  0.27559875532E+03  0.00000000000E+00 0.  1.
         -3    1    1    2    0  502 -0.21152386524E+02 -0.78326353343E+01  0.20853930132E+02  0.30719050016E+02  0.00000000000E+00 0.  1.
<scales pt_clust_5="13000.00000" pt_clust_6="13000.00000" pt_clust_7="13000.00000" pt_clust_8="13000.00000" pt_clust_9="22.55601"></scales>
<clustering>
<clus scale="   22.556">  2  9  1 -1</clus>
<clus scale="   90.676">  7  8 -1 -1</clus>
<clus scale="   90.868">  5  6 -1 -1</clus>
<clus scale="  149.510">  1  7  2 -1</clus>
<clus scale="   22.556">  2  5  1 -1</clus>
</clustering>
</event>
<event>
 9    1  0.1610296E-005  0.1154943E+03  0.7546771E-02  0.1251986E+00
         21   -1    0    0  501  502  0.00000000000E+00  0.00000000000E+00  0.13055581814E+03  0.13055581814E+03  0.00000000000E+00 0. -1.
         -1   -1    0    0    0  501 -0.00000000000E+00 -0.00000000000E+00 -0.21045300449E+03  0.21045300449E+03  0.00000000000E+00 0.  1.
         23    2    1    2    0    0  0.14258802643E+02  0.59840771868E+02 -0.10447598253E+03  0.15507758978E+03  0.96693311540E+02 0.  0.
         23    2    1    2    0    0 -0.39898996910E+02 -0.56297238853E+02 -0.34843878425E+02  0.12111587629E+03  0.93239747790E+02 0.  0.
        -11    1    4    4    0    0 -0.20348602497E+02  0.10165899666E+02 -0.45646183131E+02  0.50999854647E+02  0.00000000000E+00 0. -1.
         11    1    4    4    0    0 -0.19550394414E+02 -0.66463138519E+02  0.10802304706E+02  0.70116021639E+02  0.00000000000E+00 0.  1.
        -11    1    3    3    0    0 -0.17414833854E+02  0.46229824199E+02 -0.48300992042E+01  0.49636709621E+02  0.00000000000E+00 0. -1.
         11    1    3    3    0    0  0.31673636497E+02  0.13610947669E+02 -0.99645883329E+02  0.10544088016E+03  0.00000000000E+00 0.  1.
         -1    1    1    2    0  502  0.25640194268E+02 -0.35435330145E+01  0.59422674610E+02  0.64815356561E+02  0.00000000000E+00 0.  1.
<scales pt_clust_5="13000.00000" pt_clust_6="13000.00000" pt_clust_7="13000.00000" pt_clust_8="13000.00000" pt_clust_9="25.88390"></scales>
<clustering>
<clus scale="   25.884">  1  9  2 -1</clus>
<clus scale="   93.240">  5  6 -1 -1</clus>
<clus scale="   96.693">  7  8 -1 -1</clus>
<clus scale="  112.619">  1  5  2 -1</clus>
<clus scale="   25.884">  1  5  2 -1</clus>
</clustering>
</event>
<event>
 9    1  0.1610296E-005  0.1475681E+03  0.7546771E-02  0.1203720E+00
         21   -1    0    0  501  502  0.00000000000E+00  0.00000000000E+00  0.28518744197E+03  0.28518744197E+03  0.00000000000E+00 0. -1.
         -2   -1    0    0    0  501 -0.00000000000E+00 -0.00000000000E+00 -0.14682300352E+03  0.14682300352E+03  0.00000000000E+00 0.  1.
         23    2    1    2    0    0 -0.83658511983E+02 -0.10586343387E+03 -0.19445971087E+02  0.16478976586E+03  0.92583518426E+02 0.  0.
         23    2    1    2    0    0  0.62291778826E+02  0.68118396161E+02  0.31525085878E+02  0.13369462176E+03  0.91433250200E+02 0.  0.
        -11    1    3    3    0    0  0.20212380532E+02 -0.23771597440E+02 -0.51635811723E+01  0.31627389114E+02  0.00000000000E+00 0.  1.
         11    1    3    3    0    0 -0.10387089251E+03 -0.82091836429E+02 -0.14282389914E+02  0.13316237675E+03  0.00000000000E+00 0. -1.
        -13    1    4    4    0    0  0.54722704879E+02  0.18797732176E+02 -0.20710674741E+02  0.61456173103E+02  0.00000000000E+00 0.  1.
         13    1    4    4    0    0  0.75690739469E+01  0.49320663985E+02  0.52235760619E+02  0.72238448653E+02  0.00000000000E+00 0. -1.
         -2    1    1    2    0  502  0.21366733156E+02  0.37745037708E+02  0.12628532366E+03  0.13352605786E+03  0.00000000000E+00 0.  1.
<scales pt_clust_5="13000.00000" pt_clust_6="13000.00000" pt_clust_7="13000.00000" pt_clust_8="13000.00000" pt_clust_9="43.37309"></scales>
<clustering>
<clus scale="   43.373">  1  9  2 -1</clus>
<clus scale="   91.433">  7  8 -1 -1</clus>
<clus scale="   92.584">  5  6 -1 -1</clus>
<clus scale="  146.849">  1  7  2 -1</clus>
<clus scale="   43.373">  1  5  2 -1</clus>
</clustering>
</event>
<event>
 9    1  0.1610296E-005  0.3380962E+03  0.7546771E-02  0.1081286E+00
         -2   -1    0    0    0  501 -0.00000000000E+00  0.00000000000E+00  0.36801582385E+03  0.36801582385E+03  0.00000000000E+00 0. -1.
         21   -1    0    0  501  502  0.00000000000E+00 -0.00000000000E+00 -0.70013987967E+03  0.70013987967E+03  0.00000000000E+00 0. -1.
         23    2    1    2    0    0  0.17448804373E+03  0.12557231908E+03 -0.16482641548E+02  0.23357619284E+03  0.89842504810E+02 0.  0.
         23    2    1    2    0    0  0.18218678913E+03 -0.18985954245E+03  0.87494134431E+02  0.29248352830E+03  0.93019991272E+02 0.  0.
        -13    1    3    3    0    0  0.29678094988E+02 -0.36358248029E+01 -0.25494095490E+02  0.39293223957E+02  0.00000000000E+00 0.  1.
         13    1    3    3    0    0  0.14480994874E+03  0.12920814388E+03  0.90114539421E+01  0.19428296889E+03  0.00000000000E+00 0. -1.
        -13    1    4    4    0    0 -0.64023553263E+00 -0.46382742464E+02  0.19672434315E+02  0.50386241891E+02  0.00000000000E+00 0.  1.
         13    1    4    4    0    0  0.18282702467E+03 -0.14347679998E+03  0.67821700116E+02  0.24209728641E+03  0.00000000000E+00 0. -1.
         -2    1    1    2    0  502 -0.35667483286E+03  0.64287223370E+02 -0.40313554870E+03  0.54209598238E+03  0.00000000000E+00 0. -1.
<scales pt_clust_5="13000.00000" pt_clust_6="13000.00000" pt_clust_7="13000.00000" pt_clust_8="13000.00000" pt_clust_9="325.04822"></scales>
<clustering>
<clus scale="   89.843">  5  6 -1 -1</clus>
<clus scale="   93.020">  7  8 -1 -1</clus>
<clus scale="  232.994">  1  5  2 -1</clus>
<clus scale="  325.048">  2  9  1 -1</clus>
<clus scale="  325.048">  2  5  1 -1</clus>
</clustering>
</event>
<event>
 9    1  0.1610296E-005  0.1136884E+03  0.7546771E-02  0.1255030E+00
          2   -1    0    0  502    0 -0.00000000000E+00  0.00000000000E+00  0.41395097172E+03  0.41395097172E+03  0.00000000000E+00 0. -1.
         21   -1    0    0  501  502  0.00000000000E+00 -0.00000000000E+00 -0.41014773583E+02  0.41014773583E+02  0.00000000000E+00 0. -1.
         23    2    1    2    0    0  0.65483257350E+02 -0.71996218287E+01  0.19835048353E+03  0.22822105367E+03  0.91662661290E+02 0.  0.
         23    2    1    2    0    0 -0.69024813012E+02 -0.20819584108E+02  0.15450010855E+03  0.19208852207E+03  0.88486365486E+02 0.  0.
        -11    1    4    4    0    0 -0.39680583572E+02 -0.52753970915E+02  0.11883244244E+03  0.13593630691E+03  0.00000000000E+00 0. -1.
         11    1    4    4    0    0 -0.29344229439E+02  0.31934386807E+02  0.35667666108E+02  0.56152215163E+02  0.00000000000E+00 0.  1.
        -13    1    3    3    0    0 -0.63650771693E+01  0.27194927281E+02  0.86555760933E+02  0.90950415215E+02  0.00000000000E+00 0.  1.
         13    1    3    3    0    0  0.71848334520E+02 -0.34394549110E+02  0.11179472260E+03  0.13727063846E+03  0.00000000000E+00 0. -1.
          2    1    1    2  501    0  0.35415556615E+01  0.28019205936E+02  0.20085606060E+02  0.34656169560E+02  0.00000000000E+00 0. -1.
<scales pt_clust_5="13000.00000" pt_clust_6="13000.00000" pt_clust_7="13000.00000" pt_clust_8="13000.00000" pt_clust_9="28.24214"></scales>
<clustering>
<clus scale="   28.242">  2  9  1 -1</clus>
<clus scale="   88.486">  5  6 -1 -1</clus>
<clus scale="   91.663">  7  8 -1 -1</clus>
<clus scale="  111.143">  2  5  1 -1</clus>
<clus scale="   28.242">  2  5  1 -1</clus>
</clustering>
</event>
<event>
 9    1  0.1610296E-005  0.1134871E+03  0.7546771E-02  0.1254569E+00
         21   -1    0    0  501  502  0.00000000000E+00  0.00000000000E+00  0.25925902902E+03  0.25925902902E+03  0.00000000000E+00 0.  1.
          1   -1    0    0  502    0 -0.00000000000E+00 -0.00000000000E+00 -0.10459926344E+03  0.10459926344E+03  0.00000000000E+00 0. -1.
         23    2    1    2    0    0 -0.22988499205E+02  0.53107070325E+02 -0.17496701107E+02  0.10963175329E+03  0.91455753043E+02 0.  0.
         23    2    1    2    0    0  0.36284829508E+02 -0.92076582025E+02  0.16330126247E+03  0.21210967932E+03  0.92350029390E+02 0.  0.
        -11    1    4    4    0    0  0.32574064448E+02 -0.42196862282E+02  0.14671060051E+02  0.55289102580E+02  0.00000000000E+00 0. -1.
         11    1    4    4    0    0  0.37107650602E+01 -0.49879719743E+02  0.14863020242E+03  0.15682057674E+03  0.00000000000E+00 0.  1.
        -13    1    3    3    0    0  0.32852624572E+02  0.29260898489E+02  0.62455959314E+01  0.44435375437E+02  0.00000000000E+00 0.  1.
         13    1    3    3    0    0 -0.55841123777E+02  0.23846171835E+02 -0.23742297038E+02  0.65196377848E+02  0.00000000000E+00 0. -1.
          1    1    1    2  501    0 -0.13296330303E+02  0.38969511701E+02  0.88552042132E+01  0.42116859847E+02  0.00000000000E+00 0. -1.
<scales pt_clust_5="13000.00000" pt_clust_6="13000.00000" pt_clust_7="13000.00000" pt_clust_8="13000.00000" pt_clust_9="41.17544"></scales>
<clustering>
<clus scale="   41.175">  1  9  2 -1</clus>
<clus scale="   91.456">  7  8 -1 -1</clus>
<clus scale="   92.350">  5  6 -1 -1</clus>
<clus scale="  112.761">  2  7  1 -1</clus>
<clus scale="   41.175">  1  5  2 -1</clus>
</clustering>
</event>
<event>
 9    1  0.1610296E-005  0.1943967E+03  0.7546771E-02  0.1154641E+00
         21   -1    0    0  501  502  0.00000000000E+00  0.00000000000E+00  0.99913847561E+02  0.99913847561E+02  0.00000000000E+00 0.  1.
          1   -1    0    0  502    0 -0.00000000000E+00 -0.00000000000E+00 -0.10342764055E+04  0.10342764055E+04  0.00000000000E+00 0. -1.
         23    2    1    2    0    0  0.16164739655E+03  0.56424208582E+02 -0.83681139363E+03  0.85908544307E+03  0.91983247698E+02 0.  0.
         23    2    1    2    0    0 -0.15392531123E+03 -0.78482019454E+02 -0.13034294651E+03  0.23483722252E+03  0.91141694969E+02 0.  0.
        -11    1    4    4    0    0 -0.11340102041E+03 -0.70849733444E+02 -0.46793557470E+02  0.14166549749E+03  0.00000000000E+00 0.  1.
         11    1    4    4    0    0 -0.40524290824E+02 -0.76322860098E+01 -0.83549389037E+02  0.93171725029E+02  0.00000000000E+00 0. -1.
        -11    1    3    3    0    0  0.42969045961E+02  0.24245727097E+01 -0.77386173010E+02  0.88548502171E+02  0.00000000000E+00 0.  1.
         11    1    3    3    0    0  0.11867835059E+03  0.53999635873E+02 -0.75942522062E+03  0.77053694090E+03  0.00000000000E+00 0. -1.
          1    1    1    2  501    0 -0.77220853158E+01  0.22057810872E+02  0.32791782190E+02  0.40267587478E+02  0.00000000000E+00 0. -1.
<scales pt_clust_5="13000.00000" pt_clust_6="13000.00000" pt_clust_7="13000.00000" pt_clust_8="13000.00000" pt_clust_9="23.37044"></scales>
<clustering>
<clus scale="   23.370">  1  9  2 -1</clus>
<clus scale="   91.142">  5  6 -1 -1</clus>
<clus scale="   91.983">  7  8 -1 -1</clus>
<clus scale="  194.000">  1  5  2 -1</clus>
<clus scale="   23.370">  1  5  2 -1</clus>
</clustering>
</event>
<event>
 9    1  0.1610296E-005  0.1032921E+03  0.7546771E-02  0.1273726E+00
          1   -1    0    0  502    0 -0.00000000000E+00  0.00000000000E+00  0.32688227289E+03  0.32688227289E+03  0.00000000000E+00 0. -1.
         21   -1    0    0  501  502  0.00000000000E+00 -0.00000000000E+00 -0.10654978410E+03  0.10654978410E+03  0.00000000000E+00 0.  1.
         23    2    1    2    0    0 -0.41155642414E+02 -0.43991478658E+02  0.23202939710E+03  0.25661382197E+03  0.91564050871E+02 0.  0.
         23    2    1    2    0    0  0.65729472478E+01  0.14638672820E+02  0.45432863596E+02  0.10387057671E+03  0.92018787393E+02 0.  0.
        -11    1    4    4    0    0 -0.29186407742E+02  0.67513075705E+01 -0.14774018561E+02  0.33402068428E+02  0.00000000000E+00 0.  1.
         11    1    4    4    0    0  0.35759354990E+02  0.78873652492E+01  0.60206882158E+02  0.70468508279E+02  0.00000000000E+00 0. -1.
        -11    1    3    3    0    0 -0.67260523239E+02 -0.35965396929E+02  0.12747097883E+03  0.14854742747E+03  0.00000000000E+00 0.  1.
         11    1    3    3    0    0  0.26104880825E+02 -0.80260817287E+01  0.10455841826E+03  0.10806639450E+03  0.00000000000E+00 0. -1.
          1    1    1    2  501    0  0.34582695166E+02  0.29352805838E+02 -0.57129771905E+02  0.72947658314E+02  0.00000000000E+00 0. -1.
<scales pt_clust_5="13000.00000" pt_clust_6="13000.00000" pt_clust_7="13000.00000" pt_clust_8="13000.00000" pt_clust_9="45.36023"></scales>
<clustering>
<clus scale="   45.360">  2  9  1 -1</clus>
<clus scale="   91.564">  7  8 -1 -1</clus>
<clus scale="   92.019">  5  6 -1 -1</clus>
<clus scale="  102.887">  1  7  2 -1</clus>
<clus scale="   45.360">  2  5  1 -1</clus>
</clustering>
</event>
<event>
 9    1  0.1610296E-005  0.1020208E+03  0.7546771E-02  0.1276314E+00
         21   -1    0    0  501  502  0.00000000000E+00  0.00000000000E+00  0.51386948230E+02  0.51386948230E+02  0.00000000000E+00 0. -1.
          1   -1    0    0  502    0 -0.00000000000E+00 -0.00000000000E+00 -0.32299080353E+03  0.32299080353E+03  0.00000000000E+00 0. -1.
         23    2    1    2    0    0  0.36286201147E+02 -0.23022779544E+02 -0.20828734678E+03  0.23124659168E+03  0.90799948016E+02 0.  0.
         23    2    1    2    0    0 -0.38895272265E+02  0.43613941761E+02 -0.52195749694E+02  0.11958387807E+03  0.90337641586E+02 0.  0.
        -13    1    4    4    0    0  0.23402727665E+02  0.35931325526E+02 -0.32471289997E+02  0.53787847050E+02  0.00000000000E+00 0.  1.
         13    1    4    4    0    0 -0.62297999930E+02  0.76826162343E+01 -0.19724459697E+02  0.65796031018E+02  0.00000000000E+00 0. -1.
        -13    1    3    3    0    0 -0.51658025073E+01  0.28486954805E+02 -0.10238277067E+03  0.10639748042E+03  0.00000000000E+00 0.  1.
         13    1    3    3    0    0  0.41452003654E+02 -0.51509734348E+02 -0.10590457612E+03  0.12484911126E+03  0.00000000000E+00 0. -1.
          1    1    1    2  501    0  0.26090711181E+01 -0.20591162217E+02 -0.11120758821E+02  0.23547282016E+02  0.00000000000E+00 0. -1.
<scales pt_clust_5="13000.00000" pt_clust_6="13000.00000" pt_clust_7="13000.00000" pt_clust_8="13000.00000" pt_clust_9="20.75580"></scales>
<clustering>
<clus scale="   20.756">  1  9  2 -1</clus>
<clus scale="   90.338">  5  6 -1 -1</clus>
<clus scale="   90.800">  7  8 -1 -1</clus>
<clus scale="  101.610">  1  5  2 -1</clus>
<clus scale="   20.756">  1  5  2 -1</clus>
</clustering>
</event>
<event>
 9    1  0.1610296E-005  0.1260678E+03  0.7546771E-02  0.1233677E+00
         21   -1    0    0  501  502  0.00000000000E+00  0.00000000000E+00  0.35140672388E+02  0.35140672388E+02  0.00000000000E+00 0.  1.
         -1   -1    0    0    0  501 -0.00000000000E+00 -0.00000000000E+00 -0.57270230595E+03  0.57270230595E+03  0.00000000000E+00 0.  1.
         23    2    1    2    0    0  0.72945559214E+02 -0.22464963436E+02 -0.20538694245E+03  0.23742257085E+03  0.91432772189E+02 0.  0.
         23    2    1    2    0    0 -0.96878762307E+02  0.18246622390E+02 -0.23673218947E+03  0.27193252127E+03  0.90480565751E+02 0.  0.
        -11    1    3    3    0    0  0.65100032311E+02 -0.54720915119E+02 -0.15992107193E+03  0.18112741926E+03  0.00000000000E+00 0. -1.
         11    1    3    3    0    0  0.78455269033E+01  0.32255951683E+02 -0.45465870514E+02  0.56295151593E+02  0.00000000000E+00 0.  1.
        -11    1    4    4    0    0 -0.78902327603E+02  0.48804770485E+02 -0.20206767783E+03  0.22234844130E+03  0.00000000000E+00 0.  1.
         11    1    4    4    0    0 -0.17976434704E+02 -0.30558148096E+02 -0.34664511642E+02  0.49584079976E+02  0.00000000000E+00 0. -1.
         -1    1    1    2    0  502  0.23933203093E+02  0.42183410468E+01 -0.95442501640E+02  0.98487886213E+02  0.00000000000E+00 0.  1.
<scales pt_clust_5="13000.00000" pt_clust_6="13000.00000" pt_clust_7="13000.00000" pt_clust_8="13000.00000" pt_clust_9="24.30212"></scales>
<clustering>
<clus scale="   24.302">  1  9  2 -1</clus>
<clus scale="   90.481">  7  8 -1 -1</clus>
<clus scale="   91.433">  5  6 -1 -1</clus>
<clus scale="  125.379">  1  7  2 -1</clus>
<clus scale="   24.302">  1  5  2 -1</clus>
</clustering>
</event>
<event>
 9    1  0.1610296E-005  0.1010017E+03  0.7546771E-02  0.1278398E+00
         -4   -1    0    0    0  501 -0.00000000000E+00  0.00000000000E+00  0.28982349549E+03  0.28982349549E+03  0.00000000000E+00 0.  1.
         21   -1    0    0  501  502  0.00000000000E+00 -0.00000000000E+00 -0.48510556998E+02  0.48510556998E+02  0.00000000000E+00 0. -1.
         23    2    1    2    0    0  0.28703674943E+02 -0.37656800454E+02  0.15644811431E+03  0.18762758666E+03  0.92120373593E+02 0.  0.
         23    2    1    2    0    0 -0.45394718747E+01  0.35302718879E+02  0.77799103518E+02  0.12542060379E+03  0.91710078960E+02 0.  0.
        -11    1    3    3    0    0  0.99274872558E+01  0.23175363258E+02  0.85723486591E+01  0.26629638129E+02  0.00000000000E+00 0.  1.
         11    1    3    3    0    0  0.18776187687E+02 -0.60832163713E+02  0.14787576565E+03  0.16099794853E+03  0.00000000000E+00 0. -1.
        -13    1    4    4    0    0  0.16510699593E+02 -0.13304620336E+02 -0.95579565075E+01  0.23258775890E+02  0.00000000000E+00 0. -1.
         13    1    4    4    0    0 -0.21050171467E+02  0.48607339215E+02  0.87357060026E+02  0.10216182790E+03  0.00000000000E+00 0.  1.
         -4    1    1    2    0  502 -0.24164203068E+02  0.23540815749E+01  0.70657206646E+01  0.25285862028E+02  0.00000000000E+00 0.  1.
<scales pt_clust_5="13000.00000" pt_clust_6="13000.00000" pt_clust_7="13000.00000" pt_clust_8="13000.00000" pt_clust_9="24.27860"></scales>
<clustering>
<clus scale="   24.279">  2  9  1 -1</clus>
<clus scale="   91.710">  7  8 -1 -1</clus>
<clus scale="   92.120">  5  6 -1 -1</clus>
<clus scale="  100.628">  2  7  1 -1</clus>
<clus scale="   24.279">  2  5  1 -1</clus>
</clustering>
</event>
<event>
 9    1  0.1610296E-005  0.1047784E+03  0.7546771E-02  0.1271296E+00
         21   -1    0    0  501  502  0.00000000000E+00  0.00000000000E+00  0.43618506031E+02  0.43618506031E+02  0.00000000000E+00 0. -1.
          1   -1    0    0  502    0 -0.00000000000E+00 -0.00000000000E+00 -0.67807311241E+03  0.67807311241E+03  0.00000000000E+00 0. -1.
         23    2    1    2    0    0 -0.23983794482E+02  0.40542813995E+02 -0.42766764802E+03  0.43919653633E+03  0.88176177010E+02 0.  0.
         23    2    1    2    0    0  0.23818158161E+02 -0.90884359854E+02 -0.98693463705E+02  0.16325372075E+03  0.89911656839E+02 0.  0.
        -11    1    3    3    0    0  0.32341914687E+02  0.26772334292E+02 -0.17993688010E+03  0.18477023069E+03  0.00000000000E+00 0. -1.
         11    1    3    3    0    0 -0.56325709169E+02  0.13770479703E+02 -0.24773076793E+03  0.25442630564E+03  0.00000000000E+00 0.  1.
        -13    1    4    4    0    0 -0.84472191110E+00 -0.98290878036E+02 -0.55266950256E+02  0.11276633385E+03  0.00000000000E+00 0. -1.
         13    1    4    4    0    0  0.24662880072E+02  0.74065181819E+01 -0.43426513449E+02  0.50487386894E+02  0.00000000000E+00 0.  1.
          1    1    1    2  501    0  0.16563632150E+00  0.50341545858E+02 -0.10809349466E+03  0.11924136137E+03  0.00000000000E+00 0. -1.
<scales pt_clust_5="13000.00000" pt_clust_6="13000.00000" pt_clust_7="13000.00000" pt_clust_8="13000.00000" pt_clust_9="50.34184"></scales>
<clustering>
<clus scale="   50.342">  1  9  2 -1</clus>
<clus scale="   88.176">  5  6 -1 -1</clus>
<clus scale="   89.912">  7  8 -1 -1</clus>
<clus scale="  103.293">  2  5  1 -1</clus>
<clus scale="   50.342">  1  5  2 -1</clus>
</clustering>
</event>
<event>
 9    1  0.1610296E-005  0.1430742E+03  0.7546771E-02  0.1209302E+00
         21   -1    0    0  501  502  0.00000000000E+00  0.00000000000E+00  0.12779391981E+03  0.12779391981E+03  0.00000000000E+00 0. -1.
          2   -1    0    0  502    0 -0.00000000000E+00 -0.00000000000E+00 -0.29105002427E+03  0.29105002427E+03  0.00000000000E+00 0. -1.
         23    2    1    2    0    0  0.10508320318E+03  0.51259291684E+02 -0.18897789900E+03  0.24033599193E+03  0.91535502035E+02 0.  0.
         23    2    1    2    0    0 -0.63451812115E+02 -0.69206467120E+02  0.18193762138E+02  0.13255204829E+03  0.91778891766E+02 0.  0.
        -11    1    4    4    0    0 -0.41835576824E+02 -0.13178764345E+02  0.48410125688E+02  0.65325612029E+02  0.00000000000E+00 0.  1.
         11    1    4    4    0    0 -0.21616235291E+02 -0.56027702775E+02 -0.30216363550E+02  0.67226436262E+02  0.00000000000E+00 0. -1.
        -13    1    3    3    0    0  0.71200157815E+02  0.12851002847E+02 -0.39723597216E+02  0.82538323964E+02  0.00000000000E+00 0.  1.
         13    1    3    3    0    0  0.33883045360E+02  0.38408288837E+02 -0.14925430178E+03  0.15779766796E+03  0.00000000000E+00 0. -1.
          2    1    1    2  501    0 -0.41631391061E+02  0.17947175436E+02  0.75280324019E+01  0.45955903860E+02  0.00000000000E+00 0. -1.
<scales pt_clust_5="13000.00000" pt_clust_6="13000.00000" pt_clust_7="13000.00000" pt_clust_8="13000.00000" pt_clust_9="45.33513"></scales>
<clustering>
<clus scale="   45.335">  1  9  2 -1</clus>
<clus scale="   91.536">  7  8 -1 -1</clus>
<clus scale="   91.779">  5  6 -1 -1</clus>
<clus scale="  142.918">  2  7  1 -1</clus>
<clus scale="   45.335">  1  5  2 -1</clus>
</clustering>
</event>
<event>
 9    1  0.1610296E-005  0.2150141E+03  0.7546771E-02  0.1138333E+00
         21   -1    0    0  501  502  0.00000000000E+00  0.00000000000E+00  0.21386663659E+03  0.21386663659E+03  0.00000000000E+00 0. -1.
          2   -1    0    0  502    0 -0.00000000000E+00 -0.00000000000E+00 -0.92673555515E+03  0.92673555515E+03  0.00000000000E+00 0. -1.
         23    2    1    2    0    0  0.24091575568E+02 -0.17967312232E+03 -0.60628567979E+03  0.64006163350E+03  0.96092321572E+02 0.  0.
         23    2    1    2    0    0 -0.17199699677E+03  0.25623704860E+03 -0.50845616946E+02  0.32491387771E+03  0.87996358972E+02 0.  0.
        -11    1    4    4    0    0 -0.64111648009E+02  0.42212056302E+02 -0.35979841066E+02  0.84774465913E+02  0.00000000000E+00 0.  1.
         11    1    4    4    0    0 -0.10788534876E+03  0.21402499230E+03 -0.14865775880E+02  0.24013941180E+03  0.00000000000E+00 0. -1.
        -13    1    3    3    0    0 -0.23328505379E+02 -0.11212302940E+02 -0.42732148420E+02  0.49959697848E+02  0.00000000000E+00 0.  1.
         13    1    3    3    0    0  0.47420080947E+02 -0.16846081938E+03 -0.56355353137E+03  0.59010193566E+03  0.00000000000E+00 0. -1.
          2    1    1    2  501    0  0.14790542120E+03 -0.76563926274E+02 -0.55737621828E+02  0.17562668053E+03  0.00000000000E+00 0. -1.
<scales pt_clust_5="13000.00000" pt_clust_6="13000.00000" pt_clust_7="13000.00000" pt_clust_8="13000.00000" pt_clust_9="166.54744"></scales>
<clustering>
<clus scale="   87.996">  5  6 -1 -1</clus>
<clus scale="   96.092">  7  8 -1 -1</clus>
<clus scale="  166.547">  1  9  2 -1</clus>
<clus scale="  211.520">  1  5  2 -1</clus>
<clus scale="  166.547">  1  5  2 -1</clus>
</clustering>
</event>
<event>
 9    1  0.1610296E-005  0.1015472E+03  0.7546771E-02  0.1281799E+00
         21   -1    0    0  501  502  0.00000000000E+00  0.00000000000E+00  0.17723467899E+03  0.17723467899E+03  0.00000000000E+00 0. -1.
         -3   -1    0    0    0  501 -0.00000000000E+00 -0.00000000000E+00 -0.24093615274E+03  0.24093615274E+03  0.00000000000E+00 0.  1.
         23    2    1    2    0    0 -0.19327095229E+02 -0.36972477369E+01 -0.15567983966E+03  0.18184550065E+03  0.91893239032E+02 0.  0.
         23    2    1    2    0    0 -0.17230815911E+02 -0.42351202892E+02 -0.17576434759E+02  0.11199031984E+03  0.10070936041E+03 0.  0.
        -13    1    3    3    0    0  0.34664991881E+02  0.13581825428E+02 -0.64805245614E+02  0.74738527568E+02  0.00000000000E+00 0.  1.
         13    1    3    3    0    0 -0.53992087110E+02 -0.17279073165E+02 -0.90874594048E+02  0.10710697308E+03  0.00000000000E+00 0. -1.
        -13    1    4    4    0    0 -0.15637178721E+02 -0.68470348716E+02  0.13337245175E+02  0.71488405497E+02  0.00000000000E+00 0. -1.
         13    1    4    4    0    0 -0.15936371894E+01  0.26119145824E+02 -0.30913679934E+02  0.40501914339E+02  0.00000000000E+00 0.  1.
         -3    1    1    2    0  502  0.36557911140E+02  0.46048450629E+02  0.10955480067E+03  0.12433501125E+03  0.00000000000E+00 0.  1.
<scales pt_clust_5="13000.00000" pt_clust_6="13000.00000" pt_clust_7="13000.00000" pt_clust_8="13000.00000" pt_clust_9="58.79575"></scales>
<clustering>
<clus scale="   58.796">  1  9  2 -1</clus>
<clus scale="   91.893">  5  6 -1 -1</clus>
<clus scale="   92.811">  2  5  1 -1</clus>
<clus scale="  100.709">  7  8 -1 -1</clus>
<clus scale="   58.796">  1  5  2 -1</clus>
</clustering>
</event>
<event>
 9    1  0.1610296E-005  0.1844968E+03  0.7546771E-02  0.1164691E+00
          1   -1    0    0  502    0 -0.00000000000E+00  0.00000000000E+00  0.95596313223E+03  0.95596313223E+03  0.00000000000E+00 0. -1.
         21   -1    0    0  501  502  0.00000000000E+00 -0.00000000000E+00 -0.52870663102E+02  0.52870663102E+02  0.00000000000E+00 0.  1.
         23    2    1    2    0    0  0.88189990095E+02 -0.12609593649E+03  0.46618088986E+03  0.49872966127E+03  0.87914693886E+02 0.  0.
         23    2    1    2    0    0 -0.66351887643E+02  0.14699187330E+03  0.44100826107E+03  0.47960289317E+03  0.97577994429E+02 0.  0.
        -11    1    4    4    0    0 -0.51883507823E+02  0.30648327421E+02  0.80805099376E+02  0.10080021053E+03  0.00000000000E+00 0.  1.
         11    1    4    4    0    0 -0.14468379820E+02  0.11634354588E+03  0.36020316169E+03  0.37880268264E+03  0.00000000000E+00 0. -1.
        -11    1    3    3    0    0  0.64155428839E+02 -0.13291442294E+03  0.43108760037E+03  0.45565193083E+03  0.00000000000E+00 0. -1.
         11    1    3    3    0    0  0.24034561256E+02  0.68184864503E+01  0.35093289496E+02  0.43077730440E+02  0.00000000000E+00 0.  1.
          1    1    1    2  501    0 -0.21838102452E+02 -0.20895936811E+02 -0.40966818073E+01  0.30501240889E+02  0.00000000000E+00 0. -1.
<scales pt_clust_5="13000.00000" pt_clust_6="13000.00000" pt_clust_7="13000.00000" pt_clust_8="13000.00000" pt_clust_9="30.22487"></scales>
<clustering>
<clus scale="   30.225">  2  9  1 -1</clus>
<clus scale="   87.915">  7  8 -1 -1</clus>
<clus scale="   97.578">  5  6 -1 -1</clus>
<clus scale="  179.573">  1  7  2 -1</clus>
<clus scale="   30.225">  2  5  1 -1</clus>
</clustering>
</event>
<event>
 9    1  0.1610296E-005  0.9647903E+02  0.7546771E-02  0.1289814E+00
         21   -1    0    0  501  502  0.00000000000E+00  0.00000000000E+00  0.20434827344E+03  0.20434827344E+03  0.00000000000E+00 0. -1.
          1   -1    0    0  502    0 -0.00000000000E+00 -0.00000000000E+00 -0.90251583493E+02  0.90251583493E+02  0.00000000000E+00 0. -1.
         23    2    1    2    0    0  0.24830946347E+02  0.28246372973E+02 -0.30431042982E+02  0.10010251105E+03  0.87635785262E+02 0.  0.
         23    2    1    2    0    0 -0.72331842807E+01 -0.12809415077E+02  0.68833648051E+02  0.11526619428E+03  0.91278827615E+02 0.  0.
        -11    1    3    3    0    0  0.21492189706E+02 -0.35775824900E+00  0.27799152147E+02  0.35140220111E+02  0.00000000000E+00 0.  1.
         11    1    3    3    0    0  0.33387566408E+01  0.28604131222E+02 -0.58230195130E+02  0.64962290937E+02  0.00000000000E+00 0. -1.
        -13    1    4    4    0    0  0.14545843064E+02 -0.48498084066E+02  0.38733303016E+02  0.63748838978E+02  0.00000000000E+00 0.  1.
         13    1    4    4    0    0 -0.21779027344E+02  0.35688668989E+02  0.30100345034E+02  0.51517355303E+02  0.00000000000E+00 0. -1.
          1    1    1    2  501    0 -0.17597762066E+02 -0.15436957896E+02  0.75694084875E+02  0.79231151600E+02  0.00000000000E+00 0. -1.
<scales pt_clust_5="13000.00000" pt_clust_6="13000.00000" pt_clust_7="13000.00000" pt_clust_8="13000.00000" pt_clust_9="23.40899"></scales>
<clustering>
<clus scale="   23.409">  1  9  2 -1</clus>
<clus scale="   87.636">  5  6 -1 -1</clus>
<clus scale="   91.279">  7  8 -1 -1</clus>
<clus scale="   93.040">  2  5  1 -1</clus>
<clus scale="   23.409">  1  5  2 -1</clus>
</clustering>
</event>
<event>
 9    1  0.1610296E-005  0.9981750E+02  0.7546771E-02  0.1281084E+00
          1   -1    0    0  502    0 -0.00000000000E+00  0.00000000000E+00  0.12252772408E+03  0.12252772408E+03  0.00000000000E+00 0. -1.
         21   -1    0    0  501  502  0.00000000000E+00 -0.00000000000E+00 -0.23447648106E+03  0.23447648106E+03  0.00000000000E+00 0. -1.
         23    2    1    2    0    0 -0.93763008037E+01  0.44740570268E+02  0.42436658380E+02  0.10851800322E+03  0.88801201593E+02 0.  0.
         23    2    1    2    0    0 -0.65810147916E+02 -0.45964720678E+02 -0.86413651042E+02  0.14712219766E+03  0.87942542847E+02 0.  0.
        -13    1    4    4    0    0 -0.29250858521E+02  0.23190184792E+02 -0.12136777400E+02  0.39251735765E+02  0.00000000000E+00 0.  1.
         13    1    4    4    0    0 -0.36559289395E+02 -0.69154905470E+02 -0.74276873642E+02  0.10787046190E+03  0.00000000000E+00 0. -1.
        -13    1    3    3    0    0  0.10717343467E+01 -0.27068499374E+02  0.83632887305E+01  0.28351311632E+02  0.00000000000E+00 0.  1.
         13    1    3    3    0    0 -0.10448035150E+02  0.71809069642E+02  0.34073369649E+02  0.80166691591E+02  0.00000000000E+00 0. -1.
          1    1    1    2  501    0  0.75186448720E+02  0.12241504102E+01 -0.67971764309E+02  0.10136400426E+03  0.00000000000E+00 0. -1.
<scales pt_clust_5="13000.00000" pt_clust_6="13000.00000" pt_clust_7="13000.00000" pt_clust_8="13000.00000" pt_clust_9="75.19641"></scales>
<clustering>
<clus scale="   75.196">  2  9  1 -1</clus>
<clus scale="   87.943">  5  6 -1 -1</clus>
<clus scale="   88.801">  7  8 -1 -1</clus>
<clus scale="   99.054">  2  5  1 -1</clus>
<clus scale="   75.196">  2  5  1 -1</clus>
</clustering>
</event>
<event>
 9    1  0.1610296E-005  0.1638157E+03  0.7546771E-02  0.1184674E+00
          2   -1    0    0  502    0 -0.00000000000E+00  0.00000000000E+00  0.11260320632E+04  0.11260320632E+04  0.00000000000E+00 0. -1.
         21   -1    0    0  501  502  0.00000000000E+00 -0.00000000000E+00 -0.38695626860E+02  0.38695626860E+02  0.00000000000E+00 0. -1.
         23    2    1    2    0    0 -0.11795867961E+03 -0.59758966534E+02  0.64665593216E+03  0.66644063850E+03  0.92162063068E+02 0.  0.
         23    2    1    2    0    0  0.97724478543E+02  0.11303166919E+03  0.34912326081E+03  0.39044395927E+03  0.90736994355E+02 0.  0.
        -11    1    3    3    0    0  0.12956875551E+02 -0.20268097346E+02  0.81403622487E+02  0.84883603529E+02  0.00000000000E+00 0.  1.
         11    1    3    3    0    0 -0.13091555517E+03 -0.39490869187E+02  0.56525230967E+03  0.58155703497E+03  0.00000000000E+00 0. -1.
        -13    1    4    4    0    0  0.71366547107E+02  0.12151973442E+03  0.24438295289E+03  0.28210504703E+03  0.00000000000E+00 0. -1.
         13    1    4    4    0    0  0.26357931436E+02 -0.84880652274E+01  0.10474030792E+03  0.10833891224E+03  0.00000000000E+00 0.  1.
          2    1    1    2  501    0  0.20234201071E+02 -0.53272702659E+02  0.91557243382E+02  0.10784309230E+03  0.00000000000E+00 0. -1.
<scales pt_clust_5="13000.00000" pt_clust_6="13000.00000" pt_clust_7="13000.00000" pt_clust_8="13000.00000" pt_clust_9="56.98600"></scales>
<clustering>
<clus scale="   56.986">  2  9  1 -1</clus>
<clus scale="   90.737">  7  8 -1 -1</clus>
<clus scale="   92.162">  5  6 -1 -1</clus>
<clus scale="  163.018">  2  7  1 -1</clus>
<clus scale="   56.986">  2  5  1 -1</clus>
</clustering>
</event>
<event>
 9    1  0.1610296E-005  0.1076230E+03  0.7546771E-02  0.1269448E+00
          1   -1    0    0  502    0 -0.00000000000E+00  0.00000000000E+00  0.49876629232E+03  0.49876629232E+03  0.00000000000E+00 0. -1.
         21   -1    0    0  501  502  0.00000000000E+00 -0.00000000000E+00 -0.10333787967E+03  0.10333787967E+03  0.00000000000E+00 0. -1.
         23    2    1    2    0    0 -0.39309840463E+02 -0.17685283980E+02  0.36632123440E+03  0.38241017368E+03  0.10093691762E+03 0.  0.
         23    2    1    2    0    0  0.10713619769E+02  0.28965072269E+02  0.10209181992E+03  0.14049970949E+03  0.91453111554E+02 0.  0.
        -11    1    3    3    0    0 -0.65160086067E+02 -0.13683749006E+02  0.33523326555E+03  0.34178125188E+03  0.00000000000E+00 0. -1.
         11    1    3    3    0    0  0.25850245604E+02 -0.40015349743E+01  0.31087968846E+02  0.40628921803E+02  0.00000000000E+00 0.  1.
        -11    1    4    4    0    0  0.39448550413E+02  0.44158738312E+02  0.85509126632E+02  0.10400958146E+03  0.00000000000E+00 0.  1.
         11    1    4    4    0    0 -0.28734930644E+02 -0.15193666043E+02  0.16582693291E+02  0.36490128031E+02  0.00000000000E+00 0. -1.
          1    1    1    2  501    0  0.28596220694E+02 -0.11279788288E+02 -0.72984641672E+02  0.79194288820E+02  0.00000000000E+00 0. -1.
<scales pt_clust_5="13000.00000" pt_clust_6="13000.00000" pt_clust_7="13000.00000" pt_clust_8="13000.00000" pt_clust_9="30.74049"></scales>
<clustering>
<clus scale="   30.740">  2  9  1 -1</clus>
<clus scale="   91.453">  7  8 -1 -1</clus>
<clus scale="   98.783">  2  7  1 -1</clus>
<clus scale="  100.937">  5  6 -1 -1</clus>
<clus scale="   30.740">  2  5  1 -1</clus>
</clustering>
</event>
<event>
 9    1  0.1610296E-005  0.1134112E+03  0.7546771E-02  0.1255789E+00
          3   -1    0    0  502    0 -0.00000000000E+00  0.00000000000E+00  0.16079304790E+03  0.16079304790E+03  0.00000000000E+00 0. -1.
         21   -1    0    0  501  502  0.00000000000E+00 -0.00000000000E+00 -0.38105843980E+03  0.38105843980E+03  0.00000000000E+00 0. -1.
         23    2    1    2    0    0  0.48707393831E+02  0.50868378452E+02  0.73010701725E+02  0.13564505023E+03  0.90050069108E+02 0.  0.
         23    2    1    2    0    0  0.56606095130E+02 -0.84877801142E+02 -0.66242715473E+02  0.15363619657E+03  0.93848241380E+02 0.  0.
        -13    1    3    3    0    0  0.22455848688E+02  0.14798251977E+02 -0.19311868596E+02  0.33108936415E+02  0.00000000000E+00 0.  1.
         13    1    3    3    0    0  0.26251545143E+02  0.36070126475E+02  0.92322570321E+02  0.10253611382E+03  0.00000000000E+00 0. -1.
        -13    1    4    4    0    0  0.46666117998E+02 -0.10448916102E+03 -0.65014563499E+02  0.13161536691E+03  0.00000000000E+00 0. -1.
         13    1    4    4    0    0  0.99399771319E+01  0.19611359877E+02 -0.12281519748E+01  0.22020829660E+02  0.00000000000E+00 0.  1.
          3    1    1    2  501    0 -0.10531348896E+03  0.34009422691E+02 -0.22703337816E+03  0.25257024090E+03  0.00000000000E+00 0. -1.
<scales pt_clust_5="13000.00000" pt_clust_6="13000.00000" pt_clust_7="13000.00000" pt_clust_8="13000.00000" pt_clust_9="110.66875"></scales>
<clustering>
<clus scale="   90.050">  5  6 -1 -1</clus>
<clus scale="   93.848">  7  8 -1 -1</clus>
<clus scale="  110.669">  2  9  1 -1</clus>
<clus scale="  110.289">  1  5  2 -1</clus>
<clus scale="  110.669">  2  5  1 -1</clus>
</clustering>
</event>
<event>
 9    1  0.1610296E-005  0.1035661E+03  0.7546771E-02  0.1273383E+00
         21   -1    0    0  501  502  0.00000000000E+00  0.00000000000E+00  0.11778249190E+03  0.11778249190E+03  0.00000000000E+00 0.  1.
         -1   -1    0    0    0  501 -0.00000000000E+00 -0.00000000000E+00 -0.23397527816E+03  0.23397527816E+03  0.00000000000E+00 0.  1.
         23    2    1    2    0    0 -0.22986130659E+02  0.20431736109E+02 -0.75143381843E+02  0.12130592980E+03  0.90126481827E+02 0.  0.
         23    2    1    2    0    0  0.29563926308E+02 -0.66705766043E+02 -0.10107581416E+03  0.15437475364E+03  0.91058000147E+02 0.  0.
        -11    1    3    3    0    0 -0.39406185884E+02 -0.17985941622E+02 -0.65335579559E+02  0.78390557711E+02  0.00000000000E+00 0.  1.
         11    1    3    3    0    0  0.16420055225E+02  0.38417677731E+02 -0.98078022848E+01  0.42915372088E+02  0.00000000000E+00 0. -1.
        -13    1    4    4    0    0  0.20082838265E+02  0.95908735180E+01 -0.66405294437E+02  0.70035479415E+02  0.00000000000E+00 0. -1.
         13    1    4    4    0    0  0.94810880429E+01 -0.76296639561E+02 -0.34670519725E+02  0.84339274225E+02  0.00000000000E+00 0.  1.
         -1    1    1    2    0  502 -0.65777956488E+01  0.46274029934E+02  0.60026409748E+02  0.76077086624E+02  0.00000000000E+00 0.  1.
<scales pt_clust_5="13000.00000" pt_clust_6="13000.00000" pt_clust_7="13000.00000" pt_clust_8="13000.00000" pt_clust_9="46.73920"></scales>
<clustering>
<clus scale="   46.739">  1  9  2 -1</clus>
<clus scale="   90.126">  5  6 -1 -1</clus>
<clus scale="   91.058">  7  8 -1 -1</clus>
<clus scale="  102.748">  2  5  1 -1</clus>
<clus scale="   46.739">  1  5  2 -1</clus>
</clustering>
</event>
<event>
 9    1  0.1610296E-005  0.9095235E+02  0.7546771E-02  0.1300899E+00
         -4   -1    0    0    0  501 -0.00000000000E+00  0.00000000000E+00  0.25498451457E+03  0.25498451457E+03  0.00000000000E+00 0.  1.
         21   -1    0    0  501  502  0.00000000000E+00 -0.00000000000E+00 -0.58879382167E+02  0.58879382167E+02  0.00000000000E+00 0. -1.
         23    2    1    2    0    0  0.12997962348E+02  0.40286793978E+01  0.15032626060E+03  0.17570776621E+03  0.89944745245E+02 0.  0.
         23    2    1    2    0    0  0.99981237335E-03  0.15359062836E+02  0.61060544896E+02  0.11025654094E+03  0.90510849436E+02 0.  0.
        -11    1    4    4    0    0 -0.79829523353E+01 -0.23462542329E+02 -0.11696279806E+02  0.27404769326E+02  0.00000000000E+00 0. -1.
         11    1    4    4    0    0  0.79839521477E+01  0.38821605165E+02  0.72756824702E+02  0.82851771618E+02  0.00000000000E+00 0.  1.
        -13    1    3    3    0    0  0.45459831451E+02  0.14475462544E+01  0.39646478661E+02  0.60336845591E+02  0.00000000000E+00 0. -1.
         13    1    3    3    0    0 -0.32461869103E+02  0.25811331434E+01  0.11067978194E+03  0.11537092062E+03  0.00000000000E+00 0.  1.
         -4    1    1    2    0  502 -0.12998962160E+02 -0.19387742234E+02 -0.15281673097E+02  0.27899589581E+02  0.00000000000E+00 0.  1.
<scales pt_clust_5="13000.00000" pt_clust_6="13000.00000" pt_clust_7="13000.00000" pt_clust_8="13000.00000" pt_clust_9="23.34218"></scales>
<clustering>
<clus scale="   23.342">  2  9  1 -1</clus>
<clus scale="   89.945">  7  8 -1 -1</clus>
<clus scale="   90.389">  1  7  2 -1</clus>
<clus scale="   90.511">  5  6 -1 -1</clus>
<clus scale="   23.342">  2  5  1 -1</clus>
</clustering>
</event>
<event>
 9    1  0.1610296E-005  0.1010837E+03  0.7546771E-02  0.1278493E+00
          1   -1    0    0  502    0 -0.00000000000E+00  0.00000000000E+00  0.84465311167E+03  0.84465311167E+03  0.00000000000E+00 0. -1.
         21   -1    0    0  501  502  0.00000000000E+00 -0.00000000000E+00 -0.47197906741E+02  0.47197906741E+02  0.00000000000E+00 0. -1.
         23    2    1    2    0    0  0.49760237691E+02 -0.13641290715E+02  0.47140782803E+03  0.48294393673E+03  0.91363776327E+02 0.  0.
         23    2    1    2    0    0 -0.24583248967E+02  0.18449231865E+02  0.35624539784E+03  0.36929751809E+03  0.92331809782E+02 0.  0.
        -11    1    4    4    0    0 -0.11658590652E+02 -0.37655862633E+02  0.13031573972E+03  0.13614726860E+03  0.00000000000E+00 0. -1.
         11    1    4    4    0    0 -0.12924658315E+02  0.56105094498E+02  0.22592965812E+03  0.23315024949E+03  0.00000000000E+00 0.  1.
        -13    1    3    3    0    0 -0.14460767681E+02  0.22093634595E+02  0.69000299866E+02  0.73880199466E+02  0.00000000000E+00 0.  1.
         13    1    3    3    0    0  0.64221005372E+02 -0.35734925310E+02  0.40240752816E+03  0.40906373726E+03  0.00000000000E+00 0. -1.
          1    1    1    2  501    0 -0.25176988724E+02 -0.48079411505E+01 -0.30198020943E+02  0.39609563595E+02  0.00000000000E+00 0. -1.
<scales pt_clust_5="13000.00000" pt_clust_6="13000.00000" pt_clust_7="13000.00000" pt_clust_8="13000.00000" pt_clust_9="25.63195"></scales>
<clustering>
<clus scale="   25.632">  2  9  1 -1</clus>
<clus scale="   91.364">  7  8 -1 -1</clus>
<clus scale="   92.332">  5  6 -1 -1</clus>
<clus scale="  100.200">  1  7  2 -1</clus>
<clus scale="   25.632">  2  5  1 -1</clus>
</clustering>
</event>
<event>
 9    1  0.1610296E-005  0.1091605E+03  0.7546771E-02  0.1266633E+00
          1   -1    0    0  502    0 -0.00000000000E+00  0.00000000000E+00  0.66101665089E+03  0.66101665089E+03  0.00000000000E+00 0. -1.
         21   -1    0    0  501  502  0.00000000000E+00 -0.00000000000E+00 -0.90360375228E+02  0.90360375228E+02  0.00000000000E+00 0. -1.
         23    2    1    2    0    0 -0.37415607762E+02 -0.23379100422E+02  0.49920429995E+03  0.50937731935E+03  0.91180098380E+02 0.  0.
         23    2    1    2    0    0  0.44637359306E+02 -0.30677908698E+02  0.12211012325E+03  0.16756475636E+03  0.10116045396E+03 0.  0.
        -11    1    3    3    0    0 -0.57607089412E+02 -0.42370732038E+02  0.40142136511E+03  0.40774130040E+03  0.00000000000E+00 0. -1.
         11    1    3    3    0    0  0.20191481650E+02  0.18991631616E+02  0.97782934837E+02  0.10163601895E+03  0.00000000000E+00 0.  1.
        -13    1    4    4    0    0 -0.78014588613E+01 -0.53994267282E+02  0.41181284192E+02  0.68353067432E+02  0.00000000000E+00 0.  1.
         13    1    4    4    0    0  0.52438818167E+02  0.23316358584E+02  0.80928839057E+02  0.99211688925E+02  0.00000000000E+00 0. -1.
          1    1    1    2  501    0 -0.72217515435E+01  0.54057009120E+02 -0.50658147538E+02  0.74434950408E+02  0.00000000000E+00 0. -1.
<scales pt_clust_5="13000.00000" pt_clust_6="13000.00000" pt_clust_7="13000.00000" pt_clust_8="13000.00000" pt_clust_9="54.53727"></scales>
<clustering>
<clus scale="   54.537">  2  9  1 -1</clus>
<clus scale="   91.180">  5  6 -1 -1</clus>
<clus scale="   99.982">  1  5  2 -1</clus>
<clus scale="  101.160">  7  8 -1 -1</clus>
<clus scale="   54.537">  2  5  1 -1</clus>
</clustering>
</event>
<event>
 9    1  0.1610296E-005  0.9698081E+02  0.7546771E-02  0.1288189E+00
         21   -1    0    0  501  502  0.00000000000E+00  0.00000000000E+00  0.35283175510E+03  0.35283175510E+03  0.00000000000E+00 0. -1.
         -3   -1    0    0    0  501 -0.00000000000E+00 -0.00000000000E+00 -0.35793361067E+02  0.35793361067E+02  0.00000000000E+00 0.  1.
         23    2    1    2    0    0 -0.15670360904E+01  0.11641008200E+02  0.11916099461E+03  0.15207488062E+03  0.93752109346E+02 0.  0.
         23    2    1    2    0    0  0.12448873534E+02 -0.37449323928E+02  0.13381683527E+03  0.16663429010E+03  0.91118685907E+02 0.  0.
        -11    1    3    3    0    0  0.24267392109E+01 -0.23693859841E+02 -0.37607972021E+01  0.24112893915E+02  0.00000000000E+00 0. -1.
         11    1    3    3    0    0 -0.39937753012E+01  0.35334868041E+02  0.12292179181E+03  0.12796198671E+03  0.00000000000E+00 0.  1.
        -11    1    4    4    0    0 -0.35310600566E+01  0.26771179739E+02  0.15683800836E+02  0.31227328711E+02  0.00000000000E+00 0.  1.
         11    1    4    4    0    0  0.15979933591E+02 -0.64220503667E+02  0.11813303444E+03  0.13540696139E+03  0.00000000000E+00 0. -1.
         -3    1    1    2    0  502 -0.10881837444E+02  0.25808315728E+02  0.64060564150E+02  0.69915945435E+02  0.00000000000E+00 0.  1.
<scales pt_clust_5="13000.00000" pt_clust_6="13000.00000" pt_clust_7="13000.00000" pt_clust_8="13000.00000" pt_clust_9="28.00863"></scales>
<clustering>
<clus scale="   28.009">  1  9  2 -1</clus>
<clus scale="   91.119">  7  8 -1 -1</clus>
<clus scale="   93.752">  5  6 -1 -1</clus>
<clus scale="   94.437">  1  7  2 -1</clus>
<clus scale="   28.009">  1  5  2 -1</clus>
</clustering>
</event>
<event>
 9    1  0.1610296E-005  0.1330419E+03  0.7546771E-02  0.1223166E+00
         21   -1    0    0  501  502  0.00000000000E+00  0.00000000000E+00  0.46259031464E+02  0.46259031464E+02  0.00000000000E+00 0. -1.
          2   -1    0    0  502    0 -0.00000000000E+00 -0.00000000000E+00 -0.96417105599E+03  0.96417105599E+03  0.00000000000E+00 0. -1.
         23    2    1    2    0    0 -0.53902579417E+02 -0.91503098854E+02 -0.69481870358E+03  0.70893142131E+03  0.92371121578E+02 0.  0.
         23    2    1    2    0    0  0.72030042125E+02  0.33572834754E+02 -0.20400787067E+03  0.23786868253E+03  0.92988368268E+02 0.  0.
        -11    1    4    4    0    0 -0.22215403475E+02  0.35982145718E+01 -0.50138118477E+02  0.54957276352E+02  0.00000000000E+00 0.  1.
         11    1    4    4    0    0  0.94245445600E+02  0.29974620182E+02 -0.15386975219E+03  0.18291140618E+03  0.00000000000E+00 0. -1.
        -13    1    3    3    0    0  0.23438969621E+02 -0.17344469561E+02 -0.87437235973E+02  0.92170961565E+02  0.00000000000E+00 0.  1.
         13    1    3    3    0    0 -0.77341549038E+02 -0.74158629293E+02 -0.60738146761E+03  0.61676045974E+03  0.00000000000E+00 0. -1.
          2    1    1    2  501    0 -0.18127462708E+02  0.57930264100E+02 -0.19085450279E+02  0.63629983618E+02  0.00000000000E+00 0. -1.
<scales pt_clust_5="13000.00000" pt_clust_6="13000.00000" pt_clust_7="13000.00000" pt_clust_8="13000.00000" pt_clust_9="60.70025"></scales>
<clustering>
<clus scale="   60.700">  1  9  2 -1</clus>
<clus scale="   92.371">  7  8 -1 -1</clus>
<clus scale="   92.988">  5  6 -1 -1</clus>
<clus scale="  132.611">  2  7  1 -1</clus>
<clus scale="   60.700">  1  5  2 -1</clus>
</clustering>
</event>
<event>
 9    1  0.1610296E-005  0.1160886E+03  0.7546771E-02  0.1253445E+00
         21   -1    0    0  501  502  0.00000000000E+00  0.00000000000E+00  0.38360335195E+02  0.38360335195E+02  0.00000000000E+00 0. -1.
          2   -1    0    0  502    0 -0.00000000000E+00 -0.00000000000E+00 -0.84931605564E+03  0.84931605564E+03  0.00000000000E+00 0. -1.
         23    2    1    2    0    0 -0.44453749364E+02 -0.11729402899E+01 -0.43724567349E+03  0.44892043736E+03  0.91478240437E+02 0.  0.
         23    2    1    2    0    0  0.97542891771E+02 -0.56511056131E+02 -0.24523038755E+03  0.28824707213E+03  0.10119444851E+03 0.  0.
        -13    1    4    4    0    0  0.94908391498E+02 -0.28029453952E+02 -0.10172845645E+03  0.14192227421E+03  0.00000000000E+00 0. -1.
         13    1    4    4    0    0  0.26345002730E+01 -0.28481602179E+02 -0.14350193111E+03  0.14632479792E+03  0.00000000000E+00 0.  1.
        -13    1    3    3    0    0  0.22886844704E+02  0.18967341338E+02 -0.17038780480E+03  0.17296118559E+03  0.00000000000E+00 0. -1.
         13    1    3    3    0    0 -0.67340594068E+02 -0.20140281628E+02 -0.26685786869E+03  0.27595925177E+03  0.00000000000E+00 0.  1.
          2    1    1    2  501    0 -0.53089142407E+02  0.57683996421E+02 -0.12847965941E+03  0.15050888135E+03  0.00000000000E+00 0. -1.
<scales pt_clust_5="13000.00000" pt_clust_6="13000.00000" pt_clust_7="13000.00000" pt_clust_8="13000.00000" pt_clust_9="78.39579"></scales>
<clustering>
<clus scale="   78.396">  1  9  2 -1</clus>
<clus scale="   91.478">  7  8 -1 -1</clus>
<clus scale="  101.194">  5  6 -1 -1</clus>
<clus scale="  107.724">  2  7  1 -1</clus>
<clus scale="   78.396">  1  5  2 -1</clus>
</clustering>
</event>
<event>
 9    1  0.1610296E-005  0.9466551E+02  0.7546771E-02  0.1292978E+00
         21   -1    0    0  501  502  0.00000000000E+00  0.00000000000E+00  0.12574749275E+03  0.12574749275E+03  0.00000000000E+00 0.  1.
          1   -1    0    0  502    0 -0.00000000000E+00 -0.00000000000E+00 -0.98121226060E+02  0.98121226060E+02  0.00000000000E+00 0. -1.
         23    2    1    2    0    0 -0.30015628104E+01 -0.23868105502E+02 -0.14915040105E+02  0.96742420141E+02  0.92509143299E+02 0.  0.
         23    2    1    2    0    0  0.20171301678E+02  0.81182589770E+01  0.21324742578E+02  0.95614393054E+02  0.90634320061E+02 0.  0.
        -11    1    3    3    0    0 -0.16095128871E+02 -0.50755093898E+02  0.14092815984E+02  0.55079398983E+02  0.00000000000E+00 0.  1.
         11    1    3    3    0    0  0.13093566060E+02  0.26886988396E+02 -0.29007856090E+02  0.41663021159E+02  0.00000000000E+00 0. -1.
        -11    1    4    4    0    0  0.28793205600E+02 -0.16946811475E+02  0.47689734456E+02  0.58228462803E+02  0.00000000000E+00 0.  1.
         11    1    4    4    0    0 -0.86219039221E+01  0.25065070452E+02 -0.26364991878E+02  0.37385930251E+02  0.00000000000E+00 0. -1.
          1    1    1    2  501    0 -0.17169738868E+02  0.15749846524E+02  0.21216564221E+02  0.31511905618E+02  0.00000000000E+00 0. -1.
<scales pt_clust_5="13000.00000" pt_clust_6="13000.00000" pt_clust_7="13000.00000" pt_clust_8="13000.00000" pt_clust_9="23.29930"></scales>
<clustering>
<clus scale="   23.299">  1  9  2 -1</clus>
<clus scale="   90.634">  7  8 -1 -1</clus>
<clus scale="   92.509">  5  6 -1 -1</clus>
<clus scale="   92.834">  1  7  2 -1</clus>
<clus scale="   23.299">  1  5  2 -1</clus>
</clustering>
</event>
<event>
 9    1  0.1610296E-005  0.1160394E+03  0.7546771E-02  0.1250520E+00
         21   -1    0    0  501  502  0.00000000000E+00  0.00000000000E+00  0.33417002276E+03  0.33417002276E+03  0.00000000000E+00 0.  1.
         -2   -1    0    0    0  501 -0.00000000000E+00 -0.00000000000E+00 -0.40695904960E+03  0.40695904960E+03  0.00000000000E+00 0.  1.
         23    2    1    2    0    0  0.23796237234E+02  0.64046319437E+02 -0.37349705540E+03  0.39040487305E+03  0.90816972918E+02 0.  0.
         23    2    1    2    0    0 -0.47430513183E+02 -0.94703077864E+02  0.24927947504E+03  0.28635563592E+03  0.92956801836E+02 0.  0.
        -13    1    4    4    0    0 -0.43139822086E+02  0.94998527937E+00  0.56357573803E+02  0.70979735465E+02  0.00000000000E+00 0.  1.
         13    1    4    4    0    0 -0.42906910966E+01 -0.95653063143E+02  0.19292190124E+03  0.21537590045E+03  0.00000000000E+00 0. -1.
        -13    1    3    3    0    0 -0.59731265183E+01  0.74292570243E+02 -0.31782511409E+03  0.32644734243E+03  0.00000000000E+00 0.  1.
         13    1    3    3    0    0  0.29769363753E+02 -0.10246250806E+02 -0.55671941301E+02  0.63957530613E+02  0.00000000000E+00 0. -1.
         -2    1    1    2    0  502  0.23634275949E+02  0.30656758427E+02  0.51428553520E+02  0.64368563399E+02  0.00000000000E+00 0.  1.
<scales pt_clust_5="13000.00000" pt_clust_6="13000.00000" pt_clust_7="13000.00000" pt_clust_8="13000.00000" pt_clust_9="38.70938"></scales>
<clustering>
<clus scale="   38.709">  1  9  2 -1</clus>
<clus scale="   90.817">  7  8 -1 -1</clus>
<clus scale="   92.957">  5  6 -1 -1</clus>
<clus scale="  114.332">  2  7  1 -1</clus>
<clus scale="   38.709">  1  5  2 -1</clus>
</clustering>
</event>
<event>
 9    1  0.1610296E-005  0.1067662E+03  0.7546771E-02  0.1268453E+00
         21   -1    0    0  501  502  0.00000000000E+00  0.00000000000E+00  0.94446679134E+02  0.94446679134E+02  0.00000000000E+00 0. -1.
          3   -1    0    0  502    0 -0.00000000000E+00 -0.00000000000E+00 -0.53533443860E+03  0.53533443860E+03  0.00000000000E+00 0. -1.
         23    2    1    2    0    0 -0.54931296988E+02  0.23815688583E+02 -0.30242272014E+03  0.32080963578E+03  0.88739429464E+02 0.  0.
         23    2    1    2    0    0  0.47701851302E+02  0.12414786846E+02 -0.20639147516E+03  0.23164805135E+03  0.92918163589E+02 0.  0.
        -11    1    3    3    0    0 -0.56777786252E+02 -0.12834309224E+02 -0.10546844019E+03  0.12046588057E+03  0.00000000000E+00 0.  1.
         11    1    3    3    0    0  0.18464892648E+01  0.36649997808E+02 -0.19695427995E+03  0.20034375521E+03  0.00000000000E+00 0. -1.
        -11    1    4    4    0    0  0.10164122155E+01 -0.35922365901E+02 -0.51419170240E+02  0.62732611407E+02  0.00000000000E+00 0.  1.
         11    1    4    4    0    0  0.46685439087E+02  0.48337152747E+02 -0.15497230492E+03  0.16891543994E+03  0.00000000000E+00 0. -1.
          3    1    1    2  501    0  0.72294456852E+01 -0.36230475429E+02  0.67926435836E+02  0.77323430602E+02  0.00000000000E+00 0. -1.
<scales pt_clust_5="13000.00000" pt_clust_6="13000.00000" pt_clust_7="13000.00000" pt_clust_8="13000.00000" pt_clust_9="36.94472"></scales>
<clustering>
<clus scale="   36.945">  1  9  2 -1</clus>
<clus scale="   88.739">  5  6 -1 -1</clus>
<clus scale="   92.918">  7  8 -1 -1</clus>
<clus scale="  103.150">  2  5  1 -1</clus>
<clus scale="   36.945">  1  5  2 -1</clus>
</clustering>
</event>
<event>
 9    1  0.1610296E-005  0.9638434E+02  0.7546771E-02  0.1291549E+00
          1   -1    0    0  502    0 -0.00000000000E+00  0.00000000000E+00  0.24992557713E+03  0.24992557713E+03  0.00000000000E+00 0. -1.
         21   -1    0    0  501  502  0.00000000000E+00 -0.00000000000E+00 -0.57352983141E+02  0.57352983141E+02  0.00000000000E+00 0.  1.
         23    2    1    2    0    0 -0.56864912094E+01  0.11988928197E+02  0.14606141005E+03  0.17535559800E+03  0.96122732297E+02 0.  0.
         23    2    1    2    0    0 -0.19776878795E+02  0.44948523932E+01  0.41376738040E+02  0.10115835973E+03  0.90053598818E+02 0.  0.
        -13    1    4    4    0    0 -0.32350129691E+02  0.28854688496E+02 -0.85656595106E+01  0.44187039526E+02  0.00000000000E+00 0.  1.
         13    1    4    4    0    0  0.12573250895E+02 -0.24359836103E+02  0.49942397551E+02  0.56971320207E+02  0.00000000000E+00 0. -1.
        -13    1    3    3    0    0 -0.43043223128E+02  0.24471033214E+02  0.45064912398E+02  0.66950704651E+02  0.00000000000E+00 0.  1.
         13    1    3    3    0    0  0.37356731918E+02 -0.12482105017E+02  0.10099649765E+03  0.10840489335E+03  0.00000000000E+00 0. -1.
          1    1    1    2  501    0  0.25463370005E+02 -0.16483780590E+02  0.51344459043E+01  0.30764602537E+02  0.00000000000E+00 0. -1.
<scales pt_clust_5="13000.00000" pt_clust_6="13000.00000" pt_clust_7="13000.00000" pt_clust_8="13000.00000" pt_clust_9="30.33312"></scales>
<clustering>
<clus scale="   30.333">  2  9  1 -1</clus>
<clus scale="   90.054">  5  6 -1 -1</clus>
<clus scale="   90.333">  2  5  1 -1</clus>
<clus scale="   96.123">  7  8 -1 -1</clus>
<clus scale="   30.333">  2  5  1 -1</clus>
</clustering>
</event>
<event>
 9    1  0.1610296E-005  0.1197234E+03  0.7546771E-02  0.1248339E+00
         21   -1    0    0  501  502  0.00000000000E+00  0.00000000000E+00  0.10177345338E+03  0.10177345338E+03  0.00000000000E+00 0.  1.
         -1   -1    0    0    0  501 -0.00000000000E+00 -0.00000000000E+00 -0.24075440083E+03  0.24075440083E+03  0.00000000000E+00 0.  1.
         23    2    1    2    0    0  0.21587575075E+02  0.72555240285E+02 -0.11446333534E+03  0.15385620059E+03  0.69567154830E+02 0.  0.
         23    2    1    2    0    0 -0.41873777529E+02 -0.10477182729E+03  0.29379105167E+01  0.14173292536E+03  0.85726552340E+02 0.  0.
        -11    1    3    3    0    0 -0.15643780902E+02  0.62010585263E+02 -0.67102339234E+02  0.92697165525E+02  0.00000000000E+00 0. -1.
         11    1    3    3    0    0  0.37231355978E+02  0.10544655022E+02 -0.47360996110E+02  0.61159035064E+02  0.00000000000E+00 0.  1.
        -11    1    4    4    0    0 -0.64197411996E+02 -0.48790533986E+02  0.91224932036E+01  0.81148282766E+02  0.00000000000E+00 0.  1.
         11    1    4    4    0    0  0.22323634467E+02 -0.55981293302E+02 -0.61845826869E+01  0.60584642597E+02  0.00000000000E+00 0. -1.
         -1    1    1    2    0  502  0.20286202454E+02  0.32216587002E+02 -0.27455522621E+02  0.46938728258E+02  0.00000000000E+00 0.  1.
<scales pt_clust_5="13000.00000" pt_clust_6="13000.00000" pt_clust_7="13000.00000" pt_clust_8="13000.00000" pt_clust_9="38.07151"></scales>
<clustering>
<clus scale="   38.072">  1  9  2 -1</clus>
<clus scale="   69.567">  5  6 -1 -1</clus>
<clus scale="   85.727">  7  8 -1 -1</clus>
<clus scale="  108.739">  2  5  1 -1</clus>
<clus scale="   38.072">  1  5  2 -1</clus>
</clustering>
</event>
<event>
 9    1  0.1610296E-005  0.1106266E+03  0.7546771E-02  0.1259829E+00
         21   -1    0    0  501  502  0.00000000000E+00  0.00000000000E+00  0.27428788293E+02  0.27428788293E+02  0.00000000000E+00 0.  1.
          1   -1    0    0  502    0 -0.00000000000E+00 -0.00000000000E+00 -0.68146198065E+03  0.68146198065E+03  0.00000000000E+00 0. -1.
         23    2    1    2    0    0 -0.43278163676E+02  0.42882316017E+02 -0.42629555761E+03  0.44020630857E+03  0.91333450506E+02 0.  0.
         23    2    1    2    0    0  0.63158687740E+02 -0.27037851627E+02 -0.20633716489E+03  0.23545401652E+03  0.90241359836E+02 0.  0.
        -11    1    4    4    0    0  0.38952276054E+02 -0.54996216370E+02 -0.17300488785E+03  0.18566786163E+03  0.00000000000E+00 0.  1.
         11    1    4    4    0    0  0.24206411686E+02  0.27958364743E+02 -0.33332277038E+02  0.49786154886E+02  0.00000000000E+00 0. -1.
        -13    1    3    3    0    0 -0.21374362868E+02 -0.24680251758E+02 -0.74929902950E+02  0.81734133451E+02  0.00000000000E+00 0.  1.
         13    1    3    3    0    0 -0.21903800808E+02  0.67562567775E+02 -0.35136565466E+03  0.35847217511E+03  0.00000000000E+00 0. -1.
          1    1    1    2  501    0 -0.19880524064E+02 -0.15844464390E+02 -0.21400469859E+02  0.33230443859E+02  0.00000000000E+00 0. -1.
<scales pt_clust_5="13000.00000" pt_clust_6="13000.00000" pt_clust_7="13000.00000" pt_clust_8="13000.00000" pt_clust_9="25.42208"></scales>
<clustering>
<clus scale="   25.422">  1  9  2 -1</clus>
<clus scale="   90.241">  5  6 -1 -1</clus>
<clus scale="   91.333">  7  8 -1 -1</clus>
<clus scale="  109.727">  1  5  2 -1</clus>
<clus scale="   25.422">  1  5  2 -1</clus>
</clustering>
</event>
<event>
 9    1  0.1610296E-005  0.1204833E+03  0.7546771E-02  0.1247922E+00
         21   -1    0    0  501  502  0.00000000000E+00  0.00000000000E+00  0.10092983065E+03  0.10092983065E+03  0.00000000000E+00 0. -1.
          1   -1    0    0  502    0 -0.00000000000E+00 -0.00000000000E+00 -0.44168505414E+03  0.44168505414E+03  0.00000000000E+00 0. -1.
         23    2    1    2    0    0  0.22296276545E+02  0.63049647803E+02 -0.30943269683E+03  0.32915697633E+03  0.90129568765E+02 0.  0.
         23    2    1    2    0    0 -0.64421825032E+02  0.13183940065E+02 -0.18447528921E+02  0.12541310554E+03  0.10518625339E+03 0.  0.
        -11    1    4    4    0    0  0.13536571736E+02 -0.23608118528E+02  0.17129584951E+02  0.32155943702E+02  0.00000000000E+00 0.  1.
         11    1    4    4    0    0 -0.77958396768E+02  0.36792058593E+02 -0.35577113872E+02  0.93257161836E+02  0.00000000000E+00 0. -1.
        -13    1    3    3    0    0  0.15406595702E+02 -0.20038588910E+02 -0.11246650526E+03  0.11527195254E+03  0.00000000000E+00 0.  1.
         13    1    3    3    0    0  0.68896808423E+01  0.83088236713E+02 -0.19696619156E+03  0.21388502379E+03  0.00000000000E+00 0. -1.
          1    1    1    2  501    0  0.42125548488E+02 -0.76233587868E+02 -0.12874997749E+02  0.88044802923E+02  0.00000000000E+00 0. -1.
<scales pt_clust_5="13000.00000" pt_clust_6="13000.00000" pt_clust_7="13000.00000" pt_clust_8="13000.00000" pt_clust_9="87.09835"></scales>
<clustering>
<clus scale="   87.098">  1  9  2 -1</clus>
<clus scale="   90.130">  7  8 -1 -1</clus>
<clus scale="  105.186">  5  6 -1 -1</clus>
<clus scale="  107.589">  2  7  1 -1</clus>
<clus scale="   87.098">  1  5  2 -1</clus>
</clustering>
</event>
<event>
 9    1  0.1610296E-005  0.9467972E+02  0.7546771E-02  0.1294912E+00
         21   -1    0    0  501  502  0.00000000000E+00  0.00000000000E+00  0.55607023939E+02  0.55607023939E+02  0.00000000000E+00 0.  1.
          3   -1    0    0  502    0 -0.00000000000E+00 -0.00000000000E+00 -0.33422615383E+03  0.33422615383E+03  0.00000000000E+00 0. -1.
         23    2    1    2    0    0 -0.41181084240E+01  0.39184012694E+02 -0.22025131214E+03  0.24136729289E+03  0.90527255085E+02 0.  0.
         23    2    1    2    0    0  0.21017292253E+01  0.89365050123E+01 -0.22776426066E+02  0.88579349063E+02  0.85107326997E+02 0.  0.
        -13    1    4    4    0    0  0.23293099717E+02  0.65082686798E+01 -0.49079295183E+02  0.54714744551E+02  0.00000000000E+00 0. -1.
         13    1    4    4    0    0 -0.21191370492E+02  0.24282363325E+01  0.26302869117E+02  0.33864604512E+02  0.00000000000E+00 0.  1.
        -13    1    3    3    0    0  0.87652563400E+01  0.65797361521E+02 -0.12362657168E+03  0.14031981944E+03  0.00000000000E+00 0. -1.
         13    1    3    3    0    0 -0.12883364764E+02 -0.26613348827E+02 -0.96624740455E+02  0.10104747345E+03  0.00000000000E+00 0.  1.
          3    1    1    2  501    0  0.20163791987E+01 -0.48120517706E+02 -0.35591391692E+02  0.59886535815E+02  0.00000000000E+00 0. -1.
<scales pt_clust_5="13000.00000" pt_clust_6="13000.00000" pt_clust_7="13000.00000" pt_clust_8="13000.00000" pt_clust_9="48.16275"></scales>
<clustering>
<clus scale="   48.163">  1  9  2 -1</clus>
<clus scale="   85.107">  5  6 -1 -1</clus>
<clus scale="   89.512">  1  5  2 -1</clus>
<clus scale="   90.527">  7  8 -1 -1</clus>
<clus scale="   48.163">  1  5  2 -1</clus>
</clustering>
</event>
<event>
 9    1  0.1610296E-005  0.1086564E+03  0.7546771E-02  0.1268871E+00
         21   -1    0    0  501  502  0.00000000000E+00  0.00000000000E+00  0.20840257175E+03  0.20840257175E+03  0.00000000000E+00 0. -1.
          4   -1    0    0  502    0 -0.00000000000E+00 -0.00000000000E+00 -0.29383269778E+03  0.29383269778E+03  0.00000000000E+00 0. -1.
         23    2    1    2    0    0  0.32370731031E+02 -0.21313394763E+02 -0.19820311949E+03  0.22038197841E+03  0.88213461598E+02 0.  0.
         23    2    1    2    0    0 -0.11683137252E+02  0.59326458741E+02 -0.39130084152E+02  0.12390546886E+03  0.10082299998E+03 0.  0.
        -11    1    3    3    0    0  0.41554483619E+02 -0.49179392698E+02 -0.11035745583E+03  0.12776601986E+03  0.00000000000E+00 0.  1.
         11    1    3    3    0    0 -0.91837525884E+01  0.27865997936E+02 -0.87845663667E+02  0.92615958547E+02  0.00000000000E+00 0. -1.
        -11    1    4    4    0    0  0.20995502077E+02  0.74919112160E+02 -0.12144663493E+02  0.78747554410E+02  0.00000000000E+00 0. -1.
         11    1    4    4    0    0 -0.32678639328E+02 -0.15592653419E+02 -0.26985420658E+02  0.45157914446E+02  0.00000000000E+00 0.  1.
          4    1    1    2  501    0 -0.20687593779E+02 -0.38013063978E+02  0.15190307762E+03  0.15794782227E+03  0.00000000000E+00 0. -1.
<scales pt_clust_5="13000.00000" pt_clust_6="13000.00000" pt_clust_7="13000.00000" pt_clust_8="13000.00000" pt_clust_9="43.27782"></scales>
<clustering>
<clus scale="   43.278">  1  9  2 -1</clus>
<clus scale="   88.213">  5  6 -1 -1</clus>
<clus scale="   97.070">  2  5  1 -1</clus>
<clus scale="  100.823">  7  8 -1 -1</clus>
<clus scale="   43.278">  1  5  2 -1</clus>
</clustering>
</event>
<event>
 9    1  0.1610296E-005  0.1010364E+03  0.7546771E-02  0.1278911E+00
          2   -1    0    0  502    0 -0.00000000000E+00  0.00000000000E+00  0.74241771627E+03  0.74241771627E+03  0.00000000000E+00 0. -1.
         21   -1    0    0  501  502  0.00000000000E+00 -0.00000000000E+00 -0.51946952511E+02  0.51946952511E+02  0.00000000000E+00 0. -1.
         23    2    1    2    0    0  0.13559419152E+02  0.10745326868E+02  0.28612148131E+03  0.30106694718E+03  0.92067826713E+02 0.  0.
         23    2    1    2    0    0 -0.71691337363E+01 -0.71375727205E+02  0.41557469350E+03  0.43130666543E+03  0.90427998179E+02 0.  0.
        -11    1    4    4    0    0 -0.27696930779E+02 -0.60415783539E+02  0.39402446831E+03  0.39959037589E+03  0.00000000000E+00 0. -1.
         11    1    4    4    0    0  0.20527797043E+02 -0.10959943666E+02  0.21550225188E+02  0.31716289541E+02  0.00000000000E+00 0.  1.
        -11    1    3    3    0    0  0.48364925315E+02 -0.13217745348E+02  0.17967933619E+03  0.18654366418E+03  0.00000000000E+00 0.  1.
         11    1    3    3    0    0 -0.34805506163E+02  0.23963072216E+02  0.10644214512E+03  0.11452328299E+03  0.00000000000E+00 0. -1.
          2    1    1    2  501    0 -0.63902854160E+01  0.60630400337E+02 -0.11225411051E+02  0.61991056178E+02  0.00000000000E+00 0. -1.
<scales pt_clust_5="13000.00000" pt_clust_6="13000.00000" pt_clust_7="13000.00000" pt_clust_8="13000.00000" pt_clust_9="60.96623"></scales>
<clustering>
<clus scale="   60.966">  2  9  1 -1</clus>
<clus scale="   90.428">  5  6 -1 -1</clus>
<clus scale="   92.068">  7  8 -1 -1</clus>
<clus scale="   99.544">  2  5  1 -1</clus>
<clus scale="   60.966">  2  5  1 -1</clus>
</clustering>
</event>
<event>
 9    1  0.1610296E-005  0.1122569E+03  0.7546771E-02  0.1256449E+00
          2   -1    0    0  502    0 -0.00000000000E+00  0.00000000000E+00  0.14120049967E+03  0.14120049967E+03  0.00000000000E+00 0. -1.
         21   -1    0    0  501  502  0.00000000000E+00 -0.00000000000E+00 -0.40086302138E+03  0.40086302138E+03  0.00000000000E+00 0. -1.
         23    2    1    2    0    0 -0.61719076728E+02 -0.21896685308E+02  0.33079817050E+02  0.11665135570E+03  0.90689333613E+02 0.  0.
         23    2    1    2    0    0  0.40203558108E+02  0.64492100796E+02  0.10169722732E+02  0.11876415222E+03  0.90696986948E+02 0.  0.
        -11    1    3    3    0    0  0.71201714724E+01  0.23891879660E+02  0.21973896055E+02  0.33232075821E+02  0.00000000000E+00 0. -1.
         11    1    3    3    0    0 -0.68839248200E+02 -0.45788564968E+02  0.11105920995E+02  0.83419279880E+02  0.00000000000E+00 0.  1.
        -11    1    4    4    0    0  0.31205225117E+02  0.87402820495E+02  0.13990402402E+02  0.93854943740E+02  0.00000000000E+00 0. -1.
         11    1    4    4    0    0  0.89983329915E+01 -0.22910719699E+02 -0.38206796692E+01  0.24909208476E+02  0.00000000000E+00 0.  1.
          2    1    1    2  501    0  0.21515518620E+02 -0.42595415488E+02 -0.30291206149E+03  0.30664801314E+03  0.00000000000E+00 0. -1.
<scales pt_clust_5="13000.00000" pt_clust_6="13000.00000" pt_clust_7="13000.00000" pt_clust_8="13000.00000" pt_clust_9="47.72093"></scales>
<clustering>
<clus scale="   47.721">  2  9  1 -1</clus>
<clus scale="   90.689">  5  6 -1 -1</clus>
<clus scale="   90.697">  7  8 -1 -1</clus>
<clus scale="  112.251">  1  5  2 -1</clus>
<clus scale="   47.721">  2  5  1 -1</clus>
</clustering>
</event>
<event>
 9    1  0.1610296E-005  0.1032012E+03  0.7546771E-02  0.1274455E+00
          2   -1    0    0  502    0 -0.00000000000E+00  0.00000000000E+00  0.65840098979E+03  0.65840098979E+03  0.00000000000E+00 0. -1.
         21   -1    0    0  501  502  0.00000000000E+00 -0.00000000000E+00 -0.34935353862E+02  0.34935353862E+02  0.00000000000E+00 0. -1.
         23    2    1    2    0    0  0.19201833553E+02 -0.24646619972E+02  0.19901131331E+03  0.22135244664E+03  0.91734598262E+02 0.  0.
         23    2    1    2    0    0  0.48077154698E+02  0.67506389168E+02  0.30175350628E+03  0.32563188164E+03  0.90068964711E+02 0.  0.
        -11    1    3    3    0    0  0.43287680072E+01 -0.58888337284E+02  0.13294252953E+03  0.14546577143E+03  0.00000000000E+00 0. -1.
         11    1    3    3    0    0  0.14873065546E+02  0.34241717313E+02  0.66068783782E+02  0.75886675205E+02  0.00000000000E+00 0.  1.
        -13    1    4    4    0    0  0.72611684301E+02  0.65342267460E+02  0.24568837870E+03  0.26439524966E+03  0.00000000000E+00 0. -1.
         13    1    4    4    0    0 -0.24534529602E+02  0.21641217081E+01  0.56065127580E+02  0.61236631979E+02  0.00000000000E+00 0.  1.
          2    1    1    2  501    0 -0.67278988251E+02 -0.42859769196E+02  0.12270081634E+03  0.14635201538E+03  0.00000000000E+00 0. -1.
<scales pt_clust_5="13000.00000" pt_clust_6="13000.00000" pt_clust_7="13000.00000" pt_clust_8="13000.00000" pt_clust_9="79.77106"></scales>
<clustering>
<clus scale="   79.771">  2  9  1 -1</clus>
<clus scale="   90.069">  7  8 -1 -1</clus>
<clus scale="   91.735">  5  6 -1 -1</clus>
<clus scale="  101.724">  2  7  1 -1</clus>
<clus scale="   79.771">  2  5  1 -1</clus>
</clustering>
</event>
<event>
 9    1  0.1610296E-005  0.1279028E+03  0.7546771E-02  0.1231246E+00
          2   -1    0    0  502    0 -0.00000000000E+00  0.00000000000E+00  0.38411843730E+03  0.38411843730E+03  0.00000000000E+00 0. -1.
         21   -1    0    0  501  502  0.00000000000E+00 -0.00000000000E+00 -0.11051112856E+03  0.11051112856E+03  0.00000000000E+00 0.  1.
         23    2    1    2    0    0 -0.85459831169E+02  0.31833227119E+01  0.22479076320E+03  0.25727506083E+03  0.91356737125E+02 0.  0.
         23    2    1    2    0    0  0.95261989789E+02 -0.27356824423E+02  0.10877690844E+03  0.17196577805E+03  0.88975111512E+02 0.  0.
        -11    1    4    4    0    0  0.42766049862E+02 -0.38473454861E+02  0.10302670664E+03  0.11799849164E+03  0.00000000000E+00 0. -1.
         11    1    4    4    0    0  0.52495939927E+02  0.11116630438E+02  0.57502018052E+01  0.53967286405E+02  0.00000000000E+00 0.  1.
        -13    1    3    3    0    0 -0.38357495444E+02 -0.41292053544E+02  0.13725243004E+03  0.14837304571E+03  0.00000000000E+00 0. -1.
         13    1    3    3    0    0 -0.47102335726E+02  0.44475376256E+02  0.87538333160E+02  0.10890201512E+03  0.00000000000E+00 0.  1.
          2    1    1    2  501    0 -0.98021586200E+01  0.24173501711E+02 -0.59960362896E+02  0.65388726989E+02  0.00000000000E+00 0. -1.
<scales pt_clust_5="13000.00000" pt_clust_6="13000.00000" pt_clust_7="13000.00000" pt_clust_8="13000.00000" pt_clust_9="26.08525"></scales>
<clustering>
<clus scale="   26.085">  2  9  1 -1</clus>
<clus scale="   88.975">  5  6 -1 -1</clus>
<clus scale="   91.357">  7  8 -1 -1</clus>
<clus scale="  126.213">  2  5  1 -1</clus>
<clus scale="   26.085">  2  5  1 -1</clus>
</clustering>
</event>
<event>
 9    1  0.1610296E-005  0.9296848E+02  0.7546771E-02  0.1296460E+00
         21   -1    0    0  501  502  0.00000000000E+00  0.00000000000E+00  0.40077720079E+02  0.40077720079E+02  0.00000000000E+00 0.  1.
          2   -1    0    0  502    0 -0.00000000000E+00 -0.00000000000E+00 -0.35454585900E+03  0.35454585900E+03  0.00000000000E+00 0. -1.
         23    2    1    2    0    0  0.16203469601E+02 -0.10077338174E+02 -0.18512603358E+03  0.20726139980E+03  0.91222444426E+02 0.  0.
         23    2    1    2    0    0  0.10763899053E+01  0.22977366840E+02 -0.13603688847E+03  0.16478288776E+03  0.90101315585E+02 0.  0.
        -13    1    3    3    0    0 -0.34036776340E+02  0.10000443207E+02 -0.46763617426E+02  0.58697077633E+02  0.00000000000E+00 0.  1.
         13    1    3    3    0    0  0.50240245941E+02 -0.20077781381E+02 -0.13836241616E+03  0.14856432217E+03  0.00000000000E+00 0. -1.
        -13    1    4    4    0    0  0.55058062170E+01 -0.32957766151E+02 -0.73648667429E+02  0.80874312769E+02  0.00000000000E+00 0. -1.
         13    1    4    4    0    0 -0.44294163117E+01  0.55935132991E+02 -0.62388221041E+02  0.83908574986E+02  0.00000000000E+00 0.  1.
          2    1    1    2  501    0 -0.17279859506E+02 -0.12900028666E+02  0.66947831345E+01  0.22579291516E+02  0.00000000000E+00 0. -1.
<scales pt_clust_5="13000.00000" pt_clust_6="13000.00000" pt_clust_7="13000.00000" pt_clust_8="13000.00000" pt_clust_9="21.56396"></scales>
<clustering>
<clus scale="   21.564">  1  9  2 -1</clus>
<clus scale="   90.101">  7  8 -1 -1</clus>
<clus scale="   91.222">  5  6 -1 -1</clus>
<clus scale="   91.869">  1  7  2 -1</clus>
<clus scale="   21.564">  1  5  2 -1</clus>
</clustering>
</event>
<event>
 9    1  0.1610296E-005  0.2560058E+03  0.7546771E-02  0.1109758E+00
          1   -1    0    0  502    0 -0.00000000000E+00  0.00000000000E+00  0.11397424560E+04  0.11397424560E+04  0.00000000000E+00 0. -1.
         21   -1    0    0  501  502  0.00000000000E+00 -0.00000000000E+00 -0.10409258921E+03  0.10409258921E+03  0.00000000000E+00 0.  1.
         23    2    1    2    0    0  0.57553077392E+02  0.23087708527E+03  0.84085502818E+03  0.87867979229E+03  0.91784605168E+02 0.  0.
         23    2    1    2    0    0 -0.26561260623E+02 -0.24272182778E+03  0.20459536757E+03  0.33055986309E+03  0.88267618100E+02 0.  0.
        -11    1    3    3    0    0  0.94693215300E+00  0.90170891041E+02  0.45964749755E+03  0.46840955186E+03  0.00000000000E+00 0. -1.
         11    1    3    3    0    0  0.56606145239E+02  0.14070619423E+03  0.38120753063E+03  0.41027024043E+03  0.00000000000E+00 0.  1.
        -13    1    4    4    0    0  0.16287115279E+02 -0.33291835926E+02  0.37675416155E+01  0.37253333183E+02  0.00000000000E+00 0. -1.
         13    1    4    4    0    0 -0.42848375902E+02 -0.20942999185E+03  0.20082782596E+03  0.29330652990E+03  0.00000000000E+00 0.  1.
          1    1    1    2  501    0 -0.30991816769E+02  0.11844742511E+02 -0.98005289313E+01  0.34595389854E+02  0.00000000000E+00 0. -1.
<scales pt_clust_5="13000.00000" pt_clust_6="13000.00000" pt_clust_7="13000.00000" pt_clust_8="13000.00000" pt_clust_9="33.17816"></scales>
<clustering>
<clus scale="   33.178">  2  9  1 -1</clus>
<clus scale="   88.268">  7  8 -1 -1</clus>
<clus scale="   91.785">  5  6 -1 -1</clus>
<clus scale="  254.766">  2  7  1 -1</clus>
<clus scale="   33.178">  2  5  1 -1</clus>
</clustering>
</event>
<event>
 9    1  0.1610296E-005  0.1294201E+03  0.7546771E-02  0.1228577E+00
         21   -1    0    0  501  502  0.00000000000E+00  0.00000000000E+00  0.21791621909E+03  0.21791621909E+03  0.00000000000E+00 0. -1.
          4   -1    0    0  502    0 -0.00000000000E+00 -0.00000000000E+00 -0.23996997617E+03  0.23996997617E+03  0.00000000000E+00 0.  1.
         23    2    1    2    0    0 -0.20843313411E+02 -0.87462689968E+02 -0.17614387266E+03  0.21761698484E+03  0.90809263666E+02 0.  0.
         23    2    1    2    0    0  0.45882332405E+02  0.97195280019E+02  0.79660187673E+02  0.16113963346E+03  0.89822742586E+02 0.  0.
        -11    1    4    4    0    0  0.64842907752E+02  0.62909147342E+02  0.24729688711E+02  0.93668142977E+02  0.00000000000E+00 0.  1.
         11    1    4    4    0    0 -0.18960575347E+02  0.34286132677E+02  0.54930498962E+02  0.67471490480E+02  0.00000000000E+00 0. -1.
        -13    1    3    3    0    0  0.24194355051E+02  0.51954968425E-01 -0.14040339087E+02  0.27973212853E+02  0.00000000000E+00 0.  1.
         13    1    3    3    0    0 -0.45037668462E+02 -0.87514644936E+02 -0.16210353357E+03  0.18964377199E+03  0.00000000000E+00 0. -1.
          4    1    1    2  501    0 -0.25039018995E+02 -0.97325900509E+01  0.74429927907E+02  0.79129576958E+02  0.00000000000E+00 0.  1.
<scales pt_clust_5="13000.00000" pt_clust_6="13000.00000" pt_clust_7="13000.00000" pt_clust_8="13000.00000" pt_clust_9="26.86402"></scales>
<clustering>
<clus scale="   26.864">  1  9  2 -1</clus>
<clus scale="   89.823">  5  6 -1 -1</clus>
<clus scale="   90.809">  7  8 -1 -1</clus>
<clus scale="  128.730">  1  5  2 -1</clus>
<clus scale="   26.864">  1  5  2 -1</clus>
</clustering>
</event>
<event>
 9    1  0.1610296E-005  0.1563271E+03  0.7546771E-02  0.1214616E+00
         21   -1    0    0  501  502  0.00000000000E+00  0.00000000000E+00  0.70221465974E+02  0.70221465974E+02  0.00000000000E+00 0.  1.
         -3   -1    0    0    0  501 -0.00000000000E+00 -0.00000000000E+00 -0.58363476536E+03  0.58363476536E+03  0.00000000000E+00 0.  1.
         23    2    1    2    0    0 -0.34577464879E+02  0.46326390485E+00 -0.18511705861E+03  0.20938664548E+03  0.91534836125E+02 0.  0.
         23    2    1    2    0    0  0.15089926375E+03  0.60747110680E+01 -0.24177910512E+03  0.29935335392E+03  0.91366322654E+02 0.  0.
        -13    1    4    4    0    0  0.14231662120E+03 -0.15811434826E+02 -0.23446620753E+03  0.27473337004E+03  0.00000000000E+00 0.  1.
         13    1    4    4    0    0  0.85826425494E+01  0.21886145893E+02 -0.73128975992E+01  0.24619983885E+02  0.00000000000E+00 0. -1.
        -13    1    3    3    0    0 -0.72252452456E+01 -0.44574403235E+02 -0.85327920566E+02  0.96539813656E+02  0.00000000000E+00 0.  1.
         13    1    3    3    0    0 -0.27352219634E+02  0.45037667140E+02 -0.99789138043E+02  0.11284683182E+03  0.00000000000E+00 0. -1.
         -3    1    1    2    0  502 -0.11632179887E+03 -0.65379749728E+01 -0.86517135649E+02  0.14511623193E+03  0.00000000000E+00 0.  1.
<scales pt_clust_5="13000.00000" pt_clust_6="13000.00000" pt_clust_7="13000.00000" pt_clust_8="13000.00000" pt_clust_9="126.84776"></scales>
<clustering>
<clus scale="   91.366">  5  6 -1 -1</clus>
<clus scale="   91.535">  7  8 -1 -1</clus>
<clus scale="   97.849">  2  7  1 -1</clus>
<clus scale="  126.848">  1  9  2 -1</clus>
<clus scale="  126.848">  1  5  2 -1</clus>
</clustering>
</event>
<event>
 9    1  0.1610296E-005  0.1709981E+03  0.7546771E-02  0.1203462E+00
         21   -1    0    0  501  502  0.00000000000E+00  0.00000000000E+00  0.89984068904E+03  0.89984068904E+03  0.00000000000E+00 0. -1.
          1   -1    0    0  502    0 -0.00000000000E+00 -0.00000000000E+00 -0.72130271806E+02  0.72130271806E+02  0.00000000000E+00 0. -1.
         23    2    1    2    0    0  0.22327144379E+02 -0.58832026549E+01  0.29194584005E+03  0.30698447961E+03  0.92054243494E+02 0.  0.
         23    2    1    2    0    0  0.11797313626E+03  0.55323242156E+02  0.64852146736E+02  0.17113731054E+03  0.90021420348E+02 0.  0.
        -11    1    3    3    0    0  0.45315362872E+02  0.25409900691E+02  0.12096110331E+03  0.13164624446E+03  0.00000000000E+00 0. -1.
         11    1    3    3    0    0 -0.22988218494E+02 -0.31293103346E+02  0.17098473674E+03  0.17533823515E+03  0.00000000000E+00 0.  1.
        -11    1    4    4    0    0  0.61621786987E+02  0.25167371654E+02 -0.15621197741E+02  0.68371507562E+02  0.00000000000E+00 0. -1.
         11    1    4    4    0    0  0.56351349272E+02  0.30155870502E+02  0.80473344477E+02  0.10276580298E+03  0.00000000000E+00 0.  1.
          1    1    1    2  501    0 -0.14030028064E+03 -0.49440039501E+02  0.47091243044E+03  0.49384917069E+03  0.00000000000E+00 0. -1.
<scales pt_clust_5="13000.00000" pt_clust_6="13000.00000" pt_clust_7="13000.00000" pt_clust_8="13000.00000" pt_clust_9="145.38400"></scales>
<clustering>
<clus scale="   90.021">  7  8 -1 -1</clus>
<clus scale="   92.054">  5  6 -1 -1</clus>
<clus scale="   94.906">  2  5  1 -1</clus>
<clus scale="  145.384">  1  9  2 -1</clus>
<clus scale="  145.384">  1  5  2 -1</clus>
</clustering>
</event>
<event>
 9    1  0.1610296E-005  0.1175600E+03  0.7546771E-02  0.1247683E+00
         21   -1    0    0  501  502  0.00000000000E+00  0.00000000000E+00  0.20032793576E+03  0.20032793576E+03  0.00000000000E+00 0.  1.
          4   -1    0    0  502    0 -0.00000000000E+00 -0.00000000000E+00 -0.24132141922E+03  0.24132141922E+03  0.00000000000E+00 0. -1.
         23    2    1    2    0    0  0.24837631303E+02  0.63427618027E+02 -0.19491454900E+03  0.22706181470E+03  0.94474417835E+02 0.  0.
         23    2    1    2    0    0 -0.24466794466E+02 -0.84699483899E+02  0.12915674602E+03  0.18193939609E+03  0.92993828843E+02 0.  0.
        -11    1    3    3    0    0  0.57696361354E+02  0.58945193492E+02 -0.12621573810E+03  0.15077738058E+03  0.00000000000E+00 0.  1.
         11    1    3    3    0    0 -0.32858730052E+02  0.44824245344E+01 -0.68698810906E+02  0.76284434128E+02  0.00000000000E+00 0. -1.
        -11    1    4    4    0    0 -0.53133715862E+02 -0.50022763731E+02  0.11222857538E+03  0.13386830015E+03  0.00000000000E+00 0.  1.
         11    1    4    4    0    0  0.28666921396E+02 -0.34676720167E+02  0.16928170640E+02  0.48071095942E+02  0.00000000000E+00 0. -1.
          4    1    1    2  501    0 -0.37083683683E+00  0.21271865872E+02  0.24764319529E+02  0.32648144195E+02  0.00000000000E+00 0. -1.
<scales pt_clust_5="13000.00000" pt_clust_6="13000.00000" pt_clust_7="13000.00000" pt_clust_8="13000.00000" pt_clust_9="21.27510"></scales>
<clustering>
<clus scale="   21.275">  1  9  2 -1</clus>
<clus scale="   92.994">  7  8 -1 -1</clus>
<clus scale="   94.474">  5  6 -1 -1</clus>
<clus scale="  116.374">  1  7  2 -1</clus>
<clus scale="   21.275">  1  5  2 -1</clus>
</clustering>
</event>
<event>
 9    1  0.1610296E-005  0.1272443E+03  0.7546771E-02  0.1232412E+00
         21   -1    0    0  501  502  0.00000000000E+00  0.00000000000E+00  0.94668563180E+02  0.94668563180E+02  0.00000000000E+00 0. -1.
          1   -1    0    0  502    0 -0.00000000000E+00 -0.00000000000E+00 -0.76251875520E+03  0.76251875520E+03  0.00000000000E+00 0. -1.
         23    2    1    2    0    0  0.74403855261E+02 -0.52257192357E+02 -0.61475333548E+03  0.62841627964E+03  0.93373493043E+02 0.  0.
         23    2    1    2    0    0 -0.15790138410E+02  0.84671569193E+02 -0.88415086544E+02  0.15305025560E+03  0.90490607860E+02 0.  0.
        -11    1    4    4    0    0  0.26158266980E+02  0.13598328621E+02  0.33047104090E+01  0.29666320695E+02  0.00000000000E+00 0. -1.
         11    1    4    4    0    0 -0.41948405390E+02  0.71073240572E+02 -0.91719796953E+02  0.12338393491E+03  0.00000000000E+00 0.  1.
        -13    1    3    3    0    0  0.28870679812E+02 -0.71125262701E+02 -0.44810228857E+03  0.45462949769E+03  0.00000000000E+00 0. -1.
         13    1    3    3    0    0  0.45533175449E+02  0.18868070344E+02 -0.16665104690E+03  0.17378678195E+03  0.00000000000E+00 0.  1.
          1    1    1    2  501    0 -0.58613716851E+02 -0.32414376836E+02  0.35318230002E+02  0.75720783139E+02  0.00000000000E+00 0. -1.
<scales pt_clust_5="13000.00000" pt_clust_6="13000.00000" pt_clust_7="13000.00000" pt_clust_8="13000.00000" pt_clust_9="66.97955"></scales>
<clustering>
<clus scale="   66.980">  1  9  2 -1</clus>
<clus scale="   90.491">  5  6 -1 -1</clus>
<clus scale="   93.373">  7  8 -1 -1</clus>
<clus scale="  125.144">  1  5  2 -1</clus>
<clus scale="   66.980">  1  5  2 -1</clus>
</clustering>
</event>
<event>
 9    1  0.1610296E-005  0.1020729E+03  0.7546771E-02  0.1284870E+00
         -1   -1    0    0    0  501 -0.00000000000E+00  0.00000000000E+00  0.65694397918E+02  0.65694397918E+02  0.00000000000E+00 0.  1.
         21   -1    0    0  501  502  0.00000000000E+00 -0.00000000000E+00 -0.37367085162E+03  0.37367085162E+03  0.00000000000E+00 0. -1.
         23    2    1    2    0    0  0.39643471047E+02 -0.72573009267E+01 -0.96688134166E-01  0.83066483503E+02  0.72634414154E+02 0.  0.
         23    2    1    2    0    0 -0.76455465021E+02 -0.25614301801E+02 -0.16339021530E+03  0.20361315668E+03  0.90886877657E+02 0.  0.
        -11    1    4    4    0    0 -0.36719065471E+02  0.26669160734E+02 -0.10994706928E+03  0.11894491139E+03  0.00000000000E+00 0. -1.
         11    1    4    4    0    0 -0.39736399550E+02 -0.52283462535E+02 -0.53443146021E+02  0.84668245290E+02  0.00000000000E+00 0.  1.
        -13    1    3    3    0    0  0.12304686619E+02 -0.38313691195E+02  0.76783626197E+01  0.40967078225E+02  0.00000000000E+00 0.  1.
         13    1    3    3    0    0  0.27338784428E+02  0.31056390268E+02 -0.77750507539E+01  0.42099405278E+02  0.00000000000E+00 0. -1.
         -1    1    1    2    0  502  0.36811993974E+02  0.32871602728E+02 -0.14448955027E+03  0.15268560935E+03  0.00000000000E+00 0.  1.
<scales pt_clust_5="13000.00000" pt_clust_6="13000.00000" pt_clust_7="13000.00000" pt_clust_8="13000.00000" pt_clust_9="49.35246"></scales>
<clustering>
<clus scale="   49.352">  2  9  1 -1</clus>
<clus scale="   72.634">  7  8 -1 -1</clus>
<clus scale="   86.222">  1  7  2 -1</clus>
<clus scale="   90.887">  5  6 -1 -1</clus>
<clus scale="   49.352">  2  5  1 -1</clus>
</clustering>
</event>
<event>
 9    1  0.1610296E-005  0.9779056E+02  0.7546771E-02  0.1286604E+00
         -1   -1    0    0    0  501 -0.00000000000E+00  0.00000000000E+00  0.21570583304E+03  0.21570583304E+03  0.00000000000E+00 0.  1.
         21   -1    0    0  501  502  0.00000000000E+00 -0.00000000000E+00 -0.90629852322E+02  0.90629852322E+02  0.00000000000E+00 0. -1.
         23    2    1    2    0    0  0.11851061884E+02  0.10496636708E+02  0.10411710050E+03  0.14162986030E+03  0.94699628632E+02 0.  0.
         23    2    1    2    0    0 -0.35917784172E+02 -0.12534067850E+02  0.62021384131E+02  0.11706668699E+03  0.91710234094E+02 0.  0.
        -11    1    4    4    0    0 -0.28960712579E+02  0.34792881174E+02  0.50584949367E+02  0.67883021117E+02  0.00000000000E+00 0. -1.
         11    1    4    4    0    0 -0.69570715925E+01 -0.47326949024E+02  0.11436434764E+02  0.49183665878E+02  0.00000000000E+00 0.  1.
        -13    1    3    3    0    0 -0.34738962691E+01  0.49323405398E+02  0.33927374850E+02  0.59966099086E+02  0.00000000000E+00 0. -1.
         13    1    3    3    0    0  0.15324958153E+02 -0.38826768691E+02  0.70189725649E+02  0.81663761216E+02  0.00000000000E+00 0.  1.
         -1    1    1    2    0  502  0.24066722288E+02  0.20374311424E+01 -0.41062503916E+02  0.47639138061E+02  0.00000000000E+00 0.  1.
<scales pt_clust_5="13000.00000" pt_clust_6="13000.00000" pt_clust_7="13000.00000" pt_clust_8="13000.00000" pt_clust_9="24.15281"></scales>
<clustering>
<clus scale="   24.153">  2  9  1 -1</clus>
<clus scale="   91.710">  5  6 -1 -1</clus>
<clus scale="   94.700">  7  8 -1 -1</clus>
<clus scale="   94.899">  2  5  1 -1</clus>
<clus scale="   24.153">  2  5  1 -1</clus>
</clustering>
</event>
<event>
 9    1  0.1610296E-005  0.9328359E+02  0.7546771E-02  0.1295431E+00
          1   -1    0    0  502    0 -0.00000000000E+00  0.00000000000E+00  0.47638727255E+03  0.47638727255E+03  0.00000000000E+00 0. -1.
         21   -1    0    0  501  502  0.00000000000E+00 -0.00000000000E+00 -0.40654149013E+02  0.40654149013E+02  0.00000000000E+00 0.  1.
         23    2    1    2    0    0  0.29464728450E+02  0.11056127144E+02  0.23468205120E+03  0.25384382370E+03  0.91491056957E+02 0.  0.
         23    2    1    2    0    0 -0.69067049852E+01  0.11848186877E+02  0.21049697964E+03  0.22969092408E+03  0.90889273630E+02 0.  0.
        -11    1    3    3    0    0  0.53451881403E+02  0.14500160249E+02  0.21670591706E+03  0.22367121576E+03  0.00000000000E+00 0. -1.
         11    1    3    3    0    0 -0.23987152953E+02 -0.34440331057E+01  0.17976134142E+02  0.30172607934E+02  0.00000000000E+00 0.  1.
        -11    1    4    4    0    0  0.35024995180E+02 -0.18736170128E+02  0.82218641653E+02  0.91311003684E+02  0.00000000000E+00 0.  1.
         11    1    4    4    0    0 -0.41931700165E+02  0.30584357005E+02  0.12827833799E+03  0.13837992040E+03  0.00000000000E+00 0. -1.
          1    1    1    2  501    0 -0.22558023465E+02 -0.22904314021E+02 -0.94459073036E+01  0.33506673786E+02  0.00000000000E+00 0. -1.
<scales pt_clust_5="13000.00000" pt_clust_6="13000.00000" pt_clust_7="13000.00000" pt_clust_8="13000.00000" pt_clust_9="32.14766"></scales>
<clustering>
<clus scale="   32.148">  2  9  1 -1</clus>
<clus scale="   90.889">  7  8 -1 -1</clus>
<clus scale="   91.491">  5  6 -1 -1</clus>
<clus scale="   92.693">  2  7  1 -1</clus>
<clus scale="   32.148">  2  5  1 -1</clus>
</clustering>
</event>
<event>
 9    1  0.1610296E-005  0.1082788E+03  0.7546771E-02  0.1272284E+00
         21   -1    0    0  501  502  0.00000000000E+00  0.00000000000E+00  0.31824551811E+03  0.31824551811E+03  0.00000000000E+00 0. -1.
         -1   -1    0    0    0  501 -0.00000000000E+00 -0.00000000000E+00 -0.97184806213E+02  0.97184806213E+02  0.00000000000E+00 0.  1.
         23    2    1    2    0    0  0.19394149921E+02 -0.74708052634E+01 -0.50271206140E+02  0.10520715816E+03  0.90052240280E+02 0.  0.
         23    2    1    2    0    0 -0.65969285728E+01 -0.17595689747E+02  0.14647208663E+03  0.18223068378E+03  0.10677463269E+03 0.  0.
        -11    1    4    4    0    0 -0.44226066492E+02  0.22197006223E+02  0.44821937943E+02  0.66765696009E+02  0.00000000000E+00 0. -1.
         11    1    4    4    0    0  0.37629137920E+02 -0.39792695969E+02  0.10165014868E+03  0.11546498777E+03  0.00000000000E+00 0.  1.
        -13    1    3    3    0    0 -0.33705588026E+02 -0.13238906909E+02 -0.79845921652E+01  0.37082192929E+02  0.00000000000E+00 0. -1.
         13    1    3    3    0    0  0.53099737947E+02  0.57681016457E+01 -0.42286613975E+02  0.68124965234E+02  0.00000000000E+00 0.  1.
         -1    1    1    2    0  502 -0.12797221348E+02  0.25066495010E+02  0.12485983141E+03  0.12799248238E+03  0.00000000000E+00 0.  1.
<scales pt_clust_5="13000.00000" pt_clust_6="13000.00000" pt_clust_7="13000.00000" pt_clust_8="13000.00000" pt_clust_9="28.14424"></scales>
<clustering>
<clus scale="   28.144">  1  9  2 -1</clus>
<clus scale="   90.052">  7  8 -1 -1</clus>
<clus scale="   91.831">  2  7  1 -1</clus>
<clus scale="  106.775">  5  6 -1 -1</clus>
<clus scale="   28.144">  1  5  2 -1</clus>
</clustering>
</event>
<event>
 9    1  0.1610296E-005  0.1066833E+03  0.7546771E-02  0.1267277E+00
         21   -1    0    0  501  502  0.00000000000E+00  0.00000000000E+00  0.15479977456E+03  0.15479977456E+03  0.00000000000E+00 0. -1.
         -1   -1    0    0    0  501 -0.00000000000E+00 -0.00000000000E+00 -0.12064175806E+03  0.12064175806E+03  0.00000000000E+00 0.  1.
         23    2    1    2    0    0 -0.21635620405E+02 -0.36824031980E+02 -0.10702731384E+02  0.10153290983E+03  0.91489201095E+02 0.  0.
         23    2    1    2    0    0  0.62998201936E+02  0.51144568817E+02  0.46528639739E+02  0.13010539472E+03  0.90432068725E+02 0.  0.
        -11    1    3    3    0    0 -0.39799601609E+02 -0.15369425822E+02 -0.41720062823E+02  0.59672365298E+02  0.00000000000E+00 0.  1.
         11    1    3    3    0    0  0.18163981203E+02 -0.21454606158E+02  0.31017331439E+02  0.41860544527E+02  0.00000000000E+00 0. -1.
        -11    1    4    4    0    0  0.39034198160E+02 -0.21769406886E+02  0.19029617573E+02  0.48576764478E+02  0.00000000000E+00 0.  1.
         11    1    4    4    0    0  0.23964003776E+02  0.72913975703E+02  0.27499022166E+02  0.81528630247E+02  0.00000000000E+00 0. -1.
         -1    1    1    2    0  502 -0.41362581531E+02 -0.14320536837E+02 -0.16678918574E+01  0.43803228071E+02  0.00000000000E+00 0.  1.
<scales pt_clust_5="13000.00000" pt_clust_6="13000.00000" pt_clust_7="13000.00000" pt_clust_8="13000.00000" pt_clust_9="43.77148"></scales>
<clustering>
<clus scale="   43.771">  1  9  2 -1</clus>
<clus scale="   90.432">  7  8 -1 -1</clus>
<clus scale="   91.489">  5  6 -1 -1</clus>
<clus scale="  105.778">  1  7  2 -1</clus>
<clus scale="   43.771">  1  5  2 -1</clus>
</clustering>
</event>
<event>
 9    1  0.1610296E-005  0.1299876E+03  0.7546771E-02  0.1232647E+00
         -3   -1    0    0    0  501 -0.00000000000E+00  0.00000000000E+00  0.46718909663E+03  0.46718909663E+03  0.00000000000E+00 0.  1.
         21   -1    0    0  501  502  0.00000000000E+00 -0.00000000000E+00 -0.24681777559E+03  0.24681777559E+03  0.00000000000E+00 0. -1.
         23    2    1    2    0    0 -0.64351172850E+02  0.14430349270E+02  0.32842505503E+03  0.35199062535E+03  0.10809752606E+03 0.  0.
         23    2    1    2    0    0  0.17433022734E+03 -0.24686673372E+02 -0.14462184906E+03  0.24566414482E+03  0.91841890316E+02 0.  0.
        -11    1    4    4    0    0  0.10688819130E+03 -0.33792275082E+02 -0.13724812801E+03  0.17721188430E+03  0.00000000000E+00 0. -1.
         11    1    4    4    0    0  0.67442036043E+02  0.91056017095E+01 -0.73737210491E+01  0.68452260520E+02  0.00000000000E+00 0.  1.
        -13    1    3    3    0    0 -0.47007876937E+02 -0.33035376429E+02  0.26363405367E+03  0.26982214669E+03  0.00000000000E+00 0.  1.
         13    1    3    3    0    0 -0.17343295912E+02  0.47465725699E+02  0.64791001356E+02  0.82168478664E+02  0.00000000000E+00 0. -1.
         -3    1    1    2    0  502 -0.10997905449E+03  0.10256324103E+02  0.36568115079E+02  0.11635210205E+03  0.00000000000E+00 0.  1.
<scales pt_clust_5="13000.00000" pt_clust_6="13000.00000" pt_clust_7="13000.00000" pt_clust_8="13000.00000" pt_clust_9="110.45631"></scales>
<clustering>
<clus scale="   91.842">  5  6 -1 -1</clus>
<clus scale="  108.098">  7  8 -1 -1</clus>
<clus scale="  110.456">  2  9  1 -1</clus>
<clus scale="  116.819">  2  5  1 -1</clus>
<clus scale="  110.456">  2  5  1 -1</clus>
</clustering>
</event>
<event>
 9    1  0.1610296E-005  0.9385508E+02  0.7546771E-02  0.1294010E+00
         21   -1    0    0  501  502  0.00000000000E+00  0.00000000000E+00  0.25086965692E+03  0.25086965692E+03  0.00000000000E+00 0.  1.
          3   -1    0    0  502    0 -0.00000000000E+00 -0.00000000000E+00 -0.49743885057E+02  0.49743885057E+02  0.00000000000E+00 0. -1.
         23    2    1    2    0    0  0.29045100818E+01  0.35735901446E+02  0.69789552653E+02  0.12033606305E+03  0.91239769722E+02 0.  0.
         23    2    1    2    0    0  0.59436522035E+01 -0.47986014981E+01  0.10120481949E+03  0.13619451450E+03  0.90819473210E+02 0.  0.
        -11    1    3    3    0    0  0.37419528538E+02 -0.55288617238E+01  0.84689224303E+01  0.38762250646E+02  0.00000000000E+00 0.  1.
         11    1    3    3    0    0 -0.34515018457E+02  0.41264763170E+02  0.61320630223E+02  0.81573812400E+02  0.00000000000E+00 0. -1.
        -11    1    4    4    0    0  0.30179942864E+02 -0.18297864648E+02  0.10251611266E+03  0.10842137315E+03  0.00000000000E+00 0.  1.
         11    1    4    4    0    0 -0.24236290660E+02  0.13499263150E+02 -0.13112931677E+01  0.27773141348E+02  0.00000000000E+00 0. -1.
          3    1    1    2  501    0 -0.88481622852E+01 -0.30937299948E+02  0.30131399720E+02  0.44082964431E+02  0.00000000000E+00 0. -1.
<scales pt_clust_5="13000.00000" pt_clust_6="13000.00000" pt_clust_7="13000.00000" pt_clust_8="13000.00000" pt_clust_9="32.17773"></scales>
<clustering>
<clus scale="   32.178">  1  9  2 -1</clus>
<clus scale="   90.819">  7  8 -1 -1</clus>
<clus scale="   91.240">  5  6 -1 -1</clus>
<clus scale="   93.447">  1  7  2 -1</clus>
<clus scale="   32.178">  1  5  2 -1</clus>
</clustering>
</event>
<event>
 9    1  0.1610296E-005  0.1237450E+03  0.7546771E-02  0.1238598E+00
         -3   -1    0    0    0  501 -0.00000000000E+00  0.00000000000E+00  0.63668967050E+03  0.63668967050E+03  0.00000000000E+00 0.  1.
         21   -1    0    0  501  502  0.00000000000E+00 -0.00000000000E+00 -0.38023035611E+02  0.38023035611E+02  0.00000000000E+00 0. -1.
         23    2    1    2    0    0 -0.72336355303E+02 -0.52270412103E+02  0.38692864889E+03  0.40735451665E+03  0.90880023243E+02 0.  0.
         23    2    1    2    0    0  0.50590372389E+02  0.59170916311E+02  0.21516601713E+03  0.24428751265E+03  0.85553438223E+02 0.  0.
        -11    1    4    4    0    0  0.68946456861E+02  0.29577253746E+02  0.17897368453E+03  0.19406186541E+03  0.00000000000E+00 0. -1.
         11    1    4    4    0    0 -0.18356084472E+02  0.29593662565E+02  0.36192332602E+02  0.50225647236E+02  0.00000000000E+00 0.  1.
        -13    1    3    3    0    0 -0.68106186486E+02 -0.13994072685E+02  0.33806115777E+03  0.34513712217E+03  0.00000000000E+00 0.  1.
         13    1    3    3    0    0 -0.42301688171E+01 -0.38276339418E+02  0.48867491116E+02  0.62217394476E+02  0.00000000000E+00 0. -1.
         -3    1    1    2    0  502  0.21745982915E+02 -0.69005042083E+01 -0.34280311296E+01  0.23070676814E+02  0.00000000000E+00 0.  1.
<scales pt_clust_5="13000.00000" pt_clust_6="13000.00000" pt_clust_7="13000.00000" pt_clust_8="13000.00000" pt_clust_9="22.81457"></scales>
<clustering>
<clus scale="   22.815">  2  9  1 -1</clus>
<clus scale="   85.553">  5  6 -1 -1</clus>
<clus scale="   90.880">  7  8 -1 -1</clus>
<clus scale="  119.888">  2  5  1 -1</clus>
<clus scale="   22.815">  2  5  1 -1</clus>
</clustering>
</event>
<event>
 9    1  0.1610296E-005  0.1274834E+03  0.7546771E-02  0.1231608E+00
          1   -1    0    0  502    0 -0.00000000000E+00  0.00000000000E+00  0.40334603692E+03  0.40334603692E+03  0.00000000000E+00 0. -1.
         21   -1    0    0  501  502  0.00000000000E+00 -0.00000000000E+00 -0.61833684921E+02  0.61833684921E+02  0.00000000000E+00 0.  1.
         23    2    1    2    0    0 -0.91854767162E+02 -0.35861875873E+02  0.25866586070E+03  0.29127616882E+03  0.90611294195E+02 0.  0.
         23    2    1    2    0    0  0.56935297013E+02  0.40756646002E+02  0.74993029348E+02  0.13777869960E+03  0.91958052255E+02 0.  0.
        -13    1    3    3    0    0 -0.51159735630E+02 -0.61440326945E+02  0.11724870820E+03  0.14191367764E+03  0.00000000000E+00 0.  1.
         13    1    3    3    0    0 -0.40695031532E+02  0.25578451071E+02  0.14141715250E+03  0.14936249118E+03  0.00000000000E+00 0. -1.
        -13    1    4    4    0    0  0.28960805072E+02 -0.27621416143E+02  0.15478722705E+02  0.42909925620E+02  0.00000000000E+00 0.  1.
         13    1    4    4    0    0  0.27974491941E+02  0.68378062145E+02  0.59514306642E+02  0.94868773984E+02  0.00000000000E+00 0. -1.
          1    1    1    2  501    0  0.34919470149E+02 -0.48947701291E+01  0.78534619497E+01  0.36124853421E+02  0.00000000000E+00 0. -1.
<scales pt_clust_5="13000.00000" pt_clust_6="13000.00000" pt_clust_7="13000.00000" pt_clust_8="13000.00000" pt_clust_9="35.26086"></scales>
<clustering>
<clus scale="   35.261">  2  9  1 -1</clus>
<clus scale="   90.611">  5  6 -1 -1</clus>
<clus scale="   91.958">  7  8 -1 -1</clus>
<clus scale="  126.515">  1  5  2 -1</clus>
<clus scale="   35.261">  2  5  1 -1</clus>
</clustering>
</event>
<event>
 9    1  0.1610296E-005  0.9687582E+02  0.7546771E-02  0.1295773E+00
         -3   -1    0    0    0  501 -0.00000000000E+00  0.00000000000E+00  0.50743913974E+03  0.50743913974E+03  0.00000000000E+00 0.  1.
         21   -1    0    0  501  502  0.00000000000E+00 -0.00000000000E+00 -0.72916306314E+02  0.72916306314E+02  0.00000000000E+00 0. -1.
         23    2    1    2    0    0  0.44754855409E+01  0.29308226166E+02  0.45023635215E+03  0.46043504788E+03  0.91698737324E+02 0.  0.
         23    2    1    2    0    0 -0.21584754702E+02 -0.46634122899E+02 -0.22744916277E+02  0.94575687873E+02  0.76069615920E+02 0.  0.
        -11    1    4    4    0    0 -0.27204346280E+02 -0.36258136294E+01 -0.39482652780E+02  0.48084330624E+02  0.00000000000E+00 0. -1.
         11    1    4    4    0    0  0.56195915776E+01 -0.43008309269E+02  0.16737736503E+02  0.46491357250E+02  0.00000000000E+00 0.  1.
        -13    1    3    3    0    0 -0.15474277472E+02 -0.29859071302E+02  0.14065857262E+03  0.14462313595E+03  0.00000000000E+00 0. -1.
         13    1    3    3    0    0  0.19949763013E+02  0.59167297469E+02  0.30957777953E+03  0.31581191192E+03  0.00000000000E+00 0.  1.
         -3    1    1    2    0  502  0.17109269161E+02  0.17325896732E+02  0.70313975577E+01  0.25344710305E+02  0.00000000000E+00 0.  1.
<scales pt_clust_5="13000.00000" pt_clust_6="13000.00000" pt_clust_7="13000.00000" pt_clust_8="13000.00000" pt_clust_9="24.34982"></scales>
<clustering>
<clus scale="   24.350">  2  9  1 -1</clus>
<clus scale="   76.070">  5  6 -1 -1</clus>
<clus scale="   82.237">  2  5  1 -1</clus>
<clus scale="   91.699">  7  8 -1 -1</clus>
<clus scale="   24.350">  2  5  1 -1</clus>
</clustering>
</event>
<event>
 9    1  0.1610296E-005  0.1161163E+03  0.7546771E-02  0.1257706E+00
         -2   -1    0    0    0  501 -0.00000000000E+00  0.00000000000E+00  0.29656366412E+03  0.29656366412E+03  0.00000000000E+00 0.  1.
         21   -1    0    0  501  502  0.00000000000E+00 -0.00000000000E+00 -0.87259708783E+02  0.87259708783E+02  0.00000000000E+00 0.  1.
         23    2    1    2    0    0 -0.25413632501E+02 -0.54770638809E+02  0.13055981548E+03  0.16381402551E+03  0.78380443617E+02 0.  0.
         23    2    1    2    0    0  0.38588711412E+02 -0.44342185269E+02  0.37992221662E+02  0.11203873363E+03  0.87486861203E+02 0.  0.
        -11    1    3    3    0    0 -0.51498804483E+02 -0.24828591513E+02  0.60203766294E+02  0.83024570434E+02  0.00000000000E+00 0.  1.
         11    1    3    3    0    0  0.26085171983E+02 -0.29942047296E+02  0.70356049189E+02  0.80789455074E+02  0.00000000000E+00 0. -1.
        -13    1    4    4    0    0 -0.25270300654E+02 -0.29142198030E+02  0.60775086117E+01  0.39048583996E+02  0.00000000000E+00 0. -1.
         13    1    4    4    0    0  0.63859012066E+02 -0.15199987239E+02  0.31914713050E+02  0.72990149631E+02  0.00000000000E+00 0.  1.
         -2    1    1    2    0  502 -0.13175078911E+02  0.99112824077E+02  0.40751918189E+02  0.10797061377E+03  0.00000000000E+00 0.  1.
<scales pt_clust_5="13000.00000" pt_clust_6="13000.00000" pt_clust_7="13000.00000" pt_clust_8="13000.00000" pt_clust_9="76.34825"></scales>
<clustering>
<clus scale="   78.380">  5  6 -1 -1</clus>
<clus scale="   87.487">  7  8 -1 -1</clus>
<clus scale="   98.940">  1  5  2 -1</clus>
<clus scale="   76.348">  2  9  1 -1</clus>
<clus scale="   76.348">  2  5  1 -1</clus>
</clustering>
</event>
<event>
 9    1  0.1610296E-005  0.1203208E+03  0.7546771E-02  0.1246707E+00
          2   -1    0    0  502    0 -0.00000000000E+00  0.00000000000E+00  0.34405890091E+03  0.34405890091E+03  0.00000000000E+00 0. -1.
         21   -1    0    0  501  502  0.00000000000E+00 -0.00000000000E+00 -0.80070461590E+02  0.80070461590E+02  0.00000000000E+00 0. -1.
         23    2    1    2    0    0  0.31565746105E+02 -0.32549828835E+02  0.12905187059E+03  0.16360334195E+03  0.89753999955E+02 0.  0.
         23    2    1    2    0    0 -0.54180523208E+02  0.79416765984E+02  0.15132832532E+03  0.20596754161E+03  0.10138941925E+03 0.  0.
        -11    1    4    4    0    0 -0.62707359006E+02  0.37027982059E+02  0.14501209580E+03  0.16227073753E+03  0.00000000000E+00 0. -1.
         11    1    4    4    0    0  0.85268357971E+01  0.42388783925E+02  0.63162295174E+01  0.43696804079E+02  0.00000000000E+00 0.  1.
        -11    1    3    3    0    0  0.43843657986E+02 -0.57788582698E+01  0.16401362384E+02  0.47166367642E+02  0.00000000000E+00 0. -1.
         11    1    3    3    0    0 -0.12277911881E+02 -0.26770970565E+02  0.11265050821E+03  0.11643697430E+03  0.00000000000E+00 0.  1.
          2    1    1    2  501    0  0.22614777104E+02 -0.46866937150E+02 -0.16391756590E+02  0.54558478950E+02  0.00000000000E+00 0. -1.
<scales pt_clust_5="13000.00000" pt_clust_6="13000.00000" pt_clust_7="13000.00000" pt_clust_8="13000.00000" pt_clust_9="52.03785"></scales>
<clustering>
<clus scale="   52.038">  2  9  1 -1</clus>
<clus scale="   89.754">  7  8 -1 -1</clus>
<clus scale="  101.389">  5  6 -1 -1</clus>
<clus scale="  110.694">  1  7  2 -1</clus>
<clus scale="   52.038">  2  5  1 -1</clus>
</clustering>
</event>
<event>
 9    1  0.1610296E-005  0.1068955E+03  0.7546771E-02  0.1267637E+00
         21   -1    0    0  501  502  0.00000000000E+00  0.00000000000E+00  0.93065218741E+02  0.93065218741E+02  0.00000000000E+00 0. -1.
         -3   -1    0    0    0  501 -0.00000000000E+00 -0.00000000000E+00 -0.24448538295E+03  0.24448538295E+03  0.00000000000E+00 0.  1.
         23    2    1    2    0    0 -0.55237513945E+02  0.51983597832E+00 -0.18001377706E+03  0.20902154138E+03  0.90739140683E+02 0.  0.
         23    2    1    2    0    0  0.34282263089E+02  0.53613947587E+01  0.35120198733E+02  0.10580665426E+03  0.93582058169E+02 0.  0.
        -13    1    4    4    0    0 -0.16894922782E+02  0.33403442750E+02  0.28557494987E+02  0.47082469384E+02  0.00000000000E+00 0. -1.
         13    1    4    4    0    0  0.51177185871E+02 -0.28042047991E+02  0.65627037452E+01  0.58724184879E+02  0.00000000000E+00 0.  1.
        -13    1    3    3    0    0  0.77849055346E+01  0.22893301959E+02 -0.10828953524E+03  0.11095643953E+03  0.00000000000E+00 0. -1.
         13    1    3    3    0    0 -0.63022419480E+02 -0.22373465981E+02 -0.71724241814E+02  0.98065101850E+02  0.00000000000E+00 0.  1.
         -3    1    1    2    0  502  0.20955250856E+02 -0.58812307370E+01 -0.65265858814E+01  0.22722406050E+02  0.00000000000E+00 0.  1.
<scales pt_clust_5="13000.00000" pt_clust_6="13000.00000" pt_clust_7="13000.00000" pt_clust_8="13000.00000" pt_clust_9="21.76491"></scales>
<clustering>
<clus scale="   21.765">  1  9  2 -1</clus>
<clus scale="   90.739">  7  8 -1 -1</clus>
<clus scale="   93.582">  5  6 -1 -1</clus>
<clus scale="  104.416">  2  7  1 -1</clus>
<clus scale="   21.765">  1  5  2 -1</clus>
</clustering>
</event>
<event>
 9    1  0.1610296E-005  0.9521034E+02  0.7546771E-02  0.1292182E+00
         21   -1    0    0  501  502  0.00000000000E+00  0.00000000000E+00  0.19039391282E+03  0.19039391282E+03  0.00000000000E+00 0.  1.
         -1   -1    0    0    0  501 -0.00000000000E+00 -0.00000000000E+00 -0.15101465727E+03  0.15101465727E+03  0.00000000000E+00 0.  1.
         23    2    1    2    0    0  0.28019574549E+02  0.30230326808E+02 -0.92888683298E+02  0.13423573371E+03  0.87703794114E+02 0.  0.
         23    2    1    2    0    0  0.16954021965E+02 -0.27730620718E+01  0.38850528936E+02  0.99919219918E+02  0.90439804159E+02 0.  0.
        -11    1    3    3    0    0  0.53424054471E+02  0.18921492678E+02 -0.27120878360E+02  0.62830681392E+02  0.00000000000E+00 0.  1.
         11    1    3    3    0    0 -0.25404479922E+02  0.11308834130E+02 -0.65767804938E+02  0.71405052313E+02  0.00000000000E+00 0. -1.
        -13    1    4    4    0    0 -0.13514613577E+02  0.31229006378E+02 -0.75153797223E+01  0.34847905990E+02  0.00000000000E+00 0.  1.
         13    1    4    4    0    0  0.30468635542E+02 -0.34002068450E+02  0.46365908658E+02  0.65071313928E+02  0.00000000000E+00 0. -1.
         -1    1    1    2    0  502 -0.44973596514E+02 -0.27457264736E+02  0.93417409916E+02  0.10725361647E+03  0.00000000000E+00 0.  1.
<scales pt_clust_5="13000.00000" pt_clust_6="13000.00000" pt_clust_7="13000.00000" pt_clust_8="13000.00000" pt_clust_9="52.69275"></scales>
<clustering>
<clus scale="   52.693">  1  9  2 -1</clus>
<clus scale="   87.704">  5  6 -1 -1</clus>
<clus scale="   90.440">  7  8 -1 -1</clus>
<clus scale="   92.615">  2  5  1 -1</clus>
<clus scale="   52.693">  1  5  2 -1</clus>
</clustering>
</event>
<event>
 9    1  0.1610296E-005  0.1229975E+03  0.7546771E-02  0.1238696E+00
          2   -1    0    0  502    0 -0.00000000000E+00  0.00000000000E+00  0.42000277999E+03  0.42000277999E+03  0.00000000000E+00 0. -1.
         21   -1    0    0  501  502  0.00000000000E+00 -0.00000000000E+00 -0.64631996949E+02  0.64631996949E+02  0.00000000000E+00 0. -1.
         23    2    1    2    0    0  0.15678034559E+02 -0.63553985768E+02  0.17780906873E+03  0.21050521286E+03  0.91714065680E+02 0.  0.
         23    2    1    2    0    0 -0.38096816382E+02  0.98581681568E+02  0.18554089325E+03  0.23178327088E+03  0.90157341530E+02 0.  0.
        -11    1    4    4    0    0 -0.18890996817E+02  0.48423817169E+02  0.16683767126E+02  0.54590144857E+02  0.00000000000E+00 0.  1.
         11    1    4    4    0    0 -0.19205819565E+02  0.50157864398E+02  0.16885712613E+03  0.17719312602E+03  0.00000000000E+00 0. -1.
        -11    1    3    3    0    0  0.42926515809E+02  0.49168535175E+00  0.62653831281E+02  0.75950181621E+02  0.00000000000E+00 0.  1.
         11    1    3    3    0    0 -0.27248481251E+02 -0.64045671119E+02  0.11515523745E+03  0.13455503124E+03  0.00000000000E+00 0. -1.
          2    1    1    2  501    0  0.22418781823E+02 -0.35027695800E+02 -0.79791789385E+01  0.42346293203E+02  0.00000000000E+00 0. -1.
<scales pt_clust_5="13000.00000" pt_clust_6="13000.00000" pt_clust_7="13000.00000" pt_clust_8="13000.00000" pt_clust_9="41.58775"></scales>
<clustering>
<clus scale="   41.588">  2  9  1 -1</clus>
<clus scale="   90.157">  5  6 -1 -1</clus>
<clus scale="   91.714">  7  8 -1 -1</clus>
<clus scale="  121.841">  2  5  1 -1</clus>
<clus scale="   41.588">  2  5  1 -1</clus>
</clustering>
</event>
<event>
 9    1  0.1610296E-005  0.9605891E+02  0.7546771E-02  0.1291462E+00
         21   -1    0    0  501  502  0.00000000000E+00  0.00000000000E+00  0.95222037004E+02  0.95222037004E+02  0.00000000000E+00 0. -1.
          2   -1    0    0  502    0 -0.00000000000E+00 -0.00000000000E+00 -0.39907889732E+03  0.39907889732E+03  0.00000000000E+00 0. -1.
         23    2    1    2    0    0 -0.59383508503E+01  0.19178055292E+02 -0.33154495478E+03  0.34377339352E+03  0.88628591532E+02 0.  0.
         23    2    1    2    0    0  0.41926521850E+02 -0.35132293868E+02  0.24751589631E+02  0.11105211502E+03  0.93422801039E+02 0.  0.
        -11    1    3    3    0    0  0.38887698609E+02  0.19251967777E+02 -0.20447823853E+03  0.20903167559E+03  0.00000000000E+00 0.  1.
         11    1    3    3    0    0 -0.44826049459E+02 -0.73912484355E-01 -0.12706671625E+03  0.13474171793E+03  0.00000000000E+00 0. -1.
        -11    1    4    4    0    0  0.19333978380E+02  0.28868694898E+02 -0.80569490889E+01  0.35666772966E+02  0.00000000000E+00 0.  1.
         11    1    4    4    0    0  0.22592543470E+02 -0.64000988767E+02  0.32808538720E+02  0.75385342053E+02  0.00000000000E+00 0. -1.
          2    1    1    2  501    0 -0.35988171000E+02  0.15954238576E+02  0.29365048311E+01  0.39475425787E+02  0.00000000000E+00 0. -1.
<scales pt_clust_5="13000.00000" pt_clust_6="13000.00000" pt_clust_7="13000.00000" pt_clust_8="13000.00000" pt_clust_9="39.36605"></scales>
<clustering>
<clus scale="   39.366">  1  9  2 -1</clus>
<clus scale="   88.629">  5  6 -1 -1</clus>
<clus scale="   91.403">  2  5  1 -1</clus>
<clus scale="   93.423">  7  8 -1 -1</clus>
<clus scale="   39.366">  1  5  2 -1</clus>
</clustering>
</event>
<event>
 9    1  0.1610296E-005  0.1006207E+03  0.7546771E-02  0.1279802E+00
         -3   -1    0    0    0  501 -0.00000000000E+00  0.00000000000E+00  0.11162181886E+03  0.11162181886E+03  0.00000000000E+00 0.  1.
         21   -1    0    0  501  502  0.00000000000E+00 -0.00000000000E+00 -0.14518506627E+03  0.14518506627E+03  0.00000000000E+00 0. -1.
         23    2    1    2    0    0  0.44618764543E+02  0.21292998148E+02  0.40428470021E+02  0.11216159119E+03  0.92203771244E+02 0.  0.
         23    2    1    2    0    0 -0.13737607582E+02 -0.15616696535E+02 -0.55609857115E+02  0.10826179433E+03  0.90529314754E+02 0.  0.
        -11    1    4    4    0    0  0.72076847212E+01 -0.48908156510E+02 -0.14848820818E+02  0.51618271687E+02  0.00000000000E+00 0.  1.
         11    1    4    4    0    0 -0.20945292303E+02  0.33291459976E+02 -0.40761036298E+02  0.56643522640E+02  0.00000000000E+00 0. -1.
        -13    1    3    3    0    0  0.44859883938E+02 -0.92558523854E+01  0.60294966770E+02  0.75720294559E+02  0.00000000000E+00 0.  1.
         13    1    3    3    0    0 -0.24111939522E+00  0.30548850533E+02 -0.19866496748E+02  0.36441296636E+02  0.00000000000E+00 0. -1.
         -3    1    1    2    0  502 -0.30881156961E+02 -0.56763016131E+01 -0.18381860309E+02  0.36383499607E+02  0.00000000000E+00 0.  1.
<scales pt_clust_5="13000.00000" pt_clust_6="13000.00000" pt_clust_7="13000.00000" pt_clust_8="13000.00000" pt_clust_9="31.39851"></scales>
<clustering>
<clus scale="   31.399">  2  9  1 -1</clus>
<clus scale="   90.529">  5  6 -1 -1</clus>
<clus scale="   92.204">  7  8 -1 -1</clus>
<clus scale="   99.089">  2  5  1 -1</clus>
<clus scale="   31.399">  2  5  1 -1</clus>
</clustering>
</event>
<event>
 9    1  0.1610296E-005  0.9790405E+02  0.7546771E-02  0.1291821E+00
         21   -1    0    0  501  502  0.00000000000E+00  0.00000000000E+00  0.55701157602E+02  0.55701157602E+02  0.00000000000E+00 0.  1.
         -4   -1    0    0    0  501 -0.00000000000E+00 -0.00000000000E+00 -0.54688406863E+03  0.54688406863E+03  0.00000000000E+00 0.  1.
         23    2    1    2    0    0  0.20797364783E+01 -0.18118769039E+02 -0.37273842925E+03  0.38260006495E+03  0.84357915848E+02 0.  0.
         23    2    1    2    0    0  0.25926310973E+02  0.39152374400E+01 -0.14676851340E+03  0.17769651304E+03  0.96682736483E+02 0.  0.
        -11    1    3    3    0    0  0.52043830296E+01  0.31913152983E+02 -0.94420785113E+02  0.99803905723E+02  0.00000000000E+00 0. -1.
         11    1    3    3    0    0 -0.31246465513E+01 -0.50031922022E+02 -0.27831764413E+03  0.28279615923E+03  0.00000000000E+00 0.  1.
        -11    1    4    4    0    0 -0.94482961903E+01 -0.39717812181E+02 -0.40560733593E+02  0.57549526626E+02  0.00000000000E+00 0.  1.
         11    1    4    4    0    0  0.35374607164E+02  0.43633049621E+02 -0.10620777981E+03  0.12014698641E+03  0.00000000000E+00 0. -1.
         -4    1    1    2    0  502 -0.28006047451E+02  0.14203531599E+02  0.28324031618E+02  0.42288648251E+02  0.00000000000E+00 0.  1.
<scales pt_clust_5="13000.00000" pt_clust_6="13000.00000" pt_clust_7="13000.00000" pt_clust_8="13000.00000" pt_clust_9="31.40189"></scales>
<clustering>
<clus scale="   31.402">  1  9  2 -1</clus>
<clus scale="   84.358">  5  6 -1 -1</clus>
<clus scale="   85.755">  2  5  1 -1</clus>
<clus scale="   96.683">  7  8 -1 -1</clus>
<clus scale="   31.402">  1  5  2 -1</clus>
</clustering>
</event>
<event>
 9    1  0.1610296E-005  0.9138685E+02  0.7546771E-02  0.1299796E+00
         21   -1    0    0  501  502  0.00000000000E+00  0.00000000000E+00  0.57992888396E+02  0.57992888396E+02  0.00000000000E+00 0. -1.
         -3   -1    0    0    0  501 -0.00000000000E+00 -0.00000000000E+00 -0.22989936616E+03  0.22989936616E+03  0.00000000000E+00 0.  1.
         23    2    1    2    0    0  0.14038781717E+02  0.12589966388E+02 -0.10841801576E+03  0.14190089332E+03  0.89586844664E+02 0.  0.
         23    2    1    2    0    0 -0.17873365129E+02  0.18281183073E+02 -0.66375930224E+02  0.11474925229E+03  0.90044255520E+02 0.  0.
        -11    1    3    3    0    0  0.12094924546E+01 -0.36447343495E+02 -0.67648178032E+02  0.76851465249E+02  0.00000000000E+00 0.  1.
         11    1    3    3    0    0  0.12829289262E+02  0.49037309883E+02 -0.40769837727E+02  0.65049428067E+02  0.00000000000E+00 0. -1.
        -13    1    4    4    0    0 -0.31083602017E+02  0.41234157746E+02 -0.10188163226E+02  0.52633114570E+02  0.00000000000E+00 0.  1.
         13    1    4    4    0    0  0.13210236888E+02 -0.22952974673E+02 -0.56187766998E+02  0.62116137719E+02  0.00000000000E+00 0. -1.
         -3    1    1    2    0  502  0.38345834127E+01 -0.30871149461E+02  0.28874682197E+01  0.31242108951E+02  0.00000000000E+00 0.  1.
<scales pt_clust_5="13000.00000" pt_clust_6="13000.00000" pt_clust_7="13000.00000" pt_clust_8="13000.00000" pt_clust_9="31.10839"></scales>
<clustering>
<clus scale="   31.108">  1  9  2 -1</clus>
<clus scale="   89.587">  5  6 -1 -1</clus>
<clus scale="   90.044">  7  8 -1 -1</clus>
<clus scale="   90.936">  2  5  1 -1</clus>
<clus scale="   31.108">  1  5  2 -1</clus>
</clustering>
</event>
<event>
 9    1  0.1610296E-005  0.1067790E+03  0.7546771E-02  0.1269434E+00
          1   -1    0    0  502    0 -0.00000000000E+00  0.00000000000E+00  0.27173171419E+03  0.27173171419E+03  0.00000000000E+00 0. -1.
         21   -1    0    0  501  502  0.00000000000E+00 -0.00000000000E+00 -0.12163923408E+03  0.12163923408E+03  0.00000000000E+00 0.  1.
         23    2    1    2    0    0  0.22896446685E+02  0.29971623630E+02  0.11239291464E+03  0.15053046187E+03  0.92761560982E+02 0.  0.
         23    2    1    2    0    0 -0.98440668190E+02 -0.32710162700E+01  0.78784188248E+02  0.15279717423E+03  0.86248266271E+02 0.  0.
        -11    1    4    4    0    0  0.46726792785E+01 -0.21442450406E+02  0.30303559309E+02  0.37415482328E+02  0.00000000000E+00 0. -1.
         11    1    4    4    0    0 -0.10311334747E+03  0.18171434136E+02  0.48480628939E+02  0.11538169191E+03  0.00000000000E+00 0.  1.
        -11    1    3    3    0    0  0.26555133671E+01 -0.22648067144E+02 -0.21097212363E+01  0.22900603055E+02  0.00000000000E+00 0.  1.
         11    1    3    3    0    0  0.20240933318E+02  0.52619690774E+02  0.11450263588E+03  0.12762985881E+03  0.00000000000E+00 0. -1.
          1    1    1    2  501    0  0.75544221504E+02 -0.26700607360E+02 -0.41084622779E+02  0.90043312161E+02  0.00000000000E+00 0. -1.
<scales pt_clust_5="13000.00000" pt_clust_6="13000.00000" pt_clust_7="13000.00000" pt_clust_8="13000.00000" pt_clust_9="80.12398"></scales>
<clustering>
<clus scale="   80.124">  2  9  1 -1</clus>
<clus scale="   86.248">  5  6 -1 -1</clus>
<clus scale="   92.762">  7  8 -1 -1</clus>
<clus scale="  101.172">  2  5  1 -1</clus>
<clus scale="   80.124">  2  5  1 -1</clus>
</clustering>
</event>
<event>
 9    1  0.1610296E-005  0.1356382E+03  0.7546771E-02  0.1219347E+00
          1   -1    0    0  502    0 -0.00000000000E+00  0.00000000000E+00  0.41207522957E+03  0.41207522957E+03  0.00000000000E+00 0. -1.
         21   -1    0    0  501  502  0.00000000000E+00 -0.00000000000E+00 -0.22823147262E+03  0.22823147262E+03  0.00000000000E+00 0.  1.
         23    2    1    2    0    0 -0.10568695006E+01  0.94864521205E+02  0.32051665225E+03  0.34636770565E+03  0.90770418018E+02 0.  0.
         23    2    1    2    0    0  0.15714923710E+02 -0.15213025297E+03 -0.42582007989E+02  0.18282051175E+03  0.90661675571E+02 0.  0.
        -11    1    3    3    0    0  0.21753573894E+02  0.93463095723E+02  0.30222983445E+03  0.31709847220E+03  0.00000000000E+00 0. -1.
         11    1    3    3    0    0 -0.22810443394E+02  0.14014254821E+01  0.18286817800E+02  0.29269233445E+02  0.00000000000E+00 0.  1.
        -13    1    4    4    0    0 -0.59218666383E+01 -0.12544802775E+03 -0.65384530320E+02  0.14158888719E+03  0.00000000000E+00 0.  1.
         13    1    4    4    0    0  0.21636790348E+02 -0.26682225216E+02  0.22802522331E+02  0.41231624558E+02  0.00000000000E+00 0. -1.
          1    1    1    2  501    0 -0.14658054209E+02  0.57265731764E+02 -0.94090887311E+02  0.11111848479E+03  0.00000000000E+00 0. -1.
<scales pt_clust_5="13000.00000" pt_clust_6="13000.00000" pt_clust_7="13000.00000" pt_clust_8="13000.00000" pt_clust_9="59.11195"></scales>
<clustering>
<clus scale="   59.112">  2  9  1 -1</clus>
<clus scale="   90.662">  7  8 -1 -1</clus>
<clus scale="   90.770">  5  6 -1 -1</clus>
<clus scale="  135.565">  2  7  1 -1</clus>
<clus scale="   59.112">  2  5  1 -1</clus>
</clustering>
</event>
<event>
 9    1  0.1610296E-005  0.1323857E+03  0.7546771E-02  0.1225156E+00
          2   -1    0    0  502    0 -0.00000000000E+00  0.00000000000E+00  0.11670962580E+03  0.11670962580E+03  0.00000000000E+00 0. -1.
         21   -1    0    0  501  502  0.00000000000E+00 -0.00000000000E+00 -0.61245435464E+03  0.61245435464E+03  0.00000000000E+00 0.  1.
         23    2    1    2    0    0 -0.10048267757E+02  0.90463733536E+02  0.54126201909E+02  0.14014775204E+03  0.91799193337E+02 0.  0.
         23    2    1    2    0    0  0.60691496303E+01 -0.13728695118E+03 -0.39522844554E+03  0.42739152322E+03  0.87025561871E+02 0.  0.
        -11    1    4    4    0    0  0.25062540365E+02 -0.28580224881E+02 -0.38995263760E+02  0.54457238082E+02  0.00000000000E+00 0. -1.
         11    1    4    4    0    0 -0.18993390735E+02 -0.10870672630E+03 -0.35623318178E+03  0.37293428514E+03  0.00000000000E+00 0.  1.
        -13    1    3    3    0    0 -0.43137890277E+02  0.13089491050E+02  0.17202972884E+02  0.48250954701E+02  0.00000000000E+00 0. -1.
         13    1    3    3    0    0  0.33089622519E+02  0.77374242487E+02  0.36923229025E+02  0.91896797336E+02  0.00000000000E+00 0.  1.
          2    1    1    2  501    0  0.39791181270E+01  0.46823217648E+02 -0.15464248522E+03  0.16162470519E+03  0.00000000000E+00 0. -1.
<scales pt_clust_5="13000.00000" pt_clust_6="13000.00000" pt_clust_7="13000.00000" pt_clust_8="13000.00000" pt_clust_9="46.99199"></scales>
<clustering>
<clus scale="   46.992">  2  9  1 -1</clus>
<clus scale="   87.026">  5  6 -1 -1</clus>
<clus scale="   91.799">  7  8 -1 -1</clus>
<clus scale="  129.121">  2  5  1 -1</clus>
<clus scale="   46.992">  2  5  1 -1</clus>
</clustering>
</event>
<event>
 9    1  0.1610296E-005  0.2216243E+03  0.7546771E-02  0.1133194E+00
          2   -1    0    0  502    0 -0.00000000000E+00  0.00000000000E+00  0.38626544652E+03  0.38626544652E+03  0.00000000000E+00 0. -1.
         21   -1    0    0  501  502  0.00000000000E+00 -0.00000000000E+00 -0.31599786626E+03  0.31599786626E+03  0.00000000000E+00 0. -1.
         23    2    1    2    0    0 -0.16790320022E+03  0.12679056563E+03  0.22871472819E+03  0.32193220486E+03  0.84039190022E+02 0.  0.
         23    2    1    2    0    0  0.92838975419E+02 -0.17032123411E+03 -0.17727971302E+02  0.21500886618E+03  0.91028201259E+02 0.  0.
        -11    1    4    4    0    0  0.90616075737E+02 -0.13472577445E+03 -0.46823386930E+02  0.16898146954E+03  0.00000000000E+00 0.  1.
         11    1    4    4    0    0  0.22228996820E+01 -0.35595459665E+02  0.29095415627E+02  0.46027396649E+02  0.00000000000E+00 0. -1.
        -13    1    3    3    0    0 -0.36506886992E+02 -0.72151994802E+01  0.53561153643E+02  0.65219698566E+02  0.00000000000E+00 0.  1.
         13    1    3    3    0    0 -0.13139631323E+03  0.13400576511E+03  0.17515357454E+03  0.25671250630E+03  0.00000000000E+00 0. -1.
          2    1    1    2  501    0  0.75064224803E+02  0.43530668484E+02 -0.14071917663E+03  0.16532224174E+03  0.00000000000E+00 0. -1.
<scales pt_clust_5="13000.00000" pt_clust_6="13000.00000" pt_clust_7="13000.00000" pt_clust_8="13000.00000" pt_clust_9="86.77302"></scales>
<clustering>
<clus scale="   84.039">  7  8 -1 -1</clus>
<clus scale="   86.773">  2  9  1 -1</clus>
<clus scale="   91.028">  5  6 -1 -1</clus>
<clus scale="  218.846">  1  7  2 -1</clus>
<clus scale="   86.773">  2  5  1 -1</clus>
</clustering>
</event>
<event>
 9    1  0.1610296E-005  0.1203284E+03  0.7546771E-02  0.1246596E+00
         21   -1    0    0  501  502  0.00000000000E+00  0.00000000000E+00  0.36717889548E+03  0.36717889548E+03  0.00000000000E+00 0.  1.
         -1   -1    0    0    0  501 -0.00000000000E+00 -0.00000000000E+00 -0.73243015106E+02  0.73243015106E+02  0.00000000000E+00 0.  1.
         23    2    1    2    0    0 -0.40722884684E+02  0.69888150924E+02  0.96434828505E+02  0.15540283357E+03  0.91146352401E+02 0.  0.
         23    2    1    2    0    0  0.66280707554E+02  0.72748838680E+01  0.13776779437E+03  0.18414589773E+03  0.10238989382E+03 0.  0.
        -11    1    3    3    0    0 -0.44105449820E+01  0.19630224360E+02 -0.16860795253E+02  0.26250429178E+02  0.00000000000E+00 0. -1.
         11    1    3    3    0    0 -0.36312339702E+02  0.50257926564E+02  0.11329562376E+03  0.12915240439E+03  0.00000000000E+00 0.  1.
        -11    1    4    4    0    0 -0.41828612225E+01 -0.36646738750E+02  0.59713176799E+02  0.70186489244E+02  0.00000000000E+00 0. -1.
         11    1    4    4    0    0  0.70463568776E+02  0.43921622619E+02  0.78054617573E+02  0.11395940849E+03  0.00000000000E+00 0.  1.
         -1    1    1    2    0  502 -0.25557822870E+02 -0.77163034792E+02  0.59733257498E+02  0.10087317929E+03  0.00000000000E+00 0.  1.
<scales pt_clust_5="13000.00000" pt_clust_6="13000.00000" pt_clust_7="13000.00000" pt_clust_8="13000.00000" pt_clust_9="81.28556"></scales>
<clustering>
<clus scale="   81.286">  1  9  2 -1</clus>
<clus scale="   91.146">  5  6 -1 -1</clus>
<clus scale="  102.390">  7  8 -1 -1</clus>
<clus scale="  110.918">  2  5  1 -1</clus>
<clus scale="   81.286">  1  5  2 -1</clus>
</clustering>
</event>
<event>
 9    1  0.1610296E-005  0.2206388E+03  0.7546771E-02  0.1134171E+00
         21   -1    0    0  501  502  0.00000000000E+00  0.00000000000E+00  0.11655770549E+04  0.11655770549E+04  0.00000000000E+00 0.  1.
         -2   -1    0    0    0  501 -0.00000000000E+00 -0.00000000000E+00 -0.10580211100E+03  0.10580211100E+03  0.00000000000E+00 0.  1.
         23    2    1    2    0    0  0.70153219919E+02 -0.22180855874E+03  0.99634577234E+02  0.27031372772E+03  0.94983953470E+02 0.  0.
         23    2    1    2    0    0  0.18385766821E+02  0.11897448840E+03  0.48219049774E+03  0.50422534781E+03  0.85103231144E+02 0.  0.
        -13    1    4    4    0    0  0.50324520050E+02  0.81354679497E+02  0.35876905555E+03  0.37130361756E+03  0.00000000000E+00 0.  1.
         13    1    4    4    0    0 -0.31938753229E+02  0.37619808905E+02  0.12342144219E+03  0.13292173025E+03  0.00000000000E+00 0. -1.
        -13    1    3    3    0    0 -0.18039591092E+02 -0.53892082002E+02  0.17062956115E+01  0.56856791977E+02  0.00000000000E+00 0.  1.
         13    1    3    3    0    0  0.88192811011E+02 -0.16791647674E+03  0.97928281622E+02  0.21345693574E+03  0.00000000000E+00 0. -1.
         -2    1    1    2    0  502 -0.88538986740E+02  0.10283407034E+03  0.47794986891E+03  0.49684009036E+03  0.00000000000E+00 0.  1.
<scales pt_clust_5="13000.00000" pt_clust_6="13000.00000" pt_clust_7="13000.00000" pt_clust_8="13000.00000" pt_clust_9="135.69819"></scales>
<clustering>
<clus scale="   85.103">  5  6 -1 -1</clus>
<clus scale="   94.984">  7  8 -1 -1</clus>
<clus scale="  135.698">  1  9  2 -1</clus>
<clus scale="  216.569">  1  5  2 -1</clus>
<clus scale="  135.698">  1  5  2 -1</clus>
</clustering>
</event>
<event>
 9    1  0.1610296E-005  0.9512737E+02  0.7546771E-02  0.1291322E+00
          1   -1    0    0  502    0 -0.00000000000E+00  0.00000000000E+00  0.15765113828E+03  0.15765113828E+03  0.00000000000E+00 0. -1.
         21   -1    0    0  501  502  0.00000000000E+00 -0.00000000000E+00 -0.80241225193E+02  0.80241225193E+02  0.00000000000E+00 0.  1.
         23    2    1    2    0    0  0.32153331502E+02  0.15807907243E+02  0.46627757796E+02  0.10929314895E+03  0.92125555375E+02 0.  0.
         23    2    1    2    0    0 -0.14187765897E+02  0.55568558256E+01  0.37476965377E+02  0.99893202424E+02  0.91334317805E+02 0.  0.
        -13    1    4    4    0    0  0.28023175066E+02 -0.27146068678E+02  0.12724390323E+02  0.41038000616E+02  0.00000000000E+00 0.  1.
         13    1    4    4    0    0 -0.42210940963E+02  0.32702924504E+02  0.24752575054E+02  0.58855201808E+02  0.00000000000E+00 0. -1.
        -13    1    3    3    0    0  0.26830512801E+02 -0.19484701978E+02 -0.16299416433E+02  0.36948626556E+02  0.00000000000E+00 0.  1.
         13    1    3    3    0    0  0.53228187006E+01  0.35292609222E+02  0.62927174229E+02  0.72344522398E+02  0.00000000000E+00 0. -1.
          1    1    1    2  501    0 -0.17965565605E+02 -0.21364763069E+02 -0.66948100832E+01  0.28706012098E+02  0.00000000000E+00 0. -1.
<scales pt_clust_5="13000.00000" pt_clust_6="13000.00000" pt_clust_7="13000.00000" pt_clust_8="13000.00000" pt_clust_9="27.91442"></scales>
<clustering>
<clus scale="   27.914">  2  9  1 -1</clus>
<clus scale="   91.334">  5  6 -1 -1</clus>
<clus scale="   92.126">  7  8 -1 -1</clus>
<clus scale="   94.361">  2  5  1 -1</clus>
<clus scale="   27.914">  2  5  1 -1</clus>
</clustering>
</event>
<event>
 9    1  0.1610296E-005  0.2285602E+03  0.7546771E-02  0.1127803E+00
         21   -1    0    0  501  502  0.00000000000E+00  0.00000000000E+00  0.12120448906E+03  0.12120448906E+03  0.00000000000E+00 0. -1.
          1   -1    0    0  502    0 -0.00000000000E+00 -0.00000000000E+00 -0.11282569442E+04  0.11282569442E+04  0.00000000000E+00 0. -1.
         23    2    1    2    0    0  0.99360202818E+02  0.17305528683E+03 -0.79001345410E+03  0.81983250425E+03  0.90462672795E+02 0.  0.
         23    2    1    2    0    0 -0.16423268904E+03 -0.21354876743E+03 -0.12805703652E+03  0.31230053751E+03  0.92507128939E+02 0.  0.
        -11    1    3    3    0    0  0.11543146275E+03  0.13575678663E+03 -0.65905968616E+03  0.68272541892E+03  0.00000000000E+00 0.  1.
         11    1    3    3    0    0 -0.16071259935E+02  0.37298500195E+02 -0.13095376793E+03  0.13710708533E+03  0.00000000000E+00 0. -1.
        -13    1    4    4    0    0 -0.49553002514E+02 -0.25435779915E+02  0.33040060452E+01  0.55797808326E+02  0.00000000000E+00 0. -1.
         13    1    4    4    0    0 -0.11467968653E+03 -0.18811298752E+03 -0.13136104256E+03  0.25650272918E+03  0.00000000000E+00 0.  1.
          1    1    1    2  501    0  0.64872486222E+02  0.40493480602E+02 -0.88981964499E+02  0.11732839147E+03  0.00000000000E+00 0. -1.
<scales pt_clust_5="13000.00000" pt_clust_6="13000.00000" pt_clust_7="13000.00000" pt_clust_8="13000.00000" pt_clust_9="76.47327"></scales>
<clustering>
<clus scale="   76.473">  1  9  2 -1</clus>
<clus scale="   90.463">  5  6 -1 -1</clus>
<clus scale="   92.507">  7  8 -1 -1</clus>
<clus scale="  227.740">  2  5  1 -1</clus>
<clus scale="   76.473">  1  5  2 -1</clus>
</clustering>
</event>
<event>
 9    1  0.1610296E-005  0.1607307E+03  0.7546771E-02  0.1188533E+00
          2   -1    0    0  502    0 -0.00000000000E+00  0.00000000000E+00  0.80121799130E+03  0.80121799130E+03  0.00000000000E+00 0. -1.
         21   -1    0    0  501  502  0.00000000000E+00 -0.00000000000E+00 -0.59162397430E+02  0.59162397430E+02  0.00000000000E+00 0. -1.
         23    2    1    2    0    0 -0.31757005603E+02 -0.12909562806E+03  0.48046666956E+03  0.50754326705E+03  0.95277273139E+02 0.  0.
         23    2    1    2    0    0  0.65244547676E+02  0.10949521435E+03  0.27084145929E+03  0.31294725962E+03  0.91295335402E+02 0.  0.
        -11    1    3    3    0    0  0.32203895647E+02 -0.59411599307E+02  0.23350887340E+03  0.24309097676E+03  0.00000000000E+00 0.  1.
         11    1    3    3    0    0 -0.63960901249E+02 -0.69684028755E+02  0.24695779617E+03  0.26445229029E+03  0.00000000000E+00 0. -1.
        -11    1    4    4    0    0  0.28754718906E+02  0.39193943515E+02  0.25003250996E+02  0.54664079869E+02  0.00000000000E+00 0.  1.
         11    1    4    4    0    0  0.36489828770E+02  0.70301270838E+02  0.24583820829E+03  0.25828317975E+03  0.00000000000E+00 0. -1.
          2    1    1    2  501    0 -0.33487542074E+02  0.19600413709E+02 -0.92525349818E+01  0.39889862062E+02  0.00000000000E+00 0. -1.
<scales pt_clust_5="13000.00000" pt_clust_6="13000.00000" pt_clust_7="13000.00000" pt_clust_8="13000.00000" pt_clust_9="38.80195"></scales>
<clustering>
<clus scale="   38.802">  2  9  1 -1</clus>
<clus scale="   91.295">  7  8 -1 -1</clus>
<clus scale="   95.277">  5  6 -1 -1</clus>
<clus scale="  158.403">  2  7  1 -1</clus>
<clus scale="   38.802">  2  5  1 -1</clus>
</clustering>
</event>
<event>
 9    1  0.1610296E-005  0.1136678E+03  0.7546771E-02  0.1255005E+00
         -1   -1    0    0    0  501 -0.00000000000E+00  0.00000000000E+00  0.18382834606E+03  0.18382834606E+03  0.00000000000E+00 0.  1.
         21   -1    0    0  501  502  0.00000000000E+00 -0.00000000000E+00 -0.91098863124E+02  0.91098863124E+02  0.00000000000E+00 0. -1.
         23    2    1    2    0    0 -0.26160715456E+02  0.46348847853E+02  0.41518420919E+02  0.11419559777E+03  0.92110024121E+02 0.  0.
         23    2    1    2    0    0  0.47715529188E+02 -0.65948604392E+02  0.52381503639E+02  0.13157461595E+03  0.89118278099E+02 0.  0.
        -13    1    3    3    0    0  0.15346805975E+02  0.41581156201E+02  0.54683232026E+02  0.70390147531E+02  0.00000000000E+00 0.  1.
         13    1    3    3    0    0 -0.41507521431E+02  0.47676916524E+01 -0.13164811106E+02  0.43805450238E+02  0.00000000000E+00 0. -1.
        -13    1    4    4    0    0  0.30913297217E+02 -0.12563442968E+01  0.56705109413E+02  0.64596283015E+02  0.00000000000E+00 0.  1.
         13    1    4    4    0    0  0.16802231971E+02 -0.64692260096E+02 -0.43236057745E+01  0.66978332932E+02  0.00000000000E+00 0. -1.
         -1    1    1    2    0  502 -0.21554813731E+02  0.19599756539E+02 -0.11704416185E+01  0.29156995472E+02  0.00000000000E+00 0.  1.
<scales pt_clust_5="13000.00000" pt_clust_6="13000.00000" pt_clust_7="13000.00000" pt_clust_8="13000.00000" pt_clust_9="29.13349"></scales>
<clustering>
<clus scale="   29.133">  2  9  1 -1</clus>
<clus scale="   89.118">  7  8 -1 -1</clus>
<clus scale="   92.110">  5  6 -1 -1</clus>
<clus scale="  111.257">  2  7  1 -1</clus>
<clus scale="   29.133">  2  5  1 -1</clus>
</clustering>
</event>
<event>
 9    1  0.1610296E-005  0.9666229E+02  0.7546771E-02  0.1291632E+00
         21   -1    0    0  501  502  0.00000000000E+00  0.00000000000E+00  0.45851292740E+02  0.45851292740E+02  0.00000000000E+00 0. -1.
         -1   -1    0    0    0  501 -0.00000000000E+00 -0.00000000000E+00 -0.29210289371E+03  0.29210289371E+03  0.00000000000E+00 0.  1.
         23    2    1    2    0    0  0.34504789696E+02  0.12918555191E+02 -0.17579073243E+03  0.19841018623E+03  0.84301546918E+02 0.  0.
         23    2    1    2    0    0 -0.99650284002E+01 -0.60297168405E+01 -0.43313916733E+02  0.10230674776E+03  0.91950617062E+02 0.  0.
        -11    1    4    4    0    0  0.39623888138E+02  0.13591259026E+01 -0.66647382015E+01  0.40203463405E+02  0.00000000000E+00 0. -1.
         11    1    4    4    0    0 -0.49588916539E+02 -0.73888427431E+01 -0.36649178532E+02  0.62103284355E+02  0.00000000000E+00 0.  1.
        -13    1    3    3    0    0  0.59197297383E+02 -0.32592968038E+01 -0.90827091747E+02  0.10846429656E+03  0.00000000000E+00 0.  1.
         13    1    3    3    0    0 -0.24692507687E+02  0.16177851995E+02 -0.84963640678E+02  0.89945889669E+02  0.00000000000E+00 0. -1.
         -1    1    1    2    0  502 -0.24539761296E+02 -0.68888383507E+01 -0.27146951813E+02  0.37237252464E+02  0.00000000000E+00 0.  1.
<scales pt_clust_5="13000.00000" pt_clust_6="13000.00000" pt_clust_7="13000.00000" pt_clust_8="13000.00000" pt_clust_9="25.48836"></scales>
<clustering>
<clus scale="   25.488">  1  9  2 -1</clus>
<clus scale="   84.302">  7  8 -1 -1</clus>
<clus scale="   89.417">  2  7  1 -1</clus>
<clus scale="   91.951">  5  6 -1 -1</clus>
<clus scale="   25.488">  1  5  2 -1</clus>
</clustering>
</event>
<event>
 9    1  0.1610296E-005  0.1022514E+03  0.7546771E-02  0.1278471E+00
         21   -1    0    0  501  502  0.00000000000E+00  0.00000000000E+00  0.27924139942E+03  0.27924139942E+03  0.00000000000E+00 0. -1.
         -2   -1    0    0    0  501 -0.00000000000E+00 -0.00000000000E+00 -0.75405466285E+02  0.75405466285E+02  0.00000000000E+00 0.  1.
         23    2    1    2    0    0  0.11464169385E+01  0.15158449910E+02 -0.11561907281E+02  0.97030815034E+02  0.95132583749E+02 0.  0.
         23    2    1    2    0    0  0.27815732248E+02 -0.26233932301E+02  0.14411448704E+03  0.17988067350E+03  0.10062870942E+03 0.  0.
        -11    1    4    4    0    0  0.59931796426E+02  0.81536302563E+01  0.76979510880E+02  0.97898656806E+02  0.00000000000E+00 0. -1.
         11    1    4    4    0    0 -0.32116064178E+02 -0.34387562557E+02  0.67134976161E+02  0.81982016693E+02  0.00000000000E+00 0.  1.
        -13    1    3    3    0    0 -0.45734252520E+02  0.58599757838E+01  0.51601286979E+01  0.46395992262E+02  0.00000000000E+00 0.  1.
         13    1    3    3    0    0  0.46880669459E+02  0.92984741258E+01 -0.16722035979E+02  0.50634822773E+02  0.00000000000E+00 0. -1.
         -2    1    1    2    0  502 -0.28962149187E+02  0.11075482391E+02  0.71283353376E+02  0.77735377174E+02  0.00000000000E+00 0.  1.
<scales pt_clust_5="13000.00000" pt_clust_6="13000.00000" pt_clust_7="13000.00000" pt_clust_8="13000.00000" pt_clust_9="31.00762"></scales>
<clustering>
<clus scale="   31.008">  1  9  2 -1</clus>
<clus scale="   95.133">  7  8 -1 -1</clus>
<clus scale="   96.847">  2  7  1 -1</clus>
<clus scale="  100.629">  5  6 -1 -1</clus>
<clus scale="   31.008">  1  5  2 -1</clus>
</clustering>
</event>
<event>
 9    1  0.1610296E-005  0.9845933E+02  0.7546771E-02  0.1292729E+00
          3   -1    0    0  502    0 -0.00000000000E+00  0.00000000000E+00  0.13434011560E+03  0.13434011560E+03  0.00000000000E+00 0. -1.
         21   -1    0    0  501  502  0.00000000000E+00 -0.00000000000E+00 -0.30739638688E+03  0.30739638688E+03  0.00000000000E+00 0. -1.
         23    2    1    2    0    0  0.27599427911E+02 -0.15015638412E+02  0.81533004279E+02  0.11483889747E+03  0.74519418720E+02 0.  0.
         23    2    1    2    0    0 -0.45727445096E+02  0.81579870615E+02 -0.12980970191E+03  0.18431652627E+03  0.91519116151E+02 0.  0.
        -13    1    3    3    0    0  0.26892322434E+02 -0.40627814654E+02  0.29810858903E+02  0.57118330140E+02  0.00000000000E+00 0.  1.
         13    1    3    3    0    0  0.70710547686E+00  0.25612176242E+02  0.51722145377E+02  0.57720567325E+02  0.00000000000E+00 0. -1.
        -13    1    4    4    0    0 -0.11951562809E+00  0.77814690034E+02 -0.10929387776E+03  0.13416516681E+03  0.00000000000E+00 0. -1.
         13    1    4    4    0    0 -0.45607929468E+02  0.37651805807E+01 -0.20515824154E+02  0.50151359462E+02  0.00000000000E+00 0.  1.
          3    1    1    2  501    0  0.18128017185E+02 -0.66564232203E+02 -0.12477957365E+03  0.14258107875E+03  0.00000000000E+00 0. -1.
<scales pt_clust_5="13000.00000" pt_clust_6="13000.00000" pt_clust_7="13000.00000" pt_clust_8="13000.00000" pt_clust_9="68.98856"></scales>
<clustering>
<clus scale="   68.989">  2  9  1 -1</clus>
<clus scale="   74.519">  5  6 -1 -1</clus>
<clus scale="   82.895">  1  5  2 -1</clus>
<clus scale="   91.519">  7  8 -1 -1</clus>
<clus scale="   68.989">  2  5  1 -1</clus>
</clustering>
</event>
<event>
 9    1  0.1610296E-005  0.9617184E+02  0.7546771E-02  0.1288633E+00
         21   -1    0    0  501  502  0.00000000000E+00  0.00000000000E+00  0.13847335344E+03  0.13847335344E+03  0.00000000000E+00 0.  1.
          1   -1    0    0  502    0 -0.00000000000E+00 -0.00000000000E+00 -0.10169945751E+03  0.10169945751E+03  0.00000000000E+00 0. -1.
         23    2    1    2    0    0  0.19235542691E+02 -0.68095374022E+01 -0.19261198016E+02  0.95697382978E+02  0.91491089498E+02 0.  0.
         23    2    1    2    0    0 -0.48621701054E+02  0.42316525779E+01  0.41291958958E+02  0.11149737734E+03  0.91349124697E+02 0.  0.
        -13    1    4    4    0    0 -0.57903272508E+02  0.24535921968E+02 -0.18574613228E+01  0.62914629432E+02  0.00000000000E+00 0.  1.
         13    1    4    4    0    0  0.92815714542E+01 -0.20304269390E+02  0.43149420281E+02  0.48582747912E+02  0.00000000000E+00 0. -1.
        -13    1    3    3    0    0 -0.23077778800E+02  0.47357615390E+01  0.24324984587E+02  0.33863198119E+02  0.00000000000E+00 0.  1.
         13    1    3    3    0    0  0.42313321491E+02 -0.11545298941E+02 -0.43586182603E+02  0.61834184859E+02  0.00000000000E+00 0. -1.
          1    1    1    2  501    0  0.29386158363E+02  0.25778848243E+01  0.14743134987E+02  0.32978050621E+02  0.00000000000E+00 0. -1.
<scales pt_clust_5="13000.00000" pt_clust_6="13000.00000" pt_clust_7="13000.00000" pt_clust_8="13000.00000" pt_clust_9="29.49901"></scales>
<clustering>
<clus scale="   29.499">  1  9  2 -1</clus>
<clus scale="   91.349">  5  6 -1 -1</clus>
<clus scale="   91.491">  7  8 -1 -1</clus>
<clus scale="   96.037">  1  5  2 -1</clus>
<clus scale="   29.499">  1  5  2 -1</clus>
</clustering>
</event>
<event>
 9    1  0.1610296E-005  0.1150142E+03  0.7546771E-02  0.1251985E+00
         21   -1    0    0  501  502  0.00000000000E+00  0.00000000000E+00  0.15263377104E+03  0.15263377104E+03  0.00000000000E+00 0. -1.
         -3   -1    0    0    0  501 -0.00000000000E+00 -0.00000000000E+00 -0.24438645014E+03  0.24438645014E+03  0.00000000000E+00 0.  1.
         23    2    1    2    0    0  0.20876716962E+02 -0.60182299214E+02 -0.14699688677E+03  0.18404098556E+03  0.90582852663E+02 0.  0.
         23    2    1    2    0    0  0.22000320173E+02  0.99389006021E+02  0.66627933471E+01  0.13724443523E+03  0.91812055749E+02 0.  0.
        -13    1    4    4    0    0 -0.35183332043E+02  0.29663618520E+02  0.96465187754E+01  0.47019702698E+02  0.00000000000E+00 0.  1.
         13    1    4    4    0    0  0.57183652216E+02  0.69725387501E+02 -0.29837254283E+01  0.90224732531E+02  0.00000000000E+00 0. -1.
        -13    1    3    3    0    0 -0.70902627582E+01 -0.77498887029E+02 -0.10498343633E+03  0.13068232941E+03  0.00000000000E+00 0.  1.
         13    1    3    3    0    0  0.27966979721E+02  0.17316587815E+02 -0.42013450444E+02  0.53358656153E+02  0.00000000000E+00 0. -1.
         -3    1    1    2    0  502 -0.42877037135E+02 -0.39206706807E+02  0.48581414328E+02  0.75734800391E+02  0.00000000000E+00 0.  1.
<scales pt_clust_5="13000.00000" pt_clust_6="13000.00000" pt_clust_7="13000.00000" pt_clust_8="13000.00000" pt_clust_9="58.09997"></scales>
<clustering>
<clus scale="   58.100">  1  9  2 -1</clus>
<clus scale="   90.583">  7  8 -1 -1</clus>
<clus scale="   91.812">  5  6 -1 -1</clus>
<clus scale="  114.035">  2  7  1 -1</clus>
<clus scale="   58.100">  1  5  2 -1</clus>
</clustering>
</event>
<event>
 9    1  0.1610296E-005  0.1704621E+03  0.7546771E-02  0.1177578E+00
          2   -1    0    0  502    0 -0.00000000000E+00  0.00000000000E+00  0.95098116638E+03  0.95098116638E+03  0.00000000000E+00 0. -1.
         21   -1    0    0  501  502  0.00000000000E+00 -0.00000000000E+00 -0.84567463930E+02  0.84567463930E+02  0.00000000000E+00 0.  1.
         23    2    1    2    0    0 -0.96499065887E+02 -0.98890162650E+02  0.66164309153E+03  0.68196838667E+03  0.90652996963E+02 0.  0.
         23    2    1    2    0    0  0.89597026799E+02  0.14150190897E+03  0.23415172199E+03  0.30136292128E+03  0.89118819322E+02 0.  0.
        -11    1    3    3    0    0 -0.22121792392E+02 -0.76699299240E+02  0.43862695917E+03  0.44583154388E+03  0.00000000000E+00 0. -1.
         11    1    3    3    0    0 -0.74377273495E+02 -0.22190863409E+02  0.22301613236E+03  0.23613684279E+03  0.00000000000E+00 0.  1.
        -13    1    4    4    0    0  0.52295838023E+02  0.35146363136E+02  0.14349808006E+03  0.15672211234E+03  0.00000000000E+00 0. -1.
         13    1    4    4    0    0  0.37301188776E+02  0.10635554584E+03  0.90653641924E+02  0.14464080893E+03  0.00000000000E+00 0.  1.
          2    1    1    2  501    0  0.69020390877E+01 -0.42611746325E+02 -0.29381111060E+02  0.52217322370E+02  0.00000000000E+00 0. -1.
<scales pt_clust_5="13000.00000" pt_clust_6="13000.00000" pt_clust_7="13000.00000" pt_clust_8="13000.00000" pt_clust_9="43.16711"></scales>
<clustering>
<clus scale="   43.167">  2  9  1 -1</clus>
<clus scale="   89.119">  7  8 -1 -1</clus>
<clus scale="   90.653">  5  6 -1 -1</clus>
<clus scale="  169.651">  2  7  1 -1</clus>
<clus scale="   43.167">  2  5  1 -1</clus>
</clustering>
</event>
<event>
 9    1  0.1610296E-005  0.1082490E+03  0.7546771E-02  0.1265535E+00
         21   -1    0    0  501  502  0.00000000000E+00  0.00000000000E+00  0.43000365099E+02  0.43000365099E+02  0.00000000000E+00 0. -1.
         -1   -1    0    0    0  501 -0.00000000000E+00 -0.00000000000E+00 -0.37830802646E+03  0.37830802646E+03  0.00000000000E+00 0.  1.
         23    2    1    2    0    0 -0.42628496325E+02  0.14840384769E+02 -0.11846158998E+03  0.15531714340E+03  0.89737623181E+02 0.  0.
         23    2    1    2    0    0  0.66862101949E+02  0.68186068149E+01 -0.13309877957E+03  0.17615813375E+03  0.93804951303E+02 0.  0.
        -11    1    3    3    0    0 -0.17578469171E+01 -0.32972233418E+02 -0.64422425056E+02  0.72391346530E+02  0.00000000000E+00 0. -1.
         11    1    3    3    0    0 -0.40870649407E+02  0.47812618187E+02 -0.54039164929E+02  0.82925796873E+02  0.00000000000E+00 0.  1.
        -13    1    4    4    0    0  0.82431966869E+02 -0.16100663735E+02 -0.78653177923E+02  0.11506773193E+03  0.00000000000E+00 0. -1.
         13    1    4    4    0    0 -0.15569864920E+02  0.22919270550E+02 -0.54445601646E+02  0.61090401822E+02  0.00000000000E+00 0.  1.
         -1    1    1    2    0  502 -0.24233605625E+02 -0.21658991584E+02 -0.83747291806E+02  0.89833114401E+02  0.00000000000E+00 0.  1.
<scales pt_clust_5="13000.00000" pt_clust_6="13000.00000" pt_clust_7="13000.00000" pt_clust_8="13000.00000" pt_clust_9="32.50201"></scales>
<clustering>
<clus scale="   32.502">  1  9  2 -1</clus>
<clus scale="   89.738">  5  6 -1 -1</clus>
<clus scale="   93.805">  7  8 -1 -1</clus>
<clus scale="  104.744">  2  5  1 -1</clus>
<clus scale="   32.502">  1  5  2 -1</clus>
</clustering>
</event>
<event>
 9    1  0.1610296E-005  0.2066594E+03  0.7546771E-02  0.1144414E+00
         -1   -1    0    0    0  501 -0.00000000000E+00  0.00000000000E+00  0.27949964993E+03  0.27949964993E+03  0.00000000000E+00 0.  1.
         21   -1    0    0  501  502  0.00000000000E+00 -0.00000000000E+00 -0.26118929420E+03  0.26118929420E+03  0.00000000000E+00 0. -1.
         23    2    1    2    0    0 -0.46427417051E+02 -0.18291747571E+03  0.16077097923E+03  0.26500791760E+03  0.93635360071E+02 0.  0.
         23    2    1    2    0    0  0.15468387106E+02  0.17185667772E+03 -0.93297619459E+02  0.21653879328E+03  0.91709402585E+02 0.  0.
        -11    1    4    4    0    0  0.45010876879E+02  0.63894922527E+02 -0.14089767958E+02  0.79417011548E+02  0.00000000000E+00 0.  1.
         11    1    4    4    0    0 -0.29542489773E+02  0.10796175519E+03 -0.79207851501E+02  0.13712178173E+03  0.00000000000E+00 0. -1.
        -11    1    3    3    0    0  0.21366712262E+02 -0.10892559488E+02  0.83937631274E+01  0.25409437312E+02  0.00000000000E+00 0.  1.
         11    1    3    3    0    0 -0.67794129313E+02 -0.17202491622E+03  0.15237721611E+03  0.23959848029E+03  0.00000000000E+00 0. -1.
         -1    1    1    2    0  502  0.30959029946E+02  0.11060797991E+02 -0.49163004043E+02  0.59142233251E+02  0.00000000000E+00 0.  1.
<scales pt_clust_5="13000.00000" pt_clust_6="13000.00000" pt_clust_7="13000.00000" pt_clust_8="13000.00000" pt_clust_9="32.87557"></scales>
<clustering>
<clus scale="   32.876">  2  9  1 -1</clus>
<clus scale="   91.709">  5  6 -1 -1</clus>
<clus scale="   93.635">  7  8 -1 -1</clus>
<clus scale="  205.794">  2  5  1 -1</clus>
<clus scale="   32.876">  2  5  1 -1</clus>
</clustering>
</event>
<event>
 9    1  0.1610296E-005  0.1015563E+03  0.7546771E-02  0.1277920E+00
          1   -1    0    0  502    0 -0.00000000000E+00  0.00000000000E+00  0.27112143675E+03  0.27112143675E+03  0.00000000000E+00 0. -1.
         21   -1    0    0  501  502  0.00000000000E+00 -0.00000000000E+00 -0.47800223601E+02  0.47800223601E+02  0.00000000000E+00 0.  1.
         23    2    1    2    0    0  0.50174890294E+01  0.32388982521E+02  0.10163351520E+03  0.14037124537E+03  0.91107045436E+02 0.  0.
         23    2    1    2    0    0  0.49769368499E+01 -0.49944807606E+02  0.11736975639E+03  0.15789272484E+03  0.92925772178E+02 0.  0.
        -11    1    4    4    0    0  0.11417104462E+02 -0.69053492910E+02  0.46060624856E+02  0.83787327917E+02  0.00000000000E+00 0.  1.
         11    1    4    4    0    0 -0.64401676117E+01  0.19108685305E+02  0.71309131531E+02  0.74105396919E+02  0.00000000000E+00 0. -1.
        -11    1    3    3    0    0 -0.33308285707E+02  0.38036638791E+02  0.29613964820E+02  0.58593640437E+02  0.00000000000E+00 0.  1.
         11    1    3    3    0    0  0.38325774736E+02 -0.56476562707E+01  0.72019550384E+02  0.81777604929E+02  0.00000000000E+00 0. -1.
          1    1    1    2  501    0 -0.99944258793E+01  0.17555825085E+02  0.43179415638E+01  0.20657690152E+02  0.00000000000E+00 0. -1.
<scales pt_clust_5="13000.00000" pt_clust_6="13000.00000" pt_clust_7="13000.00000" pt_clust_8="13000.00000" pt_clust_9="20.20137"></scales>
<clustering>
<clus scale="   20.201">  2  9  1 -1</clus>
<clus scale="   91.107">  7  8 -1 -1</clus>
<clus scale="   92.926">  5  6 -1 -1</clus>
<clus scale="   99.895">  1  7  2 -1</clus>
<clus scale="   20.201">  2  5  1 -1</clus>
</clustering>
</event>
<event>
 9    1  0.1610296E-005  0.1040795E+03  0.7546771E-02  0.1276765E+00
          1   -1    0    0  502    0 -0.00000000000E+00  0.00000000000E+00  0.10638275766E+03  0.10638275766E+03  0.00000000000E+00 0. -1.
         21   -1    0    0  501  502  0.00000000000E+00 -0.00000000000E+00 -0.24963190606E+03  0.24963190606E+03  0.00000000000E+00 0.  1.
         23    2    1    2    0    0  0.72951593060E+01  0.50823030859E+02  0.49746683715E+02  0.10852289621E+03  0.81647330921E+02 0.  0.
         23    2    1    2    0    0  0.15842157979E+02 -0.39655951922E+02 -0.73824840073E+02  0.12558293089E+03  0.92181326886E+02 0.  0.
        -13    1    3    3    0    0  0.37756812092E+02  0.51747534814E+02  0.23273165041E+02  0.68154416069E+02  0.00000000000E+00 0.  1.
         13    1    3    3    0    0 -0.30461652786E+02 -0.92450395520E+00  0.26473518674E+02  0.40368480143E+02  0.00000000000E+00 0. -1.
        -13    1    4    4    0    0  0.37441904714E+02 -0.54914988027E+02 -0.73554874077E+02  0.99135622453E+02  0.00000000000E+00 0. -1.
         13    1    4    4    0    0 -0.21599746735E+02  0.15259036105E+02 -0.26996599624E+00  0.26447308436E+02  0.00000000000E+00 0.  1.
          1    1    1    2  501    0 -0.23137317285E+02 -0.11167078937E+02 -0.11917099204E+03  0.12190883662E+03  0.00000000000E+00 0. -1.
<scales pt_clust_5="13000.00000" pt_clust_6="13000.00000" pt_clust_7="13000.00000" pt_clust_8="13000.00000" pt_clust_9="25.69123"></scales>
<clustering>
<clus scale="   25.691">  2  9  1 -1</clus>
<clus scale="   81.647">  5  6 -1 -1</clus>
<clus scale="   92.181">  7  8 -1 -1</clus>
<clus scale="   94.876">  1  5  2 -1</clus>
<clus scale="   25.691">  2  5  1 -1</clus>
</clustering>
</event>
<event>
 9    1  0.1610296E-005  0.2377405E+03  0.7546771E-02  0.1121777E+00
          2   -1    0    0  502    0 -0.00000000000E+00  0.00000000000E+00  0.54551267944E+03  0.54551267944E+03  0.00000000000E+00 0. -1.
         21   -1    0    0  501  502  0.00000000000E+00 -0.00000000000E+00 -0.23922375229E+03  0.23922375229E+03  0.00000000000E+00 0.  1.
         23    2    1    2    0    0 -0.16865256148E+03  0.18074589194E+03  0.23979563947E+03  0.35654342130E+03  0.92241523296E+02 0.  0.
         23    2    1    2    0    0  0.19861450102E+03 -0.58450474933E+02  0.15681730950E+03  0.27323393273E+03  0.84858325442E+02 0.  0.
        -13    1    3    3    0    0 -0.23772705108E+02  0.88666738471E+02  0.92959839935E+02  0.13064633122E+03  0.00000000000E+00 0.  1.
         13    1    3    3    0    0 -0.14487985637E+03  0.92079153466E+02  0.14683579954E+03  0.22589709009E+03  0.00000000000E+00 0. -1.
        -13    1    4    4    0    0  0.15753462905E+03 -0.14540558654E+02  0.85085761775E+02  0.17963344358E+03  0.00000000000E+00 0.  1.
         13    1    4    4    0    0  0.41079871975E+02 -0.43909916279E+02  0.71731547730E+02  0.93600489148E+02  0.00000000000E+00 0. -1.
          2    1    1    2  501    0 -0.29961939544E+02 -0.12229541700E+03 -0.90324021832E+02  0.15495907770E+03  0.00000000000E+00 0. -1.
<scales pt_clust_5="13000.00000" pt_clust_6="13000.00000" pt_clust_7="13000.00000" pt_clust_8="13000.00000" pt_clust_9="125.91222"></scales>
<clustering>
<clus scale="   84.858">  7  8 -1 -1</clus>
<clus scale="   92.242">  5  6 -1 -1</clus>
<clus scale="  125.912">  2  9  1 -1</clus>
<clus scale="  234.974">  2  7  1 -1</clus>
<clus scale="  125.912">  2  5  1 -1</clus>
</clustering>
</event>
<event>
 9    1  0.1610296E-005  0.9473113E+02  0.7546771E-02  0.1291830E+00
         -2   -1    0    0    0  501 -0.00000000000E+00  0.00000000000E+00  0.14096337333E+03  0.14096337333E+03  0.00000000000E+00 0.  1.
         21   -1    0    0  501  502  0.00000000000E+00 -0.00000000000E+00 -0.49573539684E+03  0.49573539684E+03  0.00000000000E+00 0. -1.
         23    2    1    2    0    0  0.63957980777E+01 -0.19739523545E+02  0.10870779090E+03  0.14378183142E+03  0.91789303424E+02 0.  0.
         23    2    1    2    0    0 -0.15590818310E+02  0.69811151484E+02 -0.30290474617E+03  0.32446496085E+03  0.91703626303E+02 0.  0.
        -13    1    4    4    0    0 -0.46739076853E+02  0.28464162665E+02 -0.89782528865E+02  0.10514586226E+03  0.00000000000E+00 0.  1.
         13    1    4    4    0    0  0.31148258543E+02  0.41346988819E+02 -0.21312221731E+03  0.21931909859E+03  0.00000000000E+00 0. -1.
        -13    1    3    3    0    0  0.43612787289E+02 -0.31080206798E+02  0.75885224539E+02  0.92879609027E+02  0.00000000000E+00 0.  1.
         13    1    3    3    0    0 -0.37216989212E+02  0.11340683252E+02  0.32822566357E+02  0.50902222396E+02  0.00000000000E+00 0. -1.
         -2    1    1    2    0  502  0.91950202322E+01 -0.50071627939E+02 -0.16057506823E+03  0.16845197791E+03  0.00000000000E+00 0.  1.
<scales pt_clust_5="13000.00000" pt_clust_6="13000.00000" pt_clust_7="13000.00000" pt_clust_8="13000.00000" pt_clust_9="50.90890"></scales>
<clustering>
<clus scale="   50.909">  2  9  1 -1</clus>
<clus scale="   91.704">  5  6 -1 -1</clus>
<clus scale="   91.789">  7  8 -1 -1</clus>
<clus scale="   94.648">  2  5  1 -1</clus>
<clus scale="   50.909">  2  5  1 -1</clus>
</clustering>
</event>
<event>
 9    1  0.1610296E-005  0.9533820E+02  0.7546771E-02  0.1293225E+00
         21   -1    0    0  501  502  0.00000000000E+00  0.00000000000E+00  0.23530989092E+03  0.23530989092E+03  0.00000000000E+00 0.  1.
          1   -1    0    0  502    0 -0.00000000000E+00 -0.00000000000E+00 -0.59996950272E+02  0.59996950272E+02  0.00000000000E+00 0. -1.
         23    2    1    2    0    0 -0.22198221243E+02 -0.12853550093E+02  0.10392674742E+02  0.91858794749E+02  0.87590271767E+02 0.  0.
         23    2    1    2    0    0  0.19851217798E+02 -0.85301572225E+01  0.11595540020E+03  0.14996599864E+03  0.92613775873E+02 0.  0.
        -11    1    3    3    0    0 -0.34181246458E+02 -0.39285500043E+02  0.26752314248E+02  0.58543953067E+02  0.00000000000E+00 0.  1.
         11    1    3    3    0    0  0.11983025216E+02  0.26431949951E+02 -0.16359639507E+02  0.33314841682E+02  0.00000000000E+00 0. -1.
        -11    1    4    4    0    0  0.33933455599E+02 -0.29271329061E+02  0.11657112985E+03  0.12488842392E+03  0.00000000000E+00 0. -1.
         11    1    4    4    0    0 -0.14082237801E+02  0.20741171838E+02 -0.61572965334E+00  0.25077574718E+02  0.00000000000E+00 0.  1.
          1    1    1    2  501    0  0.23470034447E+01  0.21383707315E+02  0.48964865704E+02  0.53482047802E+02  0.00000000000E+00 0. -1.
<scales pt_clust_5="13000.00000" pt_clust_6="13000.00000" pt_clust_7="13000.00000" pt_clust_8="13000.00000" pt_clust_9="21.51212"></scales>
<clustering>
<clus scale="   21.512">  1  9  2 -1</clus>
<clus scale="   87.590">  5  6 -1 -1</clus>
<clus scale="   90.466">  2  5  1 -1</clus>
<clus scale="   92.614">  7  8 -1 -1</clus>
<clus scale="   21.512">  1  5  2 -1</clus>
</clustering>
</event>
<event>
 9    1  0.1610296E-005  0.1368198E+03  0.7546771E-02  0.1217870E+00
         21   -1    0    0  501  502  0.00000000000E+00  0.00000000000E+00  0.13178088358E+03  0.13178088358E+03  0.00000000000E+00 0. -1.
          2   -1    0    0  502    0 -0.00000000000E+00 -0.00000000000E+00 -0.34472748110E+03  0.34472748110E+03  0.00000000000E+00 0. -1.
         23    2    1    2    0    0 -0.58130563117E+02  0.76784357691E+02 -0.24169150884E+03  0.27540337861E+03  0.90317415536E+02 0.  0.
         23    2    1    2    0    0  0.87485286663E+02 -0.97065634732E+02  0.73496935250E+01  0.15950227777E+03  0.91167679530E+02 0.  0.
        -11    1    3    3    0    0 -0.53842998863E+02  0.44088588882E+02 -0.23019018105E+03  0.24047950359E+03  0.00000000000E+00 0. -1.
         11    1    3    3    0    0 -0.42875642537E+01  0.32695768809E+02 -0.11501327791E+02  0.34923875017E+02  0.00000000000E+00 0.  1.
        -11    1    4    4    0    0  0.97694531254E+01 -0.44058792803E+02  0.39616467039E+02  0.60050677750E+02  0.00000000000E+00 0.  1.
         11    1    4    4    0    0  0.77715833538E+02 -0.53006841929E+02 -0.32266773514E+02  0.99451600022E+02  0.00000000000E+00 0. -1.
          2    1    1    2  501    0 -0.29354723547E+02  0.20281277041E+02  0.21395217794E+02  0.41602708294E+02  0.00000000000E+00 0. -1.
<scales pt_clust_5="13000.00000" pt_clust_6="13000.00000" pt_clust_7="13000.00000" pt_clust_8="13000.00000" pt_clust_9="35.67955"></scales>
<clustering>
<clus scale="   35.680">  1  9  2 -1</clus>
<clus scale="   90.317">  5  6 -1 -1</clus>
<clus scale="   91.168">  7  8 -1 -1</clus>
<clus scale="  136.255">  2  5  1 -1</clus>
<clus scale="   35.680">  1  5  2 -1</clus>
</clustering>
</event>
<event>
 9    1  0.1610296E-005  0.1019650E+03  0.7546771E-02  0.1276726E+00
          3   -1    0    0  502    0 -0.00000000000E+00  0.00000000000E+00  0.51495923378E+03  0.51495923378E+03  0.00000000000E+00 0. -1.
         21   -1    0    0  501  502  0.00000000000E+00 -0.00000000000E+00 -0.10200056675E+03  0.10200056675E+03  0.00000000000E+00 0. -1.
         23    2    1    2    0    0  0.47003151594E+02 -0.18070053763E+02  0.46684196419E+03  0.47813208933E+03  0.90183436446E+02 0.  0.
         23    2    1    2    0    0 -0.18012799293E+02 -0.43646974141E+01 -0.33952156423E+02  0.97102311769E+02  0.89065136295E+02 0.  0.
        -11    1    4    4    0    0 -0.20978041664E+02  0.35578442773E+02  0.45401700308E+01  0.41551377428E+02  0.00000000000E+00 0.  1.
         11    1    4    4    0    0  0.29652423710E+01 -0.39943140187E+02 -0.38492326454E+02  0.55550934341E+02  0.00000000000E+00 0. -1.
        -11    1    3    3    0    0  0.31693170834E+02  0.33777162938E+02  0.27262336139E+03  0.27653001824E+03  0.00000000000E+00 0.  1.
         11    1    3    3    0    0  0.15309980760E+02 -0.51847216701E+02  0.19421860281E+03  0.20160207109E+03  0.00000000000E+00 0. -1.
          3    1    1    2  501    0 -0.28990352301E+02  0.22434751177E+02 -0.19931140733E+02  0.41725399433E+02  0.00000000000E+00 0. -1.
<scales pt_clust_5="13000.00000" pt_clust_6="13000.00000" pt_clust_7="13000.00000" pt_clust_8="13000.00000" pt_clust_9="36.65731"></scales>
<clustering>
<clus scale="   36.657">  2  9  1 -1</clus>
<clus scale="   89.065">  5  6 -1 -1</clus>
<clus scale="   90.183">  7  8 -1 -1</clus>
<clus scale="  100.977">  2  5  1 -1</clus>
<clus scale="   36.657">  2  5  1 -1</clus>
</clustering>
</event>
<event>
 9    1  0.1610296E-005  0.1636133E+03  0.7546771E-02  0.1184799E+00
         21   -1    0    0  501  502  0.00000000000E+00  0.00000000000E+00  0.13971804565E+03  0.13971804565E+03  0.00000000000E+00 0.  1.
          3   -1    0    0  502    0 -0.00000000000E+00 -0.00000000000E+00 -0.47937374571E+03  0.47937374571E+03  0.00000000000E+00 0. -1.
         23    2    1    2    0    0 -0.10371978031E+03 -0.80672585164E+02 -0.35531077852E+03  0.38989581074E+03  0.92234131839E+02 0.  0.
         23    2    1    2    0    0  0.13362252444E+03  0.82184839959E+02  0.44384710753E+02  0.18770076652E+03  0.93017462055E+02 0.  0.
        -11    1    3    3    0    0 -0.60446763624E+02 -0.62759214678E+02 -0.11089175050E+03  0.14103017616E+03  0.00000000000E+00 0.  1.
         11    1    3    3    0    0 -0.43273016681E+02 -0.17913370486E+02 -0.24441902802E+03  0.24886563458E+03  0.00000000000E+00 0. -1.
        -13    1    4    4    0    0  0.49955314019E+02  0.66527389313E+02  0.58112153958E+02  0.10148127593E+03  0.00000000000E+00 0.  1.
         13    1    4    4    0    0  0.83667210418E+02  0.15657450646E+02 -0.13727443205E+02  0.86219490585E+02  0.00000000000E+00 0. -1.
          3    1    1    2  501    0 -0.29902744131E+02 -0.15122547946E+01 -0.28729632295E+02  0.41495214097E+02  0.00000000000E+00 0. -1.
<scales pt_clust_5="13000.00000" pt_clust_6="13000.00000" pt_clust_7="13000.00000" pt_clust_8="13000.00000" pt_clust_9="29.94097"></scales>
<clustering>
<clus scale="   29.941">  1  9  2 -1</clus>
<clus scale="   92.234">  5  6 -1 -1</clus>
<clus scale="   93.017">  7  8 -1 -1</clus>
<clus scale="  163.169">  2  5  1 -1</clus>
<clus scale="   29.941">  1  5  2 -1</clus>
</clustering>
</event>
<event>
 9    1  0.1610296E-005  0.1917918E+03  0.7546771E-02  0.1157052E+00
          2   -1    0    0  502    0 -0.00000000000E+00  0.00000000000E+00  0.10887928339E+04  0.10887928339E+04  0.00000000000E+00 0. -1.
         21   -1    0    0  501  502  0.00000000000E+00 -0.00000000000E+00 -0.15795189583E+03  0.15795189583E+03  0.00000000000E+00 0. -1.
         23    2    1    2    0    0  0.13789817841E+02  0.15766610973E+03  0.79965887926E+03  0.82016046392E+03  0.90333283885E+02 0.  0.
         23    2    1    2    0    0 -0.97258256186E+02 -0.23485482436E+03  0.15320774233E+03  0.31078181078E+03  0.92177896901E+02 0.  0.
        -11    1    3    3    0    0  0.49554492010E+02  0.63298754786E+02  0.31397689864E+03  0.32410472523E+03  0.00000000000E+00 0.  1.
         11    1    3    3    0    0 -0.35764674169E+02  0.94367354948E+02  0.48568198062E+03  0.49605573870E+03  0.00000000000E+00 0. -1.
        -11    1    4    4    0    0 -0.97792203265E+02 -0.12875514015E+03  0.11327755772E+03  0.19741582059E+03  0.00000000000E+00 0. -1.
         11    1    4    4    0    0  0.53394707828E+00 -0.10609968420E+03  0.39930184610E+02  0.11336599019E+03  0.00000000000E+00 0.  1.
          2    1    1    2  501    0  0.83468438345E+02  0.77188714624E+02 -0.22025683491E+02  0.11580245506E+03  0.00000000000E+00 0. -1.
<scales pt_clust_5="13000.00000" pt_clust_6="13000.00000" pt_clust_7="13000.00000" pt_clust_8="13000.00000" pt_clust_9="113.68851"></scales>
<clustering>
<clus scale="   90.333">  5  6 -1 -1</clus>
<clus scale="   92.178">  7  8 -1 -1</clus>
<clus scale="  113.689">  2  9  1 -1</clus>
<clus scale="  190.912">  1  5  2 -1</clus>
<clus scale="  113.689">  2  5  1 -1</clus>
</clustering>
</event>
<event>
 9    1  0.1610296E-005  0.9325062E+02  0.7546771E-02  0.1296764E+00
          1   -1    0    0  502    0 -0.00000000000E+00  0.00000000000E+00  0.10495697046E+03  0.10495697046E+03  0.00000000000E+00 0. -1.
         21   -1    0    0  501  502  0.00000000000E+00 -0.00000000000E+00 -0.23615444672E+03  0.23615444672E+03  0.00000000000E+00 0. -1.
         23    2    1    2    0    0  0.32203969734E+02 -0.74211277318E+01  0.19750153118E+02  0.96380796190E+02  0.88357345607E+02 0.  0.
         23    2    1    2    0    0  0.32234113010E+02  0.35254321017E+02 -0.34078883610E+02  0.10840286559E+03  0.91147714000E+02 0.  0.
        -11    1    3    3    0    0 -0.35394832957E+01 -0.41669644722E+02  0.21137874565E+02  0.46858264739E+02  0.00000000000E+00 0. -1.
         11    1    3    3    0    0  0.35743453030E+02  0.34248516990E+02 -0.13877214469E+01  0.49522531451E+02  0.00000000000E+00 0.  1.
        -13    1    4    4    0    0 -0.22359249120E+02  0.31832957655E+02 -0.36915897529E+02  0.53628879390E+02  0.00000000000E+00 0.  1.
         13    1    4    4    0    0  0.54593362130E+02  0.34213633620E+01  0.28370139182E+01  0.54773986197E+02  0.00000000000E+00 0. -1.
          1    1    1    2  501    0 -0.64438082744E+02 -0.27833193285E+02 -0.11686874577E+03  0.13632775541E+03  0.00000000000E+00 0. -1.
<scales pt_clust_5="13000.00000" pt_clust_6="13000.00000" pt_clust_7="13000.00000" pt_clust_8="13000.00000" pt_clust_9="70.19226"></scales>
<clustering>
<clus scale="   70.192">  2  9  1 -1</clus>
<clus scale="   88.357">  5  6 -1 -1</clus>
<clus scale="   90.525">  1  5  2 -1</clus>
<clus scale="   91.148">  7  8 -1 -1</clus>
<clus scale="   70.192">  2  5  1 -1</clus>
</clustering>
</event>
<event>
 9    1  0.1610296E-005  0.1154561E+03  0.7546771E-02  0.1250832E+00
         21   -1    0    0  501  502  0.00000000000E+00  0.00000000000E+00  0.10913171115E+03  0.10913171115E+03  0.00000000000E+00 0.  1.
          3   -1    0    0  502    0 -0.00000000000E+00 -0.00000000000E+00 -0.37848762774E+03  0.37848762774E+03  0.00000000000E+00 0. -1.
         23    2    1    2    0    0 -0.43443488107E+02  0.50733730431E+02 -0.29280982842E+03  0.31391746829E+03  0.91352795337E+02 0.  0.
         23    2    1    2    0    0  0.64353407600E+02 -0.76588405671E+02  0.32176322360E+02  0.13932499741E+03  0.91482207176E+02 0.  0.
        -11    1    3    3    0    0 -0.34635409306E+02  0.72304151884E+02 -0.26863182201E+03  0.28034007518E+03  0.00000000000E+00 0. -1.
         11    1    3    3    0    0 -0.88080788018E+01 -0.21570421453E+02 -0.24178006408E+02  0.33577393105E+02  0.00000000000E+00 0.  1.
        -11    1    4    4    0    0  0.67361975671E+02 -0.11151535363E+02  0.27643226847E+02  0.73662341109E+02  0.00000000000E+00 0.  1.
         11    1    4    4    0    0 -0.30085680701E+01 -0.65436870309E+02  0.45330955132E+01  0.65662656301E+02  0.00000000000E+00 0. -1.
          3    1    1    2  501    0 -0.20909919493E+02  0.25854675241E+02 -0.87224105213E+01  0.34376873190E+02  0.00000000000E+00 0. -1.
<scales pt_clust_5="13000.00000" pt_clust_6="13000.00000" pt_clust_7="13000.00000" pt_clust_8="13000.00000" pt_clust_9="33.25190"></scales>
<clustering>
<clus scale="   33.252">  1  9  2 -1</clus>
<clus scale="   91.353">  5  6 -1 -1</clus>
<clus scale="   91.482">  7  8 -1 -1</clus>
<clus scale="  115.354">  2  5  1 -1</clus>
<clus scale="   33.252">  1  5  2 -1</clus>
</clustering>
</event>
<event>
 9    1  0.1610296E-005  0.1460540E+03  0.7546771E-02  0.1205638E+00
          2   -1    0    0  502    0 -0.00000000000E+00  0.00000000000E+00  0.61601454328E+03  0.61601454328E+03  0.00000000000E+00 0. -1.
         21   -1    0    0  501  502  0.00000000000E+00 -0.00000000000E+00 -0.67590766885E+02  0.67590766885E+02  0.00000000000E+00 0. -1.
         23    2    1    2    0    0 -0.10968071105E+03 -0.32413061171E+02  0.47528272176E+03  0.49742581226E+03  0.91969061073E+02 0.  0.
         23    2    1    2    0    0  0.11095158934E+03  0.84405491520E+01  0.48044767446E+02  0.15145025813E+03  0.90815103161E+02 0.  0.
        -13    1    4    4    0    0  0.87747003729E+02 -0.18070894884E+02 -0.27523155819E+01  0.89630737732E+02  0.00000000000E+00 0. -1.
         13    1    4    4    0    0  0.23204585610E+02  0.26511444036E+02  0.50797083028E+02  0.61819520399E+02  0.00000000000E+00 0.  1.
        -13    1    3    3    0    0 -0.56755859951E+02 -0.39905565400E+02  0.39453485960E+03  0.40058886309E+03  0.00000000000E+00 0. -1.
         13    1    3    3    0    0 -0.52924851094E+02  0.74925042287E+01  0.80747862155E+02  0.96836949175E+02  0.00000000000E+00 0.  1.
          2    1    1    2  501    0 -0.12708782934E+01  0.23972512019E+02  0.25096287188E+02  0.34729239767E+02  0.00000000000E+00 0. -1.
<scales pt_clust_5="13000.00000" pt_clust_6="13000.00000" pt_clust_7="13000.00000" pt_clust_8="13000.00000" pt_clust_9="24.00618"></scales>
<clustering>
<clus scale="   24.006">  2  9  1 -1</clus>
<clus scale="   90.815">  5  6 -1 -1</clus>
<clus scale="   91.969">  7  8 -1 -1</clus>
<clus scale="  145.330">  2  5  1 -1</clus>
<clus scale="   24.006">  2  5  1 -1</clus>
</clustering>
</event>
<event>
 9    1  0.1610296E-005  0.1374967E+03  0.7546771E-02  0.1229779E+00
          3   -1    0    0  502    0 -0.00000000000E+00  0.00000000000E+00  0.13651545263E+03  0.13651545263E+03  0.00000000000E+00 0. -1.
         21   -1    0    0  501  502  0.00000000000E+00 -0.00000000000E+00 -0.25912088035E+03  0.25912088035E+03  0.00000000000E+00 0.  1.
         23    2    1    2    0    0  0.48718667944E+02  0.80964132458E+01  0.26278846213E+02  0.10796418275E+03  0.92339734049E+02 0.  0.
         23    2    1    2    0    0  0.64282425864E+02  0.29026593749E+02 -0.31943231912E+02  0.12087115455E+03  0.92815367902E+02 0.  0.
        -11    1    3    3    0    0  0.65560789698E+02  0.33033284487E+02  0.25970711180E+02  0.77871001464E+02  0.00000000000E+00 0. -1.
         11    1    3    3    0    0 -0.16842121754E+02 -0.24936871242E+02  0.30813503304E+00  0.30093181282E+02  0.00000000000E+00 0.  1.
        -11    1    4    4    0    0  0.79499396009E+02  0.34614203608E+01 -0.41338563038E+02  0.89671691134E+02  0.00000000000E+00 0.  1.
         11    1    4    4    0    0 -0.15216970145E+02  0.25565173388E+02  0.93953311259E+01  0.31199463421E+02  0.00000000000E+00 0. -1.
          3    1    1    2  501    0 -0.11300109381E+03 -0.37123006995E+02 -0.11694104203E+03  0.16680099568E+03  0.00000000000E+00 0. -1.
<scales pt_clust_5="13000.00000" pt_clust_6="13000.00000" pt_clust_7="13000.00000" pt_clust_8="13000.00000" pt_clust_9="101.44277"></scales>
<clustering>
<clus scale="   92.340">  5  6 -1 -1</clus>
<clus scale="   92.815">  7  8 -1 -1</clus>
<clus scale="  104.717">  1  5  2 -1</clus>
<clus scale="  101.443">  2  9  1 -1</clus>
<clus scale="  101.443">  2  5  1 -1</clus>
</clustering>
</event>
<event>
 9    1  0.1610296E-005  0.1752713E+03  0.7546771E-02  0.1173295E+00
         21   -1    0    0  501  502  0.00000000000E+00  0.00000000000E+00  0.17268711526E+03  0.17268711526E+03  0.00000000000E+00 0.  1.
         -3   -1    0    0    0  501 -0.00000000000E+00 -0.00000000000E+00 -0.40061421153E+03  0.40061421153E+03  0.00000000000E+00 0.  1.
         23    2    1    2    0    0 -0.56617238014E+02 -0.12077411150E+03 -0.23246470192E+03  0.28509559528E+03  0.97199604749E+02 0.  0.
         23    2    1    2    0    0  0.50609582799E+02  0.18964663331E+03 -0.13299621766E+02  0.21680767227E+03  0.91112630399E+02 0.  0.
        -13    1    4    4    0    0 -0.20636227796E+02  0.65369732195E+02  0.16461026342E+02  0.70498377096E+02  0.00000000000E+00 0. -1.
         13    1    4    4    0    0  0.71245810595E+02  0.12427690111E+03 -0.29760648108E+02  0.14630929517E+03  0.00000000000E+00 0.  1.
        -13    1    3    3    0    0 -0.56870584570E+02 -0.58335369135E+02 -0.19724594571E+03  0.21340862630E+03  0.00000000000E+00 0.  1.
         13    1    3    3    0    0  0.25334655597E+00 -0.62438742368E+02 -0.35218756207E+02  0.71686968981E+02  0.00000000000E+00 0. -1.
         -3    1    1    2    0  502  0.60076552156E+01 -0.68872521807E+02  0.17837227418E+02  0.71398059239E+02  0.00000000000E+00 0.  1.
<scales pt_clust_5="13000.00000" pt_clust_6="13000.00000" pt_clust_7="13000.00000" pt_clust_8="13000.00000" pt_clust_9="69.13405"></scales>
<clustering>
<clus scale="   69.134">  1  9  2 -1</clus>
<clus scale="   91.113">  5  6 -1 -1</clus>
<clus scale="   97.200">  7  8 -1 -1</clus>
<clus scale="  171.970">  1  5  2 -1</clus>
<clus scale="   69.134">  1  5  2 -1</clus>
</clustering>
</event>
<event>
 9    1  0.1610296E-005  0.1879466E+03  0.7546771E-02  0.1179928E+00
         -1   -1    0    0    0  501 -0.00000000000E+00  0.00000000000E+00  0.55968823487E+02  0.55968823487E+02  0.00000000000E+00 0.  1.
         21   -1    0    0  501  502  0.00000000000E+00 -0.00000000000E+00 -0.11835170228E+04  0.11835170228E+04  0.00000000000E+00 0.  1.
         23    2    1    2    0    0 -0.64390120952E+02 -0.42779127827E+02 -0.13874950045E+03  0.18347291880E+03  0.91840876540E+02 0.  0.
         23    2    1    2    0    0 -0.13439019561E+03 -0.17074557349E+02 -0.45931365524E+03  0.48728584944E+03  0.90145438022E+02 0.  0.
        -11    1    4    4    0    0 -0.10370105318E+03  0.28693948294E+02 -0.30018622638E+03  0.31888716125E+03  0.00000000000E+00 0. -1.
         11    1    4    4    0    0 -0.30689142426E+02 -0.45768505643E+02 -0.15912742886E+03  0.16839868820E+03  0.00000000000E+00 0.  1.
        -11    1    3    3    0    0 -0.86446282665E+02 -0.40188148062E+02 -0.12553960747E+03  0.15763324546E+03  0.00000000000E+00 0.  1.
         11    1    3    3    0    0  0.22056161713E+02 -0.25909797645E+01 -0.13209892984E+02  0.25839673340E+02  0.00000000000E+00 0. -1.
         -1    1    1    2    0  502  0.19878031656E+03  0.59853685176E+02 -0.52948504365E+03  0.56872707806E+03  0.00000000000E+00 0.  1.
<scales pt_clust_5="13000.00000" pt_clust_6="13000.00000" pt_clust_7="13000.00000" pt_clust_8="13000.00000" pt_clust_9="164.91744"></scales>
<clustering>
<clus scale="   90.145">  5  6 -1 -1</clus>
<clus scale="   91.841">  7  8 -1 -1</clus>
<clus scale="  120.045">  1  7  2 -1</clus>
<clus scale="  164.917">  2  9  1 -1</clus>
<clus scale="  164.917">  2  5  1 -1</clus>
</clustering>
</event>
<event>
 9    1  0.1610296E-005  0.1630063E+03  0.7546771E-02  0.1186386E+00
         -1   -1    0    0    0  501 -0.00000000000E+00  0.00000000000E+00  0.90779651268E+03  0.90779651268E+03  0.00000000000E+00 0.  1.
         21   -1    0    0  501  502  0.00000000000E+00 -0.00000000000E+00 -0.49488841767E+02  0.49488841767E+02  0.00000000000E+00 0.  1.
         23    2    1    2    0    0  0.74268179494E+02  0.10617380438E+03  0.62230030929E+03  0.64206905107E+03  0.90588918638E+02 0.  0.
         23    2    1    2    0    0 -0.10199393649E+03 -0.94140986597E+02  0.15817529999E+03  0.23172177588E+03  0.97006533029E+02 0.  0.
        -11    1    4    4    0    0 -0.80011424899E+02 -0.91289897593E+02  0.16817089860E+03  0.20740570063E+03  0.00000000000E+00 0.  1.
         11    1    4    4    0    0 -0.21982511589E+02 -0.28510890040E+01 -0.99955986034E+01  0.24316075253E+02  0.00000000000E+00 0. -1.
        -13    1    3    3    0    0  0.68739114740E+02  0.57409243654E+02  0.53018241875E+03  0.53769348546E+03  0.00000000000E+00 0.  1.
         13    1    3    3    0    0  0.55290647547E+01  0.48764560725E+02  0.92117890541E+02  0.10437556562E+03  0.00000000000E+00 0. -1.
         -1    1    1    2    0  502  0.27725756993E+02 -0.12032817782E+02  0.77832061627E+02  0.83494527496E+02  0.00000000000E+00 0.  1.
<scales pt_clust_5="13000.00000" pt_clust_6="13000.00000" pt_clust_7="13000.00000" pt_clust_8="13000.00000" pt_clust_9="30.22428"></scales>
<clustering>
<clus scale="   30.224">  2  9  1 -1</clus>
<clus scale="   90.589">  7  8 -1 -1</clus>
<clus scale="   97.007">  5  6 -1 -1</clus>
<clus scale="  159.271">  1  7  2 -1</clus>
<clus scale="   30.224">  2  5  1 -1</clus>
</clustering>
</event>
<event>
 9    1  0.1610296E-005  0.9725599E+02  0.7546771E-02  0.1287400E+00
          1   -1    0    0  502    0 -0.00000000000E+00  0.00000000000E+00  0.41838319226E+03  0.41838319226E+03  0.00000000000E+00 0. -1.
         21   -1    0    0  501  502  0.00000000000E+00 -0.00000000000E+00 -0.27262188840E+03  0.27262188840E+03  0.00000000000E+00 0. -1.
         23    2    1    2    0    0  0.29161670031E+02 -0.33244634432E+00  0.39564952737E+03  0.40740530884E+03  0.92682380459E+02 0.  0.
         23    2    1    2    0    0 -0.39031692018E+02  0.29595234235E+02 -0.18191133859E+03  0.20893662850E+03  0.90351694767E+02 0.  0.
        -13    1    4    4    0    0 -0.24158373332E+02  0.62288979053E+02 -0.11524644442E+03  0.13321143669E+03  0.00000000000E+00 0. -1.
         13    1    4    4    0    0 -0.14873318686E+02 -0.32693744818E+02 -0.66664894173E+02  0.75725191806E+02  0.00000000000E+00 0.  1.
        -13    1    3    3    0    0 -0.29569613898E+02  0.18157576855E+02  0.11717900708E+03  0.12220875322E+03  0.00000000000E+00 0.  1.
         13    1    3    3    0    0  0.58731283929E+02 -0.18490023199E+02  0.27847052029E+03  0.28519655563E+03  0.00000000000E+00 0. -1.
          1    1    1    2  501    0  0.98700219870E+01 -0.29262787890E+02 -0.67976884911E+02  0.74663143326E+02  0.00000000000E+00 0. -1.
<scales pt_clust_5="13000.00000" pt_clust_6="13000.00000" pt_clust_7="13000.00000" pt_clust_8="13000.00000" pt_clust_9="30.88249"></scales>
<clustering>
<clus scale="   30.882">  2  9  1 -1</clus>
<clus scale="   90.352">  5  6 -1 -1</clus>
<clus scale="   92.682">  7  8 -1 -1</clus>
<clus scale="   95.038">  2  5  1 -1</clus>
<clus scale="   30.882">  2  5  1 -1</clus>
</clustering>
</event>
<event>
 9    1  0.1610296E-005  0.1031128E+03  0.7546771E-02  0.1274064E+00
         21   -1    0    0  501  502  0.00000000000E+00  0.00000000000E+00  0.18231368526E+03  0.18231368526E+03  0.00000000000E+00 0. -1.
         -1   -1    0    0    0  501 -0.00000000000E+00 -0.00000000000E+00 -0.96958788577E+02  0.96958788577E+02  0.00000000000E+00 0.  1.
         23    2    1    2    0    0  0.42257413772E+02 -0.92286465489E+01 -0.13129151046E+01  0.10191794418E+03  0.92275059819E+02 0.  0.
         23    2    1    2    0    0 -0.53862591357E+02 -0.29141984786E+02  0.80841120226E+02  0.13684606350E+03  0.91875591700E+02 0.  0.
        -11    1    3    3    0    0  0.20669387135E+02  0.29662541158E+02  0.30443527813E+02  0.47264133317E+02  0.00000000000E+00 0. -1.
         11    1    3    3    0    0  0.21588026637E+02 -0.38891187707E+02 -0.31756442918E+02  0.54653810866E+02  0.00000000000E+00 0.  1.
        -13    1    4    4    0    0 -0.29064933665E+02 -0.14019317388E+02  0.97955421171E+02  0.10313377801E+03  0.00000000000E+00 0. -1.
         13    1    4    4    0    0 -0.24797657692E+02 -0.15122667397E+02 -0.17114300945E+02  0.33712285492E+02  0.00000000000E+00 0.  1.
         -1    1    1    2    0  502  0.11605177585E+02  0.38370631334E+02  0.58266915602E+01  0.40508466156E+02  0.00000000000E+00 0.  1.
<scales pt_clust_5="13000.00000" pt_clust_6="13000.00000" pt_clust_7="13000.00000" pt_clust_8="13000.00000" pt_clust_9="40.08724"></scales>
<clustering>
<clus scale="   40.087">  1  9  2 -1</clus>
<clus scale="   91.876">  7  8 -1 -1</clus>
<clus scale="   92.275">  5  6 -1 -1</clus>
<clus scale="  102.755">  1  7  2 -1</clus>
<clus scale="   40.087">  1  5  2 -1</clus>
</clustering>
</event>
<event>
 9    1  0.1610296E-005  0.9617011E+02  0.7546771E-02  0.1288626E+00
         21   -1    0    0  501  502  0.00000000000E+00  0.00000000000E+00  0.97669874894E+02  0.97669874894E+02  0.00000000000E+00 0. -1.
         -4   -1    0    0    0  501 -0.00000000000E+00 -0.00000000000E+00 -0.21386921338E+03  0.21386921338E+03  0.00000000000E+00 0.  1.
         23    2    1    2    0    0  0.28407731361E+01  0.32504272213E+02 -0.14625436359E+03  0.17474421787E+03  0.89892186009E+02 0.  0.
         23    2    1    2    0    0  0.26333201249E+02 -0.41626709263E+02  0.28027652655E+02  0.10616074110E+03  0.89768219458E+02 0.  0.
        -11    1    4    4    0    0 -0.12838103404E+01  0.25752654818E+02 -0.48941741848E+01  0.26245006003E+02  0.00000000000E+00 0.  1.
         11    1    4    4    0    0  0.27617011589E+02 -0.67379364080E+02  0.32921826840E+02  0.79915735093E+02  0.00000000000E+00 0. -1.
        -13    1    3    3    0    0  0.41749655410E+02  0.23595093885E+02 -0.44424118787E+02  0.65370211200E+02  0.00000000000E+00 0. -1.
         13    1    3    3    0    0 -0.38908882274E+02  0.89091783283E+01 -0.10183024480E+03  0.10937400667E+03  0.00000000000E+00 0.  1.
         -4    1    1    2    0  502 -0.29173974385E+02  0.91224370496E+01  0.20273724525E+01  0.30634129304E+02  0.00000000000E+00 0.  1.
<scales pt_clust_5="13000.00000" pt_clust_6="13000.00000" pt_clust_7="13000.00000" pt_clust_8="13000.00000" pt_clust_9="30.56697"></scales>
<clustering>
<clus scale="   30.567">  1  9  2 -1</clus>
<clus scale="   89.768">  5  6 -1 -1</clus>
<clus scale="   89.892">  7  8 -1 -1</clus>
<clus scale="   96.054">  1  5  2 -1</clus>
<clus scale="   30.567">  1  5  2 -1</clus>
</clustering>
</event>
<event>
 9    1  0.1610296E-005  0.1702214E+03  0.7546771E-02  0.1180507E+00
         21   -1    0    0  501  502  0.00000000000E+00  0.00000000000E+00  0.85993709235E+02  0.85993709235E+02  0.00000000000E+00 0.  1.
          2   -1    0    0  502    0 -0.00000000000E+00 -0.00000000000E+00 -0.89447227291E+03  0.89447227291E+03  0.00000000000E+00 0. -1.
         23    2    1    2    0    0 -0.99830828557E+02  0.97780796684E+02 -0.75098051722E+03  0.76764924174E+03  0.76068012819E+02 0.  0.
         23    2    1    2    0    0  0.11712932263E+03 -0.85030591974E+02 -0.70470713224E+02  0.18771503329E+03  0.96547048180E+02 0.  0.
        -13    1    4    4    0    0  0.10400128726E+03 -0.10645065612E+03 -0.61696816342E+02  0.16110402566E+03  0.00000000000E+00 0.  1.
         13    1    4    4    0    0  0.13128035370E+02  0.21420064143E+02 -0.87738968817E+01  0.26611007630E+02  0.00000000000E+00 0. -1.
        -13    1    3    3    0    0 -0.67084225341E+02  0.13332359163E+02 -0.30776653437E+03  0.31527493520E+03  0.00000000000E+00 0. -1.
         13    1    3    3    0    0 -0.32746603216E+02  0.84448437521E+02 -0.44321398285E+03  0.45237430653E+03  0.00000000000E+00 0.  1.
          2    1    1    2  501    0 -0.17298494069E+02 -0.12750204710E+02  0.12972666762E+02  0.25101707115E+02  0.00000000000E+00 0. -1.
<scales pt_clust_5="13000.00000" pt_clust_6="13000.00000" pt_clust_7="13000.00000" pt_clust_8="13000.00000" pt_clust_9="21.48966"></scales>
<clustering>
<clus scale="   21.490">  1  9  2 -1</clus>
<clus scale="   76.068">  7  8 -1 -1</clus>
<clus scale="   96.547">  5  6 -1 -1</clus>
<clus scale="  159.500">  2  7  1 -1</clus>
<clus scale="   21.490">  1  5  2 -1</clus>
</clustering>
</event>
<event>
 9    1  0.1610296E-005  0.1232832E+03  0.7546771E-02  0.1239663E+00
          1   -1    0    0  502    0 -0.00000000000E+00  0.00000000000E+00  0.54466275899E+03  0.54466275899E+03  0.00000000000E+00 0. -1.
         21   -1    0    0  501  502  0.00000000000E+00 -0.00000000000E+00 -0.51346563556E+02  0.51346563556E+02  0.00000000000E+00 0.  1.
         23    2    1    2    0    0 -0.86664171600E+01  0.87698796928E+02  0.39789655936E+03  0.41635819010E+03  0.85242505511E+02 0.  0.
         23    2    1    2    0    0  0.26312682658E+02 -0.63432873301E+02  0.96355292317E+02  0.14963278492E+03  0.91594439137E+02 0.  0.
        -11    1    4    4    0    0 -0.74156723387E+01  0.21350402031E+02  0.25733597676E+02  0.34249816240E+02  0.00000000000E+00 0. -1.
         11    1    4    4    0    0  0.33728354997E+02 -0.84783275332E+02  0.70621694641E+02  0.11538296868E+03  0.00000000000E+00 0.  1.
        -13    1    3    3    0    0  0.23269514047E+02  0.42729862700E+02  0.79404773984E+02  0.93125880301E+02  0.00000000000E+00 0.  1.
         13    1    3    3    0    0 -0.31935931207E+02  0.44968934228E+02  0.31849178538E+03  0.32323230980E+03  0.00000000000E+00 0. -1.
          1    1    1    2  501    0 -0.17646265498E+02 -0.24265923627E+02 -0.93565624510E+00  0.30018347525E+02  0.00000000000E+00 0. -1.
<scales pt_clust_5="13000.00000" pt_clust_6="13000.00000" pt_clust_7="13000.00000" pt_clust_8="13000.00000" pt_clust_9="30.00376"></scales>
<clustering>
<clus scale="   30.004">  2  9  1 -1</clus>
<clus scale="   85.243">  7  8 -1 -1</clus>
<clus scale="   91.594">  5  6 -1 -1</clus>
<clus scale="  118.640">  1  7  2 -1</clus>
<clus scale="   30.004">  2  5  1 -1</clus>
</clustering>
</event>
<event>
 9    1  0.1610296E-005  0.1249883E+03  0.7546771E-02  0.1235158E+00
         21   -1    0    0  501  502  0.00000000000E+00  0.00000000000E+00  0.35584873930E+03  0.35584873930E+03  0.00000000000E+00 0. -1.
          1   -1    0    0  502    0 -0.00000000000E+00 -0.00000000000E+00 -0.39712979166E+03  0.39712979166E+03  0.00000000000E+00 0. -1.
         23    2    1    2    0    0  0.65471387657E+02 -0.50082133816E+02 -0.30594846696E+03  0.32964405663E+03  0.90917638018E+02 0.  0.
         23    2    1    2    0    0 -0.14000126870E+03 -0.42827258395E+01  0.27820540647E+02  0.16915602750E+03  0.90670183524E+02 0.  0.
        -11    1    3    3    0    0  0.40329683995E+02  0.93837428883E+01 -0.46413406864E+02  0.62199215256E+02  0.00000000000E+00 0.  1.
         11    1    3    3    0    0  0.25141703662E+02 -0.59465876704E+02 -0.25953506010E+03  0.26744484137E+03  0.00000000000E+00 0. -1.
        -13    1    4    4    0    0 -0.26589364037E+02  0.22132841845E+02  0.39047338579E+02  0.52168492581E+02  0.00000000000E+00 0.  1.
         13    1    4    4    0    0 -0.11341190466E+03 -0.26415567684E+02 -0.11226797933E+02  0.11698753492E+03  0.00000000000E+00 0. -1.
          1    1    1    2  501    0  0.74529881040E+02  0.54364859656E+02  0.23684687396E+03  0.25417844684E+03  0.00000000000E+00 0. -1.
<scales pt_clust_5="13000.00000" pt_clust_6="13000.00000" pt_clust_7="13000.00000" pt_clust_8="13000.00000" pt_clust_9="92.25097"></scales>
<clustering>
<clus scale="   90.670">  7  8 -1 -1</clus>
<clus scale="   90.918">  5  6 -1 -1</clus>
<clus scale="   92.251">  1  9  2 -1</clus>
<clus scale="  124.808">  1  7  2 -1</clus>
<clus scale="   92.251">  1  5  2 -1</clus>
</clustering>
</event>
<event>
 9    1  0.1610296E-005  0.1386697E+03  0.7546771E-02  0.1215846E+00
         21   -1    0    0  501  502  0.00000000000E+00  0.00000000000E+00  0.36205836710E+03  0.36205836710E+03  0.00000000000E+00 0. -1.
         -3   -1    0    0    0  501 -0.00000000000E+00 -0.00000000000E+00 -0.68001964812E+02  0.68001964812E+02  0.00000000000E+00 0.  1.
         23    2    1    2    0    0 -0.89836888028E+02  0.17454131710E+02  0.10981412553E+03  0.16909977994E+03  0.90334269496E+02 0.  0.
         23    2    1    2    0    0  0.11640366345E+03 -0.22436299604E+02  0.17767786442E+03  0.23314496169E+03  0.93455600441E+02 0.  0.
        -11    1    3    3    0    0 -0.77987260026E+02 -0.13497897184E+02  0.11053495950E+03  0.13594919355E+03  0.00000000000E+00 0. -1.
         11    1    3    3    0    0 -0.11849628002E+02  0.30952028894E+02 -0.72083397134E+00  0.33150586391E+02  0.00000000000E+00 0.  1.
        -13    1    4    4    0    0  0.83544400893E+02  0.28212308242E+02  0.84589107126E+02  0.12219213682E+03  0.00000000000E+00 0. -1.
         13    1    4    4    0    0  0.32859262559E+02 -0.50648607845E+02  0.93088757290E+02  0.11095282487E+03  0.00000000000E+00 0.  1.
         -3    1    1    2    0  502 -0.26566775424E+02  0.49821678934E+01  0.65644123450E+01  0.27815590283E+02  0.00000000000E+00 0.  1.
<scales pt_clust_5="13000.00000" pt_clust_6="13000.00000" pt_clust_7="13000.00000" pt_clust_8="13000.00000" pt_clust_9="27.02991"></scales>
<clustering>
<clus scale="   27.030">  1  9  2 -1</clus>
<clus scale="   90.334">  5  6 -1 -1</clus>
<clus scale="   93.456">  7  8 -1 -1</clus>
<clus scale="  136.586">  2  5  1 -1</clus>
<clus scale="   27.030">  1  5  2 -1</clus>
</clustering>
</event>
<event>
 9    1  0.1610296E-005  0.1183529E+03  0.7546771E-02  0.1246049E+00
          2   -1    0    0  502    0 -0.00000000000E+00  0.00000000000E+00  0.39988245563E+03  0.39988245563E+03  0.00000000000E+00 0. -1.
         21   -1    0    0  501  502  0.00000000000E+00 -0.00000000000E+00 -0.81712432307E+02  0.81712432307E+02  0.00000000000E+00 0. -1.
         23    2    1    2    0    0  0.55283430709E+02  0.43006735145E+02  0.23845303733E+03  0.26514271695E+03  0.92384914140E+02 0.  0.
         23    2    1    2    0    0 -0.51831877773E+02 -0.65127887541E+02  0.11865514872E+03  0.17153625934E+03  0.91746709277E+02 0.  0.
        -11    1    3    3    0    0  0.69909588524E+02  0.60899880019E+02  0.18615026178E+03  0.20796169339E+03  0.00000000000E+00 0. -1.
         11    1    3    3    0    0 -0.14626157814E+02 -0.17893144874E+02  0.52302775552E+02  0.57181023568E+02  0.00000000000E+00 0.  1.
        -13    1    4    4    0    0 -0.11080510841E+02 -0.60386010042E+02  0.11498164969E+03  0.13034580045E+03  0.00000000000E+00 0. -1.
         13    1    4    4    0    0 -0.40751366932E+02 -0.47418774999E+01  0.36734990316E+01  0.41190458897E+02  0.00000000000E+00 0.  1.
          2    1    1    2  501    0 -0.34515529363E+01  0.22121152396E+02 -0.38938162734E+02  0.44915911636E+02  0.00000000000E+00 0. -1.
<scales pt_clust_5="13000.00000" pt_clust_6="13000.00000" pt_clust_7="13000.00000" pt_clust_8="13000.00000" pt_clust_9="22.38881"></scales>
<clustering>
<clus scale="   22.389">  2  9  1 -1</clus>
<clus scale="   91.747">  7  8 -1 -1</clus>
<clus scale="   92.385">  5  6 -1 -1</clus>
<clus scale="  117.855">  2  7  1 -1</clus>
<clus scale="   22.389">  2  5  1 -1</clus>
</clustering>
</event>
<event>
 9    1  0.1610296E-005  0.1313942E+03  0.7546771E-02  0.1226051E+00
         21   -1    0    0  501  502  0.00000000000E+00  0.00000000000E+00  0.52429211428E+03  0.52429211428E+03  0.00000000000E+00 0.  1.
         -1   -1    0    0    0  501 -0.00000000000E+00 -0.00000000000E+00 -0.80242036667E+02  0.80242036667E+02  0.00000000000E+00 0.  1.
         23    2    1    2    0    0 -0.36148734475E+02  0.12377114927E+03  0.98684351895E+02  0.18765515989E+03  0.94073531501E+02 0.  0.
         23    2    1    2    0    0  0.71014750732E+02 -0.24237449341E+02  0.12278282262E+03  0.17057481882E+03  0.91594751554E+02 0.  0.
        -11    1    3    3    0    0  0.46440078188E+01  0.11771930469E+03  0.66030824438E+02  0.13505358670E+03  0.00000000000E+00 0.  1.
         11    1    3    3    0    0 -0.40792742293E+02  0.60518445811E+01  0.32653527457E+02  0.52601573190E+02  0.00000000000E+00 0. -1.
        -13    1    4    4    0    0  0.64219148337E+02  0.19414590111E+02  0.43938901171E+02  0.80197583245E+02  0.00000000000E+00 0.  1.
         13    1    4    4    0    0  0.67956023950E+01 -0.43652039452E+02  0.78843921453E+02  0.90377235576E+02  0.00000000000E+00 0. -1.
         -1    1    1    2    0  502 -0.34866016257E+02 -0.99533699928E+02  0.22258290309E+03  0.24630417223E+03  0.00000000000E+00 0.  1.
<scales pt_clust_5="13000.00000" pt_clust_6="13000.00000" pt_clust_7="13000.00000" pt_clust_8="13000.00000" pt_clust_9="105.46372"></scales>
<clustering>
<clus scale="   91.595">  7  8 -1 -1</clus>
<clus scale="   94.074">  5  6 -1 -1</clus>
<clus scale="  105.464">  1  9  2 -1</clus>
<clus scale="  129.631">  1  7  2 -1</clus>
<clus scale="  105.464">  1  5  2 -1</clus>
</clustering>
</event>
<event>
 9    1  0.1610296E-005  0.2233054E+03  0.7546771E-02  0.1169054E+00
         21   -1    0    0  501  502  0.00000000000E+00  0.00000000000E+00  0.12802641138E+04  0.12802641138E+04  0.00000000000E+00 0. -1.
          1   -1    0    0  502    0 -0.00000000000E+00 -0.00000000000E+00 -0.12696064690E+03  0.12696064690E+03  0.00000000000E+00 0. -1.
         23    2    1    2    0    0  0.90737987300E+00  0.13613434317E+02 -0.68105624839E+02  0.11415098648E+03  0.90586547835E+02 0.  0.
         23    2    1    2    0    0  0.11592657281E+03 -0.16725888742E+03  0.59099487192E+03  0.63377172939E+03  0.10477194585E+03 0.  0.
        -11    1    4    4    0    0  0.13242883529E+03 -0.13452864660E+03  0.52994600828E+03  0.56256388514E+03  0.00000000000E+00 0. -1.
         11    1    4    4    0    0 -0.16502262484E+02 -0.32730240820E+02  0.61048863634E+02  0.71207844247E+02  0.00000000000E+00 0.  1.
        -13    1    3    3    0    0  0.42611788835E+01 -0.36812687325E+02 -0.45786351171E+02  0.58904342345E+02  0.00000000000E+00 0.  1.
         13    1    3    3    0    0 -0.33537990105E+01  0.50426121642E+02 -0.22319273668E+02  0.55246644140E+02  0.00000000000E+00 0. -1.
          1    1    1    2  501    0 -0.11683395268E+03  0.15364545310E+03  0.63041421979E+03  0.65930204480E+03  0.00000000000E+00 0. -1.
<scales pt_clust_5="13000.00000" pt_clust_6="13000.00000" pt_clust_7="13000.00000" pt_clust_8="13000.00000" pt_clust_9="197.20078"></scales>
<clustering>
<clus scale="   90.587">  7  8 -1 -1</clus>
<clus scale="   91.608">  2  7  1 -1</clus>
<clus scale="  104.772">  5  6 -1 -1</clus>
<clus scale="  197.201">  1  9  2 -1</clus>
<clus scale="  197.201">  1  5  2 -1</clus>
</clustering>
</event>
<event>
 9    1  0.1610296E-005  0.1065437E+03  0.7546771E-02  0.1268551E+00
         21   -1    0    0  501  502  0.00000000000E+00  0.00000000000E+00  0.29476629293E+03  0.29476629293E+03  0.00000000000E+00 0.  1.
          1   -1    0    0  502    0 -0.00000000000E+00 -0.00000000000E+00 -0.22076721596E+03  0.22076721596E+03  0.00000000000E+00 0. -1.
         23    2    1    2    0    0  0.25490097069E+02  0.38890971495E+02 -0.19154047497E+03  0.21915320466E+03  0.95802509631E+02 0.  0.
         23    2    1    2    0    0 -0.45607972528E+02 -0.28068904384E+02  0.23562606332E+03  0.25874172228E+03  0.92518574261E+02 0.  0.
        -11    1    4    4    0    0 -0.55082628857E+02  0.68677270800E+01  0.70687153669E+02  0.89877335135E+02  0.00000000000E+00 0. -1.
         11    1    4    4    0    0  0.94746563289E+01 -0.34936631464E+02  0.16493890965E+03  0.16886438715E+03  0.00000000000E+00 0.  1.
        -13    1    3    3    0    0  0.32668125120E+02  0.17610977284E+02 -0.19310668337E+03  0.19664064708E+03  0.00000000000E+00 0. -1.
         13    1    3    3    0    0 -0.71780280510E+01  0.21279994210E+02  0.15662084068E+01  0.22512557586E+02  0.00000000000E+00 0.  1.
          1    1    1    2  501    0  0.20117875459E+02 -0.10822067111E+02  0.29913488623E+02  0.37638581949E+02  0.00000000000E+00 0. -1.
<scales pt_clust_5="13000.00000" pt_clust_6="13000.00000" pt_clust_7="13000.00000" pt_clust_8="13000.00000" pt_clust_9="22.84395"></scales>
<clustering>
<clus scale="   22.844">  1  9  2 -1</clus>
<clus scale="   92.519">  5  6 -1 -1</clus>
<clus scale="   95.803">  7  8 -1 -1</clus>
<clus scale="  103.601">  1  5  2 -1</clus>
<clus scale="   22.844">  1  5  2 -1</clus>
</clustering>
</event>
<event>
 9    1  0.1610296E-005  0.3038362E+03  0.7546771E-02  0.1083470E+00
         21   -1    0    0  501  502  0.00000000000E+00  0.00000000000E+00  0.31428813458E+03  0.31428813458E+03  0.00000000000E+00 0. -1.
          3   -1    0    0  502    0 -0.00000000000E+00 -0.00000000000E+00 -0.38535544296E+03  0.38535544296E+03  0.00000000000E+00 0. -1.
         23    2    1    2    0    0 -0.12811240589E+03  0.26578093995E+03 -0.16571142079E+03  0.35103738466E+03  0.93352417595E+02 0.  0.
         23    2    1    2    0    0  0.86900950142E+02 -0.26403394648E+03  0.95550667126E+02  0.30734776450E+03  0.89816581575E+02 0.  0.
        -11    1    3    3    0    0 -0.83902123431E+02  0.18594395505E+03 -0.16060895426E+03  0.25963427533E+03  0.00000000000E+00 0. -1.
         11    1    3    3    0    0 -0.44210282457E+02  0.79836984891E+02 -0.51024665304E+01  0.91403109335E+02  0.00000000000E+00 0.  1.
        -11    1    4    4    0    0  0.68468137090E+02 -0.15105215387E+03  0.13280694789E+02  0.16637612762E+03  0.00000000000E+00 0.  1.
         11    1    4    4    0    0  0.18432813052E+02 -0.11298179261E+03  0.82269972336E+02  0.14097163688E+03  0.00000000000E+00 0. -1.
          3    1    1    2  501    0  0.41211455746E+02 -0.17469934674E+01 -0.90655472466E+00  0.41258428379E+02  0.00000000000E+00 0. -1.
<scales pt_clust_5="13000.00000" pt_clust_6="13000.00000" pt_clust_7="13000.00000" pt_clust_8="13000.00000" pt_clust_9="41.24847"></scales>
<clustering>
<clus scale="   41.248">  1  9  2 -1</clus>
<clus scale="   89.817">  7  8 -1 -1</clus>
<clus scale="   93.352">  5  6 -1 -1</clus>
<clus scale="  302.769">  1  7  2 -1</clus>
<clus scale="   41.248">  1  5  2 -1</clus>
</clustering>
</event>
<event>
 9    1  0.1610296E-005  0.1140966E+03  0.7546771E-02  0.1253210E+00
          1   -1    0    0  502    0 -0.00000000000E+00  0.00000000000E+00  0.20587935732E+03  0.20587935732E+03  0.00000000000E+00 0. -1.
         21   -1    0    0  501  502  0.00000000000E+00 -0.00000000000E+00 -0.11167796120E+03  0.11167796120E+03  0.00000000000E+00 0.  1.
         23    2    1    2    0    0  0.36549419926E+02  0.61821151637E+02  0.11026770832E+03  0.16065477200E+03  0.92158957152E+02 0.  0.
         23    2    1    2    0    0 -0.98935230562E+01 -0.53758084896E+02 -0.45388012605E+02  0.11646355545E+03  0.92281496352E+02 0.  0.
        -13    1    4    4    0    0 -0.41923478567E+02 -0.25828512595E+00 -0.31863782817E+02  0.52658763960E+02  0.00000000000E+00 0. -1.
         13    1    4    4    0    0  0.32029955511E+02 -0.53499799770E+02 -0.13524229788E+02  0.63804791488E+02  0.00000000000E+00 0.  1.
        -13    1    3    3    0    0 -0.26853306592E+02  0.66618071249E+01  0.50324690253E+02  0.57428687937E+02  0.00000000000E+00 0. -1.
         13    1    3    3    0    0  0.63402726519E+02  0.55159344512E+02  0.59943018064E+02  0.10322608407E+03  0.00000000000E+00 0.  1.
          1    1    1    2  501    0 -0.26655896870E+02 -0.80630667416E+01  0.29321700408E+02  0.40438991061E+02  0.00000000000E+00 0. -1.
<scales pt_clust_5="13000.00000" pt_clust_6="13000.00000" pt_clust_7="13000.00000" pt_clust_8="13000.00000" pt_clust_9="27.84871"></scales>
<clustering>
<clus scale="   27.849">  2  9  1 -1</clus>
<clus scale="   92.159">  7  8 -1 -1</clus>
<clus scale="   92.281">  5  6 -1 -1</clus>
<clus scale="  113.997">  1  7  2 -1</clus>
<clus scale="   27.849">  2  5  1 -1</clus>
</clustering>
</event>
<event>
 9    1  0.1619590E-005  0.1150177E+03  0.7546771E-02  0.1252447E+00
         21   -1    0    0  501  502  0.00000000000E+00  0.00000000000E+00  0.31174803504E+03  0.31174803504E+03  0.00000000000E+00 0. -1.
          3   -1    0    0  502    0 -0.00000000000E+00 -0.00000000000E+00 -0.35998172614E+03  0.35998172614E+03  0.00000000000E+00 0. -1.
         23    2    1    2    0    0 -0.85910585760E+01  0.71249772805E+02 -0.28316952467E+03  0.30605721269E+03  0.91300062010E+02 0.  0.
         23    2    1    2    0    0 -0.43291756211E+02 -0.45443757697E+02 -0.10626220392E+02  0.11336618862E+03  0.93806529050E+02 0.  0.
        -13    1    3    3    0    0 -0.26798056472E+02  0.38076555108E+02 -0.25412299300E+03  0.25835335386E+03  0.00000000000E+00 0. -1.
         13    1    3    3    0    0  0.18206997896E+02  0.33173217697E+02 -0.29046531669E+02  0.47703858825E+02  0.00000000000E+00 0.  1.
        -13    1    4    4    0    0 -0.17814136273E+02 -0.72533334974E+02  0.29952588766E-02  0.74688875628E+02  0.00000000000E+00 0.  1.
         13    1    4    4    0    0 -0.25477619938E+02  0.27089577277E+02 -0.10629215651E+02  0.38677312990E+02  0.00000000000E+00 0. -1.
          3    1    1    2  501    0  0.51882814787E+02 -0.25806015108E+02  0.24556205397E+03  0.25230635988E+03  0.00000000000E+00 0. -1.
<scales pt_clust_5="13000.00000" pt_clust_6="13000.00000" pt_clust_7="13000.00000" pt_clust_8="13000.00000" pt_clust_9="57.94633"></scales>
<clustering>
<clus scale="   57.946">  1  9  2 -1</clus>
<clus scale="   91.300">  5  6 -1 -1</clus>
<clus scale="   93.807">  7  8 -1 -1</clus>
<clus scale="  112.983">  2  5  1 -1</clus>
<clus scale="   57.946">  1  5  2 -1</clus>
</clustering>
</event>
<event>
 9    1  0.1610296E-005  0.9697000E+02  0.7546771E-02  0.1287035E+00
          3   -1    0    0  502    0 -0.00000000000E+00  0.00000000000E+00  0.48346859217E+02  0.48346859217E+02  0.00000000000E+00 0. -1.
         21   -1    0    0  501  502  0.00000000000E+00 -0.00000000000E+00 -0.32155050298E+03  0.32155050298E+03  0.00000000000E+00 0.  1.
         23    2    1    2    0    0 -0.10433723625E+00  0.41642598871E+02 -0.49204051676E+02  0.11204291914E+03  0.91643112674E+02 0.  0.
         23    2    1    2    0    0 -0.39736146005E+01 -0.68841443318E+01 -0.15450397898E+03  0.18004428887E+03  0.92093894366E+02 0.  0.
        -11    1    4    4    0    0  0.37756160342E+02  0.59223346316E+01 -0.31505080936E+02  0.49529504500E+02  0.00000000000E+00 0.  1.
         11    1    4    4    0    0 -0.41729774943E+02 -0.12806478963E+02 -0.12299889804E+03  0.13051478437E+03  0.00000000000E+00 0. -1.
        -13    1    3    3    0    0 -0.56587235891E+01  0.68925784585E+02 -0.47982944194E+02  0.84173320398E+02  0.00000000000E+00 0.  1.
         13    1    3    3    0    0  0.55543863529E+01 -0.27283185714E+02 -0.12211074819E+01  0.27869598740E+02  0.00000000000E+00 0. -1.
          3    1    1    2  501    0  0.40779518367E+01 -0.34758454539E+02 -0.69495613107E+02  0.77810154185E+02  0.00000000000E+00 0. -1.
<scales pt_clust_5="13000.00000" pt_clust_6="13000.00000" pt_clust_7="13000.00000" pt_clust_8="13000.00000" pt_clust_9="34.99685"></scales>
<clustering>
<clus scale="   34.997">  2  9  1 -1</clus>
<clus scale="   91.643">  7  8 -1 -1</clus>
<clus scale="   92.094">  5  6 -1 -1</clus>
<clus scale="   96.542">  1  7  2 -1</clus>
<clus scale="   34.997">  2  5  1 -1</clus>
</clustering>
</event>
<event>
 9    1  0.1610296E-005  0.9838184E+02  0.7546771E-02  0.1288590E+00
          1   -1    0    0  502    0 -0.00000000000E+00  0.00000000000E+00  0.18738107479E+03  0.18738107479E+03  0.00000000000E+00 0. -1.
         21   -1    0    0  501  502  0.00000000000E+00 -0.00000000000E+00 -0.95663820183E+02  0.95663820183E+02  0.00000000000E+00 0.  1.
         23    2    1    2    0    0 -0.50458803343E+01 -0.10986106215E+01  0.12016790374E+03  0.15531785954E+03  0.98268227560E+02 0.  0.
         23    2    1    2    0    0 -0.13052279579E+02 -0.23856203954E+02 -0.21479093000E+02  0.96121833999E+02  0.89658100949E+02 0.  0.
        -13    1    4    4    0    0 -0.48319485469E+02  0.34011442164E+01 -0.54070761918E+01  0.48739890551E+02  0.00000000000E+00 0.  1.
         13    1    4    4    0    0  0.35267205890E+02 -0.27257348171E+02 -0.16072016808E+02  0.47381943447E+02  0.00000000000E+00 0. -1.
        -13    1    3    3    0    0 -0.70553983669E+01 -0.46215334506E+02  0.88725848240E+02  0.10028914166E+03  0.00000000000E+00 0.  1.
         13    1    3    3    0    0  0.20095180326E+01  0.45116723884E+02  0.31442055505E+02  0.55028717877E+02  0.00000000000E+00 0. -1.
          1    1    1    2  501    0  0.18098159914E+02  0.24954814576E+02 -0.69715561374E+01  0.31605201435E+02  0.00000000000E+00 0. -1.
<scales pt_clust_5="13000.00000" pt_clust_6="13000.00000" pt_clust_7="13000.00000" pt_clust_8="13000.00000" pt_clust_9="30.82671"></scales>
<clustering>
<clus scale="   30.827">  2  9  1 -1</clus>
<clus scale="   89.658">  5  6 -1 -1</clus>
<clus scale="   89.783">  2  5  1 -1</clus>
<clus scale="   98.268">  7  8 -1 -1</clus>
<clus scale="   30.827">  2  5  1 -1</clus>
</clustering>
</event>
<event>
 9    1  0.1610296E-005  0.9250928E+02  0.7546771E-02  0.1298998E+00
         -2   -1    0    0    0  501 -0.00000000000E+00  0.00000000000E+00  0.96122387459E+02  0.96122387459E+02  0.00000000000E+00 0.  1.
         21   -1    0    0  501  502  0.00000000000E+00 -0.00000000000E+00 -0.27625682142E+03  0.27625682142E+03  0.00000000000E+00 0.  1.
         23    2    1    2    0    0  0.29179489973E+01  0.41186649361E+01  0.52471308403E+02  0.10339970208E+03  0.88953821484E+02 0.  0.
         23    2    1    2    0    0  0.62991758764E+01  0.21439323849E+02 -0.12004338534E+03  0.15318464336E+03  0.92497547928E+02 0.  0.
        -11    1    4    4    0    0 -0.36263078313E+02  0.34652343322E+02 -0.56232749450E+02  0.75351959876E+02  0.00000000000E+00 0. -1.
         11    1    4    4    0    0  0.42562254189E+02 -0.13213019473E+02 -0.63810635889E+02  0.77832683480E+02  0.00000000000E+00 0.  1.
        -13    1    3    3    0    0 -0.12607195050E+02  0.39584997304E+02  0.49423130454E+02  0.64564380292E+02  0.00000000000E+00 0.  1.
         13    1    3    3    0    0  0.15525144047E+02 -0.35466332368E+02  0.30481779491E+01  0.38835321784E+02  0.00000000000E+00 0. -1.
         -2    1    1    2    0  502 -0.92171248738E+01 -0.25557988785E+02 -0.11256235702E+03  0.11579486344E+03  0.00000000000E+00 0.  1.
<scales pt_clust_5="13000.00000" pt_clust_6="13000.00000" pt_clust_7="13000.00000" pt_clust_8="13000.00000" pt_clust_9="27.16921"></scales>
<clustering>
<clus scale="   27.169">  2  9  1 -1</clus>
<clus scale="   88.954">  7  8 -1 -1</clus>
<clus scale="   88.966">  1  7  2 -1</clus>
<clus scale="   92.498">  5  6 -1 -1</clus>
<clus scale="   27.169">  2  5  1 -1</clus>
</clustering>
</event>
<event>
 9    1  0.1610296E-005  0.1105475E+03  0.7546771E-02  0.1261879E+00
          2   -1    0    0  502    0 -0.00000000000E+00  0.00000000000E+00  0.20412226746E+03  0.20412226746E+03  0.00000000000E+00 0. -1.
         21   -1    0    0  501  502  0.00000000000E+00 -0.00000000000E+00 -0.10455938288E+03  0.10455938288E+03  0.00000000000E+00 0.  1.
         23    2    1    2    0    0 -0.36878490389E+02  0.53039893909E+02  0.11168243110E+03  0.15794276754E+03  0.91102683842E+02 0.  0.
         23    2    1    2    0    0  0.49200150739E+02 -0.32932091581E+02 -0.42726858055E+02  0.11210011279E+03  0.85062761534E+02 0.  0.
        -11    1    3    3    0    0 -0.63787153868E+02  0.36689036621E+02  0.50855049401E+02  0.89448993602E+02  0.00000000000E+00 0. -1.
         11    1    3    3    0    0  0.26908663480E+02  0.16350857289E+02  0.60827381696E+02  0.68493773938E+02  0.00000000000E+00 0.  1.
        -11    1    4    4    0    0  0.80070017740E+01 -0.35320507735E+02  0.16596060819E+02  0.39838167362E+02  0.00000000000E+00 0. -1.
         11    1    4    4    0    0  0.41193148965E+02  0.23884161543E+01 -0.59322918874E+02  0.72261945429E+02  0.00000000000E+00 0.  1.
          2    1    1    2  501    0 -0.12321660350E+02 -0.20107802329E+02  0.30607311541E+02  0.38638770012E+02  0.00000000000E+00 0. -1.
<scales pt_clust_5="13000.00000" pt_clust_6="13000.00000" pt_clust_7="13000.00000" pt_clust_8="13000.00000" pt_clust_9="23.58278"></scales>
<clustering>
<clus scale="   23.583">  2  9  1 -1</clus>
<clus scale="   85.063">  7  8 -1 -1</clus>
<clus scale="   91.103">  5  6 -1 -1</clus>
<clus scale="  105.625">  2  7  1 -1</clus>
<clus scale="   23.583">  2  5  1 -1</clus>
</clustering>
</event>
<event>
 9    1  0.1610296E-005  0.1212230E+03  0.7546771E-02  0.1242170E+00
         21   -1    0    0  501  502  0.00000000000E+00  0.00000000000E+00  0.48009802682E+02  0.48009802682E+02  0.00000000000E+00 0.  1.
         -1   -1    0    0    0  501 -0.00000000000E+00 -0.00000000000E+00 -0.49398565137E+03  0.49398565137E+03  0.00000000000E+00 0.  1.
         23    2    1    2    0    0 -0.46506506660E+02  0.74352954200E+02 -0.23271349266E+03  0.26568945774E+03  0.93509899636E+02 0.  0.
         23    2    1    2    0    0  0.67205201473E+02 -0.29900767815E+02 -0.18819487683E+03  0.22123502978E+03  0.90094570963E+02 0.  0.
        -11    1    4    4    0    0  0.48557889616E+02 -0.16600660025E+02 -0.19135226126E+03  0.19811395318E+03  0.00000000000E+00 0.  1.
         11    1    4    4    0    0  0.18647311857E+02 -0.13300107790E+02  0.31573844278E+01  0.23121076600E+02  0.00000000000E+00 0. -1.
        -13    1    3    3    0    0 -0.70286652722E+02  0.36735124161E+02 -0.18003164563E+03  0.19672589135E+03  0.00000000000E+00 0. -1.
         13    1    3    3    0    0  0.23780146062E+02  0.37617830039E+02 -0.52681847029E+02  0.68963566395E+02  0.00000000000E+00 0.  1.
         -1    1    1    2    0  502 -0.20698694813E+02 -0.44452186384E+02 -0.25067479207E+02  0.55070966535E+02  0.00000000000E+00 0.  1.
<scales pt_clust_5="13000.00000" pt_clust_6="13000.00000" pt_clust_7="13000.00000" pt_clust_8="13000.00000" pt_clust_9="49.03502"></scales>
<clustering>
<clus scale="   49.035">  1  9  2 -1</clus>
<clus scale="   90.095">  5  6 -1 -1</clus>
<clus scale="   93.510">  7  8 -1 -1</clus>
<clus scale="  118.608">  1  5  2 -1</clus>
<clus scale="   49.035">  1  5  2 -1</clus>
</clustering>
</event>
<event>
 9    1  0.1610296E-005  0.9984814E+02  0.7546771E-02  0.1281349E+00
         21   -1    0    0  501  502  0.00000000000E+00  0.00000000000E+00  0.40346403176E+02  0.40346403176E+02  0.00000000000E+00 0.  1.
          1   -1    0    0  502    0 -0.00000000000E+00 -0.00000000000E+00 -0.67200661273E+03  0.67200661273E+03  0.00000000000E+00 0. -1.
         23    2    1    2    0    0  0.14254489635E+02 -0.90108137914E+01 -0.24379511227E+03  0.26081422074E+03  0.91124177520E+02 0.  0.
         23    2    1    2    0    0 -0.99713632246E+02  0.32235226216E+02 -0.18999132287E+03  0.23475164383E+03  0.89608667265E+02 0.  0.
        -11    1    3    3    0    0 -0.32784405313E+01 -0.38415423119E+02 -0.45738700185E+02  0.59820745568E+02  0.00000000000E+00 0.  1.
         11    1    3    3    0    0  0.17532930166E+02  0.29404609327E+02 -0.19805641209E+03  0.20099347517E+03  0.00000000000E+00 0. -1.
        -11    1    4    4    0    0 -0.80242773084E+02 -0.14252809920E+01 -0.17598303217E+03  0.19341913470E+03  0.00000000000E+00 0.  1.
         11    1    4    4    0    0 -0.19470859162E+02  0.33660507208E+02 -0.14008290698E+02  0.41332509121E+02  0.00000000000E+00 0. -1.
          1    1    1    2  501    0  0.85459142611E+02 -0.23224412424E+02 -0.19787377442E+03  0.21678715135E+03  0.00000000000E+00 0. -1.
<scales pt_clust_5="13000.00000" pt_clust_6="13000.00000" pt_clust_7="13000.00000" pt_clust_8="13000.00000" pt_clust_9="88.55872"></scales>
<clustering>
<clus scale="   88.559">  1  9  2 -1</clus>
<clus scale="   89.609">  7  8 -1 -1</clus>
<clus scale="   91.124">  5  6 -1 -1</clus>
<clus scale="   98.467">  1  7  2 -1</clus>
<clus scale="   88.559">  1  5  2 -1</clus>
</clustering>
</event>
<event>
 9    1  0.1610296E-005  0.1073655E+03  0.7546771E-02  0.1265566E+00
         21   -1    0    0  501  502  0.00000000000E+00  0.00000000000E+00  0.15867860207E+02  0.15867860207E+02  0.00000000000E+00 0.  1.
          1   -1    0    0  502    0 -0.00000000000E+00 -0.00000000000E+00 -0.10547682538E+04  0.10547682538E+04  0.00000000000E+00 0. -1.
         23    2    1    2    0    0 -0.42043219570E+02  0.12440588699E+02 -0.49328964561E+03  0.50357356750E+03  0.91264795284E+02 0.  0.
         23    2    1    2    0    0  0.70819857946E+02 -0.19806938786E+02 -0.49222165464E+03  0.50596628379E+03  0.91169928878E+02 0.  0.
        -11    1    4    4    0    0  0.23921946217E+02  0.29194722953E+02 -0.83227756125E+02  0.91386272212E+02  0.00000000000E+00 0.  1.
         11    1    4    4    0    0  0.46897911729E+02 -0.49001661738E+02 -0.40899389852E+03  0.41458001158E+03  0.00000000000E+00 0. -1.
        -13    1    3    3    0    0 -0.47512767768E+02 -0.30536293145E+02 -0.32029785722E+03  0.32523936668E+03  0.00000000000E+00 0. -1.
         13    1    3    3    0    0  0.54695481980E+01  0.42976881844E+02 -0.17299178839E+03  0.17833420082E+03  0.00000000000E+00 0.  1.
          1    1    1    2  501    0 -0.28776638376E+02  0.73663500870E+01 -0.53389093318E+02  0.61096262693E+02  0.00000000000E+00 0. -1.
<scales pt_clust_5="13000.00000" pt_clust_6="13000.00000" pt_clust_7="13000.00000" pt_clust_8="13000.00000" pt_clust_9="29.70451"></scales>
<clustering>
<clus scale="   29.705">  1  9  2 -1</clus>
<clus scale="   91.170">  5  6 -1 -1</clus>
<clus scale="   91.265">  7  8 -1 -1</clus>
<clus scale="  107.285">  1  5  2 -1</clus>
<clus scale="   29.705">  1  5  2 -1</clus>
</clustering>
</event>
<event>
 9    1  0.1610296E-005  0.1142735E+03  0.7546771E-02  0.1253808E+00
         21   -1    0    0  501  502  0.00000000000E+00  0.00000000000E+00  0.30490925188E+03  0.30490925188E+03  0.00000000000E+00 0. -1.
         -3   -1    0    0    0  501 -0.00000000000E+00 -0.00000000000E+00 -0.12421423260E+03  0.12421423260E+03  0.00000000000E+00 0.  1.
         23    2    1    2    0    0  0.31998937730E+02 -0.55124681409E+02 -0.70934407620E+02  0.13108164632E+03  0.89933560488E+02 0.  0.
         23    2    1    2    0    0 -0.56438966898E+02  0.70063360875E+02  0.18580045553E+03  0.22625094289E+03  0.92592917460E+02 0.  0.
        -11    1    3    3    0    0  0.86006142163E+01  0.25168400286E+02 -0.17092462520E+02  0.31615996154E+02  0.00000000000E+00 0. -1.
         11    1    3    3    0    0  0.23398323514E+02 -0.80293081695E+02 -0.53841945100E+02  0.99465650169E+02  0.00000000000E+00 0.  1.
        -13    1    4    4    0    0 -0.80842179240E+02  0.56026335121E+02  0.12347507239E+03  0.15786228705E+03  0.00000000000E+00 0. -1.
         13    1    4    4    0    0  0.24403212342E+02  0.14037025755E+02  0.62325383134E+02  0.68388655838E+02  0.00000000000E+00 0.  1.
         -3    1    1    2    0  502  0.24440029168E+02 -0.14938679466E+02  0.65828971378E+02  0.71790895262E+02  0.00000000000E+00 0.  1.
<scales pt_clust_5="13000.00000" pt_clust_6="13000.00000" pt_clust_7="13000.00000" pt_clust_8="13000.00000" pt_clust_9="28.64401"></scales>
<clustering>
<clus scale="   28.644">  1  9  2 -1</clus>
<clus scale="   89.934">  5  6 -1 -1</clus>
<clus scale="   92.593">  7  8 -1 -1</clus>
<clus scale="  112.130">  2  5  1 -1</clus>
<clus scale="   28.644">  1  5  2 -1</clus>
</clustering>
</event>
<event>
 9    1  0.1610296E-005  0.1411169E+03  0.7546771E-02  0.1211932E+00
          2   -1    0    0  502    0 -0.00000000000E+00  0.00000000000E+00  0.73725234825E+03  0.73725234825E+03  0.00000000000E+00 0. -1.
         21   -1    0    0  501  502  0.00000000000E+00 -0.00000000000E+00 -0.35436289758E+02  0.35436289758E+02  0.00000000000E+00 0.  1.
         23    2    1    2    0    0  0.35421963199E+00  0.93942139869E+02  0.34114280547E+03  0.36570138780E+03  0.92378786509E+02 0.  0.
         23    2    1    2    0    0  0.36897921008E+01 -0.12571292874E+03  0.31187434485E+03  0.34861713375E+03  0.91929015848E+02 0.  0.
        -11    1    3    3    0    0  0.18530229657E+02 -0.12014799491E+02  0.36669127302E+02  0.42805954201E+02  0.00000000000E+00 0.  1.
         11    1    3    3    0    0 -0.18176010025E+02  0.10595693936E+03  0.30447367817E+03  0.32289543360E+03  0.00000000000E+00 0. -1.
        -13    1    4    4    0    0 -0.26227351299E+02 -0.94314974121E+02  0.27426529670E+03  0.29121236456E+03  0.00000000000E+00 0. -1.
         13    1    4    4    0    0  0.29917143400E+02 -0.31397954620E+02  0.37609048148E+02  0.57404769194E+02  0.00000000000E+00 0.  1.
          2    1    1    2  501    0 -0.40440117328E+01  0.31770788872E+02  0.48798908178E+02  0.58370116462E+02  0.00000000000E+00 0. -1.
<scales pt_clust_5="13000.00000" pt_clust_6="13000.00000" pt_clust_7="13000.00000" pt_clust_8="13000.00000" pt_clust_9="32.02713"></scales>
<clustering>
<clus scale="   32.027">  2  9  1 -1</clus>
<clus scale="   91.929">  7  8 -1 -1</clus>
<clus scale="   92.379">  5  6 -1 -1</clus>
<clus scale="  140.823">  2  7  1 -1</clus>
<clus scale="   32.027">  2  5  1 -1</clus>
</clustering>
</event>
<event>
 9    1  0.1610296E-005  0.1200186E+03  0.7546771E-02  0.1247834E+00
          2   -1    0    0  502    0 -0.00000000000E+00  0.00000000000E+00  0.71596206372E+03  0.71596206372E+03  0.00000000000E+00 0. -1.
         21   -1    0    0  501  502  0.00000000000E+00 -0.00000000000E+00 -0.31249392971E+02  0.31249392971E+02  0.00000000000E+00 0.  1.
         23    2    1    2    0    0 -0.16886598735E+02  0.58041754745E+02  0.47507719578E+03  0.48919502258E+03  0.99796922111E+02 0.  0.
         23    2    1    2    0    0  0.40665640716E+02 -0.73248574783E+02  0.18442382530E+03  0.22017046348E+03  0.86277677357E+02 0.  0.
        -11    1    3    3    0    0  0.23775988651E+02 -0.10202032742E+02  0.45562289250E+02  0.52395623006E+02  0.00000000000E+00 0.  1.
         11    1    3    3    0    0 -0.40662587386E+02  0.68243787487E+02  0.42951490653E+03  0.43679939958E+03  0.00000000000E+00 0. -1.
        -11    1    4    4    0    0  0.51020390365E+02 -0.16758844053E+02  0.47519648980E+02  0.71708131521E+02  0.00000000000E+00 0.  1.
         11    1    4    4    0    0 -0.10354749649E+02 -0.56489730730E+02  0.13690417632E+03  0.14846233196E+03  0.00000000000E+00 0. -1.
          2    1    1    2  501    0 -0.23779041981E+02  0.15206820037E+02  0.25211649672E+02  0.37845970623E+02  0.00000000000E+00 0. -1.
<scales pt_clust_5="13000.00000" pt_clust_6="13000.00000" pt_clust_7="13000.00000" pt_clust_8="13000.00000" pt_clust_9="28.22570"></scales>
<clustering>
<clus scale="   28.226">  2  9  1 -1</clus>
<clus scale="   86.278">  7  8 -1 -1</clus>
<clus scale="   99.797">  5  6 -1 -1</clus>
<clus scale="  109.036">  2  7  1 -1</clus>
<clus scale="   28.226">  2  5  1 -1</clus>
</clustering>
</event>
<event>
 9    1  0.1610296E-005  0.1138498E+03  0.7546771E-02  0.1253925E+00
         21   -1    0    0  501  502  0.00000000000E+00  0.00000000000E+00  0.47554705112E+02  0.47554705112E+02  0.00000000000E+00 0.  1.
         -2   -1    0    0    0  501 -0.00000000000E+00 -0.00000000000E+00 -0.34947196117E+03  0.34947196117E+03  0.00000000000E+00 0.  1.
         23    2    1    2    0    0  0.55399773102E+02  0.86416470778E+01 -0.12900728916E+03  0.16777343188E+03  0.91439766312E+02 0.  0.
         23    2    1    2    0    0 -0.79342975945E+02  0.64541016865E+01 -0.14587538027E+03  0.19011211194E+03  0.92336478596E+02 0.  0.
        -13    1    3    3    0    0  0.28373734798E+02 -0.38959264917E+02 -0.84270859811E+02  0.97079714475E+02  0.00000000000E+00 0. -1.
         13    1    3    3    0    0  0.27026038305E+02  0.47600911995E+02 -0.44736429349E+02  0.70693717402E+02  0.00000000000E+00 0.  1.
        -13    1    4    4    0    0 -0.14944307459E+02 -0.22804583370E+02  0.79480705188E+00  0.27276602911E+02  0.00000000000E+00 0. -1.
         13    1    4    4    0    0 -0.64398668486E+02  0.29258685057E+02 -0.14667018732E+03  0.16283550903E+03  0.00000000000E+00 0.  1.
         -2    1    1    2    0  502  0.23943202843E+02 -0.15095748764E+02 -0.27034586632E+02  0.39141122461E+02  0.00000000000E+00 0.  1.
<scales pt_clust_5="13000.00000" pt_clust_6="13000.00000" pt_clust_7="13000.00000" pt_clust_8="13000.00000" pt_clust_9="28.30475"></scales>
<clustering>
<clus scale="   28.305">  1  9  2 -1</clus>
<clus scale="   91.440">  5  6 -1 -1</clus>
<clus scale="   92.336">  7  8 -1 -1</clus>
<clus scale="  113.124">  2  5  1 -1</clus>
<clus scale="   28.305">  1  5  2 -1</clus>
</clustering>
</event>
<event>
 9    1  0.1610296E-005  0.1068217E+03  0.7546771E-02  0.1272856E+00
         21   -1    0    0  501  502  0.00000000000E+00  0.00000000000E+00  0.10876612597E+03  0.10876612597E+03  0.00000000000E+00 0. -1.
          1   -1    0    0  502    0 -0.00000000000E+00 -0.00000000000E+00 -0.39197497903E+03  0.39197497903E+03  0.00000000000E+00 0. -1.
         23    2    1    2    0    0 -0.33538302172E+01  0.32885374505E+02 -0.17846512747E+03  0.20319610144E+03  0.91357308878E+02 0.  0.
         23    2    1    2    0    0  0.27916264641E+02 -0.40576229955E+01 -0.18200691382E+03  0.21149877937E+03  0.10396843205E+03 0.  0.
        -11    1    3    3    0    0 -0.39535325096E+02  0.25275349665E+02 -0.46162983835E+02  0.65824815288E+02  0.00000000000E+00 0.  1.
         11    1    3    3    0    0  0.36181494879E+02  0.76100248402E+01 -0.13230214363E+03  0.13737128615E+03  0.00000000000E+00 0. -1.
        -11    1    4    4    0    0  0.59017325961E+02 -0.91710742063E+01 -0.56929825630E+02  0.82511565322E+02  0.00000000000E+00 0. -1.
         11    1    4    4    0    0 -0.31101061321E+02  0.51134512108E+01 -0.12507708819E+03  0.12898721405E+03  0.00000000000E+00 0.  1.
          1    1    1    2  501    0 -0.24562434424E+02 -0.28827751510E+02  0.77263188227E+02  0.86046224188E+02  0.00000000000E+00 0. -1.
<scales pt_clust_5="13000.00000" pt_clust_6="13000.00000" pt_clust_7="13000.00000" pt_clust_8="13000.00000" pt_clust_9="37.87285"></scales>
<clustering>
<clus scale="   37.873">  1  9  2 -1</clus>
<clus scale="   91.357">  5  6 -1 -1</clus>
<clus scale="   94.592">  2  5  1 -1</clus>
<clus scale="  103.968">  7  8 -1 -1</clus>
<clus scale="   37.873">  1  5  2 -1</clus>
</clustering>
</event>
<event>
 9    1  0.1610296E-005  0.9639440E+02  0.7546771E-02  0.1291402E+00
         21   -1    0    0  501  502  0.00000000000E+00  0.00000000000E+00  0.10115380883E+03  0.10115380883E+03  0.00000000000E+00 0. -1.
          3   -1    0    0  502    0 -0.00000000000E+00 -0.00000000000E+00 -0.13792538234E+03  0.13792538234E+03  0.00000000000E+00 0. -1.
         23    2    1    2    0    0 -0.27400685278E+02 -0.12169727757E+02 -0.58259372573E+02  0.11240626434E+03  0.91335173632E+02 0.  0.
         23    2    1    2    0    0  0.20107485167E+02  0.31218702306E+02  0.38064266600E+02  0.10038921562E+03  0.85148035139E+02 0.  0.
        -11    1    3    3    0    0  0.13814650029E+02  0.28583452797E+02 -0.22844625506E+01  0.31828872088E+02  0.00000000000E+00 0.  1.
         11    1    3    3    0    0 -0.41215335307E+02 -0.40753180554E+02 -0.55974910022E+02  0.80577392250E+02  0.00000000000E+00 0. -1.
        -11    1    4    4    0    0 -0.22552449149E+02  0.40833848716E+02  0.31209093413E+02  0.56125071717E+02  0.00000000000E+00 0. -1.
         11    1    4    4    0    0  0.42659934315E+02 -0.96151464098E+01  0.68551731869E+01  0.44264143906E+02  0.00000000000E+00 0.  1.
          3    1    1    2  501    0  0.72932001112E+01 -0.19048974549E+02 -0.16576467533E+02  0.26283711213E+02  0.00000000000E+00 0. -1.
<scales pt_clust_5="13000.00000" pt_clust_6="13000.00000" pt_clust_7="13000.00000" pt_clust_8="13000.00000" pt_clust_9="20.39742"></scales>
<clustering>
<clus scale="   20.397">  1  9  2 -1</clus>
<clus scale="   85.148">  7  8 -1 -1</clus>
<clus scale="   90.554">  1  7  2 -1</clus>
<clus scale="   91.335">  5  6 -1 -1</clus>
<clus scale="   20.397">  1  5  2 -1</clus>
</clustering>
</event>
<event>
 9    1  0.1610296E-005  0.1688517E+03  0.7546771E-02  0.1179387E+00
         21   -1    0    0  501  502  0.00000000000E+00  0.00000000000E+00  0.80563978204E+03  0.80563978204E+03  0.00000000000E+00 0.  1.
         -2   -1    0    0    0  501 -0.00000000000E+00 -0.00000000000E+00 -0.11084978398E+03  0.11084978398E+03  0.00000000000E+00 0.  1.
         23    2    1    2    0    0  0.10664158797E+03 -0.68841651211E+01  0.65556665268E+02  0.15518791823E+03  0.91464712267E+02 0.  0.
         23    2    1    2    0    0 -0.21144613037E+03  0.30934111839E+01  0.15816082011E+03  0.27869655651E+03  0.89094839096E+02 0.  0.
        -11    1    4    4    0    0 -0.82215814419E+02 -0.13499295486E+02  0.14178637028E+02  0.84514524593E+02  0.00000000000E+00 0. -1.
         11    1    4    4    0    0 -0.12923031595E+03  0.16592706670E+02  0.14398218309E+03  0.19418203192E+03  0.00000000000E+00 0.  1.
        -13    1    3    3    0    0 -0.26697344372E+01  0.24868270288E+02  0.21998013793E+02  0.33308721980E+02  0.00000000000E+00 0.  1.
         13    1    3    3    0    0  0.10931132241E+03 -0.31752435409E+02  0.43558651475E+02  0.12187919625E+03  0.00000000000E+00 0. -1.
         -2    1    1    2    0  502  0.10480454240E+03  0.37907539372E+01  0.47107251268E+03  0.48260509127E+03  0.00000000000E+00 0.  1.
<scales pt_clust_5="13000.00000" pt_clust_6="13000.00000" pt_clust_7="13000.00000" pt_clust_8="13000.00000" pt_clust_9="104.87308"></scales>
<clustering>
<clus scale="   89.095">  5  6 -1 -1</clus>
<clus scale="   91.465">  7  8 -1 -1</clus>
<clus scale="  104.873">  1  9  2 -1</clus>
<clus scale="  167.580">  1  5  2 -1</clus>
<clus scale="  104.873">  1  5  2 -1</clus>
</clustering>
</event>
<event>
 9    1  0.1610296E-005  0.1054040E+03  0.7546771E-02  0.1272342E+00
         21   -1    0    0  501  502  0.00000000000E+00  0.00000000000E+00  0.67664188801E+02  0.67664188801E+02  0.00000000000E+00 0.  1.
          1   -1    0    0  502    0 -0.00000000000E+00 -0.00000000000E+00 -0.34814194140E+03  0.34814194140E+03  0.00000000000E+00 0. -1.
         23    2    1    2    0    0  0.19449468007E+01 -0.54236216447E+02 -0.16189670900E+03  0.19346007371E+03  0.90944520144E+02 0.  0.
         23    2    1    2    0    0 -0.50580511459E+02  0.37000933698E+01 -0.10282925145E+03  0.15046117044E+03  0.97430128948E+02 0.  0.
        -13    1    3    3    0    0  0.12786891105E+02  0.17929586986E+02 -0.83499085238E+02  0.86354339261E+02  0.00000000000E+00 0.  1.
         13    1    3    3    0    0 -0.10841944305E+02 -0.72165803432E+02 -0.78397623760E+02  0.10710573445E+03  0.00000000000E+00 0. -1.
        -13    1    4    4    0    0 -0.19654957838E+02 -0.35251145012E+02 -0.49396724295E+01  0.40661541485E+02  0.00000000000E+00 0.  1.
         13    1    4    4    0    0 -0.30925553621E+02  0.38951238382E+02 -0.97889579024E+02  0.10979962896E+03  0.00000000000E+00 0. -1.
          1    1    1    2  501    0  0.48635564658E+02  0.50536123077E+02 -0.15751792147E+02  0.71884886041E+02  0.00000000000E+00 0. -1.
<scales pt_clust_5="13000.00000" pt_clust_6="13000.00000" pt_clust_7="13000.00000" pt_clust_8="13000.00000" pt_clust_9="70.13785"></scales>
<clustering>
<clus scale="   70.138">  1  9  2 -1</clus>
<clus scale="   90.945">  5  6 -1 -1</clus>
<clus scale="   97.430">  7  8 -1 -1</clus>
<clus scale="   99.440">  2  5  1 -1</clus>
<clus scale="   70.138">  1  5  2 -1</clus>
</clustering>
</event>
<event>
 9    1  0.1610296E-005  0.1424792E+03  0.7546771E-02  0.1210392E+00
          1   -1    0    0  502    0 -0.00000000000E+00  0.00000000000E+00  0.10245304047E+04  0.10245304047E+04  0.00000000000E+00 0. -1.
         21   -1    0    0  501  502  0.00000000000E+00 -0.00000000000E+00 -0.34300506422E+02  0.34300506422E+02  0.00000000000E+00 0.  1.
         23    2    1    2    0    0 -0.10030614889E+03 -0.60818295430E+02  0.69137107636E+03  0.70695163882E+03  0.89590545493E+02 0.  0.
         23    2    1    2    0    0  0.91863214133E+02  0.29369863538E+02  0.28867904197E+03  0.31776307478E+03  0.91303578382E+02 0.  0.
        -11    1    3    3    0    0  0.14042598792E+02 -0.23355778100E+02  0.13243774238E+03  0.13521258284E+03  0.00000000000E+00 0.  1.
         11    1    3    3    0    0 -0.11434874769E+03 -0.37462517331E+02  0.55893333397E+03  0.57173905598E+03  0.00000000000E+00 0. -1.
        -13    1    4    4    0    0  0.39120211076E+02 -0.24407991075E+02  0.52554959051E+02  0.69915410775E+02  0.00000000000E+00 0.  1.
         13    1    4    4    0    0  0.52743003057E+02  0.53777854613E+02  0.23612408292E+03  0.24784766400E+03  0.00000000000E+00 0. -1.
          1    1    1    2  501    0  0.84429347596E+01  0.31448431892E+02  0.10179779999E+02  0.34116197570E+02  0.00000000000E+00 0. -1.
<scales pt_clust_5="13000.00000" pt_clust_6="13000.00000" pt_clust_7="13000.00000" pt_clust_8="13000.00000" pt_clust_9="32.56205"></scales>
<clustering>
<clus scale="   32.562">  2  9  1 -1</clus>
<clus scale="   89.591">  5  6 -1 -1</clus>
<clus scale="   91.304">  7  8 -1 -1</clus>
<clus scale="  141.388">  1  5  2 -1</clus>
<clus scale="   32.562">  2  5  1 -1</clus>
</clustering>
</event>
<event>
 9    1  0.1610296E-005  0.9632516E+02  0.7546771E-02  0.1288604E+00
          2   -1    0    0  502    0 -0.00000000000E+00  0.00000000000E+00  0.17328219913E+03  0.17328219913E+03  0.00000000000E+00 0. -1.
         21   -1    0    0  501  502  0.00000000000E+00 -0.00000000000E+00 -0.11501554918E+03  0.11501554918E+03  0.00000000000E+00 0. -1.
         23    2    1    2    0    0 -0.18678913608E+02  0.24485932651E+02  0.11203466653E+03  0.14787376623E+03  0.91468144849E+02 0.  0.
         23    2    1    2    0    0  0.38303701329E+02 -0.22005557498E+01 -0.31917388338E+02  0.10355637745E+03  0.90736914486E+02 0.  0.
        -11    1    3    3    0    0  0.26532881071E+02 -0.14927634446E+02  0.15347702414E+02  0.34093694688E+02  0.00000000000E+00 0.  1.
         11    1    3    3    0    0 -0.45211794679E+02  0.39413567097E+02  0.96686964116E+02  0.11378007154E+03  0.00000000000E+00 0. -1.
        -13    1    4    4    0    0  0.58162107458E+02 -0.11803373504E+02  0.60407225413E+01  0.59654343504E+02  0.00000000000E+00 0. -1.
         13    1    4    4    0    0 -0.19858406129E+02  0.96028177538E+01 -0.37958110879E+02  0.43902033942E+02  0.00000000000E+00 0.  1.
          2    1    1    2  501    0 -0.19624787722E+02 -0.22285376901E+02 -0.21850628242E+02  0.36867604632E+02  0.00000000000E+00 0. -1.
<scales pt_clust_5="13000.00000" pt_clust_6="13000.00000" pt_clust_7="13000.00000" pt_clust_8="13000.00000" pt_clust_9="29.69462"></scales>
<clustering>
<clus scale="   29.695">  2  9  1 -1</clus>
<clus scale="   90.737">  7  8 -1 -1</clus>
<clus scale="   91.468">  5  6 -1 -1</clus>
<clus scale="   95.631">  2  7  1 -1</clus>
<clus scale="   29.695">  2  5  1 -1</clus>
</clustering>
</event>
<event>
 9    1  0.1610296E-005  0.1217654E+03  0.7546771E-02  0.1240287E+00
          2   -1    0    0  502    0 -0.00000000000E+00  0.00000000000E+00  0.19275028063E+03  0.19275028063E+03  0.00000000000E+00 0. -1.
         21   -1    0    0  501  502  0.00000000000E+00 -0.00000000000E+00 -0.23154744869E+03  0.23154744869E+03  0.00000000000E+00 0. -1.
         23    2    1    2    0    0 -0.92523521625E+02  0.40674769211E+02  0.12071851324E+03  0.18249513432E+03  0.92284753383E+02 0.  0.
         23    2    1    2    0    0  0.20883866722E+02 -0.80593596895E+01 -0.51755154990E+02  0.10835471707E+03  0.92525993512E+02 0.  0.
        -13    1    4    4    0    0  0.48667291406E+02 -0.23496899353E+02 -0.85454586565E+01  0.54714115141E+02  0.00000000000E+00 0.  1.
         13    1    4    4    0    0 -0.27783424684E+02  0.15437539664E+02 -0.43209696333E+02  0.53640601929E+02  0.00000000000E+00 0. -1.
        -13    1    3    3    0    0 -0.57612775219E+02 -0.21493752558E+02  0.78196715467E+02  0.99478337226E+02  0.00000000000E+00 0. -1.
         13    1    3    3    0    0 -0.34910746406E+02  0.62168521769E+02  0.42521797770E+02  0.83016797091E+02  0.00000000000E+00 0.  1.
          2    1    1    2  501    0  0.71639654903E+02 -0.32615409522E+02 -0.10776052631E+03  0.13344787793E+03  0.00000000000E+00 0. -1.
<scales pt_clust_5="13000.00000" pt_clust_6="13000.00000" pt_clust_7="13000.00000" pt_clust_8="13000.00000" pt_clust_9="78.71471"></scales>
<clustering>
<clus scale="   78.715">  2  9  1 -1</clus>
<clus scale="   92.285">  7  8 -1 -1</clus>
<clus scale="   92.526">  5  6 -1 -1</clus>
<clus scale="  121.582">  1  7  2 -1</clus>
<clus scale="   78.715">  2  5  1 -1</clus>
</clustering>
</event>
<event>
 9    1  0.1610296E-005  0.1138733E+03  0.7546771E-02  0.1253601E+00
          3   -1    0    0  502    0 -0.00000000000E+00  0.00000000000E+00  0.41889292948E+02  0.41889292948E+02  0.00000000000E+00 0. -1.
         21   -1    0    0  501  502  0.00000000000E+00 -0.00000000000E+00 -0.47884239598E+03  0.47884239598E+03  0.00000000000E+00 0. -1.
         23    2    1    2    0    0 -0.74150782768E+02 -0.36694589108E+01 -0.10118246102E+03  0.15483063578E+03  0.90679831523E+02 0.  0.
         23    2    1    2    0    0  0.58945365939E+02 -0.21272525358E+02 -0.21400910340E+03  0.24068452242E+03  0.90565260980E+02 0.  0.
        -11    1    4    4    0    0  0.72848568193E+02  0.11921282286E+02 -0.15235298033E+03  0.16929400897E+03  0.00000000000E+00 0.  1.
         11    1    4    4    0    0 -0.13903202255E+02 -0.33193807644E+02 -0.61656123072E+02  0.71390513453E+02  0.00000000000E+00 0. -1.
        -11    1    3    3    0    0 -0.10776964063E+02 -0.41635178337E+02 -0.42744450771E+02  0.60635955515E+02  0.00000000000E+00 0. -1.
         11    1    3    3    0    0 -0.63373818706E+02  0.37965719426E+02 -0.58438010248E+02  0.94194680267E+02  0.00000000000E+00 0.  1.
          3    1    1    2  501    0  0.15205416830E+02  0.24941984269E+02 -0.12176153861E+03  0.12521653072E+03  0.00000000000E+00 0. -1.
<scales pt_clust_5="13000.00000" pt_clust_6="13000.00000" pt_clust_7="13000.00000" pt_clust_8="13000.00000" pt_clust_9="29.21142"></scales>
<clustering>
<clus scale="   29.211">  2  9  1 -1</clus>
<clus scale="   90.565">  5  6 -1 -1</clus>
<clus scale="   90.680">  7  8 -1 -1</clus>
<clus scale="  113.782">  2  5  1 -1</clus>
<clus scale="   29.211">  2  5  1 -1</clus>
</clustering>
</event>
<event>
 9    1  0.1610296E-005  0.1105992E+03  0.7546771E-02  0.1262568E+00
         21   -1    0    0  501  502  0.00000000000E+00  0.00000000000E+00  0.10509100712E+03  0.10509100712E+03  0.00000000000E+00 0.  1.
          1   -1    0    0  502    0 -0.00000000000E+00 -0.00000000000E+00 -0.19897520216E+03  0.19897520216E+03  0.00000000000E+00 0. -1.
         23    2    1    2    0    0  0.18341933961E+02 -0.69507577004E+02 -0.10629955056E+03  0.16048076782E+03  0.96367798503E+02 0.  0.
         23    2    1    2    0    0 -0.65075023205E+01  0.26482777363E+02 -0.10404565774E+02  0.93466223943E+02  0.88791863061E+02 0.  0.
        -11    1    4    4    0    0  0.10826952307E+02  0.55336978982E+02  0.46798487454E+01  0.56580077089E+02  0.00000000000E+00 0. -1.
         11    1    4    4    0    0 -0.17334454627E+02 -0.28854201619E+02 -0.15084414520E+02  0.36886146854E+02  0.00000000000E+00 0.  1.
        -11    1    3    3    0    0 -0.99127177478E+01  0.20169958535E+02 -0.38436775298E+02  0.44524991811E+02  0.00000000000E+00 0. -1.
         11    1    3    3    0    0  0.28254651709E+02 -0.89677535539E+02 -0.67862775264E+02  0.11595577601E+03  0.00000000000E+00 0.  1.
          1    1    1    2  501    0 -0.11834431641E+02  0.43024799641E+02  0.22819921298E+02  0.50119217517E+02  0.00000000000E+00 0. -1.
<scales pt_clust_5="13000.00000" pt_clust_6="13000.00000" pt_clust_7="13000.00000" pt_clust_8="13000.00000" pt_clust_9="44.62272"></scales>
<clustering>
<clus scale="   44.623">  1  9  2 -1</clus>
<clus scale="   88.792">  5  6 -1 -1</clus>
<clus scale="   96.368">  7  8 -1 -1</clus>
<clus scale="  104.065">  1  5  2 -1</clus>
<clus scale="   44.623">  1  5  2 -1</clus>
</clustering>
</event>
<event>
 9    1  0.1610296E-005  0.1036705E+03  0.7546771E-02  0.1273247E+00
         21   -1    0    0  501  502  0.00000000000E+00  0.00000000000E+00  0.88486380237E+02  0.88486380237E+02  0.00000000000E+00 0.  1.
          1   -1    0    0  502    0 -0.00000000000E+00 -0.00000000000E+00 -0.32131520168E+03  0.32131520168E+03  0.00000000000E+00 0. -1.
         23    2    1    2    0    0 -0.36677170313E+02 -0.22400576264E+02 -0.23555254820E+03  0.25608085144E+03  0.90804178712E+02 0.  0.
         23    2    1    2    0    0  0.62655159965E+02  0.43604829669E+02 -0.39584671286E+01  0.11952821632E+03  0.91892735261E+02 0.  0.
        -11    1    4    4    0    0  0.64768756180E+02  0.91464297148E+01  0.29224835885E+02  0.71643143330E+02  0.00000000000E+00 0.  1.
         11    1    4    4    0    0 -0.21135962151E+01  0.34458399954E+02 -0.33183303013E+02  0.47885072990E+02  0.00000000000E+00 0. -1.
        -13    1    3    3    0    0 -0.60245639947E+02 -0.60052508570E+01 -0.20667268277E+03  0.21535830138E+03  0.00000000000E+00 0. -1.
         13    1    3    3    0    0  0.23568469634E+02 -0.16395325407E+02 -0.28879865433E+02  0.40722550062E+02  0.00000000000E+00 0.  1.
          1    1    1    2  501    0 -0.25977989652E+02 -0.21204253404E+02  0.66821938917E+01  0.34192514152E+02  0.00000000000E+00 0. -1.
<scales pt_clust_5="13000.00000" pt_clust_6="13000.00000" pt_clust_7="13000.00000" pt_clust_8="13000.00000" pt_clust_9="33.53321"></scales>
<clustering>
<clus scale="   33.533">  1  9  2 -1</clus>
<clus scale="   90.804">  7  8 -1 -1</clus>
<clus scale="   91.893">  5  6 -1 -1</clus>
<clus scale="  102.707">  2  7  1 -1</clus>
<clus scale="   33.533">  1  5  2 -1</clus>
</clustering>
</event>
<event>
 9    1  0.1610296E-005  0.1033060E+03  0.7546771E-02  0.1275063E+00
          1   -1    0    0  502    0 -0.00000000000E+00  0.00000000000E+00  0.28918344500E+03  0.28918344500E+03  0.00000000000E+00 0. -1.
         21   -1    0    0  501  502  0.00000000000E+00 -0.00000000000E+00 -0.89778213694E+02  0.89778213694E+02  0.00000000000E+00 0. -1.
         23    2    1    2    0    0  0.37640462751E+02  0.23525669528E+02  0.20213345122E+03  0.22671064347E+03  0.92571713809E+02 0.  0.
         23    2    1    2    0    0 -0.30451944727E+02 -0.43990272804E+02  0.34185582544E+02  0.10943625620E+03  0.89135711581E+02 0.  0.
        -11    1    3    3    0    0  0.42165107112E+02 -0.10069828678E+02  0.18241193688E+03  0.18749243298E+03  0.00000000000E+00 0.  1.
         11    1    3    3    0    0 -0.45246443615E+01  0.33595498206E+02  0.19721514337E+02  0.39218210490E+02  0.00000000000E+00 0. -1.
        -13    1    4    4    0    0 -0.21676107561E+02  0.25738652968E+02  0.98286003284E+01  0.35056144683E+02  0.00000000000E+00 0.  1.
         13    1    4    4    0    0 -0.87758371661E+01 -0.69728925772E+02  0.24356982215E+02  0.74380111521E+02  0.00000000000E+00 0. -1.
          1    1    1    2  501    0 -0.71885180235E+01  0.20464603276E+02 -0.36913802454E+02  0.42814759023E+02  0.00000000000E+00 0. -1.
<scales pt_clust_5="13000.00000" pt_clust_6="13000.00000" pt_clust_7="13000.00000" pt_clust_8="13000.00000" pt_clust_9="21.69043"></scales>
<clustering>
<clus scale="   21.690">  2  9  1 -1</clus>
<clus scale="   89.136">  7  8 -1 -1</clus>
<clus scale="   92.572">  5  6 -1 -1</clus>
<clus scale="  100.239">  2  7  1 -1</clus>
<clus scale="   21.690">  2  5  1 -1</clus>
</clustering>
</event>
<event>
 9    1  0.1610296E-005  0.9082818E+02  0.7546771E-02  0.1301476E+00
         21   -1    0    0  501  502  0.00000000000E+00  0.00000000000E+00  0.18714013435E+03  0.18714013435E+03  0.00000000000E+00 0.  1.
          3   -1    0    0  502    0 -0.00000000000E+00 -0.00000000000E+00 -0.68084609108E+02  0.68084609108E+02  0.00000000000E+00 0. -1.
         23    2    1    2    0    0  0.10276732005E+02 -0.52101255026E+01  0.72671691604E+01  0.91734971770E+02  0.90717896082E+02 0.  0.
         23    2    1    2    0    0  0.17202614977E+02  0.24260882584E+01  0.80608718548E+02  0.12183601831E+03  0.89690768670E+02 0.  0.
        -13    1    3    3    0    0  0.43864339580E+02 -0.12365051299E+02  0.26151384598E+02  0.52543978692E+02  0.00000000000E+00 0.  1.
         13    1    3    3    0    0 -0.33587607575E+02  0.71549257961E+01 -0.18884215437E+02  0.39190993078E+02  0.00000000000E+00 0. -1.
        -13    1    4    4    0    0 -0.31707721470E+02 -0.18457842554E+02  0.22381154086E+02  0.42976593755E+02  0.00000000000E+00 0. -1.
         13    1    4    4    0    0  0.48910336447E+02  0.20883930812E+02  0.58227564461E+02  0.78859424552E+02  0.00000000000E+00 0.  1.
          3    1    1    2  501    0 -0.27479346983E+02  0.27840372442E+01  0.31179637530E+02  0.41653753378E+02  0.00000000000E+00 0. -1.
<scales pt_clust_5="13000.00000" pt_clust_6="13000.00000" pt_clust_7="13000.00000" pt_clust_8="13000.00000" pt_clust_9="27.62002"></scales>
<clustering>
<clus scale="   27.620">  1  9  2 -1</clus>
<clus scale="   89.691">  7  8 -1 -1</clus>
<clus scale="   89.802">  1  7  2 -1</clus>
<clus scale="   90.718">  5  6 -1 -1</clus>
<clus scale="   27.620">  1  5  2 -1</clus>
</clustering>
</event>
<event>
 9    1  0.1610296E-005  0.1058186E+03  0.7546771E-02  0.1269346E+00
         21   -1    0    0  501  502  0.00000000000E+00  0.00000000000E+00  0.18405419821E+03  0.18405419821E+03  0.00000000000E+00 0.  1.
          1   -1    0    0  502    0 -0.00000000000E+00 -0.00000000000E+00 -0.25836213659E+03  0.25836213659E+03  0.00000000000E+00 0. -1.
         23    2    1    2    0    0  0.11227911399E+02  0.46450898517E+02 -0.13109356226E+03  0.16727485521E+03  0.92258350033E+02 0.  0.
         23    2    1    2    0    0  0.38075249384E+02 -0.60039124834E+02 -0.72646021070E+02  0.13597254530E+03  0.90314271141E+02 0.  0.
        -11    1    3    3    0    0  0.34646576687E+02  0.87970214938E+01 -0.82673540906E+01  0.36689535388E+02  0.00000000000E+00 0.  1.
         11    1    3    3    0    0 -0.23418665289E+02  0.37653877024E+02 -0.12282620817E+03  0.13058531982E+03  0.00000000000E+00 0. -1.
        -13    1    4    4    0    0  0.21432383148E+02  0.22025388728E+02 -0.25104777897E+02  0.39682674674E+02  0.00000000000E+00 0. -1.
         13    1    4    4    0    0  0.16642866236E+02 -0.82064513562E+02 -0.47541243173E+02  0.96289870626E+02  0.00000000000E+00 0.  1.
          1    1    1    2  501    0 -0.49303160782E+02  0.13588226316E+02  0.12943164496E+03  0.13916893430E+03  0.00000000000E+00 0. -1.
<scales pt_clust_5="13000.00000" pt_clust_6="13000.00000" pt_clust_7="13000.00000" pt_clust_8="13000.00000" pt_clust_9="51.14139"></scales>
<clustering>
<clus scale="   51.141">  1  9  2 -1</clus>
<clus scale="   90.314">  7  8 -1 -1</clus>
<clus scale="   92.258">  5  6 -1 -1</clus>
<clus scale="  104.128">  1  7  2 -1</clus>
<clus scale="   51.141">  1  5  2 -1</clus>
</clustering>
</event>
<event>
 9    1  0.1610296E-005  0.9881647E+02  0.7546771E-02  0.1290004E+00
         21   -1    0    0  501  502  0.00000000000E+00  0.00000000000E+00  0.39698892503E+03  0.39698892503E+03  0.00000000000E+00 0. -1.
          2   -1    0    0  502    0 -0.00000000000E+00 -0.00000000000E+00 -0.59309794602E+02  0.59309794602E+02  0.00000000000E+00 0. -1.
         23    2    1    2    0    0  0.15067904337E+02  0.19891057100E+01  0.29855373316E+02  0.90780867675E+02  0.84373125682E+02 0.  0.
         23    2    1    2    0    0 -0.12753185264E+02  0.32225917291E+02  0.68666435424E+02  0.12391435397E+03  0.97152119307E+02 0.  0.
        -11    1    3    3    0    0 -0.10217988132E+02 -0.37086032471E+02  0.19378790264E+02  0.43073409408E+02  0.00000000000E+00 0.  1.
         11    1    3    3    0    0  0.25285892470E+02  0.39075138181E+02  0.10476583052E+02  0.47707458267E+02  0.00000000000E+00 0. -1.
        -13    1    4    4    0    0 -0.25281123927E+02 -0.29902541091E+02  0.32872524906E+02  0.51126314990E+02  0.00000000000E+00 0.  1.
         13    1    4    4    0    0  0.12527938663E+02  0.62128458382E+02  0.35793910518E+02  0.72788038978E+02  0.00000000000E+00 0. -1.
          2    1    1    2  501    0 -0.23147190734E+01 -0.34215023001E+02  0.23915732168E+03  0.24160349798E+03  0.00000000000E+00 0. -1.
<scales pt_clust_5="13000.00000" pt_clust_6="13000.00000" pt_clust_7="13000.00000" pt_clust_8="13000.00000" pt_clust_9="34.29323"></scales>
<clustering>
<clus scale="   34.293">  1  9  2 -1</clus>
<clus scale="   84.373">  5  6 -1 -1</clus>
<clus scale="   86.284">  2  5  1 -1</clus>
<clus scale="   97.152">  7  8 -1 -1</clus>
<clus scale="   34.293">  1  5  2 -1</clus>
</clustering>
</event>
<event>
 9    1  0.1610296E-005  0.1728384E+03  0.7546771E-02  0.1175015E+00
         -1   -1    0    0    0  501 -0.00000000000E+00  0.00000000000E+00  0.14967320086E+03  0.14967320086E+03  0.00000000000E+00 0.  1.
         21   -1    0    0  501  502  0.00000000000E+00 -0.00000000000E+00 -0.43565876089E+03  0.43565876089E+03  0.00000000000E+00 0. -1.
         23    2    1    2    0    0  0.75583917702E+01  0.16625684875E+03  0.41063291251E+02  0.19441054812E+03  0.91710404484E+02 0.  0.
         23    2    1    2    0    0  0.20319289750E+02 -0.85191670837E+02 -0.22113801136E+03  0.25466491211E+03  0.91003862960E+02 0.  0.
        -11    1    3    3    0    0 -0.38141102987E+02  0.11562286818E+03  0.23863028300E+02  0.12406786652E+03  0.00000000000E+00 0.  1.
         11    1    3    3    0    0  0.45699494758E+02  0.50633980569E+02  0.17200262950E+02  0.70342681602E+02  0.00000000000E+00 0. -1.
        -13    1    4    4    0    0  0.14941997446E+02 -0.59346526426E+02 -0.21987842017E+03  0.22823626606E+03  0.00000000000E+00 0. -1.
         13    1    4    4    0    0  0.53772923039E+01 -0.25845144411E+02 -0.12595911918E+01  0.26428646052E+02  0.00000000000E+00 0.  1.
         -1    1    1    2    0  502 -0.27877681520E+02 -0.81065177909E+02 -0.10591083991E+03  0.13625650152E+03  0.00000000000E+00 0.  1.
<scales pt_clust_5="13000.00000" pt_clust_6="13000.00000" pt_clust_7="13000.00000" pt_clust_8="13000.00000" pt_clust_9="85.72472"></scales>
<clustering>
<clus scale="   85.725">  2  9  1 -1</clus>
<clus scale="   91.004">  7  8 -1 -1</clus>
<clus scale="   91.710">  5  6 -1 -1</clus>
<clus scale="  172.465">  2  7  1 -1</clus>
<clus scale="   85.725">  2  5  1 -1</clus>
</clustering>
</event>
<event>
 9    1  0.1610296E-005  0.1017762E+03  0.7546771E-02  0.1276713E+00
         21   -1    0    0  501  502  0.00000000000E+00  0.00000000000E+00  0.31975848363E+02  0.31975848363E+02  0.00000000000E+00 0. -1.
          1   -1    0    0  502    0 -0.00000000000E+00 -0.00000000000E+00 -0.61448889533E+03  0.61448889533E+03  0.00000000000E+00 0. -1.
         23    2    1    2    0    0 -0.12598240552E+02 -0.28461927161E+02 -0.24293996014E+03  0.26065263019E+03  0.89169346926E+02 0.  0.
         23    2    1    2    0    0 -0.16059984557E+02  0.78223779540E+02 -0.27221798265E+03  0.29730083808E+03  0.88928485053E+02 0.  0.
        -13    1    4    4    0    0  0.19777526919E+02  0.67469968812E+02 -0.23177520109E+03  0.24220464716E+03  0.00000000000E+00 0. -1.
         13    1    4    4    0    0 -0.35837511475E+02  0.10753810728E+02 -0.40442781558E+02  0.55096190922E+02  0.00000000000E+00 0.  1.
        -13    1    3    3    0    0  0.43775893086E+01 -0.58336716536E+02 -0.17497407524E+03  0.18449461453E+03  0.00000000000E+00 0. -1.
         13    1    3    3    0    0 -0.16975829860E+02  0.29874789375E+02 -0.67965884899E+02  0.76158015663E+02  0.00000000000E+00 0.  1.
          1    1    1    2  501    0  0.28658225108E+02 -0.49761852379E+02 -0.67355104182E+02  0.88511275428E+02  0.00000000000E+00 0. -1.
<scales pt_clust_5="13000.00000" pt_clust_6="13000.00000" pt_clust_7="13000.00000" pt_clust_8="13000.00000" pt_clust_9="57.42417"></scales>
<clustering>
<clus scale="   57.424">  1  9  2 -1</clus>
<clus scale="   88.928">  5  6 -1 -1</clus>
<clus scale="   89.169">  7  8 -1 -1</clus>
<clus scale="  101.565">  1  5  2 -1</clus>
<clus scale="   57.424">  1  5  2 -1</clus>
</clustering>
</event>
<event>
 9    1  0.1610296E-005  0.1677490E+03  0.7546771E-02  0.1201842E+00
         21   -1    0    0  501  502  0.00000000000E+00  0.00000000000E+00  0.15395527203E+04  0.15395527203E+04  0.00000000000E+00 0.  1.
          3   -1    0    0  502    0 -0.00000000000E+00 -0.00000000000E+00 -0.54613303776E+02  0.54613303776E+02  0.00000000000E+00 0. -1.
         23    2    1    2    0    0  0.45463144364E+02 -0.42486473011E+01  0.48120377567E+02  0.11469347766E+03  0.93563211685E+02 0.  0.
         23    2    1    2    0    0 -0.16889078686E+03 -0.43483165428E+02  0.57257654172E+03  0.60515692669E+03  0.89197120046E+02 0.  0.
        -13    1    4    4    0    0 -0.13880588866E+03  0.26600813466E+01  0.44614364612E+03  0.46724544270E+03  0.00000000000E+00 0.  1.
         13    1    4    4    0    0 -0.30084898206E+02 -0.46143246775E+02  0.12643289561E+03  0.13791148398E+03  0.00000000000E+00 0. -1.
        -13    1    3    3    0    0 -0.19113315049E+02  0.26380835477E+02  0.16901411748E+02  0.36700476996E+02  0.00000000000E+00 0.  1.
         13    1    3    3    0    0  0.64576459413E+02 -0.30629482778E+02  0.31218965819E+02  0.77993000663E+02  0.00000000000E+00 0. -1.
          3    1    1    2  501    0  0.12342764250E+03  0.47731812729E+02  0.86424249725E+03  0.87431561975E+03  0.00000000000E+00 0. -1.
<scales pt_clust_5="13000.00000" pt_clust_6="13000.00000" pt_clust_7="13000.00000" pt_clust_8="13000.00000" pt_clust_9="142.06902"></scales>
<clustering>
<clus scale="   89.197">  5  6 -1 -1</clus>
<clus scale="   93.563">  7  8 -1 -1</clus>
<clus scale="  104.111">  2  7  1 -1</clus>
<clus scale="  142.069">  1  9  2 -1</clus>
<clus scale="  142.069">  1  5  2 -1</clus>
</clustering>
</event>
<event>
 9    1  0.1610296E-005  0.1119091E+03  0.7546771E-02  0.1257252E+00
         21   -1    0    0  501  502  0.00000000000E+00  0.00000000000E+00  0.41987561789E+02  0.41987561789E+02  0.00000000000E+00 0.  1.
          2   -1    0    0  502    0 -0.00000000000E+00 -0.00000000000E+00 -0.41846629537E+03  0.41846629537E+03  0.00000000000E+00 0. -1.
         23    2    1    2    0    0  0.48824042372E+02  0.34128630423E+02 -0.21749999224E+03  0.24370262216E+03  0.92391400565E+02 0.  0.
         23    2    1    2    0    0 -0.38766678684E+02 -0.62002392811E+02 -0.12179188325E+03  0.16920168601E+03  0.91917330421E+02 0.  0.
        -11    1    3    3    0    0  0.42850106335E+02 -0.33753607767E+01 -0.30052813105E+02  0.52447080461E+02  0.00000000000E+00 0.  1.
         11    1    3    3    0    0  0.59739360362E+01  0.37503991199E+02 -0.18744717913E+03  0.19125554170E+03  0.00000000000E+00 0. -1.
        -13    1    4    4    0    0 -0.54164369597E+02 -0.38952252993E+01 -0.38865020958E+02  0.66779050368E+02  0.00000000000E+00 0. -1.
         13    1    4    4    0    0  0.15397690913E+02 -0.58107167512E+02 -0.82926862297E+02  0.10242263564E+03  0.00000000000E+00 0.  1.
          2    1    1    2  501    0 -0.10057363688E+02  0.27873762388E+02 -0.37186858086E+02  0.47549548981E+02  0.00000000000E+00 0. -1.
<scales pt_clust_5="13000.00000" pt_clust_6="13000.00000" pt_clust_7="13000.00000" pt_clust_8="13000.00000" pt_clust_9="29.63270"></scales>
<clustering>
<clus scale="   29.633">  1  9  2 -1</clus>
<clus scale="   91.917">  7  8 -1 -1</clus>
<clus scale="   92.391">  5  6 -1 -1</clus>
<clus scale="  111.518">  1  7  2 -1</clus>
<clus scale="   29.633">  1  5  2 -1</clus>
</clustering>
</event>
<event>
 9    1  0.1610296E-005  0.3188909E+03  0.7546771E-02  0.1076201E+00
         21   -1    0    0  501  502  0.00000000000E+00  0.00000000000E+00  0.27066748528E+03  0.27066748528E+03  0.00000000000E+00 0.  1.
          2   -1    0    0  502    0 -0.00000000000E+00 -0.00000000000E+00 -0.56157602437E+03  0.56157602437E+03  0.00000000000E+00 0. -1.
         23    2    1    2    0    0 -0.17234422717E+03 -0.25104344098E+03 -0.24994395568E+03  0.40452829052E+03  0.91901115080E+02 0.  0.
         23    2    1    2    0    0  0.14054389632E+03  0.27416179433E+03 -0.11725255516E+03  0.34189229715E+03  0.90691261420E+02 0.  0.
        -11    1    4    4    0    0  0.51702681129E+02  0.49154474187E+02  0.36864553712E+01  0.71434722101E+02  0.00000000000E+00 0.  1.
         11    1    4    4    0    0  0.88841215187E+02  0.22500732014E+03 -0.12093901053E+03  0.27045757505E+03  0.00000000000E+00 0. -1.
        -13    1    3    3    0    0 -0.13380906171E+03 -0.11510002838E+03 -0.14711452205E+03  0.22977285333E+03  0.00000000000E+00 0.  1.
         13    1    3    3    0    0 -0.38535165454E+02 -0.13594341261E+03 -0.10282943363E+03  0.17475543719E+03  0.00000000000E+00 0. -1.
          2    1    1    2  501    0  0.31800330853E+02 -0.23118353344E+02  0.76287971746E+02  0.85822921978E+02  0.00000000000E+00 0. -1.
<scales pt_clust_5="13000.00000" pt_clust_6="13000.00000" pt_clust_7="13000.00000" pt_clust_8="13000.00000" pt_clust_9="39.31564"></scales>
<clustering>
<clus scale="   39.316">  1  9  2 -1</clus>
<clus scale="   90.691">  5  6 -1 -1</clus>
<clus scale="   91.901">  7  8 -1 -1</clus>
<clus scale="  318.544">  1  5  2 -1</clus>
<clus scale="   39.316">  1  5  2 -1</clus>
</clustering>
</event>
<event>
 9    1  0.1610296E-005  0.1953988E+03  0.7546771E-02  0.1156431E+00
         21   -1    0    0  501  502  0.00000000000E+00  0.00000000000E+00  0.21758254018E+03  0.21758254018E+03  0.00000000000E+00 0. -1.
          1   -1    0    0  502    0 -0.00000000000E+00 -0.00000000000E+00 -0.66993082878E+03  0.66993082878E+03  0.00000000000E+00 0. -1.
         23    2    1    2    0    0  0.11215772217E+03 -0.10506352571E+03 -0.50462683779E+03  0.53951597731E+03  0.11318809688E+03 0.  0.
         23    2    1    2    0    0 -0.17285889757E+03  0.13472823656E+03  0.10788946960E+03  0.26049195048E+03  0.90465586936E+02 0.  0.
        -11    1    4    4    0    0 -0.25244616793E+02 -0.97725355935E+01  0.28187093046E+02  0.39080754129E+02  0.00000000000E+00 0.  1.
         11    1    4    4    0    0 -0.14761428078E+03  0.14450077215E+03  0.79702376556E+02  0.22141119635E+03  0.00000000000E+00 0. -1.
        -13    1    3    3    0    0  0.72060529609E+01 -0.31987304148E+02 -0.20243156241E+02  0.38534402818E+02  0.00000000000E+00 0.  1.
         13    1    3    3    0    0  0.10495166921E+03 -0.73076221557E+02 -0.48438368155E+03  0.50098157449E+03  0.00000000000E+00 0. -1.
          1    1    1    2  501    0  0.60701175406E+02 -0.29664710850E+02 -0.55610920412E+02  0.87505441171E+02  0.00000000000E+00 0. -1.
<scales pt_clust_5="13000.00000" pt_clust_6="13000.00000" pt_clust_7="13000.00000" pt_clust_8="13000.00000" pt_clust_9="67.56206"></scales>
<clustering>
<clus scale="   67.562">  1  9  2 -1</clus>
<clus scale="   90.466">  5  6 -1 -1</clus>
<clus scale="  113.188">  7  8 -1 -1</clus>
<clus scale="  183.175">  1  5  2 -1</clus>
<clus scale="   67.562">  1  5  2 -1</clus>
</clustering>
</event>
<event>
 9    1  0.1610296E-005  0.1250101E+03  0.7546771E-02  0.1235717E+00
         21   -1    0    0  501  502  0.00000000000E+00  0.00000000000E+00  0.10885884693E+03  0.10885884693E+03  0.00000000000E+00 0.  1.
          1   -1    0    0  502    0 -0.00000000000E+00 -0.00000000000E+00 -0.31152769175E+03  0.31152769175E+03  0.00000000000E+00 0. -1.
         23    2    1    2    0    0 -0.21271003883E+02 -0.73096470428E+02 -0.17980848822E+03  0.21446019600E+03  0.88693481369E+02 0.  0.
         23    2    1    2    0    0  0.43916765802E+02  0.11724805403E+03 -0.13020677820E+02  0.15533966314E+03  0.91022438992E+02 0.  0.
        -11    1    4    4    0    0  0.17306544895E+02  0.92778700031E+02  0.30107084564E+02  0.99064828353E+02  0.00000000000E+00 0.  1.
         11    1    4    4    0    0  0.26610220907E+02  0.24469354003E+02 -0.43127762384E+02  0.56274834786E+02  0.00000000000E+00 0. -1.
        -13    1    3    3    0    0 -0.45767577110E+02 -0.76194310249E+02 -0.15905489209E+03  0.18220511169E+03  0.00000000000E+00 0. -1.
         13    1    3    3    0    0  0.24496573227E+02  0.30978398214E+01 -0.20753596131E+02  0.32255084310E+02  0.00000000000E+00 0.  1.
          1    1    1    2  501    0 -0.22645761918E+02 -0.44151583606E+02 -0.98396787819E+01  0.50586679535E+02  0.00000000000E+00 0. -1.
<scales pt_clust_5="13000.00000" pt_clust_6="13000.00000" pt_clust_7="13000.00000" pt_clust_8="13000.00000" pt_clust_9="49.62049"></scales>
<clustering>
<clus scale="   49.620">  1  9  2 -1</clus>
<clus scale="   88.693">  7  8 -1 -1</clus>
<clus scale="   91.022">  5  6 -1 -1</clus>
<clus scale="  123.325">  2  7  1 -1</clus>
<clus scale="   49.620">  1  5  2 -1</clus>
</clustering>
</event>
<event>
 9    1  0.1610296E-005  0.2551682E+03  0.7546771E-02  0.1110222E+00
          1   -1    0    0  502    0 -0.00000000000E+00  0.00000000000E+00  0.11357953458E+03  0.11357953458E+03  0.00000000000E+00 0. -1.
         21   -1    0    0  501  502  0.00000000000E+00 -0.00000000000E+00 -0.69993654985E+03  0.69993654985E+03  0.00000000000E+00 0.  1.
         23    2    1    2    0    0  0.24773559931E+03 -0.49934101650E+02 -0.17536673512E+03  0.32115894141E+03  0.92321352818E+02 0.  0.
         23    2    1    2    0    0 -0.21074303757E+03  0.39320306839E+02 -0.35918534239E+03  0.42782146421E+03  0.89768483564E+02 0.  0.
        -13    1    3    3    0    0  0.44410234804E+02 -0.40234157971E+02 -0.69332396474E+02  0.91640807634E+02  0.00000000000E+00 0.  1.
         13    1    3    3    0    0  0.20332536450E+03 -0.96999436787E+01 -0.10603433865E+03  0.22951813377E+03  0.00000000000E+00 0. -1.
        -13    1    4    4    0    0 -0.82361683337E+02  0.60391196228E+02 -0.14948705788E+03  0.18104398343E+03  0.00000000000E+00 0. -1.
         13    1    4    4    0    0 -0.12838135424E+03 -0.21070889389E+02 -0.20969828451E+03  0.24677748078E+03  0.00000000000E+00 0.  1.
          1    1    1    2  501    0 -0.36992561735E+02  0.10613794810E+02 -0.51804937759E+02  0.64535678815E+02  0.00000000000E+00 0. -1.
<scales pt_clust_5="13000.00000" pt_clust_6="13000.00000" pt_clust_7="13000.00000" pt_clust_8="13000.00000" pt_clust_9="38.48509"></scales>
<clustering>
<clus scale="   38.485">  2  9  1 -1</clus>
<clus scale="   89.768">  7  8 -1 -1</clus>
<clus scale="   92.321">  5  6 -1 -1</clus>
<clus scale="  254.256">  2  7  1 -1</clus>
<clus scale="   38.485">  2  5  1 -1</clus>
</clustering>
</event>
<event>
 9    1  0.1610296E-005  0.9143009E+02  0.7546771E-02  0.1299513E+00
         -1   -1    0    0    0  501 -0.00000000000E+00  0.00000000000E+00  0.34080048970E+03  0.34080048970E+03  0.00000000000E+00 0.  1.
         21   -1    0    0  501  502  0.00000000000E+00 -0.00000000000E+00 -0.34433118787E+02  0.34433118787E+02  0.00000000000E+00 0. -1.
         23    2    1    2    0    0 -0.10551482699E+02 -0.35323382271E+01  0.20232749954E+03  0.22215730209E+03  0.91069416383E+02 0.  0.
         23    2    1    2    0    0 -0.31590309284E+01 -0.11324739388E+02  0.82799462727E+02  0.12375283630E+03  0.91218332946E+02 0.  0.
        -13    1    4    4    0    0 -0.24743056153E+02  0.15249051226E+02  0.84617118484E+02  0.89469598924E+02  0.00000000000E+00 0. -1.
         13    1    4    4    0    0  0.21584025224E+02 -0.26573790614E+02 -0.18176557569E+01  0.34283237375E+02  0.00000000000E+00 0.  1.
        -13    1    3    3    0    0  0.78940913542E+00  0.40404024388E+02  0.56724969668E+02  0.69647904041E+02  0.00000000000E+00 0. -1.
         13    1    3    3    0    0 -0.11340891834E+02 -0.43936362615E+02  0.14560252987E+03  0.15250939805E+03  0.00000000000E+00 0.  1.
         -1    1    1    2    0  502  0.13710513627E+02  0.14857077615E+02  0.21240408640E+02  0.29323470095E+02  0.00000000000E+00 0.  1.
<scales pt_clust_5="13000.00000" pt_clust_6="13000.00000" pt_clust_7="13000.00000" pt_clust_8="13000.00000" pt_clust_9="20.21660"></scales>
<clustering>
<clus scale="   20.217">  2  9  1 -1</clus>
<clus scale="   91.069">  7  8 -1 -1</clus>
<clus scale="   91.218">  5  6 -1 -1</clus>
<clus scale="   91.282">  1  7  2 -1</clus>
<clus scale="   20.217">  2  5  1 -1</clus>
</clustering>
</event>
<event>
 9    1  0.1610296E-005  0.1477631E+03  0.7546771E-02  0.1204804E+00
         21   -1    0    0  501  502  0.00000000000E+00  0.00000000000E+00  0.26454290009E+02  0.26454290009E+02  0.00000000000E+00 0. -1.
          1   -1    0    0  502    0 -0.00000000000E+00 -0.00000000000E+00 -0.12499999550E+04  0.12499999550E+04  0.00000000000E+00 0. -1.
         23    2    1    2    0    0 -0.94055797298E+02 -0.67395736006E+02 -0.69305535573E+03  0.70883941043E+03  0.93482112884E+02 0.  0.
         23    2    1    2    0    0  0.70254202914E+02  0.91858433693E+02 -0.50479109736E+03  0.52489026360E+03  0.85569340189E+02 0.  0.
        -11    1    3    3    0    0 -0.30866970453E+02 -0.77352966154E+02 -0.34127823243E+03  0.35129344311E+03  0.00000000000E+00 0.  1.
         11    1    3    3    0    0 -0.63188826845E+02  0.99572301476E+01 -0.35177712330E+03  0.35754596732E+03  0.00000000000E+00 0. -1.
        -13    1    4    4    0    0 -0.17548698796E+02  0.28238556325E+02 -0.16133626174E+03  0.16472632529E+03  0.00000000000E+00 0.  1.
         13    1    4    4    0    0  0.87802901710E+02  0.63619877368E+02 -0.34345483562E+03  0.36016393831E+03  0.00000000000E+00 0. -1.
          1    1    1    2  501    0  0.23801594384E+02 -0.24462697687E+02 -0.25699211898E+02  0.42724570981E+02  0.00000000000E+00 0. -1.
<scales pt_clust_5="13000.00000" pt_clust_6="13000.00000" pt_clust_7="13000.00000" pt_clust_8="13000.00000" pt_clust_9="34.13121"></scales>
<clustering>
<clus scale="   34.131">  1  9  2 -1</clus>
<clus scale="   85.569">  7  8 -1 -1</clus>
<clus scale="   93.482">  5  6 -1 -1</clus>
<clus scale="  142.889">  1  7  2 -1</clus>
<clus scale="   34.131">  1  5  2 -1</clus>
</clustering>
</event>
<event>
 9    1  0.1610296E-005  0.1737690E+03  0.7546771E-02  0.1176051E+00
         -3   -1    0    0    0  501 -0.00000000000E+00  0.00000000000E+00  0.15397578047E+03  0.15397578047E+03  0.00000000000E+00 0.  1.
         21   -1    0    0  501  502  0.00000000000E+00 -0.00000000000E+00 -0.27081339879E+03  0.27081339879E+03  0.00000000000E+00 0. -1.
         23    2    1    2    0    0 -0.46937585523E+01  0.13209514976E+03  0.14353258806E+02  0.16149195116E+03  0.91665011272E+02 0.  0.
         23    2    1    2    0    0 -0.82334165065E+01 -0.14871865456E+03 -0.64808461393E+02  0.19365472754E+03  0.10543713516E+03 0.  0.
        -11    1    3    3    0    0 -0.43418677188E+02  0.71974765798E+02  0.28180032162E+02  0.88654738470E+02  0.00000000000E+00 0. -1.
         11    1    3    3    0    0  0.38724918635E+02  0.60120383957E+02 -0.13826773356E+02  0.72837212686E+02  0.00000000000E+00 0.  1.
        -13    1    4    4    0    0 -0.31353981080E+02 -0.76129121611E+01 -0.34982104131E+02  0.47589664535E+02  0.00000000000E+00 0.  1.
         13    1    4    4    0    0  0.23120564574E+02 -0.14110574240E+03 -0.29826357262E+02  0.14606506301E+03  0.00000000000E+00 0. -1.
         -3    1    1    2    0  502  0.12927175059E+02  0.16623504802E+02 -0.66382415727E+02  0.69642500563E+02  0.00000000000E+00 0.  1.
<scales pt_clust_5="13000.00000" pt_clust_6="13000.00000" pt_clust_7="13000.00000" pt_clust_8="13000.00000" pt_clust_9="21.05832"></scales>
<clustering>
<clus scale="   21.058">  2  9  1 -1</clus>
<clus scale="   91.665">  5  6 -1 -1</clus>
<clus scale="  105.437">  7  8 -1 -1</clus>
<clus scale="  165.774">  1  5  2 -1</clus>
<clus scale="   21.058">  2  5  1 -1</clus>
</clustering>
</event>
<event>
 9    1  0.1610296E-005  0.1227953E+03  0.7546771E-02  0.1245553E+00
         -2   -1    0    0    0  501 -0.00000000000E+00  0.00000000000E+00  0.78225338369E+03  0.78225338369E+03  0.00000000000E+00 0.  1.
         21   -1    0    0  501  502  0.00000000000E+00 -0.00000000000E+00 -0.31798325264E+02  0.31798325264E+02  0.00000000000E+00 0. -1.
         23    2    1    2    0    0  0.11498584631E+01 -0.64698207265E+02  0.45194669113E+03  0.46540378516E+03  0.90319939201E+02 0.  0.
         23    2    1    2    0    0 -0.42928661990E+02  0.28189229218E+02  0.16707176494E+03  0.20598063834E+03  0.10898415511E+03 0.  0.
        -13    1    4    4    0    0 -0.38255054277E+02  0.60376869449E+02  0.15604721889E+03  0.17163784567E+03  0.00000000000E+00 0.  1.
         13    1    4    4    0    0 -0.46736077130E+01 -0.32187640230E+02  0.11024546053E+02  0.34342792670E+02  0.00000000000E+00 0. -1.
        -13    1    3    3    0    0  0.39142527880E+02 -0.61128555570E+02  0.31357796829E+03  0.32186950771E+03  0.00000000000E+00 0. -1.
         13    1    3    3    0    0 -0.37992669417E+02 -0.35696516954E+01  0.13836872284E+03  0.14353427745E+03  0.00000000000E+00 0.  1.
         -2    1    1    2    0  502  0.41778803526E+02  0.36508978047E+02  0.13143660235E+03  0.14266728546E+03  0.00000000000E+00 0.  1.
<scales pt_clust_5="13000.00000" pt_clust_6="13000.00000" pt_clust_7="13000.00000" pt_clust_8="13000.00000" pt_clust_9="55.48310"></scales>
<clustering>
<clus scale="   55.483">  2  9  1 -1</clus>
<clus scale="   90.320">  7  8 -1 -1</clus>
<clus scale="  106.578">  1  7  2 -1</clus>
<clus scale="  108.984">  5  6 -1 -1</clus>
<clus scale="   55.483">  2  5  1 -1</clus>
</clustering>
</event>
<event>
 9    1  0.1610296E-005  0.1045075E+03  0.7546771E-02  0.1276731E+00
         21   -1    0    0  501  502  0.00000000000E+00  0.00000000000E+00  0.10684425457E+03  0.10684425457E+03  0.00000000000E+00 0.  1.
          2   -1    0    0  502    0 -0.00000000000E+00 -0.00000000000E+00 -0.22463551481E+03  0.22463551481E+03  0.00000000000E+00 0. -1.
         23    2    1    2    0    0 -0.41009332838E+02 -0.89671952914E+01 -0.16930313884E+03  0.19885966225E+03  0.95495740615E+02 0.  0.
         23    2    1    2    0    0  0.47974105161E+02 -0.13706542761E+02  0.48275476314E+02  0.10868100209E+03  0.83616114005E+02 0.  0.
        -11    1    4    4    0    0  0.66201209007E+02  0.56772726229E+01  0.48178809702E+02  0.82073316021E+02  0.00000000000E+00 0.  1.
         11    1    4    4    0    0 -0.18227103846E+02 -0.19383815384E+02  0.96666612078E-01  0.26607686068E+02  0.00000000000E+00 0. -1.
        -11    1    3    3    0    0  0.12028500608E+02  0.33419897660E+02 -0.71006623367E+02  0.79394678338E+02  0.00000000000E+00 0.  1.
         11    1    3    3    0    0 -0.53037833446E+02 -0.42387092951E+02 -0.98296515476E+02  0.11946498391E+03  0.00000000000E+00 0. -1.
          2    1    1    2  501    0 -0.69647723235E+01  0.22673738053E+02  0.32364022876E+01  0.23939105049E+02  0.00000000000E+00 0. -1.
<scales pt_clust_5="13000.00000" pt_clust_6="13000.00000" pt_clust_7="13000.00000" pt_clust_8="13000.00000" pt_clust_9="23.71933"></scales>
<clustering>
<clus scale="   23.719">  1  9  2 -1</clus>
<clus scale="   83.616">  5  6 -1 -1</clus>
<clus scale="   93.777">  1  5  2 -1</clus>
<clus scale="   95.496">  7  8 -1 -1</clus>
<clus scale="   23.719">  1  5  2 -1</clus>
</clustering>
</event>
<event>
 9    1  0.1610296E-005  0.9732415E+02  0.7546771E-02  0.1302848E+00
         21   -1    0    0  501  502  0.00000000000E+00  0.00000000000E+00  0.20822794334E+03  0.20822794334E+03  0.00000000000E+00 0. -1.
          1   -1    0    0  502    0 -0.00000000000E+00 -0.00000000000E+00 -0.80008563264E+02  0.80008563264E+02  0.00000000000E+00 0. -1.
         23    2    1    2    0    0  0.15033254390E+02 -0.40265624191E+02 -0.20392510637E+02  0.74376313499E+02  0.57172216072E+02 0.  0.
         23    2    1    2    0    0  0.31595020739E+02  0.49093016060E+02  0.90460417551E+02  0.13880213078E+03  0.87604650589E+02 0.  0.
        -11    1    4    4    0    0 -0.19773266011E+02 -0.11222154071E+02  0.71447485696E+01  0.23832041936E+02  0.00000000000E+00 0.  1.
         11    1    4    4    0    0  0.51368286750E+02  0.60315170130E+02  0.83315668982E+02  0.11497008885E+03  0.00000000000E+00 0. -1.
        -13    1    3    3    0    0 -0.14864929695E+02 -0.20581352799E+02 -0.27983480149E+02  0.37784036035E+02  0.00000000000E+00 0.  1.
         13    1    3    3    0    0  0.29898184085E+02 -0.19684271393E+02  0.75909695123E+01  0.36592277464E+02  0.00000000000E+00 0. -1.
          1    1    1    2  501    0 -0.46628275129E+02 -0.88273918681E+01  0.58151473161E+02  0.75058062322E+02  0.00000000000E+00 0. -1.
<scales pt_clust_5="13000.00000" pt_clust_6="13000.00000" pt_clust_7="13000.00000" pt_clust_8="13000.00000" pt_clust_9="47.45649"></scales>
<clustering>
<clus scale="   47.456">  1  9  2 -1</clus>
<clus scale="   57.172">  7  8 -1 -1</clus>
<clus scale="   71.176">  2  7  1 -1</clus>
<clus scale="   87.605">  5  6 -1 -1</clus>
<clus scale="   47.456">  1  5  2 -1</clus>
</clustering>
</event>
<event>
 9    1  0.1610296E-005  0.1614709E+03  0.7546771E-02  0.1187168E+00
         21   -1    0    0  501  502  0.00000000000E+00  0.00000000000E+00  0.35992966892E+03  0.35992966892E+03  0.00000000000E+00 0. -1.
          1   -1    0    0  502    0 -0.00000000000E+00 -0.00000000000E+00 -0.73281798871E+03  0.73281798871E+03  0.00000000000E+00 0. -1.
         23    2    1    2    0    0 -0.14778306371E+03  0.60601934835E+01 -0.47531152841E+03  0.50604757361E+03  0.91030422674E+02 0.  0.
         23    2    1    2    0    0  0.11265192512E+03  0.17429055688E+02 -0.21880232890E+03  0.26270658458E+03  0.90255538514E+02 0.  0.
        -11    1    4    4    0    0  0.98170185743E+02 -0.88180758194E+01 -0.20915332893E+03  0.23121474614E+03  0.00000000000E+00 0. -1.
         11    1    4    4    0    0  0.14481739376E+02  0.26247131507E+02 -0.96489999709E+01  0.31491838437E+02  0.00000000000E+00 0.  1.
        -13    1    3    3    0    0 -0.53430959527E+02  0.44075381687E+02 -0.23749571800E+03  0.24738981946E+03  0.00000000000E+00 0. -1.
         13    1    3    3    0    0 -0.94352104184E+02 -0.38015188203E+02 -0.23781581041E+03  0.25865775414E+03  0.00000000000E+00 0.  1.
          1    1    1    2  501    0  0.35131138592E+02 -0.23489249171E+02  0.32122553752E+03  0.32399349944E+03  0.00000000000E+00 0. -1.
<scales pt_clust_5="13000.00000" pt_clust_6="13000.00000" pt_clust_7="13000.00000" pt_clust_8="13000.00000" pt_clust_9="42.26040"></scales>
<clustering>
<clus scale="   42.260">  1  9  2 -1</clus>
<clus scale="   90.256">  5  6 -1 -1</clus>
<clus scale="   91.030">  7  8 -1 -1</clus>
<clus scale="  161.035">  1  5  2 -1</clus>
<clus scale="   42.260">  1  5  2 -1</clus>
</clustering>
</event>
<event>
 9    1  0.1610296E-005  0.1441863E+03  0.7546771E-02  0.1208094E+00
         21   -1    0    0  501  502  0.00000000000E+00  0.00000000000E+00  0.83727208922E+02  0.83727208922E+02  0.00000000000E+00 0.  1.
          1   -1    0    0  502    0 -0.00000000000E+00 -0.00000000000E+00 -0.33337463158E+03  0.33337463158E+03  0.00000000000E+00 0. -1.
         23    2    1    2    0    0  0.14265971012E+02 -0.11705214510E+03 -0.18699681258E+03  0.23988705304E+03  0.93130380095E+02 0.  0.
         23    2    1    2    0    0 -0.63305464429E+01  0.98198711635E+02 -0.74285431151E+02  0.15368200229E+03  0.91742954840E+02 0.  0.
        -11    1    3    3    0    0 -0.37587428990E+02 -0.27998377745E+02 -0.51136584632E+02  0.69366232867E+02  0.00000000000E+00 0.  1.
         11    1    3    3    0    0  0.51853400002E+02 -0.89053767354E+02 -0.13586022795E+03  0.17052082017E+03  0.00000000000E+00 0. -1.
        -13    1    4    4    0    0  0.25059341486E+02  0.29872877452E+02 -0.67798610200E+02  0.78211322378E+02  0.00000000000E+00 0. -1.
         13    1    4    4    0    0 -0.31389887929E+02  0.68325834182E+02 -0.64868209503E+01  0.75470679916E+02  0.00000000000E+00 0.  1.
          1    1    1    2  501    0 -0.79354245695E+01  0.18853433464E+02  0.11634821077E+02  0.23532785172E+02  0.00000000000E+00 0. -1.
<scales pt_clust_5="13000.00000" pt_clust_6="13000.00000" pt_clust_7="13000.00000" pt_clust_8="13000.00000" pt_clust_9="20.45539"></scales>
<clustering>
<clus scale="   20.455">  1  9  2 -1</clus>
<clus scale="   91.743">  7  8 -1 -1</clus>
<clus scale="   93.130">  5  6 -1 -1</clus>
<clus scale="  143.294">  1  7  2 -1</clus>
<clus scale="   20.455">  1  5  2 -1</clus>
</clustering>
</event>
<event>
 9    1  0.1610296E-005  0.9870277E+02  0.7546771E-02  0.1283276E+00
         21   -1    0    0  501  502  0.00000000000E+00  0.00000000000E+00  0.10456448692E+03  0.10456448692E+03  0.00000000000E+00 0. -1.
         -3   -1    0    0    0  501 -0.00000000000E+00 -0.00000000000E+00 -0.26349346691E+03  0.26349346691E+03  0.00000000000E+00 0.  1.
         23    2    1    2    0    0  0.51327204865E+01  0.46010686311E+02 -0.82677837857E+02  0.13098175646E+03  0.90428245466E+02 0.  0.
         23    2    1    2    0    0  0.18334764684E+02 -0.14365446899E+02  0.48945884100E+02  0.10582666627E+03  0.90890340872E+02 0.  0.
        -13    1    4    4    0    0  0.22907847092E+02  0.11105333841E+02  0.68703489597E+02  0.73268461024E+02  0.00000000000E+00 0. -1.
         13    1    4    4    0    0 -0.45730824078E+01 -0.25470780739E+02 -0.19757605496E+02  0.32558205250E+02  0.00000000000E+00 0.  1.
        -13    1    3    3    0    0  0.43590007853E+02  0.12763988031E+02 -0.60162984731E+02  0.75382974913E+02  0.00000000000E+00 0.  1.
         13    1    3    3    0    0 -0.38457287366E+02  0.33246698280E+02 -0.22514853127E+02  0.55598781546E+02  0.00000000000E+00 0. -1.
         -3    1    1    2    0  502 -0.23467485171E+02 -0.31645239413E+02 -0.12519702623E+03  0.13124953110E+03  0.00000000000E+00 0.  1.
<scales pt_clust_5="13000.00000" pt_clust_6="13000.00000" pt_clust_7="13000.00000" pt_clust_8="13000.00000" pt_clust_9="39.39728"></scales>
<clustering>
<clus scale="   39.397">  1  9  2 -1</clus>
<clus scale="   90.428">  7  8 -1 -1</clus>
<clus scale="   90.890">  5  6 -1 -1</clus>
<clus scale="   98.277">  2  7  1 -1</clus>
<clus scale="   39.397">  1  5  2 -1</clus>
</clustering>
</event>
<event>
 9    1  0.1610296E-005  0.1035034E+03  0.7546771E-02  0.1275584E+00
          1   -1    0    0  502    0 -0.00000000000E+00  0.00000000000E+00  0.38294263793E+02  0.38294263793E+02  0.00000000000E+00 0. -1.
         21   -1    0    0  501  502  0.00000000000E+00 -0.00000000000E+00 -0.47265569614E+03  0.47265569614E+03  0.00000000000E+00 0.  1.
         23    2    1    2    0    0 -0.62368809409E+02 -0.10179438853E+01 -0.14422647905E+03  0.18447710629E+03  0.96641714026E+02 0.  0.
         23    2    1    2    0    0  0.95188975855E+01 -0.14340648159E+02 -0.15855383620E+03  0.18384540219E+03  0.91452443015E+02 0.  0.
        -11    1    3    3    0    0 -0.82701406605E+01  0.43902052785E+02 -0.58190726562E+02  0.73361748364E+02  0.00000000000E+00 0. -1.
         11    1    3    3    0    0 -0.54098668748E+02 -0.44919996670E+02 -0.86035752485E+02  0.11111535793E+03  0.00000000000E+00 0.  1.
        -11    1    4    4    0    0  0.92313501620E+01  0.18694392085E+02  0.10330011148E+01  0.20874990121E+02  0.00000000000E+00 0. -1.
         11    1    4    4    0    0  0.28754742353E+00 -0.33035040244E+02 -0.15958683731E+03  0.16297041207E+03  0.00000000000E+00 0.  1.
          1    1    1    2  501    0  0.52849911823E+02  0.15358592045E+02 -0.13158111710E+03  0.14262745145E+03  0.00000000000E+00 0. -1.
<scales pt_clust_5="13000.00000" pt_clust_6="13000.00000" pt_clust_7="13000.00000" pt_clust_8="13000.00000" pt_clust_9="55.03635"></scales>
<clustering>
<clus scale="   55.036">  2  9  1 -1</clus>
<clus scale="   91.452">  7  8 -1 -1</clus>
<clus scale="   96.642">  5  6 -1 -1</clus>
<clus scale="   98.676">  2  7  1 -1</clus>
<clus scale="   55.036">  2  5  1 -1</clus>
</clustering>
</event>
<event>
 9    1  0.1610296E-005  0.1168838E+03  0.7546771E-02  0.1249358E+00
         21   -1    0    0  501  502  0.00000000000E+00  0.00000000000E+00  0.34105097819E+02  0.34105097819E+02  0.00000000000E+00 0.  1.
         -1   -1    0    0    0  501 -0.00000000000E+00 -0.00000000000E+00 -0.53056989449E+03  0.53056989449E+03  0.00000000000E+00 0.  1.
         23    2    1    2    0    0 -0.48364903113E+01 -0.68812826641E+02 -0.29081948001E+03  0.31238624124E+03  0.90832797019E+02 0.  0.
         23    2    1    2    0    0 -0.20859227664E+02  0.70763672147E+02 -0.17966202353E+03  0.21569357048E+03  0.93822539787E+02 0.  0.
        -13    1    3    3    0    0 -0.32343263346E+02 -0.24102637194E+02 -0.42560469696E+02  0.58638019955E+02  0.00000000000E+00 0. -1.
         13    1    3    3    0    0  0.27506773034E+02 -0.44710189446E+02 -0.24825901031E+03  0.25374822128E+03  0.00000000000E+00 0.  1.
        -13    1    4    4    0    0 -0.67759051465E+01 -0.18947823002E+02 -0.72442843297E+02  0.75185759503E+02  0.00000000000E+00 0.  1.
         13    1    4    4    0    0 -0.14083322518E+02  0.89711495150E+02 -0.10721918023E+03  0.14050781098E+03  0.00000000000E+00 0. -1.
         -1    1    1    2    0  502  0.25695717975E+02 -0.19508455066E+01 -0.25983293126E+02  0.36595180586E+02  0.00000000000E+00 0.  1.
<scales pt_clust_5="13000.00000" pt_clust_6="13000.00000" pt_clust_7="13000.00000" pt_clust_8="13000.00000" pt_clust_9="25.76967"></scales>
<clustering>
<clus scale="   25.770">  1  9  2 -1</clus>
<clus scale="   90.833">  5  6 -1 -1</clus>
<clus scale="   93.823">  7  8 -1 -1</clus>
<clus scale="  114.498">  2  5  1 -1</clus>
<clus scale="   25.770">  1  5  2 -1</clus>
</clustering>
</event>
<event>
 9    1  0.1610296E-005  0.9462324E+02  0.7546771E-02  0.1299103E+00
          3   -1    0    0  502    0 -0.00000000000E+00  0.00000000000E+00  0.31657896121E+03  0.31657896121E+03  0.00000000000E+00 0. -1.
         21   -1    0    0  501  502  0.00000000000E+00 -0.00000000000E+00 -0.10480932895E+03  0.10480932895E+03  0.00000000000E+00 0. -1.
         23    2    1    2    0    0  0.49948671905E+01 -0.23350326923E+02  0.24060944076E+03  0.25845070948E+03  0.91288990479E+02 0.  0.
         23    2    1    2    0    0 -0.32479981430E+02  0.18245447139E+02  0.34239036945E+02  0.93941696406E+02  0.79151027395E+02 0.  0.
        -11    1    4    4    0    0 -0.68439943287E+01 -0.30862114036E+02  0.17177571499E+02  0.35977483288E+02  0.00000000000E+00 0.  1.
         11    1    4    4    0    0 -0.25635987102E+02  0.49107561175E+02  0.17061465447E+02  0.57964213118E+02  0.00000000000E+00 0. -1.
        -13    1    3    3    0    0  0.21666126787E+02 -0.54299695194E+02  0.13409622817E+03  0.14628628220E+03  0.00000000000E+00 0.  1.
         13    1    3    3    0    0 -0.16671259596E+02  0.30949368271E+02  0.10651321259E+03  0.11216442729E+03  0.00000000000E+00 0. -1.
          3    1    1    2  501    0  0.27485114240E+02  0.51048797840E+01 -0.63078845449E+02  0.68995884265E+02  0.00000000000E+00 0. -1.
<scales pt_clust_5="13000.00000" pt_clust_6="13000.00000" pt_clust_7="13000.00000" pt_clust_8="13000.00000" pt_clust_9="27.95517"></scales>
<clustering>
<clus scale="   27.955">  2  9  1 -1</clus>
<clus scale="   79.151">  5  6 -1 -1</clus>
<clus scale="   82.974">  2  5  1 -1</clus>
<clus scale="   91.289">  7  8 -1 -1</clus>
<clus scale="   27.955">  2  5  1 -1</clus>
</clustering>
</event>
<event>
 9    1  0.1610296E-005  0.2052629E+03  0.7546771E-02  0.1145486E+00
          1   -1    0    0  502    0 -0.00000000000E+00  0.00000000000E+00  0.93906454930E+03  0.93906454930E+03  0.00000000000E+00 0. -1.
         21   -1    0    0  501  502  0.00000000000E+00 -0.00000000000E+00 -0.60346297494E+02  0.60346297494E+02  0.00000000000E+00 0.  1.
         23    2    1    2    0    0 -0.11531558087E+03  0.13712489648E+03  0.60497441474E+03  0.63756793743E+03  0.91640121792E+02 0.  0.
         23    2    1    2    0    0  0.13631615364E+03 -0.13919753649E+03  0.25681941115E+03  0.33479191889E+03  0.90395636508E+02 0.  0.
        -11    1    3    3    0    0 -0.68860753451E+02  0.15096949950E+02  0.19955885855E+03  0.21164465334E+03  0.00000000000E+00 0.  1.
         11    1    3    3    0    0 -0.46454827420E+02  0.12202794653E+03  0.40541555619E+03  0.42592328409E+03  0.00000000000E+00 0. -1.
        -13    1    4    4    0    0  0.27465971187E+02 -0.69475549703E+02  0.46726563789E+02  0.88116986689E+02  0.00000000000E+00 0.  1.
         13    1    4    4    0    0  0.10885018246E+03 -0.69721986788E+02  0.21009284736E+03  0.24667493220E+03  0.00000000000E+00 0. -1.
          1    1    1    2  501    0 -0.21000572771E+02  0.20726400123E+01  0.16924425922E+02  0.27050990484E+02  0.00000000000E+00 0. -1.
<scales pt_clust_5="13000.00000" pt_clust_6="13000.00000" pt_clust_7="13000.00000" pt_clust_8="13000.00000" pt_clust_9="21.10260"></scales>
<clustering>
<clus scale="   21.103">  2  9  1 -1</clus>
<clus scale="   90.396">  7  8 -1 -1</clus>
<clus scale="   91.640">  5  6 -1 -1</clus>
<clus scale="  204.710">  2  7  1 -1</clus>
<clus scale="   21.103">  2  5  1 -1</clus>
</clustering>
</event>
<event>
 9    1  0.1610296E-005  0.1144266E+03  0.7546771E-02  0.1252743E+00
         21   -1    0    0  501  502  0.00000000000E+00  0.00000000000E+00  0.32662616157E+02  0.32662616157E+02  0.00000000000E+00 0.  1.
          2   -1    0    0  502    0 -0.00000000000E+00 -0.00000000000E+00 -0.63885886524E+03  0.63885886524E+03  0.00000000000E+00 0. -1.
         23    2    1    2    0    0 -0.38189515550E+02  0.63993112619E+02 -0.46576234505E+03  0.48022525388E+03  0.90156391003E+02 0.  0.
         23    2    1    2    0    0  0.42310594670E+02 -0.42395232398E+02 -0.11468057679E+03  0.15743348121E+03  0.89700190427E+02 0.  0.
        -11    1    3    3    0    0 -0.13327817726E+02  0.83427433582E+02 -0.31051586697E+03  0.32180408798E+03  0.00000000000E+00 0. -1.
         11    1    3    3    0    0 -0.24861697824E+02 -0.19434320963E+02 -0.15524647808E+03  0.15842116591E+03  0.00000000000E+00 0.  1.
        -13    1    4    4    0    0  0.34101655094E+02  0.11974957528E+02 -0.90337658229E+02  0.97299614502E+02  0.00000000000E+00 0. -1.
         13    1    4    4    0    0  0.82089395760E+01 -0.54370189926E+02 -0.24342918561E+02  0.60133866711E+02  0.00000000000E+00 0.  1.
          2    1    1    2  501    0 -0.41210791196E+01 -0.21597880221E+02 -0.25753327246E+02  0.33862746307E+02  0.00000000000E+00 0. -1.
<scales pt_clust_5="13000.00000" pt_clust_6="13000.00000" pt_clust_7="13000.00000" pt_clust_8="13000.00000" pt_clust_9="21.98754"></scales>
<clustering>
<clus scale="   21.988">  1  9  2 -1</clus>
<clus scale="   89.700">  7  8 -1 -1</clus>
<clus scale="   90.156">  5  6 -1 -1</clus>
<clus scale="  114.068">  1  7  2 -1</clus>
<clus scale="   21.988">  1  5  2 -1</clus>
</clustering>
</event>
<event>
 9    1  0.1610296E-005  0.9923790E+02  0.7546771E-02  0.1282867E+00
         21   -1    0    0  501  502  0.00000000000E+00  0.00000000000E+00  0.19366103963E+03  0.19366103963E+03  0.00000000000E+00 0. -1.
          3   -1    0    0  502    0 -0.00000000000E+00 -0.00000000000E+00 -0.90353316446E+02  0.90353316446E+02  0.00000000000E+00 0. -1.
         23    2    1    2    0    0 -0.30497233631E+02  0.26039857866E+02 -0.48255949292E+01  0.10311940449E+03  0.94879764753E+02 0.  0.
         23    2    1    2    0    0  0.15735039591E+01 -0.17996079902E+02  0.33571786303E+02  0.10051643127E+03  0.93006200401E+02 0.  0.
        -11    1    4    4    0    0  0.18664902949E+02  0.31478060520E+02  0.31248255706E+02  0.48121724625E+02  0.00000000000E+00 0.  1.
         11    1    4    4    0    0 -0.17091398990E+02 -0.49474140422E+02  0.23235305974E+01  0.52394706645E+02  0.00000000000E+00 0. -1.
        -13    1    3    3    0    0  0.21288323457E+02 -0.21536722073E+02  0.87010469257E+01  0.31507639247E+02  0.00000000000E+00 0. -1.
         13    1    3    3    0    0 -0.51785557089E+02  0.47576579940E+02 -0.13526641855E+02  0.71611765246E+02  0.00000000000E+00 0.  1.
          3    1    1    2  501    0  0.28923729672E+02 -0.80437779640E+01  0.74561531808E+02  0.80378520312E+02  0.00000000000E+00 0. -1.
<scales pt_clust_5="13000.00000" pt_clust_6="13000.00000" pt_clust_7="13000.00000" pt_clust_8="13000.00000" pt_clust_9="30.02140"></scales>
<clustering>
<clus scale="   30.021">  1  9  2 -1</clus>
<clus scale="   93.006">  5  6 -1 -1</clus>
<clus scale="   94.880">  7  8 -1 -1</clus>
<clus scale="   97.448">  1  5  2 -1</clus>
<clus scale="   30.021">  1  5  2 -1</clus>
</clustering>
</event>
<event>
 9    1  0.1610296E-005  0.9827461E+02  0.7546771E-02  0.1284989E+00
         -1   -1    0    0    0  501 -0.00000000000E+00  0.00000000000E+00  0.18411480941E+03  0.18411480941E+03  0.00000000000E+00 0.  1.
         21   -1    0    0  501  502  0.00000000000E+00 -0.00000000000E+00 -0.79089663038E+02  0.79089663038E+02  0.00000000000E+00 0. -1.
         23    2    1    2    0    0 -0.30583696246E+02  0.18235650550E+02  0.76257192567E+02  0.12523403414E+03  0.92738894001E+02 0.  0.
         23    2    1    2    0    0  0.34507289675E+02  0.15019915925E+02  0.34250195836E+02  0.10403841414E+03  0.90744502786E+02 0.  0.
        -11    1    3    3    0    0  0.24123443412E+02 -0.20017137051E+02  0.33917710279E+02  0.46184817509E+02  0.00000000000E+00 0. -1.
         11    1    3    3    0    0 -0.54707139658E+02  0.38252787601E+02  0.42339482289E+02  0.79049216626E+02  0.00000000000E+00 0.  1.
        -13    1    4    4    0    0  0.65640598959E+02  0.90502086177E+01  0.26787138095E+02  0.71471289866E+02  0.00000000000E+00 0. -1.
         13    1    4    4    0    0 -0.31133309284E+02  0.59697073074E+01  0.74630577413E+01  0.32567124269E+02  0.00000000000E+00 0.  1.
         -1    1    1    2    0  502 -0.39235934294E+01 -0.33255566475E+02 -0.54822420340E+01  0.33932024176E+02  0.00000000000E+00 0.  1.
<scales pt_clust_5="13000.00000" pt_clust_6="13000.00000" pt_clust_7="13000.00000" pt_clust_8="13000.00000" pt_clust_9="33.48623"></scales>
<clustering>
<clus scale="   33.486">  2  9  1 -1</clus>
<clus scale="   90.745">  7  8 -1 -1</clus>
<clus scale="   92.739">  5  6 -1 -1</clus>
<clus scale="   96.395">  2  7  1 -1</clus>
<clus scale="   33.486">  2  5  1 -1</clus>
</clustering>
</event>
<event>
 9    1  0.1610296E-005  0.1067789E+03  0.7546771E-02  0.1266778E+00
          1   -1    0    0  502    0 -0.00000000000E+00  0.00000000000E+00  0.50129029832E+03  0.50129029832E+03  0.00000000000E+00 0. -1.
         21   -1    0    0  501  502  0.00000000000E+00 -0.00000000000E+00 -0.46036948061E+02  0.46036948061E+02  0.00000000000E+00 0.  1.
         23    2    1    2    0    0 -0.32271261366E+02  0.26930363505E+02  0.24119143812E+03  0.26276218724E+03  0.95414770524E+02 0.  0.
         23    2    1    2    0    0  0.68140612642E+02  0.12044426653E+02  0.19602305057E+03  0.22860931631E+03  0.95126083931E+02 0.  0.
        -11    1    3    3    0    0  0.31262498794E+02  0.75145977773E+01  0.12347991930E+03  0.12759742741E+03  0.00000000000E+00 0.  1.
         11    1    3    3    0    0 -0.63533760159E+02  0.19415765728E+02  0.11771151882E+03  0.13516475984E+03  0.00000000000E+00 0. -1.
        -13    1    4    4    0    0  0.72194144233E+01 -0.34441521653E+02  0.31982323393E+02  0.47552154189E+02  0.00000000000E+00 0. -1.
         13    1    4    4    0    0  0.60921198218E+02  0.46485948306E+02  0.16404072718E+03  0.18105716212E+03  0.00000000000E+00 0.  1.
          1    1    1    2  501    0 -0.35869351276E+02 -0.38974790158E+02  0.18038861571E+02  0.55955742830E+02  0.00000000000E+00 0. -1.
<scales pt_clust_5="13000.00000" pt_clust_6="13000.00000" pt_clust_7="13000.00000" pt_clust_8="13000.00000" pt_clust_9="52.96834"></scales>
<clustering>
<clus scale="   52.968">  2  9  1 -1</clus>
<clus scale="   95.126">  7  8 -1 -1</clus>
<clus scale="   95.415">  5  6 -1 -1</clus>
<clus scale="  106.521">  2  7  1 -1</clus>
<clus scale="   52.968">  2  5  1 -1</clus>
</clustering>
</event>
<event>
 9    1  0.1610296E-005  0.1338239E+03  0.7546771E-02  0.1222630E+00
         21   -1    0    0  501  502  0.00000000000E+00  0.00000000000E+00  0.21289888139E+03  0.21289888139E+03  0.00000000000E+00 0. -1.
          2   -1    0    0  502    0 -0.00000000000E+00 -0.00000000000E+00 -0.14432040372E+03  0.14432040372E+03  0.00000000000E+00 0. -1.
         23    2    1    2    0    0 -0.94079304722E+02 -0.27616029262E+02 -0.31935241169E+02  0.13578092773E+03  0.88334817919E+02 0.  0.
         23    2    1    2    0    0  0.98853638906E+02  0.50529290524E+01  0.18174421334E+02  0.13593018425E+03  0.91373581430E+02 0.  0.
        -11    1    4    4    0    0  0.43090474299E+01  0.26377615885E+02  0.27762955190E+02  0.38537360968E+02  0.00000000000E+00 0.  1.
         11    1    4    4    0    0  0.94544591476E+02 -0.21324686832E+02 -0.95885338560E+01  0.97392823284E+02  0.00000000000E+00 0. -1.
        -13    1    3    3    0    0 -0.82325203105E+02  0.66446657156E+01  0.66479944741E+01  0.82860041511E+02  0.00000000000E+00 0. -1.
         13    1    3    3    0    0 -0.11754101618E+02 -0.34260694978E+02 -0.38583235643E+02  0.52920886216E+02  0.00000000000E+00 0.  1.
          2    1    1    2  501    0 -0.47743341832E+01  0.22563100210E+02  0.82339297505E+02  0.85508173127E+02  0.00000000000E+00 0. -1.
<scales pt_clust_5="13000.00000" pt_clust_6="13000.00000" pt_clust_7="13000.00000" pt_clust_8="13000.00000" pt_clust_9="23.06269"></scales>
<clustering>
<clus scale="   23.063">  1  9  2 -1</clus>
<clus scale="   88.335">  7  8 -1 -1</clus>
<clus scale="   91.374">  5  6 -1 -1</clus>
<clus scale="  131.768">  2  7  1 -1</clus>
<clus scale="   23.063">  1  5  2 -1</clus>
</clustering>
</event>
