<event>
 9    2  0.6175212E-005  0.3290890E+03  0.7546771E-02  0.1113171E+00
          2   -1    0    0  502    0 -0.00000000000E+00  0.00000000000E+00  0.12052772610E+04  0.12052772610E+04  0.00000000000E+00 0. -1.
         21   -1    0    0  501  502  0.00000000000E+00 -0.00000000000E+00 -0.13537739636E+03  0.13537739636E+03  0.00000000000E+00 0. -1.
         24    2    1    2    0    0 -0.51625583911E+01  0.74588040830E+02  0.27957375527E+03  0.30042662466E+03  0.80651375203E+02 0.  0.
         23    2    1    2    0    0  0.30512741854E+03 -0.11652984372E+03  0.25231210635E+03  0.42281641993E+03  0.91817100412E+02 0.  0.
        -11    1    3    3    0    0 -0.19492087798E+02  0.17275053255E+02  0.16570482157E+02  0.30869885497E+02  0.00000000000E+00 0.  1.
         12    1    3    3    0    0  0.14329529406E+02  0.57312987576E+02  0.26300327312E+03  0.26955673916E+03  0.00000000000E+00 0. -1.
        -13    1    4    4    0    0  0.49134168546E+02 -0.32747074611E+02  0.92139332118E+02  0.10943579824E+03  0.00000000000E+00 0.  1.
         13    1    4    4    0    0  0.25599324999E+03 -0.83782769113E+02  0.16017277424E+03  0.31338062168E+03  0.00000000000E+00 0. -1.
          1    1    1    2  501    0 -0.29996486014E+03  0.41941802894E+02  0.53801400297E+03  0.61741161273E+03  0.00000000000E+00 0. -1.
<scales pt_clust_5="13000.00000" pt_clust_6="13000.00000" pt_clust_7="13000.00000" pt_clust_8="13000.00000" pt_clust_9="316.02099"></scales>
<clustering>
<clus scale="   80.651">  5  6 -1 -1</clus>
<clus scale="   91.817">  7  8 -1 -1</clus>
<clus scale="  109.976">  1  5  2 -1</clus>
<clus scale="  316.021">  2  9  1 -1</clus>
<clus scale="  316.021">  2  5  1 -1</clus>
</clustering>
</event>
<event>
 9    2  0.6175212E-005  0.9562026E+02  0.7546771E-02  0.1292852E+00
         -1   -1    0    0    0  501 -0.00000000000E+00  0.00000000000E+00  0.53631241902E+03  0.53631241902E+03  0.00000000000E+00 0.  1.
         21   -1    0    0  501  502  0.00000000000E+00 -0.00000000000E+00 -0.21728359436E+02  0.21728359436E+02  0.00000000000E+00 0.  1.
         23    2    1    2    0    0  0.33008314402E+02  0.95526792022E+01  0.23417031816E+03  0.25165722118E+03  0.85526700898E+02 0.  0.
         24    2    1    2    0    0 -0.52713053365E+02  0.60003618978E+01  0.24486428613E+03  0.26286416393E+03  0.79525968844E+02 0.  0.
        -13    1    4    4    0    0 -0.37727754297E+02 -0.30350909659E+02  0.81181310143E+02  0.94524950557E+02  0.00000000000E+00 0.  1.
         14    1    4    4    0    0 -0.14985299069E+02  0.36351271557E+02  0.16368297599E+03  0.16833921338E+03  0.00000000000E+00 0. -1.
        -13    1    3    3    0    0  0.60166622016E+02 -0.50408741576E+01  0.17141277198E+03  0.18173544292E+03  0.00000000000E+00 0.  1.
         13    1    3    3    0    0 -0.27158307615E+02  0.14593553360E+02  0.62757546176E+02  0.69921778254E+02  0.00000000000E+00 0. -1.
         -2    1    1    2    0  502  0.19704738963E+02 -0.15553041100E+02  0.35549455297E+02  0.43519393343E+02  0.00000000000E+00 0.  1.
<scales pt_clust_5="13000.00000" pt_clust_6="13000.00000" pt_clust_7="13000.00000" pt_clust_8="13000.00000" pt_clust_9="25.10326"></scales>
<clustering>
<clus scale="   25.103">  2  9  1 -1</clus>
<clus scale="   79.526">  5  6 -1 -1</clus>
<clus scale="   85.527">  7  8 -1 -1</clus>
<clus scale="   90.293">  2  5  1 -1</clus>
<clus scale="   25.103">  2  5  1 -1</clus>
</clustering>
</event>
<event>
 9    2  0.6175212E-005  0.1432759E+03  0.7546771E-02  0.1210738E+00
          2   -1    0    0  502    0 -0.00000000000E+00  0.00000000000E+00  0.76520458211E+03  0.76520458211E+03  0.00000000000E+00 0. -1.
         21   -1    0    0  501  502  0.00000000000E+00 -0.00000000000E+00 -0.98568062922E+02  0.98568062922E+02  0.00000000000E+00 0.  1.
         24    2    1    2    0    0 -0.27589953787E+02 -0.99974410300E+02  0.54763566493E+03  0.56350816497E+03  0.82949033835E+02 0.  0.
         23    2    1    2    0    0  0.18356918863E+02  0.13882007379E+03  0.16800643593E+03  0.23705228550E+03  0.91431035154E+02 0.  0.
        -11    1    3    3    0    0  0.21726141963E+02 -0.14923378414E+02  0.52950603051E+02  0.59148109279E+02  0.00000000000E+00 0.  1.
         12    1    3    3    0    0 -0.49316095750E+02 -0.85051031886E+02  0.49468506188E+03  0.50436005569E+03  0.00000000000E+00 0. -1.
        -11    1    4    4    0    0 -0.16174789630E+02  0.70621140577E+02  0.13617128170E+03  0.15424521800E+03  0.00000000000E+00 0. -1.
         11    1    4    4    0    0  0.34531708494E+02  0.68198933214E+02  0.31835154228E+02  0.82807067499E+02  0.00000000000E+00 0.  1.
          1    1    1    2  501    0  0.92330349234E+01 -0.38845663491E+02 -0.49005581677E+02  0.63212194562E+02  0.00000000000E+00 0. -1.
<scales pt_clust_5="13000.00000" pt_clust_6="13000.00000" pt_clust_7="13000.00000" pt_clust_8="13000.00000" pt_clust_9="39.92787"></scales>
<clustering>
<clus scale="   39.928">  2  9  1 -1</clus>
<clus scale="   82.949">  5  6 -1 -1</clus>
<clus scale="   91.431">  7  8 -1 -1</clus>
<clus scale="  138.018">  1  5  2 -1</clus>
<clus scale="   39.928">  2  5  1 -1</clus>
</clustering>
</event>
<event>
 9    2  0.6175212E-005  0.1006186E+03  0.7546771E-02  0.1286807E+00
         21   -1    0    0  501  502  0.00000000000E+00  0.00000000000E+00  0.28038104899E+02  0.28038104899E+02  0.00000000000E+00 0. -1.
         -3   -1    0    0    0  501 -0.00000000000E+00 -0.00000000000E+00 -0.57191184794E+03  0.57191184794E+03  0.00000000000E+00 0.  1.
         24    2    1    2    0    0 -0.31077417956E+02 -0.44360219468E+01 -0.38150879635E+03  0.39104378193E+03  0.79879869166E+02 0.  0.
         23    2    1    2    0    0  0.44391609065E+02 -0.15933398670E+02 -0.14250013259E+03  0.17749292815E+03  0.94725728328E+02 0.  0.
        -13    1    3    3    0    0 -0.50002359041E+02 -0.25358140586E+02 -0.21654540037E+03  0.22368545243E+03  0.00000000000E+00 0.  1.
         14    1    3    3    0    0  0.18924941085E+02  0.20922118639E+02 -0.16496339597E+03  0.16735832950E+03  0.00000000000E+00 0. -1.
        -13    1    4    4    0    0 -0.24034297452E+02 -0.26713969515E+02 -0.57992157639E+02  0.68222972442E+02  0.00000000000E+00 0.  1.
         13    1    4    4    0    0  0.68425906518E+02  0.10780570844E+02 -0.84507974952E+02  0.10926995571E+03  0.00000000000E+00 0. -1.
         -4    1    1    2    0  502 -0.13314191110E+02  0.20369420617E+02 -0.19864814106E+02  0.31413242759E+02  0.00000000000E+00 0.  1.
<scales pt_clust_5="13000.00000" pt_clust_6="13000.00000" pt_clust_7="13000.00000" pt_clust_8="13000.00000" pt_clust_9="24.33477"></scales>
<clustering>
<clus scale="   24.335">  1  9  2 -1</clus>
<clus scale="   79.880">  5  6 -1 -1</clus>
<clus scale="   86.787">  2  5  1 -1</clus>
<clus scale="   94.726">  7  8 -1 -1</clus>
<clus scale="   24.335">  1  5  2 -1</clus>
</clustering>
</event>
<event>
 9    2  0.6175212E-005  0.1561692E+03  0.7546771E-02  0.1196714E+00
          2   -1    0    0  502    0 -0.00000000000E+00  0.00000000000E+00  0.59632846718E+03  0.59632846718E+03  0.00000000000E+00 0. -1.
         21   -1    0    0  501  502  0.00000000000E+00 -0.00000000000E+00 -0.60653691291E+02  0.60653691291E+02  0.00000000000E+00 0. -1.
         23    2    1    2    0    0 -0.55194701958E+02 -0.11150244026E+03  0.34979113095E+03  0.38620457697E+03  0.10639967424E+03 0.  0.
         24    2    1    2    0    0  0.79822413750E+02  0.69586856172E+02  0.17181056518E+03  0.22016639744E+03  0.87979679291E+02 0.  0.
        -11    1    4    4    0    0  0.64445953870E+02  0.46128797671E+02  0.17483098765E+03  0.19195577925E+03  0.00000000000E+00 0.  1.
         12    1    4    4    0    0  0.15376459880E+02  0.23458058501E+02 -0.30204224709E+01  0.28210618196E+02  0.00000000000E+00 0. -1.
        -11    1    3    3    0    0  0.69143927708E+01 -0.26178861800E+02  0.76203592548E+01  0.28128482144E+02  0.00000000000E+00 0.  1.
         11    1    3    3    0    0 -0.62109094729E+02 -0.85323578456E+02  0.34217077169E+03  0.35807609483E+03  0.00000000000E+00 0. -1.
          1    1    1    2  501    0 -0.24627711792E+02  0.41915584085E+02  0.14073079767E+02  0.50611184055E+02  0.00000000000E+00 0. -1.
<scales pt_clust_5="13000.00000" pt_clust_6="13000.00000" pt_clust_7="13000.00000" pt_clust_8="13000.00000" pt_clust_9="48.61523"></scales>
<clustering>
<clus scale="   48.615">  2  9  1 -1</clus>
<clus scale="   87.980">  5  6 -1 -1</clus>
<clus scale="  106.400">  7  8 -1 -1</clus>
<clus scale="  144.251">  2  5  1 -1</clus>
<clus scale="   48.615">  2  5  1 -1</clus>
</clustering>
</event>
<event>
 9    2  0.6175212E-005  0.2702148E+03  0.7546771E-02  0.1102188E+00
          2   -1    0    0  502    0 -0.00000000000E+00  0.00000000000E+00  0.13288804582E+04  0.13288804582E+04  0.00000000000E+00 0. -1.
         21   -1    0    0  501  502  0.00000000000E+00 -0.00000000000E+00 -0.11476890449E+03  0.11476890449E+03  0.00000000000E+00 0. -1.
         24    2    1    2    0    0 -0.16145815241E+03 -0.21913095541E+03  0.10744620471E+04  0.11113641965E+04  0.81083759235E+02 0.  0.
         23    2    1    2    0    0  0.10120762161E+03  0.14694459325E+03  0.11342226332E+03  0.23466925743E+03  0.10183002705E+03 0.  0.
        -11    1    3    3    0    0 -0.14460205410E+02 -0.56944266940E+02  0.14446734492E+03  0.15595691977E+03  0.00000000000E+00 0.  1.
         12    1    3    3    0    0 -0.14699794699E+03 -0.16218668847E+03  0.92999470220E+03  0.95540727674E+03  0.00000000000E+00 0. -1.
        -13    1    4    4    0    0  0.41587141240E+02  0.32381863112E+01 -0.69922652391E+00  0.41718881635E+02  0.00000000000E+00 0. -1.
         13    1    4    4    0    0  0.59620480368E+02  0.14370640694E+03  0.11412148984E+03  0.19295037579E+03  0.00000000000E+00 0.  1.
          1    1    1    2  501    0  0.60250530797E+02  0.72186362159E+02  0.26227243233E+02  0.97615908697E+02  0.00000000000E+00 0. -1.
<scales pt_clust_5="13000.00000" pt_clust_6="13000.00000" pt_clust_7="13000.00000" pt_clust_8="13000.00000" pt_clust_9="94.02658"></scales>
<clustering>
<clus scale="   81.084">  5  6 -1 -1</clus>
<clus scale="   94.027">  2  9  1 -1</clus>
<clus scale="  101.830">  7  8 -1 -1</clus>
<clus scale="  263.099">  1  5  2 -1</clus>
<clus scale="   94.027">  2  5  1 -1</clus>
</clustering>
</event>
<event>
 9    2  0.6175212E-005  0.1858400E+03  0.7546771E-02  0.1168265E+00
          2   -1    0    0  502    0 -0.00000000000E+00  0.00000000000E+00  0.20215830398E+03  0.20215830398E+03  0.00000000000E+00 0. -1.
         21   -1    0    0  501  502  0.00000000000E+00 -0.00000000000E+00 -0.41825057211E+03  0.41825057211E+03  0.00000000000E+00 0. -1.
         24    2    1    2    0    0 -0.10887754881E+03  0.89878176045E+02 -0.85998411276E+02  0.18326435936E+03  0.79105571900E+02 0.  0.
         23    2    1    2    0    0 -0.33682615702E+02 -0.17255708261E+03 -0.17610868100E+03  0.26604055377E+03  0.94089549734E+02 0.  0.
        -11    1    3    3    0    0 -0.23642449437E+02  0.47696576702E+02 -0.68191308223E+02  0.86510018851E+02  0.00000000000E+00 0.  1.
         12    1    3    3    0    0 -0.85235099372E+02  0.42181599344E+02 -0.17807103053E+02  0.96754340509E+02  0.00000000000E+00 0. -1.
        -11    1    4    4    0    0  0.14044750237E+02 -0.11825942046E+03 -0.71574709713E+02  0.13894417803E+03  0.00000000000E+00 0.  1.
         11    1    4    4    0    0 -0.47727365938E+02 -0.54297662144E+02 -0.10453397129E+03  0.12709637574E+03  0.00000000000E+00 0. -1.
          1    1    1    2  501    0  0.14256016451E+03  0.82678906563E+02  0.46014824146E+02  0.17110396295E+03  0.00000000000E+00 0. -1.
<scales pt_clust_5="13000.00000" pt_clust_6="13000.00000" pt_clust_7="13000.00000" pt_clust_8="13000.00000" pt_clust_9="160.26129"></scales>
<clustering>
<clus scale="   79.106">  5  6 -1 -1</clus>
<clus scale="   94.090">  7  8 -1 -1</clus>
<clus scale="  161.834">  1  5  2 -1</clus>
<clus scale="  160.261">  2  9  1 -1</clus>
<clus scale="  160.261">  2  5  1 -1</clus>
</clustering>
</event>
<event>
 9    2  0.6175212E-005  0.1346510E+03  0.7546771E-02  0.1223738E+00
          2   -1    0    0  502    0 -0.00000000000E+00  0.00000000000E+00  0.78233479335E+03  0.78233479335E+03  0.00000000000E+00 0. -1.
         21   -1    0    0  501  502  0.00000000000E+00 -0.00000000000E+00 -0.54991413721E+02  0.54991413721E+02  0.00000000000E+00 0. -1.
         24    2    1    2    0    0  0.17249083304E+02 -0.11396363642E+03  0.54733714341E+03  0.56558797962E+03  0.83824655317E+02 0.  0.
         23    2    1    2    0    0 -0.47393232058E+02  0.25785569470E+02  0.88798351005E+02  0.14134298397E+03  0.95821072524E+02 0.  0.
        -11    1    3    3    0    0 -0.20800719223E+02 -0.55120720660E+02  0.13437566298E+03  0.14672349017E+03  0.00000000000E+00 0.  1.
         12    1    3    3    0    0  0.38049802527E+02 -0.58842915760E+02  0.41296148043E+03  0.41886448946E+03  0.00000000000E+00 0. -1.
        -13    1    4    4    0    0  0.11797150714E+02  0.44832943346E+02  0.26860239715E+02  0.53578335655E+02  0.00000000000E+00 0.  1.
         13    1    4    4    0    0 -0.59190382773E+02 -0.19047373876E+02  0.61938111291E+02  0.87764648319E+02  0.00000000000E+00 0. -1.
          1    1    1    2  501    0  0.30144148754E+02  0.88178066950E+02  0.91207885213E+02  0.13039524347E+03  0.00000000000E+00 0. -1.
<scales pt_clust_5="13000.00000" pt_clust_6="13000.00000" pt_clust_7="13000.00000" pt_clust_8="13000.00000" pt_clust_9="93.18820"></scales>
<clustering>
<clus scale="   83.825">  5  6 -1 -1</clus>
<clus scale="   93.188">  2  9  1 -1</clus>
<clus scale="   95.821">  7  8 -1 -1</clus>
<clus scale="  126.395">  1  5  2 -1</clus>
<clus scale="   93.188">  2  5  1 -1</clus>
</clustering>
</event>
<event>
 9    2  0.6175212E-005  0.1228908E+03  0.7546771E-02  0.1243339E+00
         21   -1    0    0  501  502  0.00000000000E+00  0.00000000000E+00  0.20748350002E+03  0.20748350002E+03  0.00000000000E+00 0. -1.
          2   -1    0    0  502    0 -0.00000000000E+00 -0.00000000000E+00 -0.87016273459E+03  0.87016273459E+03  0.00000000000E+00 0. -1.
         24    2    1    2    0    0 -0.66815696992E+02  0.10571442012E+01 -0.82643289450E+03  0.83573141224E+03  0.10483419939E+03 0.  0.
         23    2    1    2    0    0  0.28073504081E+02 -0.11286948860E+01  0.25644781358E+02  0.98474852451E+02  0.90830865739E+02 0.  0.
        -11    1    3    3    0    0 -0.89045380423E+02 -0.12679913118E+02 -0.48281816826E+03  0.49112446851E+03  0.00000000000E+00 0.  1.
         12    1    3    3    0    0  0.22229683431E+02  0.13737057319E+02 -0.34361472625E+03  0.34460694373E+03  0.00000000000E+00 0. -1.
        -13    1    4    4    0    0 -0.97773013175E+01  0.31110102982E+02 -0.13400708610E+02  0.35256391191E+02  0.00000000000E+00 0. -1.
         13    1    4    4    0    0  0.37850805398E+02 -0.32238797868E+02  0.39045489968E+02  0.63218461260E+02  0.00000000000E+00 0.  1.
          1    1    1    2  501    0  0.38742192912E+02  0.71550684796E-01  0.13810887858E+03  0.14343996993E+03  0.00000000000E+00 0. -1.
<scales pt_clust_5="13000.00000" pt_clust_6="13000.00000" pt_clust_7="13000.00000" pt_clust_8="13000.00000" pt_clust_9="38.74226"></scales>
<clustering>
<clus scale="   38.742">  1  9  2 -1</clus>
<clus scale="   90.831">  7  8 -1 -1</clus>
<clus scale="  104.834">  5  6 -1 -1</clus>
<clus scale="  111.185">  1  7  2 -1</clus>
<clus scale="   38.742">  1  5  2 -1</clus>
</clustering>
</event>
<event>
 9    2  0.6175212E-005  0.1063603E+03  0.7546771E-02  0.1271535E+00
         21   -1    0    0  501  502  0.00000000000E+00  0.00000000000E+00  0.68578391078E+02  0.68578391078E+02  0.00000000000E+00 0.  1.
          2   -1    0    0  502    0 -0.00000000000E+00 -0.00000000000E+00 -0.43584586256E+03  0.43584586256E+03  0.00000000000E+00 0. -1.
         24    2    1    2    0    0 -0.91312742119E-01 -0.55484403885E+02 -0.29599449218E+03  0.31190141812E+03  0.81186377004E+02 0.  0.
         23    2    1    2    0    0  0.30414664648E+02  0.53096709519E+02 -0.10175273329E+03  0.14946215556E+03  0.90779980310E+02 0.  0.
        -13    1    3    3    0    0  0.27766300721E+02 -0.16935679290E+02 -0.40132816805E+02  0.51656826010E+02  0.00000000000E+00 0.  1.
         14    1    3    3    0    0 -0.27857613463E+02 -0.38548724595E+02 -0.25586167538E+03  0.26024459211E+03  0.00000000000E+00 0. -1.
        -13    1    4    4    0    0 -0.21693683337E+02  0.53030767773E+02 -0.50566220954E+02  0.76418721063E+02  0.00000000000E+00 0. -1.
         13    1    4    4    0    0  0.52108347984E+02  0.65941746753E-01 -0.51186512336E+02  0.73043434497E+02  0.00000000000E+00 0.  1.
          1    1    1    2  501    0 -0.30323351905E+02  0.23876943654E+01  0.30479753990E+02  0.43060679958E+02  0.00000000000E+00 0. -1.
<scales pt_clust_5="13000.00000" pt_clust_6="13000.00000" pt_clust_7="13000.00000" pt_clust_8="13000.00000" pt_clust_9="30.41721"></scales>
<clustering>
<clus scale="   30.417">  1  9  2 -1</clus>
<clus scale="   81.186">  5  6 -1 -1</clus>
<clus scale="   90.780">  7  8 -1 -1</clus>
<clus scale="   98.299">  2  5  1 -1</clus>
<clus scale="   30.417">  1  5  2 -1</clus>
</clustering>
</event>
<event>
 9    2  0.6175212E-005  0.3079867E+03  0.7546771E-02  0.1081315E+00
         21   -1    0    0  501  502  0.00000000000E+00  0.00000000000E+00  0.12335437991E+03  0.12335437991E+03  0.00000000000E+00 0. -1.
          2   -1    0    0  502    0 -0.00000000000E+00 -0.00000000000E+00 -0.75070735873E+03  0.75070735873E+03  0.00000000000E+00 0. -1.
         24    2    1    2    0    0  0.89398059219E+02 -0.40370573228E+02 -0.33077029840E+03  0.35469098279E+03  0.82309821978E+02 0.  0.
         23    2    1    2    0    0  0.10225171670E+03 -0.94446539692E+02 -0.21365077216E+03  0.27080890850E+03  0.91187992935E+02 0.  0.
        -13    1    3    3    0    0  0.22350491295E+02 -0.47706266023E+02 -0.86502712405E+02  0.10128253321E+03  0.00000000000E+00 0.  1.
         14    1    3    3    0    0  0.67047567924E+02  0.73356927954E+01 -0.24426758599E+03  0.25340844958E+03  0.00000000000E+00 0. -1.
        -13    1    4    4    0    0  0.10694898419E+03 -0.64966155525E+02 -0.12338257896E+03  0.17573260191E+03  0.00000000000E+00 0. -1.
         13    1    4    4    0    0 -0.46972674978E+01 -0.29480384166E+02 -0.90268193194E+02  0.95076306591E+02  0.00000000000E+00 0.  1.
          1    1    1    2  501    0 -0.19164977591E+03  0.13481711292E+03 -0.82931908265E+02  0.24856184734E+03  0.00000000000E+00 0. -1.
<scales pt_clust_5="13000.00000" pt_clust_6="13000.00000" pt_clust_7="13000.00000" pt_clust_8="13000.00000" pt_clust_9="234.31878"></scales>
<clustering>
<clus scale="   82.310">  5  6 -1 -1</clus>
<clus scale="   91.188">  7  8 -1 -1</clus>
<clus scale="  123.217">  5  7 -1 -1</clus>
<clus scale="  234.319">  1  9  2 -1</clus>
<clus scale="  234.319">  1  5  2 -1</clus>
</clustering>
</event>
<event>
 9    2  0.6175212E-005  0.1188941E+03  0.7546771E-02  0.1257561E+00
         21   -1    0    0  501  502  0.00000000000E+00  0.00000000000E+00  0.26191900606E+02  0.26191900606E+02  0.00000000000E+00 0. -1.
          2   -1    0    0  502    0 -0.00000000000E+00 -0.00000000000E+00 -0.96030571421E+03  0.96030571421E+03  0.00000000000E+00 0. -1.
         23    2    1    2    0    0 -0.10780646956E+02  0.82353731663E+01 -0.18430369444E+03  0.20618232188E+03  0.91428957957E+02 0.  0.
         24    2    1    2    0    0 -0.85069804364E+02  0.16885415017E+01 -0.32838961012E+03  0.34801789698E+03  0.77698119667E+02 0.  0.
        -11    1    4    4    0    0  0.13755698364E+01  0.23550122578E+02 -0.10220131405E+03  0.10488855542E+03  0.00000000000E+00 0.  1.
         12    1    4    4    0    0 -0.86445374200E+02 -0.21861581076E+02 -0.22618829607E+03  0.24312934156E+03  0.00000000000E+00 0. -1.
        -13    1    3    3    0    0  0.28249356866E+02  0.29313607518E+02 -0.48518060692E+02  0.63334950559E+02  0.00000000000E+00 0. -1.
         13    1    3    3    0    0 -0.39030003822E+02 -0.21078234352E+02 -0.13578563375E+03  0.14284737132E+03  0.00000000000E+00 0.  1.
          1    1    1    2  501    0  0.95850451319E+02 -0.99239146680E+01 -0.42142050905E+03  0.43229739595E+03  0.00000000000E+00 0. -1.
<scales pt_clust_5="13000.00000" pt_clust_6="13000.00000" pt_clust_7="13000.00000" pt_clust_8="13000.00000" pt_clust_9="89.99347"></scales>
<clustering>
<clus scale="   77.698">  5  6 -1 -1</clus>
<clus scale="   91.429">  7  8 -1 -1</clus>
<clus scale="   92.430">  2  7  1 -1</clus>
<clus scale="   89.993">  1  9  2 -1</clus>
<clus scale="   89.993">  1  5  2 -1</clus>
</clustering>
</event>
<event>
 9    2  0.6175212E-005  0.1436234E+03  0.7546771E-02  0.1210857E+00
          2   -1    0    0  502    0 -0.00000000000E+00  0.00000000000E+00  0.47820345808E+03  0.47820345808E+03  0.00000000000E+00 0. -1.
         21   -1    0    0  501  502  0.00000000000E+00 -0.00000000000E+00 -0.82445658785E+02  0.82445658785E+02  0.00000000000E+00 0. -1.
         23    2    1    2    0    0 -0.85675967672E+02 -0.53514682287E+01  0.14287343455E+03  0.18981448199E+03  0.90816901647E+02 0.  0.
         24    2    1    2    0    0  0.15972819231E+03  0.35287633110E+02  0.12711930383E+03  0.22184887553E+03  0.79368089912E+02 0.  0.
        -11    1    4    4    0    0  0.48357432836E+02 -0.24848042670E+02  0.28435006151E+02  0.61354837705E+02  0.00000000000E+00 0.  1.
         12    1    4    4    0    0  0.11137075948E+03  0.60135675779E+02  0.98684297682E+02  0.16049403782E+03  0.00000000000E+00 0. -1.
        -11    1    3    3    0    0 -0.49342299385E+02  0.40996518206E+02  0.90970381825E+02  0.11131481206E+03  0.00000000000E+00 0. -1.
         11    1    3    3    0    0 -0.36333668288E+02 -0.46347986435E+02  0.51903052725E+02  0.78499669936E+02  0.00000000000E+00 0.  1.
          1    1    1    2  501    0 -0.74052224638E+02 -0.29936164881E+02  0.12576506091E+03  0.14898575935E+03  0.00000000000E+00 0. -1.
<scales pt_clust_5="13000.00000" pt_clust_6="13000.00000" pt_clust_7="13000.00000" pt_clust_8="13000.00000" pt_clust_9="79.87435"></scales>
<clustering>
<clus scale="   79.368">  5  6 -1 -1</clus>
<clus scale="   79.874">  2  9  1 -1</clus>
<clus scale="   90.817">  7  8 -1 -1</clus>
<clus scale="  136.672">  2  5  1 -1</clus>
<clus scale="   79.874">  2  5  1 -1</clus>
</clustering>
</event>
<event>
 9    2  0.6175212E-005  0.1050044E+03  0.7546771E-02  0.1274423E+00
         -3   -1    0    0    0  501 -0.00000000000E+00  0.00000000000E+00  0.25260214899E+03  0.25260214899E+03  0.00000000000E+00 0.  1.
         21   -1    0    0  501  502  0.00000000000E+00 -0.00000000000E+00 -0.16878577509E+03  0.16878577509E+03  0.00000000000E+00 0.  1.
         24    2    1    2    0    0 -0.30392703183E+02 -0.41833417775E+02  0.18881261878E+03  0.21185248508E+03  0.80978510580E+02 0.  0.
         23    2    1    2    0    0  0.80235024957E+02  0.17028087070E+02 -0.89934915944E+02  0.15186044355E+03  0.90805783021E+02 0.  0.
        -11    1    3    3    0    0 -0.35011198173E+02 -0.62791662079E+02  0.16387693690E+03  0.17895314268E+03  0.00000000000E+00 0.  1.
         12    1    3    3    0    0  0.46184949894E+01  0.20958244304E+02  0.24935681873E+02  0.32899342406E+02  0.00000000000E+00 0. -1.
        -11    1    4    4    0    0  0.73517998549E+02 -0.53529086617E+01 -0.10177476647E+03  0.12566484326E+03  0.00000000000E+00 0.  1.
         11    1    4    4    0    0  0.67170264081E+01  0.22380995732E+02  0.11839850530E+02  0.26195600285E+02  0.00000000000E+00 0. -1.
         -4    1    1    2    0  502 -0.49842321774E+02  0.24805330705E+02 -0.15061328929E+02  0.57674995451E+02  0.00000000000E+00 0.  1.
<scales pt_clust_5="13000.00000" pt_clust_6="13000.00000" pt_clust_7="13000.00000" pt_clust_8="13000.00000" pt_clust_9="55.67371"></scales>
<clustering>
<clus scale="   55.674">  2  9  1 -1</clus>
<clus scale="   80.979">  5  6 -1 -1</clus>
<clus scale="   90.806">  7  8 -1 -1</clus>
<clus scale="   96.632">  1  5  2 -1</clus>
<clus scale="   55.674">  2  5  1 -1</clus>
</clustering>
</event>
<event>
 9    2  0.6175212E-005  0.2480546E+03  0.7546771E-02  0.1114839E+00
          2   -1    0    0  502    0 -0.00000000000E+00  0.00000000000E+00  0.66509174639E+03  0.66509174639E+03  0.00000000000E+00 0. -1.
         21   -1    0    0  501  502  0.00000000000E+00 -0.00000000000E+00 -0.13564324463E+03  0.13564324463E+03  0.00000000000E+00 0.  1.
         24    2    1    2    0    0 -0.10571702914E+03  0.20387651750E+03  0.31293352845E+03  0.39636416651E+03  0.80221160691E+02 0.  0.
         23    2    1    2    0    0  0.68641922908E+02 -0.22903128485E+03  0.24365943590E+03  0.35198621158E+03  0.85774876380E+02 0.  0.
        -13    1    3    3    0    0 -0.86647292099E+02  0.20636675511E+03  0.29242588653E+03  0.36824976573E+03  0.00000000000E+00 0.  1.
         14    1    3    3    0    0 -0.19069737046E+02 -0.24902376059E+01  0.20507641920E+02  0.28114400784E+02  0.00000000000E+00 0. -1.
        -13    1    4    4    0    0  0.10022854628E+02 -0.79753023054E+02  0.13873132030E+03  0.16033521614E+03  0.00000000000E+00 0.  1.
         13    1    4    4    0    0  0.58619068280E+02 -0.14927826179E+03  0.10492811560E+03  0.19165099544E+03  0.00000000000E+00 0. -1.
          1    1    1    2  501    0  0.37075106237E+02  0.25154767346E+02 -0.27144462597E+02  0.52384612935E+02  0.00000000000E+00 0. -1.
<scales pt_clust_5="13000.00000" pt_clust_6="13000.00000" pt_clust_7="13000.00000" pt_clust_8="13000.00000" pt_clust_9="44.80319"></scales>
<clustering>
<clus scale="   44.803">  2  9  1 -1</clus>
<clus scale="   80.221">  5  6 -1 -1</clus>
<clus scale="   85.775">  7  8 -1 -1</clus>
<clus scale="  246.189">  1  5  2 -1</clus>
<clus scale="   44.803">  2  5  1 -1</clus>
</clustering>
</event>
<event>
 9    2  0.6946299E-005  0.4991046E+03  0.7546771E-02  0.1071632E+00
         21   -1    0    0  501  502  0.00000000000E+00  0.00000000000E+00  0.41682896251E+03  0.41682896251E+03  0.00000000000E+00 0.  1.
          2   -1    0    0  502    0 -0.00000000000E+00 -0.00000000000E+00 -0.71574885878E+03  0.71574885878E+03  0.00000000000E+00 0. -1.
         24    2    1    2    0    0 -0.19409418519E+02 -0.44686559328E+02  0.96062653127E+01  0.94589401513E+02  0.80506275740E+02 0.  0.
         23    2    1    2    0    0 -0.39042540990E+03 -0.26181539989E+03 -0.15509340153E+03  0.50371353786E+03  0.93241947131E+02 0.  0.
        -11    1    3    3    0    0 -0.15933812532E+01 -0.48387391642E+02 -0.25742533558E+02  0.54832076084E+02  0.00000000000E+00 0.  1.
         12    1    3    3    0    0 -0.17816037265E+02  0.37008323132E+01  0.35348798871E+02  0.39757325429E+02  0.00000000000E+00 0. -1.
        -13    1    4    4    0    0 -0.83733777404E+02 -0.44065092321E+02 -0.70998597763E+02  0.11829572572E+03  0.00000000000E+00 0. -1.
         13    1    4    4    0    0 -0.30669163250E+03 -0.21775030757E+03 -0.84094803771E+02  0.38541781214E+03  0.00000000000E+00 0.  1.
          1    1    1    2  501    0  0.40983482842E+03  0.30650195922E+03 -0.15343276005E+03  0.53427488192E+03  0.00000000000E+00 0. -1.
<scales pt_clust_5="13000.00000" pt_clust_6="13000.00000" pt_clust_7="13000.00000" pt_clust_8="13000.00000" pt_clust_9="490.31780"></scales>
<clustering>
<clus scale="   80.506">  5  6 -1 -1</clus>
<clus scale="   93.242">  7  8 -1 -1</clus>
<clus scale="   94.100">  2  5  1 -1</clus>
<clus scale="  490.318">  1  9  2 -1</clus>
<clus scale="  490.318">  1  5  2 -1</clus>
</clustering>
</event>
<event>
 9    2  0.6175212E-005  0.9188472E+02  0.7546771E-02  0.1303951E+00
          2   -1    0    0  502    0 -0.00000000000E+00  0.00000000000E+00  0.78397241036E+02  0.78397241036E+02  0.00000000000E+00 0. -1.
         21   -1    0    0  501  502  0.00000000000E+00 -0.00000000000E+00 -0.53995150756E+03  0.53995150756E+03  0.00000000000E+00 0. -1.
         23    2    1    2    0    0  0.43944120520E+01 -0.88914451266E+01  0.34452409986E+02  0.98175864062E+02  0.91395640360E+02 0.  0.
         24    2    1    2    0    0 -0.31601501416E+02 -0.21253545923E+02 -0.18003471377E+03  0.20160228414E+03  0.82344487988E+02 0.  0.
        -11    1    4    4    0    0 -0.33495369305E+02  0.86930174531E+01 -0.22594649196E+02  0.41328277119E+02  0.00000000000E+00 0.  1.
         12    1    4    4    0    0  0.18938678884E+01 -0.29946563376E+02 -0.15744006457E+03  0.16027400702E+03  0.00000000000E+00 0. -1.
        -13    1    3    3    0    0 -0.31204565375E+02  0.15798877356E+02  0.41510792544E+02  0.54281445482E+02  0.00000000000E+00 0.  1.
         13    1    3    3    0    0  0.35598977428E+02 -0.24690322482E+02 -0.70583825576E+01  0.43894418580E+02  0.00000000000E+00 0. -1.
          1    1    1    2  501    0  0.27207089364E+02  0.30144991049E+02 -0.31597196274E+03  0.31857060040E+03  0.00000000000E+00 0. -1.
<scales pt_clust_5="13000.00000" pt_clust_6="13000.00000" pt_clust_7="13000.00000" pt_clust_8="13000.00000" pt_clust_9="40.60722"></scales>
<clustering>
<clus scale="   40.607">  2  9  1 -1</clus>
<clus scale="   82.344">  5  6 -1 -1</clus>
<clus scale="   82.887">  2  5  1 -1</clus>
<clus scale="   91.396">  7  8 -1 -1</clus>
<clus scale="   40.607">  2  5  1 -1</clus>
</clustering>
</event>
<event>
 9    2  0.6175212E-005  0.1569154E+03  0.7546771E-02  0.1193762E+00
          2   -1    0    0  502    0 -0.00000000000E+00  0.00000000000E+00  0.74843971818E+03  0.74843971818E+03  0.00000000000E+00 0. -1.
         21   -1    0    0  501  502  0.00000000000E+00 -0.00000000000E+00 -0.16588198732E+03  0.16588198732E+03  0.00000000000E+00 0.  1.
         24    2    1    2    0    0 -0.36973815842E+02  0.12692768427E+03  0.69239761617E+03  0.70946722965E+03  0.80321796432E+02 0.  0.
         23    2    1    2    0    0  0.19262320446E+02 -0.78630432173E+02 -0.84581939886E+02  0.14754579032E+03  0.89787938133E+02 0.  0.
        -11    1    3    3    0    0 -0.40948681163E+02  0.26571360497E+02  0.14682063995E+03  0.15472275852E+03  0.00000000000E+00 0.  1.
         12    1    3    3    0    0  0.39748653208E+01  0.10035632378E+03  0.54557697622E+03  0.55474447113E+03  0.00000000000E+00 0. -1.
        -13    1    4    4    0    0 -0.15928960130E+02 -0.66059368768E+02 -0.86652629149E+02  0.11011925404E+03  0.00000000000E+00 0.  1.
         13    1    4    4    0    0  0.35191280575E+02 -0.12571063405E+02  0.20706892636E+01  0.37426536277E+02  0.00000000000E+00 0. -1.
          1    1    1    2  501    0  0.17711495396E+02 -0.48297252101E+02 -0.25257945422E+02  0.57308685525E+02  0.00000000000E+00 0. -1.
<scales pt_clust_5="13000.00000" pt_clust_6="13000.00000" pt_clust_7="13000.00000" pt_clust_8="13000.00000" pt_clust_9="51.44241"></scales>
<clustering>
<clus scale="   51.442">  2  9  1 -1</clus>
<clus scale="   80.322">  5  6 -1 -1</clus>
<clus scale="   89.788">  7  8 -1 -1</clus>
<clus scale="  151.698">  1  5  2 -1</clus>
<clus scale="   51.442">  2  5  1 -1</clus>
</clustering>
</event>
<event>
 9    2  0.6175212E-005  0.1000963E+03  0.7546771E-02  0.1285413E+00
         21   -1    0    0  501  502  0.00000000000E+00  0.00000000000E+00  0.21664584304E+02  0.21664584304E+02  0.00000000000E+00 0.  1.
          2   -1    0    0  502    0 -0.00000000000E+00 -0.00000000000E+00 -0.10401423532E+04  0.10401423532E+04  0.00000000000E+00 0. -1.
         24    2    1    2    0    0  0.38236451804E+02  0.78374962863E+01 -0.82374660971E+03  0.82863752636E+03  0.80982840725E+02 0.  0.
         23    2    1    2    0    0 -0.51667313322E+02  0.10327657780E+02 -0.16046319015E+03  0.19212486748E+03  0.91582517595E+02 0.  0.
        -11    1    3    3    0    0 -0.14203674494E+02  0.19343880069E+02 -0.97532915118E+02  0.10044202107E+03  0.00000000000E+00 0.  1.
         12    1    3    3    0    0  0.52440126298E+02 -0.11506383783E+02 -0.72621369459E+03  0.72819550529E+03  0.00000000000E+00 0. -1.
        -13    1    4    4    0    0  0.10065266370E+02 -0.30148417750E+02 -0.51159863249E+02  0.60229297585E+02  0.00000000000E+00 0.  1.
         13    1    4    4    0    0 -0.61732579692E+02  0.40476075529E+02 -0.10930332690E+03  0.13189556990E+03  0.00000000000E+00 0. -1.
          1    1    1    2  501    0  0.13430861518E+02 -0.18165154066E+02 -0.34267969072E+02  0.41044543702E+02  0.00000000000E+00 0. -1.
<scales pt_clust_5="13000.00000" pt_clust_6="13000.00000" pt_clust_7="13000.00000" pt_clust_8="13000.00000" pt_clust_9="22.59117"></scales>
<clustering>
<clus scale="   22.591">  1  9  2 -1</clus>
<clus scale="   80.983">  5  6 -1 -1</clus>
<clus scale="   90.499">  2  5  1 -1</clus>
<clus scale="   91.583">  7  8 -1 -1</clus>
<clus scale="   22.591">  1  5  2 -1</clus>
</clustering>
</event>
<event>
 9    2  0.6175212E-005  0.1592573E+03  0.7546771E-02  0.1191438E+00
         -3   -1    0    0    0  501 -0.00000000000E+00  0.00000000000E+00  0.22137758185E+03  0.22137758185E+03  0.00000000000E+00 0.  1.
         21   -1    0    0  501  502  0.00000000000E+00 -0.00000000000E+00 -0.25715935521E+03  0.25715935521E+03  0.00000000000E+00 0.  1.
         24    2    1    2    0    0  0.57955038117E+02  0.11504956693E+03 -0.52657932493E+01  0.15235637172E+03  0.81176019430E+02 0.  0.
         23    2    1    2    0    0 -0.76413813766E+02 -0.10715229812E+03 -0.14087993744E+03  0.21400527248E+03  0.92900021247E+02 0.  0.
        -11    1    3    3    0    0  0.77824822918E+01  0.97905839789E+02  0.50379078631E+01  0.98343789896E+02  0.00000000000E+00 0.  1.
         12    1    3    3    0    0  0.50172555826E+02  0.17143727138E+02 -0.10303701112E+02  0.54012581820E+02  0.00000000000E+00 0. -1.
        -11    1    4    4    0    0 -0.50261806957E+02 -0.12015991706E+03 -0.10232251501E+03  0.16563378878E+03  0.00000000000E+00 0.  1.
         11    1    4    4    0    0 -0.26152006809E+02  0.13007618942E+02 -0.38557422433E+02  0.48371483700E+02  0.00000000000E+00 0. -1.
         -4    1    1    2    0  502  0.18458775649E+02 -0.78972688107E+01  0.11036395733E+03  0.11217529287E+03  0.00000000000E+00 0.  1.
<scales pt_clust_5="13000.00000" pt_clust_6="13000.00000" pt_clust_7="13000.00000" pt_clust_8="13000.00000" pt_clust_9="20.07719"></scales>
<clustering>
<clus scale="   20.077">  2  9  1 -1</clus>
<clus scale="   81.176">  5  6 -1 -1</clus>
<clus scale="   92.900">  7  8 -1 -1</clus>
<clus scale="  152.715">  1  5  2 -1</clus>
<clus scale="   20.077">  2  5  1 -1</clus>
</clustering>
</event>
<event>
 9    2  0.7559836E-005  0.9766414E+02  0.7546771E-02  0.1292668E+00
         21   -1    0    0  501  502  0.00000000000E+00  0.00000000000E+00  0.66890938754E+02  0.66890938754E+02  0.00000000000E+00 0. -1.
          4   -1    0    0  502    0 -0.00000000000E+00 -0.00000000000E+00 -0.87205702112E+03  0.87205702112E+03  0.00000000000E+00 0. -1.
         23    2    1    2    0    0  0.28427507307E+02 -0.26748959028E+02 -0.38498329293E+03  0.39788490890E+03  0.92610123181E+02 0.  0.
         24    2    1    2    0    0  0.14490961990E+02 -0.43269546559E+02  0.19780042689E+02  0.93500899106E+02  0.79176552123E+02 0.  0.
        -11    1    4    4    0    0  0.31522555649E+02  0.35429557275E+01 -0.12551416594E+02  0.34113957678E+02  0.00000000000E+00 0.  1.
         12    1    4    4    0    0 -0.17031593658E+02 -0.46812502287E+02  0.32331459283E+02  0.59386941429E+02  0.00000000000E+00 0. -1.
        -13    1    3    3    0    0  0.58817278239E+02 -0.18698669556E+02 -0.31743383404E+03  0.32337803181E+03  0.00000000000E+00 0.  1.
         13    1    3    3    0    0 -0.30389770932E+02 -0.80502894718E+01 -0.67549458887E+02  0.74506877090E+02  0.00000000000E+00 0. -1.
          3    1    1    2  501    0 -0.42918469298E+02  0.70018505587E+02 -0.43996283213E+03  0.44756215187E+03  0.00000000000E+00 0. -1.
<scales pt_clust_5="13000.00000" pt_clust_6="13000.00000" pt_clust_7="13000.00000" pt_clust_8="13000.00000" pt_clust_9="82.12547"></scales>
<clustering>
<clus scale="   79.177">  5  6 -1 -1</clus>
<clus scale="   82.125">  1  9  2 -1</clus>
<clus scale="   85.033">  1  5  2 -1</clus>
<clus scale="   92.610">  7  8 -1 -1</clus>
<clus scale="   82.125">  1  5  2 -1</clus>
</clustering>
</event>
<event>
 9    2  0.6175212E-005  0.3414709E+03  0.7546771E-02  0.1066171E+00
         21   -1    0    0  501  502  0.00000000000E+00  0.00000000000E+00  0.23217943473E+03  0.23217943473E+03  0.00000000000E+00 0. -1.
          2   -1    0    0  502    0 -0.00000000000E+00 -0.00000000000E+00 -0.51118441327E+03  0.51118441327E+03  0.00000000000E+00 0. -1.
         24    2    1    2    0    0  0.10387079083E+03 -0.88245030797E+02 -0.16708715035E+03  0.23176673963E+03  0.84978698140E+02 0.  0.
         23    2    1    2    0    0  0.25356527989E+01 -0.15736456574E+03 -0.15833432784E+03  0.23993390402E+03  0.87911790113E+02 0.  0.
        -13    1    3    3    0    0  0.24338634859E+02 -0.52045515563E+02 -0.20294944211E+02  0.60934305588E+02  0.00000000000E+00 0.  1.
         14    1    3    3    0    0  0.79532155968E+02 -0.36199515234E+02 -0.14679220614E+03  0.17083243404E+03  0.00000000000E+00 0. -1.
        -13    1    4    4    0    0  0.42682471818E+02 -0.87492954150E+02 -0.10561842819E+03  0.14363865357E+03  0.00000000000E+00 0.  1.
         13    1    4    4    0    0 -0.40146819019E+02 -0.69871611589E+02 -0.52715899652E+02  0.96295250452E+02  0.00000000000E+00 0. -1.
          1    1    1    2  501    0 -0.10640644363E+03  0.24560959654E+03  0.46416499649E+02  0.27166320435E+03  0.00000000000E+00 0. -1.
<scales pt_clust_5="13000.00000" pt_clust_6="13000.00000" pt_clust_7="13000.00000" pt_clust_8="13000.00000" pt_clust_9="267.66846"></scales>
<clustering>
<clus scale="   84.979">  5  6 -1 -1</clus>
<clus scale="   87.912">  7  8 -1 -1</clus>
<clus scale="  144.106">  5  7 -1 -1</clus>
<clus scale="  267.668">  1  9  2 -1</clus>
<clus scale="  267.668">  1  5  2 -1</clus>
</clustering>
</event>
<event>
 9    2  0.6175212E-005  0.9490839E+02  0.7546771E-02  0.1298005E+00
         21   -1    0    0  501  502  0.00000000000E+00  0.00000000000E+00  0.98913471212E+02  0.98913471212E+02  0.00000000000E+00 0.  1.
          2   -1    0    0  502    0 -0.00000000000E+00 -0.00000000000E+00 -0.24714948806E+03  0.24714948806E+03  0.00000000000E+00 0. -1.
         24    2    1    2    0    0  0.24671945684E+02 -0.49871700772E+01 -0.18236152152E+03  0.20094999291E+03  0.80570455812E+02 0.  0.
         23    2    1    2    0    0 -0.16571829986E+02 -0.31050653090E+02  0.59367118807E+01  0.98648521757E+02  0.91964763309E+02 0.  0.
        -11    1    3    3    0    0 -0.23084974324E+02 -0.20995310847E+02 -0.96334620622E+02  0.10126242268E+03  0.00000000000E+00 0.  1.
         12    1    3    3    0    0  0.47756920009E+02  0.16008140770E+02 -0.86026900902E+02  0.99687570230E+02  0.00000000000E+00 0. -1.
        -11    1    4    4    0    0 -0.51930530776E+02 -0.12531109106E+01  0.68779454939E+01  0.52399011898E+02  0.00000000000E+00 0. -1.
         11    1    4    4    0    0  0.35358700790E+02 -0.29797542179E+02 -0.94123361323E+00  0.46249509859E+02  0.00000000000E+00 0.  1.
          1    1    1    2  501    0 -0.81001156982E+01  0.36037823167E+02  0.28188792795E+02  0.46464444602E+02  0.00000000000E+00 0. -1.
<scales pt_clust_5="13000.00000" pt_clust_6="13000.00000" pt_clust_7="13000.00000" pt_clust_8="13000.00000" pt_clust_9="36.93693"></scales>
<clustering>
<clus scale="   36.937">  1  9  2 -1</clus>
<clus scale="   80.570">  5  6 -1 -1</clus>
<clus scale="   83.915">  2  5  1 -1</clus>
<clus scale="   91.965">  7  8 -1 -1</clus>
<clus scale="   36.937">  1  5  2 -1</clus>
</clustering>
</event>
<event>
 9    2  0.6175212E-005  0.9810708E+02  0.7546771E-02  0.1290000E+00
          2   -1    0    0  502    0 -0.00000000000E+00  0.00000000000E+00  0.14313208614E+03  0.14313208614E+03  0.00000000000E+00 0. -1.
         21   -1    0    0  501  502  0.00000000000E+00 -0.00000000000E+00 -0.14434899292E+03  0.14434899292E+03  0.00000000000E+00 0. -1.
         24    2    1    2    0    0 -0.43778973439E+02  0.33841671849E+02  0.50500502952E+02  0.10882823830E+03  0.78939390571E+02 0.  0.
         23    2    1    2    0    0  0.25956099913E+02  0.98555453310E+01  0.16681135401E+02  0.95553727742E+02  0.89896627916E+02 0.  0.
        -13    1    3    3    0    0 -0.27544487773E+02 -0.22819591245E+02  0.94365950028E+01  0.36992997669E+02  0.00000000000E+00 0.  1.
         14    1    3    3    0    0 -0.16234485666E+02  0.56661263093E+02  0.41063907949E+02  0.71835240629E+02  0.00000000000E+00 0. -1.
        -13    1    4    4    0    0 -0.72806466298E+01  0.37981774611E+02 -0.15237652420E+02  0.41566922778E+02  0.00000000000E+00 0. -1.
         13    1    4    4    0    0  0.33236746543E+02 -0.28126229280E+02  0.31918787821E+02  0.53986804964E+02  0.00000000000E+00 0.  1.
          1    1    1    2  501    0  0.17822873526E+02 -0.43697217180E+02 -0.68398545129E+02  0.83099113026E+02  0.00000000000E+00 0. -1.
<scales pt_clust_5="13000.00000" pt_clust_6="13000.00000" pt_clust_7="13000.00000" pt_clust_8="13000.00000" pt_clust_9="47.19218"></scales>
<clustering>
<clus scale="   47.192">  2  9  1 -1</clus>
<clus scale="   78.939">  5  6 -1 -1</clus>
<clus scale="   88.176">  1  5  2 -1</clus>
<clus scale="   89.897">  7  8 -1 -1</clus>
<clus scale="   47.192">  2  5  1 -1</clus>
</clustering>
</event>
<event>
 9    2  0.6175212E-005  0.1080290E+03  0.7546771E-02  0.1272471E+00
          2   -1    0    0  502    0 -0.00000000000E+00  0.00000000000E+00  0.63772757885E+03  0.63772757885E+03  0.00000000000E+00 0. -1.
         21   -1    0    0  501  502  0.00000000000E+00 -0.00000000000E+00 -0.36303567028E+02  0.36303567028E+02  0.00000000000E+00 0. -1.
         24    2    1    2    0    0 -0.45860625340E+02 -0.44155969879E+02  0.42293242823E+03  0.43339078339E+03  0.70019894657E+02 0.  0.
         23    2    1    2    0    0  0.48403970491E+02  0.54155551944E+01  0.66169808204E+02  0.12179815803E+03  0.89911485270E+02 0.  0.
        -13    1    3    3    0    0 -0.17052754643E+02  0.15867165025E+02  0.59245053656E+02  0.63659561336E+02  0.00000000000E+00 0.  1.
         14    1    3    3    0    0 -0.28807870697E+02 -0.60023134904E+02  0.36368737458E+03  0.36973122206E+03  0.00000000000E+00 0. -1.
        -11    1    4    4    0    0  0.67180685059E+02 -0.17797884419E+02  0.32269822655E+02  0.76624738753E+02  0.00000000000E+00 0. -1.
         11    1    4    4    0    0 -0.18776714568E+02  0.23213439613E+02  0.33899985548E+02  0.45173419273E+02  0.00000000000E+00 0.  1.
          1    1    1    2  501    0 -0.25433451512E+01  0.38740414685E+02  0.11232177538E+03  0.11884220445E+03  0.00000000000E+00 0. -1.
<scales pt_clust_5="13000.00000" pt_clust_6="13000.00000" pt_clust_7="13000.00000" pt_clust_8="13000.00000" pt_clust_9="38.82383"></scales>
<clustering>
<clus scale="   38.824">  2  9  1 -1</clus>
<clus scale="   70.020">  5  6 -1 -1</clus>
<clus scale="   89.911">  7  8 -1 -1</clus>
<clus scale="   92.136">  1  5  2 -1</clus>
<clus scale="   38.824">  2  5  1 -1</clus>
</clustering>
</event>
<event>
 9    2  0.6175212E-005  0.9564984E+02  0.7546771E-02  0.1297469E+00
         21   -1    0    0  501  502  0.00000000000E+00  0.00000000000E+00  0.30718529316E+03  0.30718529316E+03  0.00000000000E+00 0. -1.
          2   -1    0    0  502    0 -0.00000000000E+00 -0.00000000000E+00 -0.65220706460E+02  0.65220706460E+02  0.00000000000E+00 0. -1.
         24    2    1    2    0    0  0.16049305183E+02  0.35140097524E+02  0.47351615330E+02  0.99909302697E+02  0.79039778847E+02 0.  0.
         23    2    1    2    0    0  0.16257599266E+02  0.93261895750E+01  0.19601158289E+03  0.21751540121E+03  0.92418189721E+02 0.  0.
        -11    1    3    3    0    0 -0.84135871874E+01  0.36822183337E+02 -0.86725348829E+01  0.38754025550E+02  0.00000000000E+00 0.  1.
         12    1    3    3    0    0  0.24462892370E+02 -0.16820858127E+01  0.56024150213E+02  0.61155277146E+02  0.00000000000E+00 0. -1.
        -11    1    4    4    0    0 -0.15777072218E+02 -0.35669286137E+02  0.77242633815E+02  0.86531141562E+02  0.00000000000E+00 0.  1.
         11    1    4    4    0    0  0.32034671484E+02  0.44995475712E+02  0.11876894908E+03  0.13098425965E+03  0.00000000000E+00 0. -1.
          1    1    1    2  501    0 -0.32306904449E+02 -0.44466287099E+02 -0.13986115241E+01  0.54981295707E+02  0.00000000000E+00 0. -1.
<scales pt_clust_5="13000.00000" pt_clust_6="13000.00000" pt_clust_7="13000.00000" pt_clust_8="13000.00000" pt_clust_9="54.96353"></scales>
<clustering>
<clus scale="   54.964">  1  9  2 -1</clus>
<clus scale="   79.040">  5  6 -1 -1</clus>
<clus scale="   82.795">  2  5  1 -1</clus>
<clus scale="   92.418">  7  8 -1 -1</clus>
<clus scale="   54.964">  1  5  2 -1</clus>
</clustering>
</event>
<event>
 9    2  0.6175212E-005  0.1285397E+03  0.7546771E-02  0.1232349E+00
         -1   -1    0    0    0  501 -0.00000000000E+00  0.00000000000E+00  0.10131942106E+03  0.10131942106E+03  0.00000000000E+00 0.  1.
         21   -1    0    0  501  502  0.00000000000E+00 -0.00000000000E+00 -0.24505789947E+03  0.24505789947E+03  0.00000000000E+00 0.  1.
         24    2    1    2    0    0 -0.88066024317E+02  0.23897606877E+01 -0.38199449909E+02  0.12606556673E+03  0.81682271925E+02 0.  0.
         23    2    1    2    0    0  0.93008453615E+02  0.24260659658E+02 -0.12845350980E+03  0.18481885359E+03  0.91752669771E+02 0.  0.
        -11    1    3    3    0    0 -0.84373791298E+02 -0.25710506917E+02 -0.15066743357E+02  0.89481694102E+02  0.00000000000E+00 0.  1.
         12    1    3    3    0    0 -0.36922330186E+01  0.28100267605E+02 -0.23132706552E+02  0.36583872629E+02  0.00000000000E+00 0. -1.
        -11    1    4    4    0    0  0.24194219803E+02  0.39558958056E+02 -0.97225325819E+02  0.10771738678E+03  0.00000000000E+00 0.  1.
         11    1    4    4    0    0  0.68814233811E+02 -0.15298298398E+02 -0.31228183986E+02  0.77101466808E+02  0.00000000000E+00 0. -1.
         -2    1    1    2    0  502 -0.49424292978E+01 -0.26650420345E+02  0.22914481306E+02  0.35492900212E+02  0.00000000000E+00 0.  1.
<scales pt_clust_5="13000.00000" pt_clust_6="13000.00000" pt_clust_7="13000.00000" pt_clust_8="13000.00000" pt_clust_9="27.10486"></scales>
<clustering>
<clus scale="   27.105">  2  9  1 -1</clus>
<clus scale="   81.682">  5  6 -1 -1</clus>
<clus scale="   91.753">  7  8 -1 -1</clus>
<clus scale="  121.556">  1  5  2 -1</clus>
<clus scale="   27.105">  2  5  1 -1</clus>
</clustering>
</event>
<event>
 9    2  0.6175212E-005  0.1078621E+03  0.7546771E-02  0.1270079E+00
         21   -1    0    0  501  502  0.00000000000E+00  0.00000000000E+00  0.41239382277E+02  0.41239382277E+02  0.00000000000E+00 0. -1.
          2   -1    0    0  502    0 -0.00000000000E+00 -0.00000000000E+00 -0.57984895479E+03  0.57984895479E+03  0.00000000000E+00 0. -1.
         24    2    1    2    0    0  0.68877182162E+01  0.76985651063E+02 -0.36028241972E+03  0.37699738173E+03  0.79682951380E+02 0.  0.
         23    2    1    2    0    0 -0.17284455574E+02 -0.57050019986E+01 -0.10708139842E+03  0.14277471481E+03  0.92665494379E+02 0.  0.
        -13    1    3    3    0    0  0.38246707629E+02  0.52187894582E+02 -0.27914133444E+03  0.28654191941E+03  0.00000000000E+00 0.  1.
         14    1    3    3    0    0 -0.31358989413E+02  0.24797756481E+02 -0.81141085279E+02  0.90455462321E+02  0.00000000000E+00 0. -1.
        -11    1    4    4    0    0  0.21315151766E+02  0.13495003345E+02  0.21737972656E+01  0.25321457396E+02  0.00000000000E+00 0. -1.
         11    1    4    4    0    0 -0.38599607341E+02 -0.19200005344E+02 -0.10925519569E+03  0.11745325741E+03  0.00000000000E+00 0.  1.
          1    1    1    2  501    0  0.10396737358E+02 -0.71280649064E+02 -0.71245754372E+02  0.10131624053E+03  0.00000000000E+00 0. -1.
<scales pt_clust_5="13000.00000" pt_clust_6="13000.00000" pt_clust_7="13000.00000" pt_clust_8="13000.00000" pt_clust_9="72.03487"></scales>
<clustering>
<clus scale="   72.035">  1  9  2 -1</clus>
<clus scale="   79.683">  5  6 -1 -1</clus>
<clus scale="   92.665">  7  8 -1 -1</clus>
<clus scale="   96.937">  2  5  1 -1</clus>
<clus scale="   72.035">  1  5  2 -1</clus>
</clustering>
</event>
<event>
 9    2  0.6175212E-005  0.9167611E+02  0.7546771E-02  0.1304123E+00
         21   -1    0    0  501  502  0.00000000000E+00  0.00000000000E+00  0.41611647027E+02  0.41611647027E+02  0.00000000000E+00 0.  1.
          2   -1    0    0  502    0 -0.00000000000E+00 -0.00000000000E+00 -0.28389755021E+03  0.28389755021E+03  0.00000000000E+00 0. -1.
         24    2    1    2    0    0 -0.15814421369E+02  0.74711582161E+01 -0.15505661059E+03  0.17516666418E+03  0.79592044982E+02 0.  0.
         23    2    1    2    0    0  0.35113865730E+02 -0.16250669457E+02 -0.85718437382E+02  0.12908621509E+03  0.88422466568E+02 0.  0.
        -13    1    3    3    0    0  0.63567074134E+00 -0.26534132672E+02 -0.15824485099E+02  0.30901110055E+02  0.00000000000E+00 0.  1.
         14    1    3    3    0    0 -0.16450092110E+02  0.34005290888E+02 -0.13923212549E+03  0.14426555412E+03  0.00000000000E+00 0. -1.
        -13    1    4    4    0    0  0.31601050692E+01  0.21733247728E+02  0.77222295104E+01  0.23279887231E+02  0.00000000000E+00 0.  1.
         13    1    4    4    0    0  0.31953760661E+02 -0.37983917185E+02 -0.93440666892E+02  0.10580632786E+03  0.00000000000E+00 0. -1.
          1    1    1    2  501    0 -0.19299444362E+02  0.87795112406E+01 -0.15108552156E+01  0.21256317973E+02  0.00000000000E+00 0. -1.
<scales pt_clust_5="13000.00000" pt_clust_6="13000.00000" pt_clust_7="13000.00000" pt_clust_8="13000.00000" pt_clust_9="21.20256"></scales>
<clustering>
<clus scale="   21.203">  1  9  2 -1</clus>
<clus scale="   79.592">  5  6 -1 -1</clus>
<clus scale="   83.192">  2  5  1 -1</clus>
<clus scale="   88.422">  7  8 -1 -1</clus>
<clus scale="   21.203">  1  5  2 -1</clus>
</clustering>
</event>
<event>
 9    2  0.6175212E-005  0.2963073E+03  0.7546771E-02  0.1087631E+00
          2   -1    0    0  502    0 -0.00000000000E+00  0.00000000000E+00  0.21521506743E+04  0.21521506743E+04  0.00000000000E+00 0. -1.
         21   -1    0    0  501  502  0.00000000000E+00 -0.00000000000E+00 -0.78196137244E+02  0.78196137244E+02  0.00000000000E+00 0.  1.
         23    2    1    2    0    0 -0.12084125314E+03  0.16125021282E+03  0.41104127093E+03  0.46722475706E+03  0.93486938145E+02 0.  0.
         24    2    1    2    0    0  0.10466158778E+03 -0.35889021272E+03  0.12039139059E+04  0.12631182906E+04  0.79390746920E+02 0.  0.
        -11    1    4    4    0    0  0.93565287704E+02 -0.35779419671E+03  0.11823937685E+04  0.12388810169E+04  0.00000000000E+00 0.  1.
         12    1    4    4    0    0  0.11096300072E+02 -0.10960160043E+01  0.21520137407E+02  0.24237273782E+02  0.00000000000E+00 0. -1.
        -11    1    3    3    0    0 -0.10754061791E+02  0.83002544837E+02  0.11924235638E+03  0.14568394506E+03  0.00000000000E+00 0.  1.
         11    1    3    3    0    0 -0.11008719135E+03  0.78247667985E+02  0.29179891456E+03  0.32154081200E+03  0.00000000000E+00 0. -1.
          1    1    1    2  501    0  0.16179665365E+02  0.19763999990E+03  0.45899936026E+03  0.50000376383E+03  0.00000000000E+00 0. -1.
<scales pt_clust_5="13000.00000" pt_clust_6="13000.00000" pt_clust_7="13000.00000" pt_clust_8="13000.00000" pt_clust_9="198.30116"></scales>
<clustering>
<clus scale="   79.391">  5  6 -1 -1</clus>
<clus scale="   93.487">  7  8 -1 -1</clus>
<clus scale="  198.301">  2  9  1 -1</clus>
<clus scale="  292.166">  2  5  1 -1</clus>
<clus scale="  198.301">  2  5  1 -1</clus>
</clustering>
</event>
<event>
 9    2  0.6175212E-005  0.1106910E+03  0.7546771E-02  0.1265076E+00
          2   -1    0    0  502    0 -0.00000000000E+00  0.00000000000E+00  0.23450372975E+03  0.23450372975E+03  0.00000000000E+00 0. -1.
         21   -1    0    0  501  502  0.00000000000E+00 -0.00000000000E+00 -0.14097527258E+03  0.14097527258E+03  0.00000000000E+00 0.  1.
         24    2    1    2    0    0  0.22025973849E+02  0.62792297431E+02  0.79821552221E+02  0.13135890862E+03  0.80347162574E+02 0.  0.
         23    2    1    2    0    0  0.78695533581E+02 -0.41021158264E+02 -0.28499146332E+02  0.13276410903E+03  0.94543031870E+02 0.  0.
        -13    1    3    3    0    0  0.34270494275E+02  0.68933550343E+02  0.86771628656E+02  0.11599834775E+03  0.00000000000E+00 0.  1.
         14    1    3    3    0    0 -0.12244520426E+02 -0.61412529111E+01 -0.69500764352E+01  0.15360560870E+02  0.00000000000E+00 0. -1.
        -13    1    4    4    0    0  0.46523513810E+02 -0.54831409235E+02 -0.53597675178E+02  0.89686295276E+02  0.00000000000E+00 0.  1.
         13    1    4    4    0    0  0.32172019771E+02  0.13810250970E+02  0.25098528845E+02  0.43077813758E+02  0.00000000000E+00 0. -1.
          1    1    1    2  501    0 -0.10072150743E+03 -0.21771139167E+02  0.42206051275E+02  0.11135598468E+03  0.00000000000E+00 0. -1.
<scales pt_clust_5="13000.00000" pt_clust_6="13000.00000" pt_clust_7="13000.00000" pt_clust_8="13000.00000" pt_clust_9="103.04764"></scales>
<clustering>
<clus scale="   80.347">  5  6 -1 -1</clus>
<clus scale="   94.543">  7  8 -1 -1</clus>
<clus scale="  103.048">  2  9  1 -1</clus>
<clus scale="   98.842">  1  5  2 -1</clus>
<clus scale="  103.048">  2  5  1 -1</clus>
</clustering>
</event>
<event>
 9    2  0.6175212E-005  0.9307359E+02  0.7546771E-02  0.1303030E+00
          2   -1    0    0  502    0 -0.00000000000E+00  0.00000000000E+00  0.34164821337E+03  0.34164821337E+03  0.00000000000E+00 0. -1.
         21   -1    0    0  501  502  0.00000000000E+00 -0.00000000000E+00 -0.45956576488E+02  0.45956576488E+02  0.00000000000E+00 0.  1.
         23    2    1    2    0    0 -0.34356657577E+02 -0.79719474645E+00  0.18204282963E+03  0.20634286303E+03  0.90866769856E+02 0.  0.
         24    2    1    2    0    0 -0.13653939300E+02  0.19925627554E+02  0.40326202978E+02  0.91556193169E+02  0.78567634361E+02 0.  0.
        -11    1    4    4    0    0 -0.10713610032E+02  0.49544383695E+02  0.16118727097E+02  0.53190607807E+02  0.00000000000E+00 0.  1.
         12    1    4    4    0    0 -0.29403292674E+01 -0.29618756142E+02  0.24207475882E+02  0.38365585362E+02  0.00000000000E+00 0. -1.
        -13    1    3    3    0    0  0.11268921088E+02  0.26667424785E+02  0.12498515966E+03  0.12829431111E+03  0.00000000000E+00 0.  1.
         13    1    3    3    0    0 -0.45625578666E+02 -0.27464619532E+02  0.57057669966E+02  0.78048551918E+02  0.00000000000E+00 0. -1.
          1    1    1    2  501    0  0.48010596877E+02 -0.19128432807E+02  0.73322604280E+02  0.89705733666E+02  0.00000000000E+00 0. -1.
<scales pt_clust_5="13000.00000" pt_clust_6="13000.00000" pt_clust_7="13000.00000" pt_clust_8="13000.00000" pt_clust_9="51.68092"></scales>
<clustering>
<clus scale="   51.681">  2  9  1 -1</clus>
<clus scale="   78.568">  5  6 -1 -1</clus>
<clus scale="   81.110">  2  5  1 -1</clus>
<clus scale="   90.867">  7  8 -1 -1</clus>
<clus scale="   51.681">  2  5  1 -1</clus>
</clustering>
</event>
<event>
 9    2  0.6175212E-005  0.1043199E+03  0.7546771E-02  0.1276991E+00
         21   -1    0    0  501  502  0.00000000000E+00  0.00000000000E+00  0.60281870396E+02  0.60281870396E+02  0.00000000000E+00 0. -1.
          2   -1    0    0  502    0 -0.00000000000E+00 -0.00000000000E+00 -0.23257334763E+03  0.23257334763E+03  0.00000000000E+00 0. -1.
         23    2    1    2    0    0 -0.38387805213E+02  0.25764794031E+02 -0.10686538807E+03  0.14821643435E+03  0.91708516736E+02 0.  0.
         24    2    1    2    0    0  0.30457886412E+02 -0.50245075367E+02 -0.35282909717E+02  0.10500572862E+03  0.79555445328E+02 0.  0.
        -11    1    4    4    0    0 -0.23124899251E+02 -0.22538732295E+02 -0.30624354436E+02  0.44504005477E+02  0.00000000000E+00 0.  1.
         12    1    4    4    0    0  0.53582785663E+02 -0.27706343073E+02 -0.46585552804E+01  0.60501723142E+02  0.00000000000E+00 0. -1.
        -11    1    3    3    0    0 -0.62408157054E+02 -0.46395465256E+01 -0.53911189130E+02  0.82599756490E+02  0.00000000000E+00 0. -1.
         11    1    3    3    0    0  0.24020351841E+02  0.30404340556E+02 -0.52954198944E+02  0.65616677857E+02  0.00000000000E+00 0.  1.
          1    1    1    2  501    0  0.79299188019E+01  0.24480281337E+02 -0.30143179448E+02  0.39633055064E+02  0.00000000000E+00 0. -1.
<scales pt_clust_5="13000.00000" pt_clust_6="13000.00000" pt_clust_7="13000.00000" pt_clust_8="13000.00000" pt_clust_9="25.73263"></scales>
<clustering>
<clus scale="   25.733">  1  9  2 -1</clus>
<clus scale="   79.555">  5  6 -1 -1</clus>
<clus scale="   91.709">  7  8 -1 -1</clus>
<clus scale="   93.815">  1  5  2 -1</clus>
<clus scale="   25.733">  1  5  2 -1</clus>
</clustering>
</event>
<event>
 9    2  0.6175212E-005  0.1725410E+03  0.7546771E-02  0.1175723E+00
         -1   -1    0    0    0  501 -0.00000000000E+00  0.00000000000E+00  0.13120948720E+03  0.13120948720E+03  0.00000000000E+00 0.  1.
         21   -1    0    0  501  502  0.00000000000E+00 -0.00000000000E+00 -0.52056128643E+03  0.52056128643E+03  0.00000000000E+00 0. -1.
         23    2    1    2    0    0  0.12984086166E+03  0.12175673075E+03  0.11874924329E+02  0.19704187876E+03  0.83672799160E+02 0.  0.
         24    2    1    2    0    0 -0.76125974853E+02 -0.50667183487E+02 -0.18878331175E+03  0.22435698683E+03  0.79590145215E+02 0.  0.
        -13    1    4    4    0    0 -0.30814119472E+02 -0.32930138175E+02 -0.21164496258E+02  0.49818067615E+02  0.00000000000E+00 0.  1.
         14    1    4    4    0    0 -0.45311855381E+02 -0.17737045312E+02 -0.16761881549E+03  0.17453891922E+03  0.00000000000E+00 0. -1.
        -11    1    3    3    0    0  0.97450516886E+00  0.20106435022E+02 -0.21605493399E+02  0.29529912540E+02  0.00000000000E+00 0. -1.
         11    1    3    3    0    0  0.12886635649E+03  0.10165029573E+03  0.33480417727E+02  0.16751196622E+03  0.00000000000E+00 0.  1.
         -2    1    1    2    0  502 -0.53714886806E+02 -0.71089547262E+02 -0.21244341180E+03  0.23037190803E+03  0.00000000000E+00 0.  1.
<scales pt_clust_5="13000.00000" pt_clust_6="13000.00000" pt_clust_7="13000.00000" pt_clust_8="13000.00000" pt_clust_9="89.10114"></scales>
<clustering>
<clus scale="   79.590">  5  6 -1 -1</clus>
<clus scale="   83.673">  7  8 -1 -1</clus>
<clus scale="   89.101">  2  9  1 -1</clus>
<clus scale="  170.598">  2  5  1 -1</clus>
<clus scale="   89.101">  2  5  1 -1</clus>
</clustering>
</event>
<event>
 9    2  0.6175212E-005  0.1143061E+03  0.7546771E-02  0.1260633E+00
         21   -1    0    0  501  502  0.00000000000E+00  0.00000000000E+00  0.91974882094E+02  0.91974882094E+02  0.00000000000E+00 0.  1.
          2   -1    0    0  502    0 -0.00000000000E+00 -0.00000000000E+00 -0.27264004917E+03  0.27264004917E+03  0.00000000000E+00 0. -1.
         24    2    1    2    0    0 -0.55092620247E+02  0.51337539277E+01 -0.75810232545E+02  0.12382897176E+03  0.80776671464E+02 0.  0.
         23    2    1    2    0    0 -0.41175890815E+02 -0.32040120149E+02 -0.15839633471E+02  0.10693790167E+03  0.91993464664E+02 0.  0.
        -11    1    3    3    0    0 -0.29534215496E+02  0.26609610584E+02  0.13292770940E+01  0.39775724230E+02  0.00000000000E+00 0.  1.
         12    1    3    3    0    0 -0.25558404751E+02 -0.21475856656E+02 -0.77139509639E+02  0.84053247527E+02  0.00000000000E+00 0. -1.
        -13    1    4    4    0    0 -0.50834925628E+02 -0.55707373116E+02  0.25327848901E+01  0.75458041867E+02  0.00000000000E+00 0.  1.
         13    1    4    4    0    0  0.96590348135E+01  0.23667252968E+02 -0.18372418361E+02  0.31479859800E+02  0.00000000000E+00 0. -1.
          1    1    1    2  501    0  0.96268511062E+02  0.26906366221E+02 -0.89015301063E+02  0.13384805784E+03  0.00000000000E+00 0. -1.
<scales pt_clust_5="13000.00000" pt_clust_6="13000.00000" pt_clust_7="13000.00000" pt_clust_8="13000.00000" pt_clust_9="67.84605"></scales>
<clustering>
<clus scale="   80.777">  5  6 -1 -1</clus>
<clus scale="   91.993">  7  8 -1 -1</clus>
<clus scale="   97.910">  2  5  1 -1</clus>
<clus scale="   67.846">  1  9  2 -1</clus>
<clus scale="   67.846">  1  5  2 -1</clus>
</clustering>
</event>
<event>
 9    2  0.6175212E-005  0.1752037E+03  0.7546771E-02  0.1206543E+00
         21   -1    0    0  501  502  0.00000000000E+00  0.00000000000E+00  0.14409503669E+04  0.14409503669E+04  0.00000000000E+00 0.  1.
         -3   -1    0    0    0  501 -0.00000000000E+00 -0.00000000000E+00 -0.44064042154E+02  0.44064042154E+02  0.00000000000E+00 0.  1.
         24    2    1    2    0    0  0.60965029236E+01  0.18361392183E+02  0.51004298707E+02  0.97053018452E+02  0.80271675162E+02 0.  0.
         23    2    1    2    0    0 -0.14503619629E+03 -0.59234501758E+02  0.56213776916E+03  0.59094827297E+03  0.93149156621E+02 0.  0.
        -13    1    3    3    0    0 -0.30920463865E+02  0.77462794042E+01 -0.15342331231E+01  0.31912909637E+02  0.00000000000E+00 0.  1.
         14    1    3    3    0    0  0.37016966789E+02  0.10615112779E+02  0.52538531830E+02  0.65140108815E+02  0.00000000000E+00 0. -1.
        -11    1    4    4    0    0 -0.41117366077E+01 -0.39446463753E+02  0.13702189412E+03  0.14264616836E+03  0.00000000000E+00 0. -1.
         11    1    4    4    0    0 -0.14092445969E+03 -0.19788038005E+02  0.42511587504E+03  0.44830210461E+03  0.00000000000E+00 0.  1.
         -4    1    1    2    0  502  0.13893969337E+03  0.40873109575E+02  0.78374425684E+03  0.79701311758E+03  0.00000000000E+00 0.  1.
<scales pt_clust_5="13000.00000" pt_clust_6="13000.00000" pt_clust_7="13000.00000" pt_clust_8="13000.00000" pt_clust_9="148.38991"></scales>
<clustering>
<clus scale="   80.272">  5  6 -1 -1</clus>
<clus scale="   82.570">  2  5  1 -1</clus>
<clus scale="   93.149">  7  8 -1 -1</clus>
<clus scale="  148.390">  1  9  2 -1</clus>
<clus scale="  148.390">  1  5  2 -1</clus>
</clustering>
</event>
<event>
 9    2  0.6175212E-005  0.1035636E+03  0.7546771E-02  0.1280972E+00
         21   -1    0    0  501  502  0.00000000000E+00  0.00000000000E+00  0.14493864001E+03  0.14493864001E+03  0.00000000000E+00 0. -1.
         -1   -1    0    0    0  501 -0.00000000000E+00 -0.00000000000E+00 -0.11132217450E+03  0.11132217450E+03  0.00000000000E+00 0.  1.
         23    2    1    2    0    0 -0.39846063409E+02  0.10836203965E+02 -0.48840324140E+02  0.11626658999E+03  0.97094853630E+02 0.  0.
         24    2    1    2    0    0  0.20636686679E+02 -0.10365365907E+01  0.83606393676E+02  0.11839896521E+03  0.81248622469E+02 0.  0.
        -11    1    4    4    0    0  0.34374901056E+00 -0.34800884256E+02  0.12258626731E+02  0.36898423241E+02  0.00000000000E+00 0.  1.
         12    1    4    4    0    0  0.20292937668E+02  0.33764347665E+02  0.71347766945E+02  0.81500541964E+02  0.00000000000E+00 0. -1.
        -13    1    3    3    0    0 -0.58970254226E+02 -0.25640795356E+02 -0.30904318731E+02  0.71344363381E+02  0.00000000000E+00 0.  1.
         13    1    3    3    0    0  0.19124190817E+02  0.36476999322E+02 -0.17936005409E+02  0.44922226614E+02  0.00000000000E+00 0. -1.
         -2    1    1    2    0  502  0.19209376730E+02 -0.97996673748E+01 -0.11496040222E+01  0.21595259305E+02  0.00000000000E+00 0.  1.
<scales pt_clust_5="13000.00000" pt_clust_6="13000.00000" pt_clust_7="13000.00000" pt_clust_8="13000.00000" pt_clust_9="21.56465"></scales>
<clustering>
<clus scale="   21.565">  1  9  2 -1</clus>
<clus scale="   81.249">  5  6 -1 -1</clus>
<clus scale="   88.878">  1  5  2 -1</clus>
<clus scale="   97.095">  7  8 -1 -1</clus>
<clus scale="   21.565">  1  5  2 -1</clus>
</clustering>
</event>
<event>
 9    2  0.6175212E-005  0.9407283E+02  0.7546771E-02  0.1300478E+00
         -3   -1    0    0    0  501 -0.00000000000E+00  0.00000000000E+00  0.13052990302E+03  0.13052990302E+03  0.00000000000E+00 0.  1.
         21   -1    0    0  501  502  0.00000000000E+00 -0.00000000000E+00 -0.16811742125E+03  0.16811742125E+03  0.00000000000E+00 0.  1.
         24    2    1    2    0    0 -0.60532603951E+01 -0.26592128063E+02  0.84501924739E+02  0.11887178644E+03  0.79032544502E+02 0.  0.
         23    2    1    2    0    0  0.19059043991E+02 -0.49181380053E+01 -0.66543925105E+02  0.11460382749E+03  0.91205855450E+02 0.  0.
        -11    1    3    3    0    0 -0.35756464492E+02 -0.37158140155E+02  0.58689213501E+02  0.78126025843E+02  0.00000000000E+00 0.  1.
         12    1    3    3    0    0  0.29703204097E+02  0.10566012091E+02  0.25812711239E+02  0.40745760597E+02  0.00000000000E+00 0. -1.
        -13    1    4    4    0    0  0.39143084092E+02 -0.37726446727E+02 -0.44595272749E+02  0.70315035138E+02  0.00000000000E+00 0.  1.
         13    1    4    4    0    0 -0.20084040102E+02  0.32808308722E+02 -0.21948652356E+02  0.44288792355E+02  0.00000000000E+00 0. -1.
         -4    1    1    2    0  502 -0.13005783595E+02  0.31510266069E+02 -0.55545517864E+02  0.65171710346E+02  0.00000000000E+00 0.  1.
<scales pt_clust_5="13000.00000" pt_clust_6="13000.00000" pt_clust_7="13000.00000" pt_clust_8="13000.00000" pt_clust_9="34.08881"></scales>
<clustering>
<clus scale="   34.089">  2  9  1 -1</clus>
<clus scale="   79.033">  5  6 -1 -1</clus>
<clus scale="   82.325">  1  5  2 -1</clus>
<clus scale="   91.206">  7  8 -1 -1</clus>
<clus scale="   34.089">  2  5  1 -1</clus>
</clustering>
</event>
<event>
 9    2  0.6175212E-005  0.1704304E+03  0.7546771E-02  0.1178975E+00
         -3   -1    0    0    0  501 -0.00000000000E+00  0.00000000000E+00  0.37703675418E+03  0.37703675418E+03  0.00000000000E+00 0.  1.
         21   -1    0    0  501  502  0.00000000000E+00 -0.00000000000E+00 -0.14187200948E+03  0.14187200948E+03  0.00000000000E+00 0.  1.
         23    2    1    2    0    0 -0.11068659205E+03  0.44349949772E+02  0.11739772318E+03  0.19052912103E+03  0.91108072349E+02 0.  0.
         24    2    1    2    0    0  0.19065332041E+03 -0.66212457478E+02  0.53247299972E+02  0.22332993366E+03  0.79424216746E+02 0.  0.
        -13    1    4    4    0    0  0.17049612064E+03 -0.69307582114E+02  0.70030815789E+02  0.19691821463E+03  0.00000000000E+00 0.  1.
         14    1    4    4    0    0  0.20157199771E+02  0.30951246367E+01 -0.16783515817E+02  0.26411719033E+02  0.00000000000E+00 0. -1.
        -11    1    3    3    0    0 -0.29155163207E+02  0.60236020841E+02  0.49330520504E+02  0.83137849392E+02  0.00000000000E+00 0. -1.
         11    1    3    3    0    0 -0.81531428847E+02 -0.15886071068E+02  0.68067202673E+02  0.10739127164E+03  0.00000000000E+00 0.  1.
         -4    1    1    2    0  502 -0.79966728358E+02  0.21862507705E+02  0.64519721550E+02  0.10504970898E+03  0.00000000000E+00 0.  1.
<scales pt_clust_5="13000.00000" pt_clust_6="13000.00000" pt_clust_7="13000.00000" pt_clust_8="13000.00000" pt_clust_9="82.90147"></scales>
<clustering>
<clus scale="   79.424">  5  6 -1 -1</clus>
<clus scale="   82.901">  2  9  1 -1</clus>
<clus scale="   91.108">  7  8 -1 -1</clus>
<clus scale="  164.481">  2  5  1 -1</clus>
<clus scale="   82.901">  2  5  1 -1</clus>
</clustering>
</event>
<event>
 9    2  0.6175212E-005  0.1021180E+03  0.7546771E-02  0.1281387E+00
         21   -1    0    0  501  502  0.00000000000E+00  0.00000000000E+00  0.56866356004E+02  0.56866356004E+02  0.00000000000E+00 0. -1.
          2   -1    0    0  502    0 -0.00000000000E+00 -0.00000000000E+00 -0.31012014121E+03  0.31012014121E+03  0.00000000000E+00 0. -1.
         24    2    1    2    0    0 -0.31765091874E+02  0.30788728858E+02 -0.84850455695E+02  0.12415445537E+03  0.79106017914E+02 0.  0.
         23    2    1    2    0    0  0.61924193262E+02  0.15231449427E+01 -0.58641806290E+02  0.12450528846E+03  0.90696084419E+02 0.  0.
        -13    1    3    3    0    0  0.71922454233E+01 -0.22490933547E+02 -0.14600614209E+02  0.27762356192E+02  0.00000000000E+00 0.  1.
         14    1    3    3    0    0 -0.38957337298E+02  0.53279662405E+02 -0.70249841486E+02  0.96392099179E+02  0.00000000000E+00 0. -1.
        -11    1    4    4    0    0 -0.59659154583E+01 -0.31173014446E+02 -0.30646204395E+02  0.44119596788E+02  0.00000000000E+00 0.  1.
         11    1    4    4    0    0  0.67890108721E+02  0.32696159389E+02 -0.27995601895E+02  0.80385691677E+02  0.00000000000E+00 0. -1.
          1    1    1    2  501    0 -0.30159101388E+02 -0.32311873801E+02 -0.10976152322E+03  0.11832675337E+03  0.00000000000E+00 0. -1.
<scales pt_clust_5="13000.00000" pt_clust_6="13000.00000" pt_clust_7="13000.00000" pt_clust_8="13000.00000" pt_clust_9="44.19989"></scales>
<clustering>
<clus scale="   44.200">  1  9  2 -1</clus>
<clus scale="   79.106">  5  6 -1 -1</clus>
<clus scale="   90.696">  7  8 -1 -1</clus>
<clus scale="   91.979">  2  5  1 -1</clus>
<clus scale="   44.200">  1  5  2 -1</clus>
</clustering>
</event>
<event>
 9    2  0.6175212E-005  0.9165333E+02  0.7546771E-02  0.1302352E+00
         21   -1    0    0  501  502  0.00000000000E+00  0.00000000000E+00  0.31703537348E+03  0.31703537348E+03  0.00000000000E+00 0.  1.
         -1   -1    0    0    0  501 -0.00000000000E+00 -0.00000000000E+00 -0.50328927054E+02  0.50328927054E+02  0.00000000000E+00 0.  1.
         24    2    1    2    0    0  0.24253781296E+01  0.10226631951E+02  0.50093554697E+02  0.99120527876E+02  0.84882556301E+02 0.  0.
         23    2    1    2    0    0  0.44616240447E+02  0.16883488194E+02  0.12318461756E+03  0.16018492338E+03  0.90604076012E+02 0.  0.
        -11    1    3    3    0    0 -0.11449226071E+02  0.44268112833E+02  0.40613924856E+02  0.61157513714E+02  0.00000000000E+00 0.  1.
         12    1    3    3    0    0  0.13874604200E+02 -0.34041480882E+02  0.94796298411E+01  0.37963014163E+02  0.00000000000E+00 0. -1.
        -11    1    4    4    0    0  0.70539022388E+02 -0.49133712829E+00  0.93404940880E+02  0.11704904131E+03  0.00000000000E+00 0.  1.
         11    1    4    4    0    0 -0.25922781941E+02  0.17374825322E+02  0.29779676675E+02  0.43135882064E+02  0.00000000000E+00 0. -1.
         -2    1    1    2    0  502 -0.47041618576E+02 -0.27110120145E+02  0.93428274168E+02  0.10805884928E+03  0.00000000000E+00 0.  1.
<scales pt_clust_5="13000.00000" pt_clust_6="13000.00000" pt_clust_7="13000.00000" pt_clust_8="13000.00000" pt_clust_9="54.29431"></scales>
<clustering>
<clus scale="   54.294">  1  9  2 -1</clus>
<clus scale="   84.883">  5  6 -1 -1</clus>
<clus scale="   86.002">  2  5  1 -1</clus>
<clus scale="   90.604">  7  8 -1 -1</clus>
<clus scale="   54.294">  1  5  2 -1</clus>
</clustering>
</event>
<event>
 9    2  0.6175212E-005  0.1937561E+03  0.7546771E-02  0.1167560E+00
         21   -1    0    0  501  502  0.00000000000E+00  0.00000000000E+00  0.11209784471E+04  0.11209784471E+04  0.00000000000E+00 0. -1.
          4   -1    0    0  502    0 -0.00000000000E+00 -0.00000000000E+00 -0.65298406333E+02  0.65298406333E+02  0.00000000000E+00 0. -1.
         24    2    1    2    0    0  0.92193985613E+02 -0.78478979596E+02  0.37753010615E+03  0.40446324942E+03  0.80017859630E+02 0.  0.
         23    2    1    2    0    0  0.49391901819E+02  0.17999431440E+03  0.44147128986E+03  0.48792806916E+03  0.91320248113E+02 0.  0.
        -11    1    3    3    0    0  0.22717434683E+02  0.14098024913E+02  0.44757239362E+02  0.52134888705E+02  0.00000000000E+00 0.  1.
         12    1    3    3    0    0  0.69476550930E+02 -0.92577004510E+02  0.33277286679E+03  0.35232836072E+03  0.00000000000E+00 0. -1.
        -13    1    4    4    0    0  0.63168247350E+02  0.69766457141E+02  0.24120588612E+03  0.25891671541E+03  0.00000000000E+00 0. -1.
         13    1    4    4    0    0 -0.13776345531E+02  0.11022785726E+03  0.20026540374E+03  0.22901135375E+03  0.00000000000E+00 0.  1.
          3    1    1    2  501    0 -0.14158588743E+03 -0.10151533480E+03  0.23667864479E+03  0.29388553489E+03  0.00000000000E+00 0. -1.
<scales pt_clust_5="13000.00000" pt_clust_6="13000.00000" pt_clust_7="13000.00000" pt_clust_8="13000.00000" pt_clust_9="170.88613"></scales>
<clustering>
<clus scale="   80.018">  5  6 -1 -1</clus>
<clus scale="   91.320">  7  8 -1 -1</clus>
<clus scale="  145.126">  2  5  1 -1</clus>
<clus scale="  170.886">  1  9  2 -1</clus>
<clus scale="  170.886">  1  5  2 -1</clus>
</clustering>
</event>
<event>
 9    2  0.6175212E-005  0.1039685E+03  0.7546771E-02  0.1276986E+00
         21   -1    0    0  501  502  0.00000000000E+00  0.00000000000E+00  0.15857825809E+03  0.15857825809E+03  0.00000000000E+00 0. -1.
         -1   -1    0    0    0  501 -0.00000000000E+00 -0.00000000000E+00 -0.27278565109E+03  0.27278565109E+03  0.00000000000E+00 0.  1.
         24    2    1    2    0    0 -0.14029480204E+02  0.49933714453E+02 -0.23339416682E+03  0.25210997036E+03  0.79977483680E+02 0.  0.
         23    2    1    2    0    0  0.37508334798E+02 -0.28772420313E+02  0.92315045053E+02  0.13776723264E+03  0.90680844159E+02 0.  0.
        -11    1    3    3    0    0 -0.28606020596E+02  0.60747955603E+02 -0.21864399034E+03  0.22872213062E+03  0.00000000000E+00 0.  1.
         12    1    3    3    0    0  0.14576540393E+02 -0.10814241150E+02 -0.14750176480E+02  0.23387839739E+02  0.00000000000E+00 0. -1.
        -13    1    4    4    0    0  0.89959693943E+01 -0.27036993229E+02  0.10330364333E+03  0.10716141653E+03  0.00000000000E+00 0. -1.
         13    1    4    4    0    0  0.28512365403E+02 -0.17354270840E+01 -0.10988598273E+02  0.30605816115E+02  0.00000000000E+00 0.  1.
         -2    1    1    2    0  502 -0.23478854594E+02 -0.21161294140E+02  0.26871728770E+02  0.41486706182E+02  0.00000000000E+00 0.  1.
<scales pt_clust_5="13000.00000" pt_clust_6="13000.00000" pt_clust_7="13000.00000" pt_clust_8="13000.00000" pt_clust_9="31.60786"></scales>
<clustering>
<clus scale="   31.608">  1  9  2 -1</clus>
<clus scale="   79.977">  5  6 -1 -1</clus>
<clus scale="   90.681">  7  8 -1 -1</clus>
<clus scale="   94.778">  2  5  1 -1</clus>
<clus scale="   31.608">  1  5  2 -1</clus>
</clustering>
</event>
<event>
 9    2  0.6175212E-005  0.1263328E+03  0.7546771E-02  0.1266327E+00
          2   -1    0    0  502    0 -0.00000000000E+00  0.00000000000E+00  0.22954867421E+03  0.22954867421E+03  0.00000000000E+00 0. -1.
         21   -1    0    0  501  502  0.00000000000E+00 -0.00000000000E+00 -0.15269029312E+03  0.15269029312E+03  0.00000000000E+00 0. -1.
         24    2    1    2    0    0  0.94926040847E+01  0.32822628636E+02  0.14196151012E+03  0.15608761759E+03  0.55161939110E+02 0.  0.
         23    2    1    2    0    0  0.62358139700E+02  0.34100608316E+02 -0.43038862071E+02  0.12551298279E+03  0.94073248723E+02 0.  0.
        -13    1    3    3    0    0  0.32253808143E+00  0.37644795990E+02  0.14070131602E+03  0.14565059226E+03  0.00000000000E+00 0.  1.
         14    1    3    3    0    0  0.91700660033E+01 -0.48221673543E+01  0.12601940965E+01  0.10437025326E+02  0.00000000000E+00 0. -1.
        -11    1    4    4    0    0  0.26228591437E+02  0.36782399710E+02 -0.67913430260E+02  0.81566647270E+02  0.00000000000E+00 0. -1.
         11    1    4    4    0    0  0.36129548264E+02 -0.26817913938E+01  0.24874568189E+02  0.43946335517E+02  0.00000000000E+00 0.  1.
          1    1    1    2  501    0 -0.71850743785E+02 -0.66923236952E+02 -0.22064266966E+02  0.10063836695E+03  0.00000000000E+00 0. -1.
<scales pt_clust_5="13000.00000" pt_clust_6="13000.00000" pt_clust_7="13000.00000" pt_clust_8="13000.00000" pt_clust_9="84.32208"></scales>
<clustering>
<clus scale="   55.162">  5  6 -1 -1</clus>
<clus scale="   64.887">  1  5  2 -1</clus>
<clus scale="   84.322">  2  9  1 -1</clus>
<clus scale="   94.073">  7  8 -1 -1</clus>
<clus scale="   84.322">  2  5  1 -1</clus>
</clustering>
</event>
<event>
 9    2  0.6175212E-005  0.1081560E+03  0.7546771E-02  0.1267828E+00
          2   -1    0    0  502    0 -0.00000000000E+00  0.00000000000E+00  0.19213686753E+03  0.19213686753E+03  0.00000000000E+00 0. -1.
         21   -1    0    0  501  502  0.00000000000E+00 -0.00000000000E+00 -0.17192674379E+03  0.17192674379E+03  0.00000000000E+00 0.  1.
         23    2    1    2    0    0 -0.52715378070E+02  0.34622324436E+02  0.10550067988E+03  0.15194176895E+03  0.89321281134E+02 0.  0.
         24    2    1    2    0    0  0.21394683961E+02 -0.53154546500E+02 -0.12452282232E+03  0.15860922849E+03  0.79798595020E+02 0.  0.
        -13    1    4    4    0    0  0.10869644805E+02 -0.49247679489E+02 -0.13446581330E+03  0.14361245788E+03  0.00000000000E+00 0.  1.
         14    1    4    4    0    0  0.10525039156E+02 -0.39068670104E+01  0.99429909753E+01  0.14996770606E+02  0.00000000000E+00 0. -1.
        -11    1    3    3    0    0 -0.29177238178E+02  0.63316062166E+02  0.83579471890E+02  0.10883824272E+03  0.00000000000E+00 0. -1.
         11    1    3    3    0    0 -0.23538139892E+02 -0.28693737730E+02  0.21921207989E+02  0.43103526238E+02  0.00000000000E+00 0.  1.
          1    1    1    2  501    0  0.31320694109E+02  0.18532222063E+02  0.39232266182E+02  0.53512613876E+02  0.00000000000E+00 0. -1.
<scales pt_clust_5="13000.00000" pt_clust_6="13000.00000" pt_clust_7="13000.00000" pt_clust_8="13000.00000" pt_clust_9="36.39273"></scales>
<clustering>
<clus scale="   36.393">  2  9  1 -1</clus>
<clus scale="   79.799">  5  6 -1 -1</clus>
<clus scale="   89.321">  7  8 -1 -1</clus>
<clus scale="  100.435">  2  5  1 -1</clus>
<clus scale="   36.393">  2  5  1 -1</clus>
</clustering>
</event>
<event>
 9    2  0.6175212E-005  0.2855294E+03  0.7546771E-02  0.1092707E+00
          2   -1    0    0  502    0 -0.00000000000E+00  0.00000000000E+00  0.44426762009E+03  0.44426762009E+03  0.00000000000E+00 0. -1.
         21   -1    0    0  501  502  0.00000000000E+00 -0.00000000000E+00 -0.20788422248E+03  0.20788422248E+03  0.00000000000E+00 0. -1.
         24    2    1    2    0    0 -0.81002197304E+02  0.60321576342E+02 -0.13133561903E+02  0.12812791965E+03  0.77744612709E+02 0.  0.
         23    2    1    2    0    0 -0.10111273707E+03  0.80092228551E+02 -0.31543142188E+02  0.16087565196E+03  0.90815499248E+02 0.  0.
        -13    1    3    3    0    0 -0.62697471231E+01  0.42281008798E+02  0.16385482541E+02  0.45776385529E+02  0.00000000000E+00 0.  1.
         14    1    3    3    0    0 -0.74732450181E+02  0.18040567544E+02 -0.29519044445E+02  0.82351534122E+02  0.00000000000E+00 0. -1.
        -11    1    4    4    0    0 -0.39184269176E+02  0.73066724861E+02 -0.48798728658E+02  0.96205348871E+02  0.00000000000E+00 0. -1.
         11    1    4    4    0    0 -0.61928467891E+02  0.70255036906E+01  0.17255586470E+02  0.64670303091E+02  0.00000000000E+00 0.  1.
          1    1    1    2  501    0  0.18211493437E+03 -0.14041380489E+03  0.28106010171E+03  0.36314827096E+03  0.00000000000E+00 0. -1.
<scales pt_clust_5="13000.00000" pt_clust_6="13000.00000" pt_clust_7="13000.00000" pt_clust_8="13000.00000" pt_clust_9="229.96073"></scales>
<clustering>
<clus scale="   77.745">  5  6 -1 -1</clus>
<clus scale="   90.815">  7  8 -1 -1</clus>
<clus scale="   91.363">  5  7 -1 -1</clus>
<clus scale="  229.961">  2  9  1 -1</clus>
<clus scale="  229.961">  2  5  1 -1</clus>
</clustering>
</event>
<event>
 9    2  0.6175212E-005  0.1210622E+03  0.7546771E-02  0.1244041E+00
         21   -1    0    0  501  502  0.00000000000E+00  0.00000000000E+00  0.71730037404E+02  0.71730037404E+02  0.00000000000E+00 0.  1.
          2   -1    0    0  502    0 -0.00000000000E+00 -0.00000000000E+00 -0.34006255440E+03  0.34006255440E+03  0.00000000000E+00 0. -1.
         23    2    1    2    0    0  0.21292467754E+02  0.66314934767E+02 -0.14444073493E+03  0.18372282878E+03  0.89665557215E+02 0.  0.
         24    2    1    2    0    0 -0.39779022873E+02 -0.86684810022E+02 -0.14641021572E+03  0.19252029900E+03  0.80817617572E+02 0.  0.
        -11    1    4    4    0    0  0.46713428631E+01 -0.35366365308E+02 -0.54839566123E+01  0.36092589535E+02  0.00000000000E+00 0.  1.
         12    1    4    4    0    0 -0.44450365736E+02 -0.51318444714E+02 -0.14092625911E+03  0.15642770946E+03  0.00000000000E+00 0. -1.
        -11    1    3    3    0    0 -0.24506795464E+02  0.61482245796E+02 -0.98513079104E+02  0.11868224942E+03  0.00000000000E+00 0.  1.
         11    1    3    3    0    0  0.45799263218E+02  0.48326889706E+01 -0.45927655831E+02  0.65040579365E+02  0.00000000000E+00 0. -1.
          1    1    1    2  501    0  0.18486555118E+02  0.20369875255E+02  0.22518433658E+02  0.35549464025E+02  0.00000000000E+00 0. -1.
<scales pt_clust_5="13000.00000" pt_clust_6="13000.00000" pt_clust_7="13000.00000" pt_clust_8="13000.00000" pt_clust_9="27.50790"></scales>
<clustering>
<clus scale="   27.508">  1  9  2 -1</clus>
<clus scale="   80.818">  5  6 -1 -1</clus>
<clus scale="   89.666">  7  8 -1 -1</clus>
<clus scale="  114.663">  1  5  2 -1</clus>
<clus scale="   27.508">  1  5  2 -1</clus>
</clustering>
</event>
<event>
 9    2  0.6175212E-005  0.1058017E+03  0.7546771E-02  0.1275445E+00
         21   -1    0    0  501  502  0.00000000000E+00  0.00000000000E+00  0.88706142287E+02  0.88706142287E+02  0.00000000000E+00 0. -1.
          2   -1    0    0  502    0 -0.00000000000E+00 -0.00000000000E+00 -0.47497230235E+03  0.47497230235E+03  0.00000000000E+00 0. -1.
         24    2    1    2    0    0 -0.23284930015E+02  0.77363207376E+01 -0.39837004919E+03  0.41251008424E+03  0.10422972169E+03 0.  0.
         23    2    1    2    0    0 -0.27400720317E+02  0.13047078376E+02  0.10782661028E+02  0.96371184627E+02  0.90830136627E+02 0.  0.
        -11    1    3    3    0    0 -0.13262675047E+02  0.31960325316E+02 -0.38811236279E+02  0.51996855724E+02  0.00000000000E+00 0.  1.
         12    1    3    3    0    0 -0.10022254968E+02 -0.24224004578E+02 -0.35955881291E+03  0.36051322852E+03  0.00000000000E+00 0. -1.
        -13    1    4    4    0    0  0.17365026543E+02 -0.24458238915E+02 -0.13787221498E+02  0.33012680507E+02  0.00000000000E+00 0.  1.
         13    1    4    4    0    0 -0.44765746859E+02  0.37505317291E+02  0.24569882527E+02  0.63358504120E+02  0.00000000000E+00 0. -1.
          1    1    1    2  501    0  0.50685650332E+02 -0.20783399113E+02  0.13212281031E+01  0.54797175766E+02  0.00000000000E+00 0. -1.
<scales pt_clust_5="13000.00000" pt_clust_6="13000.00000" pt_clust_7="13000.00000" pt_clust_8="13000.00000" pt_clust_9="54.78125"></scales>
<clustering>
<clus scale="   54.781">  1  9  2 -1</clus>
<clus scale="   90.830">  7  8 -1 -1</clus>
<clus scale="   92.630">  1  7  2 -1</clus>
<clus scale="  104.230">  5  6 -1 -1</clus>
<clus scale="   54.781">  1  5  2 -1</clus>
</clustering>
</event>
<event>
 9    2  0.6175212E-005  0.1002528E+03  0.7546771E-02  0.1284993E+00
         -3   -1    0    0    0  501 -0.00000000000E+00  0.00000000000E+00  0.39565778930E+02  0.39565778930E+02  0.00000000000E+00 0.  1.
         21   -1    0    0  501  502  0.00000000000E+00 -0.00000000000E+00 -0.50099945766E+03  0.50099945766E+03  0.00000000000E+00 0. -1.
         24    2    1    2    0    0 -0.39300302216E+02  0.51922530556E+01 -0.41474715884E+02  0.99192525796E+02  0.80916820687E+02 0.  0.
         23    2    1    2    0    0  0.42537395572E+02 -0.29851493776E+02 -0.27735049333E+03  0.29661176128E+03  0.91404043000E+02 0.  0.
        -11    1    3    3    0    0 -0.49364417820E+02  0.26123018160E+02 -0.51624255840E+01  0.56088398644E+02  0.00000000000E+00 0.  1.
         12    1    3    3    0    0  0.10064115604E+02 -0.20930765104E+02 -0.36312290300E+02  0.43104127153E+02  0.00000000000E+00 0. -1.
        -11    1    4    4    0    0 -0.13386871207E+02 -0.32217344196E+02 -0.41530373240E+02  0.54239630246E+02  0.00000000000E+00 0.  1.
         11    1    4    4    0    0  0.55924266779E+02  0.23658504205E+01 -0.23582012009E+03  0.24237213103E+03  0.00000000000E+00 0. -1.
         -4    1    1    2    0  502 -0.32370933561E+01  0.24659240720E+02 -0.14260846952E+03  0.14476094952E+03  0.00000000000E+00 0.  1.
<scales pt_clust_5="13000.00000" pt_clust_6="13000.00000" pt_clust_7="13000.00000" pt_clust_8="13000.00000" pt_clust_9="24.87080"></scales>
<clustering>
<clus scale="   24.871">  2  9  1 -1</clus>
<clus scale="   80.917">  5  6 -1 -1</clus>
<clus scale="   90.794">  1  5  2 -1</clus>
<clus scale="   91.404">  7  8 -1 -1</clus>
<clus scale="   24.871">  2  5  1 -1</clus>
</clustering>
</event>
<event>
 9    2  0.6175212E-005  0.1591054E+03  0.7546771E-02  0.1190937E+00
         -1   -1    0    0    0  501 -0.00000000000E+00  0.00000000000E+00  0.31819251582E+03  0.31819251582E+03  0.00000000000E+00 0.  1.
         21   -1    0    0  501  502  0.00000000000E+00 -0.00000000000E+00 -0.99945347892E+02  0.99945347892E+02  0.00000000000E+00 0.  1.
         24    2    1    2    0    0  0.10460564332E+03 -0.80470890667E+02  0.15676622435E+03  0.22036674399E+03  0.81042876915E+02 0.  0.
         23    2    1    2    0    0 -0.12027168579E+03  0.58357207517E+02  0.56644121590E+02  0.17024232178E+03  0.88899097546E+02 0.  0.
        -13    1    3    3    0    0  0.77164680252E+02 -0.96070852113E+02  0.12180366617E+03  0.17326318015E+03  0.00000000000E+00 0.  1.
         14    1    3    3    0    0  0.27440963070E+02  0.15599961446E+02  0.34962558187E+02  0.47103563839E+02  0.00000000000E+00 0. -1.
        -13    1    4    4    0    0 -0.90599284058E+02  0.35798589375E+01  0.76599330834E+01  0.90992968062E+02  0.00000000000E+00 0.  1.
         13    1    4    4    0    0 -0.29672401730E+02  0.54777348580E+02  0.48984188507E+02  0.79249353723E+02  0.00000000000E+00 0. -1.
         -2    1    1    2    0  502  0.15666042466E+02  0.22113683150E+02  0.48368219847E+01  0.27528797938E+02  0.00000000000E+00 0.  1.
<scales pt_clust_5="13000.00000" pt_clust_6="13000.00000" pt_clust_7="13000.00000" pt_clust_8="13000.00000" pt_clust_9="27.10055"></scales>
<clustering>
<clus scale="   27.101">  2  9  1 -1</clus>
<clus scale="   81.043">  5  6 -1 -1</clus>
<clus scale="   88.899">  7  8 -1 -1</clus>
<clus scale="  154.853">  1  5  2 -1</clus>
<clus scale="   27.101">  2  5  1 -1</clus>
</clustering>
</event>
<event>
 9    2  0.6175212E-005  0.9511709E+02  0.7546771E-02  0.1299801E+00
         -3   -1    0    0    0  501 -0.00000000000E+00  0.00000000000E+00  0.52540259975E+03  0.52540259975E+03  0.00000000000E+00 0.  1.
         21   -1    0    0  501  502  0.00000000000E+00 -0.00000000000E+00 -0.26235993806E+02  0.26235993806E+02  0.00000000000E+00 0.  1.
         23    2    1    2    0    0 -0.25059323145E+02  0.21020945529E+02  0.31588637514E+03  0.33050336658E+03  0.91533728750E+02 0.  0.
         24    2    1    2    0    0 -0.11637921963E+02 -0.27922626819E+02  0.15042492251E+03  0.17139799458E+03  0.76383904826E+02 0.  0.
        -13    1    4    4    0    0  0.15851255607E+02 -0.39250404595E+02  0.12599867684E+03  0.13291923537E+03  0.00000000000E+00 0.  1.
         14    1    4    4    0    0 -0.27489177570E+02  0.11327777776E+02  0.24426245673E+02  0.38478759212E+02  0.00000000000E+00 0. -1.
        -11    1    3    3    0    0 -0.44043613228E+02 -0.21107763629E+02  0.12754670023E+03  0.13657795682E+03  0.00000000000E+00 0.  1.
         11    1    3    3    0    0  0.18984290082E+02  0.42128709158E+02  0.18833967491E+03  0.19392540976E+03  0.00000000000E+00 0. -1.
         -4    1    1    2    0  502  0.36697245108E+02  0.69016812904E+01  0.32855308296E+02  0.49737232396E+02  0.00000000000E+00 0.  1.
<scales pt_clust_5="13000.00000" pt_clust_6="13000.00000" pt_clust_7="13000.00000" pt_clust_8="13000.00000" pt_clust_9="37.34061"></scales>
<clustering>
<clus scale="   37.341">  2  9  1 -1</clus>
<clus scale="   76.384">  5  6 -1 -1</clus>
<clus scale="   80.643">  2  5  1 -1</clus>
<clus scale="   91.534">  7  8 -1 -1</clus>
<clus scale="   37.341">  2  5  1 -1</clus>
</clustering>
</event>
<event>
 9    2  0.6175212E-005  0.9106756E+02  0.7546771E-02  0.1313857E+00
         21   -1    0    0  501  502  0.00000000000E+00  0.00000000000E+00  0.86490853368E+02  0.86490853368E+02  0.00000000000E+00 0. -1.
          2   -1    0    0  502    0 -0.00000000000E+00 -0.00000000000E+00 -0.81425843516E+03  0.81425843516E+03  0.00000000000E+00 0. -1.
         24    2    1    2    0    0  0.14736696415E+01  0.81616457211E+01 -0.73082153344E+03  0.73427841296E+03  0.70681608963E+02 0.  0.
         23    2    1    2    0    0 -0.33637899685E+02  0.12409524422E+02 -0.43025583714E+02  0.10662913166E+03  0.90736245641E+02 0.  0.
        -13    1    3    3    0    0 -0.18587606669E+02 -0.17727075524E+02 -0.12711512614E+03  0.12968424585E+03  0.00000000000E+00 0.  1.
         14    1    3    3    0    0  0.20061276311E+02  0.25888721245E+02 -0.60370640730E+03  0.60459416712E+03  0.00000000000E+00 0. -1.
        -11    1    4    4    0    0 -0.12082056253E+02 -0.24100952692E+02  0.17930094415E+02  0.32377774626E+02  0.00000000000E+00 0.  1.
         11    1    4    4    0    0 -0.21555843432E+02  0.36510477114E+02 -0.60955678129E+02  0.74251357034E+02  0.00000000000E+00 0. -1.
          1    1    1    2  501    0  0.32164230043E+02 -0.20571170143E+02  0.46079535356E+02  0.59841743908E+02  0.00000000000E+00 0. -1.
<scales pt_clust_5="13000.00000" pt_clust_6="13000.00000" pt_clust_7="13000.00000" pt_clust_8="13000.00000" pt_clust_9="38.17998"></scales>
<clustering>
<clus scale="   38.180">  1  9  2 -1</clus>
<clus scale="   70.682">  5  6 -1 -1</clus>
<clus scale="   71.106">  2  5  1 -1</clus>
<clus scale="   90.736">  7  8 -1 -1</clus>
<clus scale="   38.180">  1  5  2 -1</clus>
</clustering>
</event>
<event>
 9    2  0.6175212E-005  0.3013249E+03  0.7546771E-02  0.1112118E+00
          2   -1    0    0  502    0 -0.00000000000E+00  0.00000000000E+00  0.20470844981E+04  0.20470844981E+04  0.00000000000E+00 0. -1.
         21   -1    0    0  501  502  0.00000000000E+00 -0.00000000000E+00 -0.89568509669E+02  0.89568509669E+02  0.00000000000E+00 0.  1.
         23    2    1    2    0    0 -0.51187937658E+02 -0.10443819927E+03  0.25868922309E+03  0.29760462058E+03  0.90115778982E+02 0.  0.
         24    2    1    2    0    0  0.14259161910E+03 -0.19095039098E+03  0.13484640214E+04  0.13717550055E+04  0.81007137998E+02 0.  0.
        -11    1    4    4    0    0  0.62138630326E+02 -0.14768412544E+03  0.83710169726E+03  0.85229751956E+03  0.00000000000E+00 0.  1.
         12    1    4    4    0    0  0.80452988774E+02 -0.43266265541E+02  0.51136232418E+03  0.51945748596E+03  0.00000000000E+00 0. -1.
        -11    1    3    3    0    0 -0.72223379503E+02 -0.10331708965E+03  0.22288611836E+03  0.25606417031E+03  0.00000000000E+00 0.  1.
         11    1    3    3    0    0  0.21035441846E+02 -0.11211096219E+01  0.35803104734E+02  0.41540450275E+02  0.00000000000E+00 0. -1.
          1    1    1    2  501    0 -0.91403681442E+02  0.29538859026E+03  0.35036274393E+03  0.46729338169E+03  0.00000000000E+00 0. -1.
<scales pt_clust_5="13000.00000" pt_clust_6="13000.00000" pt_clust_7="13000.00000" pt_clust_8="13000.00000" pt_clust_9="290.23189"></scales>
<clustering>
<clus scale="   81.007">  5  6 -1 -1</clus>
<clus scale="   90.116">  7  8 -1 -1</clus>
<clus scale="  147.134">  1  7  2 -1</clus>
<clus scale="  290.232">  2  9  1 -1</clus>
<clus scale="  290.232">  2  5  1 -1</clus>
</clustering>
</event>
<event>
 9    2  0.6175212E-005  0.1180249E+03  0.7546771E-02  0.1250084E+00
         21   -1    0    0  501  502  0.00000000000E+00  0.00000000000E+00  0.37957288560E+03  0.37957288560E+03  0.00000000000E+00 0. -1.
          4   -1    0    0  502    0 -0.00000000000E+00 -0.00000000000E+00 -0.88597923349E+02  0.88597923349E+02  0.00000000000E+00 0. -1.
         23    2    1    2    0    0 -0.54058442004E+02  0.22867770607E+02  0.62791476483E+02  0.12546737180E+03  0.91400447394E+02 0.  0.
         24    2    1    2    0    0  0.12033359010E+03  0.45815941702E+02  0.18117672407E+03  0.23631037705E+03  0.80239114767E+02 0.  0.
        -13    1    4    4    0    0  0.13476385406E+00  0.25283538822E+02  0.56580974533E+02  0.61973237577E+02  0.00000000000E+00 0.  1.
         14    1    4    4    0    0  0.12019882624E+03  0.20532402881E+02  0.12459574954E+03  0.17433713948E+03  0.00000000000E+00 0. -1.
        -11    1    3    3    0    0  0.12846955694E+02 -0.15871816736E+02 -0.67245245055E+01  0.21498327073E+02  0.00000000000E+00 0.  1.
         11    1    3    3    0    0 -0.66905397698E+02  0.38739587343E+02  0.69516000988E+02  0.10396904473E+03  0.00000000000E+00 0. -1.
          3    1    1    2  501    0 -0.66275148092E+02 -0.68683712309E+02  0.47006761701E+02  0.10639306010E+03  0.00000000000E+00 0. -1.
<scales pt_clust_5="13000.00000" pt_clust_6="13000.00000" pt_clust_7="13000.00000" pt_clust_8="13000.00000" pt_clust_9="95.44557"></scales>
<clustering>
<clus scale="   80.239">  5  6 -1 -1</clus>
<clus scale="   91.400">  7  8 -1 -1</clus>
<clus scale="   95.446">  1  9  2 -1</clus>
<clus scale="  109.609">  1  5  2 -1</clus>
<clus scale="   95.446">  1  5  2 -1</clus>
</clustering>
</event>
<event>
 9    2  0.6175212E-005  0.1026852E+03  0.7546771E-02  0.1282021E+00
         -1   -1    0    0    0  501 -0.00000000000E+00  0.00000000000E+00  0.32019137949E+03  0.32019137949E+03  0.00000000000E+00 0.  1.
         21   -1    0    0  501  502  0.00000000000E+00 -0.00000000000E+00 -0.75146485782E+02  0.75146485782E+02  0.00000000000E+00 0.  1.
         23    2    1    2    0    0 -0.17110136095E+02  0.27251251723E+02  0.22463027695E+03  0.24647349213E+03  0.96203084799E+02 0.  0.
         24    2    1    2    0    0 -0.15480059708E+01 -0.61647209186E+02 -0.43179890485E+01  0.10257279782E+03  0.81852056183E+02 0.  0.
        -11    1    4    4    0    0 -0.28416261690E+02 -0.28105939285E+02  0.28001226127E+02  0.48800578031E+02  0.00000000000E+00 0.  1.
         12    1    4    4    0    0  0.26868255720E+02 -0.33541269901E+02 -0.32319215176E+02  0.53772219794E+02  0.00000000000E+00 0. -1.
        -11    1    3    3    0    0  0.21986332655E+02 -0.19952713715E+02  0.13272180832E+03  0.13600216179E+03  0.00000000000E+00 0. -1.
         11    1    3    3    0    0 -0.39096468750E+02  0.47203965438E+02  0.91908468625E+02  0.11047133034E+03  0.00000000000E+00 0.  1.
         -2    1    1    2    0  502  0.18658142066E+02  0.34395957462E+02  0.24732605811E+02  0.46291575317E+02  0.00000000000E+00 0.  1.
<scales pt_clust_5="13000.00000" pt_clust_6="13000.00000" pt_clust_7="13000.00000" pt_clust_8="13000.00000" pt_clust_9="39.13065"></scales>
<clustering>
<clus scale="   39.131">  2  9  1 -1</clus>
<clus scale="   81.852">  5  6 -1 -1</clus>
<clus scale="   89.381">  2  5  1 -1</clus>
<clus scale="   96.203">  7  8 -1 -1</clus>
<clus scale="   39.131">  2  5  1 -1</clus>
</clustering>
</event>
<event>
 9    2  0.6175212E-005  0.1601884E+03  0.7546771E-02  0.1215366E+00
          2   -1    0    0  502    0 -0.00000000000E+00  0.00000000000E+00  0.85906148120E+03  0.85906148120E+03  0.00000000000E+00 0. -1.
         21   -1    0    0  501  502  0.00000000000E+00 -0.00000000000E+00 -0.18403015682E+03  0.18403015682E+03  0.00000000000E+00 0. -1.
         24    2    1    2    0    0 -0.17327301361E+02 -0.36778409421E+02  0.64525695146E+03  0.65143552382E+03  0.79742219217E+02 0.  0.
         23    2    1    2    0    0 -0.10551957860E+03 -0.26125088115E+02  0.15229039195E+03  0.20710698569E+03  0.88792107454E+02 0.  0.
        -13    1    3    3    0    0 -0.29221274089E+02 -0.13039956745E+02  0.89562718683E+02  0.95107328367E+02  0.00000000000E+00 0.  1.
         14    1    3    3    0    0  0.11893972728E+02 -0.23738452676E+02  0.55569423277E+03  0.55632819546E+03  0.00000000000E+00 0. -1.
        -11    1    4    4    0    0 -0.70771327456E+02  0.26495463797E+02  0.99006635790E+02  0.12455081020E+03  0.00000000000E+00 0. -1.
         11    1    4    4    0    0 -0.34748251142E+02 -0.52620551913E+02  0.53283756155E+02  0.82556175487E+02  0.00000000000E+00 0.  1.
          1    1    1    2  501    0  0.12284687996E+03  0.62903497537E+02 -0.12251601902E+03  0.18454912851E+03  0.00000000000E+00 0. -1.
<scales pt_clust_5="13000.00000" pt_clust_6="13000.00000" pt_clust_7="13000.00000" pt_clust_8="13000.00000" pt_clust_9="133.32778"></scales>
<clustering>
<clus scale="   79.742">  5  6 -1 -1</clus>
<clus scale="   88.792">  7  8 -1 -1</clus>
<clus scale="   89.508">  1  5  2 -1</clus>
<clus scale="  133.328">  2  9  1 -1</clus>
<clus scale="  133.328">  2  5  1 -1</clus>
</clustering>
</event>
<event>
 9    2  0.6175212E-005  0.9815551E+02  0.7546771E-02  0.1289836E+00
          2   -1    0    0  502    0 -0.00000000000E+00  0.00000000000E+00  0.79488501095E+02  0.79488501095E+02  0.00000000000E+00 0. -1.
         21   -1    0    0  501  502  0.00000000000E+00 -0.00000000000E+00 -0.18936030470E+03  0.18936030470E+03  0.00000000000E+00 0. -1.
         23    2    1    2    0    0  0.29507577271E+02 -0.22164535291E+02  0.11406116686E+02  0.99042366976E+02  0.91199381671E+02 0.  0.
         24    2    1    2    0    0 -0.12591425682E+02  0.37677570006E+02 -0.11521722826E+03  0.14606739043E+03  0.80514157614E+02 0.  0.
        -11    1    4    4    0    0 -0.39853665287E+02  0.14640227797E+02 -0.25538008872E+02  0.49546350056E+02  0.00000000000E+00 0.  1.
         12    1    4    4    0    0  0.27262239605E+02  0.23037342209E+02 -0.89679219392E+02  0.96521040375E+02  0.00000000000E+00 0. -1.
        -13    1    3    3    0    0  0.45775134640E+02 -0.37372932315E+02  0.33285273456E+02  0.67823362126E+02  0.00000000000E+00 0.  1.
         13    1    3    3    0    0 -0.16267557369E+02  0.15208397024E+02 -0.21879156770E+02  0.31219004849E+02  0.00000000000E+00 0. -1.
          1    1    1    2  501    0 -0.16916151589E+02 -0.15513034715E+02 -0.60606920306E+01  0.23739048392E+02  0.00000000000E+00 0. -1.
<scales pt_clust_5="13000.00000" pt_clust_6="13000.00000" pt_clust_7="13000.00000" pt_clust_8="13000.00000" pt_clust_9="22.95236"></scales>
<clustering>
<clus scale="   22.952">  2  9  1 -1</clus>
<clus scale="   80.514">  5  6 -1 -1</clus>
<clus scale="   88.316">  2  5  1 -1</clus>
<clus scale="   91.199">  7  8 -1 -1</clus>
<clus scale="   22.952">  2  5  1 -1</clus>
</clustering>
</event>
<event>
 9    2  0.6175212E-005  0.1411216E+03  0.7546771E-02  0.1221001E+00
          2   -1    0    0  502    0 -0.00000000000E+00  0.00000000000E+00  0.13362774920E+03  0.13362774920E+03  0.00000000000E+00 0. -1.
         21   -1    0    0  501  502  0.00000000000E+00 -0.00000000000E+00 -0.27686909383E+03  0.27686909383E+03  0.00000000000E+00 0. -1.
         24    2    1    2    0    0 -0.35543573125E+02 -0.75780729046E+02 -0.57530977313E+01  0.11640361263E+03  0.80688527158E+02 0.  0.
         23    2    1    2    0    0 -0.83285106531E+02  0.58965848641E+02 -0.60771627527E+02  0.15165575289E+03  0.94302154787E+02 0.  0.
        -13    1    3    3    0    0  0.14866474164E+02 -0.41682854858E+02 -0.27119002724E+02  0.51902916604E+02  0.00000000000E+00 0.  1.
         14    1    3    3    0    0 -0.50410047290E+02 -0.34097874187E+02  0.21365904993E+02  0.64500696027E+02  0.00000000000E+00 0. -1.
        -11    1    4    4    0    0 -0.10263308047E+03  0.40246340502E+02 -0.58064429487E+02  0.12459853571E+03  0.00000000000E+00 0. -1.
         11    1    4    4    0    0  0.19347973935E+02  0.18719508139E+02 -0.27071980396E+01  0.27057217181E+02  0.00000000000E+00 0.  1.
          1    1    1    2  501    0  0.11882867966E+03  0.16814880404E+02 -0.76716619367E+02  0.14243747751E+03  0.00000000000E+00 0. -1.
<scales pt_clust_5="13000.00000" pt_clust_6="13000.00000" pt_clust_7="13000.00000" pt_clust_8="13000.00000" pt_clust_9="104.98770"></scales>
<clustering>
<clus scale="   80.689">  5  6 -1 -1</clus>
<clus scale="   94.302">  7  8 -1 -1</clus>
<clus scale="  116.261">  1  5  2 -1</clus>
<clus scale="  104.988">  2  9  1 -1</clus>
<clus scale="  104.988">  2  5  1 -1</clus>
</clustering>
</event>
<event>
 9    2  0.6175212E-005  0.1079700E+03  0.7546771E-02  0.1275935E+00
         21   -1    0    0  501  502  0.00000000000E+00  0.00000000000E+00  0.12886934727E+03  0.12886934727E+03  0.00000000000E+00 0. -1.
          2   -1    0    0  502    0 -0.00000000000E+00 -0.00000000000E+00 -0.19706940810E+03  0.19706940810E+03  0.00000000000E+00 0. -1.
         24    2    1    2    0    0 -0.11163109405E+02  0.22834845844E+02 -0.85209071694E+02  0.11816581905E+03  0.77823709085E+02 0.  0.
         23    2    1    2    0    0  0.23159225420E+02 -0.64028171161E+02 -0.46945717439E+02  0.13075992364E+03  0.10128327019E+03 0.  0.
        -13    1    3    3    0    0  0.18197990637E+02 -0.17621370985E+02 -0.87185539566E+01  0.26789788385E+02  0.00000000000E+00 0.  1.
         14    1    3    3    0    0 -0.29361100042E+02  0.40456216829E+02 -0.76490517737E+02  0.91376030662E+02  0.00000000000E+00 0. -1.
        -13    1    4    4    0    0  0.26021450407E+02  0.17876262991E+02  0.73974056666E+01  0.32425272094E+02  0.00000000000E+00 0.  1.
         13    1    4    4    0    0 -0.28622249871E+01 -0.81904434152E+02 -0.54343123105E+02  0.98334651545E+02  0.00000000000E+00 0. -1.
          1    1    1    2  501    0 -0.11996116015E+02  0.41193325317E+02  0.63954728303E+02  0.77013012682E+02  0.00000000000E+00 0. -1.
<scales pt_clust_5="13000.00000" pt_clust_6="13000.00000" pt_clust_7="13000.00000" pt_clust_8="13000.00000" pt_clust_9="42.90451"></scales>
<clustering>
<clus scale="   42.905">  1  9  2 -1</clus>
<clus scale="   77.824">  5  6 -1 -1</clus>
<clus scale="   86.347">  2  5  1 -1</clus>
<clus scale="  101.283">  7  8 -1 -1</clus>
<clus scale="   42.905">  1  5  2 -1</clus>
</clustering>
</event>
<event>
 9    2  0.6175212E-005  0.1105342E+03  0.7546771E-02  0.1264864E+00
         21   -1    0    0  501  502  0.00000000000E+00  0.00000000000E+00  0.17970235064E+03  0.17970235064E+03  0.00000000000E+00 0.  1.
          2   -1    0    0  502    0 -0.00000000000E+00 -0.00000000000E+00 -0.12897135459E+03  0.12897135459E+03  0.00000000000E+00 0. -1.
         24    2    1    2    0    0 -0.58768524855E+00  0.45796730780E+02 -0.19959230396E+02  0.93329857739E+02  0.78831500959E+02 0.  0.
         23    2    1    2    0    0  0.11113842404E+02 -0.84804648047E+02 -0.89239275498E+01  0.12606433634E+03  0.92180445820E+02 0.  0.
        -13    1    3    3    0    0  0.19904992790E+02 -0.61854132822E+01  0.16523220270E+02  0.26598587999E+02  0.00000000000E+00 0.  1.
         14    1    3    3    0    0 -0.20492678038E+02  0.51982144062E+02 -0.36482450667E+02  0.66731269740E+02  0.00000000000E+00 0. -1.
        -13    1    4    4    0    0  0.27115613331E+02 -0.37296919366E+02 -0.44899962856E+02  0.64360883656E+02  0.00000000000E+00 0. -1.
         13    1    4    4    0    0 -0.16001770927E+02 -0.47507728681E+02  0.35976035306E+02  0.61703452688E+02  0.00000000000E+00 0.  1.
          1    1    1    2  501    0 -0.10526157155E+02  0.39007917267E+02  0.79614153998E+02  0.89279511147E+02  0.00000000000E+00 0. -1.
<scales pt_clust_5="13000.00000" pt_clust_6="13000.00000" pt_clust_7="13000.00000" pt_clust_8="13000.00000" pt_clust_9="40.40319"></scales>
<clustering>
<clus scale="   40.403">  1  9  2 -1</clus>
<clus scale="   78.832">  5  6 -1 -1</clus>
<clus scale="   92.180">  7  8 -1 -1</clus>
<clus scale="   99.674">  2  5  1 -1</clus>
<clus scale="   40.403">  1  5  2 -1</clus>
</clustering>
</event>
<event>
 9    2  0.6175212E-005  0.9329809E+02  0.7546771E-02  0.1301681E+00
         21   -1    0    0  501  502  0.00000000000E+00  0.00000000000E+00  0.72369893264E+02  0.72369893264E+02  0.00000000000E+00 0.  1.
         -3   -1    0    0    0  501 -0.00000000000E+00 -0.00000000000E+00 -0.27826839871E+03  0.27826839871E+03  0.00000000000E+00 0.  1.
         24    2    1    2    0    0  0.86507285643E+01 -0.10859720078E+02 -0.15128804920E+03  0.17123252862E+03  0.78992002135E+02 0.  0.
         23    2    1    2    0    0 -0.58293769237E+02  0.12812643145E+02 -0.68268397456E+02  0.12788115997E+03  0.90170336744E+02 0.  0.
        -13    1    3    3    0    0  0.70403796089E+01 -0.44642945198E+02 -0.10073677315E+03  0.11041040243E+03  0.00000000000E+00 0.  1.
         14    1    3    3    0    0  0.16103489554E+01  0.33783225120E+02 -0.50551276050E+02  0.60822126184E+02  0.00000000000E+00 0. -1.
        -11    1    4    4    0    0  0.18897234610E+01 -0.29084980512E+02 -0.39544389772E+02  0.49125002886E+02  0.00000000000E+00 0. -1.
         11    1    4    4    0    0 -0.60183492698E+02  0.41897623658E+02 -0.28724007684E+02  0.78756157086E+02  0.00000000000E+00 0.  1.
         -4    1    1    2    0  502  0.49643040673E+02 -0.19529230669E+01  0.13657941209E+02  0.51524603384E+02  0.00000000000E+00 0.  1.
<scales pt_clust_5="13000.00000" pt_clust_6="13000.00000" pt_clust_7="13000.00000" pt_clust_8="13000.00000" pt_clust_9="49.68144"></scales>
<clustering>
<clus scale="   49.681">  1  9  2 -1</clus>
<clus scale="   78.992">  5  6 -1 -1</clus>
<clus scale="   82.544">  2  5  1 -1</clus>
<clus scale="   90.170">  7  8 -1 -1</clus>
<clus scale="   49.681">  1  5  2 -1</clus>
</clustering>
</event>
<event>
 9    2  0.6175212E-005  0.9456443E+02  0.7546771E-02  0.1294232E+00
         21   -1    0    0  501  502  0.00000000000E+00  0.00000000000E+00  0.24626822616E+02  0.24626822616E+02  0.00000000000E+00 0. -1.
          2   -1    0    0  502    0 -0.00000000000E+00 -0.00000000000E+00 -0.47883114975E+03  0.47883114975E+03  0.00000000000E+00 0. -1.
         23    2    1    2    0    0 -0.48874914409E+01 -0.38811427846E+02 -0.21335805656E+03  0.23015936586E+03  0.76951016183E+02 0.  0.
         24    2    1    2    0    0  0.59649767691E+00  0.63906743184E+02 -0.18402934064E+03  0.21103825791E+03  0.81153684159E+02 0.  0.
        -11    1    4    4    0    0  0.33621782215E+02  0.60046297634E+01 -0.85595754065E+02  0.92158086633E+02  0.00000000000E+00 0.  1.
         12    1    4    4    0    0 -0.33025284538E+02  0.57902113421E+02 -0.98433586570E+02  0.11888017128E+03  0.00000000000E+00 0. -1.
        -11    1    3    3    0    0  0.40140114285E+01 -0.58075312692E+02 -0.10804677687E+03  0.12273125203E+03  0.00000000000E+00 0. -1.
         11    1    3    3    0    0 -0.89015028694E+01  0.19263884846E+02 -0.10531127969E+03  0.10742811383E+03  0.00000000000E+00 0.  1.
          1    1    1    2  501    0  0.42909937640E+01 -0.25095315338E+02 -0.56816929941E+02  0.62260348597E+02  0.00000000000E+00 0. -1.
<scales pt_clust_5="13000.00000" pt_clust_6="13000.00000" pt_clust_7="13000.00000" pt_clust_8="13000.00000" pt_clust_9="25.45954"></scales>
<clustering>
<clus scale="   25.460">  1  9  2 -1</clus>
<clus scale="   76.951">  7  8 -1 -1</clus>
<clus scale="   81.154">  5  6 -1 -1</clus>
<clus scale="   90.983">  2  7  1 -1</clus>
<clus scale="   25.460">  1  5  2 -1</clus>
</clustering>
</event>
<event>
 9    2  0.6175212E-005  0.2605961E+03  0.7546771E-02  0.1153931E+00
         21   -1    0    0  501  502  0.00000000000E+00  0.00000000000E+00  0.78558434190E+02  0.78558434190E+02  0.00000000000E+00 0.  1.
          2   -1    0    0  502    0 -0.00000000000E+00 -0.00000000000E+00 -0.12675254499E+04  0.12675254499E+04  0.00000000000E+00 0. -1.
         24    2    1    2    0    0  0.63786441056E+01  0.13656086617E+02 -0.39839070934E+03  0.40671936135E+03  0.80487923388E+02 0.  0.
         23    2    1    2    0    0  0.13112899809E+03  0.19639290945E+03 -0.35562608937E+03  0.43715876442E+03  0.94195970467E+02 0.  0.
        -11    1    3    3    0    0 -0.29756971893E+01  0.46994317356E+02 -0.24249961050E+03  0.24702911110E+03  0.00000000000E+00 0.  1.
         12    1    3    3    0    0  0.93543412948E+01 -0.33338230738E+02 -0.15589109884E+03  0.15969025026E+03  0.00000000000E+00 0. -1.
        -13    1    4    4    0    0  0.92241534340E+02  0.14735921396E+03 -0.17791764856E+03  0.24875274524E+03  0.00000000000E+00 0.  1.
         13    1    4    4    0    0  0.38887463748E+02  0.49033695492E+02 -0.17770844081E+03  0.18840601918E+03  0.00000000000E+00 0. -1.
          1    1    1    2  501    0 -0.13750764219E+03 -0.21004899607E+03 -0.43495021701E+03  0.50220575832E+03  0.00000000000E+00 0. -1.
<scales pt_clust_5="13000.00000" pt_clust_6="13000.00000" pt_clust_7="13000.00000" pt_clust_8="13000.00000" pt_clust_9="242.97637"></scales>
<clustering>
<clus scale="   80.488">  5  6 -1 -1</clus>
<clus scale="   81.887">  2  5  1 -1</clus>
<clus scale="   94.196">  7  8 -1 -1</clus>
<clus scale="  242.976">  1  9  2 -1</clus>
<clus scale="  242.976">  1  5  2 -1</clus>
</clustering>
</event>
<event>
 9    2  0.6175212E-005  0.1519800E+03  0.7546771E-02  0.1199924E+00
         -3   -1    0    0    0  501 -0.00000000000E+00  0.00000000000E+00  0.16129719871E+03  0.16129719871E+03  0.00000000000E+00 0.  1.
         21   -1    0    0  501  502  0.00000000000E+00 -0.00000000000E+00 -0.20155840638E+03  0.20155840638E+03  0.00000000000E+00 0. -1.
         24    2    1    2    0    0 -0.12197152307E+03 -0.40642506545E+02  0.64520763503E+02  0.16527277694E+03  0.81383635303E+02 0.  0.
         23    2    1    2    0    0  0.10002444506E+03  0.29906195376E+02 -0.71546578834E+02  0.15633317464E+03  0.91770792848E+02 0.  0.
        -13    1    3    3    0    0 -0.84137608151E+02 -0.29472316079E+02  0.82913467191E+02  0.12174726922E+03  0.00000000000E+00 0.  1.
         14    1    3    3    0    0 -0.37833914923E+02 -0.11170190466E+02 -0.18392703688E+02  0.43525507722E+02  0.00000000000E+00 0. -1.
        -13    1    4    4    0    0  0.62537035516E+02  0.44481498055E+02 -0.84432792919E+02  0.11409812006E+03  0.00000000000E+00 0. -1.
         13    1    4    4    0    0  0.37487409545E+02 -0.14575302679E+02  0.12886214085E+02  0.42235054588E+02  0.00000000000E+00 0.  1.
         -4    1    1    2    0  502  0.21947078013E+02  0.10736311169E+02 -0.33235392333E+02  0.41249653506E+02  0.00000000000E+00 0.  1.
<scales pt_clust_5="13000.00000" pt_clust_6="13000.00000" pt_clust_7="13000.00000" pt_clust_8="13000.00000" pt_clust_9="24.43241"></scales>
<clustering>
<clus scale="   24.432">  2  9  1 -1</clus>
<clus scale="   81.384">  5  6 -1 -1</clus>
<clus scale="   91.771">  7  8 -1 -1</clus>
<clus scale="  145.943">  1  5  2 -1</clus>
<clus scale="   24.432">  2  5  1 -1</clus>
</clustering>
</event>
<event>
 9    2  0.6175212E-005  0.1370986E+03  0.7546771E-02  0.1220035E+00
          4   -1    0    0  502    0 -0.00000000000E+00  0.00000000000E+00  0.43851625442E+02  0.43851625442E+02  0.00000000000E+00 0. -1.
         21   -1    0    0  501  502  0.00000000000E+00 -0.00000000000E+00 -0.66812443499E+03  0.66812443499E+03  0.00000000000E+00 0. -1.
         23    2    1    2    0    0 -0.89955411518E+01  0.12679752307E+03 -0.28309621891E+03  0.32375591844E+03  0.92281601317E+02 0.  0.
         24    2    1    2    0    0  0.31429924874E+02 -0.72416590256E+02 -0.28669213672E+03  0.30803820422E+03  0.80393726621E+02 0.  0.
        -13    1    4    4    0    0  0.44568360585E+02 -0.55596962676E+02 -0.11686419354E+03  0.13687439773E+03  0.00000000000E+00 0.  1.
         14    1    4    4    0    0 -0.13138435711E+02 -0.16819627580E+02 -0.16982794319E+03  0.17116380649E+03  0.00000000000E+00 0. -1.
        -11    1    3    3    0    0  0.17924067076E+02  0.11585869438E+03 -0.26433861389E+03  0.28917021291E+03  0.00000000000E+00 0. -1.
         11    1    3    3    0    0 -0.26919608228E+02  0.10938828696E+02 -0.18757605026E+02  0.34585705525E+02  0.00000000000E+00 0.  1.
          3    1    1    2  501    0 -0.22434383722E+02 -0.54380932816E+02 -0.54484453910E+02  0.80181937771E+02  0.00000000000E+00 0. -1.
<scales pt_clust_5="13000.00000" pt_clust_6="13000.00000" pt_clust_7="13000.00000" pt_clust_8="13000.00000" pt_clust_9="58.82679"></scales>
<clustering>
<clus scale="   58.827">  2  9  1 -1</clus>
<clus scale="   80.394">  5  6 -1 -1</clus>
<clus scale="   92.282">  7  8 -1 -1</clus>
<clus scale="  129.396">  2  5  1 -1</clus>
<clus scale="   58.827">  2  5  1 -1</clus>
</clustering>
</event>
<event>
 9    2  0.6175212E-005  0.4201745E+03  0.7546771E-02  0.1057277E+00
         21   -1    0    0  501  502  0.00000000000E+00  0.00000000000E+00  0.12267720434E+03  0.12267720434E+03  0.00000000000E+00 0. -1.
          2   -1    0    0  502    0 -0.00000000000E+00 -0.00000000000E+00 -0.35745898109E+04  0.35745898109E+04  0.00000000000E+00 0. -1.
         24    2    1    2    0    0  0.13722998619E+03  0.17351836746E+03 -0.19594849512E+04  0.19735135114E+04  0.78953231557E+02 0.  0.
         23    2    1    2    0    0 -0.32811208596E+03  0.22878731996E+03 -0.82999609891E+03  0.92556717902E+03  0.88203741064E+02 0.  0.
        -13    1    3    3    0    0  0.29077245551E+02  0.13183181112E+02 -0.13124146721E+03  0.13506889053E+03  0.00000000000E+00 0.  1.
         14    1    3    3    0    0  0.10815274064E+03  0.16033518634E+03 -0.18282434840E+04  0.18384446209E+04  0.00000000000E+00 0. -1.
        -11    1    4    4    0    0 -0.40253611976E+02  0.48836997235E+02 -0.20207388427E+03  0.21175282827E+03  0.00000000000E+00 0.  1.
         11    1    4    4    0    0 -0.28785847399E+03  0.17995032272E+03 -0.62792221464E+03  0.71381435075E+03  0.00000000000E+00 0. -1.
          1    1    1    2  501    0  0.19088209977E+03 -0.40230568741E+03 -0.66243155645E+03  0.79818632482E+03  0.00000000000E+00 0. -1.
<scales pt_clust_5="13000.00000" pt_clust_6="13000.00000" pt_clust_7="13000.00000" pt_clust_8="13000.00000" pt_clust_9="410.81226"></scales>
<clustering>
<clus scale="   78.953">  5  6 -1 -1</clus>
<clus scale="   88.204">  7  8 -1 -1</clus>
<clus scale="  234.892">  2  5  1 -1</clus>
<clus scale="  410.812">  1  9  2 -1</clus>
<clus scale="  410.812">  1  5  2 -1</clus>
</clustering>
</event>
<event>
 9    2  0.6175212E-005  0.2012870E+03  0.7546771E-02  0.1182247E+00
          2   -1    0    0  502    0 -0.00000000000E+00  0.00000000000E+00  0.15481315629E+04  0.15481315629E+04  0.00000000000E+00 0. -1.
         21   -1    0    0  501  502  0.00000000000E+00 -0.00000000000E+00 -0.83780711502E+02  0.83780711502E+02  0.00000000000E+00 0. -1.
         24    2    1    2    0    0 -0.28901028148E+02  0.38053042515E+02  0.11213497237E+04  0.11251805583E+04  0.79515925498E+02 0.  0.
         23    2    1    2    0    0  0.79547244699E+02  0.13453197813E+03  0.20166843399E+03  0.27798390976E+03  0.11035524247E+03 0.  0.
        -11    1    3    3    0    0  0.44897792501E+01  0.34810120742E+02  0.18924225501E+03  0.19246956565E+03  0.00000000000E+00 0.  1.
         12    1    3    3    0    0 -0.33390807398E+02  0.32429217727E+01  0.93210746871E+03  0.93271099264E+03  0.00000000000E+00 0. -1.
        -13    1    4    4    0    0  0.29114474285E+02  0.12713546578E+03  0.10034140550E+03  0.16455843014E+03  0.00000000000E+00 0. -1.
         13    1    4    4    0    0  0.50432770413E+02  0.73965123543E+01  0.10132702849E+03  0.11342547963E+03  0.00000000000E+00 0.  1.
          1    1    1    2  501    0 -0.50646216551E+02 -0.17258502065E+03  0.14133269370E+03  0.22874780635E+03  0.00000000000E+00 0. -1.
<scales pt_clust_5="13000.00000" pt_clust_6="13000.00000" pt_clust_7="13000.00000" pt_clust_8="13000.00000" pt_clust_9="168.33949"></scales>
<clustering>
<clus scale="   79.516">  5  6 -1 -1</clus>
<clus scale="   92.769">  1  5  2 -1</clus>
<clus scale="  110.355">  7  8 -1 -1</clus>
<clus scale="  168.339">  2  9  1 -1</clus>
<clus scale="  168.339">  2  5  1 -1</clus>
</clustering>
</event>
<event>
 9    2  0.6175212E-005  0.2451345E+03  0.7546771E-02  0.1117212E+00
         -1   -1    0    0    0  501 -0.00000000000E+00  0.00000000000E+00  0.19783109191E+03  0.19783109191E+03  0.00000000000E+00 0.  1.
         21   -1    0    0  501  502  0.00000000000E+00 -0.00000000000E+00 -0.79948145576E+03  0.79948145576E+03  0.00000000000E+00 0.  1.
         24    2    1    2    0    0  0.14494534173E+03 -0.15844442673E+03 -0.14774158181E+02  0.22911641901E+03  0.78500122685E+02 0.  0.
         23    2    1    2    0    0 -0.23111938237E+03  0.11797875506E+03 -0.13558406861E+03  0.30697164011E+03  0.92268047634E+02 0.  0.
        -11    1    3    3    0    0  0.13283987841E+03 -0.94069809194E+02 -0.46925765152E+01  0.16284220145E+03  0.00000000000E+00 0.  1.
         12    1    3    3    0    0  0.12105463316E+02 -0.64374617536E+02 -0.10081581665E+02  0.66274217565E+02  0.00000000000E+00 0. -1.
        -13    1    4    4    0    0 -0.20736971336E+03  0.64952305903E+02 -0.10685292922E+03  0.24215397693E+03  0.00000000000E+00 0.  1.
         13    1    4    4    0    0 -0.23749669011E+02  0.53026449157E+02 -0.28731139393E+02  0.64817663173E+02  0.00000000000E+00 0. -1.
         -2    1    1    2    0  502  0.86174040646E+02  0.40465671670E+02 -0.45129213706E+03  0.46122448855E+03  0.00000000000E+00 0.  1.
<scales pt_clust_5="13000.00000" pt_clust_6="13000.00000" pt_clust_7="13000.00000" pt_clust_8="13000.00000" pt_clust_9="95.20208"></scales>
<clustering>
<clus scale="   78.500">  5  6 -1 -1</clus>
<clus scale="   92.268">  7  8 -1 -1</clus>
<clus scale="   95.202">  2  9  1 -1</clus>
<clus scale="  240.291">  1  5  2 -1</clus>
<clus scale="   95.202">  2  5  1 -1</clus>
</clustering>
</event>
<event>
 9    2  0.6175212E-005  0.9936344E+02  0.7546771E-02  0.1284778E+00
         21   -1    0    0  501  502  0.00000000000E+00  0.00000000000E+00  0.10023050699E+03  0.10023050699E+03  0.00000000000E+00 0.  1.
          2   -1    0    0  502    0 -0.00000000000E+00 -0.00000000000E+00 -0.22630272702E+03  0.22630272702E+03  0.00000000000E+00 0. -1.
         24    2    1    2    0    0  0.13244666839E+02  0.32093247814E+02 -0.11343283372E+03  0.14368766622E+03  0.81078603233E+02 0.  0.
         23    2    1    2    0    0 -0.41645557644E+02 -0.79432425227E+02 -0.20582363845E+02  0.12707192520E+03  0.87634341574E+02 0.  0.
        -13    1    3    3    0    0 -0.14299659283E+02 -0.22652333724E+02 -0.31020342196E+02  0.40986218522E+02  0.00000000000E+00 0.  1.
         14    1    3    3    0    0  0.27544326122E+02  0.54745581538E+02 -0.82412491522E+02  0.10270144769E+03  0.00000000000E+00 0. -1.
        -11    1    4    4    0    0 -0.68968862079E+02 -0.61402328437E+02 -0.11202035407E+02  0.93018468441E+02  0.00000000000E+00 0.  1.
         11    1    4    4    0    0  0.27323304434E+02 -0.18030096790E+02 -0.93803284382E+01  0.34053456757E+02  0.00000000000E+00 0. -1.
          1    1    1    2  501    0  0.28400890805E+02  0.47339177414E+02  0.79429775277E+01  0.55773642599E+02  0.00000000000E+00 0. -1.
<scales pt_clust_5="13000.00000" pt_clust_6="13000.00000" pt_clust_7="13000.00000" pt_clust_8="13000.00000" pt_clust_9="55.20515"></scales>
<clustering>
<clus scale="   55.205">  1  9  2 -1</clus>
<clus scale="   81.079">  5  6 -1 -1</clus>
<clus scale="   87.634">  7  8 -1 -1</clus>
<clus scale="   93.633">  2  5  1 -1</clus>
<clus scale="   55.205">  1  5  2 -1</clus>
</clustering>
</event>
<event>
 9    2  0.6175212E-005  0.1264107E+03  0.7546771E-02  0.1245725E+00
         21   -1    0    0  501  502  0.00000000000E+00  0.00000000000E+00  0.18376164976E+03  0.18376164976E+03  0.00000000000E+00 0. -1.
          2   -1    0    0  502    0 -0.00000000000E+00 -0.00000000000E+00 -0.62989266138E+03  0.62989266138E+03  0.00000000000E+00 0. -1.
         24    2    1    2    0    0 -0.53753552485E+02 -0.11660361548E+02 -0.55469403146E+03  0.56317295707E+03  0.80329960745E+02 0.  0.
         23    2    1    2    0    0 -0.61036378911E+02 -0.68243915640E+01  0.51925991895E+02  0.12115166923E+03  0.90605774933E+02 0.  0.
        -11    1    3    3    0    0  0.20967023448E+02  0.30383270297E+01 -0.11631802654E+03  0.11823168273E+03  0.00000000000E+00 0.  1.
         12    1    3    3    0    0 -0.74720575933E+02 -0.14698688578E+02 -0.43837600492E+03  0.44494127433E+03  0.00000000000E+00 0. -1.
        -11    1    4    4    0    0  0.20563423938E+02  0.75787773821E+01 -0.24346855436E+01  0.22050396014E+02  0.00000000000E+00 0.  1.
         11    1    4    4    0    0 -0.81599802849E+02 -0.14403168946E+02  0.54360677439E+02  0.99101273212E+02  0.00000000000E+00 0. -1.
          1    1    1    2  501    0  0.11478993140E+03  0.18484753112E+02  0.56637027948E+02  0.12932968485E+03  0.00000000000E+00 0. -1.
<scales pt_clust_5="13000.00000" pt_clust_6="13000.00000" pt_clust_7="13000.00000" pt_clust_8="13000.00000" pt_clust_9="88.14914"></scales>
<clustering>
<clus scale="   80.330">  5  6 -1 -1</clus>
<clus scale="   90.606">  7  8 -1 -1</clus>
<clus scale="   97.357">  2  5  1 -1</clus>
<clus scale="   88.149">  1  9  2 -1</clus>
<clus scale="   88.149">  1  5  2 -1</clus>
</clustering>
</event>
<event>
 9    2  0.6175212E-005  0.1231575E+03  0.7546771E-02  0.1258504E+00
          2   -1    0    0  502    0 -0.00000000000E+00  0.00000000000E+00  0.13629036629E+03  0.13629036629E+03  0.00000000000E+00 0. -1.
         21   -1    0    0  501  502  0.00000000000E+00 -0.00000000000E+00 -0.18988188960E+03  0.18988188960E+03  0.00000000000E+00 0. -1.
         24    2    1    2    0    0 -0.19624614090E+01 -0.17981714468E+02 -0.66076422645E+02  0.10501898167E+03  0.79597107810E+02 0.  0.
         23    2    1    2    0    0  0.83112480128E+02 -0.21205686549E+01  0.45453704106E+02  0.13128465115E+03  0.90870453092E+02 0.  0.
        -11    1    3    3    0    0  0.19761790345E+01 -0.46795396406E+02 -0.20893569540E+02  0.51286018139E+02  0.00000000000E+00 0.  1.
         12    1    3    3    0    0 -0.39386404434E+01  0.28813681938E+02 -0.45182853104E+02  0.53732963533E+02  0.00000000000E+00 0. -1.
        -11    1    4    4    0    0  0.56633349868E+02 -0.41938302612E+02  0.44715913398E+02  0.83460592223E+02  0.00000000000E+00 0. -1.
         11    1    4    4    0    0  0.26479130260E+02  0.39817733957E+02  0.73779070877E+00  0.47824058923E+02  0.00000000000E+00 0.  1.
          1    1    1    2  501    0 -0.81150018719E+02  0.20102283123E+02 -0.32968804768E+02  0.89868623071E+02  0.00000000000E+00 0. -1.
<scales pt_clust_5="13000.00000" pt_clust_6="13000.00000" pt_clust_7="13000.00000" pt_clust_8="13000.00000" pt_clust_9="83.12844"></scales>
<clustering>
<clus scale="   79.597">  5  6 -1 -1</clus>
<clus scale="   81.627">  1  5  2 -1</clus>
<clus scale="   83.128">  2  9  1 -1</clus>
<clus scale="   90.870">  7  8 -1 -1</clus>
<clus scale="   83.128">  2  5  1 -1</clus>
</clustering>
</event>
<event>
 9    2  0.6175212E-005  0.1326571E+03  0.7546771E-02  0.1234454E+00
         21   -1    0    0  501  502  0.00000000000E+00  0.00000000000E+00  0.45907927822E+02  0.45907927822E+02  0.00000000000E+00 0.  1.
          2   -1    0    0  502    0 -0.00000000000E+00 -0.00000000000E+00 -0.88470177104E+03  0.88470177104E+03  0.00000000000E+00 0. -1.
         23    2    1    2    0    0  0.18804441283E+02 -0.19409807140E+02 -0.11911085848E+03  0.15938477033E+03  0.10240000382E+03 0.  0.
         24    2    1    2    0    0  0.83543197360E+02  0.54306839174E+02 -0.58355523959E+03  0.59737555412E+03  0.79950837433E+02 0.  0.
        -13    1    4    4    0    0  0.18157266024E+02  0.36863596371E+02 -0.86842212156E+02  0.96073830251E+02  0.00000000000E+00 0.  1.
         14    1    4    4    0    0  0.65385931337E+02  0.17443242803E+02 -0.49671302743E+03  0.50130172387E+03  0.00000000000E+00 0. -1.
        -11    1    3    3    0    0 -0.25896097729E+02  0.11350787244E+02  0.24270586963E+00  0.28275557550E+02  0.00000000000E+00 0.  1.
         11    1    3    3    0    0  0.44700539012E+02 -0.30760594384E+02 -0.11935356435E+03  0.13110921278E+03  0.00000000000E+00 0. -1.
          1    1    1    2  501    0 -0.10234763864E+03 -0.34897032034E+02 -0.13612774516E+03  0.17384937441E+03  0.00000000000E+00 0. -1.
<scales pt_clust_5="13000.00000" pt_clust_6="13000.00000" pt_clust_7="13000.00000" pt_clust_8="13000.00000" pt_clust_9="105.85735"></scales>
<clustering>
<clus scale="   79.951">  5  6 -1 -1</clus>
<clus scale="  102.400">  7  8 -1 -1</clus>
<clus scale="  105.906">  2  7  1 -1</clus>
<clus scale="  105.857">  1  9  2 -1</clus>
<clus scale="  105.857">  1  5  2 -1</clus>
</clustering>
</event>
<event>
 9    2  0.6175212E-005  0.2030539E+03  0.7546771E-02  0.1169833E+00
         21   -1    0    0  501  502  0.00000000000E+00  0.00000000000E+00  0.15736490768E+03  0.15736490768E+03  0.00000000000E+00 0. -1.
          2   -1    0    0  502    0 -0.00000000000E+00 -0.00000000000E+00 -0.10792626668E+04  0.10792626668E+04  0.00000000000E+00 0. -1.
         23    2    1    2    0    0 -0.62729201124E+02  0.31390760109E+02 -0.29026638318E+02  0.12315598065E+03  0.96976890774E+02 0.  0.
         24    2    1    2    0    0 -0.99770088459E+02  0.70941977664E+02 -0.90892589227E+03  0.92076517462E+03  0.81703086872E+02 0.  0.
        -13    1    4    4    0    0 -0.35044723476E+02  0.71015996723E+01 -0.90537321190E+02  0.97342549225E+02  0.00000000000E+00 0.  1.
         14    1    4    4    0    0 -0.64725364983E+02  0.63840377991E+02 -0.81838857108E+03  0.82342262540E+03  0.00000000000E+00 0. -1.
        -13    1    3    3    0    0 -0.16771452461E+02  0.55480444271E+02 -0.39606225238E+02  0.70199817605E+02  0.00000000000E+00 0. -1.
         13    1    3    3    0    0 -0.45957748663E+02 -0.24089684162E+02  0.10579586920E+02  0.52956163046E+02  0.00000000000E+00 0.  1.
          1    1    1    2  501    0  0.16249928958E+03 -0.10233273777E+03  0.16054771431E+02  0.19270641925E+03  0.00000000000E+00 0. -1.
<scales pt_clust_5="13000.00000" pt_clust_6="13000.00000" pt_clust_7="13000.00000" pt_clust_8="13000.00000" pt_clust_9="185.89107"></scales>
<clustering>
<clus scale="   81.703">  5  6 -1 -1</clus>
<clus scale="   96.977">  7  8 -1 -1</clus>
<clus scale="  119.687">  2  7  1 -1</clus>
<clus scale="  185.891">  1  9  2 -1</clus>
<clus scale="  185.891">  1  5  2 -1</clus>
</clustering>
</event>
<event>
 9    2  0.6175212E-005  0.9399485E+02  0.7546771E-02  0.1300030E+00
         21   -1    0    0  501  502  0.00000000000E+00  0.00000000000E+00  0.30657801379E+03  0.30657801379E+03  0.00000000000E+00 0.  1.
         -1   -1    0    0    0  501 -0.00000000000E+00 -0.00000000000E+00 -0.41236181764E+02  0.41236181764E+02  0.00000000000E+00 0.  1.
         24    2    1    2    0    0 -0.22561451713E+02  0.47826361299E+00  0.53013182901E+02  0.98420383565E+02  0.79793022880E+02 0.  0.
         23    2    1    2    0    0  0.21095098196E+02 -0.22690097849E+02  0.11656982927E+03  0.15108172040E+03  0.90979763875E+02 0.  0.
        -13    1    3    3    0    0 -0.40660492015E+02  0.24029352027E+02  0.13755642465E+02  0.49192510298E+02  0.00000000000E+00 0.  1.
         14    1    3    3    0    0  0.18099040302E+02 -0.23551088414E+02  0.39257540436E+02  0.49227873267E+02  0.00000000000E+00 0. -1.
        -13    1    4    4    0    0  0.43571337018E+02 -0.23728776662E+02  0.11853160009E+03  0.12849613407E+03  0.00000000000E+00 0.  1.
         13    1    4    4    0    0 -0.22476238822E+02  0.10386788124E+01 -0.19617708153E+01  0.22585586333E+02  0.00000000000E+00 0. -1.
         -2    1    1    2    0  502  0.14663535168E+01  0.22211834236E+02  0.95758819849E+02  0.98312091584E+02  0.00000000000E+00 0.  1.
<scales pt_clust_5="13000.00000" pt_clust_6="13000.00000" pt_clust_7="13000.00000" pt_clust_8="13000.00000" pt_clust_9="22.26018"></scales>
<clustering>
<clus scale="   22.260">  1  9  2 -1</clus>
<clus scale="   79.793">  5  6 -1 -1</clus>
<clus scale="   83.214">  2  5  1 -1</clus>
<clus scale="   90.980">  7  8 -1 -1</clus>
<clus scale="   22.260">  1  5  2 -1</clus>
</clustering>
</event>
<event>
 9    2  0.6175212E-005  0.9246912E+02  0.7546771E-02  0.1304018E+00
         21   -1    0    0  501  502  0.00000000000E+00  0.00000000000E+00  0.51126311932E+02  0.51126311932E+02  0.00000000000E+00 0. -1.
          2   -1    0    0  502    0 -0.00000000000E+00 -0.00000000000E+00 -0.12874357792E+04  0.12874357792E+04  0.00000000000E+00 0. -1.
         24    2    1    2    0    0 -0.75228448141E+01  0.74840084370E+01 -0.10384320549E+04  0.10415978706E+04  0.80451151308E+02 0.  0.
         23    2    1    2    0    0 -0.21013850029E+02 -0.30440865852E+02 -0.22863748798E+03  0.24913595996E+03  0.91789963681E+02 0.  0.
        -13    1    3    3    0    0  0.13214367866E+02 -0.22505331972E+02 -0.13910483044E+03  0.14153184567E+03  0.00000000000E+00 0.  1.
         14    1    3    3    0    0 -0.20737212680E+02  0.29989340408E+02 -0.89932722448E+03  0.90006602492E+03  0.00000000000E+00 0. -1.
        -13    1    4    4    0    0 -0.16197428432E+02 -0.62571508256E+02 -0.12815315894E+03  0.14352972682E+03  0.00000000000E+00 0.  1.
         13    1    4    4    0    0 -0.48164215978E+01  0.32130642404E+02 -0.10048432903E+03  0.10560623315E+03  0.00000000000E+00 0. -1.
          1    1    1    2  501    0  0.28536694844E+02  0.22956857415E+02  0.30760075645E+02  0.47828260565E+02  0.00000000000E+00 0. -1.
<scales pt_clust_5="13000.00000" pt_clust_6="13000.00000" pt_clust_7="13000.00000" pt_clust_8="13000.00000" pt_clust_9="36.62459"></scales>
<clustering>
<clus scale="   36.625">  1  9  2 -1</clus>
<clus scale="   80.451">  5  6 -1 -1</clus>
<clus scale="   81.225">  2  5  1 -1</clus>
<clus scale="   91.790">  7  8 -1 -1</clus>
<clus scale="   36.625">  1  5  2 -1</clus>
</clustering>
</event>
<event>
 9    2  0.6175212E-005  0.1526431E+03  0.7546771E-02  0.1198579E+00
         21   -1    0    0  501  502  0.00000000000E+00  0.00000000000E+00  0.22523952458E+03  0.22523952458E+03  0.00000000000E+00 0. -1.
          2   -1    0    0  502    0 -0.00000000000E+00 -0.00000000000E+00 -0.66251834282E+03  0.66251834282E+03  0.00000000000E+00 0. -1.
         23    2    1    2    0    0 -0.10498452025E+03 -0.71789056995E+02 -0.54881133465E+03  0.57039087881E+03  0.89311003792E+02 0.  0.
         24    2    1    2    0    0  0.18477748514E+02  0.84003223535E+02  0.17355322733E+03  0.21022607202E+03  0.81708689168E+02 0.  0.
        -13    1    4    4    0    0  0.21658468702E+02  0.89407904793E+02  0.98000010376E+02  0.13441303783E+03  0.00000000000E+00 0.  1.
         14    1    4    4    0    0 -0.31807201878E+01 -0.54046812582E+01  0.75553216949E+02  0.75813034182E+02  0.00000000000E+00 0. -1.
        -13    1    3    3    0    0 -0.65129148830E+02  0.64867520905E+01 -0.28186332673E+03  0.28936278084E+03  0.00000000000E+00 0.  1.
         13    1    3    3    0    0 -0.39855371419E+02 -0.78275809085E+02 -0.26694800792E+03  0.28102809798E+03  0.00000000000E+00 0. -1.
          1    1    1    2  501    0  0.86506771735E+02 -0.12214166540E+02 -0.62020710923E+02  0.10714091657E+03  0.00000000000E+00 0. -1.
<scales pt_clust_5="13000.00000" pt_clust_6="13000.00000" pt_clust_7="13000.00000" pt_clust_8="13000.00000" pt_clust_9="87.36484"></scales>
<clustering>
<clus scale="   81.709">  5  6 -1 -1</clus>
<clus scale="   87.365">  1  9  2 -1</clus>
<clus scale="   89.311">  7  8 -1 -1</clus>
<clus scale="  148.323">  1  5  2 -1</clus>
<clus scale="   87.365">  1  5  2 -1</clus>
</clustering>
</event>
<event>
 9    2  0.6175212E-005  0.9041318E+02  0.7546771E-02  0.1308001E+00
         21   -1    0    0  501  502  0.00000000000E+00  0.00000000000E+00  0.85346233558E+02  0.85346233558E+02  0.00000000000E+00 0.  1.
          2   -1    0    0  502    0 -0.00000000000E+00 -0.00000000000E+00 -0.18585160172E+03  0.18585160172E+03  0.00000000000E+00 0. -1.
         23    2    1    2    0    0 -0.36359442808E+01  0.17852807594E+02 -0.10133783155E+03  0.13691110727E+03  0.90240525043E+02 0.  0.
         24    2    1    2    0    0 -0.57995737265E+00  0.14683891043E+02 -0.31917630578E+02  0.87929643992E+02  0.80603561609E+02 0.  0.
        -11    1    4    4    0    0  0.20601431126E+02  0.33006289076E+02  0.74515188922E+01  0.39615138732E+02  0.00000000000E+00 0.  1.
         12    1    4    4    0    0 -0.21181388499E+02 -0.18322398033E+02 -0.39369149470E+02  0.48314505259E+02  0.00000000000E+00 0. -1.
        -13    1    3    3    0    0 -0.28643720344E+02  0.45257998850E+02 -0.71293406416E+02  0.89171177930E+02  0.00000000000E+00 0.  1.
         13    1    3    3    0    0  0.25007776064E+02 -0.27405191256E+02 -0.30044425133E+02  0.47739929336E+02  0.00000000000E+00 0. -1.
          1    1    1    2  501    0  0.42159016535E+01 -0.32536698636E+02  0.32750093960E+02  0.46357084025E+02  0.00000000000E+00 0. -1.
<scales pt_clust_5="13000.00000" pt_clust_6="13000.00000" pt_clust_7="13000.00000" pt_clust_8="13000.00000" pt_clust_9="32.80870"></scales>
<clustering>
<clus scale="   32.809">  1  9  2 -1</clus>
<clus scale="   80.604">  5  6 -1 -1</clus>
<clus scale="   80.797">  1  5  2 -1</clus>
<clus scale="   90.241">  7  8 -1 -1</clus>
<clus scale="   32.809">  1  5  2 -1</clus>
</clustering>
</event>
<event>
 9    2  0.6175212E-005  0.8782577E+02  0.7546771E-02  0.1311038E+00
         21   -1    0    0  501  502  0.00000000000E+00  0.00000000000E+00  0.77979356785E+02  0.77979356785E+02  0.00000000000E+00 0.  1.
         -3   -1    0    0    0  501 -0.00000000000E+00 -0.00000000000E+00 -0.12908165589E+03  0.12908165589E+03  0.00000000000E+00 0.  1.
         24    2    1    2    0    0 -0.28963967216E+02  0.53613558104E+01 -0.23198804810E+02  0.88312357712E+02  0.79957691606E+02 0.  0.
         23    2    1    2    0    0  0.97020301960E+01 -0.21184351465E+02 -0.10446501174E+02  0.88316172018E+02  0.84544134724E+02 0.  0.
        -13    1    3    3    0    0 -0.35533398821E+02 -0.30295347783E+02 -0.29589100356E+01  0.46788734517E+02  0.00000000000E+00 0.  1.
         14    1    3    3    0    0  0.65694316054E+01  0.35656703593E+02 -0.20239894774E+02  0.41523623195E+02  0.00000000000E+00 0. -1.
        -11    1    4    4    0    0 -0.94062947855E+01 -0.43529332147E+02 -0.29374373069E+02  0.53349179300E+02  0.00000000000E+00 0.  1.
         11    1    4    4    0    0  0.19108324981E+02  0.22344980682E+02  0.18927871895E+02  0.34966992718E+02  0.00000000000E+00 0. -1.
         -4    1    1    2    0  502  0.19261937020E+02  0.15822995655E+02 -0.17456993117E+02  0.30432482941E+02  0.00000000000E+00 0.  1.
<scales pt_clust_5="13000.00000" pt_clust_6="13000.00000" pt_clust_7="13000.00000" pt_clust_8="13000.00000" pt_clust_9="24.92770"></scales>
<clustering>
<clus scale="   24.928">  1  9  2 -1</clus>
<clus scale="   79.958">  5  6 -1 -1</clus>
<clus scale="   83.420">  2  5  1 -1</clus>
<clus scale="   84.544">  7  8 -1 -1</clus>
<clus scale="   24.928">  1  5  2 -1</clus>
</clustering>
</event>
<event>
 9    2  0.6175212E-005  0.2193877E+03  0.7546771E-02  0.1172135E+00
          2   -1    0    0  502    0 -0.00000000000E+00  0.00000000000E+00  0.66833431804E+03  0.66833431804E+03  0.00000000000E+00 0. -1.
         21   -1    0    0  501  502  0.00000000000E+00 -0.00000000000E+00 -0.14462820586E+03  0.14462820586E+03  0.00000000000E+00 0. -1.
         24    2    1    2    0    0  0.17575053791E+02  0.38669159318E+02  0.15045238282E+03  0.17533498775E+03  0.79386724538E+02 0.  0.
         23    2    1    2    0    0  0.76684595664E+02 -0.19564899049E+03  0.41102976149E+01  0.22556634882E+03  0.81879353197E+02 0.  0.
        -11    1    3    3    0    0  0.33160797098E+02  0.44784618321E+02  0.14833770605E+03  0.15845938136E+03  0.00000000000E+00 0.  1.
         12    1    3    3    0    0 -0.15585743307E+02 -0.61154590032E+01  0.21146767702E+01  0.16875606392E+02  0.00000000000E+00 0. -1.
        -13    1    4    4    0    0  0.11665683764E+02 -0.51766205211E+02 -0.34152435830E+02  0.63104810061E+02  0.00000000000E+00 0.  1.
         13    1    4    4    0    0  0.65018911900E+02 -0.14388278528E+03  0.38262733445E+02  0.16246153876E+03  0.00000000000E+00 0. -1.
          1    1    1    2  501    0 -0.94259649456E+02  0.15697983118E+03  0.36914343174E+03  0.41206118733E+03  0.00000000000E+00 0. -1.
<scales pt_clust_5="13000.00000" pt_clust_6="13000.00000" pt_clust_7="13000.00000" pt_clust_8="13000.00000" pt_clust_9="203.53572"></scales>
<clustering>
<clus scale="   79.387">  5  6 -1 -1</clus>
<clus scale="   81.879">  7  8 -1 -1</clus>
<clus scale="   90.036">  1  5  2 -1</clus>
<clus scale="  203.536">  2  9  1 -1</clus>
<clus scale="  203.536">  2  5  1 -1</clus>
</clustering>
</event>
<event>
 9    2  0.6175212E-005  0.1040607E+03  0.7546771E-02  0.1278689E+00
         21   -1    0    0  501  502  0.00000000000E+00  0.00000000000E+00  0.29319349802E+03  0.29319349802E+03  0.00000000000E+00 0. -1.
          2   -1    0    0  502    0 -0.00000000000E+00 -0.00000000000E+00 -0.48049490584E+03  0.48049490584E+03  0.00000000000E+00 0. -1.
         24    2    1    2    0    0  0.40319773065E+02  0.14709635371E+01 -0.38460605284E+03  0.39476708843E+03  0.79318285352E+02 0.  0.
         23    2    1    2    0    0 -0.10716707805E+03 -0.17934774320E+02 -0.25594102007E+02  0.14563293021E+03  0.93527822366E+02 0.  0.
        -11    1    3    3    0    0  0.52128605333E+02 -0.26091389205E+02 -0.22938062639E+03  0.23667197520E+03  0.00000000000E+00 0.  1.
         12    1    3    3    0    0 -0.11808832268E+02  0.27562352742E+02 -0.15522542645E+03  0.15809511323E+03  0.00000000000E+00 0. -1.
        -11    1    4    4    0    0  0.71500700457E+01 -0.23152117769E+02  0.93622778533E+01  0.25976841714E+02  0.00000000000E+00 0.  1.
         11    1    4    4    0    0 -0.11431714809E+03  0.52173434490E+01 -0.34956379860E+02  0.11965608849E+03  0.00000000000E+00 0. -1.
          1    1    1    2  501    0  0.66847304983E+02  0.16463810783E+02  0.22289874704E+03  0.23328838522E+03  0.00000000000E+00 0. -1.
<scales pt_clust_5="13000.00000" pt_clust_6="13000.00000" pt_clust_7="13000.00000" pt_clust_8="13000.00000" pt_clust_9="68.84489"></scales>
<clustering>
<clus scale="   68.845">  1  9  2 -1</clus>
<clus scale="   79.318">  5  6 -1 -1</clus>
<clus scale="   91.502">  2  5  1 -1</clus>
<clus scale="   93.528">  7  8 -1 -1</clus>
<clus scale="   68.845">  1  5  2 -1</clus>
</clustering>
</event>
<event>
 9    2  0.6175212E-005  0.9573820E+02  0.7546771E-02  0.1294666E+00
          2   -1    0    0  502    0 -0.00000000000E+00  0.00000000000E+00  0.29362464002E+03  0.29362464002E+03  0.00000000000E+00 0. -1.
         21   -1    0    0  501  502  0.00000000000E+00 -0.00000000000E+00 -0.10737517339E+03  0.10737517339E+03  0.00000000000E+00 0.  1.
         24    2    1    2    0    0  0.20280904020E+02  0.51887019475E+01  0.21234936736E+03  0.22882185235E+03  0.82637452763E+02 0.  0.
         23    2    1    2    0    0 -0.62121730612E+02 -0.15240750953E+02  0.14720792404E+02  0.11286499918E+03  0.91817299058E+02 0.  0.
        -11    1    3    3    0    0 -0.23141265159E+02 -0.20439167227E+02  0.49446386917E+02  0.58294278358E+02  0.00000000000E+00 0.  1.
         12    1    3    3    0    0  0.43422169179E+02  0.25627869174E+02  0.16290298044E+03  0.17052757399E+03  0.00000000000E+00 0. -1.
        -11    1    4    4    0    0  0.18873750816E+02  0.15000822600E+02  0.10524862883E+02  0.26306194845E+02  0.00000000000E+00 0. -1.
         11    1    4    4    0    0 -0.80995481428E+02 -0.30241573553E+02  0.41959295210E+01  0.86558804332E+02  0.00000000000E+00 0.  1.
          1    1    1    2  501    0  0.41840826592E+02  0.10052049006E+02 -0.40820693129E+02  0.59312961878E+02  0.00000000000E+00 0. -1.
<scales pt_clust_5="13000.00000" pt_clust_6="13000.00000" pt_clust_7="13000.00000" pt_clust_8="13000.00000" pt_clust_9="43.03137"></scales>
<clustering>
<clus scale="   43.031">  2  9  1 -1</clus>
<clus scale="   82.637">  5  6 -1 -1</clus>
<clus scale="   86.973">  1  5  2 -1</clus>
<clus scale="   91.817">  7  8 -1 -1</clus>
<clus scale="   43.031">  2  5  1 -1</clus>
</clustering>
</event>
<event>
 9    2  0.6175212E-005  0.1664948E+03  0.7546771E-02  0.1183395E+00
          2   -1    0    0  502    0 -0.00000000000E+00  0.00000000000E+00  0.22564072709E+03  0.22564072709E+03  0.00000000000E+00 0. -1.
         21   -1    0    0  501  502  0.00000000000E+00 -0.00000000000E+00 -0.14550834337E+03  0.14550834337E+03  0.00000000000E+00 0. -1.
         23    2    1    2    0    0  0.13891789737E+03  0.31071949112E+02  0.89154596730E+02  0.19190802084E+03  0.92825094199E+02 0.  0.
         24    2    1    2    0    0 -0.12345022890E+03 -0.48988511417E+02 -0.47751562559E+01  0.15519339977E+03  0.80139602870E+02 0.  0.
        -13    1    4    4    0    0 -0.39197213358E+02 -0.40799386836E+02 -0.33561211919E+02  0.65782721490E+02  0.00000000000E+00 0.  1.
         14    1    4    4    0    0 -0.84253015547E+02 -0.81891245806E+01  0.28786055663E+02  0.89410678281E+02  0.00000000000E+00 0. -1.
        -13    1    3    3    0    0  0.42521699248E+02  0.17209876649E+02  0.82372733025E+02  0.94284367248E+02  0.00000000000E+00 0.  1.
         13    1    3    3    0    0  0.96396198121E+02  0.13862072463E+02  0.67818637046E+01  0.97623653591E+02  0.00000000000E+00 0. -1.
          1    1    1    2  501    0 -0.15467668465E+02  0.17916562305E+02 -0.42470567539E+01  0.24047649857E+02  0.00000000000E+00 0. -1.
<scales pt_clust_5="13000.00000" pt_clust_6="13000.00000" pt_clust_7="13000.00000" pt_clust_8="13000.00000" pt_clust_9="23.66964"></scales>
<clustering>
<clus scale="   23.670">  2  9  1 -1</clus>
<clus scale="   80.140">  5  6 -1 -1</clus>
<clus scale="   92.825">  7  8 -1 -1</clus>
<clus scale="  159.770">  2  5  1 -1</clus>
<clus scale="   23.670">  2  5  1 -1</clus>
</clustering>
</event>
<event>
 9    2  0.6175212E-005  0.1623401E+03  0.7546771E-02  0.1198201E+00
          2   -1    0    0  502    0 -0.00000000000E+00  0.00000000000E+00  0.44334950225E+03  0.44334950225E+03  0.00000000000E+00 0. -1.
         21   -1    0    0  501  502  0.00000000000E+00 -0.00000000000E+00 -0.31102068761E+03  0.31102068761E+03  0.00000000000E+00 0. -1.
         24    2    1    2    0    0  0.95608665915E+02 -0.35840735165E+01  0.34102345810E+03  0.36297743567E+03  0.79383608196E+02 0.  0.
         23    2    1    2    0    0 -0.12117779020E+03 -0.12112456309E+03 -0.78401509638E+02  0.20923259147E+03  0.90973974296E+02 0.  0.
        -11    1    3    3    0    0  0.39211165909E+02  0.32310108734E+02  0.91565759958E+02  0.10471746299E+03  0.00000000000E+00 0.  1.
         12    1    3    3    0    0  0.56397500006E+02 -0.35894182251E+02  0.24945769815E+03  0.25825997268E+03  0.00000000000E+00 0. -1.
        -13    1    4    4    0    0 -0.75398154282E+02 -0.14191439959E+02 -0.41338157939E+02  0.87149996782E+02  0.00000000000E+00 0.  1.
         13    1    4    4    0    0 -0.45779635916E+02 -0.10693312313E+03 -0.37063351699E+02  0.12208259469E+03  0.00000000000E+00 0. -1.
          1    1    1    2  501    0  0.25569124283E+02  0.12470863661E+03 -0.13029313382E+03  0.18216016272E+03  0.00000000000E+00 0. -1.
<scales pt_clust_5="13000.00000" pt_clust_6="13000.00000" pt_clust_7="13000.00000" pt_clust_8="13000.00000" pt_clust_9="134.45462"></scales>
<clustering>
<clus scale="   79.384">  5  6 -1 -1</clus>
<clus scale="   90.974">  7  8 -1 -1</clus>
<clus scale="  124.321">  1  5  2 -1</clus>
<clus scale="  134.455">  2  9  1 -1</clus>
<clus scale="  134.455">  2  5  1 -1</clus>
</clustering>
</event>
<event>
 9    2  0.6175212E-005  0.1032472E+03  0.7546771E-02  0.1279212E+00
         21   -1    0    0  501  502  0.00000000000E+00  0.00000000000E+00  0.43675170683E+03  0.43675170683E+03  0.00000000000E+00 0.  1.
          4   -1    0    0  502    0 -0.00000000000E+00 -0.00000000000E+00 -0.51831636223E+02  0.51831636223E+02  0.00000000000E+00 0. -1.
         24    2    1    2    0    0 -0.43608912545E+02 -0.17164200122E+02  0.10480158760E+03  0.14151313812E+03  0.82742059912E+02 0.  0.
         23    2    1    2    0    0  0.31052412646E+02 -0.66975136608E+02  0.16726779163E+03  0.20574656141E+03  0.94356834192E+02 0.  0.
        -13    1    3    3    0    0 -0.55658175431E+02 -0.67677903510E+01  0.27238760204E+02  0.62334465073E+02  0.00000000000E+00 0.  1.
         14    1    3    3    0    0  0.12049262885E+02 -0.10396409771E+02  0.77562827395E+02  0.79178673049E+02  0.00000000000E+00 0. -1.
        -13    1    4    4    0    0  0.58340812600E+02 -0.67424583124E+02  0.10492531091E+03  0.13769185050E+03  0.00000000000E+00 0.  1.
         13    1    4    4    0    0 -0.27288399954E+02  0.44944651671E+00  0.62342480721E+02  0.68054710907E+02  0.00000000000E+00 0. -1.
          3    1    1    2  501    0  0.12556499900E+02  0.84139336730E+02  0.11285069138E+03  0.14132364353E+03  0.00000000000E+00 0. -1.
<scales pt_clust_5="13000.00000" pt_clust_6="13000.00000" pt_clust_7="13000.00000" pt_clust_8="13000.00000" pt_clust_9="85.07111"></scales>
<clustering>
<clus scale="   82.742">  5  6 -1 -1</clus>
<clus scale="   85.071">  1  9  2 -1</clus>
<clus scale="   92.753">  2  5  1 -1</clus>
<clus scale="   94.357">  7  8 -1 -1</clus>
<clus scale="   85.071">  1  5  2 -1</clus>
</clustering>
</event>
<event>
 9    2  0.6175212E-005  0.1685581E+03  0.7546771E-02  0.1207517E+00
         21   -1    0    0  501  502  0.00000000000E+00  0.00000000000E+00  0.28014927086E+03  0.28014927086E+03  0.00000000000E+00 0. -1.
          2   -1    0    0  502    0 -0.00000000000E+00 -0.00000000000E+00 -0.54114093581E+03  0.54114093581E+03  0.00000000000E+00 0. -1.
         24    2    1    2    0    0  0.39664365699E+02  0.44871417249E+01 -0.37821524496E+03  0.38896391305E+03  0.81564439494E+02 0.  0.
         23    2    1    2    0    0 -0.13093605899E+03 -0.10789146997E+03 -0.65796065259E+02  0.20315568544E+03  0.90323249970E+02 0.  0.
        -13    1    3    3    0    0  0.18755129430E+02  0.37541038518E+02 -0.10686651344E+03  0.11481087120E+03  0.00000000000E+00 0.  1.
         14    1    3    3    0    0  0.20909236269E+02 -0.33053896793E+02 -0.27134873152E+03  0.27415304184E+03  0.00000000000E+00 0. -1.
        -13    1    4    4    0    0 -0.66529413123E+02 -0.36236522703E+02  0.15222637352E+02  0.77272097655E+02  0.00000000000E+00 0.  1.
         13    1    4    4    0    0 -0.64406645871E+02 -0.71654947270E+02 -0.81018702611E+02  0.12588358778E+03  0.00000000000E+00 0. -1.
          1    1    1    2  501    0  0.91271693295E+02  0.10340432825E+03  0.18301964526E+03  0.22917060817E+03  0.00000000000E+00 0. -1.
<scales pt_clust_5="13000.00000" pt_clust_6="13000.00000" pt_clust_7="13000.00000" pt_clust_8="13000.00000" pt_clust_9="142.31492"></scales>
<clustering>
<clus scale="   81.564">  5  6 -1 -1</clus>
<clus scale="   90.323">  7  8 -1 -1</clus>
<clus scale="   90.808">  2  5  1 -1</clus>
<clus scale="  142.315">  1  9  2 -1</clus>
<clus scale="  142.315">  1  5  2 -1</clus>
</clustering>
</event>
<event>
 9    2  0.6175212E-005  0.1334113E+03  0.7546771E-02  0.1224405E+00
         21   -1    0    0  501  502  0.00000000000E+00  0.00000000000E+00  0.55771069100E+02  0.55771069100E+02  0.00000000000E+00 0. -1.
          2   -1    0    0  502    0 -0.00000000000E+00 -0.00000000000E+00 -0.18575897403E+04  0.18575897403E+04  0.00000000000E+00 0. -1.
         24    2    1    2    0    0  0.71295160023E+02 -0.66005780823E+02 -0.15799014801E+04  0.15850705254E+04  0.83187264063E+02 0.  0.
         23    2    1    2    0    0 -0.86517392489E+02  0.52840683966E+02 -0.25525034036E+03  0.28935270612E+03  0.91076095666E+02 0.  0.
        -11    1    3    3    0    0 -0.14862395154E+02 -0.14620044719E+02 -0.12607690292E+03  0.12778897428E+03  0.00000000000E+00 0.  1.
         12    1    3    3    0    0  0.86157555177E+02 -0.51385736104E+02 -0.14538245772E+04  0.14572815512E+04  0.00000000000E+00 0. -1.
        -11    1    4    4    0    0 -0.36213680251E+02  0.43836621399E+01 -0.15498634632E+02  0.39634010730E+02  0.00000000000E+00 0.  1.
         11    1    4    4    0    0 -0.50303712238E+02  0.48457021826E+02 -0.23975170573E+03  0.24971869539E+03  0.00000000000E+00 0. -1.
          1    1    1    2  501    0  0.15222232466E+02  0.13165096856E+02  0.33333149195E+02  0.38937577887E+02  0.00000000000E+00 0. -1.
<scales pt_clust_5="13000.00000" pt_clust_6="13000.00000" pt_clust_7="13000.00000" pt_clust_8="13000.00000" pt_clust_9="20.12551"></scales>
<clustering>
<clus scale="   20.126">  1  9  2 -1</clus>
<clus scale="   83.187">  5  6 -1 -1</clus>
<clus scale="   91.076">  7  8 -1 -1</clus>
<clus scale="  128.156">  2  5  1 -1</clus>
<clus scale="   20.126">  1  5  2 -1</clus>
</clustering>
</event>
<event>
 9    2  0.6175212E-005  0.9934964E+02  0.7546771E-02  0.1287399E+00
          2   -1    0    0  502    0 -0.00000000000E+00  0.00000000000E+00  0.69175115770E+03  0.69175115770E+03  0.00000000000E+00 0. -1.
         21   -1    0    0  501  502  0.00000000000E+00 -0.00000000000E+00 -0.23156109884E+02  0.23156109884E+02  0.00000000000E+00 0.  1.
         24    2    1    2    0    0 -0.38949180020E+02 -0.27775405053E+02  0.45549180683E+03  0.46504843632E+03  0.80676826165E+02 0.  0.
         23    2    1    2    0    0  0.77769629624E+01  0.13226757822E+02  0.17702555635E+03  0.20000936205E+03  0.91816496514E+02 0.  0.
        -13    1    3    3    0    0  0.20987992465E+02 -0.19550011145E+02  0.86542428727E+02  0.91171765001E+02  0.00000000000E+00 0.  1.
         14    1    3    3    0    0 -0.59937172484E+02 -0.82253939084E+01  0.36894937811E+03  0.37387667132E+03  0.00000000000E+00 0. -1.
        -13    1    4    4    0    0 -0.25351230755E+02 -0.39142569209E+01  0.79309847776E+01  0.26849708147E+02  0.00000000000E+00 0.  1.
         13    1    4    4    0    0  0.33128193717E+02  0.17141014743E+02  0.16909457157E+03  0.17315965391E+03  0.00000000000E+00 0. -1.
          1    1    1    2  501    0  0.31172217057E+02  0.14548647231E+02  0.36077684634E+02  0.49849469216E+02  0.00000000000E+00 0. -1.
<scales pt_clust_5="13000.00000" pt_clust_6="13000.00000" pt_clust_7="13000.00000" pt_clust_8="13000.00000" pt_clust_9="34.40015"></scales>
<clustering>
<clus scale="   34.400">  2  9  1 -1</clus>
<clus scale="   80.677">  5  6 -1 -1</clus>
<clus scale="   89.156">  1  5  2 -1</clus>
<clus scale="   91.816">  7  8 -1 -1</clus>
<clus scale="   34.400">  2  5  1 -1</clus>
</clustering>
</event>
<event>
 9    2  0.6175212E-005  0.2882794E+03  0.7546771E-02  0.1139181E+00
         21   -1    0    0  501  502  0.00000000000E+00  0.00000000000E+00  0.17090537597E+03  0.17090537597E+03  0.00000000000E+00 0.  1.
          2   -1    0    0  502    0 -0.00000000000E+00 -0.00000000000E+00 -0.89493915208E+03  0.89493915208E+03  0.00000000000E+00 0. -1.
         24    2    1    2    0    0  0.32265975827E+02  0.53637289481E+01 -0.15520545322E+03  0.17743053455E+03  0.79517288031E+02 0.  0.
         23    2    1    2    0    0 -0.27219524203E+03  0.67851107732E+02 -0.32722342654E+02  0.29652203788E+03  0.90335732881E+02 0.  0.
        -11    1    3    3    0    0  0.69064927525E+01  0.41357773486E+02 -0.77662873161E+02  0.88259203132E+02  0.00000000000E+00 0.  1.
         12    1    3    3    0    0  0.25359483074E+02 -0.35994044538E+02 -0.77542580059E+02  0.89171331414E+02  0.00000000000E+00 0. -1.
        -11    1    4    4    0    0 -0.26962772904E+03  0.47271523730E+02 -0.27381589321E+02  0.27510627157E+03  0.00000000000E+00 0.  1.
         11    1    4    4    0    0 -0.25675129946E+01  0.20579584002E+02 -0.53407533337E+01  0.21415766315E+02  0.00000000000E+00 0. -1.
          1    1    1    2  501    0  0.23992926620E+03 -0.73214836680E+02 -0.53610598023E+03  0.59189195562E+03  0.00000000000E+00 0. -1.
<scales pt_clust_5="13000.00000" pt_clust_6="13000.00000" pt_clust_7="13000.00000" pt_clust_8="13000.00000" pt_clust_9="273.75997"></scales>
<clustering>
<clus scale="   79.517">  5  6 -1 -1</clus>
<clus scale="   85.982">  2  5  1 -1</clus>
<clus scale="   90.336">  7  8 -1 -1</clus>
<clus scale="  273.760">  1  9  2 -1</clus>
<clus scale="  273.760">  1  5  2 -1</clus>
</clustering>
</event>
<event>
 9    2  0.6175212E-005  0.2332180E+03  0.7546771E-02  0.1159707E+00
          4   -1    0    0  502    0 -0.00000000000E+00  0.00000000000E+00  0.55914918030E+03  0.55914918030E+03  0.00000000000E+00 0. -1.
         21   -1    0    0  501  502  0.00000000000E+00 -0.00000000000E+00 -0.13748268423E+03  0.13748268423E+03  0.00000000000E+00 0. -1.
         24    2    1    2    0    0  0.71741929323E+01 -0.57308604620E+02  0.10500789290E+03  0.14486538443E+03  0.81385360034E+02 0.  0.
         23    2    1    2    0    0  0.16033831504E+03 -0.10964559468E+03  0.16778636941E+03  0.27230791970E+03  0.90932973501E+02 0.  0.
        -13    1    3    3    0    0 -0.13325364061E+02  0.17541972558E+02  0.26718579938E+02  0.34629014460E+02  0.00000000000E+00 0.  1.
         14    1    3    3    0    0  0.20499556993E+02 -0.74850577177E+02  0.78289312962E+02  0.11023636997E+03  0.00000000000E+00 0. -1.
        -13    1    4    4    0    0  0.13211962129E+03 -0.56725556881E+02  0.75912552354E+02  0.16259181633E+03  0.00000000000E+00 0. -1.
         13    1    4    4    0    0  0.28218693748E+02 -0.52920037803E+02  0.91873817060E+02  0.10971610337E+03  0.00000000000E+00 0.  1.
          3    1    1    2  501    0 -0.16751250797E+03  0.16695419930E+03  0.14887223376E+03  0.27945856039E+03  0.00000000000E+00 0. -1.
<scales pt_clust_5="13000.00000" pt_clust_6="13000.00000" pt_clust_7="13000.00000" pt_clust_8="13000.00000" pt_clust_9="214.76008"></scales>
<clustering>
<clus scale="   81.385">  5  6 -1 -1</clus>
<clus scale="   90.933">  7  8 -1 -1</clus>
<clus scale="   99.796">  1  5  2 -1</clus>
<clus scale="  214.760">  2  9  1 -1</clus>
<clus scale="  214.760">  2  5  1 -1</clus>
</clustering>
</event>
<event>
 9    2  0.6175212E-005  0.1506740E+03  0.7546771E-02  0.1205274E+00
          2   -1    0    0  502    0 -0.00000000000E+00  0.00000000000E+00  0.20928908201E+03  0.20928908201E+03  0.00000000000E+00 0. -1.
         21   -1    0    0  501  502  0.00000000000E+00 -0.00000000000E+00 -0.17842751743E+03  0.17842751743E+03  0.00000000000E+00 0.  1.
         24    2    1    2    0    0  0.93491221854E+02  0.86367216619E+02  0.32397914835E+02  0.14307257968E+03  0.56747101251E+02 0.  0.
         23    2    1    2    0    0 -0.10537486033E+03 -0.40227760388E+02 -0.70614551082E+02  0.16072818030E+03  0.90138777573E+02 0.  0.
        -11    1    3    3    0    0  0.53940502344E+02  0.12510327411E+02  0.16688203276E+02  0.57832363030E+02  0.00000000000E+00 0.  1.
         12    1    3    3    0    0  0.39550719510E+02  0.73856889208E+02  0.15709711559E+02  0.85240216650E+02  0.00000000000E+00 0. -1.
        -11    1    4    4    0    0 -0.59815323386E+02  0.19440435737E+02 -0.88539156523E+01  0.63515315285E+02  0.00000000000E+00 0.  1.
         11    1    4    4    0    0 -0.45559536940E+02 -0.59668196126E+02 -0.61760635429E+02  0.97212865011E+02  0.00000000000E+00 0. -1.
          1    1    1    2  501    0  0.11883638471E+02 -0.46139456231E+02  0.69078200820E+02  0.83915839465E+02  0.00000000000E+00 0. -1.
<scales pt_clust_5="13000.00000" pt_clust_6="13000.00000" pt_clust_7="13000.00000" pt_clust_8="13000.00000" pt_clust_9="47.64528"></scales>
<clustering>
<clus scale="   47.645">  2  9  1 -1</clus>
<clus scale="   56.747">  5  6 -1 -1</clus>
<clus scale="   90.139">  7  8 -1 -1</clus>
<clus scale="  133.409">  1  5  2 -1</clus>
<clus scale="   47.645">  2  5  1 -1</clus>
</clustering>
</event>
<event>
 9    2  0.6175212E-005  0.1983675E+03  0.7546771E-02  0.1151407E+00
          2   -1    0    0  502    0 -0.00000000000E+00  0.00000000000E+00  0.21745414492E+04  0.21745414492E+04  0.00000000000E+00 0. -1.
         21   -1    0    0  501  502  0.00000000000E+00 -0.00000000000E+00 -0.35825630609E+02  0.35825630609E+02  0.00000000000E+00 0. -1.
         24    2    1    2    0    0 -0.11739804128E+03  0.12912619648E+03  0.10310467999E+04  0.10499462908E+04  0.94201036418E+02 0.  0.
         23    2    1    2    0    0  0.18146568566E+03 -0.53886175331E+02  0.95995323929E+03  0.98269719653E+03  0.91378572319E+02 0.  0.
        -11    1    3    3    0    0 -0.53186915015E+02  0.39457767689E+02  0.18024660548E+03  0.19202760778E+03  0.00000000000E+00 0.  1.
         12    1    3    3    0    0 -0.64211126260E+02  0.89668428796E+02  0.85080019445E+03  0.85791868306E+03  0.00000000000E+00 0. -1.
        -11    1    4    4    0    0  0.10003129674E+03  0.12906538879E+02  0.56554726044E+03  0.57447066318E+03  0.00000000000E+00 0.  1.
         11    1    4    4    0    0  0.81434388928E+02 -0.66792714211E+02  0.39440597885E+03  0.40822653334E+03  0.00000000000E+00 0. -1.
          1    1    1    2  501    0 -0.64067644389E+02 -0.75240021153E+02  0.14771577940E+03  0.17772359248E+03  0.00000000000E+00 0. -1.
<scales pt_clust_5="13000.00000" pt_clust_6="13000.00000" pt_clust_7="13000.00000" pt_clust_8="13000.00000" pt_clust_9="98.82168"></scales>
<clustering>
<clus scale="   91.379">  7  8 -1 -1</clus>
<clus scale="   94.201">  5  6 -1 -1</clus>
<clus scale="   98.822">  2  9  1 -1</clus>
<clus scale="  197.043">  2  7  1 -1</clus>
<clus scale="   98.822">  2  5  1 -1</clus>
</clustering>
</event>
<event>
 9    2  0.6175212E-005  0.1056042E+03  0.7546771E-02  0.1274008E+00
         -3   -1    0    0    0  501 -0.00000000000E+00  0.00000000000E+00  0.62593930249E+02  0.62593930249E+02  0.00000000000E+00 0.  1.
         21   -1    0    0  501  502  0.00000000000E+00 -0.00000000000E+00 -0.50262617696E+03  0.50262617696E+03  0.00000000000E+00 0.  1.
         24    2    1    2    0    0 -0.27319517769E+02  0.33291499969E+02 -0.18253855650E+02  0.92645671672E+02  0.79970852265E+02 0.  0.
         23    2    1    2    0    0  0.84308239511E+02 -0.36226189359E+02 -0.16651993383E+03  0.21101525142E+03  0.91533228530E+02 0.  0.
        -13    1    3    3    0    0  0.21284066085E+02  0.11743032543E+02 -0.29579528733E+02  0.38286535525E+02  0.00000000000E+00 0.  1.
         14    1    3    3    0    0 -0.48603583854E+02  0.21548467426E+02  0.11325673082E+02  0.54359136147E+02  0.00000000000E+00 0. -1.
        -13    1    4    4    0    0 -0.11579965592E+02 -0.26911311079E+02 -0.63696946882E+02  0.70111449202E+02  0.00000000000E+00 0. -1.
         13    1    4    4    0    0  0.95888205103E+02 -0.93148782798E+01 -0.10282298695E+03  0.14090380222E+03  0.00000000000E+00 0.  1.
         -4    1    1    2    0  502 -0.56988721742E+02  0.29346893892E+01 -0.25525845723E+03  0.26155918412E+03  0.00000000000E+00 0.  1.
<scales pt_clust_5="13000.00000" pt_clust_6="13000.00000" pt_clust_7="13000.00000" pt_clust_8="13000.00000" pt_clust_9="57.06423"></scales>
<clustering>
<clus scale="   57.064">  2  9  1 -1</clus>
<clus scale="   79.971">  5  6 -1 -1</clus>
<clus scale="   91.533">  7  8 -1 -1</clus>
<clus scale="   95.756">  1  5  2 -1</clus>
<clus scale="   57.064">  2  5  1 -1</clus>
</clustering>
</event>
<event>
 9    2  0.6175212E-005  0.9727760E+02  0.7546771E-02  0.1291009E+00
         21   -1    0    0  501  502  0.00000000000E+00  0.00000000000E+00  0.45921164872E+03  0.45921164872E+03  0.00000000000E+00 0.  1.
          2   -1    0    0  502    0 -0.00000000000E+00 -0.00000000000E+00 -0.46499633706E+02  0.46499633706E+02  0.00000000000E+00 0. -1.
         23    2    1    2    0    0  0.19265876776E+02  0.59195434771E+00  0.14887264699E+03  0.17623440977E+03  0.92325390595E+02 0.  0.
         24    2    1    2    0    0  0.59679902588E+02 -0.41158385865E+02  0.13142226018E+03  0.17006432015E+03  0.79964736088E+02 0.  0.
        -11    1    4    4    0    0  0.42742500805E+02 -0.45439782352E+02  0.33919175339E+02  0.71008489992E+02  0.00000000000E+00 0.  1.
         12    1    4    4    0    0  0.16937401783E+02  0.42813964872E+01  0.97503084838E+02  0.99055830156E+02  0.00000000000E+00 0. -1.
        -13    1    3    3    0    0  0.56609072538E+02 -0.16959192169E+01  0.96065231801E+02  0.11151677899E+03  0.00000000000E+00 0. -1.
         13    1    3    3    0    0 -0.37343195762E+02  0.22878735646E+01  0.52807415187E+02  0.64717630781E+02  0.00000000000E+00 0.  1.
          1    1    1    2  501    0 -0.78945779364E+02  0.40566431517E+02  0.13241710785E+03  0.15941255251E+03  0.00000000000E+00 0. -1.
<scales pt_clust_5="13000.00000" pt_clust_6="13000.00000" pt_clust_7="13000.00000" pt_clust_8="13000.00000" pt_clust_9="88.75850"></scales>
<clustering>
<clus scale="   79.965">  5  6 -1 -1</clus>
<clus scale="   88.759">  1  9  2 -1</clus>
<clus scale="   88.759">  1  5  2 -1</clus>
<clus scale="   92.325">  7  8 -1 -1</clus>
<clus scale="   88.759">  1  5  2 -1</clus>
</clustering>
</event>
<event>
 9    2  0.6175212E-005  0.1109538E+03  0.7546771E-02  0.1260413E+00
         -1   -1    0    0    0  501 -0.00000000000E+00  0.00000000000E+00  0.11057963451E+03  0.11057963451E+03  0.00000000000E+00 0.  1.
         21   -1    0    0  501  502  0.00000000000E+00 -0.00000000000E+00 -0.24032052643E+03  0.24032052643E+03  0.00000000000E+00 0.  1.
         24    2    1    2    0    0 -0.24504526608E+02 -0.72234926826E+02  0.48740201419E+02  0.11984811080E+03  0.78546839204E+02 0.  0.
         23    2    1    2    0    0  0.27997059653E+02  0.51280661332E+02 -0.18299545829E+03  0.20933434952E+03  0.83186480639E+02 0.  0.
        -13    1    3    3    0    0 -0.39491690065E+02 -0.45059655732E+02  0.61891548325E+02  0.86142497717E+02  0.00000000000E+00 0.  1.
         14    1    3    3    0    0  0.14987163457E+02 -0.27175271094E+02 -0.13151346906E+02  0.33705613078E+02  0.00000000000E+00 0. -1.
        -13    1    4    4    0    0  0.84034034098E+01 -0.20701211621E+02 -0.19625594017E+02  0.29737540113E+02  0.00000000000E+00 0. -1.
         13    1    4    4    0    0  0.19593656243E+02  0.71981872954E+02 -0.16336986427E+03  0.17959680941E+03  0.00000000000E+00 0.  1.
         -2    1    1    2    0  502 -0.34925330448E+01  0.20954265494E+02  0.45143649463E+01  0.21717700623E+02  0.00000000000E+00 0.  1.
<scales pt_clust_5="13000.00000" pt_clust_6="13000.00000" pt_clust_7="13000.00000" pt_clust_8="13000.00000" pt_clust_9="21.24334"></scales>
<clustering>
<clus scale="   21.243">  2  9  1 -1</clus>
<clus scale="   78.547">  5  6 -1 -1</clus>
<clus scale="   83.186">  7  8 -1 -1</clus>
<clus scale="  107.519">  1  5  2 -1</clus>
<clus scale="   21.243">  2  5  1 -1</clus>
</clustering>
</event>
<event>
 9    2  0.6175212E-005  0.9933688E+02  0.7546771E-02  0.1292285E+00
          2   -1    0    0  502    0 -0.00000000000E+00  0.00000000000E+00  0.49980449059E+03  0.49980449059E+03  0.00000000000E+00 0. -1.
         21   -1    0    0  501  502  0.00000000000E+00 -0.00000000000E+00 -0.52987266263E+02  0.52987266263E+02  0.00000000000E+00 0. -1.
         24    2    1    2    0    0  0.11605735578E+02  0.99367028369E+01  0.40248762789E+03  0.41071888353E+03  0.80375864055E+02 0.  0.
         23    2    1    2    0    0  0.81039871202E+01 -0.29986139616E+01  0.60256943164E+02  0.11579949099E+03  0.98508662665E+02 0.  0.
        -13    1    3    3    0    0 -0.29113110346E+02  0.20453042830E+02  0.12152700691E+03  0.12662824947E+03  0.00000000000E+00 0.  1.
         14    1    3    3    0    0  0.40718845924E+02 -0.10516339993E+02  0.28096062098E+03  0.28409063406E+03  0.00000000000E+00 0. -1.
        -13    1    4    4    0    0  0.14283867216E+02  0.46430383067E+02  0.35540717093E+02  0.60190961995E+02  0.00000000000E+00 0. -1.
         13    1    4    4    0    0 -0.61798800957E+01 -0.49428997029E+02  0.24716226071E+02  0.55608528990E+02  0.00000000000E+00 0.  1.
          1    1    1    2  501    0 -0.19709722698E+02 -0.69380888753E+01 -0.15927346722E+02  0.26273382342E+02  0.00000000000E+00 0. -1.
<scales pt_clust_5="13000.00000" pt_clust_6="13000.00000" pt_clust_7="13000.00000" pt_clust_8="13000.00000" pt_clust_9="20.89522"></scales>
<clustering>
<clus scale="   20.895">  2  9  1 -1</clus>
<clus scale="   80.376">  5  6 -1 -1</clus>
<clus scale="   81.389">  1  5  2 -1</clus>
<clus scale="   98.509">  7  8 -1 -1</clus>
<clus scale="   20.895">  2  5  1 -1</clus>
</clustering>
</event>
<event>
 9    2  0.6175212E-005  0.9681837E+02  0.7546771E-02  0.1291976E+00
          2   -1    0    0  502    0 -0.00000000000E+00  0.00000000000E+00  0.52124443663E+03  0.52124443663E+03  0.00000000000E+00 0. -1.
         21   -1    0    0  501  502  0.00000000000E+00 -0.00000000000E+00 -0.96438424333E+02  0.96438424333E+02  0.00000000000E+00 0. -1.
         24    2    1    2    0    0 -0.25364581988E+02  0.15535025754E+02  0.46322596634E+03  0.47150405435E+03  0.82783321573E+02 0.  0.
         23    2    1    2    0    0  0.47761241790E+02 -0.13655234858E+02 -0.31305661623E+01  0.10434001025E+03  0.91702975083E+02 0.  0.
        -11    1    3    3    0    0  0.19140379191E+02 -0.10549242666E+02  0.44130449056E+02  0.49245681743E+02  0.00000000000E+00 0.  1.
         12    1    3    3    0    0 -0.44504961178E+02  0.26084268420E+02  0.41909551728E+03  0.42225837260E+03  0.00000000000E+00 0. -1.
        -13    1    4    4    0    0  0.41967473635E+02 -0.50994531131E+02 -0.67176074682E+01  0.66384013878E+02  0.00000000000E+00 0.  1.
         13    1    4    4    0    0  0.57937681551E+01  0.37339296273E+02  0.35870413059E+01  0.37955996376E+02  0.00000000000E+00 0. -1.
          1    1    1    2  501    0 -0.22396659802E+02 -0.18797908965E+01 -0.35289387879E+02  0.41838796361E+02  0.00000000000E+00 0. -1.
<scales pt_clust_5="13000.00000" pt_clust_6="13000.00000" pt_clust_7="13000.00000" pt_clust_8="13000.00000" pt_clust_9="22.47541"></scales>
<clustering>
<clus scale="   22.475">  2  9  1 -1</clus>
<clus scale="   82.783">  5  6 -1 -1</clus>
<clus scale="   88.416">  1  5  2 -1</clus>
<clus scale="   91.703">  7  8 -1 -1</clus>
<clus scale="   22.475">  2  5  1 -1</clus>
</clustering>
</event>
<event>
 9    2  0.6175212E-005  0.1056398E+03  0.7546771E-02  0.1275427E+00
          2   -1    0    0  502    0 -0.00000000000E+00  0.00000000000E+00  0.51222573709E+03  0.51222573709E+03  0.00000000000E+00 0. -1.
         21   -1    0    0  501  502  0.00000000000E+00 -0.00000000000E+00 -0.10277063620E+03  0.10277063620E+03  0.00000000000E+00 0.  1.
         24    2    1    2    0    0 -0.34557959926E+02  0.38046585008E+02  0.40851486480E+03  0.41888563851E+03  0.77064830916E+02 0.  0.
         23    2    1    2    0    0 -0.21593269644E+01 -0.77424992550E+02  0.43199503611E+02  0.12766613070E+03  0.91832192886E+02 0.  0.
        -13    1    3    3    0    0 -0.93739213446E+01  0.58694722282E+02  0.23982082923E+03  0.24707685233E+03  0.00000000000E+00 0.  1.
         14    1    3    3    0    0 -0.25184038582E+02 -0.20648137274E+02  0.16869403557E+03  0.17180878618E+03  0.00000000000E+00 0. -1.
        -13    1    4    4    0    0 -0.12662598426E+02  0.18256106114E+02  0.16803834675E+02  0.27856698819E+02  0.00000000000E+00 0. -1.
         13    1    4    4    0    0  0.10503271461E+02 -0.95681098664E+02  0.26395668936E+02  0.99809431877E+02  0.00000000000E+00 0.  1.
          1    1    1    2  501    0  0.36717286891E+02  0.39378407542E+02 -0.42259267518E+02  0.68444604085E+02  0.00000000000E+00 0. -1.
<scales pt_clust_5="13000.00000" pt_clust_6="13000.00000" pt_clust_7="13000.00000" pt_clust_8="13000.00000" pt_clust_9="53.84067"></scales>
<clustering>
<clus scale="   53.841">  2  9  1 -1</clus>
<clus scale="   77.065">  5  6 -1 -1</clus>
<clus scale="   91.832">  7  8 -1 -1</clus>
<clus scale="   93.089">  1  5  2 -1</clus>
<clus scale="   53.841">  2  5  1 -1</clus>
</clustering>
</event>
<event>
 9    2  0.6175212E-005  0.1172924E+03  0.7546771E-02  0.1252869E+00
          2   -1    0    0  502    0 -0.00000000000E+00  0.00000000000E+00  0.11563499931E+04  0.11563499931E+04  0.00000000000E+00 0. -1.
         21   -1    0    0  501  502  0.00000000000E+00 -0.00000000000E+00 -0.38336167478E+02  0.38336167478E+02  0.00000000000E+00 0. -1.
         24    2    1    2    0    0 -0.85104696070E+01 -0.72195534502E+02  0.10020889711E+04  0.10079032965E+04  0.80013286135E+02 0.  0.
         23    2    1    2    0    0  0.26592136580E+02  0.34193345476E+02  0.85468122497E+02  0.13483360438E+03  0.94862923765E+02 0.  0.
        -11    1    3    3    0    0  0.25882572444E+02 -0.42933766038E+02  0.28361137282E+03  0.28800803220E+03  0.00000000000E+00 0.  1.
         12    1    3    3    0    0 -0.34393042051E+02 -0.29261768464E+02  0.71847759824E+03  0.71989526433E+03  0.00000000000E+00 0. -1.
        -11    1    4    4    0    0  0.24677086040E+02 -0.13526538462E+02 -0.85242667464E+01  0.29403893309E+02  0.00000000000E+00 0. -1.
         11    1    4    4    0    0  0.19150505400E+01  0.47719883937E+02  0.93992389244E+02  0.10542971107E+03  0.00000000000E+00 0.  1.
          1    1    1    2  501    0 -0.18081666973E+02  0.38002189026E+02  0.30456732079E+02  0.51949259670E+02  0.00000000000E+00 0. -1.
<scales pt_clust_5="13000.00000" pt_clust_6="13000.00000" pt_clust_7="13000.00000" pt_clust_8="13000.00000" pt_clust_9="42.08459"></scales>
<clustering>
<clus scale="   42.085">  2  9  1 -1</clus>
<clus scale="   80.013">  5  6 -1 -1</clus>
<clus scale="   94.863">  7  8 -1 -1</clus>
<clus scale="  105.644">  1  5  2 -1</clus>
<clus scale="   42.085">  2  5  1 -1</clus>
</clustering>
</event>
<event>
 9    2  0.6175212E-005  0.1074476E+03  0.7546771E-02  0.1268352E+00
         21   -1    0    0  501  502  0.00000000000E+00  0.00000000000E+00  0.13338088185E+03  0.13338088185E+03  0.00000000000E+00 0. -1.
          2   -1    0    0  502    0 -0.00000000000E+00 -0.00000000000E+00 -0.25134808328E+03  0.25134808328E+03  0.00000000000E+00 0. -1.
         24    2    1    2    0    0  0.58290957458E+02 -0.27784093878E+02 -0.13982927408E+03  0.17389940244E+03  0.80740229669E+02 0.  0.
         23    2    1    2    0    0 -0.39108404069E+02  0.43659174207E+02 -0.62423957621E+02  0.12294257031E+03  0.88218673468E+02 0.  0.
        -11    1    3    3    0    0 -0.40537985854E+01  0.19770448727E+02 -0.10739294121E+02  0.22861241524E+02  0.00000000000E+00 0.  1.
         12    1    3    3    0    0  0.62344756043E+02 -0.47554542605E+02 -0.12908997996E+03  0.15103816092E+03  0.00000000000E+00 0. -1.
        -11    1    4    4    0    0 -0.10041448692E+02  0.47782407812E+02  0.53158066100E+01  0.49114631099E+02  0.00000000000E+00 0.  1.
         11    1    4    4    0    0 -0.29066955377E+02 -0.41232336047E+01 -0.67739764231E+02  0.73827939212E+02  0.00000000000E+00 0. -1.
          1    1    1    2  501    0 -0.19182553389E+02 -0.15875080329E+02  0.84286030266E+02  0.87886992370E+02  0.00000000000E+00 0. -1.
<scales pt_clust_5="13000.00000" pt_clust_6="13000.00000" pt_clust_7="13000.00000" pt_clust_8="13000.00000" pt_clust_9="24.89957"></scales>
<clustering>
<clus scale="   24.900">  1  9  2 -1</clus>
<clus scale="   80.740">  5  6 -1 -1</clus>
<clus scale="   88.219">  7  8 -1 -1</clus>
<clus scale="  101.397">  2  5  1 -1</clus>
<clus scale="   24.900">  1  5  2 -1</clus>
</clustering>
</event>
<event>
 9    2  0.6175212E-005  0.1899281E+03  0.7546771E-02  0.1185046E+00
          4   -1    0    0  502    0 -0.00000000000E+00  0.00000000000E+00  0.46795037364E+03  0.46795037364E+03  0.00000000000E+00 0. -1.
         21   -1    0    0  501  502  0.00000000000E+00 -0.00000000000E+00 -0.16182425106E+03  0.16182425106E+03  0.00000000000E+00 0. -1.
         23    2    1    2    0    0 -0.27411597384E+02  0.44047449817E+02 -0.54231647139E+02  0.11705705618E+03  0.89831560960E+02 0.  0.
         24    2    1    2    0    0  0.10855652014E+03  0.11921692257E+03  0.20030978473E+03  0.27011684453E+03  0.82715821644E+02 0.  0.
        -13    1    4    4    0    0  0.28788803412E+02 -0.55096141029E+01  0.15000195504E+02  0.32926538151E+02  0.00000000000E+00 0.  1.
         14    1    4    4    0    0  0.79767716725E+02  0.12472653668E+03  0.18530958923E+03  0.23719030638E+03  0.00000000000E+00 0. -1.
        -11    1    3    3    0    0 -0.56616786979E+02  0.21176787551E+02 -0.52266212171E+02  0.79910411296E+02  0.00000000000E+00 0. -1.
         11    1    3    3    0    0  0.29205189596E+02  0.22870662265E+02 -0.19654349689E+01  0.37146644887E+02  0.00000000000E+00 0.  1.
          3    1    1    2  501    0 -0.81144922753E+02 -0.16326437239E+03  0.16004798498E+03  0.24260072398E+03  0.00000000000E+00 0. -1.
<scales pt_clust_5="13000.00000" pt_clust_6="13000.00000" pt_clust_7="13000.00000" pt_clust_8="13000.00000" pt_clust_9="170.97005"></scales>
<clustering>
<clus scale="   82.716">  5  6 -1 -1</clus>
<clus scale="   89.832">  7  8 -1 -1</clus>
<clus scale="  103.737">  1  7  2 -1</clus>
<clus scale="  170.970">  2  9  1 -1</clus>
<clus scale="  170.970">  2  5  1 -1</clus>
</clustering>
</event>
<event>
 9    2  0.6175212E-005  0.9368255E+02  0.7546771E-02  0.1300463E+00
         -1   -1    0    0    0  501 -0.00000000000E+00  0.00000000000E+00  0.22320572034E+03  0.22320572034E+03  0.00000000000E+00 0.  1.
         21   -1    0    0  501  502  0.00000000000E+00 -0.00000000000E+00 -0.63863560677E+02  0.63863560677E+02  0.00000000000E+00 0.  1.
         23    2    1    2    0    0 -0.28270813114E+02 -0.39078448737E+01  0.75775453546E+02  0.12247508328E+03  0.91889697673E+02 0.  0.
         24    2    1    2    0    0  0.10705909573E+01  0.20883966037E+01  0.51323097304E+01  0.81557356433E+02  0.81361872028E+02 0.  0.
        -13    1    4    4    0    0  0.62636999317E+01 -0.30155982274E+02 -0.23009544496E+02  0.38445498328E+02  0.00000000000E+00 0.  1.
         14    1    4    4    0    0 -0.51931089743E+01  0.32244378877E+02  0.28141854227E+02  0.43111858106E+02  0.00000000000E+00 0. -1.
        -13    1    3    3    0    0 -0.27508790011E+02  0.41983806753E+02  0.36418170441E+02  0.62013359010E+02  0.00000000000E+00 0.  1.
         13    1    3    3    0    0 -0.76202310275E+00 -0.45891651627E+02  0.39357283104E+02  0.60461724269E+02  0.00000000000E+00 0. -1.
         -2    1    1    2    0  502  0.27200222156E+02  0.18194482700E+01  0.78434396390E+02  0.83036841308E+02  0.00000000000E+00 0.  1.
<scales pt_clust_5="13000.00000" pt_clust_6="13000.00000" pt_clust_7="13000.00000" pt_clust_8="13000.00000" pt_clust_9="27.26102"></scales>
<clustering>
<clus scale="   27.261">  2  9  1 -1</clus>
<clus scale="   81.362">  5  6 -1 -1</clus>
<clus scale="   83.381">  2  5  1 -1</clus>
<clus scale="   91.890">  7  8 -1 -1</clus>
<clus scale="   27.261">  2  5  1 -1</clus>
</clustering>
</event>
<event>
 9    2  0.6175212E-005  0.9697694E+02  0.7546771E-02  0.1297662E+00
         21   -1    0    0  501  502  0.00000000000E+00  0.00000000000E+00  0.35260384341E+03  0.35260384341E+03  0.00000000000E+00 0.  1.
          2   -1    0    0  502    0 -0.00000000000E+00 -0.00000000000E+00 -0.35424818638E+02  0.35424818638E+02  0.00000000000E+00 0. -1.
         24    2    1    2    0    0 -0.14369191795E+02  0.20129780148E+01  0.68177254784E+02  0.10316955568E+03  0.76061116195E+02 0.  0.
         23    2    1    2    0    0  0.35082616393E+02  0.16002783158E+01  0.13248991872E+03  0.16646521688E+03  0.94465544016E+02 0.  0.
        -11    1    3    3    0    0 -0.97374877980E+01 -0.33959634172E+02  0.14061715776E+02  0.38023772462E+02  0.00000000000E+00 0.  1.
         12    1    3    3    0    0 -0.46317039966E+01  0.35972612186E+02  0.54115539008E+02  0.65145783222E+02  0.00000000000E+00 0. -1.
        -11    1    4    4    0    0  0.19684735557E+02  0.42223594195E+02  0.30701235258E+02  0.55793248400E+02  0.00000000000E+00 0. -1.
         11    1    4    4    0    0  0.15397880837E+02 -0.40623315879E+02  0.10178868346E+03  0.11067196848E+03  0.00000000000E+00 0.  1.
          1    1    1    2  501    0 -0.20713424599E+02 -0.36132563306E+01  0.11651185127E+03  0.11839388948E+03  0.00000000000E+00 0. -1.
<scales pt_clust_5="13000.00000" pt_clust_6="13000.00000" pt_clust_7="13000.00000" pt_clust_8="13000.00000" pt_clust_9="21.02621"></scales>
<clustering>
<clus scale="   21.026">  1  9  2 -1</clus>
<clus scale="   76.061">  5  6 -1 -1</clus>
<clus scale="   79.159">  2  5  1 -1</clus>
<clus scale="   94.466">  7  8 -1 -1</clus>
<clus scale="   21.026">  1  5  2 -1</clus>
</clustering>
</event>
<event>
 9    2  0.6175212E-005  0.1033023E+03  0.7546771E-02  0.1278316E+00
         21   -1    0    0  501  502  0.00000000000E+00  0.00000000000E+00  0.21847617762E+03  0.21847617762E+03  0.00000000000E+00 0.  1.
         -1   -1    0    0    0  501 -0.00000000000E+00 -0.00000000000E+00 -0.24279540833E+03  0.24279540833E+03  0.00000000000E+00 0.  1.
         24    2    1    2    0    0  0.28012489732E+02  0.33141203212E+02 -0.17567797229E+03  0.19817168773E+03  0.80785078691E+02 0.  0.
         23    2    1    2    0    0 -0.26054670129E+02 -0.94412800363E+02  0.46619071586E+02  0.14173911316E+03  0.91236043631E+02 0.  0.
        -11    1    3    3    0    0 -0.74708069873E+00  0.54925867542E+02 -0.11765298790E+03  0.12984465571E+03  0.00000000000E+00 0.  1.
         12    1    3    3    0    0  0.28759570431E+02 -0.21784664330E+02 -0.58024984396E+02  0.68327032026E+02  0.00000000000E+00 0. -1.
        -13    1    4    4    0    0  0.10977072258E+02 -0.42396751447E+02  0.62145826358E+02  0.76026866188E+02  0.00000000000E+00 0. -1.
         13    1    4    4    0    0 -0.37031742387E+02 -0.52016048916E+02 -0.15526754772E+02  0.65712246977E+02  0.00000000000E+00 0.  1.
         -2    1    1    2    0  502 -0.19578196034E+01  0.61271597150E+02  0.10473967001E+03  0.12136078505E+03  0.00000000000E+00 0.  1.
<scales pt_clust_5="13000.00000" pt_clust_6="13000.00000" pt_clust_7="13000.00000" pt_clust_8="13000.00000" pt_clust_9="61.30287"></scales>
<clustering>
<clus scale="   61.303">  1  9  2 -1</clus>
<clus scale="   80.785">  5  6 -1 -1</clus>
<clus scale="   91.236">  7  8 -1 -1</clus>
<clus scale="   94.200">  2  5  1 -1</clus>
<clus scale="   61.303">  1  5  2 -1</clus>
</clustering>
</event>
<event>
 9    2  0.6175212E-005  0.1049157E+03  0.7546771E-02  0.1278654E+00
         21   -1    0    0  501  502  0.00000000000E+00  0.00000000000E+00  0.27377982848E+03  0.27377982848E+03  0.00000000000E+00 0. -1.
          2   -1    0    0  502    0 -0.00000000000E+00 -0.00000000000E+00 -0.28856901734E+03  0.28856901734E+03  0.00000000000E+00 0. -1.
         24    2    1    2    0    0  0.20755180041E+02 -0.34356881620E+02 -0.25287084762E+03  0.26839437893E+03  0.80502821398E+02 0.  0.
         23    2    1    2    0    0 -0.48759581324E+02 -0.16439978731E+02  0.12363828256E+03  0.16565071064E+03  0.97498529982E+02 0.  0.
        -13    1    3    3    0    0 -0.20848192255E+02 -0.19700860199E+02 -0.31217069445E+02  0.42394297229E+02  0.00000000000E+00 0.  1.
         14    1    3    3    0    0  0.41603372296E+02 -0.14656021422E+02 -0.22165377818E+03  0.22600008170E+03  0.00000000000E+00 0. -1.
        -13    1    4    4    0    0  0.28937585084E+02 -0.25308335831E+01  0.49311513794E+02  0.57231235718E+02  0.00000000000E+00 0.  1.
         13    1    4    4    0    0 -0.77697166408E+02 -0.13909145148E+02  0.74326768768E+02  0.10841947492E+03  0.00000000000E+00 0. -1.
          1    1    1    2  501    0  0.28004401282E+02  0.50796860352E+02  0.11444337620E+03  0.12830375625E+03  0.00000000000E+00 0. -1.
<scales pt_clust_5="13000.00000" pt_clust_6="13000.00000" pt_clust_7="13000.00000" pt_clust_8="13000.00000" pt_clust_9="58.00489"></scales>
<clustering>
<clus scale="   58.005">  1  9  2 -1</clus>
<clus scale="   80.503">  5  6 -1 -1</clus>
<clus scale="   89.342">  2  5  1 -1</clus>
<clus scale="   97.499">  7  8 -1 -1</clus>
<clus scale="   58.005">  1  5  2 -1</clus>
</clustering>
</event>
<event>
 9    2  0.6175212E-005  0.9562664E+02  0.7546771E-02  0.1296621E+00
         21   -1    0    0  501  502  0.00000000000E+00  0.00000000000E+00  0.19440398483E+03  0.19440398483E+03  0.00000000000E+00 0. -1.
          2   -1    0    0  502    0 -0.00000000000E+00 -0.00000000000E+00 -0.38776100824E+03  0.38776100824E+03  0.00000000000E+00 0. -1.
         24    2    1    2    0    0  0.30976412059E+02  0.10634505146E+01 -0.33771637457E+03  0.34841867270E+03  0.79890880612E+02 0.  0.
         23    2    1    2    0    0  0.39096409565E+02 -0.15624624377E+02  0.43410385452E+02  0.11000092937E+03  0.91886259962E+02 0.  0.
        -11    1    3    3    0    0  0.39250658860E+00  0.37232529318E+02 -0.17667085500E+03  0.18055194905E+03  0.00000000000E+00 0.  1.
         12    1    3    3    0    0  0.30583905470E+02 -0.36169078803E+02 -0.16104551957E+03  0.16786672365E+03  0.00000000000E+00 0. -1.
        -13    1    4    4    0    0 -0.26667956849E+02 -0.17934342177E+02  0.27506047738E+02  0.42301338205E+02  0.00000000000E+00 0.  1.
         13    1    4    4    0    0  0.65764366413E+02  0.23097177992E+01  0.15904337715E+02  0.67699591167E+02  0.00000000000E+00 0. -1.
          1    1    1    2  501    0 -0.70072821624E+02  0.14561173863E+02  0.10094896571E+03  0.12374539099E+03  0.00000000000E+00 0. -1.
<scales pt_clust_5="13000.00000" pt_clust_6="13000.00000" pt_clust_7="13000.00000" pt_clust_8="13000.00000" pt_clust_9="71.56974"></scales>
<clustering>
<clus scale="   71.570">  1  9  2 -1</clus>
<clus scale="   79.891">  5  6 -1 -1</clus>
<clus scale="   84.166">  2  5  1 -1</clus>
<clus scale="   91.886">  7  8 -1 -1</clus>
<clus scale="   71.570">  1  5  2 -1</clus>
</clustering>
</event>
<event>
 9    2  0.6175212E-005  0.9801536E+02  0.7546771E-02  0.1286058E+00
          2   -1    0    0  502    0 -0.00000000000E+00  0.00000000000E+00  0.13332962900E+04  0.13332962900E+04  0.00000000000E+00 0. -1.
         21   -1    0    0  501  502  0.00000000000E+00 -0.00000000000E+00 -0.63953149661E+02  0.63953149661E+02  0.00000000000E+00 0. -1.
         24    2    1    2    0    0 -0.22850554445E+02 -0.49294598244E+02  0.12819826892E+04  0.12855429955E+04  0.78670658955E+02 0.  0.
         23    2    1    2    0    0  0.72366988719E+01  0.34128521410E+02 -0.11847567580E+02  0.89925039068E+02  0.82030616295E+02 0.  0.
        -11    1    3    3    0    0 -0.12046991224E+02 -0.37173059772E+02  0.22047484322E+03  0.22391097084E+03  0.00000000000E+00 0.  1.
         12    1    3    3    0    0 -0.10803563221E+02 -0.12121538472E+02  0.10615078460E+04  0.10616320247E+04  0.00000000000E+00 0. -1.
        -11    1    4    4    0    0  0.34093280317E+02  0.12495839736E+02 -0.33335712578E+02  0.49292671936E+02  0.00000000000E+00 0.  1.
         11    1    4    4    0    0 -0.26856581445E+02  0.21632681674E+02  0.21488144998E+02  0.40632367133E+02  0.00000000000E+00 0. -1.
          1    1    1    2  501    0  0.15613855573E+02  0.15166076834E+02 -0.79198131759E+00  0.21781405070E+02  0.00000000000E+00 0. -1.
<scales pt_clust_5="13000.00000" pt_clust_6="13000.00000" pt_clust_7="13000.00000" pt_clust_8="13000.00000" pt_clust_9="21.76700"></scales>
<clustering>
<clus scale="   21.767">  2  9  1 -1</clus>
<clus scale="   78.671">  5  6 -1 -1</clus>
<clus scale="   82.031">  7  8 -1 -1</clus>
<clus scale="   95.221">  1  5  2 -1</clus>
<clus scale="   21.767">  2  5  1 -1</clus>
</clustering>
</event>
<event>
 9    2  0.8424763E-005  0.9060949E+02  0.7546771E-02  0.1307941E+00
         -3   -1    0    0    0  501 -0.00000000000E+00  0.00000000000E+00  0.46233950139E+03  0.46233950139E+03  0.00000000000E+00 0.  1.
         21   -1    0    0  501  502  0.00000000000E+00 -0.00000000000E+00 -0.46097323027E+02  0.46097323027E+02  0.00000000000E+00 0.  1.
         23    2    1    2    0    0 -0.48298179830E+01 -0.48438068692E+01  0.21992725506E+03  0.23794288203E+03  0.90565048374E+02 0.  0.
         24    2    1    2    0    0 -0.70190218136E+01 -0.26332902524E+02  0.14985934169E+02  0.86123162391E+02  0.80311471501E+02 0.  0.
        -11    1    4    4    0    0 -0.40157676631E+02 -0.25947054111E+02 -0.39155373825E+01  0.47971033369E+02  0.00000000000E+00 0.  1.
         12    1    4    4    0    0  0.33138654818E+02 -0.38584841361E+00  0.18901471552E+02  0.38152129022E+02  0.00000000000E+00 0. -1.
        -11    1    3    3    0    0 -0.13446014828E+00 -0.38968002744E+02  0.18434661978E+03  0.18842027370E+03  0.00000000000E+00 0.  1.
         11    1    3    3    0    0 -0.46953578347E+01  0.34124195875E+02  0.35580635275E+02  0.49522608331E+02  0.00000000000E+00 0. -1.
         -4    1    1    2    0  502  0.11848839797E+02  0.31176709394E+02  0.18132898914E+03  0.18437077999E+03  0.00000000000E+00 0.  1.
<scales pt_clust_5="13000.00000" pt_clust_6="13000.00000" pt_clust_7="13000.00000" pt_clust_8="13000.00000" pt_clust_9="33.35241"></scales>
<clustering>
<clus scale="   33.352">  2  9  1 -1</clus>
<clus scale="   80.311">  5  6 -1 -1</clus>
<clus scale="   80.362">  2  5  1 -1</clus>
<clus scale="   90.565">  7  8 -1 -1</clus>
<clus scale="   33.352">  2  5  1 -1</clus>
</clustering>
</event>
<event>
 9    2  0.6175212E-005  0.1215626E+03  0.7546771E-02  0.1243711E+00
          2   -1    0    0  502    0 -0.00000000000E+00  0.00000000000E+00  0.50018464478E+03  0.50018464478E+03  0.00000000000E+00 0. -1.
         21   -1    0    0  501  502  0.00000000000E+00 -0.00000000000E+00 -0.53359941400E+02  0.53359941400E+02  0.00000000000E+00 0. -1.
         24    2    1    2    0    0  0.48775173462E+02 -0.71258229767E+02  0.31304355663E+03  0.33479261136E+03  0.81443670225E+02 0.  0.
         23    2    1    2    0    0 -0.23624481789E+02  0.65339125037E+02  0.14938923841E+03  0.18856579225E+03  0.91720205272E+02 0.  0.
        -13    1    3    3    0    0  0.59060485597E+02 -0.80286787587E+02  0.23055831688E+03  0.25117970998E+03  0.00000000000E+00 0.  1.
         14    1    3    3    0    0 -0.10285312135E+02  0.90285578209E+01  0.82485239749E+02  0.83612901388E+02  0.00000000000E+00 0. -1.
        -11    1    4    4    0    0 -0.46336290546E+02  0.23753539552E+02  0.12470287925E+03  0.13513730261E+03  0.00000000000E+00 0.  1.
         11    1    4    4    0    0  0.22711808757E+02  0.41585585485E+02  0.24686359157E+02  0.53428489643E+02  0.00000000000E+00 0. -1.
          1    1    1    2  501    0 -0.25150691673E+02  0.59191047299E+01 -0.15608091660E+02  0.30186182563E+02  0.00000000000E+00 0. -1.
<scales pt_clust_5="13000.00000" pt_clust_6="13000.00000" pt_clust_7="13000.00000" pt_clust_8="13000.00000" pt_clust_9="25.83782"></scales>
<clustering>
<clus scale="   25.838">  2  9  1 -1</clus>
<clus scale="   81.444">  5  6 -1 -1</clus>
<clus scale="   91.720">  7  8 -1 -1</clus>
<clus scale="  114.008">  1  5  2 -1</clus>
<clus scale="   25.838">  2  5  1 -1</clus>
</clustering>
</event>
<event>
 9    2  0.6175212E-005  0.2054200E+03  0.7546771E-02  0.1146186E+00
         21   -1    0    0  501  502  0.00000000000E+00  0.00000000000E+00  0.15705126631E+03  0.15705126631E+03  0.00000000000E+00 0. -1.
          2   -1    0    0  502    0 -0.00000000000E+00 -0.00000000000E+00 -0.99299962552E+03  0.99299962552E+03  0.00000000000E+00 0. -1.
         24    2    1    2    0    0  0.11354196557E+03 -0.14710996278E+03 -0.88731870540E+03  0.91006643182E+03  0.79707630034E+02 0.  0.
         23    2    1    2    0    0 -0.91723248137E+02  0.13903798106E+03  0.77643539751E+02  0.20489181093E+03  0.90594814943E+02 0.  0.
        -11    1    3    3    0    0  0.78111055257E+02 -0.38527087142E+02 -0.34213265324E+03  0.35304450967E+03  0.00000000000E+00 0.  1.
         12    1    3    3    0    0  0.35430910313E+02 -0.10858287564E+03 -0.54518605216E+03  0.55702192215E+03  0.00000000000E+00 0. -1.
        -13    1    4    4    0    0 -0.33390671645E+02  0.31771917344E+02  0.68348557082E+02  0.82437351606E+02  0.00000000000E+00 0. -1.
         13    1    4    4    0    0 -0.58332576492E+02  0.10726606371E+03  0.92949826685E+01  0.12245445932E+03  0.00000000000E+00 0.  1.
          1    1    1    2  501    0 -0.21818717433E+02  0.80719817260E+01 -0.26273193564E+02  0.35092649080E+02  0.00000000000E+00 0. -1.
<scales pt_clust_5="13000.00000" pt_clust_6="13000.00000" pt_clust_7="13000.00000" pt_clust_8="13000.00000" pt_clust_9="23.26400"></scales>
<clustering>
<clus scale="   23.264">  1  9  2 -1</clus>
<clus scale="   79.708">  5  6 -1 -1</clus>
<clus scale="   90.595">  7  8 -1 -1</clus>
<clus scale="  200.856">  2  5  1 -1</clus>
<clus scale="   23.264">  1  5  2 -1</clus>
</clustering>
</event>
<event>
 9    2  0.6175212E-005  0.1107481E+03  0.7546771E-02  0.1264608E+00
          2   -1    0    0  502    0 -0.00000000000E+00  0.00000000000E+00  0.56939228555E+03  0.56939228555E+03  0.00000000000E+00 0. -1.
         21   -1    0    0  501  502  0.00000000000E+00 -0.00000000000E+00 -0.40619776754E+03  0.40619776754E+03  0.00000000000E+00 0. -1.
         24    2    1    2    0    0 -0.59618810571E+02 -0.37012556718E+00  0.48093920467E+03  0.49150412788E+03  0.81971028820E+02 0.  0.
         23    2    1    2    0    0  0.33033419634E+02  0.42814482967E+02  0.44648050548E+02  0.11824879960E+03  0.95210521603E+02 0.  0.
        -13    1    3    3    0    0 -0.43342686380E+02 -0.10491079335E+02  0.93488767308E+02  0.10357992480E+03  0.00000000000E+00 0.  1.
         14    1    3    3    0    0 -0.16276124191E+02  0.10120953768E+02  0.38745043737E+03  0.38792420309E+03  0.00000000000E+00 0. -1.
        -11    1    4    4    0    0 -0.85575760972E+01  0.47146222926E+02 -0.10486442458E+02  0.49050626095E+02  0.00000000000E+00 0. -1.
         11    1    4    4    0    0  0.41590995731E+02 -0.43317399588E+01  0.55134493006E+02  0.69198173502E+02  0.00000000000E+00 0.  1.
          1    1    1    2  501    0  0.26585390937E+02 -0.42444357400E+02 -0.36239273721E+03  0.36583712560E+03  0.00000000000E+00 0. -1.
<scales pt_clust_5="13000.00000" pt_clust_6="13000.00000" pt_clust_7="13000.00000" pt_clust_8="13000.00000" pt_clust_9="50.08300"></scales>
<clustering>
<clus scale="   50.083">  2  9  1 -1</clus>
<clus scale="   81.971">  5  6 -1 -1</clus>
<clus scale="   95.211">  7  8 -1 -1</clus>
<clus scale="   99.596">  1  5  2 -1</clus>
<clus scale="   50.083">  2  5  1 -1</clus>
</clustering>
</event>
<event>
 9    2  0.6175212E-005  0.1011894E+03  0.7546771E-02  0.1281214E+00
         21   -1    0    0  501  502  0.00000000000E+00  0.00000000000E+00  0.81074567927E+02  0.81074567927E+02  0.00000000000E+00 0. -1.
          2   -1    0    0  502    0 -0.00000000000E+00 -0.00000000000E+00 -0.27761306057E+03  0.27761306057E+03  0.00000000000E+00 0. -1.
         24    2    1    2    0    0  0.17818305058E+02 -0.16705574200E+02 -0.13230948636E+03  0.16631809396E+03  0.97771877321E+02 0.  0.
         23    2    1    2    0    0 -0.33999767460E+02 -0.64675160060E+01 -0.10464424919E+03  0.14305195456E+03  0.91190075471E+02 0.  0.
        -13    1    3    3    0    0  0.19995905204E+02 -0.18887678288E+02 -0.14789476390E+03  0.15043085390E+03  0.00000000000E+00 0.  1.
         14    1    3    3    0    0 -0.21776001466E+01  0.21821040886E+01  0.15585277544E+02  0.15887240061E+02  0.00000000000E+00 0. -1.
        -13    1    4    4    0    0 -0.48757533621E+02 -0.29199257044E+02 -0.10074668653E+03  0.11567103589E+03  0.00000000000E+00 0. -1.
         13    1    4    4    0    0  0.14757766161E+02  0.22731741038E+02 -0.38975626625E+01  0.27380918674E+02  0.00000000000E+00 0.  1.
          1    1    1    2  501    0  0.16181462402E+02  0.23173090206E+02  0.40415242907E+02  0.49317579973E+02  0.00000000000E+00 0. -1.
<scales pt_clust_5="13000.00000" pt_clust_6="13000.00000" pt_clust_7="13000.00000" pt_clust_8="13000.00000" pt_clust_9="28.26361"></scales>
<clustering>
<clus scale="   28.264">  1  9  2 -1</clus>
<clus scale="   91.190">  7  8 -1 -1</clus>
<clus scale="   94.845">  1  7  2 -1</clus>
<clus scale="   97.772">  5  6 -1 -1</clus>
<clus scale="   28.264">  1  5  2 -1</clus>
</clustering>
</event>
<event>
 9    2  0.6175212E-005  0.1887426E+03  0.7546771E-02  0.1182508E+00
         21   -1    0    0  501  502  0.00000000000E+00  0.00000000000E+00  0.44418853822E+02  0.44418853822E+02  0.00000000000E+00 0. -1.
          2   -1    0    0  502    0 -0.00000000000E+00 -0.00000000000E+00 -0.13254891508E+04  0.13254891508E+04  0.00000000000E+00 0. -1.
         23    2    1    2    0    0  0.33250999983E+02  0.54126087841E+02 -0.20583201362E+03  0.23426685300E+03  0.92080824284E+02 0.  0.
         24    2    1    2    0    0 -0.15966702308E+03  0.66223467660E+02 -0.53951867170E+03  0.57220479432E+03  0.80366806636E+02 0.  0.
        -11    1    4    4    0    0 -0.60816982013E+02  0.67151142495E+02 -0.22648937315E+03  0.24393732266E+03  0.00000000000E+00 0.  1.
         12    1    4    4    0    0 -0.98850041067E+02 -0.92767483497E+00 -0.31302929855E+03  0.32826747166E+03  0.00000000000E+00 0. -1.
        -11    1    3    3    0    0  0.38403696178E+02  0.96042480006E+00 -0.15787739231E+03  0.16248396013E+03  0.00000000000E+00 0.  1.
         11    1    3    3    0    0 -0.51526961958E+01  0.53165663041E+02 -0.47954621305E+02  0.71782892873E+02  0.00000000000E+00 0. -1.
          1    1    1    2  501    0  0.12641602310E+03 -0.12034955550E+03 -0.53571961170E+03  0.56343635733E+03  0.00000000000E+00 0. -1.
<scales pt_clust_5="13000.00000" pt_clust_6="13000.00000" pt_clust_7="13000.00000" pt_clust_8="13000.00000" pt_clust_9="170.77757"></scales>
<clustering>
<clus scale="   80.367">  5  6 -1 -1</clus>
<clus scale="   92.081">  7  8 -1 -1</clus>
<clus scale="  111.867">  2  7  1 -1</clus>
<clus scale="  170.778">  1  9  2 -1</clus>
<clus scale="  170.778">  1  5  2 -1</clus>
</clustering>
</event>
<event>
 9    2  0.6175212E-005  0.2459502E+03  0.7546771E-02  0.1116275E+00
          2   -1    0    0  502    0 -0.00000000000E+00  0.00000000000E+00  0.95683993407E+03  0.95683993407E+03  0.00000000000E+00 0. -1.
         21   -1    0    0  501  502  0.00000000000E+00 -0.00000000000E+00 -0.23383598754E+03  0.23383598754E+03  0.00000000000E+00 0. -1.
         24    2    1    2    0    0 -0.13701030933E+03 -0.19584534412E+03  0.84208424320E+03  0.87942262086E+03  0.84563879816E+02 0.  0.
         23    2    1    2    0    0  0.10911423752E+03  0.92365946610E+02 -0.11330251947E+03  0.20392409112E+03  0.91160238565E+02 0.  0.
        -11    1    3    3    0    0 -0.83352290134E+02 -0.52142667716E+02  0.27890221921E+03  0.29572438172E+03  0.00000000000E+00 0.  1.
         12    1    3    3    0    0 -0.53658019198E+02 -0.14370267641E+03  0.56318202399E+03  0.58369823914E+03  0.00000000000E+00 0. -1.
        -11    1    4    4    0    0  0.31150805006E+02  0.71641117195E+02 -0.20113656598E+02  0.80668342659E+02  0.00000000000E+00 0.  1.
         11    1    4    4    0    0  0.77963432517E+02  0.20724829414E+02 -0.93188862873E+02  0.12325574846E+03  0.00000000000E+00 0. -1.
          1    1    1    2  501    0  0.27896071809E+02  0.10347939751E+03 -0.57777771901E+01  0.10732920964E+03  0.00000000000E+00 0. -1.
<scales pt_clust_5="13000.00000" pt_clust_6="13000.00000" pt_clust_7="13000.00000" pt_clust_8="13000.00000" pt_clust_9="107.17358"></scales>
<clustering>
<clus scale="   84.564">  5  6 -1 -1</clus>
<clus scale="   91.160">  7  8 -1 -1</clus>
<clus scale="  107.174">  2  9  1 -1</clus>
<clus scale="  243.582">  1  5  2 -1</clus>
<clus scale="  107.174">  2  5  1 -1</clus>
</clustering>
</event>
<event>
 9    2  0.6175212E-005  0.1184712E+03  0.7546771E-02  0.1248462E+00
         21   -1    0    0  501  502  0.00000000000E+00  0.00000000000E+00  0.14159691957E+03  0.14159691957E+03  0.00000000000E+00 0.  1.
          2   -1    0    0  502    0 -0.00000000000E+00 -0.00000000000E+00 -0.25289202823E+03  0.25289202823E+03  0.00000000000E+00 0. -1.
         24    2    1    2    0    0  0.56253529861E+02  0.52868146565E+02 -0.89415788279E+02  0.14396373803E+03  0.82285321485E+02 0.  0.
         23    2    1    2    0    0 -0.85121041497E+02 -0.73585331035E+01  0.70679739881E+02  0.14341947798E+03  0.90960328265E+02 0.  0.
        -11    1    3    3    0    0  0.72804685980E+02  0.54265406687E+02 -0.89295007561E+02  0.12735326866E+03  0.00000000000E+00 0.  1.
         12    1    3    3    0    0 -0.16551156119E+02 -0.13972601226E+01 -0.12078071768E+00  0.16610469371E+02  0.00000000000E+00 0. -1.
        -11    1    4    4    0    0 -0.26982566837E+02  0.43472493055E+01 -0.20836592049E+02  0.34367441829E+02  0.00000000000E+00 0. -1.
         11    1    4    4    0    0 -0.58138474660E+02 -0.11705782409E+02  0.91516331931E+02  0.10905203615E+03  0.00000000000E+00 0.  1.
          1    1    1    2  501    0  0.28867511636E+02 -0.45509613461E+02 -0.92559060264E+02  0.10710573179E+03  0.00000000000E+00 0. -1.
<scales pt_clust_5="13000.00000" pt_clust_6="13000.00000" pt_clust_7="13000.00000" pt_clust_8="13000.00000" pt_clust_9="53.89305"></scales>
<clustering>
<clus scale="   53.893">  1  9  2 -1</clus>
<clus scale="   82.285">  5  6 -1 -1</clus>
<clus scale="   90.960">  7  8 -1 -1</clus>
<clus scale="  111.949">  2  5  1 -1</clus>
<clus scale="   53.893">  1  5  2 -1</clus>
</clustering>
</event>
<event>
 9    2  0.6175212E-005  0.1276410E+03  0.7546771E-02  0.1235847E+00
         21   -1    0    0  501  502  0.00000000000E+00  0.00000000000E+00  0.14522193245E+03  0.14522193245E+03  0.00000000000E+00 0. -1.
          2   -1    0    0  502    0 -0.00000000000E+00 -0.00000000000E+00 -0.89074587973E+03  0.89074587973E+03  0.00000000000E+00 0. -1.
         24    2    1    2    0    0 -0.74908385869E+02  0.14769968646E+02 -0.43775485955E+03  0.45168727512E+03  0.81010241323E+02 0.  0.
         23    2    1    2    0    0  0.82469231148E+02 -0.44165889155E+02 -0.43395132570E+03  0.45449901410E+03  0.97487439659E+02 0.  0.
        -13    1    3    3    0    0  0.55284840538E+01  0.29068506012E+02 -0.12125879153E+03  0.12481681258E+03  0.00000000000E+00 0.  1.
         14    1    3    3    0    0 -0.80436869923E+02 -0.14298537366E+02 -0.31649606801E+03  0.32687046254E+03  0.00000000000E+00 0. -1.
        -13    1    4    4    0    0  0.38039025404E+02  0.12761339011E+02 -0.51472503897E+02  0.65262836932E+02  0.00000000000E+00 0.  1.
         13    1    4    4    0    0  0.44430205744E+02 -0.56927228165E+02 -0.38247882181E+03  0.38923617717E+03  0.00000000000E+00 0. -1.
          1    1    1    2  501    0 -0.75608452788E+01  0.29395920508E+02  0.12618223796E+03  0.12978152296E+03  0.00000000000E+00 0. -1.
<scales pt_clust_5="13000.00000" pt_clust_6="13000.00000" pt_clust_7="13000.00000" pt_clust_8="13000.00000" pt_clust_9="30.35270"></scales>
<clustering>
<clus scale="   30.353">  1  9  2 -1</clus>
<clus scale="   81.010">  5  6 -1 -1</clus>
<clus scale="   97.487">  7  8 -1 -1</clus>
<clus scale="  115.547">  2  5  1 -1</clus>
<clus scale="   30.353">  1  5  2 -1</clus>
</clustering>
</event>
<event>
 9    2  0.6175212E-005  0.1183899E+03  0.7546771E-02  0.1251178E+00
          2   -1    0    0  502    0 -0.00000000000E+00  0.00000000000E+00  0.61970793786E+03  0.61970793786E+03  0.00000000000E+00 0. -1.
         21   -1    0    0  501  502  0.00000000000E+00 -0.00000000000E+00 -0.13148747653E+03  0.13148747653E+03  0.00000000000E+00 0. -1.
         23    2    1    2    0    0  0.12252080879E+01  0.64128392507E+02  0.47570627383E+03  0.48947421693E+03  0.95784122999E+02 0.  0.
         24    2    1    2    0    0 -0.25650567991E+02 -0.91085271397E+02  0.10485643633E+03  0.16247220531E+03  0.80298611171E+02 0.  0.
        -11    1    4    4    0    0 -0.51909538056E+00 -0.71171844705E+02  0.23383329397E+02  0.74916493727E+02  0.00000000000E+00 0.  1.
         12    1    4    4    0    0 -0.25131472611E+02 -0.19913426692E+02  0.81473106931E+02  0.87555711585E+02  0.00000000000E+00 0. -1.
        -11    1    3    3    0    0 -0.10299857452E+02 -0.24023877981E+02  0.12170853076E+03  0.12448373483E+03  0.00000000000E+00 0.  1.
         11    1    3    3    0    0  0.11525065540E+02  0.88152270488E+02  0.35399774306E+03  0.36499048210E+03  0.00000000000E+00 0. -1.
          1    1    1    2  501    0  0.24425359903E+02  0.26956878890E+02 -0.92342248824E+02  0.99248992155E+02  0.00000000000E+00 0. -1.
<scales pt_clust_5="13000.00000" pt_clust_6="13000.00000" pt_clust_7="13000.00000" pt_clust_8="13000.00000" pt_clust_9="36.37680"></scales>
<clustering>
<clus scale="   36.377">  2  9  1 -1</clus>
<clus scale="   80.299">  5  6 -1 -1</clus>
<clus scale="   95.784">  7  8 -1 -1</clus>
<clus scale="  106.252">  2  5  1 -1</clus>
<clus scale="   36.377">  2  5  1 -1</clus>
</clustering>
</event>
<event>
 9    2  0.7019121E-005  0.1842292E+03  0.7546771E-02  0.1199106E+00
          2   -1    0    0  502    0 -0.00000000000E+00  0.00000000000E+00  0.52535696915E+03  0.52535696915E+03  0.00000000000E+00 0. -1.
         21   -1    0    0  501  502  0.00000000000E+00 -0.00000000000E+00 -0.30439593168E+03  0.30439593168E+03  0.00000000000E+00 0. -1.
         24    2    1    2    0    0  0.40709061067E+01 -0.30180992415E+02  0.19460825999E+02  0.85644822368E+02  0.77645651972E+02 0.  0.
         23    2    1    2    0    0  0.94401045782E+02 -0.97469892460E+02  0.43247214318E+03  0.46243538373E+03  0.91664563051E+02 0.  0.
        -11    1    3    3    0    0 -0.23205237251E+02 -0.28134139451E+02  0.37947211446E+02  0.52630824572E+02  0.00000000000E+00 0.  1.
         12    1    3    3    0    0  0.27276143358E+02 -0.20468529644E+01 -0.18486385447E+02  0.33013997796E+02  0.00000000000E+00 0. -1.
        -13    1    4    4    0    0  0.93836052296E+02 -0.41647803232E+02  0.22038161070E+03  0.24312095459E+03  0.00000000000E+00 0.  1.
         13    1    4    4    0    0  0.56499348615E+00 -0.55822089228E+02  0.21209053248E+03  0.21931442914E+03  0.00000000000E+00 0. -1.
          1    1    1    2  501    0 -0.98471951889E+02  0.12765088488E+03 -0.23097193171E+03  0.28167269473E+03  0.00000000000E+00 0. -1.
<scales pt_clust_5="13000.00000" pt_clust_6="13000.00000" pt_clust_7="13000.00000" pt_clust_8="13000.00000" pt_clust_9="159.80619"></scales>
<clustering>
<clus scale="   77.646">  5  6 -1 -1</clus>
<clus scale="   83.405">  1  5  2 -1</clus>
<clus scale="   91.665">  7  8 -1 -1</clus>
<clus scale="  159.806">  2  9  1 -1</clus>
<clus scale="  159.806">  2  5  1 -1</clus>
</clustering>
</event>
<event>
 9    2  0.6175212E-005  0.1042508E+03  0.7546771E-02  0.1279834E+00
          2   -1    0    0  502    0 -0.00000000000E+00  0.00000000000E+00  0.50887673199E+02  0.50887673199E+02  0.00000000000E+00 0. -1.
         21   -1    0    0  501  502  0.00000000000E+00 -0.00000000000E+00 -0.31356566390E+03  0.31356566390E+03  0.00000000000E+00 0. -1.
         23    2    1    2    0    0  0.61446136357E+02 -0.15469646852E+02 -0.98507561600E+02  0.14789524635E+03  0.90301309809E+02 0.  0.
         24    2    1    2    0    0 -0.28337387003E+02  0.29308657562E+02 -0.16028446893E+03  0.18046365645E+03  0.72208139486E+02 0.  0.
        -13    1    4    4    0    0 -0.22179664925E+02 -0.17350476140E+02 -0.26600224048E+02  0.38736913634E+02  0.00000000000E+00 0.  1.
         14    1    4    4    0    0 -0.61577220782E+01  0.46659133702E+02 -0.13368424488E+03  0.14172674281E+03  0.00000000000E+00 0. -1.
        -11    1    3    3    0    0  0.60268294443E+02 -0.45080123347E+02 -0.47786377406E+02  0.89151683673E+02  0.00000000000E+00 0. -1.
         11    1    3    3    0    0  0.11778419144E+01  0.29610476495E+02 -0.50721184193E+02  0.58743562675E+02  0.00000000000E+00 0.  1.
          1    1    1    2  501    0 -0.33108749354E+02 -0.13839010709E+02 -0.38859601723E+01  0.36094434303E+02  0.00000000000E+00 0. -1.
<scales pt_clust_5="13000.00000" pt_clust_6="13000.00000" pt_clust_7="13000.00000" pt_clust_8="13000.00000" pt_clust_9="35.88466"></scales>
<clustering>
<clus scale="   35.885">  2  9  1 -1</clus>
<clus scale="   72.208">  5  6 -1 -1</clus>
<clus scale="   89.039">  2  5  1 -1</clus>
<clus scale="   90.301">  7  8 -1 -1</clus>
<clus scale="   35.885">  2  5  1 -1</clus>
</clustering>
</event>
<event>
 9    2  0.6175212E-005  0.9409611E+02  0.7546771E-02  0.1301616E+00
         21   -1    0    0  501  502  0.00000000000E+00  0.00000000000E+00  0.19859391267E+03  0.19859391267E+03  0.00000000000E+00 0. -1.
          2   -1    0    0  502    0 -0.00000000000E+00 -0.00000000000E+00 -0.49417827564E+03  0.49417827564E+03  0.00000000000E+00 0. -1.
         24    2    1    2    0    0  0.15871170216E+01 -0.25316839638E+02 -0.37544570496E+03  0.38428080556E+03  0.77902495712E+02 0.  0.
         23    2    1    2    0    0  0.16755359165E+02 -0.88787985084E+00 -0.93547032102E+02  0.13215761411E+03  0.91831679509E+02 0.  0.
        -11    1    3    3    0    0 -0.21508555275E+02  0.73264453798E+00 -0.29118928330E+02  0.36208655113E+02  0.00000000000E+00 0.  1.
         12    1    3    3    0    0  0.23095672296E+02 -0.26049484176E+02 -0.34632677663E+03  0.34807215044E+03  0.00000000000E+00 0. -1.
        -13    1    4    4    0    0 -0.35836593965E+01 -0.24589927342E+02  0.78494686144E+01  0.26059955849E+02  0.00000000000E+00 0.  1.
         13    1    4    4    0    0  0.20339018561E+02  0.23702047491E+02 -0.10139650072E+03  0.10609765826E+03  0.00000000000E+00 0. -1.
          1    1    1    2  501    0 -0.18342476186E+02  0.26204719489E+02  0.17340837409E+03  0.17633376864E+03  0.00000000000E+00 0. -1.
<scales pt_clust_5="13000.00000" pt_clust_6="13000.00000" pt_clust_7="13000.00000" pt_clust_8="13000.00000" pt_clust_9="31.98646"></scales>
<clustering>
<clus scale="   31.986">  1  9  2 -1</clus>
<clus scale="   77.902">  5  6 -1 -1</clus>
<clus scale="   80.559">  2  5  1 -1</clus>
<clus scale="   91.832">  7  8 -1 -1</clus>
<clus scale="   31.986">  1  5  2 -1</clus>
</clustering>
</event>
<event>
 9    2  0.6175212E-005  0.1079308E+03  0.7546771E-02  0.1267685E+00
         21   -1    0    0  501  502  0.00000000000E+00  0.00000000000E+00  0.38669824753E+02  0.38669824753E+02  0.00000000000E+00 0. -1.
          2   -1    0    0  502    0 -0.00000000000E+00 -0.00000000000E+00 -0.70183682381E+03  0.70183682381E+03  0.00000000000E+00 0. -1.
         24    2    1    2    0    0  0.10132608541E+02 -0.73713177499E+02 -0.50632305595E+03  0.51813291976E+03  0.81008538157E+02 0.  0.
         23    2    1    2    0    0 -0.27718322743E+02  0.18611925665E+02 -0.12245745201E+03  0.15508453155E+03  0.89110466171E+02 0.  0.
        -13    1    3    3    0    0 -0.21425884421E+02  0.13977892223E+01 -0.47428549732E+02  0.52062363254E+02  0.00000000000E+00 0.  1.
         14    1    3    3    0    0  0.31558492962E+02 -0.75110966721E+02 -0.45889450622E+03  0.46607055650E+03  0.00000000000E+00 0. -1.
        -13    1    4    4    0    0 -0.20456589658E+02 -0.20277917978E+02 -0.10984797141E+03  0.11356162574E+03  0.00000000000E+00 0. -1.
         13    1    4    4    0    0 -0.72617330850E+01  0.38889843643E+02 -0.12609480599E+02  0.41522905810E+02  0.00000000000E+00 0.  1.
          1    1    1    2  501    0  0.17585714202E+02  0.55101251834E+02 -0.34386491101E+02  0.67289197260E+02  0.00000000000E+00 0. -1.
<scales pt_clust_5="13000.00000" pt_clust_6="13000.00000" pt_clust_7="13000.00000" pt_clust_8="13000.00000" pt_clust_9="57.83948"></scales>
<clustering>
<clus scale="   57.839">  1  9  2 -1</clus>
<clus scale="   81.009">  5  6 -1 -1</clus>
<clus scale="   89.110">  7  8 -1 -1</clus>
<clus scale="  101.345">  2  5  1 -1</clus>
<clus scale="   57.839">  1  5  2 -1</clus>
</clustering>
</event>
<event>
 9    2  0.6175212E-005  0.2077106E+03  0.7546771E-02  0.1177316E+00
         -1   -1    0    0    0  501 -0.00000000000E+00  0.00000000000E+00  0.76552808940E+03  0.76552808940E+03  0.00000000000E+00 0.  1.
         21   -1    0    0  501  502  0.00000000000E+00 -0.00000000000E+00 -0.14291879200E+03  0.14291879200E+03  0.00000000000E+00 0.  1.
         23    2    1    2    0    0  0.45329801638E+01  0.26463831577E+02 -0.37995567672E+02  0.10169195124E+03  0.90425148566E+02 0.  0.
         24    2    1    2    0    0  0.27923087881E+02 -0.20891006002E+03  0.54084524252E+03  0.58611406852E+03  0.81197370364E+02 0.  0.
        -13    1    4    4    0    0  0.44882488806E+02 -0.54898160651E+02  0.16673549524E+03  0.18118766850E+03  0.00000000000E+00 0.  1.
         14    1    4    4    0    0 -0.16959400924E+02 -0.15401189937E+03  0.37410974728E+03  0.40492640003E+03  0.00000000000E+00 0. -1.
        -13    1    3    3    0    0 -0.16020813452E+02 -0.21271182316E+02  0.12331584337E+02  0.29346168967E+02  0.00000000000E+00 0. -1.
         13    1    3    3    0    0  0.20553793615E+02  0.47735013893E+02 -0.50327152009E+02  0.72345782273E+02  0.00000000000E+00 0.  1.
         -2    1    1    2    0  502 -0.32456068045E+02  0.18244622845E+03  0.11975962256E+03  0.22064086163E+03  0.00000000000E+00 0.  1.
<scales pt_clust_5="13000.00000" pt_clust_6="13000.00000" pt_clust_7="13000.00000" pt_clust_8="13000.00000" pt_clust_9="191.18231"></scales>
<clustering>
<clus scale="   81.197">  5  6 -1 -1</clus>
<clus scale="   90.425">  7  8 -1 -1</clus>
<clus scale="   94.327">  1  7  2 -1</clus>
<clus scale="  191.182">  2  9  1 -1</clus>
<clus scale="  191.182">  2  5  1 -1</clus>
</clustering>
</event>
<event>
 9    2  0.6175212E-005  0.9305482E+02  0.7546771E-02  0.1314995E+00
          2   -1    0    0  502    0 -0.00000000000E+00  0.00000000000E+00  0.69447527692E+03  0.69447527692E+03  0.00000000000E+00 0. -1.
         21   -1    0    0  501  502  0.00000000000E+00 -0.00000000000E+00 -0.49510696796E+02  0.49510696796E+02  0.00000000000E+00 0. -1.
         24    2    1    2    0    0 -0.32109485490E+01  0.29535734442E+02  0.47661856463E+03  0.48120361394E+03  0.59236746358E+02 0.  0.
         23    2    1    2    0    0 -0.40304944760E+02 -0.14927230665E+02  0.18838281257E+03  0.21269728626E+03  0.88908608827E+02 0.  0.
        -11    1    3    3    0    0  0.23104991140E+02  0.59220735557E+01  0.94918868087E+02  0.97869827269E+02  0.00000000000E+00 0.  1.
         12    1    3    3    0    0 -0.26315939689E+02  0.23613660886E+02  0.38169969654E+03  0.38333378667E+03  0.00000000000E+00 0. -1.
        -13    1    4    4    0    0 -0.68542842501E+02 -0.14844384569E+02  0.14246463519E+03  0.15879121289E+03  0.00000000000E+00 0. -1.
         13    1    4    4    0    0  0.28237897741E+02 -0.82846095265E-01  0.45918177374E+02  0.53906073366E+02  0.00000000000E+00 0.  1.
          1    1    1    2  501    0  0.43515893309E+02 -0.14608503777E+02 -0.20036797069E+02  0.50085073523E+02  0.00000000000E+00 0. -1.
<scales pt_clust_5="13000.00000" pt_clust_6="13000.00000" pt_clust_7="13000.00000" pt_clust_8="13000.00000" pt_clust_9="45.90252"></scales>
<clustering>
<clus scale="   45.903">  2  9  1 -1</clus>
<clus scale="   59.237">  5  6 -1 -1</clus>
<clus scale="   65.295">  1  5  2 -1</clus>
<clus scale="   88.909">  7  8 -1 -1</clus>
<clus scale="   45.903">  2  5  1 -1</clus>
</clustering>
</event>
<event>
 9    2  0.6175212E-005  0.1010277E+03  0.7546771E-02  0.1286550E+00
         -3   -1    0    0    0  501 -0.00000000000E+00  0.00000000000E+00  0.38974739636E+03  0.38974739636E+03  0.00000000000E+00 0.  1.
         21   -1    0    0  501  502  0.00000000000E+00 -0.00000000000E+00 -0.32489915568E+02  0.32489915568E+02  0.00000000000E+00 0.  1.
         23    2    1    2    0    0  0.33317631247E+02  0.85527356494E+01  0.14862009081E+03  0.18032033541E+03  0.96147169122E+02 0.  0.
         24    2    1    2    0    0 -0.19118988980E+02 -0.24668820752E+02  0.10397714276E+03  0.13507551926E+03  0.80374518532E+02 0.  0.
        -11    1    4    4    0    0  0.15541669326E+02 -0.42257352758E+02  0.40049594471E+02  0.60259417230E+02  0.00000000000E+00 0.  1.
         12    1    4    4    0    0 -0.34660658306E+02  0.17588532006E+02  0.63927548290E+02  0.74816102028E+02  0.00000000000E+00 0. -1.
        -13    1    3    3    0    0 -0.17434415749E+02 -0.32262651047E+02  0.46870329485E+02  0.59511892014E+02  0.00000000000E+00 0.  1.
         13    1    3    3    0    0  0.50752046995E+02  0.40815386697E+02  0.10174976132E+03  0.12080844339E+03  0.00000000000E+00 0. -1.
         -4    1    1    2    0  502 -0.14198642267E+02  0.16116085102E+02  0.10466024723E+03  0.10684145727E+03  0.00000000000E+00 0.  1.
<scales pt_clust_5="13000.00000" pt_clust_6="13000.00000" pt_clust_7="13000.00000" pt_clust_8="13000.00000" pt_clust_9="21.47860"></scales>
<clustering>
<clus scale="   21.479">  2  9  1 -1</clus>
<clus scale="   80.375">  5  6 -1 -1</clus>
<clus scale="   86.153">  2  5  1 -1</clus>
<clus scale="   96.147">  7  8 -1 -1</clus>
<clus scale="   21.479">  2  5  1 -1</clus>
</clustering>
</event>
<event>
 9    2  0.6175212E-005  0.9523469E+02  0.7546771E-02  0.1296333E+00
         21   -1    0    0  501  502  0.00000000000E+00  0.00000000000E+00  0.43478137515E+02  0.43478137515E+02  0.00000000000E+00 0.  1.
          2   -1    0    0  502    0 -0.00000000000E+00 -0.00000000000E+00 -0.10067314416E+04  0.10067314416E+04  0.00000000000E+00 0. -1.
         24    2    1    2    0    0  0.27865294870E+02  0.13981385571E+02 -0.87156987317E+03  0.87579479125E+03  0.80065715273E+02 0.  0.
         23    2    1    2    0    0 -0.28240087111E+02  0.18212362466E+02 -0.23647115597E+02  0.99145151990E+02  0.90229609445E+02 0.  0.
        -11    1    3    3    0    0 -0.16702968262E+02 -0.17407235511E+02 -0.12967969028E+03  0.13190459836E+03  0.00000000000E+00 0.  1.
         12    1    3    3    0    0  0.44568263132E+02  0.31388621082E+02 -0.74189018288E+03  0.74389019289E+03  0.00000000000E+00 0. -1.
        -13    1    4    4    0    0  0.61284287453E+01  0.19419003846E+02  0.29497954701E+02  0.35843893215E+02  0.00000000000E+00 0.  1.
         13    1    4    4    0    0 -0.34368515856E+02 -0.12066413799E+01 -0.53145070298E+02  0.63301258775E+02  0.00000000000E+00 0. -1.
          1    1    1    2  501    0  0.37479224083E+00 -0.32193748038E+02 -0.68036315283E+02  0.75269635839E+02  0.00000000000E+00 0. -1.
<scales pt_clust_5="13000.00000" pt_clust_6="13000.00000" pt_clust_7="13000.00000" pt_clust_8="13000.00000" pt_clust_9="32.19593"></scales>
<clustering>
<clus scale="   32.196">  1  9  2 -1</clus>
<clus scale="   80.066">  5  6 -1 -1</clus>
<clus scale="   85.667">  2  5  1 -1</clus>
<clus scale="   90.230">  7  8 -1 -1</clus>
<clus scale="   32.196">  1  5  2 -1</clus>
</clustering>
</event>
<event>
 9    2  0.6175212E-005  0.9309307E+02  0.7546771E-02  0.1301859E+00
         21   -1    0    0  501  502  0.00000000000E+00  0.00000000000E+00  0.27612935682E+02  0.27612935682E+02  0.00000000000E+00 0. -1.
          2   -1    0    0  502    0 -0.00000000000E+00 -0.00000000000E+00 -0.73559605164E+03  0.73559605164E+03  0.00000000000E+00 0. -1.
         24    2    1    2    0    0  0.66666615183E+01  0.10544944287E+02 -0.46290264286E+03  0.47008338577E+03  0.80894329739E+02 0.  0.
         23    2    1    2    0    0 -0.24440546271E+02 -0.20110851816E+02 -0.25345017568E+03  0.27127452636E+03  0.91384300824E+02 0.  0.
        -13    1    3    3    0    0 -0.36789168594E+02  0.58529657833E+01 -0.17892513616E+03  0.18276187919E+03  0.00000000000E+00 0.  1.
         14    1    3    3    0    0  0.43455830112E+02  0.46919785040E+01 -0.28397750670E+03  0.28732150658E+03  0.00000000000E+00 0. -1.
        -13    1    4    4    0    0  0.27454906185E+02  0.25484245519E+01 -0.15722037978E+03  0.15961990527E+03  0.00000000000E+00 0. -1.
         13    1    4    4    0    0 -0.51895452456E+02 -0.22659276368E+02 -0.96229795899E+02  0.11165462109E+03  0.00000000000E+00 0.  1.
          1    1    1    2  501    0  0.17773884753E+02  0.95659075286E+01  0.83697025767E+01  0.21851075197E+02  0.00000000000E+00 0. -1.
<scales pt_clust_5="13000.00000" pt_clust_6="13000.00000" pt_clust_7="13000.00000" pt_clust_8="13000.00000" pt_clust_9="20.18459"></scales>
<clustering>
<clus scale="   20.185">  1  9  2 -1</clus>
<clus scale="   80.894">  5  6 -1 -1</clus>
<clus scale="   82.820">  2  5  1 -1</clus>
<clus scale="   91.384">  7  8 -1 -1</clus>
<clus scale="   20.185">  1  5  2 -1</clus>
</clustering>
</event>
<event>
 9    2  0.6175212E-005  0.9863937E+02  0.7546771E-02  0.1287281E+00
         21   -1    0    0  501  502  0.00000000000E+00  0.00000000000E+00  0.48792418176E+02  0.48792418176E+02  0.00000000000E+00 0. -1.
          2   -1    0    0  502    0 -0.00000000000E+00 -0.00000000000E+00 -0.46692032099E+03  0.46692032099E+03  0.00000000000E+00 0. -1.
         23    2    1    2    0    0 -0.41288871098E+02  0.35630475167E+02 -0.33302585528E+03  0.34887273049E+03  0.88496667497E+02 0.  0.
         24    2    1    2    0    0  0.29637723160E+02  0.13951946219E+02 -0.75651892115E+02  0.11503777710E+03  0.80233596099E+02 0.  0.
        -11    1    4    4    0    0  0.42655269442E+02 -0.13286171505E+02 -0.71854087812E+02  0.84610899415E+02  0.00000000000E+00 0.  1.
         12    1    4    4    0    0 -0.13017546282E+02  0.27238117724E+02 -0.37978043024E+01  0.30426877689E+02  0.00000000000E+00 0. -1.
        -13    1    3    3    0    0 -0.15605113112E+02 -0.26398328164E+02 -0.16690223089E+03  0.16969603991E+03  0.00000000000E+00 0.  1.
         13    1    3    3    0    0 -0.25683757986E+02  0.62028803331E+02 -0.16612362439E+03  0.17917669058E+03  0.00000000000E+00 0. -1.
          1    1    1    2  501    0  0.11651147938E+02 -0.49582421386E+02 -0.94501554247E+01  0.51802231576E+02  0.00000000000E+00 0. -1.
<scales pt_clust_5="13000.00000" pt_clust_6="13000.00000" pt_clust_7="13000.00000" pt_clust_8="13000.00000" pt_clust_9="50.93295"></scales>
<clustering>
<clus scale="   50.933">  1  9  2 -1</clus>
<clus scale="   80.234">  5  6 -1 -1</clus>
<clus scale="   88.497">  7  8 -1 -1</clus>
<clus scale="   91.299">  1  5  2 -1</clus>
<clus scale="   50.933">  1  5  2 -1</clus>
</clustering>
</event>
<event>
 9    2  0.6175212E-005  0.1184883E+03  0.7546771E-02  0.1248739E+00
         21   -1    0    0  501  502  0.00000000000E+00  0.00000000000E+00  0.80605594798E+02  0.80605594798E+02  0.00000000000E+00 0. -1.
          2   -1    0    0  502    0 -0.00000000000E+00 -0.00000000000E+00 -0.64649242665E+03  0.64649242665E+03  0.00000000000E+00 0. -1.
         24    2    1    2    0    0 -0.11260863595E+02  0.72107554455E+02 -0.52242865330E+03  0.53367264684E+03  0.80922739319E+02 0.  0.
         23    2    1    2    0    0  0.39164783878E+02 -0.99525179999E+02 -0.58010365633E+02  0.15168665030E+03  0.90578670829E+02 0.  0.
        -13    1    3    3    0    0  0.27918740616E+02  0.44691841043E+02 -0.16903335219E+03  0.17705674482E+03  0.00000000000E+00 0.  1.
         14    1    3    3    0    0 -0.39179604211E+02  0.27415713411E+02 -0.35339530111E+03  0.35661590202E+03  0.00000000000E+00 0. -1.
        -11    1    4    4    0    0  0.44649604272E+02 -0.29036183773E+02  0.93014467673E+01  0.54066662943E+02  0.00000000000E+00 0.  1.
         11    1    4    4    0    0 -0.54848203938E+01 -0.70488996225E+02 -0.67311812400E+02  0.97619987360E+02  0.00000000000E+00 0. -1.
          1    1    1    2  501    0 -0.27903920283E+02  0.27417625544E+02  0.14552187081E+02  0.41738724304E+02  0.00000000000E+00 0. -1.
<scales pt_clust_5="13000.00000" pt_clust_6="13000.00000" pt_clust_7="13000.00000" pt_clust_8="13000.00000" pt_clust_9="39.11975"></scales>
<clustering>
<clus scale="   39.120">  1  9  2 -1</clus>
<clus scale="   80.923">  5  6 -1 -1</clus>
<clus scale="   90.579">  7  8 -1 -1</clus>
<clus scale="  111.281">  2  5  1 -1</clus>
<clus scale="   39.120">  1  5  2 -1</clus>
</clustering>
</event>
<event>
 9    2  0.6175212E-005  0.1326227E+03  0.7546771E-02  0.1229300E+00
          2   -1    0    0  502    0 -0.00000000000E+00  0.00000000000E+00  0.41896643676E+03  0.41896643676E+03  0.00000000000E+00 0. -1.
         21   -1    0    0  501  502  0.00000000000E+00 -0.00000000000E+00 -0.66867997833E+02  0.66867997833E+02  0.00000000000E+00 0. -1.
         23    2    1    2    0    0 -0.10832910919E+03 -0.25364601186E+01  0.25937114813E+03  0.29545006419E+03  0.90970975702E+02 0.  0.
         24    2    1    2    0    0  0.67280494566E+02  0.25204106463E+02  0.15291399712E+02  0.99857423139E+02  0.67644409371E+02 0.  0.
        -11    1    4    4    0    0  0.25458976098E+02  0.48974383183E+01  0.39648537434E+02  0.47372469713E+02  0.00000000000E+00 0.  1.
         12    1    4    4    0    0  0.41821518468E+02  0.20306668145E+02 -0.24357137722E+02  0.52484953426E+02  0.00000000000E+00 0. -1.
        -13    1    3    3    0    0 -0.34062619232E+02 -0.56109511398E+01  0.11056334344E+02  0.36248963168E+02  0.00000000000E+00 0.  1.
         13    1    3    3    0    0 -0.74266489954E+02  0.30744910211E+01  0.24831481378E+03  0.25920110102E+03  0.00000000000E+00 0. -1.
          1    1    1    2  501    0  0.41048614619E+02 -0.22667646345E+02  0.77435891083E+02  0.90526947263E+02  0.00000000000E+00 0. -1.
<scales pt_clust_5="13000.00000" pt_clust_6="13000.00000" pt_clust_7="13000.00000" pt_clust_8="13000.00000" pt_clust_9="46.89150"></scales>
<clustering>
<clus scale="   46.892">  2  9  1 -1</clus>
<clus scale="   67.644">  5  6 -1 -1</clus>
<clus scale="   90.971">  7  8 -1 -1</clus>
<clus scale="  117.851">  2  5  1 -1</clus>
<clus scale="   46.892">  2  5  1 -1</clus>
</clustering>
</event>
<event>
 9    2  0.6175212E-005  0.1015717E+03  0.7546771E-02  0.1284057E+00
         21   -1    0    0  501  502  0.00000000000E+00  0.00000000000E+00  0.14564031868E+03  0.14564031868E+03  0.00000000000E+00 0. -1.
          2   -1    0    0  502    0 -0.00000000000E+00 -0.00000000000E+00 -0.17034852455E+03  0.17034852455E+03  0.00000000000E+00 0. -1.
         23    2    1    2    0    0 -0.35495994249E+02  0.88308871652E+01 -0.89849209136E+02  0.13370847003E+03  0.92016978866E+02 0.  0.
         24    2    1    2    0    0  0.42549596933E+02 -0.44729939298E+02 -0.89103997185E+01  0.99684334918E+02  0.77758187583E+02 0.  0.
        -13    1    4    4    0    0  0.28041040477E+02  0.95026650044E+01  0.20784769716E+02  0.36174676852E+02  0.00000000000E+00 0.  1.
         14    1    4    4    0    0  0.14508556456E+02 -0.54232604303E+02 -0.29695169435E+02  0.63509658066E+02  0.00000000000E+00 0. -1.
        -11    1    3    3    0    0 -0.26419668309E+01  0.44889602443E+02 -0.21779024641E+02  0.49963810008E+02  0.00000000000E+00 0.  1.
         11    1    3    3    0    0 -0.32854027419E+02 -0.36058715278E+02 -0.68070184495E+02  0.83744660022E+02  0.00000000000E+00 0. -1.
          1    1    1    2  501    0 -0.70536026835E+01  0.35899052133E+02  0.74051402993E+02  0.82596038283E+02  0.00000000000E+00 0. -1.
<scales pt_clust_5="13000.00000" pt_clust_6="13000.00000" pt_clust_7="13000.00000" pt_clust_8="13000.00000" pt_clust_9="36.58545"></scales>
<clustering>
<clus scale="   36.585">  1  9  2 -1</clus>
<clus scale="   77.758">  5  6 -1 -1</clus>
<clus scale="   88.860">  1  5  2 -1</clus>
<clus scale="   92.017">  7  8 -1 -1</clus>
<clus scale="   36.585">  1  5  2 -1</clus>
</clustering>
</event>
<event>
 9    2  0.6175212E-005  0.1044888E+03  0.7546771E-02  0.1279382E+00
         21   -1    0    0  501  502  0.00000000000E+00  0.00000000000E+00  0.37923180970E+03  0.37923180970E+03  0.00000000000E+00 0. -1.
          2   -1    0    0  502    0 -0.00000000000E+00 -0.00000000000E+00 -0.56499947570E+02  0.56499947570E+02  0.00000000000E+00 0. -1.
         23    2    1    2    0    0 -0.11234961685E+02  0.30264973622E+02  0.73667776058E+02  0.12555605020E+03  0.96411552834E+02 0.  0.
         24    2    1    2    0    0  0.72180103313E+02 -0.19314417477E+02  0.21079496558E+03  0.23738318993E+03  0.79581702119E+02 0.  0.
        -11    1    4    4    0    0  0.93152695461E+01 -0.29500778811E+02  0.21530024760E+02  0.37691009051E+02  0.00000000000E+00 0.  1.
         12    1    4    4    0    0  0.62864833767E+02  0.10186361333E+02  0.18926494082E+03  0.19969218088E+03  0.00000000000E+00 0. -1.
        -11    1    3    3    0    0 -0.46374088493E+02  0.18611411143E+01  0.64483045277E+02  0.79448618982E+02  0.00000000000E+00 0.  1.
         11    1    3    3    0    0  0.35139126808E+02  0.28403832508E+02  0.91847307806E+01  0.46107431218E+02  0.00000000000E+00 0. -1.
          1    1    1    2  501    0 -0.60945141628E+02 -0.10950556145E+02  0.38269120490E+02  0.72792517136E+02  0.00000000000E+00 0. -1.
<scales pt_clust_5="13000.00000" pt_clust_6="13000.00000" pt_clust_7="13000.00000" pt_clust_8="13000.00000" pt_clust_9="61.92115"></scales>
<clustering>
<clus scale="   61.921">  1  9  2 -1</clus>
<clus scale="   79.582">  5  6 -1 -1</clus>
<clus scale="   89.196">  1  5  2 -1</clus>
<clus scale="   96.412">  7  8 -1 -1</clus>
<clus scale="   61.921">  1  5  2 -1</clus>
</clustering>
</event>
<event>
 9    2  0.6175212E-005  0.9034240E+02  0.7546771E-02  0.1309266E+00
         21   -1    0    0  501  502  0.00000000000E+00  0.00000000000E+00  0.29082704065E+02  0.29082704065E+02  0.00000000000E+00 0.  1.
         -3   -1    0    0    0  501 -0.00000000000E+00 -0.00000000000E+00 -0.55796468351E+03  0.55796468351E+03  0.00000000000E+00 0.  1.
         24    2    1    2    0    0  0.36149448496E+02  0.23107322569E+02 -0.17646086407E+03  0.19516644334E+03  0.71489671102E+02 0.  0.
         23    2    1    2    0    0  0.30065851496E+02 -0.46360856833E+02 -0.18741438202E+03  0.21256999961E+03  0.83717200594E+02 0.  0.
        -11    1    3    3    0    0  0.56172631415E+02  0.24894728803E+02 -0.14867809120E+03  0.16087351194E+03  0.00000000000E+00 0.  1.
         12    1    3    3    0    0 -0.20023182920E+02 -0.17874062339E+01 -0.27782772868E+02  0.34292931393E+02  0.00000000000E+00 0. -1.
        -11    1    4    4    0    0  0.38644284070E+02  0.66343361994E+01 -0.41501265959E+02  0.57094221987E+02  0.00000000000E+00 0.  1.
         11    1    4    4    0    0 -0.85784325744E+01 -0.52995193032E+02 -0.14591311606E+03  0.15547577763E+03  0.00000000000E+00 0. -1.
         -4    1    1    2    0  502 -0.66215299992E+02  0.23253534264E+02 -0.16500673335E+03  0.17931094462E+03  0.00000000000E+00 0.  1.
<scales pt_clust_5="13000.00000" pt_clust_6="13000.00000" pt_clust_7="13000.00000" pt_clust_8="13000.00000" pt_clust_9="70.17975"></scales>
<clustering>
<clus scale="   70.180">  1  9  2 -1</clus>
<clus scale="   71.490">  5  6 -1 -1</clus>
<clus scale="   79.145">  2  5  1 -1</clus>
<clus scale="   83.717">  7  8 -1 -1</clus>
<clus scale="   70.180">  1  5  2 -1</clus>
</clustering>
</event>
<event>
 9    2  0.6175212E-005  0.9422036E+02  0.7546771E-02  0.1296658E+00
         21   -1    0    0  501  502  0.00000000000E+00  0.00000000000E+00  0.11985250911E+03  0.11985250911E+03  0.00000000000E+00 0. -1.
          4   -1    0    0  502    0 -0.00000000000E+00 -0.00000000000E+00 -0.13789746727E+03  0.13789746727E+03  0.00000000000E+00 0. -1.
         24    2    1    2    0    0 -0.43964099473E+02 -0.56451358252E+01 -0.66160654875E+02  0.11343850941E+03  0.80785850012E+02 0.  0.
         23    2    1    2    0    0  0.13021073108E+02  0.14748274685E+02  0.42599706967E+01  0.89871934263E+02  0.87588568128E+02 0.  0.
        -11    1    3    3    0    0 -0.14644770454E+02 -0.37663919541E+02 -0.85574891163E+01  0.41307030356E+02  0.00000000000E+00 0.  1.
         12    1    3    3    0    0 -0.29319329019E+02  0.32018783716E+02 -0.57603165759E+02  0.72131479052E+02  0.00000000000E+00 0. -1.
        -13    1    4    4    0    0  0.45435310266E+02 -0.44975496624E+01  0.18922878132E+02  0.49423382004E+02  0.00000000000E+00 0.  1.
         13    1    4    4    0    0 -0.32414237158E+02  0.19245824347E+02 -0.14662907435E+02  0.40448552258E+02  0.00000000000E+00 0. -1.
          3    1    1    2  501    0  0.30943026365E+02 -0.91031388594E+01  0.43855726017E+02  0.54439532715E+02  0.00000000000E+00 0. -1.
<scales pt_clust_5="13000.00000" pt_clust_6="13000.00000" pt_clust_7="13000.00000" pt_clust_8="13000.00000" pt_clust_9="32.25427"></scales>
<clustering>
<clus scale="   32.254">  1  9  2 -1</clus>
<clus scale="   80.786">  5  6 -1 -1</clus>
<clus scale="   87.589">  7  8 -1 -1</clus>
<clus scale="   87.932">  2  5  1 -1</clus>
<clus scale="   32.254">  1  5  2 -1</clus>
</clustering>
</event>
<event>
 9    2  0.6175212E-005  0.9295261E+02  0.7546771E-02  0.1301305E+00
          2   -1    0    0  502    0 -0.00000000000E+00  0.00000000000E+00  0.94428506917E+02  0.94428506917E+02  0.00000000000E+00 0. -1.
         21   -1    0    0  501  502  0.00000000000E+00 -0.00000000000E+00 -0.41981449149E+03  0.41981449149E+03  0.00000000000E+00 0. -1.
         24    2    1    2    0    0  0.32797611834E+01  0.42283841082E+02  0.44064783028E+01  0.91839561512E+02  0.81341305360E+02 0.  0.
         23    2    1    2    0    0 -0.33688702103E+02  0.25258230492E+02 -0.17378398354E+02  0.10132839453E+03  0.90512584491E+02 0.  0.
        -13    1    3    3    0    0 -0.22929797946E+01  0.52941538595E+02 -0.26083900021E+02  0.59062967293E+02  0.00000000000E+00 0.  1.
         14    1    3    3    0    0  0.55727409781E+01 -0.10657697513E+02  0.30490378324E+02  0.32776594219E+02  0.00000000000E+00 0. -1.
        -13    1    4    4    0    0  0.19068907318E+02  0.37048531320E+02  0.66047665922E+01  0.42188148111E+02  0.00000000000E+00 0. -1.
         13    1    4    4    0    0 -0.52757609421E+02 -0.11790300828E+02 -0.23983164946E+02  0.59140246417E+02  0.00000000000E+00 0.  1.
          1    1    1    2  501    0  0.30408940919E+02 -0.67542071573E+02 -0.31241406453E+03  0.32107504237E+03  0.00000000000E+00 0. -1.
<scales pt_clust_5="13000.00000" pt_clust_6="13000.00000" pt_clust_7="13000.00000" pt_clust_8="13000.00000" pt_clust_9="74.07182"></scales>
<clustering>
<clus scale="   74.072">  2  9  1 -1</clus>
<clus scale="   81.341">  5  6 -1 -1</clus>
<clus scale="   84.048">  1  5  2 -1</clus>
<clus scale="   90.513">  7  8 -1 -1</clus>
<clus scale="   74.072">  2  5  1 -1</clus>
</clustering>
</event>
<event>
 9    2  0.6175212E-005  0.9380479E+02  0.7546771E-02  0.1300600E+00
         21   -1    0    0  501  502  0.00000000000E+00  0.00000000000E+00  0.86054843262E+02  0.86054843262E+02  0.00000000000E+00 0. -1.
          2   -1    0    0  502    0 -0.00000000000E+00 -0.00000000000E+00 -0.13361589022E+03  0.13361589022E+03  0.00000000000E+00 0. -1.
         23    2    1    2    0    0 -0.86778250778E+01  0.21949637684E+02 -0.43686473912E+02  0.10428970469E+03  0.91710104457E+02 0.  0.
         24    2    1    2    0    0  0.25974687678E+02  0.27023740954E+01 -0.80395804220E+01  0.84979541537E+02  0.80466765815E+02 0.  0.
        -13    1    4    4    0    0 -0.25409978996E+02 -0.15042068095E+02 -0.80925242390E+01  0.30617311994E+02  0.00000000000E+00 0.  1.
         14    1    4    4    0    0  0.51384666674E+02  0.17744442190E+02  0.52943817093E-01  0.54362229543E+02  0.00000000000E+00 0. -1.
        -11    1    3    3    0    0 -0.42619742491E+01 -0.29199595620E+02 -0.43964351458E+02  0.52949457108E+02  0.00000000000E+00 0.  1.
         11    1    3    3    0    0 -0.44158508287E+01  0.51149233305E+02  0.27787754583E+00  0.51340247585E+02  0.00000000000E+00 0. -1.
          1    1    1    2  501    0 -0.17296862600E+02 -0.24652011780E+02  0.41650073780E+01  0.30401487251E+02  0.00000000000E+00 0. -1.
<scales pt_clust_5="13000.00000" pt_clust_6="13000.00000" pt_clust_7="13000.00000" pt_clust_8="13000.00000" pt_clust_9="30.11483"></scales>
<clustering>
<clus scale="   30.115">  1  9  2 -1</clus>
<clus scale="   80.467">  5  6 -1 -1</clus>
<clus scale="   82.846">  1  5  2 -1</clus>
<clus scale="   91.710">  7  8 -1 -1</clus>
<clus scale="   30.115">  1  5  2 -1</clus>
</clustering>
</event>
<event>
 9    2  0.6175212E-005  0.1572671E+03  0.7546771E-02  0.1194203E+00
          2   -1    0    0  502    0 -0.00000000000E+00  0.00000000000E+00  0.11650967634E+04  0.11650967634E+04  0.00000000000E+00 0. -1.
         21   -1    0    0  501  502  0.00000000000E+00 -0.00000000000E+00 -0.41561568513E+02  0.41561568513E+02  0.00000000000E+00 0. -1.
         23    2    1    2    0    0  0.11211235953E+03  0.95644330991E+02  0.78293294835E+03  0.80231025327E+03  0.94872133304E+02 0.  0.
         24    2    1    2    0    0 -0.37205687491E+02 -0.60747771354E+02  0.89771084621E+02  0.14025519503E+03  0.80858624724E+02 0.  0.
        -13    1    4    4    0    0 -0.41641851065E+02 -0.67998147091E+02  0.99388477595E+02  0.12742001902E+03  0.00000000000E+00 0.  1.
         14    1    4    4    0    0  0.44361635732E+01  0.72503757374E+01 -0.96173929746E+01  0.12835176010E+02  0.00000000000E+00 0. -1.
        -13    1    3    3    0    0  0.85267702388E+02  0.12431076647E+02  0.33359130825E+03  0.34454067057E+03  0.00000000000E+00 0. -1.
         13    1    3    3    0    0  0.26844657139E+02  0.83213254344E+02  0.44934164010E+03  0.45776958270E+03  0.00000000000E+00 0.  1.
          1    1    1    2  501    0 -0.74906672036E+02 -0.34896559637E+02  0.25083116195E+03  0.26409288365E+03  0.00000000000E+00 0. -1.
<scales pt_clust_5="13000.00000" pt_clust_6="13000.00000" pt_clust_7="13000.00000" pt_clust_8="13000.00000" pt_clust_9="82.63647"></scales>
<clustering>
<clus scale="   80.859">  5  6 -1 -1</clus>
<clus scale="   82.636">  2  9  1 -1</clus>
<clus scale="   94.872">  7  8 -1 -1</clus>
<clus scale="  149.232">  2  5  1 -1</clus>
<clus scale="   82.636">  2  5  1 -1</clus>
</clustering>
</event>
<event>
 9    2  0.6175212E-005  0.1075084E+03  0.7546771E-02  0.1273238E+00
          2   -1    0    0  502    0 -0.00000000000E+00  0.00000000000E+00  0.43556895605E+03  0.43556895605E+03  0.00000000000E+00 0. -1.
         21   -1    0    0  501  502  0.00000000000E+00 -0.00000000000E+00 -0.30367950669E+02  0.30367950669E+02  0.00000000000E+00 0. -1.
         23    2    1    2    0    0  0.23593706421E+02 -0.24907694653E+02  0.17597299128E+03  0.20389563771E+03  0.97107575310E+02 0.  0.
         24    2    1    2    0    0 -0.34782736799E+02  0.47003089511E+02  0.15555328463E+03  0.18431504025E+03  0.79725030566E+02 0.  0.
        -13    1    4    4    0    0 -0.25169929851E+02  0.29719159337E+02  0.15946736551E+03  0.16415417894E+03  0.00000000000E+00 0.  1.
         14    1    4    4    0    0 -0.96128069486E+01  0.17283930174E+02 -0.39140808757E+01  0.20160861311E+02  0.00000000000E+00 0. -1.
        -13    1    3    3    0    0  0.59240822900E+01  0.36459523802E+02  0.85668950779E+02  0.93292876225E+02  0.00000000000E+00 0.  1.
         13    1    3    3    0    0  0.17669624131E+02 -0.61367218454E+02  0.90304040498E+02  0.11060276148E+03  0.00000000000E+00 0. -1.
          1    1    1    2  501    0  0.11189030378E+02 -0.22095394858E+02  0.73674729471E+02  0.77726228760E+02  0.00000000000E+00 0. -1.
<scales pt_clust_5="13000.00000" pt_clust_6="13000.00000" pt_clust_7="13000.00000" pt_clust_8="13000.00000" pt_clust_9="24.76694"></scales>
<clustering>
<clus scale="   24.767">  2  9  1 -1</clus>
<clus scale="   79.725">  5  6 -1 -1</clus>
<clus scale="   92.110">  2  5  1 -1</clus>
<clus scale="   97.108">  7  8 -1 -1</clus>
<clus scale="   24.767">  2  5  1 -1</clus>
</clustering>
</event>
<event>
 9    2  0.6175212E-005  0.1461096E+03  0.7546771E-02  0.1219976E+00
          2   -1    0    0  502    0 -0.00000000000E+00  0.00000000000E+00  0.51772293829E+03  0.51772293829E+03  0.00000000000E+00 0. -1.
         21   -1    0    0  501  502  0.00000000000E+00 -0.00000000000E+00 -0.80731983109E+02  0.80731983109E+02  0.00000000000E+00 0. -1.
         24    2    1    2    0    0  0.35003960767E+02  0.61681196824E+02  0.25088049685E+03  0.27275877531E+03  0.80165319791E+02 0.  0.
         23    2    1    2    0    0  0.36760968242E+02  0.63597958220E+02  0.10539326810E+03  0.16028654382E+03  0.95853878860E+02 0.  0.
        -11    1    3    3    0    0 -0.24505332203E+02  0.78716238844E+01  0.78738458510E+02  0.82838509266E+02  0.00000000000E+00 0.  1.
         12    1    3    3    0    0  0.59509292970E+02  0.53809572940E+02  0.17214203835E+03  0.18992026605E+03  0.00000000000E+00 0. -1.
        -11    1    4    4    0    0  0.26942703031E+02 -0.21659370401E+02  0.36110628412E+02  0.49990149600E+02  0.00000000000E+00 0.  1.
         11    1    4    4    0    0  0.98182652114E+01  0.85257328621E+02  0.69282639688E+02  0.11029639422E+03  0.00000000000E+00 0. -1.
          1    1    1    2  501    0 -0.71764929009E+02 -0.12527915504E+03  0.80717190225E+02  0.16540960227E+03  0.00000000000E+00 0. -1.
<scales pt_clust_5="13000.00000" pt_clust_6="13000.00000" pt_clust_7="13000.00000" pt_clust_8="13000.00000" pt_clust_9="110.27267"></scales>
<clustering>
<clus scale="   80.165">  5  6 -1 -1</clus>
<clus scale="   95.854">  7  8 -1 -1</clus>
<clus scale="  107.034">  1  5  2 -1</clus>
<clus scale="  110.273">  2  9  1 -1</clus>
<clus scale="  110.273">  2  5  1 -1</clus>
</clustering>
</event>
<event>
 9    2  0.6175212E-005  0.4807175E+03  0.7546771E-02  0.1019079E+00
          2   -1    0    0  502    0 -0.00000000000E+00  0.00000000000E+00  0.59975908946E+03  0.59975908946E+03  0.00000000000E+00 0. -1.
         21   -1    0    0  501  502  0.00000000000E+00 -0.00000000000E+00 -0.95755251612E+03  0.95755251612E+03  0.00000000000E+00 0.  1.
         23    2    1    2    0    0 -0.10265918173E+03 -0.40587080876E+03  0.12587013131E+03  0.44693920945E+03  0.92958840314E+02 0.  0.
         24    2    1    2    0    0  0.13634296748E+03  0.67497557643E+03 -0.47215727789E+03  0.83892374926E+03  0.81725935028E+02 0.  0.
        -11    1    4    4    0    0  0.83712395465E+02  0.23809099072E+03 -0.15040039901E+03  0.29379476687E+03  0.00000000000E+00 0.  1.
         12    1    4    4    0    0  0.52630572019E+02  0.43688458571E+03 -0.32175687888E+03  0.54512898240E+03  0.00000000000E+00 0. -1.
        -13    1    3    3    0    0  0.82634861493E+00 -0.17935789783E+03  0.62889698574E+02  0.19006591634E+03  0.00000000000E+00 0.  1.
         13    1    3    3    0    0 -0.10348553034E+03 -0.22651291093E+03  0.62980432737E+02  0.25687329312E+03  0.00000000000E+00 0. -1.
          1    1    1    2  501    0 -0.33683785756E+02 -0.26910476767E+03 -0.11506280077E+02  0.27144864687E+03  0.00000000000E+00 0. -1.
<scales pt_clust_5="13000.00000" pt_clust_6="13000.00000" pt_clust_7="13000.00000" pt_clust_8="13000.00000" pt_clust_9="271.20481"></scales>
<clustering>
<clus scale="   81.726">  5  6 -1 -1</clus>
<clus scale="   92.959">  7  8 -1 -1</clus>
<clus scale="  271.205">  2  9  1 -1</clus>
<clus scale="  478.672">  2  5  1 -1</clus>
<clus scale="  271.205">  2  5  1 -1</clus>
</clustering>
</event>
<event>
 9    2  0.6175212E-005  0.1084570E+03  0.7546771E-02  0.1268067E+00
         -1   -1    0    0    0  501 -0.00000000000E+00  0.00000000000E+00  0.31808910580E+03  0.31808910580E+03  0.00000000000E+00 0.  1.
         21   -1    0    0  501  502  0.00000000000E+00 -0.00000000000E+00 -0.52382103962E+02  0.52382103962E+02  0.00000000000E+00 0.  1.
         24    2    1    2    0    0 -0.63172227818E+02  0.33716987967E+02  0.15445113262E+03  0.18838028407E+03  0.80649943684E+02 0.  0.
         23    2    1    2    0    0  0.42508210216E+02 -0.52639146801E+01  0.10578119226E+03  0.14650228858E+03  0.91861870164E+02 0.  0.
        -13    1    3    3    0    0 -0.31626593385E+02 -0.78869086790E-01  0.13425624834E+03  0.13793109819E+03  0.00000000000E+00 0.  1.
         14    1    3    3    0    0 -0.31545634433E+02  0.33795857053E+02  0.20194884281E+02  0.50449185889E+02  0.00000000000E+00 0. -1.
        -13    1    4    4    0    0  0.25073490912E+02 -0.32142950987E+02  0.53873266898E+01  0.41120220494E+02  0.00000000000E+00 0.  1.
         13    1    4    4    0    0  0.17434719305E+02  0.26879036307E+02  0.10039386557E+03  0.10538206809E+03  0.00000000000E+00 0. -1.
         -2    1    1    2    0  502  0.20664017602E+02 -0.28453073286E+02  0.54746769536E+01  0.35588637100E+02  0.00000000000E+00 0.  1.
<scales pt_clust_5="13000.00000" pt_clust_6="13000.00000" pt_clust_7="13000.00000" pt_clust_8="13000.00000" pt_clust_9="35.16503"></scales>
<clustering>
<clus scale="   35.165">  2  9  1 -1</clus>
<clus scale="   80.650">  5  6 -1 -1</clus>
<clus scale="   91.862">  7  8 -1 -1</clus>
<clus scale="   99.140">  1  5  2 -1</clus>
<clus scale="   35.165">  2  5  1 -1</clus>
</clustering>
</event>
<event>
 9    2  0.6175212E-005  0.1239062E+03  0.7546771E-02  0.1242465E+00
          2   -1    0    0  502    0 -0.00000000000E+00  0.00000000000E+00  0.52668285721E+03  0.52668285721E+03  0.00000000000E+00 0. -1.
         21   -1    0    0  501  502  0.00000000000E+00 -0.00000000000E+00 -0.91127085705E+02  0.91127085705E+02  0.00000000000E+00 0.  1.
         23    2    1    2    0    0  0.60117109778E+02  0.42425169339E+02  0.39489333663E+03  0.41380614624E+03  0.99402301099E+02 0.  0.
         24    2    1    2    0    0 -0.45521053649E+02 -0.68372224244E+02 -0.36219349581E+02  0.12155924990E+03  0.81962690165E+02 0.  0.
        -13    1    4    4    0    0 -0.53792319344E+02 -0.37905429468E+02 -0.54178078001E+02  0.85239071672E+02  0.00000000000E+00 0.  1.
         14    1    4    4    0    0  0.82712656952E+01 -0.30466794775E+02  0.17958728421E+02  0.36320178229E+02  0.00000000000E+00 0. -1.
        -13    1    3    3    0    0  0.20325947933E+00 -0.22709588686E+02  0.26352340733E+02  0.34788109963E+02  0.00000000000E+00 0.  1.
         13    1    3    3    0    0  0.59913850299E+02  0.65134758025E+02  0.36854099590E+03  0.37901803627E+03  0.00000000000E+00 0. -1.
          1    1    1    2  501    0 -0.14596056129E+02  0.25947054905E+02  0.76881784451E+02  0.82444546776E+02  0.00000000000E+00 0. -1.
<scales pt_clust_5="13000.00000" pt_clust_6="13000.00000" pt_clust_7="13000.00000" pt_clust_8="13000.00000" pt_clust_9="29.77071"></scales>
<clustering>
<clus scale="   29.771">  2  9  1 -1</clus>
<clus scale="   81.963">  5  6 -1 -1</clus>
<clus scale="   99.402">  7  8 -1 -1</clus>
<clus scale="  110.407">  2  5  1 -1</clus>
<clus scale="   29.771">  2  5  1 -1</clus>
</clustering>
</event>
<event>
 9    2  0.6175212E-005  0.2381222E+03  0.7546771E-02  0.1121050E+00
         -3   -1    0    0    0  501 -0.00000000000E+00  0.00000000000E+00  0.34167713232E+03  0.34167713232E+03  0.00000000000E+00 0.  1.
         21   -1    0    0  501  502  0.00000000000E+00 -0.00000000000E+00 -0.47970078592E+03  0.47970078592E+03  0.00000000000E+00 0.  1.
         24    2    1    2    0    0 -0.29652526682E+02  0.94830795935E+02  0.16410260797E+03  0.20796193361E+03  0.80289150534E+02 0.  0.
         23    2    1    2    0    0 -0.57710557820E+02  0.15732056025E+02  0.12329377826E+03  0.16526571623E+03  0.92376377565E+02 0.  0.
        -11    1    3    3    0    0 -0.43730328013E+02  0.62537558951E+02  0.57097280749E+02  0.95306806350E+02  0.00000000000E+00 0.  1.
         12    1    3    3    0    0  0.14077801332E+02  0.32293236984E+02  0.10700532722E+03  0.11265512726E+03  0.00000000000E+00 0. -1.
        -13    1    4    4    0    0 -0.27674866353E+01  0.46813296726E+02  0.50598573685E+02  0.68988110509E+02  0.00000000000E+00 0.  1.
         13    1    4    4    0    0 -0.54943071185E+02 -0.31081240701E+02  0.72695204578E+02  0.96277605722E+02  0.00000000000E+00 0. -1.
         -4    1    1    2    0  502  0.87363084502E+02 -0.11056285196E+03 -0.42542003984E+03  0.44815026840E+03  0.00000000000E+00 0.  1.
<scales pt_clust_5="13000.00000" pt_clust_6="13000.00000" pt_clust_7="13000.00000" pt_clust_8="13000.00000" pt_clust_9="140.91293"></scales>
<clustering>
<clus scale="   80.289">  5  6 -1 -1</clus>
<clus scale="   92.376">  7  8 -1 -1</clus>
<clus scale="  109.518">  5  7 -1 -1</clus>
<clus scale="  140.913">  2  9  1 -1</clus>
<clus scale="  140.913">  2  5  1 -1</clus>
</clustering>
</event>
<event>
 9    2  0.6175212E-005  0.2988567E+03  0.7546771E-02  0.1122491E+00
         21   -1    0    0  501  502  0.00000000000E+00  0.00000000000E+00  0.14096976370E+03  0.14096976370E+03  0.00000000000E+00 0. -1.
          2   -1    0    0  502    0 -0.00000000000E+00 -0.00000000000E+00 -0.12344385450E+04  0.12344385450E+04  0.00000000000E+00 0. -1.
         24    2    1    2    0    0 -0.31864476860E+02  0.78720055857E+02 -0.42216887271E+03  0.43786938729E+03  0.79314886105E+02 0.  0.
         23    2    1    2    0    0  0.27520062098E+03 -0.12607944722E+03 -0.12840663277E+03  0.34072362341E+03  0.89291183305E+02 0.  0.
        -11    1    3    3    0    0 -0.42729410956E+02  0.89466682544E+01 -0.12425277762E+03  0.13169889210E+03  0.00000000000E+00 0.  1.
         12    1    3    3    0    0  0.10864934096E+02  0.69773387603E+02 -0.29791609509E+03  0.30617049519E+03  0.00000000000E+00 0. -1.
        -13    1    4    4    0    0  0.41231076116E+02 -0.59278904452E+02 -0.32516934997E+02  0.79191800158E+02  0.00000000000E+00 0.  1.
         13    1    4    4    0    0  0.23396954486E+03 -0.66800542765E+02 -0.95889697771E+02  0.26153182326E+03  0.00000000000E+00 0. -1.
          1    1    1    2  501    0 -0.24333614412E+03  0.47359391359E+02 -0.54289327584E+03  0.59681529801E+03  0.00000000000E+00 0. -1.
<scales pt_clust_5="13000.00000" pt_clust_6="13000.00000" pt_clust_7="13000.00000" pt_clust_8="13000.00000" pt_clust_9="285.20605"></scales>
<clustering>
<clus scale="   79.315">  5  6 -1 -1</clus>
<clus scale="   89.291">  7  8 -1 -1</clus>
<clus scale="  116.203">  2  5  1 -1</clus>
<clus scale="  285.206">  1  9  2 -1</clus>
<clus scale="  285.206">  1  5  2 -1</clus>
</clustering>
</event>
<event>
 9    2  0.6175212E-005  0.1184501E+03  0.7546771E-02  0.1249236E+00
          2   -1    0    0  502    0 -0.00000000000E+00  0.00000000000E+00  0.29680195803E+03  0.29680195803E+03  0.00000000000E+00 0. -1.
         21   -1    0    0  501  502  0.00000000000E+00 -0.00000000000E+00 -0.16572280288E+03  0.16572280288E+03  0.00000000000E+00 0.  1.
         23    2    1    2    0    0  0.54008057368E+02 -0.49097685568E+02  0.14329495197E+03  0.18257938876E+03  0.86454247730E+02 0.  0.
         24    2    1    2    0    0 -0.57580685328E+02  0.28302777043E+02  0.10763506331E+03  0.15825140941E+03  0.96652052309E+02 0.  0.
        -13    1    4    4    0    0  0.12307648291E+02 -0.23181887607E+02  0.41584633402E+02  0.49174788812E+02  0.00000000000E+00 0.  1.
         14    1    4    4    0    0 -0.69888333619E+02  0.51484664650E+02  0.66050429908E+02  0.10907662060E+03  0.00000000000E+00 0. -1.
        -11    1    3    3    0    0  0.31471388746E+02 -0.16832045919E+02  0.13838990017E+03  0.14291791542E+03  0.00000000000E+00 0. -1.
         11    1    3    3    0    0  0.22536668622E+02 -0.32265639649E+02  0.49050518075E+01  0.39661473344E+02  0.00000000000E+00 0.  1.
          1    1    1    2  501    0  0.35726279599E+01  0.20794908525E+02 -0.11985086013E+03  0.12169396273E+03  0.00000000000E+00 0. -1.
<scales pt_clust_5="13000.00000" pt_clust_6="13000.00000" pt_clust_7="13000.00000" pt_clust_8="13000.00000" pt_clust_9="21.09957"></scales>
<clustering>
<clus scale="   21.100">  2  9  1 -1</clus>
<clus scale="   86.454">  7  8 -1 -1</clus>
<clus scale="   96.652">  5  6 -1 -1</clus>
<clus scale="  110.287">  1  7  2 -1</clus>
<clus scale="   21.100">  2  5  1 -1</clus>
</clustering>
</event>
<event>
 9    2  0.6175212E-005  0.1039762E+03  0.7546771E-02  0.1277332E+00
          2   -1    0    0  502    0 -0.00000000000E+00  0.00000000000E+00  0.58371318182E+03  0.58371318182E+03  0.00000000000E+00 0. -1.
         21   -1    0    0  501  502  0.00000000000E+00 -0.00000000000E+00 -0.32476750297E+02  0.32476750297E+02  0.00000000000E+00 0. -1.
         23    2    1    2    0    0  0.14438088442E+02  0.50734854930E+02  0.17424979883E+03  0.20352113352E+03  0.90969090864E+02 0.  0.
         24    2    1    2    0    0  0.45243462315E+02 -0.44519192459E+02  0.18029095907E+03  0.20702417800E+03  0.79531446449E+02 0.  0.
        -11    1    4    4    0    0  0.23107271024E+02 -0.28272464948E+02  0.17536656987E+03  0.17912764186E+03  0.00000000000E+00 0.  1.
         12    1    4    4    0    0  0.22136191291E+02 -0.16246727511E+02  0.49243891960E+01  0.27896536141E+02  0.00000000000E+00 0. -1.
        -11    1    3    3    0    0  0.45823870847E+02  0.45936295240E+02  0.15043710906E+03  0.16383312895E+03  0.00000000000E+00 0.  1.
         11    1    3    3    0    0 -0.31385782404E+02  0.47985596902E+01  0.23812689772E+02  0.39688004566E+02  0.00000000000E+00 0. -1.
          1    1    1    2  501    0 -0.59681550757E+02 -0.62156624703E+01  0.19669567362E+03  0.20564462060E+03  0.00000000000E+00 0. -1.
<scales pt_clust_5="13000.00000" pt_clust_6="13000.00000" pt_clust_7="13000.00000" pt_clust_8="13000.00000" pt_clust_9="60.00438"></scales>
<clustering>
<clus scale="   60.004">  2  9  1 -1</clus>
<clus scale="   79.531">  5  6 -1 -1</clus>
<clus scale="   90.969">  7  8 -1 -1</clus>
<clus scale="   94.132">  2  5  1 -1</clus>
<clus scale="   60.004">  2  5  1 -1</clus>
</clustering>
</event>
<event>
 9    2  0.7006717E-005  0.9727527E+02  0.7546771E-02  0.1291771E+00
          2   -1    0    0  502    0 -0.00000000000E+00  0.00000000000E+00  0.97178729448E+03  0.97178729448E+03  0.00000000000E+00 0. -1.
         21   -1    0    0  501  502  0.00000000000E+00 -0.00000000000E+00 -0.76716511546E+02  0.76716511546E+02  0.00000000000E+00 0. -1.
         24    2    1    2    0    0  0.91914930332E+01 -0.39289814906E+02  0.71742733097E+03  0.72294245611E+03  0.79471042065E+02 0.  0.
         23    2    1    2    0    0 -0.26012265902E+02  0.17401017960E+02  0.23951428948E+03  0.25781138042E+03  0.90112039169E+02 0.  0.
        -11    1    3    3    0    0 -0.39471571164E+00  0.23046681474E+02  0.11987338740E+03  0.12206938328E+03  0.00000000000E+00 0.  1.
         12    1    3    3    0    0  0.95862087448E+01 -0.62336496380E+02  0.59755394357E+03  0.60087307284E+03  0.00000000000E+00 0. -1.
        -11    1    4    4    0    0 -0.31471493395E+02 -0.31722992227E+02  0.13490437956E+03  0.14211261294E+03  0.00000000000E+00 0. -1.
         11    1    4    4    0    0  0.54592274927E+01  0.49124010188E+02  0.10460990992E+03  0.11569876748E+03  0.00000000000E+00 0.  1.
          1    1    1    2  501    0  0.16820772869E+02  0.21888796946E+02 -0.61870837518E+02  0.67749969497E+02  0.00000000000E+00 0. -1.
<scales pt_clust_5="13000.00000" pt_clust_6="13000.00000" pt_clust_7="13000.00000" pt_clust_8="13000.00000" pt_clust_9="27.60539"></scales>
<clustering>
<clus scale="   27.605">  2  9  1 -1</clus>
<clus scale="   79.471">  5  6 -1 -1</clus>
<clus scale="   87.510">  1  5  2 -1</clus>
<clus scale="   90.112">  7  8 -1 -1</clus>
<clus scale="   27.605">  2  5  1 -1</clus>
</clustering>
</event>
<event>
 9    2  0.6175212E-005  0.1210668E+03  0.7546771E-02  0.1244376E+00
         21   -1    0    0  501  502  0.00000000000E+00  0.00000000000E+00  0.12517064850E+03  0.12517064850E+03  0.00000000000E+00 0. -1.
          2   -1    0    0  502    0 -0.00000000000E+00 -0.00000000000E+00 -0.22109726974E+04  0.22109726974E+04  0.00000000000E+00 0. -1.
         24    2    1    2    0    0  0.36559479645E+02 -0.69501603749E+02 -0.20781496426E+04  0.20812570997E+04  0.82207722267E+02 0.  0.
         23    2    1    2    0    0 -0.14504316353E+01  0.94515539036E+02 -0.91583953065E+02  0.16053134825E+03  0.91909751615E+02 0.  0.
        -11    1    3    3    0    0  0.22654218167E+02 -0.14448557883E+02 -0.15802717979E+03  0.16029524004E+03  0.00000000000E+00 0.  1.
         12    1    3    3    0    0  0.13905261477E+02 -0.55053045866E+02 -0.19201224628E+04  0.19209618597E+04  0.00000000000E+00 0. -1.
        -13    1    4    4    0    0 -0.31797370145E+02  0.46910521764E+02 -0.46331953985E+01  0.56860674459E+02  0.00000000000E+00 0.  1.
         13    1    4    4    0    0  0.30346938510E+02  0.47605017272E+02 -0.86950757666E+02  0.10367067380E+03  0.00000000000E+00 0. -1.
          1    1    1    2  501    0 -0.35109048009E+02 -0.25013935287E+02  0.83931546794E+02  0.94354897901E+02  0.00000000000E+00 0. -1.
<scales pt_clust_5="13000.00000" pt_clust_6="13000.00000" pt_clust_7="13000.00000" pt_clust_8="13000.00000" pt_clust_9="43.10849"></scales>
<clustering>
<clus scale="   43.108">  1  9  2 -1</clus>
<clus scale="   82.208">  5  6 -1 -1</clus>
<clus scale="   91.910">  7  8 -1 -1</clus>
<clus scale="  113.877">  2  5  1 -1</clus>
<clus scale="   43.108">  1  5  2 -1</clus>
</clustering>
</event>
<event>
 9    2  0.6175212E-005  0.1325556E+03  0.7546771E-02  0.1245746E+00
         21   -1    0    0  501  502  0.00000000000E+00  0.00000000000E+00  0.61211816014E+02  0.61211816014E+02  0.00000000000E+00 0. -1.
          2   -1    0    0  502    0 -0.00000000000E+00 -0.00000000000E+00 -0.43406316979E+03  0.43406316979E+03  0.00000000000E+00 0. -1.
         24    2    1    2    0    0  0.18896201022E+02  0.17675146493E+02 -0.13484409535E+03  0.15907854708E+03  0.80334157583E+02 0.  0.
         23    2    1    2    0    0  0.65490354917E+02  0.44739970952E+02 -0.17942588325E+03  0.21599446193E+03  0.90384226577E+02 0.  0.
        -13    1    3    3    0    0 -0.27516648412E+02  0.15723949431E+02 -0.26923492971E+02  0.41584648601E+02  0.00000000000E+00 0.  1.
         14    1    3    3    0    0  0.46412849434E+02  0.19511970616E+01 -0.10792060238E+03  0.11749389848E+03  0.00000000000E+00 0. -1.
        -13    1    4    4    0    0  0.56067536222E+02  0.72057746112E+02 -0.13355477921E+03  0.16177999395E+03  0.00000000000E+00 0. -1.
         13    1    4    4    0    0  0.94228186949E+01 -0.27317775160E+02 -0.45871104041E+02  0.54214467975E+02  0.00000000000E+00 0.  1.
          1    1    1    2  501    0 -0.84386555939E+02 -0.62415117445E+02 -0.58581375179E+02  0.12020197680E+03  0.00000000000E+00 0. -1.
<scales pt_clust_5="13000.00000" pt_clust_6="13000.00000" pt_clust_7="13000.00000" pt_clust_8="13000.00000" pt_clust_9="96.96228"></scales>
<clustering>
<clus scale="   80.334">  5  6 -1 -1</clus>
<clus scale="   84.398">  2  5  1 -1</clus>
<clus scale="   90.384">  7  8 -1 -1</clus>
<clus scale="   96.962">  1  9  2 -1</clus>
<clus scale="   96.962">  1  5  2 -1</clus>
</clustering>
</event>
<event>
 9    2  0.6175212E-005  0.2295116E+03  0.7546771E-02  0.1127727E+00
         21   -1    0    0  501  502  0.00000000000E+00  0.00000000000E+00  0.64969790349E+02  0.64969790349E+02  0.00000000000E+00 0.  1.
          2   -1    0    0  502    0 -0.00000000000E+00 -0.00000000000E+00 -0.19053922700E+04  0.19053922700E+04  0.00000000000E+00 0. -1.
         23    2    1    2    0    0 -0.24724363755E+03  0.48684520093E+02 -0.14530414408E+04  0.14776089535E+04  0.92191061734E+02 0.  0.
         24    2    1    2    0    0  0.14099014089E+03  0.20884888772E+02 -0.28813449227E+03  0.33157126794E+03  0.81262670898E+02 0.  0.
        -13    1    4    4    0    0  0.14291230808E+03  0.59230826487E+01 -0.22466033051E+03  0.26632926015E+03  0.00000000000E+00 0.  1.
         14    1    4    4    0    0 -0.19221671890E+01  0.14961806123E+02 -0.63474161762E+02  0.65242007791E+02  0.00000000000E+00 0. -1.
        -13    1    3    3    0    0 -0.91436450755E+02 -0.24952628660E+02 -0.45029091615E+03  0.46015776356E+03  0.00000000000E+00 0. -1.
         13    1    3    3    0    0 -0.15580718680E+03  0.73637148752E+02 -0.10027505247E+04  0.10174511899E+04  0.00000000000E+00 0.  1.
          1    1    1    2  501    0  0.10625349666E+03 -0.69569408865E+02 -0.99246546623E+02  0.16118183899E+03  0.00000000000E+00 0. -1.
<scales pt_clust_5="13000.00000" pt_clust_6="13000.00000" pt_clust_7="13000.00000" pt_clust_8="13000.00000" pt_clust_9="127.00279"></scales>
<clustering>
<clus scale="   81.263">  5  6 -1 -1</clus>
<clus scale="   92.191">  7  8 -1 -1</clus>
<clus scale="  127.003">  1  9  2 -1</clus>
<clus scale="  225.344">  1  5  2 -1</clus>
<clus scale="  127.003">  1  5  2 -1</clus>
</clustering>
</event>
<event>
 9    2  0.6175212E-005  0.1401952E+03  0.7546771E-02  0.1227988E+00
         21   -1    0    0  501  502  0.00000000000E+00  0.00000000000E+00  0.12841000007E+03  0.12841000007E+03  0.00000000000E+00 0. -1.
          4   -1    0    0  502    0 -0.00000000000E+00 -0.00000000000E+00 -0.26593941642E+03  0.26593941642E+03  0.00000000000E+00 0. -1.
         23    2    1    2    0    0 -0.38386445556E+02  0.16549026742E+02 -0.14362987939E+01  0.10252439674E+03  0.93604484313E+02 0.  0.
         24    2    1    2    0    0 -0.92623392112E+02  0.66340814812E+01 -0.83383430961E+02  0.14871895722E+03  0.80879094178E+02 0.  0.
        -13    1    4    4    0    0 -0.30967465314E+02  0.37167650002E+02 -0.57656233619E+02  0.75263931533E+02  0.00000000000E+00 0.  1.
         14    1    4    4    0    0 -0.61655926798E+02 -0.30533568521E+02 -0.25727197342E+02  0.73455025689E+02  0.00000000000E+00 0. -1.
        -11    1    3    3    0    0 -0.46108930425E+02 -0.23209400695E+02 -0.23144727787E+02  0.56571973361E+02  0.00000000000E+00 0.  1.
         11    1    3    3    0    0  0.77224848685E+01  0.39758427437E+02  0.21708428993E+02  0.45952423376E+02  0.00000000000E+00 0. -1.
          3    1    1    2  501    0  0.13100983767E+03 -0.23183108223E+02 -0.52709686595E+02  0.14310606253E+03  0.00000000000E+00 0. -1.
<scales pt_clust_5="13000.00000" pt_clust_6="13000.00000" pt_clust_7="13000.00000" pt_clust_8="13000.00000" pt_clust_9="114.51319"></scales>
<clustering>
<clus scale="   80.879">  5  6 -1 -1</clus>
<clus scale="   93.604">  7  8 -1 -1</clus>
<clus scale="  102.514">  2  7  1 -1</clus>
<clus scale="  114.513">  1  9  2 -1</clus>
<clus scale="  114.513">  1  5  2 -1</clus>
</clustering>
</event>
<event>
 9    2  0.6175212E-005  0.1293326E+03  0.7546771E-02  0.1240955E+00
          2   -1    0    0  502    0 -0.00000000000E+00  0.00000000000E+00  0.14732901311E+04  0.14732901311E+04  0.00000000000E+00 0. -1.
         21   -1    0    0  501  502  0.00000000000E+00 -0.00000000000E+00 -0.32322334855E+02  0.32322334855E+02  0.00000000000E+00 0. -1.
         24    2    1    2    0    0 -0.38947856952E+01  0.51873769419E+02  0.64460303838E+03  0.65232877792E+03  0.85520173667E+02 0.  0.
         23    2    1    2    0    0 -0.17499505500E+02  0.77680045068E+02  0.14863531075E+03  0.19237874540E+03  0.92610496083E+02 0.  0.
        -11    1    3    3    0    0 -0.11510703981E+02 -0.16883421777E+02  0.54855015573E+02  0.58537329718E+02  0.00000000000E+00 0.  1.
         12    1    3    3    0    0  0.76159182855E+01  0.68757191195E+02  0.58974802281E+03  0.59379144820E+03  0.00000000000E+00 0. -1.
        -11    1    4    4    0    0 -0.33097422450E+02  0.41363796855E+02  0.14294669434E+03  0.15244723837E+03  0.00000000000E+00 0.  1.
         11    1    4    4    0    0  0.15597916950E+02  0.36316248212E+02  0.56886164163E+01  0.39931507036E+02  0.00000000000E+00 0. -1.
          1    1    1    2  501    0  0.21394291195E+02 -0.12955381449E+03  0.64772944715E+03  0.66090494267E+03  0.00000000000E+00 0. -1.
<scales pt_clust_5="13000.00000" pt_clust_6="13000.00000" pt_clust_7="13000.00000" pt_clust_8="13000.00000" pt_clust_9="90.27857"></scales>
<clustering>
<clus scale="   85.520">  5  6 -1 -1</clus>
<clus scale="   92.610">  7  8 -1 -1</clus>
<clus scale="  100.099">  1  5  2 -1</clus>
<clus scale="   90.279">  2  9  1 -1</clus>
<clus scale="   90.279">  2  5  1 -1</clus>
</clustering>
</event>
<event>
 9    2  0.6175212E-005  0.1555074E+03  0.7546771E-02  0.1210182E+00
         21   -1    0    0  501  502  0.00000000000E+00  0.00000000000E+00  0.70974779975E+02  0.70974779975E+02  0.00000000000E+00 0.  1.
         -1   -1    0    0    0  501 -0.00000000000E+00 -0.00000000000E+00 -0.60658275268E+03  0.60658275268E+03  0.00000000000E+00 0.  1.
         23    2    1    2    0    0  0.11594889551E+01 -0.58499297666E+02 -0.93796073111E+02  0.14397894068E+03  0.92242722127E+02 0.  0.
         24    2    1    2    0    0 -0.12895069364E+03  0.23195691780E+01 -0.28866970224E+03  0.32636062340E+03  0.80915991779E+02 0.  0.
        -11    1    4    4    0    0 -0.12155280344E+03  0.24220677599E+02 -0.26832068427E+03  0.29556338551E+03  0.00000000000E+00 0.  1.
         12    1    4    4    0    0 -0.73978902078E+01 -0.21901108421E+02 -0.20349017964E+02  0.30797237890E+02  0.00000000000E+00 0. -1.
        -13    1    3    3    0    0  0.18007715660E+02 -0.79838182890E+02 -0.74113337470E+02  0.11041376754E+03  0.00000000000E+00 0.  1.
         13    1    3    3    0    0 -0.16848226705E+02  0.21338885224E+02 -0.19682735641E+02  0.33565173141E+02  0.00000000000E+00 0. -1.
         -2    1    1    2    0  502  0.12779120469E+03  0.56179728488E+02 -0.15314219735E+03  0.20721796857E+03  0.00000000000E+00 0.  1.
<scales pt_clust_5="13000.00000" pt_clust_6="13000.00000" pt_clust_7="13000.00000" pt_clust_8="13000.00000" pt_clust_9="132.79737"></scales>
<clustering>
<clus scale="   80.916">  5  6 -1 -1</clus>
<clus scale="   92.243">  7  8 -1 -1</clus>
<clus scale="  109.235">  2  7  1 -1</clus>
<clus scale="  132.797">  1  9  2 -1</clus>
<clus scale="  132.797">  1  5  2 -1</clus>
</clustering>
</event>
<event>
 9    2  0.6175212E-005  0.9011349E+02  0.7546771E-02  0.1308647E+00
         -3   -1    0    0    0  501 -0.00000000000E+00  0.00000000000E+00  0.38153699643E+03  0.38153699643E+03  0.00000000000E+00 0.  1.
         21   -1    0    0  501  502  0.00000000000E+00 -0.00000000000E+00 -0.46803511050E+02  0.46803511050E+02  0.00000000000E+00 0.  1.
         23    2    1    2    0    0  0.35772167489E+02  0.20474211536E+02  0.16766055466E+03  0.19461685178E+03  0.89815455805E+02 0.  0.
         24    2    1    2    0    0  0.27879071161E+02  0.64792846110E+01  0.12949607962E+03  0.15504716064E+03  0.80319136254E+02 0.  0.
        -11    1    4    4    0    0  0.53997660060E+02 -0.81026386089E+01  0.93156899541E+02  0.10797966464E+03  0.00000000000E+00 0.  1.
         12    1    4    4    0    0 -0.26118588899E+02  0.14581923220E+02  0.36339180081E+02  0.47067496001E+02  0.00000000000E+00 0. -1.
        -11    1    3    3    0    0  0.20513726966E+02 -0.27379751883E+02  0.22337675717E+02  0.40858726897E+02  0.00000000000E+00 0.  1.
         11    1    3    3    0    0  0.15258440523E+02  0.47853963419E+02  0.14532287895E+03  0.15375812488E+03  0.00000000000E+00 0. -1.
         -4    1    1    2    0  502 -0.63651238650E+02 -0.26953496147E+02  0.37576851095E+02  0.78676495057E+02  0.00000000000E+00 0.  1.
<scales pt_clust_5="13000.00000" pt_clust_6="13000.00000" pt_clust_7="13000.00000" pt_clust_8="13000.00000" pt_clust_9="69.12287"></scales>
<clustering>
<clus scale="   69.123">  2  9  1 -1</clus>
<clus scale="   80.319">  5  6 -1 -1</clus>
<clus scale="   80.652">  2  5  1 -1</clus>
<clus scale="   89.815">  7  8 -1 -1</clus>
<clus scale="   69.123">  2  5  1 -1</clus>
</clustering>
</event>
<event>
 9    2  0.6175212E-005  0.1584434E+03  0.7546771E-02  0.1212990E+00
         21   -1    0    0  501  502  0.00000000000E+00  0.00000000000E+00  0.19119723302E+03  0.19119723302E+03  0.00000000000E+00 0. -1.
          2   -1    0    0  502    0 -0.00000000000E+00 -0.00000000000E+00 -0.46695661357E+03  0.46695661357E+03  0.00000000000E+00 0. -1.
         24    2    1    2    0    0  0.10059825306E+02 -0.50754155991E+02 -0.13181109528E+03  0.16382127488E+03  0.82377550504E+02 0.  0.
         23    2    1    2    0    0  0.12604009298E+03  0.18782427380E+02  0.11810647940E+03  0.19731728781E+03  0.93520516328E+02 0.  0.
        -11    1    3    3    0    0  0.15654251420E+02  0.17595872296E+02 -0.13705343890E+02  0.27248977238E+02  0.00000000000E+00 0.  1.
         12    1    3    3    0    0 -0.55944261144E+01 -0.68350028286E+02 -0.11810575139E+03  0.13657229764E+03  0.00000000000E+00 0. -1.
        -11    1    4    4    0    0  0.96328934533E+02 -0.77231102878E+00  0.27807068203E+02  0.10026511424E+03  0.00000000000E+00 0.  1.
         11    1    4    4    0    0  0.29711158447E+02  0.19554738408E+02  0.90299411196E+02  0.97052173560E+02  0.00000000000E+00 0. -1.
          1    1    1    2  501    0 -0.13609991829E+03  0.31971728611E+02 -0.26205476467E+03  0.29701528390E+03  0.00000000000E+00 0. -1.
<scales pt_clust_5="13000.00000" pt_clust_6="13000.00000" pt_clust_7="13000.00000" pt_clust_8="13000.00000" pt_clust_9="127.89929"></scales>
<clustering>
<clus scale="   82.378">  5  6 -1 -1</clus>
<clus scale="   93.521">  7  8 -1 -1</clus>
<clus scale="   97.279">  2  5  1 -1</clus>
<clus scale="  127.899">  1  9  2 -1</clus>
<clus scale="  127.899">  1  5  2 -1</clus>
</clustering>
</event>
<event>
 9    2  0.6175212E-005  0.1279650E+03  0.7546771E-02  0.1233131E+00
         -1   -1    0    0    0  501 -0.00000000000E+00  0.00000000000E+00  0.61415231060E+03  0.61415231060E+03  0.00000000000E+00 0.  1.
         21   -1    0    0  501  502  0.00000000000E+00 -0.00000000000E+00 -0.40346368000E+02  0.40346368000E+02  0.00000000000E+00 0. -1.
         24    2    1    2    0    0  0.55310903147E+02  0.79317985593E+02  0.44519217353E+03  0.46280898893E+03  0.81519629623E+02 0.  0.
         23    2    1    2    0    0 -0.42967420392E+02 -0.55374411223E+02  0.10766621115E+03  0.15756555594E+03  0.91227006759E+02 0.  0.
        -11    1    3    3    0    0  0.63773238249E+02  0.50884100986E+02  0.40334135880E+03  0.41150998696E+03  0.00000000000E+00 0.  1.
         12    1    3    3    0    0 -0.84623351020E+01  0.28433884607E+02  0.41850814734E+02  0.51299001970E+02  0.00000000000E+00 0. -1.
        -11    1    4    4    0    0 -0.28320390600E+02  0.58697312549E+01  0.86380812081E+02  0.91094143415E+02  0.00000000000E+00 0.  1.
         11    1    4    4    0    0 -0.14647029792E+02 -0.61244142478E+02  0.21285399067E+02  0.66471412525E+02  0.00000000000E+00 0. -1.
         -2    1    1    2    0  502 -0.12343482755E+02 -0.23943574370E+02  0.20947557922E+02  0.34124133733E+02  0.00000000000E+00 0.  1.
<scales pt_clust_5="13000.00000" pt_clust_6="13000.00000" pt_clust_7="13000.00000" pt_clust_8="13000.00000" pt_clust_9="26.93801"></scales>
<clustering>
<clus scale="   26.938">  2  9  1 -1</clus>
<clus scale="   81.520">  5  6 -1 -1</clus>
<clus scale="   91.227">  7  8 -1 -1</clus>
<clus scale="  121.236">  1  5  2 -1</clus>
<clus scale="   26.938">  2  5  1 -1</clus>
</clustering>
</event>
<event>
 9    2  0.6175212E-005  0.9433565E+02  0.7546771E-02  0.1297698E+00
          4   -1    0    0  502    0 -0.00000000000E+00  0.00000000000E+00  0.24521047963E+03  0.24521047963E+03  0.00000000000E+00 0. -1.
         21   -1    0    0  501  502  0.00000000000E+00 -0.00000000000E+00 -0.51278970478E+03  0.51278970478E+03  0.00000000000E+00 0. -1.
         24    2    1    2    0    0 -0.28432426473E+02  0.27328038658E+01  0.14286573218E+03  0.16669167075E+03  0.80991509267E+02 0.  0.
         23    2    1    2    0    0  0.12833786095E+02  0.69649510455E+02  0.50066228992E+02  0.12488266774E+03  0.89851505522E+02 0.  0.
        -13    1    3    3    0    0 -0.27846400191E+02  0.10628176672E+02  0.70275601919E+01  0.30622977406E+02  0.00000000000E+00 0.  1.
         14    1    3    3    0    0 -0.58602628221E+00 -0.78953728066E+01  0.13583817199E+03  0.13606869334E+03  0.00000000000E+00 0. -1.
        -11    1    4    4    0    0 -0.31769909739E+02  0.58538404586E+02  0.18515065275E+02  0.69129441040E+02  0.00000000000E+00 0.  1.
         11    1    4    4    0    0  0.44603695834E+02  0.11111105868E+02  0.31551163717E+02  0.55753226701E+02  0.00000000000E+00 0. -1.
          3    1    1    2  501    0  0.15598640379E+02 -0.72382314320E+02 -0.46051118633E+03  0.46642584592E+03  0.00000000000E+00 0. -1.
<scales pt_clust_5="13000.00000" pt_clust_6="13000.00000" pt_clust_7="13000.00000" pt_clust_8="13000.00000" pt_clust_9="74.04402"></scales>
<clustering>
<clus scale="   74.044">  2  9  1 -1</clus>
<clus scale="   80.992">  5  6 -1 -1</clus>
<clus scale="   85.939">  1  5  2 -1</clus>
<clus scale="   89.852">  7  8 -1 -1</clus>
<clus scale="   74.044">  2  5  1 -1</clus>
</clustering>
</event>
<event>
 9    2  0.6175212E-005  0.1101578E+03  0.7546771E-02  0.1262728E+00
          2   -1    0    0  502    0 -0.00000000000E+00  0.00000000000E+00  0.18487600547E+03  0.18487600547E+03  0.00000000000E+00 0. -1.
         21   -1    0    0  501  502  0.00000000000E+00 -0.00000000000E+00 -0.14393526799E+03  0.14393526799E+03  0.00000000000E+00 0. -1.
         24    2    1    2    0    0  0.67800167475E+01 -0.65692641939E+02  0.62602755905E+02  0.12345724762E+03  0.83433177526E+02 0.  0.
         23    2    1    2    0    0 -0.50247537147E+02  0.48720060938E+02  0.46276104179E+02  0.12293386848E+03  0.89848755552E+02 0.  0.
        -13    1    3    3    0    0  0.18504344669E+02 -0.70750767659E+02  0.75637850487E+02  0.10521010561E+03  0.00000000000E+00 0.  1.
         14    1    3    3    0    0 -0.11724327921E+02  0.50581257193E+01 -0.13035094582E+02  0.18247142016E+02  0.00000000000E+00 0. -1.
        -13    1    4    4    0    0 -0.10019553881E+02  0.56923543158E+02  0.56284080775E+02  0.80675764479E+02  0.00000000000E+00 0.  1.
         13    1    4    4    0    0 -0.40227983266E+02 -0.82034822197E+01 -0.10007976595E+02  0.42258104001E+02  0.00000000000E+00 0. -1.
          1    1    1    2  501    0  0.43467520400E+02  0.16972581001E+02 -0.67938122599E+02  0.82420157351E+02  0.00000000000E+00 0. -1.
<scales pt_clust_5="13000.00000" pt_clust_6="13000.00000" pt_clust_7="13000.00000" pt_clust_8="13000.00000" pt_clust_9="46.66362"></scales>
<clustering>
<clus scale="   46.664">  2  9  1 -1</clus>
<clus scale="   83.433">  5  6 -1 -1</clus>
<clus scale="   89.849">  7  8 -1 -1</clus>
<clus scale="  104.991">  1  5  2 -1</clus>
<clus scale="   46.664">  2  5  1 -1</clus>
</clustering>
</event>
<event>
 9    2  0.6175212E-005  0.8530871E+02  0.7546771E-02  0.1315782E+00
          2   -1    0    0  502    0 -0.00000000000E+00  0.00000000000E+00  0.30876658765E+03  0.30876658765E+03  0.00000000000E+00 0. -1.
         21   -1    0    0  501  502  0.00000000000E+00 -0.00000000000E+00 -0.58865778412E+02  0.58865778412E+02  0.00000000000E+00 0. -1.
         24    2    1    2    0    0  0.27284447108E+02  0.30584844779E+02  0.16019988786E+03  0.18241491430E+03  0.77015083606E+02 0.  0.
         23    2    1    2    0    0 -0.25994172182E+02  0.26152184677E+02  0.10432506540E+02  0.87727775843E+02  0.78915725371E+02 0.  0.
        -13    1    3    3    0    0  0.48177357885E+02  0.66310261801E+01  0.12905711171E+03  0.13791579461E+03  0.00000000000E+00 0.  1.
         14    1    3    3    0    0 -0.20892910777E+02  0.23953818598E+02  0.31142776156E+02  0.44499119687E+02  0.00000000000E+00 0. -1.
        -13    1    4    4    0    0 -0.12253842254E+02 -0.25151289978E+02 -0.11522217282E+02  0.30257321901E+02  0.00000000000E+00 0.  1.
         13    1    4    4    0    0 -0.13740329928E+02  0.51303474655E+02  0.21954723821E+02  0.57470453942E+02  0.00000000000E+00 0. -1.
          1    1    1    2  501    0 -0.12902749256E+01 -0.56737029456E+02  0.79268414838E+02  0.97489675924E+02  0.00000000000E+00 0. -1.
<scales pt_clust_5="13000.00000" pt_clust_6="13000.00000" pt_clust_7="13000.00000" pt_clust_8="13000.00000" pt_clust_9="56.75173"></scales>
<clustering>
<clus scale="   56.752">  2  9  1 -1</clus>
<clus scale="   77.015">  5  6 -1 -1</clus>
<clus scale="   78.916">  7  8 -1 -1</clus>
<clus scale="   83.554">  1  5  2 -1</clus>
<clus scale="   56.752">  2  5  1 -1</clus>
</clustering>
</event>
<event>
 9    2  0.6175212E-005  0.1067866E+03  0.7546771E-02  0.1271572E+00
          2   -1    0    0  502    0 -0.00000000000E+00  0.00000000000E+00  0.34191846946E+03  0.34191846946E+03  0.00000000000E+00 0. -1.
         21   -1    0    0  501  502  0.00000000000E+00 -0.00000000000E+00 -0.12035004270E+03  0.12035004270E+03  0.00000000000E+00 0. -1.
         24    2    1    2    0    0 -0.12377172417E+02 -0.58314838502E+02  0.26380741292E+03  0.28211476888E+03  0.80253205054E+02 0.  0.
         23    2    1    2    0    0 -0.41423002954E+02  0.17805505099E+02 -0.47196682480E+02  0.11262564753E+03  0.91782942092E+02 0.  0.
        -13    1    3    3    0    0 -0.15106361299E+02 -0.13743038369E+02  0.72054627417E+01  0.21656221938E+02  0.00000000000E+00 0.  1.
         14    1    3    3    0    0  0.27291888829E+01 -0.44571800133E+02  0.25660195018E+03  0.26045854694E+03  0.00000000000E+00 0. -1.
        -13    1    4    4    0    0 -0.28152978445E+01 -0.34344821110E+02 -0.29518562366E+02  0.45374421905E+02  0.00000000000E+00 0. -1.
         13    1    4    4    0    0 -0.38607705110E+02  0.52150326209E+02 -0.17678120114E+02  0.67251225627E+02  0.00000000000E+00 0.  1.
          1    1    1    2  501    0  0.53800175371E+02  0.40509333403E+02  0.49576963242E+01  0.67528095749E+02  0.00000000000E+00 0. -1.
<scales pt_clust_5="13000.00000" pt_clust_6="13000.00000" pt_clust_7="13000.00000" pt_clust_8="13000.00000" pt_clust_9="67.34586"></scales>
<clustering>
<clus scale="   67.346">  2  9  1 -1</clus>
<clus scale="   80.253">  5  6 -1 -1</clus>
<clus scale="   91.783">  7  8 -1 -1</clus>
<clus scale="   97.056">  1  5  2 -1</clus>
<clus scale="   67.346">  2  5  1 -1</clus>
</clustering>
</event>
<event>
 9    2  0.6175212E-005  0.2077295E+03  0.7546771E-02  0.1159199E+00
         21   -1    0    0  501  502  0.00000000000E+00  0.00000000000E+00  0.41981785035E+03  0.41981785035E+03  0.00000000000E+00 0. -1.
          2   -1    0    0  502    0 -0.00000000000E+00 -0.00000000000E+00 -0.21182325747E+03  0.21182325747E+03  0.00000000000E+00 0. -1.
         24    2    1    2    0    0  0.11511900554E+03 -0.27287728854E+02  0.15631513011E+03  0.21179236229E+03  0.80153473039E+02 0.  0.
         23    2    1    2    0    0  0.10275825332E+03 -0.55066177262E+02 -0.62321923392E+02  0.16052465904E+03  0.91063722302E+02 0.  0.
        -13    1    3    3    0    0  0.11057534998E+03 -0.77045560094E+01  0.90874095621E+02  0.14333307176E+03  0.00000000000E+00 0.  1.
         14    1    3    3    0    0  0.45436555661E+01 -0.19583172845E+02  0.65441034493E+02  0.68459290531E+02  0.00000000000E+00 0. -1.
        -11    1    4    4    0    0  0.25233355631E+02 -0.64123484028E+02 -0.20084174786E+02  0.71776859203E+02  0.00000000000E+00 0.  1.
         11    1    4    4    0    0  0.77524897693E+02  0.90573067659E+01 -0.42237748606E+02  0.88747799834E+02  0.00000000000E+00 0. -1.
          1    1    1    2  501    0 -0.21787725887E+03  0.82353906116E+02  0.11400138617E+03  0.25932408649E+03  0.00000000000E+00 0. -1.
<scales pt_clust_5="13000.00000" pt_clust_6="13000.00000" pt_clust_7="13000.00000" pt_clust_8="13000.00000" pt_clust_9="186.70545"></scales>
<clustering>
<clus scale="   80.153">  5  6 -1 -1</clus>
<clus scale="   91.064">  7  8 -1 -1</clus>
<clus scale="  142.904">  2  5  1 -1</clus>
<clus scale="  186.705">  1  9  2 -1</clus>
<clus scale="  186.705">  1  5  2 -1</clus>
</clustering>
</event>
<event>
 9    2  0.6175212E-005  0.1350684E+03  0.7546771E-02  0.1222659E+00
         21   -1    0    0  501  502  0.00000000000E+00  0.00000000000E+00  0.24652525702E+02  0.24652525702E+02  0.00000000000E+00 0. -1.
          2   -1    0    0  502    0 -0.00000000000E+00 -0.00000000000E+00 -0.11236913552E+04  0.11236913552E+04  0.00000000000E+00 0. -1.
         24    2    1    2    0    0 -0.42562329297E+02  0.11145102588E+03 -0.63880304901E+03  0.65475690322E+03  0.80027394312E+02 0.  0.
         23    2    1    2    0    0  0.39666266482E+02 -0.69047939352E+02 -0.41182515625E+03  0.42916650373E+03  0.90790406858E+02 0.  0.
        -13    1    3    3    0    0 -0.30052333604E+02  0.16222085490E+02 -0.69826064400E+02  0.77730161985E+02  0.00000000000E+00 0.  1.
         14    1    3    3    0    0 -0.12509995693E+02  0.95228940393E+02 -0.56897698461E+03  0.57702674123E+03  0.00000000000E+00 0. -1.
        -13    1    4    4    0    0 -0.28431775121E+02 -0.10296520898E+02 -0.12296350083E+03  0.12662703786E+03  0.00000000000E+00 0.  1.
         13    1    4    4    0    0  0.68098041602E+02 -0.58751418454E+02 -0.28886165542E+03  0.30253946587E+03  0.00000000000E+00 0. -1.
          1    1    1    2  501    0  0.28960628155E+01 -0.42403086531E+02 -0.48410624286E+02  0.64420474004E+02  0.00000000000E+00 0. -1.
<scales pt_clust_5="13000.00000" pt_clust_6="13000.00000" pt_clust_7="13000.00000" pt_clust_8="13000.00000" pt_clust_9="42.50187"></scales>
<clustering>
<clus scale="   42.502">  1  9  2 -1</clus>
<clus scale="   80.027">  5  6 -1 -1</clus>
<clus scale="   90.790">  7  8 -1 -1</clus>
<clus scale="  128.082">  2  5  1 -1</clus>
<clus scale="   42.502">  1  5  2 -1</clus>
</clustering>
</event>
<event>
 9    2  0.6175212E-005  0.2041132E+03  0.7546771E-02  0.1147260E+00
         21   -1    0    0  501  502  0.00000000000E+00  0.00000000000E+00  0.63063917312E+03  0.63063917312E+03  0.00000000000E+00 0.  1.
          2   -1    0    0  502    0 -0.00000000000E+00 -0.00000000000E+00 -0.23911561349E+03  0.23911561349E+03  0.00000000000E+00 0. -1.
         24    2    1    2    0    0 -0.72567099659E+02 -0.17367651036E+03 -0.76586627138E+02  0.21585316604E+03  0.72784363900E+02 0.  0.
         23    2    1    2    0    0  0.21831198362E+03  0.82280363322E+02  0.39612457327E+03  0.46741635186E+03  0.84458203003E+02 0.  0.
        -13    1    3    3    0    0 -0.96151043212E+01 -0.34118362203E+02  0.13828277280E+02  0.38049101475E+02  0.00000000000E+00 0.  1.
         14    1    3    3    0    0 -0.62951995338E+02 -0.13955814816E+03 -0.90414904418E+02  0.17780406456E+03  0.00000000000E+00 0. -1.
        -13    1    4    4    0    0  0.12276762832E+03  0.52638466809E+02  0.14525316616E+03  0.19733519968E+03  0.00000000000E+00 0.  1.
         13    1    4    4    0    0  0.95544355302E+02  0.29641896514E+02  0.25087140711E+03  0.27008115218E+03  0.00000000000E+00 0. -1.
          1    1    1    2  501    0 -0.14574488397E+03  0.91396147037E+02  0.71985613493E+02  0.18648526871E+03  0.00000000000E+00 0. -1.
<scales pt_clust_5="13000.00000" pt_clust_6="13000.00000" pt_clust_7="13000.00000" pt_clust_8="13000.00000" pt_clust_9="172.03156"></scales>
<clustering>
<clus scale="   72.784">  5  6 -1 -1</clus>
<clus scale="   84.458">  7  8 -1 -1</clus>
<clus scale="  172.032">  1  9  2 -1</clus>
<clus scale="  199.566">  2  5  1 -1</clus>
<clus scale="  172.032">  1  5  2 -1</clus>
</clustering>
</event>
<event>
 9    2  0.6175212E-005  0.1022861E+03  0.7546771E-02  0.1280620E+00
         21   -1    0    0  501  502  0.00000000000E+00  0.00000000000E+00  0.66159549120E+03  0.66159549120E+03  0.00000000000E+00 0. -1.
          4   -1    0    0  502    0 -0.00000000000E+00 -0.00000000000E+00 -0.46788109235E+02  0.46788109235E+02  0.00000000000E+00 0. -1.
         24    2    1    2    0    0 -0.26559907474E+02 -0.26283380810E+02  0.42908792285E+02  0.98843392940E+02  0.80824545039E+02 0.  0.
         23    2    1    2    0    0  0.22839915913E+02  0.99774728340E+02  0.37550550561E+03  0.39981405278E+03  0.91488982320E+02 0.  0.
        -13    1    3    3    0    0 -0.46618138973E+02 -0.18249527511E+01  0.47848493099E+02  0.66828583897E+02  0.00000000000E+00 0.  1.
         14    1    3    3    0    0  0.20058231499E+02 -0.24458428058E+02 -0.49397008138E+01  0.32014809043E+02  0.00000000000E+00 0. -1.
        -11    1    4    4    0    0 -0.93101357980E+01  0.20303008945E+02  0.10147259844E+02  0.24532787920E+02  0.00000000000E+00 0.  1.
         11    1    4    4    0    0  0.32150051711E+02  0.79471719395E+02  0.36535824576E+03  0.37528126486E+03  0.00000000000E+00 0. -1.
          3    1    1    2  501    0  0.37199915612E+01 -0.73491347530E+02  0.19639308408E+03  0.20972615472E+03  0.00000000000E+00 0. -1.
<scales pt_clust_5="13000.00000" pt_clust_6="13000.00000" pt_clust_7="13000.00000" pt_clust_8="13000.00000" pt_clust_9="73.58544"></scales>
<clustering>
<clus scale="   73.585">  1  9  2 -1</clus>
<clus scale="   80.825">  5  6 -1 -1</clus>
<clus scale="   91.489">  7  8 -1 -1</clus>
<clus scale="   92.870">  2  5  1 -1</clus>
<clus scale="   73.585">  1  5  2 -1</clus>
</clustering>
</event>
<event>
 9    2  0.6175212E-005  0.9535479E+02  0.7546771E-02  0.1299072E+00
          2   -1    0    0  502    0 -0.00000000000E+00  0.00000000000E+00  0.89236692216E+03  0.89236692216E+03  0.00000000000E+00 0. -1.
         21   -1    0    0  501  502  0.00000000000E+00 -0.00000000000E+00 -0.24180229745E+02  0.24180229745E+02  0.00000000000E+00 0.  1.
         24    2    1    2    0    0  0.30786082201E+01 -0.11360296575E+02  0.71739093842E+03  0.72197807699E+03  0.80399321825E+02 0.  0.
         23    2    1    2    0    0  0.21700776110E+02  0.69489533002E+01  0.12548780267E+03  0.15887635525E+03  0.94738038840E+02 0.  0.
        -11    1    3    3    0    0  0.63775123479E+01  0.30202356631E+02  0.15500427313E+03  0.15804802972E+03  0.00000000000E+00 0.  1.
         12    1    3    3    0    0 -0.32989041279E+01 -0.41562653205E+02  0.56238666530E+03  0.56393004727E+03  0.00000000000E+00 0. -1.
        -13    1    4    4    0    0  0.51279470390E+02  0.12019244767E+02  0.11600813161E+03  0.12740460324E+03  0.00000000000E+00 0. -1.
         13    1    4    4    0    0 -0.29578694279E+02 -0.50702914668E+01  0.94796710550E+01  0.31471752003E+02  0.00000000000E+00 0.  1.
          1    1    1    2  501    0 -0.24779384330E+02  0.44113432746E+01  0.25307951330E+02  0.35692719675E+02  0.00000000000E+00 0. -1.
<scales pt_clust_5="13000.00000" pt_clust_6="13000.00000" pt_clust_7="13000.00000" pt_clust_8="13000.00000" pt_clust_9="25.16899"></scales>
<clustering>
<clus scale="   25.169">  2  9  1 -1</clus>
<clus scale="   80.399">  5  6 -1 -1</clus>
<clus scale="   81.125">  1  5  2 -1</clus>
<clus scale="   94.738">  7  8 -1 -1</clus>
<clus scale="   25.169">  2  5  1 -1</clus>
</clustering>
</event>
<event>
 9    2  0.6175212E-005  0.1644930E+03  0.7546771E-02  0.1185371E+00
         21   -1    0    0  501  502  0.00000000000E+00  0.00000000000E+00  0.18481731849E+03  0.18481731849E+03  0.00000000000E+00 0.  1.
          2   -1    0    0  502    0 -0.00000000000E+00 -0.00000000000E+00 -0.28127690045E+03  0.28127690045E+03  0.00000000000E+00 0. -1.
         23    2    1    2    0    0  0.13949357453E+03  0.19983319218E+01 -0.18951729322E+03  0.25156705942E+03  0.88919796955E+02 0.  0.
         24    2    1    2    0    0 -0.13230927308E+03 -0.31613756012E+02  0.96526665368E+02  0.18385598129E+03  0.77333378403E+02 0.  0.
        -11    1    4    4    0    0 -0.10016094598E+03 -0.47112981232E+02  0.98420425557E+02  0.14811626604E+03  0.00000000000E+00 0.  1.
         12    1    4    4    0    0 -0.32148327106E+02  0.15499225220E+02 -0.18937601890E+01  0.35739715245E+02  0.00000000000E+00 0. -1.
        -11    1    3    3    0    0  0.12097274170E+03  0.35189787143E+02 -0.13068682046E+03  0.18152622509E+03  0.00000000000E+00 0. -1.
         11    1    3    3    0    0  0.18520832829E+02 -0.33191455221E+02 -0.58830472766E+02  0.70040834334E+02  0.00000000000E+00 0.  1.
          1    1    1    2  501    0 -0.71843014483E+01  0.29615424090E+02 -0.34689541104E+01  0.30671178229E+02  0.00000000000E+00 0. -1.
<scales pt_clust_5="13000.00000" pt_clust_6="13000.00000" pt_clust_7="13000.00000" pt_clust_8="13000.00000" pt_clust_9="30.47437"></scales>
<clustering>
<clus scale="   30.474">  1  9  2 -1</clus>
<clus scale="   77.333">  5  6 -1 -1</clus>
<clus scale="   88.920">  7  8 -1 -1</clus>
<clus scale="  158.530">  1  5  2 -1</clus>
<clus scale="   30.474">  1  5  2 -1</clus>
</clustering>
</event>
<event>
 9    2  0.6175212E-005  0.3490411E+03  0.7546771E-02  0.1063274E+00
         21   -1    0    0  501  502  0.00000000000E+00  0.00000000000E+00  0.45215962336E+03  0.45215962336E+03  0.00000000000E+00 0.  1.
         -1   -1    0    0    0  501 -0.00000000000E+00 -0.00000000000E+00 -0.61228563774E+03  0.61228563774E+03  0.00000000000E+00 0.  1.
         23    2    1    2    0    0  0.34158909228E+03  0.60090698627E+02 -0.33791068080E+03  0.49274116076E+03  0.91193329147E+02 0.  0.
         24    2    1    2    0    0 -0.25666115468E+03 -0.22214454219E+03  0.17107527091E+03  0.38862155396E+03  0.80850590216E+02 0.  0.
        -13    1    4    4    0    0 -0.23896089739E+03 -0.21519054478E+03  0.13687831870E+03  0.34949242507E+03  0.00000000000E+00 0.  1.
         14    1    4    4    0    0 -0.17700257286E+02 -0.69539974117E+01  0.34196952205E+02  0.39129128895E+02  0.00000000000E+00 0. -1.
        -13    1    3    3    0    0  0.60900679010E+02  0.17820084784E+02 -0.11683124419E+03  0.13295107275E+03  0.00000000000E+00 0. -1.
         13    1    3    3    0    0  0.28068841327E+03  0.42270613843E+02 -0.22107943660E+03  0.35979008801E+03  0.00000000000E+00 0.  1.
         -2    1    1    2    0  502 -0.84927937604E+02  0.16205384357E+03  0.67093955024E+01  0.18308254638E+03  0.00000000000E+00 0.  1.
<scales pt_clust_5="13000.00000" pt_clust_6="13000.00000" pt_clust_7="13000.00000" pt_clust_8="13000.00000" pt_clust_9="182.95957"></scales>
<clustering>
<clus scale="   80.851">  5  6 -1 -1</clus>
<clus scale="   91.193">  7  8 -1 -1</clus>
<clus scale="  182.960">  1  9  2 -1</clus>
<clus scale="  346.483">  1  5  2 -1</clus>
<clus scale="  182.960">  1  5  2 -1</clus>
</clustering>
</event>
<event>
 9    2  0.6175212E-005  0.1063158E+03  0.7546771E-02  0.1269762E+00
          2   -1    0    0  502    0 -0.00000000000E+00  0.00000000000E+00  0.41295816241E+03  0.41295816241E+03  0.00000000000E+00 0. -1.
         21   -1    0    0  501  502  0.00000000000E+00 -0.00000000000E+00 -0.51101785262E+02  0.51101785262E+02  0.00000000000E+00 0.  1.
         23    2    1    2    0    0  0.69371321654E+02 -0.21804472624E+02  0.27711829170E+03  0.29946933149E+03  0.87175212140E+02 0.  0.
         24    2    1    2    0    0 -0.39678190045E+02  0.11195815564E+02  0.94552025013E+02  0.13156730504E+03  0.81671079765E+02 0.  0.
        -13    1    4    4    0    0  0.19834179896E+02  0.17494047226E+02  0.10652992936E+02  0.28511798241E+02  0.00000000000E+00 0.  1.
         14    1    4    4    0    0 -0.59512369941E+02 -0.62982316612E+01  0.83899032077E+02  0.10305550680E+03  0.00000000000E+00 0. -1.
        -11    1    3    3    0    0  0.89777537976E+02 -0.16394348312E+02  0.24002206034E+03  0.25678662432E+03  0.00000000000E+00 0. -1.
         11    1    3    3    0    0 -0.20406216321E+02 -0.54101243119E+01  0.37096231359E+02  0.42682707161E+02  0.00000000000E+00 0.  1.
          1    1    1    2  501    0 -0.29693131609E+02  0.10608657060E+02 -0.98139395633E+01  0.33023311147E+02  0.00000000000E+00 0. -1.
<scales pt_clust_5="13000.00000" pt_clust_6="13000.00000" pt_clust_7="13000.00000" pt_clust_8="13000.00000" pt_clust_9="31.53134"></scales>
<clustering>
<clus scale="   31.531">  2  9  1 -1</clus>
<clus scale="   81.671">  5  6 -1 -1</clus>
<clus scale="   87.175">  7  8 -1 -1</clus>
<clus scale="  101.851">  2  5  1 -1</clus>
<clus scale="   31.531">  2  5  1 -1</clus>
</clustering>
</event>
<event>
 9    2  0.6175212E-005  0.9920786E+02  0.7546771E-02  0.1287757E+00
          2   -1    0    0  502    0 -0.00000000000E+00  0.00000000000E+00  0.11051021996E+04  0.11051021996E+04  0.00000000000E+00 0. -1.
         21   -1    0    0  501  502  0.00000000000E+00 -0.00000000000E+00 -0.22892676190E+02  0.22892676190E+02  0.00000000000E+00 0.  1.
         24    2    1    2    0    0 -0.39373078447E+02 -0.11475405211E+01  0.82558359885E+03  0.83056298346E+03  0.81823191367E+02 0.  0.
         23    2    1    2    0    0  0.24209890712E+01  0.27556757882E+02  0.12486380746E+03  0.15806131017E+03  0.92882567066E+02 0.  0.
        -11    1    3    3    0    0  0.17100291705E+02  0.18957343739E+02  0.13576271721E+03  0.13814237671E+03  0.00000000000E+00 0.  1.
         12    1    3    3    0    0 -0.56473370152E+02 -0.20104884260E+02  0.68982088163E+03  0.69242060675E+03  0.00000000000E+00 0. -1.
        -11    1    4    4    0    0  0.27010822056E+02 -0.28430765531E+01 -0.61431750639E-01  0.27160106154E+02  0.00000000000E+00 0.  1.
         11    1    4    4    0    0 -0.24589832985E+02  0.30399834436E+02  0.12492523921E+03  0.13090120401E+03  0.00000000000E+00 0. -1.
          1    1    1    2  501    0  0.36952089376E+02 -0.26409217361E+02  0.13176211710E+03  0.13937058217E+03  0.00000000000E+00 0. -1.
<scales pt_clust_5="13000.00000" pt_clust_6="13000.00000" pt_clust_7="13000.00000" pt_clust_8="13000.00000" pt_clust_9="45.41920"></scales>
<clustering>
<clus scale="   45.419">  2  9  1 -1</clus>
<clus scale="   81.823">  5  6 -1 -1</clus>
<clus scale="   88.939">  1  5  2 -1</clus>
<clus scale="   92.883">  7  8 -1 -1</clus>
<clus scale="   45.419">  2  5  1 -1</clus>
</clustering>
</event>
<event>
 9    2  0.6175212E-005  0.9991493E+02  0.7546771E-02  0.1289510E+00
         21   -1    0    0  501  502  0.00000000000E+00  0.00000000000E+00  0.86952056767E+02  0.86952056767E+02  0.00000000000E+00 0. -1.
          2   -1    0    0  502    0 -0.00000000000E+00 -0.00000000000E+00 -0.34220260657E+03  0.34220260657E+03  0.00000000000E+00 0. -1.
         23    2    1    2    0    0 -0.42618834682E+02  0.36629770903E+02 -0.25011450583E+03  0.27201790721E+03  0.90985551776E+02 0.  0.
         24    2    1    2    0    0 -0.23899746347E+02 -0.24718837585E+02 -0.28020054190E+02  0.85790628848E+02  0.73434935516E+02 0.  0.
        -13    1    4    4    0    0  0.22448857743E+02 -0.37388569940E+01  0.72498026707E+01  0.23884930486E+02  0.00000000000E+00 0.  1.
         14    1    4    4    0    0 -0.46348604090E+02 -0.20979980591E+02 -0.35269856860E+02  0.61905698361E+02  0.00000000000E+00 0. -1.
        -11    1    3    3    0    0 -0.48333364013E+01 -0.26709293890E+02 -0.33059815093E+02  0.42774979776E+02  0.00000000000E+00 0.  1.
         11    1    3    3    0    0 -0.37785498280E+02  0.63339064793E+02 -0.21705469073E+03  0.22924292744E+03  0.00000000000E+00 0. -1.
          1    1    1    2  501    0  0.66518581029E+02 -0.11910933318E+02  0.22884010212E+02  0.71346127281E+02  0.00000000000E+00 0. -1.
<scales pt_clust_5="13000.00000" pt_clust_6="13000.00000" pt_clust_7="13000.00000" pt_clust_8="13000.00000" pt_clust_9="67.57656"></scales>
<clustering>
<clus scale="   67.577">  1  9  2 -1</clus>
<clus scale="   73.435">  5  6 -1 -1</clus>
<clus scale="   84.246">  1  5  2 -1</clus>
<clus scale="   90.986">  7  8 -1 -1</clus>
<clus scale="   67.577">  1  5  2 -1</clus>
</clustering>
</event>
<event>
 9    2  0.6175212E-005  0.1014199E+03  0.7546771E-02  0.1282252E+00
         -1   -1    0    0    0  501 -0.00000000000E+00  0.00000000000E+00  0.37002770275E+03  0.37002770275E+03  0.00000000000E+00 0.  1.
         21   -1    0    0  501  502  0.00000000000E+00 -0.00000000000E+00 -0.20953730129E+03  0.20953730129E+03  0.00000000000E+00 0.  1.
         24    2    1    2    0    0 -0.57915670496E+02 -0.16978022723E+01  0.29600527192E+03  0.31212318960E+03  0.80278621437E+02 0.  0.
         23    2    1    2    0    0 -0.26902032424E+02  0.29607794301E+02  0.70231863992E+01  0.99245179394E+02  0.90553518175E+02 0.  0.
        -13    1    3    3    0    0  0.58702045572E-01 -0.31855940630E+02  0.12670766762E+03  0.13065082255E+03  0.00000000000E+00 0.  1.
         14    1    3    3    0    0 -0.57974372542E+02  0.30158138358E+02  0.16929760431E+03  0.18147236706E+03  0.00000000000E+00 0. -1.
        -11    1    4    4    0    0  0.32295251055E+02  0.18907225872E+02  0.10858783897E+02  0.38966390884E+02  0.00000000000E+00 0. -1.
         11    1    4    4    0    0 -0.59197283479E+02  0.10700568429E+02 -0.38355974973E+01  0.60278788510E+02  0.00000000000E+00 0.  1.
         -2    1    1    2    0  502  0.84817702921E+02 -0.27909992029E+02 -0.14253805687E+03  0.16819663504E+03  0.00000000000E+00 0.  1.
<scales pt_clust_5="13000.00000" pt_clust_6="13000.00000" pt_clust_7="13000.00000" pt_clust_8="13000.00000" pt_clust_9="89.29172"></scales>
<clustering>
<clus scale="   80.279">  5  6 -1 -1</clus>
<clus scale="   89.292">  2  9  1 -1</clus>
<clus scale="   90.554">  7  8 -1 -1</clus>
<clus scale="   92.362">  1  5  2 -1</clus>
<clus scale="   89.292">  2  5  1 -1</clus>
</clustering>
</event>
<event>
 9    2  0.6175212E-005  0.1803817E+03  0.7546771E-02  0.1193096E+00
         21   -1    0    0  501  502  0.00000000000E+00  0.00000000000E+00  0.14092919562E+03  0.14092919562E+03  0.00000000000E+00 0. -1.
          2   -1    0    0  502    0 -0.00000000000E+00 -0.00000000000E+00 -0.43186400781E+03  0.43186400781E+03  0.00000000000E+00 0. -1.
         24    2    1    2    0    0  0.34198640760E+02 -0.20018364186E+02 -0.17722013291E+03  0.20414633617E+03  0.93265583848E+02 0.  0.
         23    2    1    2    0    0  0.70638730403E+01  0.16048983020E+03 -0.11597868957E+03  0.22222298413E+03  0.10062362715E+03 0.  0.
        -13    1    3    3    0    0  0.59624739787E+02 -0.30067906286E+01 -0.15567192285E+03  0.16672701625E+03  0.00000000000E+00 0.  1.
         14    1    3    3    0    0 -0.25426099027E+02 -0.17011573558E+02 -0.21548210058E+02  0.37419319921E+02  0.00000000000E+00 0. -1.
        -13    1    4    4    0    0  0.39701973178E+02  0.12534912546E+03 -0.50037349812E+02  0.14068541610E+03  0.00000000000E+00 0. -1.
         13    1    4    4    0    0 -0.32638100138E+02  0.35140704739E+02 -0.65941339761E+02  0.81537568026E+02  0.00000000000E+00 0.  1.
          1    1    1    2  501    0 -0.41262513800E+02 -0.14047146601E+03  0.22640102863E+01  0.14642388313E+03  0.00000000000E+00 0. -1.
<scales pt_clust_5="13000.00000" pt_clust_6="13000.00000" pt_clust_7="13000.00000" pt_clust_8="13000.00000" pt_clust_9="149.70781"></scales>
<clustering>
<clus scale="   93.266">  5  6 -1 -1</clus>
<clus scale="  100.624">  7  8 -1 -1</clus>
<clus scale="  101.335">  2  5  1 -1</clus>
<clus scale="  149.708">  1  9  2 -1</clus>
<clus scale="  149.708">  1  5  2 -1</clus>
</clustering>
</event>
<event>
 9    2  0.6175212E-005  0.1317030E+03  0.7546771E-02  0.1227018E+00
          2   -1    0    0  502    0 -0.00000000000E+00  0.00000000000E+00  0.10599499159E+04  0.10599499159E+04  0.00000000000E+00 0. -1.
         21   -1    0    0  501  502  0.00000000000E+00 -0.00000000000E+00 -0.10957735415E+03  0.10957735415E+03  0.00000000000E+00 0.  1.
         24    2    1    2    0    0  0.87957829525E+02  0.39701634171E+02  0.94829384889E+03  0.95658626878E+03  0.80518732307E+02 0.  0.
         23    2    1    2    0    0 -0.12279757357E+03  0.80358835712E+01 -0.11584629036E+02  0.15228322951E+03  0.88950316807E+02 0.  0.
        -11    1    3    3    0    0  0.41574110512E+02  0.20944164507E+02  0.15812573487E+03  0.16483571433E+03  0.00000000000E+00 0.  1.
         12    1    3    3    0    0  0.46383719013E+02  0.18757469663E+02  0.79016811402E+03  0.79175055445E+03  0.00000000000E+00 0. -1.
        -13    1    4    4    0    0 -0.38036827707E+02 -0.10243841539E+02  0.36009392108E+02  0.53370524369E+02  0.00000000000E+00 0. -1.
         13    1    4    4    0    0 -0.84760745859E+02  0.18279725110E+02 -0.47594021144E+02  0.98912705136E+02  0.00000000000E+00 0.  1.
          1    1    1    2  501    0  0.34839744042E+02 -0.47737517742E+02  0.13663341925E+02  0.60657771782E+02  0.00000000000E+00 0. -1.
<scales pt_clust_5="13000.00000" pt_clust_6="13000.00000" pt_clust_7="13000.00000" pt_clust_8="13000.00000" pt_clust_9="59.09889"></scales>
<clustering>
<clus scale="   59.099">  2  9  1 -1</clus>
<clus scale="   80.519">  5  6 -1 -1</clus>
<clus scale="   88.950">  7  8 -1 -1</clus>
<clus scale="  126.162">  1  5  2 -1</clus>
<clus scale="   59.099">  2  5  1 -1</clus>
</clustering>
</event>
<event>
 9    2  0.6175212E-005  0.8167330E+02  0.7546771E-02  0.1329782E+00
         21   -1    0    0  501  502  0.00000000000E+00  0.00000000000E+00  0.21711194872E+02  0.21711194872E+02  0.00000000000E+00 0. -1.
          2   -1    0    0  502    0 -0.00000000000E+00 -0.00000000000E+00 -0.37879456926E+03  0.37879456926E+03  0.00000000000E+00 0. -1.
         23    2    1    2    0    0  0.29067439364E+01  0.12386766354E+02 -0.16472076970E+03  0.18092470746E+03  0.73749146807E+02 0.  0.
         24    2    1    2    0    0  0.13185645777E+02 -0.39659424553E+00 -0.12814983115E+03  0.15230543317E+03  0.81243751802E+02 0.  0.
        -11    1    4    4    0    0  0.28735438967E+02  0.29233828589E+02 -0.10170349723E+03  0.10965374383E+03  0.00000000000E+00 0.  1.
         12    1    4    4    0    0 -0.15549793191E+02 -0.29630422834E+02 -0.26446333917E+02  0.42651689336E+02  0.00000000000E+00 0. -1.
        -13    1    3    3    0    0 -0.32936223229E+02  0.30330731111E+01 -0.46696821421E+02  0.57224011253E+02  0.00000000000E+00 0.  1.
         13    1    3    3    0    0  0.35842967165E+02  0.93536932432E+01 -0.11802394828E+03  0.12370069620E+03  0.00000000000E+00 0. -1.
          1    1    1    2  501    0 -0.16092389713E+02 -0.11990172109E+02 -0.64212773536E+02  0.67275623513E+02  0.00000000000E+00 0. -1.
<scales pt_clust_5="13000.00000" pt_clust_6="13000.00000" pt_clust_7="13000.00000" pt_clust_8="13000.00000" pt_clust_9="20.06812"></scales>
<clustering>
<clus scale="   20.068">  1  9  2 -1</clus>
<clus scale="   73.749">  7  8 -1 -1</clus>
<clus scale="   74.222">  2  7  1 -1</clus>
<clus scale="   81.244">  5  6 -1 -1</clus>
<clus scale="   20.068">  1  5  2 -1</clus>
</clustering>
</event>
<event>
 9    2  0.8788123E-005  0.6617371E+03  0.7546771E-02  0.9785001E-01
         21   -1    0    0  501  502  0.00000000000E+00  0.00000000000E+00  0.27067860991E+03  0.27067860991E+03  0.00000000000E+00 0. -1.
          2   -1    0    0  502    0 -0.00000000000E+00 -0.00000000000E+00 -0.16255721973E+04  0.16255721973E+04  0.00000000000E+00 0. -1.
         24    2    1    2    0    0  0.11929956082E+03 -0.22676022505E+03 -0.17384413982E+03  0.31978204126E+03  0.79913603905E+02 0.  0.
         23    2    1    2    0    0  0.34133452234E+03 -0.17126922351E+03 -0.25681101442E+03  0.46974934269E+03  0.94181445997E+02 0.  0.
        -13    1    3    3    0    0  0.91002286363E+01 -0.26257931704E+02  0.64040022210E+01  0.28518491949E+02  0.00000000000E+00 0.  1.
         14    1    3    3    0    0  0.11019933218E+03 -0.20050229335E+03 -0.18024814204E+03  0.29126354931E+03  0.00000000000E+00 0. -1.
        -13    1    4    4    0    0  0.33427501159E+03 -0.14682053834E+03 -0.22441423301E+03  0.42855314936E+03  0.00000000000E+00 0. -1.
         13    1    4    4    0    0  0.70595107423E+01 -0.24448685171E+02 -0.32396781416E+02  0.41196193327E+02  0.00000000000E+00 0.  1.
          1    1    1    2  501    0 -0.46063408316E+03  0.39802944856E+03 -0.92423843313E+03  0.11067194232E+04  0.00000000000E+00 0. -1.
<scales pt_clust_5="13000.00000" pt_clust_6="13000.00000" pt_clust_7="13000.00000" pt_clust_8="13000.00000" pt_clust_9="608.77875"></scales>
<clustering>
<clus scale="   79.914">  5  6 -1 -1</clus>
<clus scale="   94.181">  7  8 -1 -1</clus>
<clus scale="  182.821">  5  7 -1 -1</clus>
<clus scale="  608.779">  1  9  2 -1</clus>
<clus scale="  608.779">  1  5  2 -1</clus>
</clustering>
</event>
<event>
 9    2  0.6175212E-005  0.1264467E+03  0.7546771E-02  0.1247048E+00
         21   -1    0    0  501  502  0.00000000000E+00  0.00000000000E+00  0.11195281023E+03  0.11195281023E+03  0.00000000000E+00 0. -1.
          2   -1    0    0  502    0 -0.00000000000E+00 -0.00000000000E+00 -0.41242555242E+03  0.41242555242E+03  0.00000000000E+00 0. -1.
         24    2    1    2    0    0  0.33994646140E+02 -0.70867323262E+01 -0.28110086344E+03  0.29663030649E+03  0.88124829427E+02 0.  0.
         23    2    1    2    0    0  0.58700260300E+02 -0.41116984115E+02  0.13180852055E+02  0.11831486082E+03  0.93211289487E+02 0.  0.
        -13    1    3    3    0    0 -0.50181643317E+01 -0.40110259355E+02 -0.87334469287E+02  0.96235775076E+02  0.00000000000E+00 0.  1.
         14    1    3    3    0    0  0.39012810472E+02  0.33023527029E+02 -0.19376639415E+03  0.20039453142E+03  0.00000000000E+00 0. -1.
        -13    1    4    4    0    0  0.30663413500E+02  0.21639353451E+02  0.29421442129E+02  0.47687816077E+02  0.00000000000E+00 0. -1.
         13    1    4    4    0    0  0.28036846800E+02 -0.62756337565E+02 -0.16240590074E+02  0.70627044743E+02  0.00000000000E+00 0.  1.
          1    1    1    2  501    0 -0.92694906440E+02  0.48203716441E+02 -0.32552730803E+02  0.10943319534E+03  0.00000000000E+00 0. -1.
<scales pt_clust_5="13000.00000" pt_clust_6="13000.00000" pt_clust_7="13000.00000" pt_clust_8="13000.00000" pt_clust_9="85.44260"></scales>
<clustering>
<clus scale="   88.125">  5  6 -1 -1</clus>
<clus scale="   93.211">  7  8 -1 -1</clus>
<clus scale="   94.720">  2  5  1 -1</clus>
<clus scale="   85.443">  1  9  2 -1</clus>
<clus scale="   85.443">  1  5  2 -1</clus>
</clustering>
</event>
<event>
 9    2  0.6175212E-005  0.1024697E+03  0.7546771E-02  0.1281109E+00
          4   -1    0    0  502    0 -0.00000000000E+00  0.00000000000E+00  0.63209452870E+02  0.63209452870E+02  0.00000000000E+00 0. -1.
         21   -1    0    0  501  502  0.00000000000E+00 -0.00000000000E+00 -0.22178522874E+03  0.22178522874E+03  0.00000000000E+00 0. -1.
         23    2    1    2    0    0 -0.21990559980E+02 -0.25821543893E+02 -0.39199678073E+02  0.10494399107E+03  0.91248504878E+02 0.  0.
         24    2    1    2    0    0  0.43724748022E+02  0.48240548603E+02 -0.79849630198E+02  0.12967879021E+03  0.78750371868E+02 0.  0.
        -13    1    4    4    0    0 -0.15601182303E+02  0.30533362835E+02 -0.87222131720E+01  0.35380222411E+02  0.00000000000E+00 0.  1.
         14    1    4    4    0    0  0.59325930325E+02  0.17707185768E+02 -0.71127417026E+02  0.94298567802E+02  0.00000000000E+00 0. -1.
        -13    1    3    3    0    0  0.95381750852E+01 -0.45058752271E+02  0.61401014659E+01  0.46464704736E+02  0.00000000000E+00 0. -1.
         13    1    3    3    0    0 -0.31528735065E+02  0.19237208378E+02 -0.45339779539E+02  0.58479286330E+02  0.00000000000E+00 0.  1.
          3    1    1    2  501    0 -0.21734188042E+02 -0.22419004710E+02 -0.39526467596E+02  0.50371900328E+02  0.00000000000E+00 0. -1.
<scales pt_clust_5="13000.00000" pt_clust_6="13000.00000" pt_clust_7="13000.00000" pt_clust_8="13000.00000" pt_clust_9="31.22478"></scales>
<clustering>
<clus scale="   31.225">  2  9  1 -1</clus>
<clus scale="   78.750">  5  6 -1 -1</clus>
<clus scale="   91.249">  7  8 -1 -1</clus>
<clus scale="   91.517">  2  5  1 -1</clus>
<clus scale="   31.225">  2  5  1 -1</clus>
</clustering>
</event>
<event>
 9    2  0.6175212E-005  0.9806661E+02  0.7546771E-02  0.1290445E+00
         21   -1    0    0  501  502  0.00000000000E+00  0.00000000000E+00  0.63025862981E+02  0.63025862981E+02  0.00000000000E+00 0. -1.
          2   -1    0    0  502    0 -0.00000000000E+00 -0.00000000000E+00 -0.19382753838E+03  0.19382753838E+03  0.00000000000E+00 0. -1.
         24    2    1    2    0    0  0.21622713861E+02  0.13183641598E+02 -0.91797140815E+02  0.12636510299E+03  0.83066684248E+02 0.  0.
         23    2    1    2    0    0 -0.37315309033E+02  0.34986472021E+01 -0.27963116744E+02  0.10506253956E+03  0.94082562151E+02 0.  0.
        -13    1    3    3    0    0  0.45472198550E+01 -0.31609053004E+02 -0.13743283016E+02  0.34766179950E+02  0.00000000000E+00 0.  1.
         14    1    3    3    0    0  0.17075494006E+02  0.44792694602E+02 -0.78053857800E+02  0.91598923043E+02  0.00000000000E+00 0. -1.
        -11    1    4    4    0    0 -0.68228159210E+02 -0.70808217276E+01 -0.18441348373E+02  0.71030296883E+02  0.00000000000E+00 0. -1.
         11    1    4    4    0    0  0.30912850177E+02  0.10579468930E+02 -0.95217683716E+01  0.34032242680E+02  0.00000000000E+00 0.  1.
          1    1    1    2  501    0  0.15692595172E+02 -0.16682288800E+02 -0.11041417838E+02  0.25425758803E+02  0.00000000000E+00 0. -1.
<scales pt_clust_5="13000.00000" pt_clust_6="13000.00000" pt_clust_7="13000.00000" pt_clust_8="13000.00000" pt_clust_9="22.90319"></scales>
<clustering>
<clus scale="   22.903">  1  9  2 -1</clus>
<clus scale="   83.067">  5  6 -1 -1</clus>
<clus scale="   87.553">  2  5  1 -1</clus>
<clus scale="   94.083">  7  8 -1 -1</clus>
<clus scale="   22.903">  1  5  2 -1</clus>
</clustering>
</event>
<event>
 9    2  0.6175212E-005  0.1294795E+03  0.7546771E-02  0.1231861E+00
         21   -1    0    0  501  502  0.00000000000E+00  0.00000000000E+00  0.24972254080E+03  0.24972254080E+03  0.00000000000E+00 0.  1.
         -3   -1    0    0    0  501 -0.00000000000E+00 -0.00000000000E+00 -0.31163265119E+03  0.31163265119E+03  0.00000000000E+00 0.  1.
         24    2    1    2    0    0  0.77458506762E+02  0.50210234454E+02 -0.23136200221E+03  0.26165296512E+03  0.80081272296E+02 0.  0.
         23    2    1    2    0    0 -0.29243636768E+02 -0.88705279757E+02  0.14564336943E+02  0.13297881262E+03  0.93527684386E+02 0.  0.
        -11    1    3    3    0    0  0.39594141289E+02  0.27832645004E+02 -0.20442742642E+03  0.21007837781E+03  0.00000000000E+00 0.  1.
         12    1    3    3    0    0  0.37864365472E+02  0.22377589450E+02 -0.26934575793E+02  0.51574587302E+02  0.00000000000E+00 0. -1.
        -11    1    4    4    0    0 -0.19149977780E+02 -0.52699512336E+02  0.54553013234E+02  0.78230374550E+02  0.00000000000E+00 0. -1.
         11    1    4    4    0    0 -0.10093658988E+02 -0.36005767422E+02 -0.39988676291E+02  0.54748438068E+02  0.00000000000E+00 0.  1.
         -4    1    1    2    0  502 -0.48214869994E+02  0.38495045304E+02  0.15488755489E+03  0.16672341425E+03  0.00000000000E+00 0.  1.
<scales pt_clust_5="13000.00000" pt_clust_6="13000.00000" pt_clust_7="13000.00000" pt_clust_8="13000.00000" pt_clust_9="61.69718"></scales>
<clustering>
<clus scale="   61.697">  1  9  2 -1</clus>
<clus scale="   80.081">  5  6 -1 -1</clus>
<clus scale="   93.528">  7  8 -1 -1</clus>
<clus scale="  120.127">  2  5  1 -1</clus>
<clus scale="   61.697">  1  5  2 -1</clus>
</clustering>
</event>
<event>
 9    2  0.6175212E-005  0.9133048E+02  0.7546771E-02  0.1307110E+00
          2   -1    0    0  502    0 -0.00000000000E+00  0.00000000000E+00  0.40019542216E+03  0.40019542216E+03  0.00000000000E+00 0. -1.
         21   -1    0    0  501  502  0.00000000000E+00 -0.00000000000E+00 -0.55129330160E+02  0.55129330160E+02  0.00000000000E+00 0. -1.
         24    2    1    2    0    0  0.10723103055E+02  0.59150746817E+01  0.22772112395E+03  0.24126472106E+03  0.78751395473E+02 0.  0.
         23    2    1    2    0    0 -0.20076352138E+02  0.43946299718E+02  0.20372735793E+02  0.10461939093E+03  0.90530831333E+02 0.  0.
        -11    1    3    3    0    0  0.32507237288E+01  0.40144445553E+02  0.81551413834E+02  0.90954806425E+02  0.00000000000E+00 0.  1.
         12    1    3    3    0    0  0.74723793257E+01 -0.34229370871E+02  0.14616971012E+03  0.15030991464E+03  0.00000000000E+00 0. -1.
        -13    1    4    4    0    0 -0.47558273084E+02  0.69283826143E+00 -0.42737264837E+01  0.47754937982E+02  0.00000000000E+00 0.  1.
         13    1    4    4    0    0  0.27481920946E+02  0.43253461456E+02  0.24646462277E+02  0.56864452953E+02  0.00000000000E+00 0. -1.
          1    1    1    2  501    0  0.93532490833E+01 -0.49861374399E+02  0.96972232254E+02  0.10944064032E+03  0.00000000000E+00 0. -1.
<scales pt_clust_5="13000.00000" pt_clust_6="13000.00000" pt_clust_7="13000.00000" pt_clust_8="13000.00000" pt_clust_9="50.73108"></scales>
<clustering>
<clus scale="   50.731">  2  9  1 -1</clus>
<clus scale="   78.751">  5  6 -1 -1</clus>
<clus scale="   79.669">  1  5  2 -1</clus>
<clus scale="   90.531">  7  8 -1 -1</clus>
<clus scale="   50.731">  2  5  1 -1</clus>
</clustering>
</event>
<event>
 9    2  0.6175212E-005  0.1002714E+03  0.7546771E-02  0.1284759E+00
         21   -1    0    0  501  502  0.00000000000E+00  0.00000000000E+00  0.16053975590E+03  0.16053975590E+03  0.00000000000E+00 0. -1.
         -1   -1    0    0    0  501 -0.00000000000E+00 -0.00000000000E+00 -0.10045318372E+03  0.10045318372E+03  0.00000000000E+00 0.  1.
         23    2    1    2    0    0  0.30113710760E+02  0.42445043802E+02 -0.35076831908E+02  0.10936767623E+03  0.89568337862E+02 0.  0.
         24    2    1    2    0    0 -0.96383393668E+01 -0.23612264745E+02  0.91301541844E+02  0.12353917465E+03  0.79218176565E+02 0.  0.
        -11    1    4    4    0    0 -0.33485320568E+02  0.15727986663E+02  0.36223978607E+02  0.51776566941E+02  0.00000000000E+00 0.  1.
         12    1    4    4    0    0  0.23846981201E+02 -0.39340251408E+02  0.55077563237E+02  0.71762607710E+02  0.00000000000E+00 0. -1.
        -11    1    3    3    0    0  0.18372930280E+02  0.61802941939E+02 -0.50563131946E+02  0.81937772191E+02  0.00000000000E+00 0. -1.
         11    1    3    3    0    0  0.11740780479E+02 -0.19357898136E+02  0.15486300038E+02  0.27429904035E+02  0.00000000000E+00 0.  1.
         -2    1    1    2    0  502 -0.20475371393E+02 -0.18832779058E+02  0.38618622429E+01  0.28086088740E+02  0.00000000000E+00 0.  1.
<scales pt_clust_5="13000.00000" pt_clust_6="13000.00000" pt_clust_7="13000.00000" pt_clust_8="13000.00000" pt_clust_9="27.81933"></scales>
<clustering>
<clus scale="   27.819">  1  9  2 -1</clus>
<clus scale="   79.218">  5  6 -1 -1</clus>
<clus scale="   89.568">  7  8 -1 -1</clus>
<clus scale="   91.145">  1  5  2 -1</clus>
<clus scale="   27.819">  1  5  2 -1</clus>
</clustering>
</event>
<event>
 9    2  0.6175212E-005  0.4227918E+03  0.7546771E-02  0.1046585E+00
         21   -1    0    0  501  502  0.00000000000E+00  0.00000000000E+00  0.98582997886E+03  0.98582997886E+03  0.00000000000E+00 0. -1.
          2   -1    0    0  502    0 -0.00000000000E+00 -0.00000000000E+00 -0.69399314815E+03  0.69399314815E+03  0.00000000000E+00 0. -1.
         24    2    1    2    0    0  0.82272460457E+02  0.29029152177E+03 -0.34441218315E+03  0.46501376167E+03  0.81117946661E+02 0.  0.
         23    2    1    2    0    0 -0.24619241381E+03 -0.59418639844E+03  0.24875707341E+03  0.69579891161E+03  0.92670724210E+02 0.  0.
        -13    1    3    3    0    0  0.34203208314E+02  0.29156889921E+02 -0.69872918066E+02  0.83079530378E+02  0.00000000000E+00 0.  1.
         14    1    3    3    0    0  0.48069252144E+02  0.26113463185E+03 -0.27453926509E+03  0.38193423129E+03  0.00000000000E+00 0. -1.
        -11    1    4    4    0    0 -0.22561183166E+00 -0.74057751696E+02  0.20728284440E+02  0.76904247365E+02  0.00000000000E+00 0.  1.
         11    1    4    4    0    0 -0.24596680197E+03 -0.52012864674E+03  0.22802878897E+03  0.61889466425E+03  0.00000000000E+00 0. -1.
          1    1    1    2  501    0  0.16391995335E+03  0.30389487667E+03  0.38749194045E+03  0.51901045373E+03  0.00000000000E+00 0. -1.
<scales pt_clust_5="13000.00000" pt_clust_6="13000.00000" pt_clust_7="13000.00000" pt_clust_8="13000.00000" pt_clust_9="412.51067"></scales>
<clustering>
<clus scale="   81.118">  5  6 -1 -1</clus>
<clus scale="   92.671">  7  8 -1 -1</clus>
<clus scale="  312.439">  2  5  1 -1</clus>
<clus scale="  412.511">  1  9  2 -1</clus>
<clus scale="  412.511">  1  5  2 -1</clus>
</clustering>
</event>
<event>
 9    2  0.6175212E-005  0.8692917E+02  0.7546771E-02  0.1314374E+00
         21   -1    0    0  501  502  0.00000000000E+00  0.00000000000E+00  0.71349668974E+02  0.71349668974E+02  0.00000000000E+00 0.  1.
         -3   -1    0    0    0  501 -0.00000000000E+00 -0.00000000000E+00 -0.19585018870E+03  0.19585018870E+03  0.00000000000E+00 0.  1.
         23    2    1    2    0    0  0.62179958418E+01  0.10937153643E+02 -0.10245250618E+03  0.13424717093E+03  0.85834154497E+02 0.  0.
         24    2    1    2    0    0  0.35037142447E+02 -0.16870780102E+02 -0.88185944011E+01  0.89223841698E+02  0.79817928738E+02 0.  0.
        -13    1    4    4    0    0  0.47157107271E+02  0.18100789920E+02 -0.12481120733E+02  0.52030853699E+02  0.00000000000E+00 0.  1.
         14    1    4    4    0    0 -0.12119964824E+02 -0.34971570022E+02  0.36625263316E+01  0.37192987999E+02  0.00000000000E+00 0. -1.
        -11    1    3    3    0    0  0.33968260053E+02  0.26296663869E+02 -0.90814422984E+02  0.10046201592E+03  0.00000000000E+00 0.  1.
         11    1    3    3    0    0 -0.27750264212E+02 -0.15359510226E+02 -0.11638083191E+02  0.33785155003E+02  0.00000000000E+00 0. -1.
         -4    1    1    2    0  502 -0.41255138289E+02  0.59336264595E+01 -0.13229419146E+02  0.43728845047E+02  0.00000000000E+00 0.  1.
<scales pt_clust_5="13000.00000" pt_clust_6="13000.00000" pt_clust_7="13000.00000" pt_clust_8="13000.00000" pt_clust_9="41.67966"></scales>
<clustering>
<clus scale="   41.680">  1  9  2 -1</clus>
<clus scale="   79.818">  5  6 -1 -1</clus>
<clus scale="   80.994">  1  5  2 -1</clus>
<clus scale="   85.834">  7  8 -1 -1</clus>
<clus scale="   41.680">  1  5  2 -1</clus>
</clustering>
</event>
<event>
 9    2  0.6175212E-005  0.1851604E+03  0.7546771E-02  0.1182117E+00
         21   -1    0    0  501  502  0.00000000000E+00  0.00000000000E+00  0.50171561288E+03  0.50171561288E+03  0.00000000000E+00 0. -1.
          4   -1    0    0  502    0 -0.00000000000E+00 -0.00000000000E+00 -0.16325685447E+03  0.16325685447E+03  0.00000000000E+00 0. -1.
         24    2    1    2    0    0 -0.85869949838E+02  0.20271223414E+02 -0.32393794696E+02  0.12383974008E+03  0.80637165771E+02 0.  0.
         23    2    1    2    0    0 -0.58075927814E+02 -0.12595109216E+03  0.29886284115E+03  0.34859398058E+03  0.11385198489E+03 0.  0.
        -11    1    3    3    0    0 -0.65905884671E+02  0.24737622546E+01  0.16610637000E+02  0.68011898926E+02  0.00000000000E+00 0.  1.
         12    1    3    3    0    0 -0.19964065167E+02  0.17797461159E+02 -0.49004431696E+02  0.55827841151E+02  0.00000000000E+00 0. -1.
        -11    1    4    4    0    0 -0.80532623465E+02 -0.77875494293E+02  0.13010076966E+03  0.17168665155E+03  0.00000000000E+00 0.  1.
         11    1    4    4    0    0  0.22456695651E+02 -0.48075597869E+02  0.16876207149E+03  0.17690732903E+03  0.00000000000E+00 0. -1.
          3    1    1    2  501    0  0.14394587765E+03  0.10567986875E+03  0.71989711957E+02  0.19253874670E+03  0.00000000000E+00 0. -1.
<scales pt_clust_5="13000.00000" pt_clust_6="13000.00000" pt_clust_7="13000.00000" pt_clust_8="13000.00000" pt_clust_9="146.02091"></scales>
<clustering>
<clus scale="   80.637">  5  6 -1 -1</clus>
<clus scale="  113.852">  7  8 -1 -1</clus>
<clus scale="  119.528">  2  5  1 -1</clus>
<clus scale="  146.021">  1  9  2 -1</clus>
<clus scale="  146.021">  1  5  2 -1</clus>
</clustering>
</event>
<event>
 9    2  0.6175212E-005  0.9984263E+02  0.7546771E-02  0.1286300E+00
         21   -1    0    0  501  502  0.00000000000E+00  0.00000000000E+00  0.38897920599E+03  0.38897920599E+03  0.00000000000E+00 0. -1.
          2   -1    0    0  502    0 -0.00000000000E+00 -0.00000000000E+00 -0.11327923735E+03  0.11327923735E+03  0.00000000000E+00 0. -1.
         23    2    1    2    0    0 -0.22375056662E+02 -0.29640395072E+02 -0.71201797355E+02  0.12188286043E+03  0.91687183068E+02 0.  0.
         24    2    1    2    0    0  0.67401109552E+02  0.21721332861E+02  0.20580878356E+03  0.23206076006E+03  0.80499783216E+02 0.  0.
        -13    1    4    4    0    0  0.27555272558E+02  0.50532013406E+02  0.99902349945E+02  0.11529638741E+03  0.00000000000E+00 0.  1.
         14    1    4    4    0    0  0.39845836994E+02 -0.28810680546E+02  0.10590643362E+03  0.11676437265E+03  0.00000000000E+00 0. -1.
        -11    1    3    3    0    0 -0.28932112024E+02  0.20794183870E+02 -0.15818455968E+01  0.35664652311E+02  0.00000000000E+00 0.  1.
         11    1    3    3    0    0  0.65570553623E+01 -0.50434578942E+02 -0.69619951758E+02  0.86218208117E+02  0.00000000000E+00 0. -1.
          1    1    1    2  501    0 -0.45026052890E+02  0.79190622112E+01  0.14109298243E+03  0.14831482285E+03  0.00000000000E+00 0. -1.
<scales pt_clust_5="13000.00000" pt_clust_6="13000.00000" pt_clust_7="13000.00000" pt_clust_8="13000.00000" pt_clust_9="45.71714"></scales>
<clustering>
<clus scale="   45.717">  1  9  2 -1</clus>
<clus scale="   80.500">  5  6 -1 -1</clus>
<clus scale="   89.678">  1  5  2 -1</clus>
<clus scale="   91.687">  7  8 -1 -1</clus>
<clus scale="   45.717">  1  5  2 -1</clus>
</clustering>
</event>
<event>
 9    2  0.6175212E-005  0.9939388E+02  0.7546771E-02  0.1286890E+00
         21   -1    0    0  501  502  0.00000000000E+00  0.00000000000E+00  0.49639581241E+02  0.49639581241E+02  0.00000000000E+00 0.  1.
          2   -1    0    0  502    0 -0.00000000000E+00 -0.00000000000E+00 -0.59818034404E+03  0.59818034404E+03  0.00000000000E+00 0. -1.
         23    2    1    2    0    0 -0.24517020767E+02 -0.21101548955E+02 -0.39421404258E+03  0.40575765306E+03  0.90488684229E+02 0.  0.
         24    2    1    2    0    0  0.84176437241E+02  0.38174301460E+02 -0.84081357884E+02  0.14833321706E+03  0.79938217772E+02 0.  0.
        -13    1    4    4    0    0  0.22392558438E+02  0.31646419682E+01  0.14480150393E+02  0.26853610327E+02  0.00000000000E+00 0.  1.
         14    1    4    4    0    0  0.61783878803E+02  0.35009659492E+02 -0.98561508277E+02  0.12147960673E+03  0.00000000000E+00 0. -1.
        -11    1    3    3    0    0 -0.12636243762E+02 -0.56891062769E+02 -0.22980314233E+03  0.23707752298E+03  0.00000000000E+00 0.  1.
         11    1    3    3    0    0 -0.11880777005E+02  0.35789513814E+02 -0.16441090025E+03  0.16868013008E+03  0.00000000000E+00 0. -1.
          1    1    1    2  501    0 -0.59659416474E+02 -0.17072752505E+02 -0.70245362334E+02  0.93729055162E+02  0.00000000000E+00 0. -1.
<scales pt_clust_5="13000.00000" pt_clust_6="13000.00000" pt_clust_7="13000.00000" pt_clust_8="13000.00000" pt_clust_9="62.05421"></scales>
<clustering>
<clus scale="   62.054">  1  9  2 -1</clus>
<clus scale="   79.938">  5  6 -1 -1</clus>
<clus scale="   89.895">  1  5  2 -1</clus>
<clus scale="   90.489">  7  8 -1 -1</clus>
<clus scale="   62.054">  1  5  2 -1</clus>
</clustering>
</event>
<event>
 9    2  0.6175212E-005  0.2049982E+03  0.7546771E-02  0.1146441E+00
         21   -1    0    0  501  502  0.00000000000E+00  0.00000000000E+00  0.25045370825E+02  0.25045370825E+02  0.00000000000E+00 0. -1.
          2   -1    0    0  502    0 -0.00000000000E+00 -0.00000000000E+00 -0.19664315690E+04  0.19664315690E+04  0.00000000000E+00 0. -1.
         24    2    1    2    0    0  0.14149195764E+03 -0.14043105250E+03 -0.11112146285E+04  0.11318668333E+04  0.81140144650E+02 0.  0.
         23    2    1    2    0    0 -0.11587025116E+03  0.11796530149E+03 -0.71795796332E+03  0.74233660033E+03  0.90874989047E+02 0.  0.
        -13    1    3    3    0    0  0.30864972548E+02  0.57893641399E+01 -0.13763118596E+03  0.14116836266E+03  0.00000000000E+00 0.  1.
         14    1    3    3    0    0  0.11062698509E+03 -0.14622041664E+03 -0.97358344258E+03  0.99069847065E+03  0.00000000000E+00 0. -1.
        -13    1    4    4    0    0  0.13037713223E+02  0.21097033327E+02 -0.60331195200E+02  0.65229747014E+02  0.00000000000E+00 0.  1.
         13    1    4    4    0    0 -0.12890796438E+03  0.96868268160E+02 -0.65762676812E+03  0.67710685331E+03  0.00000000000E+00 0. -1.
          1    1    1    2  501    0 -0.25621706483E+02  0.22465751018E+02 -0.11221360629E+03  0.11727350616E+03  0.00000000000E+00 0. -1.
<scales pt_clust_5="13000.00000" pt_clust_6="13000.00000" pt_clust_7="13000.00000" pt_clust_8="13000.00000" pt_clust_9="34.07612"></scales>
<clustering>
<clus scale="   34.076">  1  9  2 -1</clus>
<clus scale="   81.140">  5  6 -1 -1</clus>
<clus scale="   90.875">  7  8 -1 -1</clus>
<clus scale="  200.872">  2  5  1 -1</clus>
<clus scale="   34.076">  1  5  2 -1</clus>
</clustering>
</event>
<event>
 9    2  0.6175212E-005  0.9600582E+02  0.7546771E-02  0.1297305E+00
         21   -1    0    0  501  502  0.00000000000E+00  0.00000000000E+00  0.20266307132E+02  0.20266307132E+02  0.00000000000E+00 0.  1.
          2   -1    0    0  502    0 -0.00000000000E+00 -0.00000000000E+00 -0.68338559786E+03  0.68338559786E+03  0.00000000000E+00 0. -1.
         24    2    1    2    0    0  0.18345786044E+02  0.28020366984E+02 -0.41117405331E+03  0.41995468835E+03  0.78588353628E+02 0.  0.
         23    2    1    2    0    0  0.25784004519E+01 -0.52965449554E+01 -0.22160169723E+03  0.24039682289E+03  0.92997949974E+02 0.  0.
        -13    1    3    3    0    0 -0.10779122565E+02  0.19730672881E+02 -0.29548165705E+02  0.37129274597E+02  0.00000000000E+00 0.  1.
         14    1    3    3    0    0  0.29124908608E+02  0.82896941026E+01 -0.38162588760E+03  0.38282541376E+03  0.00000000000E+00 0. -1.
        -11    1    4    4    0    0 -0.30747158557E+02  0.20988577538E+02 -0.43255741619E+02  0.57069846060E+02  0.00000000000E+00 0.  1.
         11    1    4    4    0    0  0.33325559009E+02 -0.26285122493E+02 -0.17834595562E+03  0.18332697683E+03  0.00000000000E+00 0. -1.
          1    1    1    2  501    0 -0.20924186495E+02 -0.22723822028E+02 -0.30343540192E+02  0.43300393756E+02  0.00000000000E+00 0. -1.
<scales pt_clust_5="13000.00000" pt_clust_6="13000.00000" pt_clust_7="13000.00000" pt_clust_8="13000.00000" pt_clust_9="30.89003"></scales>
<clustering>
<clus scale="   30.890">  1  9  2 -1</clus>
<clus scale="   78.588">  5  6 -1 -1</clus>
<clus scale="   82.126">  2  5  1 -1</clus>
<clus scale="   92.998">  7  8 -1 -1</clus>
<clus scale="   30.890">  1  5  2 -1</clus>
</clustering>
</event>
<event>
 9    2  0.6175212E-005  0.1377515E+03  0.7546771E-02  0.1238574E+00
          2   -1    0    0  502    0 -0.00000000000E+00  0.00000000000E+00  0.27980695940E+03  0.27980695940E+03  0.00000000000E+00 0. -1.
         21   -1    0    0  501  502  0.00000000000E+00 -0.00000000000E+00 -0.18757610877E+03  0.18757610877E+03  0.00000000000E+00 0. -1.
         24    2    1    2    0    0  0.24784474127E+02  0.26485457563E+02  0.15608307780E+03  0.17866886211E+03  0.79024587881E+02 0.  0.
         23    2    1    2    0    0 -0.60797295772E+02  0.80554385132E+02 -0.10153314482E+03  0.16965832505E+03  0.91047502032E+02 0.  0.
        -13    1    3    3    0    0 -0.23335550389E+02 -0.23391432707E+01  0.17800938623E+02  0.29443045343E+02  0.00000000000E+00 0.  1.
         14    1    3    3    0    0  0.48120024515E+02  0.28824600834E+02  0.13828213918E+03  0.14922581676E+03  0.00000000000E+00 0. -1.
        -11    1    4    4    0    0 -0.21207598667E+02 -0.18204487705E+02 -0.32319865128E+02  0.42728670653E+02  0.00000000000E+00 0.  1.
         11    1    4    4    0    0 -0.39589697105E+02  0.98758872838E+02 -0.69213279690E+02  0.12692965440E+03  0.00000000000E+00 0. -1.
          1    1    1    2  501    0  0.36012821645E+02 -0.10703984270E+03  0.37680917651E+02  0.11905588101E+03  0.00000000000E+00 0. -1.
<scales pt_clust_5="13000.00000" pt_clust_6="13000.00000" pt_clust_7="13000.00000" pt_clust_8="13000.00000" pt_clust_9="103.37229"></scales>
<clustering>
<clus scale="   79.025">  5  6 -1 -1</clus>
<clus scale="   86.952">  1  5  2 -1</clus>
<clus scale="   91.048">  7  8 -1 -1</clus>
<clus scale="  103.372">  2  9  1 -1</clus>
<clus scale="  103.372">  2  5  1 -1</clus>
</clustering>
</event>
<event>
 9    2  0.6175212E-005  0.9330558E+02  0.7546771E-02  0.1298184E+00
          4   -1    0    0  502    0 -0.00000000000E+00  0.00000000000E+00  0.36885948084E+03  0.36885948084E+03  0.00000000000E+00 0. -1.
         21   -1    0    0  501  502  0.00000000000E+00 -0.00000000000E+00 -0.32283689335E+02  0.32283689335E+02  0.00000000000E+00 0. -1.
         24    2    1    2    0    0 -0.24862062761E+02  0.31345310419E+02  0.17069855383E+03  0.19441680887E+03  0.84019334932E+02 0.  0.
         23    2    1    2    0    0  0.12319915376E+02 -0.31402717766E+01  0.13880972979E+03  0.16567176778E+03  0.89539666819E+02 0.  0.
        -11    1    3    3    0    0  0.14647483167E+01  0.40011775108E+02  0.15962528210E+03  0.16457010154E+03  0.00000000000E+00 0.  1.
         12    1    3    3    0    0 -0.26326811078E+02 -0.86664646888E+01  0.11073271727E+02  0.29846707331E+02  0.00000000000E+00 0. -1.
        -13    1    4    4    0    0  0.21394513779E+02  0.40196081774E+02  0.80095735560E+02  0.92134559556E+02  0.00000000000E+00 0. -1.
         13    1    4    4    0    0 -0.90745984031E+01 -0.43336353550E+02  0.58713994232E+02  0.73537208228E+02  0.00000000000E+00 0.  1.
          3    1    1    2  501    0  0.12542147386E+02 -0.28205038642E+02  0.27067507880E+02  0.41054593516E+02  0.00000000000E+00 0. -1.
<scales pt_clust_5="13000.00000" pt_clust_6="13000.00000" pt_clust_7="13000.00000" pt_clust_8="13000.00000" pt_clust_9="30.86794"></scales>
<clustering>
<clus scale="   30.868">  2  9  1 -1</clus>
<clus scale="   84.019">  5  6 -1 -1</clus>
<clus scale="   88.022">  1  5  2 -1</clus>
<clus scale="   89.540">  7  8 -1 -1</clus>
<clus scale="   30.868">  2  5  1 -1</clus>
</clustering>
</event>
<event>
 9    2  0.6175212E-005  0.2251481E+03  0.7546771E-02  0.1130456E+00
         21   -1    0    0  501  502  0.00000000000E+00  0.00000000000E+00  0.10512325138E+03  0.10512325138E+03  0.00000000000E+00 0. -1.
          2   -1    0    0  502    0 -0.00000000000E+00 -0.00000000000E+00 -0.91784541222E+03  0.91784541222E+03  0.00000000000E+00 0. -1.
         24    2    1    2    0    0 -0.11729031441E+03  0.22272570178E+03 -0.61752937006E+03  0.67206943524E+03  0.83492794925E+02 0.  0.
         23    2    1    2    0    0  0.40290583912E+02 -0.14151079281E+03 -0.15690110201E+03  0.23261536064E+03  0.88562489567E+02 0.  0.
        -11    1    3    3    0    0 -0.52230348948E+02  0.65841258828E+02 -0.12121544563E+03  0.14750005077E+03  0.00000000000E+00 0.  1.
         12    1    3    3    0    0 -0.65059965466E+02  0.15688444295E+03 -0.49631392442E+03  0.52456938447E+03  0.00000000000E+00 0. -1.
        -11    1    4    4    0    0  0.17208512465E+02 -0.14143281631E+03 -0.10881601135E+03  0.17927715626E+03  0.00000000000E+00 0.  1.
         11    1    4    4    0    0  0.23082071447E+02 -0.77976502395E-01 -0.48085090657E+02  0.53338204377E+02  0.00000000000E+00 0. -1.
          1    1    1    2  501    0  0.76999730502E+02 -0.81214908969E+02 -0.38291688762E+02  0.11828386773E+03  0.00000000000E+00 0. -1.
<scales pt_clust_5="13000.00000" pt_clust_6="13000.00000" pt_clust_7="13000.00000" pt_clust_8="13000.00000" pt_clust_9="111.91434"></scales>
<clustering>
<clus scale="   83.493">  5  6 -1 -1</clus>
<clus scale="   88.562">  7  8 -1 -1</clus>
<clus scale="  111.914">  1  9  2 -1</clus>
<clus scale="  223.203">  2  5  1 -1</clus>
<clus scale="  111.914">  1  5  2 -1</clus>
</clustering>
</event>
<event>
 9    2  0.6175212E-005  0.1858754E+03  0.7546771E-02  0.1193861E+00
         21   -1    0    0  501  502  0.00000000000E+00  0.00000000000E+00  0.48322993694E+02  0.48322993694E+02  0.00000000000E+00 0.  1.
          2   -1    0    0  502    0 -0.00000000000E+00 -0.00000000000E+00 -0.10140323746E+04  0.10140323746E+04  0.00000000000E+00 0. -1.
         24    2    1    2    0    0 -0.44610940571E+02  0.10623675878E+02 -0.18685936680E+03  0.20786990696E+03  0.78679582790E+02 0.  0.
         23    2    1    2    0    0 -0.12924389243E+03  0.50868792481E+02 -0.40611759137E+03  0.43862937375E+03  0.90402498395E+02 0.  0.
        -11    1    3    3    0    0 -0.22006445803E+02  0.30902893092E+02 -0.16775772757E+03  0.17199397553E+03  0.00000000000E+00 0.  1.
         12    1    3    3    0    0 -0.22604494768E+02 -0.20279217214E+02 -0.19101639235E+02  0.35875931430E+02  0.00000000000E+00 0. -1.
        -11    1    4    4    0    0 -0.61773711823E+02  0.32495253167E+02 -0.84999186021E+02  0.10998542892E+03  0.00000000000E+00 0.  1.
         11    1    4    4    0    0 -0.67470180609E+02  0.18373539315E+02 -0.32111840535E+03  0.32864394482E+03  0.00000000000E+00 0. -1.
          1    1    1    2  501    0  0.17385483300E+03 -0.61492468360E+02 -0.37273242269E+03  0.41585608754E+03  0.00000000000E+00 0. -1.
<scales pt_clust_5="13000.00000" pt_clust_6="13000.00000" pt_clust_7="13000.00000" pt_clust_8="13000.00000" pt_clust_9="162.41027"></scales>
<clustering>
<clus scale="   78.680">  5  6 -1 -1</clus>
<clus scale="   90.402">  7  8 -1 -1</clus>
<clus scale="   91.069">  2  5  1 -1</clus>
<clus scale="  162.410">  1  9  2 -1</clus>
<clus scale="  162.410">  1  5  2 -1</clus>
</clustering>
</event>
<event>
 9    2  0.6175212E-005  0.1735047E+03  0.7546771E-02  0.1203908E+00
          2   -1    0    0  502    0 -0.00000000000E+00  0.00000000000E+00  0.10164496629E+04  0.10164496629E+04  0.00000000000E+00 0. -1.
         21   -1    0    0  501  502  0.00000000000E+00 -0.00000000000E+00 -0.60943653311E+02  0.60943653311E+02  0.00000000000E+00 0. -1.
         24    2    1    2    0    0 -0.39199886718E+02 -0.42294863881E+01  0.11432513723E+03  0.14548861877E+03  0.80883753105E+02 0.  0.
         23    2    1    2    0    0 -0.13136546255E+03  0.38113420839E+02  0.16784041117E+03  0.23647099387E+03  0.95071603127E+02 0.  0.
        -13    1    3    3    0    0 -0.39243508162E+02 -0.16924457658E+02  0.12293332218E+03  0.13015026663E+03  0.00000000000E+00 0.  1.
         14    1    3    3    0    0  0.43621443667E-01  0.12694971270E+02 -0.86081849544E+01  0.15338352147E+02  0.00000000000E+00 0. -1.
        -13    1    4    4    0    0 -0.71935106543E+02  0.23556423586E+02  0.22801128557E+02  0.79053501561E+02  0.00000000000E+00 0.  1.
         13    1    4    4    0    0 -0.59430356007E+02  0.14556997253E+02  0.14503928261E+03  0.15741749231E+03  0.00000000000E+00 0. -1.
          1    1    1    2  501    0  0.17056534927E+03 -0.33883934451E+02  0.67334046123E+03  0.69543370361E+03  0.00000000000E+00 0. -1.
<scales pt_clust_5="13000.00000" pt_clust_6="13000.00000" pt_clust_7="13000.00000" pt_clust_8="13000.00000" pt_clust_9="145.13892"></scales>
<clustering>
<clus scale="   80.884">  5  6 -1 -1</clus>
<clus scale="   89.982">  1  5  2 -1</clus>
<clus scale="   95.072">  7  8 -1 -1</clus>
<clus scale="  145.139">  2  9  1 -1</clus>
<clus scale="  145.139">  2  5  1 -1</clus>
</clustering>
</event>
<event>
 9    2  0.6175212E-005  0.2357246E+03  0.7546771E-02  0.1148064E+00
         21   -1    0    0  501  502  0.00000000000E+00  0.00000000000E+00  0.23031478829E+03  0.23031478829E+03  0.00000000000E+00 0. -1.
          4   -1    0    0  502    0 -0.00000000000E+00 -0.00000000000E+00 -0.38332416905E+03  0.38332416905E+03  0.00000000000E+00 0. -1.
         24    2    1    2    0    0 -0.97670528861E+02  0.16759635395E+02 -0.40028130990E+02  0.13326341077E+03  0.79601933349E+02 0.  0.
         23    2    1    2    0    0  0.23447618123E+03 -0.13453119739E+03 -0.53270087821E+02  0.29024046249E+03  0.91236512283E+02 0.  0.
        -11    1    3    3    0    0 -0.95346921128E+02  0.95028505842E+01 -0.34302066133E+01  0.95880685517E+02  0.00000000000E+00 0.  1.
         12    1    3    3    0    0 -0.23236077335E+01  0.72567848109E+01 -0.36597924376E+02  0.37382725253E+02  0.00000000000E+00 0. -1.
        -11    1    4    4    0    0  0.10415341620E+03 -0.20584431995E+02 -0.49366305545E+02  0.11708409401E+03  0.00000000000E+00 0.  1.
         11    1    4    4    0    0  0.13032276503E+03 -0.11394676539E+03 -0.39037822760E+01  0.17315636848E+03  0.00000000000E+00 0. -1.
          3    1    1    2  501    0 -0.13680565237E+03  0.11777156200E+03 -0.59711161950E+02  0.19013508407E+03  0.00000000000E+00 0. -1.
<scales pt_clust_5="13000.00000" pt_clust_6="13000.00000" pt_clust_7="13000.00000" pt_clust_8="13000.00000" pt_clust_9="217.35221"></scales>
<clustering>
<clus scale="   79.602">  5  6 -1 -1</clus>
<clus scale="   91.237">  7  8 -1 -1</clus>
<clus scale="  127.110">  2  5  1 -1</clus>
<clus scale="  217.352">  1  9  2 -1</clus>
<clus scale="  217.352">  1  5  2 -1</clus>
</clustering>
</event>
<event>
 9    2  0.6175212E-005  0.3056500E+03  0.7546771E-02  0.1082450E+00
          2   -1    0    0  502    0 -0.00000000000E+00  0.00000000000E+00  0.12191380884E+04  0.12191380884E+04  0.00000000000E+00 0. -1.
         21   -1    0    0  501  502  0.00000000000E+00 -0.00000000000E+00 -0.86310182172E+02  0.86310182172E+02  0.00000000000E+00 0. -1.
         24    2    1    2    0    0 -0.42990953733E+02 -0.16346848900E+03  0.63495566840E+03  0.66210117932E+03  0.81480683797E+02 0.  0.
         23    2    1    2    0    0  0.27737653735E+02 -0.66122460550E+02  0.35154202700E+03  0.37066192872E+03  0.93096248192E+02 0.  0.
        -11    1    3    3    0    0 -0.43919368842E+01 -0.57994457297E+02  0.10179188131E+03  0.11723580207E+03  0.00000000000E+00 0.  1.
         12    1    3    3    0    0 -0.38599016849E+02 -0.10547403170E+03  0.53316378709E+03  0.54486537725E+03  0.00000000000E+00 0. -1.
        -11    1    4    4    0    0  0.49323280682E+02 -0.12336040314E+02  0.96022710363E+02  0.10865231159E+03  0.00000000000E+00 0. -1.
         11    1    4    4    0    0 -0.21585626947E+02 -0.53786420236E+02  0.25551931664E+03  0.26200961713E+03  0.00000000000E+00 0.  1.
          1    1    1    2  501    0  0.15253299998E+02  0.22959094955E+03  0.14633021087E+03  0.27268516257E+03  0.00000000000E+00 0. -1.
<scales pt_clust_5="13000.00000" pt_clust_6="13000.00000" pt_clust_7="13000.00000" pt_clust_8="13000.00000" pt_clust_9="230.09708"></scales>
<clustering>
<clus scale="   81.481">  5  6 -1 -1</clus>
<clus scale="   93.096">  7  8 -1 -1</clus>
<clus scale="  104.101">  5  7 -1 -1</clus>
<clus scale="  230.097">  2  9  1 -1</clus>
<clus scale="  230.097">  2  5  1 -1</clus>
</clustering>
</event>
<event>
 9    2  0.6175212E-005  0.8759974E+02  0.7546771E-02  0.1308939E+00
         -1   -1    0    0    0  501 -0.00000000000E+00  0.00000000000E+00  0.11304647134E+03  0.11304647134E+03  0.00000000000E+00 0.  1.
         21   -1    0    0  501  502  0.00000000000E+00 -0.00000000000E+00 -0.11339092652E+03  0.11339092652E+03  0.00000000000E+00 0. -1.
         24    2    1    2    0    0  0.34241175814E+02 -0.12692756641E+02  0.50105795973E+02  0.10158619126E+03  0.80471108311E+02 0.  0.
         23    2    1    2    0    0 -0.34079721265E+02 -0.12570542688E+02 -0.32384022425E+02  0.93792407837E+02  0.80180078040E+02 0.  0.
        -13    1    3    3    0    0  0.50156069464E+02  0.26765016116E+01  0.59225261886E+02  0.77655821485E+02  0.00000000000E+00 0.  1.
         14    1    3    3    0    0 -0.15914893650E+02 -0.15369258252E+02 -0.91194659135E+01  0.23930369777E+02  0.00000000000E+00 0. -1.
        -11    1    4    4    0    0  0.23704441846E+02 -0.17492391840E+02 -0.16022749213E+02  0.33535247544E+02  0.00000000000E+00 0.  1.
         11    1    4    4    0    0 -0.57784163111E+02  0.49218491519E+01 -0.16361273211E+02  0.60257160293E+02  0.00000000000E+00 0. -1.
         -2    1    1    2    0  502 -0.16145454895E+00  0.25263299328E+02 -0.18066228727E+02  0.31058798769E+02  0.00000000000E+00 0.  1.
<scales pt_clust_5="13000.00000" pt_clust_6="13000.00000" pt_clust_7="13000.00000" pt_clust_8="13000.00000" pt_clust_9="25.26382"></scales>
<clustering>
<clus scale="   25.264">  2  9  1 -1</clus>
<clus scale="   80.180">  7  8 -1 -1</clus>
<clus scale="   80.471">  5  6 -1 -1</clus>
<clus scale="   87.332">  2  7  1 -1</clus>
<clus scale="   25.264">  2  5  1 -1</clus>
</clustering>
</event>
<event>
 9    2  0.6175212E-005  0.1047191E+03  0.7546771E-02  0.1280749E+00
         21   -1    0    0  501  502  0.00000000000E+00  0.00000000000E+00  0.23156808650E+03  0.23156808650E+03  0.00000000000E+00 0. -1.
          2   -1    0    0  502    0 -0.00000000000E+00 -0.00000000000E+00 -0.70614916606E+03  0.70614916606E+03  0.00000000000E+00 0. -1.
         24    2    1    2    0    0 -0.19550062594E+01  0.48022532673E+02 -0.66464864798E+03  0.67016346108E+03  0.71072171855E+02 0.  0.
         23    2    1    2    0    0  0.13062865183E+01 -0.95163254379E+02  0.10108291477E+03  0.16685157171E+03  0.92541557990E+02 0.  0.
        -11    1    3    3    0    0 -0.18295442197E+02  0.24928500807E+02 -0.96980683343E+02  0.10179099321E+03  0.00000000000E+00 0.  1.
         12    1    3    3    0    0  0.16340435938E+02  0.23094031865E+02 -0.56766796464E+03  0.56837246787E+03  0.00000000000E+00 0. -1.
        -13    1    4    4    0    0 -0.44758904817E+01 -0.20848299482E+02  0.88778373392E+02  0.91303257165E+02  0.00000000000E+00 0.  1.
         13    1    4    4    0    0  0.57821770000E+01 -0.74314954897E+02  0.12304541381E+02  0.75548314547E+02  0.00000000000E+00 0. -1.
          1    1    1    2  501    0  0.64871974106E+00  0.47140721707E+02  0.88984653652E+02  0.10070221977E+03  0.00000000000E+00 0. -1.
<scales pt_clust_5="13000.00000" pt_clust_6="13000.00000" pt_clust_7="13000.00000" pt_clust_8="13000.00000" pt_clust_9="47.14519"></scales>
<clustering>
<clus scale="   47.145">  1  9  2 -1</clus>
<clus scale="   71.072">  5  6 -1 -1</clus>
<clus scale="   86.333">  2  5  1 -1</clus>
<clus scale="   92.542">  7  8 -1 -1</clus>
<clus scale="   47.145">  1  5  2 -1</clus>
</clustering>
</event>
<event>
 9    2  0.6175212E-005  0.1318380E+03  0.7546771E-02  0.1229677E+00
          4   -1    0    0  502    0 -0.00000000000E+00  0.00000000000E+00  0.58687814428E+03  0.58687814428E+03  0.00000000000E+00 0. -1.
         21   -1    0    0  501  502  0.00000000000E+00 -0.00000000000E+00 -0.86233783650E+02  0.86233783650E+02  0.00000000000E+00 0. -1.
         23    2    1    2    0    0  0.55752349980E+02 -0.47071203686E+02  0.31784114610E+03  0.34066166537E+03  0.98505600621E+02 0.  0.
         24    2    1    2    0    0 -0.89568049562E+02  0.67487943258E+02  0.23161553756E+03  0.26965704897E+03  0.80573623684E+02 0.  0.
        -11    1    4    4    0    0 -0.51508833963E+02  0.24189257512E+02  0.19058270645E+03  0.19889707930E+03  0.00000000000E+00 0.  1.
         12    1    4    4    0    0 -0.38059215599E+02  0.43298685746E+02  0.41032831108E+02  0.70759969673E+02  0.00000000000E+00 0. -1.
        -11    1    3    3    0    0  0.64219079567E+02  0.88126106443E+01  0.19371678053E+03  0.20427418668E+03  0.00000000000E+00 0.  1.
         11    1    3    3    0    0 -0.84667295866E+01 -0.55883814330E+02  0.12412436557E+03  0.13638747869E+03  0.00000000000E+00 0. -1.
          3    1    1    2  501    0  0.33815699582E+02 -0.20416739572E+02 -0.48812323031E+02  0.62793213587E+02  0.00000000000E+00 0. -1.
<scales pt_clust_5="13000.00000" pt_clust_6="13000.00000" pt_clust_7="13000.00000" pt_clust_8="13000.00000" pt_clust_9="39.50120"></scales>
<clustering>
<clus scale="   39.501">  2  9  1 -1</clus>
<clus scale="   80.574">  5  6 -1 -1</clus>
<clus scale="   98.506">  7  8 -1 -1</clus>
<clus scale="  119.038">  2  5  1 -1</clus>
<clus scale="   39.501">  2  5  1 -1</clus>
</clustering>
</event>
<event>
 9    2  0.6175212E-005  0.1200478E+03  0.7546771E-02  0.1245898E+00
          2   -1    0    0  502    0 -0.00000000000E+00  0.00000000000E+00  0.15075720863E+04  0.15075720863E+04  0.00000000000E+00 0. -1.
         21   -1    0    0  501  502  0.00000000000E+00 -0.00000000000E+00 -0.15633632418E+02  0.15633632418E+02  0.00000000000E+00 0. -1.
         24    2    1    2    0    0  0.54076069423E+02 -0.48199042478E+02  0.74143747835E+03  0.74924484249E+03  0.79943296843E+02 0.  0.
         23    2    1    2    0    0 -0.42703048442E+02  0.86900284004E+02  0.68085833995E+03  0.69347964617E+03  0.89278949713E+02 0.  0.
        -11    1    3    3    0    0  0.17865034547E+01 -0.39924186650E+02  0.14327715445E+03  0.14874634537E+03  0.00000000000E+00 0.  1.
         12    1    3    3    0    0  0.52289565968E+02 -0.82748558279E+01  0.59816032390E+03  0.60049849712E+03  0.00000000000E+00 0. -1.
        -11    1    4    4    0    0 -0.54586081866E+02  0.12801570659E+02  0.32407367855E+03  0.32888792875E+03  0.00000000000E+00 0.  1.
         11    1    4    4    0    0  0.11883033423E+02  0.74098713345E+02  0.35678466140E+03  0.36459171742E+03  0.00000000000E+00 0. -1.
          1    1    1    2  501    0 -0.11373020980E+02 -0.38701241526E+02  0.69642635576E+02  0.80481230060E+02  0.00000000000E+00 0. -1.
<scales pt_clust_5="13000.00000" pt_clust_6="13000.00000" pt_clust_7="13000.00000" pt_clust_8="13000.00000" pt_clust_9="40.33772"></scales>
<clustering>
<clus scale="   40.338">  2  9  1 -1</clus>
<clus scale="   79.943">  5  6 -1 -1</clus>
<clus scale="   89.279">  7  8 -1 -1</clus>
<clus scale="  113.277">  1  5  2 -1</clus>
<clus scale="   40.338">  2  5  1 -1</clus>
</clustering>
</event>
<event>
 9    2  0.6175212E-005  0.1093842E+03  0.7546771E-02  0.1262471E+00
         21   -1    0    0  501  502  0.00000000000E+00  0.00000000000E+00  0.59124393115E+03  0.59124393115E+03  0.00000000000E+00 0. -1.
         -3   -1    0    0    0  501 -0.00000000000E+00 -0.00000000000E+00 -0.81644932618E+02  0.81644932618E+02  0.00000000000E+00 0.  1.
         23    2    1    2    0    0  0.40180777651E+02  0.56742221914E+02 -0.14083173428E+01  0.11453748217E+03  0.91009212848E+02 0.  0.
         24    2    1    2    0    0  0.67527545673E+02 -0.52957191258E+02  0.28738152425E+03  0.31010975727E+03  0.78838363399E+02 0.  0.
        -11    1    4    4    0    0  0.86691208941E+01 -0.49715772190E+02  0.80647481951E+02  0.95135839759E+02  0.00000000000E+00 0.  1.
         12    1    4    4    0    0  0.58858424779E+02 -0.32414190679E+01  0.20673404230E+03  0.21497391751E+03  0.00000000000E+00 0. -1.
        -13    1    3    3    0    0 -0.13140085549E+02 -0.18256481714E+02 -0.98688741797E+00  0.22515215290E+02  0.00000000000E+00 0. -1.
         13    1    3    3    0    0  0.53320863199E+02  0.74998703627E+02 -0.42142992488E+00  0.92022266878E+02  0.00000000000E+00 0.  1.
         -4    1    1    2    0  502 -0.10770832332E+03 -0.37850306564E+01  0.22362579163E+03  0.24824162433E+03  0.00000000000E+00 0.  1.
<scales pt_clust_5="13000.00000" pt_clust_6="13000.00000" pt_clust_7="13000.00000" pt_clust_8="13000.00000" pt_clust_9="107.77481"></scales>
<clustering>
<clus scale="   78.838">  5  6 -1 -1</clus>
<clus scale="   91.009">  7  8 -1 -1</clus>
<clus scale="  107.775">  1  9  2 -1</clus>
<clus scale="  107.775">  1  5  2 -1</clus>
<clus scale="  107.775">  1  5  2 -1</clus>
</clustering>
</event>
<event>
 9    2  0.6175212E-005  0.1125778E+03  0.7546771E-02  0.1258265E+00
          2   -1    0    0  502    0 -0.00000000000E+00  0.00000000000E+00  0.42089084921E+03  0.42089084921E+03  0.00000000000E+00 0. -1.
         21   -1    0    0  501  502  0.00000000000E+00 -0.00000000000E+00 -0.22791115545E+03  0.22791115545E+03  0.00000000000E+00 0.  1.
         24    2    1    2    0    0 -0.64150943906E+02 -0.44061820575E+01  0.36546948597E+03  0.38078099002E+03  0.85390041249E+02 0.  0.
         23    2    1    2    0    0  0.70217665640E+02  0.43474742898E+02 -0.40112829387E+02  0.12986596463E+03  0.91845282132E+02 0.  0.
        -11    1    3    3    0    0  0.15513993832E+02  0.17577773220E+02  0.10173044383E+03  0.10439705608E+03  0.00000000000E+00 0.  1.
         12    1    3    3    0    0 -0.79664937739E+02 -0.21983955278E+02  0.26373904213E+03  0.27638393394E+03  0.00000000000E+00 0. -1.
        -13    1    4    4    0    0  0.71014780482E+02  0.79605652590E+01  0.59382691510E+01  0.71705876236E+02  0.00000000000E+00 0. -1.
         13    1    4    4    0    0 -0.79711484260E+00  0.35514177639E+02 -0.46051098538E+02  0.58160088394E+02  0.00000000000E+00 0.  1.
          1    1    1    2  501    0 -0.60667217334E+01 -0.39068560840E+02 -0.13237696281E+03  0.13815505001E+03  0.00000000000E+00 0. -1.
<scales pt_clust_5="13000.00000" pt_clust_6="13000.00000" pt_clust_7="13000.00000" pt_clust_8="13000.00000" pt_clust_9="39.53679"></scales>
<clustering>
<clus scale="   39.537">  2  9  1 -1</clus>
<clus scale="   85.390">  5  6 -1 -1</clus>
<clus scale="   91.845">  7  8 -1 -1</clus>
<clus scale="  107.376">  1  5  2 -1</clus>
<clus scale="   39.537">  2  5  1 -1</clus>
</clustering>
</event>
<event>
 9    2  0.6175212E-005  0.1092396E+03  0.7546771E-02  0.1270685E+00
         21   -1    0    0  501  502  0.00000000000E+00  0.00000000000E+00  0.55581312202E+03  0.55581312202E+03  0.00000000000E+00 0. -1.
          2   -1    0    0  502    0 -0.00000000000E+00 -0.00000000000E+00 -0.33480522944E+02  0.33480522944E+02  0.00000000000E+00 0. -1.
         24    2    1    2    0    0  0.28963176141E+02 -0.42443584482E+02  0.10433408327E+03  0.13469351947E+03  0.67944240512E+02 0.  0.
         23    2    1    2    0    0 -0.48562489600E+02  0.82211546503E+02  0.34691302784E+03  0.37082202280E+03  0.89684279217E+02 0.  0.
        -13    1    3    3    0    0  0.31844726814E+02  0.13914530262E+01  0.15182378361E+02  0.35306194642E+02  0.00000000000E+00 0.  1.
         14    1    3    3    0    0 -0.28815506729E+01 -0.43835037508E+02  0.89151704912E+02  0.99387324828E+02  0.00000000000E+00 0. -1.
        -11    1    4    4    0    0 -0.33713548025E+02  0.17548901795E+01  0.36118819963E+02  0.49439378187E+02  0.00000000000E+00 0.  1.
         11    1    4    4    0    0 -0.14848941575E+02  0.80456656323E+02  0.31079420788E+03  0.32138264462E+03  0.00000000000E+00 0. -1.
          1    1    1    2  501    0  0.19599313459E+02 -0.39767962021E+02  0.71085487966E+02  0.83778102692E+02  0.00000000000E+00 0. -1.
<scales pt_clust_5="13000.00000" pt_clust_6="13000.00000" pt_clust_7="13000.00000" pt_clust_8="13000.00000" pt_clust_9="44.33538"></scales>
<clustering>
<clus scale="   44.335">  1  9  2 -1</clus>
<clus scale="   67.944">  5  6 -1 -1</clus>
<clus scale="   89.684">  7  8 -1 -1</clus>
<clus scale="   92.230">  2  5  1 -1</clus>
<clus scale="   44.335">  1  5  2 -1</clus>
</clustering>
</event>
<event>
 9    2  0.6175212E-005  0.2165698E+03  0.7546771E-02  0.1160547E+00
         21   -1    0    0  501  502  0.00000000000E+00  0.00000000000E+00  0.40367735599E+03  0.40367735599E+03  0.00000000000E+00 0.  1.
          2   -1    0    0  502    0 -0.00000000000E+00 -0.00000000000E+00 -0.18828608046E+03  0.18828608046E+03  0.00000000000E+00 0. -1.
         24    2    1    2    0    0 -0.91310455318E+02  0.71148736771E+01  0.84946429422E+02  0.14883558721E+03  0.80919191001E+02 0.  0.
         23    2    1    2    0    0  0.22071876621E+03 -0.10092705532E+03  0.11151811538E+03  0.28217612514E+03  0.91016653893E+02 0.  0.
        -13    1    3    3    0    0 -0.55112182051E+02 -0.33856566604E+02  0.61824692673E+02  0.89475763963E+02  0.00000000000E+00 0.  1.
         14    1    3    3    0    0 -0.36198273267E+02  0.40971440281E+02  0.23121736748E+02  0.59359823252E+02  0.00000000000E+00 0. -1.
        -11    1    4    4    0    0  0.78899145169E+02 -0.32176355822E+02  0.88580838216E+02  0.12291036523E+03  0.00000000000E+00 0.  1.
         11    1    4    4    0    0  0.14181962104E+03 -0.68750699503E+02  0.22937277161E+02  0.15926575990E+03  0.00000000000E+00 0. -1.
          1    1    1    2  501    0 -0.12940831089E+03  0.93812181648E+02  0.18926730734E+02  0.16095172410E+03  0.00000000000E+00 0. -1.
<scales pt_clust_5="13000.00000" pt_clust_6="13000.00000" pt_clust_7="13000.00000" pt_clust_8="13000.00000" pt_clust_9="196.51575"></scales>
<clustering>
<clus scale="   80.919">  5  6 -1 -1</clus>
<clus scale="   91.017">  7  8 -1 -1</clus>
<clus scale="  122.214">  2  5  1 -1</clus>
<clus scale="  196.516">  1  9  2 -1</clus>
<clus scale="  196.516">  1  5  2 -1</clus>
</clustering>
</event>
<event>
 9    2  0.6175212E-005  0.1041741E+03  0.7546771E-02  0.1275906E+00
         -1   -1    0    0    0  501 -0.00000000000E+00  0.00000000000E+00  0.10053147614E+03  0.10053147614E+03  0.00000000000E+00 0.  1.
         21   -1    0    0  501  502  0.00000000000E+00 -0.00000000000E+00 -0.23638962311E+03  0.23638962311E+03  0.00000000000E+00 0.  1.
         24    2    1    2    0    0  0.46704985339E+02  0.32256205428E+02  0.46399627283E+02  0.10947584289E+03  0.81303236837E+02 0.  0.
         23    2    1    2    0    0 -0.87406639305E+01 -0.28170063360E+02 -0.14868600363E+03  0.17660186899E+03  0.90613138009E+02 0.  0.
        -13    1    3    3    0    0  0.39062909598E+02  0.40591290110E+02  0.66045645379E+02  0.86807781982E+02  0.00000000000E+00 0.  1.
         14    1    3    3    0    0  0.76420757408E+01 -0.83350846814E+01 -0.19646018096E+02  0.22668060908E+02  0.00000000000E+00 0. -1.
        -11    1    4    4    0    0  0.24570703273E+02 -0.13448281962E+01 -0.30263715547E+01  0.24792880974E+02  0.00000000000E+00 0.  1.
         11    1    4    4    0    0 -0.33311367203E+02 -0.26825235164E+02 -0.14565963207E+03  0.15180898802E+03  0.00000000000E+00 0. -1.
         -2    1    1    2    0  502 -0.37964321408E+02 -0.40861420679E+01 -0.33571770626E+02  0.50843387377E+02  0.00000000000E+00 0.  1.
<scales pt_clust_5="13000.00000" pt_clust_6="13000.00000" pt_clust_7="13000.00000" pt_clust_8="13000.00000" pt_clust_9="38.18359"></scales>
<clustering>
<clus scale="   38.184">  2  9  1 -1</clus>
<clus scale="   81.303">  5  6 -1 -1</clus>
<clus scale="   90.613">  7  8 -1 -1</clus>
<clus scale="   96.186">  1  5  2 -1</clus>
<clus scale="   38.184">  2  5  1 -1</clus>
</clustering>
</event>
<event>
 9    2  0.6175212E-005  0.9221326E+02  0.7546771E-02  0.1306767E+00
         21   -1    0    0  501  502  0.00000000000E+00  0.00000000000E+00  0.15034202485E+03  0.15034202485E+03  0.00000000000E+00 0.  1.
          2   -1    0    0  502    0 -0.00000000000E+00 -0.00000000000E+00 -0.20637631332E+03  0.20637631332E+03  0.00000000000E+00 0. -1.
         24    2    1    2    0    0 -0.11185386181E+02  0.40762282678E+02  0.26084588820E+00  0.86358420706E+02  0.75306256268E+02 0.  0.
         23    2    1    2    0    0  0.14133656554E+02  0.39222729840E+02  0.69581714190E+02  0.12119130305E+03  0.90041846948E+02 0.  0.
        -13    1    3    3    0    0 -0.11526411383E+01  0.61163427516E+02  0.93299445390E+01  0.61881671860E+02  0.00000000000E+00 0.  1.
         14    1    3    3    0    0 -0.10032745043E+02 -0.20401144837E+02 -0.90690986508E+01  0.24476748847E+02  0.00000000000E+00 0. -1.
        -11    1    4    4    0    0  0.38614898981E+02  0.44469541890E+02  0.75213402636E+02  0.95528563871E+02  0.00000000000E+00 0.  1.
         11    1    4    4    0    0 -0.24481242427E+02 -0.52468120493E+01 -0.56316884460E+01  0.25662739180E+02  0.00000000000E+00 0. -1.
          1    1    1    2  501    0 -0.29482703727E+01 -0.79985012519E+02 -0.12587684855E+03  0.14916861442E+03  0.00000000000E+00 0. -1.
<scales pt_clust_5="13000.00000" pt_clust_6="13000.00000" pt_clust_7="13000.00000" pt_clust_8="13000.00000" pt_clust_9="80.03937"></scales>
<clustering>
<clus scale="   75.306">  5  6 -1 -1</clus>
<clus scale="   80.039">  1  9  2 -1</clus>
<clus scale="   77.890">  2  5  1 -1</clus>
<clus scale="   90.042">  7  8 -1 -1</clus>
<clus scale="   80.039">  1  5  2 -1</clus>
</clustering>
</event>
<event>
 9    2  0.6420563E-005  0.9911738E+02  0.7546771E-02  0.1288637E+00
          2   -1    0    0  502    0 -0.00000000000E+00  0.00000000000E+00  0.34686393232E+03  0.34686393232E+03  0.00000000000E+00 0. -1.
         21   -1    0    0  501  502  0.00000000000E+00 -0.00000000000E+00 -0.12270392621E+03  0.12270392621E+03  0.00000000000E+00 0. -1.
         23    2    1    2    0    0  0.33516586003E+02 -0.24080085886E+02  0.26752747169E+03  0.28557895599E+03  0.91000988581E+02 0.  0.
         24    2    1    2    0    0 -0.12654411915E+02  0.79695439457E+01 -0.96155961783E+02  0.12498546874E+03  0.78433096569E+02 0.  0.
        -11    1    4    4    0    0 -0.42931105606E+02  0.16774600681E+02 -0.70999682450E+02  0.84648815494E+02  0.00000000000E+00 0.  1.
         12    1    4    4    0    0  0.30276693691E+02 -0.88050567357E+01 -0.25156279333E+02  0.40336653243E+02  0.00000000000E+00 0. -1.
        -13    1    3    3    0    0  0.39788078226E+02  0.16712512190E+02  0.59533924873E+02  0.73530180494E+02  0.00000000000E+00 0.  1.
         13    1    3    3    0    0 -0.62714922239E+01 -0.40792598075E+02  0.20799354682E+03  0.21204877550E+03  0.00000000000E+00 0. -1.
          1    1    1    2  501    0 -0.20862174087E+02  0.16110541940E+02  0.52788496195E+02  0.59003433797E+02  0.00000000000E+00 0. -1.
<scales pt_clust_5="13000.00000" pt_clust_6="13000.00000" pt_clust_7="13000.00000" pt_clust_8="13000.00000" pt_clust_9="26.35869"></scales>
<clustering>
<clus scale="   26.359">  2  9  1 -1</clus>
<clus scale="   78.433">  5  6 -1 -1</clus>
<clus scale="   87.720">  2  5  1 -1</clus>
<clus scale="   91.001">  7  8 -1 -1</clus>
<clus scale="   26.359">  2  5  1 -1</clus>
</clustering>
</event>
<event>
 9    2  0.6175212E-005  0.3681310E+03  0.7546771E-02  0.1055648E+00
         21   -1    0    0  501  502  0.00000000000E+00  0.00000000000E+00  0.13314377262E+03  0.13314377262E+03  0.00000000000E+00 0.  1.
          2   -1    0    0  502    0 -0.00000000000E+00 -0.00000000000E+00 -0.16450127759E+04  0.16450127759E+04  0.00000000000E+00 0. -1.
         24    2    1    2    0    0 -0.28583065260E+03  0.67646079941E+02 -0.34046007440E+03  0.45690611040E+03  0.81086234071E+02 0.  0.
         23    2    1    2    0    0  0.38955812421E+03 -0.17786629186E+03 -0.69579628667E+03  0.82213595334E+03  0.91559288552E+02 0.  0.
        -13    1    3    3    0    0 -0.14921401628E+03 -0.63191201631E+01 -0.16882777194E+03  0.22540534712E+03  0.00000000000E+00 0.  1.
         14    1    3    3    0    0 -0.13661663633E+03  0.73965200104E+02 -0.17163230246E+03  0.23150076327E+03  0.00000000000E+00 0. -1.
        -11    1    4    4    0    0  0.24516060433E+03 -0.71899113802E+02 -0.35831477724E+03  0.44007122614E+03  0.00000000000E+00 0.  1.
         11    1    4    4    0    0  0.14439751988E+03 -0.10596717806E+03 -0.33748150943E+03  0.38206472721E+03  0.00000000000E+00 0. -1.
          1    1    1    2  501    0 -0.10372747161E+03  0.11022021192E+03 -0.47561264220E+03  0.49911448477E+03  0.00000000000E+00 0. -1.
<scales pt_clust_5="13000.00000" pt_clust_6="13000.00000" pt_clust_7="13000.00000" pt_clust_8="13000.00000" pt_clust_9="151.35358"></scales>
<clustering>
<clus scale="   81.086">  5  6 -1 -1</clus>
<clus scale="   91.559">  7  8 -1 -1</clus>
<clus scale="  151.354">  1  9  2 -1</clus>
<clus scale="  365.667">  2  5  1 -1</clus>
<clus scale="  151.354">  1  5  2 -1</clus>
</clustering>
</event>
<event>
 9    2  0.6175212E-005  0.9477213E+02  0.7546771E-02  0.1297019E+00
          4   -1    0    0  502    0 -0.00000000000E+00  0.00000000000E+00  0.44556227724E+03  0.44556227724E+03  0.00000000000E+00 0. -1.
         21   -1    0    0  501  502  0.00000000000E+00 -0.00000000000E+00 -0.57341938610E+02  0.57341938610E+02  0.00000000000E+00 0. -1.
         24    2    1    2    0    0  0.40382847942E+02 -0.71846855200E+00  0.32293884758E+03  0.33516068724E+03  0.80074317938E+02 0.  0.
         23    2    1    2    0    0 -0.65510743502E+00 -0.63132771954E+01  0.84262542070E+02  0.12315632067E+03  0.89593619698E+02 0.  0.
        -11    1    3    3    0    0 -0.15159342865E+02  0.19719465653E+02  0.49588823749E+02  0.55477152437E+02  0.00000000000E+00 0.  1.
         12    1    3    3    0    0  0.55542190807E+02 -0.20437934205E+02  0.27335002383E+03  0.27968353480E+03  0.00000000000E+00 0. -1.
        -13    1    4    4    0    0 -0.49572791151E+01 -0.33155240403E+02 -0.11282563709E+01  0.33542771872E+02  0.00000000000E+00 0. -1.
         13    1    4    4    0    0  0.43021716801E+01  0.26841963208E+02  0.85390798441E+02  0.89613548800E+02  0.00000000000E+00 0.  1.
          3    1    1    2  501    0 -0.39727740507E+02  0.70317457474E+01 -0.18981051016E+02  0.44587207938E+02  0.00000000000E+00 0. -1.
<scales pt_clust_5="13000.00000" pt_clust_6="13000.00000" pt_clust_7="13000.00000" pt_clust_8="13000.00000" pt_clust_9="40.34525"></scales>
<clustering>
<clus scale="   40.345">  2  9  1 -1</clus>
<clus scale="   80.074">  5  6 -1 -1</clus>
<clus scale="   85.829">  1  5  2 -1</clus>
<clus scale="   89.594">  7  8 -1 -1</clus>
<clus scale="   40.345">  2  5  1 -1</clus>
</clustering>
</event>
<event>
 9    2  0.6175212E-005  0.8899876E+02  0.7546771E-02  0.1308477E+00
          2   -1    0    0  502    0 -0.00000000000E+00  0.00000000000E+00  0.93238919743E+02  0.93238919743E+02  0.00000000000E+00 0. -1.
         21   -1    0    0  501  502  0.00000000000E+00 -0.00000000000E+00 -0.14303964279E+03  0.14303964279E+03  0.00000000000E+00 0.  1.
         24    2    1    2    0    0 -0.19747295143E+02 -0.14634797712E+02  0.32482695499E+02  0.90277922468E+02  0.80565779390E+02 0.  0.
         23    2    1    2    0    0 -0.28703164976E+01  0.32321882913E+02 -0.59225597614E+02  0.10917602268E+03  0.85783388158E+02 0.  0.
        -13    1    3    3    0    0 -0.34521881681E+02  0.23924349098E+02  0.96616559356E+01  0.43098519580E+02  0.00000000000E+00 0.  1.
         14    1    3    3    0    0  0.14774586538E+02 -0.38559146810E+02  0.22821039564E+02  0.47179402888E+02  0.00000000000E+00 0. -1.
        -13    1    4    4    0    0  0.24080190442E+02  0.22396704253E+02  0.98818848896E+01  0.34338310705E+02  0.00000000000E+00 0. -1.
         13    1    4    4    0    0 -0.26950506940E+02  0.99251786603E+01 -0.69107482504E+02  0.74837711976E+02  0.00000000000E+00 0.  1.
          1    1    1    2  501    0  0.22617611641E+02 -0.17687085200E+02 -0.23057820929E+02  0.36824617381E+02  0.00000000000E+00 0. -1.
<scales pt_clust_5="13000.00000" pt_clust_6="13000.00000" pt_clust_7="13000.00000" pt_clust_8="13000.00000" pt_clust_9="28.71218"></scales>
<clustering>
<clus scale="   28.712">  2  9  1 -1</clus>
<clus scale="   80.566">  5  6 -1 -1</clus>
<clus scale="   83.981">  1  5  2 -1</clus>
<clus scale="   85.783">  7  8 -1 -1</clus>
<clus scale="   28.712">  2  5  1 -1</clus>
</clustering>
</event>
<event>
 9    2  0.6175212E-005  0.1992818E+03  0.7546771E-02  0.1150864E+00
          2   -1    0    0  502    0 -0.00000000000E+00  0.00000000000E+00  0.24766413377E+04  0.24766413377E+04  0.00000000000E+00 0. -1.
         21   -1    0    0  501  502  0.00000000000E+00 -0.00000000000E+00 -0.24342346848E+02  0.24342346848E+02  0.00000000000E+00 0. -1.
         24    2    1    2    0    0  0.16762092730E+03 -0.31325174502E+02  0.12359485483E+04  0.12507182075E+04  0.87459582893E+02 0.  0.
         23    2    1    2    0    0 -0.18288738330E+03  0.16592023648E+02  0.12110406656E+04  0.12283948542E+04  0.92797273025E+02 0.  0.
        -13    1    3    3    0    0  0.95066015484E+02 -0.36236410598E+02  0.44731221737E+03  0.45873613828E+03  0.00000000000E+00 0.  1.
         14    1    3    3    0    0  0.72554911816E+02  0.49112360959E+01  0.78863633097E+03  0.79198206924E+03  0.00000000000E+00 0. -1.
        -11    1    4    4    0    0 -0.89687374909E+02 -0.38332954567E+02  0.56255446097E+03  0.57094724992E+03  0.00000000000E+00 0. -1.
         11    1    4    4    0    0 -0.93200008391E+02  0.54924978215E+02  0.64848620459E+03  0.65744760425E+03  0.00000000000E+00 0.  1.
          1    1    1    2  501    0  0.15266455999E+02  0.14733150854E+02  0.53097769369E+01  0.21870622853E+02  0.00000000000E+00 0. -1.
<scales pt_clust_5="13000.00000" pt_clust_6="13000.00000" pt_clust_7="13000.00000" pt_clust_8="13000.00000" pt_clust_9="21.21628"></scales>
<clustering>
<clus scale="   21.216">  2  9  1 -1</clus>
<clus scale="   87.460">  5  6 -1 -1</clus>
<clus scale="   92.797">  7  8 -1 -1</clus>
<clus scale="  196.853">  1  5  2 -1</clus>
<clus scale="   21.216">  2  5  1 -1</clus>
</clustering>
</event>
<event>
 9    2  0.6175212E-005  0.1084358E+03  0.7546771E-02  0.1278247E+00
         -1   -1    0    0    0  501 -0.00000000000E+00  0.00000000000E+00  0.42529426823E+03  0.42529426823E+03  0.00000000000E+00 0.  1.
         21   -1    0    0  501  502  0.00000000000E+00 -0.00000000000E+00 -0.37999585086E+02  0.37999585086E+02  0.00000000000E+00 0. -1.
         23    2    1    2    0    0 -0.10573749333E+02  0.11730659364E+02  0.17792273832E+03  0.20883192692E+03  0.10818900288E+03 0.  0.
         24    2    1    2    0    0 -0.19897039733E+02 -0.40264813647E+00  0.63475409015E+02  0.10498754068E+03  0.81223160693E+02 0.  0.
        -11    1    4    4    0    0  0.26311062658E+02 -0.15833320032E+02  0.41290588977E+02  0.51457543465E+02  0.00000000000E+00 0.  1.
         12    1    4    4    0    0 -0.46208102391E+02  0.15430671895E+02  0.22184820038E+02  0.53529997215E+02  0.00000000000E+00 0. -1.
        -11    1    3    3    0    0 -0.57792126173E+02 -0.56965695033E+00  0.72923339664E+02  0.93048738973E+02  0.00000000000E+00 0.  1.
         11    1    3    3    0    0  0.47218376840E+02  0.12300316314E+02  0.10499939866E+03  0.11578318795E+03  0.00000000000E+00 0. -1.
         -2    1    1    2    0  502  0.30470789066E+02 -0.11328011227E+02  0.14589653581E+03  0.14947438572E+03  0.00000000000E+00 0.  1.
<scales pt_clust_5="13000.00000" pt_clust_6="13000.00000" pt_clust_7="13000.00000" pt_clust_8="13000.00000" pt_clust_9="32.50837"></scales>
<clustering>
<clus scale="   32.508">  2  9  1 -1</clus>
<clus scale="   81.223">  5  6 -1 -1</clus>
<clus scale="   81.552">  2  5  1 -1</clus>
<clus scale="  108.189">  7  8 -1 -1</clus>
<clus scale="   32.508">  2  5  1 -1</clus>
</clustering>
</event>
<event>
 9    2  0.6175212E-005  0.9369885E+02  0.7546771E-02  0.1301295E+00
         21   -1    0    0  501  502  0.00000000000E+00  0.00000000000E+00  0.38786401373E+03  0.38786401373E+03  0.00000000000E+00 0. -1.
          2   -1    0    0  502    0 -0.00000000000E+00 -0.00000000000E+00 -0.23461195292E+03  0.23461195292E+03  0.00000000000E+00 0. -1.
         23    2    1    2    0    0 -0.47631558715E+01 -0.60518004169E+02 -0.13406218478E+03  0.17220465978E+03  0.89424040273E+02 0.  0.
         24    2    1    2    0    0 -0.25755276325E+02 -0.13183245738E+02 -0.54813407196E+02  0.98967193963E+02  0.77154803128E+02 0.  0.
        -13    1    4    4    0    0  0.14917984858E+02  0.23348135643E+02 -0.17314453648E+02  0.32672190245E+02  0.00000000000E+00 0.  1.
         14    1    4    4    0    0 -0.40673261183E+02 -0.36531381381E+02 -0.37498953547E+02  0.66295003718E+02  0.00000000000E+00 0. -1.
        -11    1    3    3    0    0  0.30696937485E+02 -0.60045948236E+02 -0.11107126104E+03  0.12994092081E+03  0.00000000000E+00 0. -1.
         11    1    3    3    0    0 -0.35460093356E+02 -0.47205593332E+00 -0.22990923741E+02  0.42263738975E+02  0.00000000000E+00 0.  1.
          1    1    1    2  501    0  0.30518432196E+02  0.73701249907E+02  0.34212765279E+03  0.35130411291E+03  0.00000000000E+00 0. -1.
<scales pt_clust_5="13000.00000" pt_clust_6="13000.00000" pt_clust_7="13000.00000" pt_clust_8="13000.00000" pt_clust_9="79.76998"></scales>
<clustering>
<clus scale="   77.155">  5  6 -1 -1</clus>
<clus scale="   79.770">  1  9  2 -1</clus>
<clus scale="   82.071">  1  5  2 -1</clus>
<clus scale="   89.424">  7  8 -1 -1</clus>
<clus scale="   79.770">  1  5  2 -1</clus>
</clustering>
</event>
<event>
 9    2  0.6175212E-005  0.1054104E+03  0.7546771E-02  0.1275968E+00
         21   -1    0    0  501  502  0.00000000000E+00  0.00000000000E+00  0.92065368582E+02  0.92065368582E+02  0.00000000000E+00 0. -1.
          2   -1    0    0  502    0 -0.00000000000E+00 -0.00000000000E+00 -0.13973828062E+03  0.13973828062E+03  0.00000000000E+00 0. -1.
         23    2    1    2    0    0  0.31149440704E+02 -0.22318291561E+02 -0.15254073267E+02  0.10106435815E+03  0.92265507866E+02 0.  0.
         24    2    1    2    0    0 -0.57265861660E+02  0.26664422857E+02 -0.22427530240E+02  0.10244118959E+03  0.77465042781E+02 0.  0.
        -13    1    4    4    0    0 -0.35231213778E+02  0.21760912168E+02 -0.51213051342E+02  0.65860096799E+02  0.00000000000E+00 0.  1.
         14    1    4    4    0    0 -0.22034647882E+02  0.49035106890E+01  0.28785521102E+02  0.36581092787E+02  0.00000000000E+00 0. -1.
        -13    1    3    3    0    0 -0.25818037810E+02 -0.28341867377E+02  0.81290126197E+01  0.39190730650E+02  0.00000000000E+00 0. -1.
         13    1    3    3    0    0  0.56967478514E+02  0.60235758154E+01 -0.23383085887E+02  0.61873627496E+02  0.00000000000E+00 0.  1.
          1    1    1    2  501    0  0.26116420955E+02 -0.43461312956E+01 -0.99913085313E+01  0.28298101472E+02  0.00000000000E+00 0. -1.
<scales pt_clust_5="13000.00000" pt_clust_6="13000.00000" pt_clust_7="13000.00000" pt_clust_8="13000.00000" pt_clust_9="26.47559"></scales>
<clustering>
<clus scale="   26.476">  1  9  2 -1</clus>
<clus scale="   77.465">  5  6 -1 -1</clus>
<clus scale="   92.266">  7  8 -1 -1</clus>
<clus scale="   92.732">  1  5  2 -1</clus>
<clus scale="   26.476">  1  5  2 -1</clus>
</clustering>
</event>
<event>
 9    2  0.6175212E-005  0.1089176E+03  0.7546771E-02  0.1266567E+00
          2   -1    0    0  502    0 -0.00000000000E+00  0.00000000000E+00  0.40380820325E+03  0.40380820325E+03  0.00000000000E+00 0. -1.
         21   -1    0    0  501  502  0.00000000000E+00 -0.00000000000E+00 -0.51263367799E+02  0.51263367799E+02  0.00000000000E+00 0. -1.
         23    2    1    2    0    0  0.37072595087E+01  0.55618520991E+02  0.24190273942E+03  0.26430480362E+03  0.90735495954E+02 0.  0.
         24    2    1    2    0    0 -0.30318121714E+02 -0.71721765632E+02  0.50475486559E+02  0.12303587809E+03  0.80788937268E+02 0.  0.
        -13    1    4    4    0    0 -0.57189711898E+02 -0.36322349457E+02  0.31388414060E+02  0.74667320524E+02  0.00000000000E+00 0.  1.
         14    1    4    4    0    0  0.26871590185E+02 -0.35399416175E+02  0.19087072499E+02  0.48368557568E+02  0.00000000000E+00 0. -1.
        -13    1    3    3    0    0 -0.52390486445E+01 -0.23637867308E+02  0.34975126857E+02  0.42537699753E+02  0.00000000000E+00 0.  1.
         13    1    3    3    0    0  0.89463081532E+01  0.79256388298E+02  0.20692761256E+03  0.22176710387E+03  0.00000000000E+00 0. -1.
          1    1    1    2  501    0  0.26610862205E+02  0.16103244641E+02  0.60166609469E+02  0.67730889336E+02  0.00000000000E+00 0. -1.
<scales pt_clust_5="13000.00000" pt_clust_6="13000.00000" pt_clust_7="13000.00000" pt_clust_8="13000.00000" pt_clust_9="31.10391"></scales>
<clustering>
<clus scale="   31.104">  2  9  1 -1</clus>
<clus scale="   80.789">  5  6 -1 -1</clus>
<clus scale="   90.735">  7  8 -1 -1</clus>
<clus scale="  100.782">  2  5  1 -1</clus>
<clus scale="   31.104">  2  5  1 -1</clus>
</clustering>
</event>
<event>
 9    2  0.6175212E-005  0.9541199E+02  0.7546771E-02  0.1299584E+00
         21   -1    0    0  501  502  0.00000000000E+00  0.00000000000E+00  0.50993020835E+02  0.50993020835E+02  0.00000000000E+00 0.  1.
          2   -1    0    0  502    0 -0.00000000000E+00 -0.00000000000E+00 -0.28080748306E+03  0.28080748306E+03  0.00000000000E+00 0. -1.
         24    2    1    2    0    0  0.24452190520E+01 -0.13363991501E+02 -0.57967384106E+02  0.96091002175E+02  0.75423389700E+02 0.  0.
         23    2    1    2    0    0 -0.43489721839E+02  0.27864866839E+02 -0.73528393717E+02  0.12818513101E+03  0.91417702986E+02 0.  0.
        -13    1    3    3    0    0 -0.26713292797E+02 -0.32168805341E+02 -0.34419354305E+02  0.54158323459E+02  0.00000000000E+00 0.  1.
         14    1    3    3    0    0  0.29158511849E+02  0.18804813840E+02 -0.23548029802E+02  0.41932678716E+02  0.00000000000E+00 0. -1.
        -11    1    4    4    0    0 -0.38432844857E+02  0.55116819991E+02 -0.23855373931E+02  0.71302358132E+02  0.00000000000E+00 0.  1.
         11    1    4    4    0    0 -0.50568769820E+01 -0.27251953152E+02 -0.49673019785E+02  0.56882772875E+02  0.00000000000E+00 0. -1.
          1    1    1    2  501    0  0.41044502787E+02 -0.14500875338E+02 -0.98318684404E+02  0.10752437071E+03  0.00000000000E+00 0. -1.
<scales pt_clust_5="13000.00000" pt_clust_6="13000.00000" pt_clust_7="13000.00000" pt_clust_8="13000.00000" pt_clust_9="43.53078"></scales>
<clustering>
<clus scale="   43.531">  1  9  2 -1</clus>
<clus scale="   75.423">  5  6 -1 -1</clus>
<clus scale="   80.218">  2  5  1 -1</clus>
<clus scale="   91.418">  7  8 -1 -1</clus>
<clus scale="   43.531">  1  5  2 -1</clus>
</clustering>
</event>
<event>
 9    2  0.6175212E-005  0.9692906E+02  0.7546771E-02  0.1291300E+00
          2   -1    0    0  502    0 -0.00000000000E+00  0.00000000000E+00  0.48416820090E+03  0.48416820090E+03  0.00000000000E+00 0. -1.
         21   -1    0    0  501  502  0.00000000000E+00 -0.00000000000E+00 -0.55011606984E+02  0.55011606984E+02  0.00000000000E+00 0. -1.
         24    2    1    2    0    0 -0.10198460896E+02  0.25039237926E+02  0.34968204530E+03  0.36053419683E+03  0.83524860033E+02 0.  0.
         23    2    1    2    0    0  0.46222984858E+01 -0.50773469179E+02  0.10024211242E+03  0.14511001874E+03  0.91701284727E+02 0.  0.
        -11    1    3    3    0    0 -0.34683243877E+02 -0.13840371582E+02  0.21529461816E+03  0.21850916662E+03  0.00000000000E+00 0.  1.
         12    1    3    3    0    0  0.24484782980E+02  0.38879609507E+02  0.13438742714E+03  0.14202503021E+03  0.00000000000E+00 0. -1.
        -11    1    4    4    0    0 -0.19274929333E+02 -0.28567443403E+02 -0.50956574585E+01  0.34836582041E+02  0.00000000000E+00 0.  1.
         11    1    4    4    0    0  0.23897227819E+02 -0.22206025776E+02  0.10533776988E+03  0.11027343670E+03  0.00000000000E+00 0. -1.
          1    1    1    2  501    0  0.55761624107E+01  0.25734231253E+02 -0.20767563801E+02  0.33535592311E+02  0.00000000000E+00 0. -1.
<scales pt_clust_5="13000.00000" pt_clust_6="13000.00000" pt_clust_7="13000.00000" pt_clust_8="13000.00000" pt_clust_9="26.33143"></scales>
<clustering>
<clus scale="   26.331">  2  9  1 -1</clus>
<clus scale="   83.525">  5  6 -1 -1</clus>
<clus scale="   89.233">  1  5  2 -1</clus>
<clus scale="   91.701">  7  8 -1 -1</clus>
<clus scale="   26.331">  2  5  1 -1</clus>
</clustering>
</event>
<event>
 9    2  0.6175212E-005  0.1315471E+03  0.7546771E-02  0.1228225E+00
          2   -1    0    0  502    0 -0.00000000000E+00  0.00000000000E+00  0.45498375008E+03  0.45498375008E+03  0.00000000000E+00 0. -1.
         21   -1    0    0  501  502  0.00000000000E+00 -0.00000000000E+00 -0.13292392130E+03  0.13292392130E+03  0.00000000000E+00 0. -1.
         24    2    1    2    0    0  0.12422550000E+02  0.10600486402E+03  0.25116468122E+03  0.28449218789E+03  0.80378833857E+02 0.  0.
         23    2    1    2    0    0  0.45561475247E+02 -0.74941759222E+02  0.15246041845E+03  0.19863019312E+03  0.92291164928E+02 0.  0.
        -11    1    3    3    0    0  0.20170528542E+02  0.80102522988E+02  0.94505467003E+02  0.12551712116E+03  0.00000000000E+00 0.  1.
         12    1    3    3    0    0 -0.77479785426E+01  0.25902341037E+02  0.15665921422E+03  0.15897506673E+03  0.00000000000E+00 0. -1.
        -11    1    4    4    0    0  0.69510330099E+02 -0.52488538383E+02  0.76683133325E+02  0.11604755744E+03  0.00000000000E+00 0. -1.
         11    1    4    4    0    0 -0.23948854852E+02 -0.22453220839E+02  0.75777285123E+02  0.82582635677E+02  0.00000000000E+00 0.  1.
          1    1    1    2  501    0 -0.57984025247E+02 -0.31063104803E+02 -0.81565270891E+02  0.10478529038E+03  0.00000000000E+00 0. -1.
<scales pt_clust_5="13000.00000" pt_clust_6="13000.00000" pt_clust_7="13000.00000" pt_clust_8="13000.00000" pt_clust_9="65.78042"></scales>
<clustering>
<clus scale="   65.780">  2  9  1 -1</clus>
<clus scale="   80.379">  5  6 -1 -1</clus>
<clus scale="   92.291">  7  8 -1 -1</clus>
<clus scale="  123.482">  1  5  2 -1</clus>
<clus scale="   65.780">  2  5  1 -1</clus>
</clustering>
</event>
<event>
 9    2  0.6175212E-005  0.9414171E+02  0.7546771E-02  0.1294376E+00
          2   -1    0    0  502    0 -0.00000000000E+00  0.00000000000E+00  0.77140115871E+03  0.77140115871E+03  0.00000000000E+00 0. -1.
         21   -1    0    0  501  502  0.00000000000E+00 -0.00000000000E+00 -0.47626639018E+02  0.47626639018E+02  0.00000000000E+00 0. -1.
         24    2    1    2    0    0 -0.17429192804E+02 -0.25096009662E+02  0.48910940074E+03  0.49830440217E+03  0.90253447959E+02 0.  0.
         23    2    1    2    0    0  0.36047242291E+02 -0.12375440348E+02  0.25627934842E+03  0.27362863738E+03  0.87982791291E+02 0.  0.
        -11    1    3    3    0    0 -0.30754806200E+02 -0.22519308822E+02  0.76488397647E+02  0.85460238408E+02  0.00000000000E+00 0.  1.
         12    1    3    3    0    0  0.13325613397E+02 -0.25767008395E+01  0.41262100309E+03  0.41284416376E+03  0.00000000000E+00 0. -1.
        -13    1    4    4    0    0  0.38853732400E+02  0.32141397495E+02  0.15401977972E+03  0.16206410614E+03  0.00000000000E+00 0.  1.
         13    1    4    4    0    0 -0.28064901088E+01 -0.44516837843E+02  0.10225956870E+03  0.11156453123E+03  0.00000000000E+00 0. -1.
          1    1    1    2  501    0 -0.18618049487E+02  0.37471450009E+02 -0.21614229471E+02  0.47094758181E+02  0.00000000000E+00 0. -1.
<scales pt_clust_5="13000.00000" pt_clust_6="13000.00000" pt_clust_7="13000.00000" pt_clust_8="13000.00000" pt_clust_9="41.84186"></scales>
<clustering>
<clus scale="   41.842">  2  9  1 -1</clus>
<clus scale="   87.983">  7  8 -1 -1</clus>
<clus scale="   90.253">  5  6 -1 -1</clus>
<clus scale="   91.967">  2  7  1 -1</clus>
<clus scale="   41.842">  2  5  1 -1</clus>
</clustering>
</event>
<event>
 9    2  0.6175212E-005  0.1036840E+03  0.7546771E-02  0.1275061E+00
         21   -1    0    0  501  502  0.00000000000E+00  0.00000000000E+00  0.60318396824E+02  0.60318396824E+02  0.00000000000E+00 0. -1.
          2   -1    0    0  502    0 -0.00000000000E+00 -0.00000000000E+00 -0.42574858659E+03  0.42574858659E+03  0.00000000000E+00 0. -1.
         24    2    1    2    0    0  0.14127277797E+02  0.52542007565E+02 -0.27181620232E+03  0.28924359861E+03  0.82568571231E+02 0.  0.
         23    2    1    2    0    0 -0.57135299017E+02 -0.37761384564E+02 -0.10138501433E+03  0.15068722151E+03  0.87962225057E+02 0.  0.
        -13    1    3    3    0    0 -0.27328981073E+02  0.23170870549E+02 -0.48963434432E+02  0.60672731601E+02  0.00000000000E+00 0.  1.
         14    1    3    3    0    0  0.41456258870E+02  0.29371137016E+02 -0.22285276789E+03  0.22857086700E+03  0.00000000000E+00 0. -1.
        -13    1    4    4    0    0 -0.57645290183E+02 -0.32405347101E+01 -0.18063271950E+02  0.60495969609E+02  0.00000000000E+00 0.  1.
         13    1    4    4    0    0  0.50999116532E+00 -0.34520849854E+02 -0.83321742382E+02  0.90191251900E+02  0.00000000000E+00 0. -1.
          1    1    1    2  501    0  0.43008021220E+02 -0.14780623001E+02  0.77710268794E+01  0.46136163303E+02  0.00000000000E+00 0. -1.
<scales pt_clust_5="13000.00000" pt_clust_6="13000.00000" pt_clust_7="13000.00000" pt_clust_8="13000.00000" pt_clust_9="45.47699"></scales>
<clustering>
<clus scale="   45.477">  1  9  2 -1</clus>
<clus scale="   82.569">  5  6 -1 -1</clus>
<clus scale="   87.962">  7  8 -1 -1</clus>
<clus scale="   99.149">  2  5  1 -1</clus>
<clus scale="   45.477">  1  5  2 -1</clus>
</clustering>
</event>
<event>
 9    2  0.6175212E-005  0.1809744E+03  0.7546771E-02  0.1168540E+00
         21   -1    0    0  501  502  0.00000000000E+00  0.00000000000E+00  0.16597313889E+03  0.16597313889E+03  0.00000000000E+00 0. -1.
          2   -1    0    0  502    0 -0.00000000000E+00 -0.00000000000E+00 -0.65893381175E+03  0.65893381175E+03  0.00000000000E+00 0. -1.
         23    2    1    2    0    0  0.15241121297E+03 -0.51796601928E+02 -0.46234520120E+03  0.49867507030E+03  0.94877156624E+02 0.  0.
         24    2    1    2    0    0 -0.13537942963E+03  0.36860880957E+02 -0.14022999591E+03  0.21430109222E+03  0.81081390363E+02 0.  0.
        -11    1    4    4    0    0 -0.53826738906E+02  0.51795282523E+02 -0.91545067335E+02  0.11815484953E+03  0.00000000000E+00 0.  1.
         12    1    4    4    0    0 -0.81552690725E+02 -0.14934401566E+02 -0.48684928570E+02  0.96146242696E+02  0.00000000000E+00 0. -1.
        -11    1    3    3    0    0  0.58638515180E+02 -0.63732962066E+02 -0.28282494662E+03  0.29578762034E+03  0.00000000000E+00 0.  1.
         11    1    3    3    0    0  0.93772697786E+02  0.11936360138E+02 -0.17952025459E+03  0.20288744996E+03  0.00000000000E+00 0. -1.
          1    1    1    2  501    0 -0.17031783335E+02  0.14935720971E+02  0.10961452425E+03  0.11193078813E+03  0.00000000000E+00 0. -1.
<scales pt_clust_5="13000.00000" pt_clust_6="13000.00000" pt_clust_7="13000.00000" pt_clust_8="13000.00000" pt_clust_9="22.65298"></scales>
<clustering>
<clus scale="   22.653">  1  9  2 -1</clus>
<clus scale="   81.081">  5  6 -1 -1</clus>
<clus scale="   94.877">  7  8 -1 -1</clus>
<clus scale="  174.139">  1  5  2 -1</clus>
<clus scale="   22.653">  1  5  2 -1</clus>
</clustering>
</event>
<event>
 9    2  0.6175212E-005  0.9411137E+02  0.7546771E-02  0.1298831E+00
          2   -1    0    0  502    0 -0.00000000000E+00  0.00000000000E+00  0.55646816049E+03  0.55646816049E+03  0.00000000000E+00 0. -1.
         21   -1    0    0  501  502  0.00000000000E+00 -0.00000000000E+00 -0.77521790029E+02  0.77521790029E+02  0.00000000000E+00 0.  1.
         24    2    1    2    0    0  0.23281509936E+02 -0.52413815648E+01  0.50365158977E+03  0.51070115668E+03  0.81124883818E+02 0.  0.
         23    2    1    2    0    0 -0.31858166609E+02  0.24697336010E+02 -0.22547322395E+02  0.10191709007E+03  0.90850483302E+02 0.  0.
        -13    1    3    3    0    0 -0.29927722913E+01 -0.39919967606E+02  0.20205043081E+03  0.20597800147E+03  0.00000000000E+00 0.  1.
         14    1    3    3    0    0  0.26274282228E+02  0.34678586041E+02  0.30160115895E+03  0.30472315521E+03  0.00000000000E+00 0. -1.
        -11    1    4    4    0    0 -0.30541058168E+02 -0.63627058008E+01  0.28430226774E+02  0.42208033045E+02  0.00000000000E+00 0. -1.
         11    1    4    4    0    0 -0.13171084413E+01  0.31060041810E+02 -0.50977549169E+02  0.59709057028E+02  0.00000000000E+00 0.  1.
          1    1    1    2  501    0  0.85766566726E+01 -0.19455954445E+02 -0.21578969046E+01  0.21371703771E+02  0.00000000000E+00 0. -1.
<scales pt_clust_5="13000.00000" pt_clust_6="13000.00000" pt_clust_7="13000.00000" pt_clust_8="13000.00000" pt_clust_9="21.26248"></scales>
<clustering>
<clus scale="   21.262">  2  9  1 -1</clus>
<clus scale="   81.125">  5  6 -1 -1</clus>
<clus scale="   84.761">  1  5  2 -1</clus>
<clus scale="   90.850">  7  8 -1 -1</clus>
<clus scale="   21.262">  2  5  1 -1</clus>
</clustering>
</event>
<event>
 9    2  0.6175212E-005  0.1194721E+03  0.7546771E-02  0.1249197E+00
         21   -1    0    0  501  502  0.00000000000E+00  0.00000000000E+00  0.20436990087E+02  0.20436990087E+02  0.00000000000E+00 0.  1.
          2   -1    0    0  502    0 -0.00000000000E+00 -0.00000000000E+00 -0.10343540610E+04  0.10343540610E+04  0.00000000000E+00 0. -1.
         24    2    1    2    0    0  0.63221603211E+02 -0.27318382647E+02 -0.46768118723E+03  0.47914445058E+03  0.78169344960E+02 0.  0.
         23    2    1    2    0    0 -0.91103439471E+02 -0.67166387076E+01 -0.33135611405E+03  0.35630874497E+03  0.93883425096E+02 0.  0.
        -11    1    3    3    0    0  0.21193158218E+02  0.21346761774E+02 -0.68446914715E+02  0.74765060874E+02  0.00000000000E+00 0.  1.
         12    1    3    3    0    0  0.42028444993E+02 -0.48665144420E+02 -0.39923427251E+03  0.40437938970E+03  0.00000000000E+00 0. -1.
        -11    1    4    4    0    0 -0.65064884078E+02 -0.74143780050E+01 -0.32206212270E+03  0.32865243498E+03  0.00000000000E+00 0. -1.
         11    1    4    4    0    0 -0.26038555394E+02  0.69773929733E+00 -0.92939913476E+01  0.27656309990E+02  0.00000000000E+00 0.  1.
          1    1    1    2  501    0  0.27881836261E+02  0.34035021354E+02 -0.21487976963E+03  0.21933785553E+03  0.00000000000E+00 0. -1.
<scales pt_clust_5="13000.00000" pt_clust_6="13000.00000" pt_clust_7="13000.00000" pt_clust_8="13000.00000" pt_clust_9="43.99752"></scales>
<clustering>
<clus scale="   43.998">  1  9  2 -1</clus>
<clus scale="   78.169">  5  6 -1 -1</clus>
<clus scale="   93.883">  7  8 -1 -1</clus>
<clus scale="  107.564">  2  5  1 -1</clus>
<clus scale="   43.998">  1  5  2 -1</clus>
</clustering>
</event>
<event>
 9    2  0.6175212E-005  0.1300549E+03  0.7546771E-02  0.1229077E+00
          4   -1    0    0  502    0 -0.00000000000E+00  0.00000000000E+00  0.29472431053E+03  0.29472431053E+03  0.00000000000E+00 0. -1.
         21   -1    0    0  501  502  0.00000000000E+00 -0.00000000000E+00 -0.27509418673E+03  0.27509418673E+03  0.00000000000E+00 0. -1.
         23    2    1    2    0    0  0.81331000565E+02 -0.29960250192E+02  0.42176429542E+02  0.13279472970E+03  0.91341342136E+02 0.  0.
         24    2    1    2    0    0 -0.58284073188E+02  0.14814764711E+03 -0.16916881326E+03  0.24729348172E+03  0.84801062447E+02 0.  0.
        -11    1    4    4    0    0  0.91994032380E+01  0.92298957417E+02 -0.84952682937E+02  0.12578030410E+03  0.00000000000E+00 0.  1.
         12    1    4    4    0    0 -0.67483476426E+02  0.55848689693E+02 -0.84216130322E+02  0.12151317763E+03  0.00000000000E+00 0. -1.
        -13    1    3    3    0    0  0.25714458568E+02 -0.57526158286E+02  0.13615496942E+02  0.64466068778E+02  0.00000000000E+00 0.  1.
         13    1    3    3    0    0  0.55616541997E+02  0.27565908095E+02  0.28560932600E+02  0.68328660924E+02  0.00000000000E+00 0. -1.
          3    1    1    2  501    0 -0.23046927377E+02 -0.11818739692E+03  0.14662250752E+03  0.18973028584E+03  0.00000000000E+00 0. -1.
<scales pt_clust_5="13000.00000" pt_clust_6="13000.00000" pt_clust_7="13000.00000" pt_clust_8="13000.00000" pt_clust_9="120.41360"></scales>
<clustering>
<clus scale="   84.801">  5  6 -1 -1</clus>
<clus scale="   91.341">  7  8 -1 -1</clus>
<clus scale="  120.414">  2  9  1 -1</clus>
<clus scale="  125.548">  2  5  1 -1</clus>
<clus scale="  120.414">  2  5  1 -1</clus>
</clustering>
</event>
<event>
 9    2  0.6175212E-005  0.1078273E+03  0.7546771E-02  0.1271264E+00
         21   -1    0    0  501  502  0.00000000000E+00  0.00000000000E+00  0.16359288965E+03  0.16359288965E+03  0.00000000000E+00 0. -1.
          2   -1    0    0  502    0 -0.00000000000E+00 -0.00000000000E+00 -0.14081197684E+03  0.14081197684E+03  0.00000000000E+00 0. -1.
         24    2    1    2    0    0  0.53498272227E+02  0.37197085848E+02 -0.56838557548E+02  0.11388359432E+03  0.74115876192E+02 0.  0.
         23    2    1    2    0    0 -0.50231168835E+02  0.15301239544E+02  0.88954238298E+02  0.13709949734E+03  0.90144979929E+02 0.  0.
        -13    1    3    3    0    0  0.28324527126E+02  0.53482483319E+02 -0.58073454309E+02  0.83875985563E+02  0.00000000000E+00 0.  1.
         14    1    3    3    0    0  0.25173745101E+02 -0.16285397470E+02  0.12348967605E+01  0.30007608755E+02  0.00000000000E+00 0. -1.
        -13    1    4    4    0    0  0.24601308120E+02  0.90580283150E+01  0.97864544130E+01  0.27982975684E+02  0.00000000000E+00 0.  1.
         13    1    4    4    0    0 -0.74832476955E+02  0.62432112289E+01  0.79167783885E+02  0.10911652166E+03  0.00000000000E+00 0. -1.
          1    1    1    2  501    0 -0.32671033920E+01 -0.52498325392E+02 -0.93347679378E+01  0.53421774830E+02  0.00000000000E+00 0. -1.
<scales pt_clust_5="13000.00000" pt_clust_6="13000.00000" pt_clust_7="13000.00000" pt_clust_8="13000.00000" pt_clust_9="52.59991"></scales>
<clustering>
<clus scale="   52.600">  1  9  2 -1</clus>
<clus scale="   74.116">  5  6 -1 -1</clus>
<clus scale="   90.145">  7  8 -1 -1</clus>
<clus scale="   94.835">  2  5  1 -1</clus>
<clus scale="   52.600">  1  5  2 -1</clus>
</clustering>
</event>
<event>
 9    2  0.6175212E-005  0.2488093E+03  0.7546771E-02  0.1114060E+00
         21   -1    0    0  501  502  0.00000000000E+00  0.00000000000E+00  0.37892109473E+03  0.37892109473E+03  0.00000000000E+00 0.  1.
         -1   -1    0    0    0  501 -0.00000000000E+00 -0.00000000000E+00 -0.10916311284E+03  0.10916311284E+03  0.00000000000E+00 0.  1.
         24    2    1    2    0    0  0.93105270233E+02  0.81059722087E+01  0.66871764561E+02  0.14232546025E+03  0.83966693449E+02 0.  0.
         23    2    1    2    0    0  0.60929827912E+02 -0.42906505535E+02  0.10135858006E+03  0.15802023313E+03  0.95621232891E+02 0.  0.
        -11    1    3    3    0    0  0.49389155895E+02  0.39595355371E+02  0.61373535105E+02  0.88169108526E+02  0.00000000000E+00 0.  1.
         12    1    3    3    0    0  0.43716114338E+02 -0.31489383162E+02  0.54982294562E+01  0.54156351722E+02  0.00000000000E+00 0. -1.
        -13    1    4    4    0    0  0.41189344599E+02  0.14303516139E+02  0.45336051694E+01  0.43837270197E+02  0.00000000000E+00 0. -1.
         13    1    4    4    0    0  0.19740483313E+02 -0.57210021674E+02  0.96824974890E+02  0.11418296293E+03  0.00000000000E+00 0.  1.
         -2    1    1    2    0  502 -0.15403509815E+03  0.34800533326E+02  0.10152763728E+03  0.18773851419E+03  0.00000000000E+00 0.  1.
<scales pt_clust_5="13000.00000" pt_clust_6="13000.00000" pt_clust_7="13000.00000" pt_clust_8="13000.00000" pt_clust_9="157.91743"></scales>
<clustering>
<clus scale="   83.967">  5  6 -1 -1</clus>
<clus scale="   95.621">  7  8 -1 -1</clus>
<clus scale="  112.013">  5  7 -1 -1</clus>
<clus scale="  157.917">  1  9  2 -1</clus>
<clus scale="  157.917">  1  5  2 -1</clus>
</clustering>
</event>
<event>
 9    2  0.6175212E-005  0.9457458E+02  0.7546771E-02  0.1299219E+00
         21   -1    0    0  501  502  0.00000000000E+00  0.00000000000E+00  0.41303915311E+02  0.41303915311E+02  0.00000000000E+00 0.  1.
          2   -1    0    0  502    0 -0.00000000000E+00 -0.00000000000E+00 -0.29154716604E+03  0.29154716604E+03  0.00000000000E+00 0. -1.
         24    2    1    2    0    0  0.56097356059E+01  0.22756018251E+02 -0.16088033076E+03  0.18092275921E+03  0.79380466582E+02 0.  0.
         23    2    1    2    0    0 -0.29545366037E+02 -0.14633040672E+02 -0.75416443515E+02  0.12305963020E+03  0.91482119008E+02 0.  0.
        -13    1    3    3    0    0 -0.35558939201E+02 -0.13109750438E+00 -0.73769483262E+02  0.81892563792E+02  0.00000000000E+00 0.  1.
         14    1    3    3    0    0  0.41168674807E+02  0.22887115755E+02 -0.87110847502E+02  0.99030195423E+02  0.00000000000E+00 0. -1.
        -11    1    4    4    0    0 -0.41218738142E+02 -0.39953016945E+02 -0.19584237099E+02  0.60652867037E+02  0.00000000000E+00 0.  1.
         11    1    4    4    0    0  0.11673372106E+02  0.25319976273E+02 -0.55832206416E+02  0.62406763160E+02  0.00000000000E+00 0. -1.
          1    1    1    2  501    0  0.23935630431E+02 -0.81229775785E+01 -0.13946476446E+02  0.28868691937E+02  0.00000000000E+00 0. -1.
<scales pt_clust_5="13000.00000" pt_clust_6="13000.00000" pt_clust_7="13000.00000" pt_clust_8="13000.00000" pt_clust_9="25.27642"></scales>
<clustering>
<clus scale="   25.276">  1  9  2 -1</clus>
<clus scale="   79.380">  5  6 -1 -1</clus>
<clus scale="   82.925">  2  5  1 -1</clus>
<clus scale="   91.482">  7  8 -1 -1</clus>
<clus scale="   25.276">  1  5  2 -1</clus>
</clustering>
</event>
<event>
 9    2  0.6175212E-005  0.1006652E+03  0.7546771E-02  0.1284012E+00
          2   -1    0    0  502    0 -0.00000000000E+00  0.00000000000E+00  0.70827569369E+03  0.70827569369E+03  0.00000000000E+00 0. -1.
         21   -1    0    0  501  502  0.00000000000E+00 -0.00000000000E+00 -0.20261462803E+02  0.20261462803E+02  0.00000000000E+00 0.  1.
         24    2    1    2    0    0 -0.46352165657E+02 -0.11350572057E+02  0.46538320199E+03  0.47470372732E+03  0.80527916210E+02 0.  0.
         23    2    1    2    0    0  0.26144286584E+02  0.23035603627E+02  0.19232229654E+03  0.21557748066E+03  0.90948456098E+02 0.  0.
        -13    1    3    3    0    0 -0.23195955985E+02 -0.28334802813E+02  0.77037072959E+02  0.85297268624E+02  0.00000000000E+00 0.  1.
         14    1    3    3    0    0 -0.23156209672E+02  0.16984230755E+02  0.38834612903E+03  0.38940645870E+03  0.00000000000E+00 0. -1.
        -13    1    4    4    0    0  0.53851265965E+02  0.19548115298E+02  0.17129277382E+03  0.18061921831E+03  0.00000000000E+00 0.  1.
         13    1    4    4    0    0 -0.27706979381E+02  0.34874883284E+01  0.21029522721E+02  0.34958262359E+02  0.00000000000E+00 0. -1.
          1    1    1    2  501    0  0.20207879074E+02 -0.11685031569E+02  0.30308732349E+02  0.38255948505E+02  0.00000000000E+00 0. -1.
<scales pt_clust_5="13000.00000" pt_clust_6="13000.00000" pt_clust_7="13000.00000" pt_clust_8="13000.00000" pt_clust_9="23.34306"></scales>
<clustering>
<clus scale="   23.343">  2  9  1 -1</clus>
<clus scale="   80.528">  5  6 -1 -1</clus>
<clus scale="   90.948">  7  8 -1 -1</clus>
<clus scale="   91.360">  1  5  2 -1</clus>
<clus scale="   23.343">  2  5  1 -1</clus>
</clustering>
</event>
<event>
 9    2  0.6175212E-005  0.1005774E+03  0.7546771E-02  0.1291262E+00
          2   -1    0    0  502    0 -0.00000000000E+00  0.00000000000E+00  0.41319770597E+03  0.41319770597E+03  0.00000000000E+00 0. -1.
         21   -1    0    0  501  502  0.00000000000E+00 -0.00000000000E+00 -0.51537043904E+02  0.51537043904E+02  0.00000000000E+00 0. -1.
         24    2    1    2    0    0  0.32486893962E+02 -0.34878572980E+01  0.17240350405E+03  0.19273095954E+03  0.79716316570E+02 0.  0.
         23    2    1    2    0    0  0.48388803045E+02 -0.46835335689E+01  0.13060749804E+03  0.17176690785E+03  0.10040986178E+03 0.  0.
        -11    1    3    3    0    0 -0.14679443739E+02 -0.18933087745E+02  0.16425593976E+02  0.29047340972E+02  0.00000000000E+00 0.  1.
         12    1    3    3    0    0  0.47166337701E+02  0.15445230447E+02  0.15597791007E+03  0.16368361856E+03  0.00000000000E+00 0. -1.
        -13    1    4    4    0    0 -0.19098170403E+02  0.94132570328E+01 -0.29198534443E+01  0.21491278809E+02  0.00000000000E+00 0.  1.
         13    1    4    4    0    0  0.67486973448E+02 -0.14096790602E+02  0.13352735148E+03  0.15027562904E+03  0.00000000000E+00 0. -1.
          1    1    1    2  501    0 -0.80875697007E+02  0.81713908669E+01  0.58649659985E+02  0.10023688249E+03  0.00000000000E+00 0. -1.
<scales pt_clust_5="13000.00000" pt_clust_6="13000.00000" pt_clust_7="13000.00000" pt_clust_8="13000.00000" pt_clust_9="81.28745"></scales>
<clustering>
<clus scale="   79.716">  5  6 -1 -1</clus>
<clus scale="   81.287">  2  9  1 -1</clus>
<clus scale="   79.927">  1  5  2 -1</clus>
<clus scale="  100.410">  7  8 -1 -1</clus>
<clus scale="   81.287">  2  5  1 -1</clus>
</clustering>
</event>
<event>
 9    2  0.6175212E-005  0.2451205E+03  0.7546771E-02  0.1117242E+00
          2   -1    0    0  502    0 -0.00000000000E+00  0.00000000000E+00  0.71276182602E+03  0.71276182602E+03  0.00000000000E+00 0. -1.
         21   -1    0    0  501  502  0.00000000000E+00 -0.00000000000E+00 -0.12486923139E+03  0.12486923139E+03  0.00000000000E+00 0. -1.
         23    2    1    2    0    0  0.15955176908E+03  0.16095323451E+03  0.46228901707E+03  0.51872896920E+03  0.63292159636E+02 0.  0.
         24    2    1    2    0    0 -0.16614559551E+03 -0.18466848045E+03  0.90950169405E+02  0.27639620468E+03  0.80100699519E+02 0.  0.
        -13    1    4    4    0    0 -0.50197656655E+02 -0.11407532428E+03  0.53092782631E+02  0.13546891861E+03  0.00000000000E+00 0.  1.
         14    1    4    4    0    0 -0.11594793886E+03 -0.70593156179E+02  0.37857386774E+02  0.14092728607E+03  0.00000000000E+00 0. -1.
        -13    1    3    3    0    0  0.15355825467E+03  0.12769069540E+03  0.37020981520E+03  0.42064279210E+03  0.00000000000E+00 0. -1.
         13    1    3    3    0    0  0.59935144062E+01  0.33262539108E+02  0.92079201864E+02  0.98086177103E+02  0.00000000000E+00 0.  1.
          1    1    1    2  501    0  0.65938264326E+01  0.23715245947E+02  0.34653408165E+02  0.42505883532E+02  0.00000000000E+00 0. -1.
<scales pt_clust_5="13000.00000" pt_clust_6="13000.00000" pt_clust_7="13000.00000" pt_clust_8="13000.00000" pt_clust_9="24.61487"></scales>
<clustering>
<clus scale="   24.615">  2  9  1 -1</clus>
<clus scale="   63.292">  7  8 -1 -1</clus>
<clus scale="   80.101">  5  6 -1 -1</clus>
<clus scale="  240.154">  1  7  2 -1</clus>
<clus scale="   24.615">  2  5  1 -1</clus>
</clustering>
</event>
<event>
 9    2  0.6175212E-005  0.9387099E+02  0.7546771E-02  0.1300009E+00
         21   -1    0    0  501  502  0.00000000000E+00  0.00000000000E+00  0.17161254063E+02  0.17161254063E+02  0.00000000000E+00 0.  1.
          2   -1    0    0  502    0 -0.00000000000E+00 -0.00000000000E+00 -0.14552928187E+04  0.14552928187E+04  0.00000000000E+00 0. -1.
         24    2    1    2    0    0 -0.17096972288E+02  0.13491116819E+02 -0.11418354289E+04  0.11448834478E+04  0.80595568716E+02 0.  0.
         23    2    1    2    0    0  0.33324295038E+01 -0.34619634784E+02 -0.14903929214E+03  0.17817030736E+03  0.91226770324E+02 0.  0.
        -11    1    3    3    0    0 -0.16139504619E+02  0.29839899013E+02 -0.19655743143E+03  0.19946359826E+03  0.00000000000E+00 0.  1.
         12    1    3    3    0    0 -0.95746766968E+00 -0.16348782194E+02 -0.94527799747E+03  0.94541984955E+03  0.00000000000E+00 0. -1.
        -13    1    4    4    0    0 -0.27036381522E+02 -0.30977478260E+02 -0.14053113247E+03  0.14642257093E+03  0.00000000000E+00 0.  1.
         13    1    4    4    0    0  0.30368811026E+02 -0.36421565235E+01 -0.85081596707E+01  0.31747736427E+02  0.00000000000E+00 0. -1.
          1    1    1    2  501    0  0.13764542785E+02  0.21128517965E+02 -0.14725684360E+03  0.14940031760E+03  0.00000000000E+00 0. -1.
<scales pt_clust_5="13000.00000" pt_clust_6="13000.00000" pt_clust_7="13000.00000" pt_clust_8="13000.00000" pt_clust_9="25.21661"></scales>
<clustering>
<clus scale="   25.217">  1  9  2 -1</clus>
<clus scale="   80.596">  5  6 -1 -1</clus>
<clus scale="   83.577">  2  5  1 -1</clus>
<clus scale="   91.227">  7  8 -1 -1</clus>
<clus scale="   25.217">  1  5  2 -1</clus>
</clustering>
</event>
<event>
 9    2  0.6175212E-005  0.9825314E+02  0.7546771E-02  0.1291004E+00
          2   -1    0    0  502    0 -0.00000000000E+00  0.00000000000E+00  0.43670009877E+03  0.43670009877E+03  0.00000000000E+00 0. -1.
         21   -1    0    0  501  502  0.00000000000E+00 -0.00000000000E+00 -0.49572044533E+02  0.49572044533E+02  0.00000000000E+00 0. -1.
         24    2    1    2    0    0  0.18560061769E+02 -0.32699183641E+02  0.28418004080E+03  0.29779479558E+03  0.80682911359E+02 0.  0.
         23    2    1    2    0    0 -0.31788234298E+02 -0.16589960845E+02  0.92633372421E+02  0.13641204131E+03  0.93496442108E+02 0.  0.
        -11    1    3    3    0    0  0.40534523169E+02 -0.28024395578E+02  0.92546122039E+02  0.10484845741E+03  0.00000000000E+00 0.  1.
         12    1    3    3    0    0 -0.21974461401E+02 -0.46747880636E+01  0.19163391876E+03  0.19294633817E+03  0.00000000000E+00 0. -1.
        -13    1    4    4    0    0  0.33406212301E+02 -0.30123582197E+01  0.30692340251E+02  0.45465031314E+02  0.00000000000E+00 0.  1.
         13    1    4    4    0    0 -0.65194446599E+02 -0.13577602626E+02  0.61941032170E+02  0.90947009993E+02  0.00000000000E+00 0. -1.
          1    1    1    2  501    0  0.13228172530E+02  0.49289144487E+02  0.10314641022E+02  0.52065306415E+02  0.00000000000E+00 0. -1.
<scales pt_clust_5="13000.00000" pt_clust_6="13000.00000" pt_clust_7="13000.00000" pt_clust_8="13000.00000" pt_clust_9="51.03336"></scales>
<clustering>
<clus scale="   51.033">  2  9  1 -1</clus>
<clus scale="   80.683">  5  6 -1 -1</clus>
<clus scale="   86.150">  1  5  2 -1</clus>
<clus scale="   93.496">  7  8 -1 -1</clus>
<clus scale="   51.033">  2  5  1 -1</clus>
</clustering>
</event>
<event>
 9    2  0.6175212E-005  0.1104715E+03  0.7546771E-02  0.1261706E+00
         21   -1    0    0  501  502  0.00000000000E+00  0.00000000000E+00  0.99481168898E+02  0.99481168898E+02  0.00000000000E+00 0.  1.
          4   -1    0    0  502    0 -0.00000000000E+00 -0.00000000000E+00 -0.25732611856E+03  0.25732611856E+03  0.00000000000E+00 0. -1.
         23    2    1    2    0    0  0.32421078954E+02  0.49407054753E+01 -0.14433564546E+03  0.18112522362E+03  0.10439363557E+03 0.  0.
         24    2    1    2    0    0 -0.47160231427E+02  0.43756780574E+02  0.10819219250E+02  0.11928556735E+03  0.99866149415E+02 0.  0.
        -11    1    4    4    0    0 -0.36800641682E+02 -0.12050550906E+02  0.39821093645E+02  0.55544779272E+02  0.00000000000E+00 0.  1.
         12    1    4    4    0    0 -0.10359589745E+02  0.55807331481E+02 -0.29001874395E+02  0.63740788080E+02  0.00000000000E+00 0. -1.
        -13    1    3    3    0    0  0.45825698920E+01 -0.30697744398E+02 -0.12497517174E+01  0.31063054217E+02  0.00000000000E+00 0.  1.
         13    1    3    3    0    0  0.27838509062E+02  0.35638449873E+02 -0.14308589374E+03  0.15006216940E+03  0.00000000000E+00 0. -1.
          3    1    1    2  501    0  0.14739152473E+02 -0.48697486050E+02 -0.24328523454E+02  0.56396496493E+02  0.00000000000E+00 0. -1.
<scales pt_clust_5="13000.00000" pt_clust_6="13000.00000" pt_clust_7="13000.00000" pt_clust_8="13000.00000" pt_clust_9="50.87915"></scales>
<clustering>
<clus scale="   50.879">  1  9  2 -1</clus>
<clus scale="   99.866">  5  6 -1 -1</clus>
<clus scale="  104.394">  7  8 -1 -1</clus>
<clus scale="  106.203">  1  5  2 -1</clus>
<clus scale="   50.879">  1  5  2 -1</clus>
</clustering>
</event>
<event>
 9    2  0.6175212E-005  0.9251190E+02  0.7546771E-02  0.1302680E+00
          2   -1    0    0  502    0 -0.00000000000E+00  0.00000000000E+00  0.29752689167E+03  0.29752689167E+03  0.00000000000E+00 0. -1.
         21   -1    0    0  501  502  0.00000000000E+00 -0.00000000000E+00 -0.56482403190E+02  0.56482403190E+02  0.00000000000E+00 0. -1.
         24    2    1    2    0    0  0.14166901552E+02 -0.30929680149E+02  0.14858478351E+03  0.17280238989E+03  0.81399519951E+02 0.  0.
         23    2    1    2    0    0  0.28657316219E+01 -0.69758333913E+01  0.10371001890E+03  0.13815451696E+03  0.90961683513E+02 0.  0.
        -13    1    3    3    0    0  0.24772201079E+02  0.14383797767E+02  0.17184959253E+02  0.33404766262E+02  0.00000000000E+00 0.  1.
         14    1    3    3    0    0 -0.10605299528E+02 -0.45313477916E+02  0.13139982426E+03  0.13939762363E+03  0.00000000000E+00 0. -1.
        -11    1    4    4    0    0 -0.37473732126E+00  0.35830542894E+02  0.13573404153E+02  0.38317170204E+02  0.00000000000E+00 0.  1.
         11    1    4    4    0    0  0.32404689432E+01 -0.42806376286E+02  0.90136614743E+02  0.99837346755E+02  0.00000000000E+00 0. -1.
          1    1    1    2  501    0 -0.17032633174E+02  0.37905513540E+02 -0.11250313929E+02  0.43052388006E+02  0.00000000000E+00 0. -1.
<scales pt_clust_5="13000.00000" pt_clust_6="13000.00000" pt_clust_7="13000.00000" pt_clust_8="13000.00000" pt_clust_9="41.55645"></scales>
<clustering>
<clus scale="   41.556">  2  9  1 -1</clus>
<clus scale="   81.400">  5  6 -1 -1</clus>
<clus scale="   83.128">  1  5  2 -1</clus>
<clus scale="   90.962">  7  8 -1 -1</clus>
<clus scale="   41.556">  2  5  1 -1</clus>
</clustering>
</event>
<event>
 9    2  0.6175212E-005  0.1091468E+03  0.7546771E-02  0.1266556E+00
         21   -1    0    0  501  502  0.00000000000E+00  0.00000000000E+00  0.33276113248E+03  0.33276113248E+03  0.00000000000E+00 0.  1.
         -1   -1    0    0    0  501 -0.00000000000E+00 -0.00000000000E+00 -0.14629606105E+03  0.14629606105E+03  0.00000000000E+00 0.  1.
         24    2    1    2    0    0  0.14391829095E+02 -0.69668773230E+02 -0.93100247789E+02  0.14226219940E+03  0.80684661074E+02 0.  0.
         23    2    1    2    0    0  0.33168321254E+02 -0.62538665469E+01  0.13217259512E+03  0.16431070426E+03  0.91592380972E+02 0.  0.
        -13    1    3    3    0    0  0.35974537333E+02 -0.74306061739E+02 -0.85659043792E+02  0.11896650760E+03  0.00000000000E+00 0.  1.
         14    1    3    3    0    0 -0.21582708238E+02  0.46372885090E+01 -0.74412039972E+01  0.23295691802E+02  0.00000000000E+00 0. -1.
        -13    1    4    4    0    0  0.37459799948E+02  0.37513013482E+02  0.81392955201E+02  0.97135348607E+02  0.00000000000E+00 0. -1.
         13    1    4    4    0    0 -0.42914786947E+01 -0.43766880028E+02  0.50779639920E+02  0.67175355654E+02  0.00000000000E+00 0.  1.
         -2    1    1    2    0  502 -0.47560150349E+02  0.75922639777E+02  0.14739272410E+03  0.17248428987E+03  0.00000000000E+00 0.  1.
<scales pt_clust_5="13000.00000" pt_clust_6="13000.00000" pt_clust_7="13000.00000" pt_clust_8="13000.00000" pt_clust_9="89.58915"></scales>
<clustering>
<clus scale="   80.685">  5  6 -1 -1</clus>
<clus scale="   89.589">  1  9  2 -1</clus>
<clus scale="   91.592">  7  8 -1 -1</clus>
<clus scale="  100.169">  2  5  1 -1</clus>
<clus scale="   89.589">  1  5  2 -1</clus>
</clustering>
</event>
<event>
 9    2  0.6175212E-005  0.9543144E+02  0.7546771E-02  0.1297446E+00
          2   -1    0    0  502    0 -0.00000000000E+00  0.00000000000E+00  0.30694553105E+03  0.30694553105E+03  0.00000000000E+00 0. -1.
         21   -1    0    0  501  502  0.00000000000E+00 -0.00000000000E+00 -0.16608771009E+03  0.16608771009E+03  0.00000000000E+00 0. -1.
         24    2    1    2    0    0 -0.13360755575E+02 -0.25692112045E+02  0.24136590629E+03  0.25596484490E+03  0.80136799863E+02 0.  0.
         23    2    1    2    0    0 -0.55523326698E+00 -0.90998808961E+01  0.16245570013E+02  0.94448848233E+02  0.92593467757E+02 0.  0.
        -11    1    3    3    0    0 -0.47469672835E+01 -0.37692556864E+02  0.44353607827E+02  0.58399529695E+02  0.00000000000E+00 0.  1.
         12    1    3    3    0    0 -0.86137882911E+01  0.12000444818E+02  0.19701229846E+03  0.19756531520E+03  0.00000000000E+00 0. -1.
        -11    1    4    4    0    0  0.42699343692E+02  0.19468098726E+01 -0.82418627437E+01  0.43531050089E+02  0.00000000000E+00 0.  1.
         11    1    4    4    0    0 -0.43254576959E+02 -0.11046690769E+02  0.24487432757E+02  0.50917798144E+02  0.00000000000E+00 0. -1.
          1    1    1    2  501    0  0.13915988842E+02  0.34791992942E+02 -0.11675365534E+03  0.12261954801E+03  0.00000000000E+00 0. -1.
<scales pt_clust_5="13000.00000" pt_clust_6="13000.00000" pt_clust_7="13000.00000" pt_clust_8="13000.00000" pt_clust_9="37.47182"></scales>
<clustering>
<clus scale="   37.472">  2  9  1 -1</clus>
<clus scale="   80.137">  5  6 -1 -1</clus>
<clus scale="   83.400">  1  5  2 -1</clus>
<clus scale="   92.593">  7  8 -1 -1</clus>
<clus scale="   37.472">  2  5  1 -1</clus>
</clustering>
</event>
<event>
 9    2  0.6273532E-005  0.1614460E+03  0.7546771E-02  0.1212714E+00
          2   -1    0    0  502    0 -0.00000000000E+00  0.00000000000E+00  0.56915215063E+03  0.56915215063E+03  0.00000000000E+00 0. -1.
         21   -1    0    0  501  502  0.00000000000E+00 -0.00000000000E+00 -0.11771062492E+03  0.11771062492E+03  0.00000000000E+00 0. -1.
         23    2    1    2    0    0  0.10868942677E+02 -0.31891686604E+01 -0.16067546332E+02  0.93876396157E+02  0.91794918153E+02 0.  0.
         24    2    1    2    0    0 -0.73872011572E+02  0.12103573793E+03  0.77407034539E+02  0.18063119241E+03  0.80802566329E+02 0.  0.
        -11    1    4    4    0    0 -0.23539726972E+02  0.14371508203E+02 -0.14451389791E+02  0.31136821624E+02  0.00000000000E+00 0.  1.
         12    1    4    4    0    0 -0.50332284600E+02  0.10666422972E+03  0.91858424330E+02  0.14949437078E+03  0.00000000000E+00 0. -1.
        -13    1    3    3    0    0  0.42737747712E+02  0.22988532727E+02 -0.19914559226E+02  0.52455480034E+02  0.00000000000E+00 0. -1.
         13    1    3    3    0    0 -0.31868805035E+02 -0.26177701388E+02  0.38470128938E+01  0.41420916123E+02  0.00000000000E+00 0.  1.
          1    1    1    2  501    0  0.63003068895E+02 -0.11784656926E+03  0.39010203749E+03  0.41235518699E+03  0.00000000000E+00 0. -1.
<scales pt_clust_5="13000.00000" pt_clust_6="13000.00000" pt_clust_7="13000.00000" pt_clust_8="13000.00000" pt_clust_9="139.77042"></scales>
<clustering>
<clus scale="   80.803">  5  6 -1 -1</clus>
<clus scale="   91.795">  7  8 -1 -1</clus>
<clus scale="   92.491">  1  7  2 -1</clus>
<clus scale="  139.770">  2  9  1 -1</clus>
<clus scale="  139.770">  2  5  1 -1</clus>
</clustering>
</event>
<event>
 9    2  0.6175212E-005  0.1136212E+03  0.7546771E-02  0.1259181E+00
          2   -1    0    0  502    0 -0.00000000000E+00  0.00000000000E+00  0.12085427340E+04  0.12085427340E+04  0.00000000000E+00 0. -1.
         21   -1    0    0  501  502  0.00000000000E+00 -0.00000000000E+00 -0.15350116911E+02  0.15350116911E+02  0.00000000000E+00 0. -1.
         24    2    1    2    0    0  0.54689292527E+02  0.28909165674E+02  0.73500935215E+03  0.74165512905E+03  0.77375216462E+02 0.  0.
         23    2    1    2    0    0 -0.74673536401E+02 -0.40856956074E+02  0.35192479592E+03  0.37345821121E+03  0.91512543614E+02 0.  0.
        -13    1    3    3    0    0  0.25317930239E+02  0.49568892094E+02  0.29659124769E+03  0.30176885337E+03  0.00000000000E+00 0.  1.
         14    1    3    3    0    0  0.29371362289E+02 -0.20659726420E+02  0.43841810446E+03  0.43988627568E+03  0.00000000000E+00 0. -1.
        -11    1    4    4    0    0 -0.82888694572E+01 -0.53948074185E+02  0.19658840717E+03  0.20402475805E+03  0.00000000000E+00 0. -1.
         11    1    4    4    0    0 -0.66384666944E+02  0.13091118111E+02  0.15533638874E+03  0.16943345315E+03  0.00000000000E+00 0.  1.
          1    1    1    2  501    0  0.19984243874E+02  0.11947790400E+02  0.10625846898E+03  0.10877951061E+03  0.00000000000E+00 0. -1.
<scales pt_clust_5="13000.00000" pt_clust_6="13000.00000" pt_clust_7="13000.00000" pt_clust_8="13000.00000" pt_clust_9="23.28348"></scales>
<clustering>
<clus scale="   23.283">  2  9  1 -1</clus>
<clus scale="   77.375">  5  6 -1 -1</clus>
<clus scale="   91.513">  7  8 -1 -1</clus>
<clus scale="  102.578">  1  5  2 -1</clus>
<clus scale="   23.283">  2  5  1 -1</clus>
</clustering>
</event>
<event>
 9    2  0.6175212E-005  0.1996076E+03  0.7546771E-02  0.1151289E+00
          2   -1    0    0  502    0 -0.00000000000E+00  0.00000000000E+00  0.87963448427E+03  0.87963448427E+03  0.00000000000E+00 0. -1.
         21   -1    0    0  501  502  0.00000000000E+00 -0.00000000000E+00 -0.87935187324E+02  0.87935187324E+02  0.00000000000E+00 0. -1.
         24    2    1    2    0    0 -0.15237546310E+03 -0.55400444312E+02  0.27306728575E+03  0.32729716023E+03  0.79184579082E+02 0.  0.
         23    2    1    2    0    0  0.17305144058E+03  0.12473933656E+03  0.17989103903E+03  0.29389002876E+03  0.92216375511E+02 0.  0.
        -13    1    3    3    0    0 -0.31796896303E+02  0.18302969901E+02  0.80228876422E+02  0.88219691303E+02  0.00000000000E+00 0.  1.
         14    1    3    3    0    0 -0.12057856680E+03 -0.73703414213E+02  0.19283840933E+03  0.23907746893E+03  0.00000000000E+00 0. -1.
        -11    1    4    4    0    0  0.14719450633E+03  0.12934626227E+03  0.12333868225E+03  0.23153640922E+03  0.00000000000E+00 0. -1.
         11    1    4    4    0    0  0.25856934252E+02 -0.46069257062E+01  0.56552356772E+02  0.62353619541E+02  0.00000000000E+00 0.  1.
          1    1    1    2  501    0 -0.20675977475E+02 -0.69338892251E+02  0.33874097217E+03  0.34638248259E+03  0.00000000000E+00 0. -1.
<scales pt_clust_5="13000.00000" pt_clust_6="13000.00000" pt_clust_7="13000.00000" pt_clust_8="13000.00000" pt_clust_9="72.35595"></scales>
<clustering>
<clus scale="   72.356">  2  9  1 -1</clus>
<clus scale="   79.185">  5  6 -1 -1</clus>
<clus scale="   92.216">  7  8 -1 -1</clus>
<clus scale="  193.932">  1  5  2 -1</clus>
<clus scale="   72.356">  2  5  1 -1</clus>
</clustering>
</event>
<event>
 9    2  0.6175212E-005  0.4096940E+03  0.7546771E-02  0.1075129E+00
          2   -1    0    0  502    0 -0.00000000000E+00  0.00000000000E+00  0.20528421868E+04  0.20528421868E+04  0.00000000000E+00 0. -1.
         21   -1    0    0  501  502  0.00000000000E+00 -0.00000000000E+00 -0.18751947964E+03  0.18751947964E+03  0.00000000000E+00 0.  1.
         23    2    1    2    0    0  0.89728642433E+02  0.86466171015E+02 -0.45011341658E+02  0.16107067253E+03  0.91597558205E+02 0.  0.
         24    2    1    2    0    0  0.22716921702E+03 -0.33877205477E+03  0.98603557826E+03  0.10701278877E+04  0.80840436363E+02 0.  0.
        -13    1    4    4    0    0  0.20769957151E+03 -0.26043442042E+03  0.74932514775E+03  0.82003254593E+03  0.00000000000E+00 0.  1.
         14    1    4    4    0    0  0.19469645510E+02 -0.78337634352E+02  0.23671043051E+03  0.25009534175E+03  0.00000000000E+00 0. -1.
        -13    1    3    3    0    0  0.66435239982E+02  0.95141118575E+02 -0.77758685380E+01  0.11630106486E+03  0.00000000000E+00 0.  1.
         13    1    3    3    0    0  0.23293402451E+02 -0.86749475606E+01 -0.37235473120E+02  0.44769607675E+02  0.00000000000E+00 0. -1.
          1    1    1    2  501    0 -0.31689785945E+03  0.25230588376E+03  0.92429847053E+03  0.10091631062E+04  0.00000000000E+00 0. -1.
<scales pt_clust_5="13000.00000" pt_clust_6="13000.00000" pt_clust_7="13000.00000" pt_clust_8="13000.00000" pt_clust_9="401.63913"></scales>
<clustering>
<clus scale="   80.840">  5  6 -1 -1</clus>
<clus scale="   91.598">  7  8 -1 -1</clus>
<clus scale="  154.654">  1  7  2 -1</clus>
<clus scale="  401.639">  2  9  1 -1</clus>
<clus scale="  401.639">  2  5  1 -1</clus>
</clustering>
</event>
<event>
 9    2  0.6175212E-005  0.1443599E+03  0.7546771E-02  0.1210808E+00
          2   -1    0    0  502    0 -0.00000000000E+00  0.00000000000E+00  0.17955728408E+04  0.17955728408E+04  0.00000000000E+00 0. -1.
         21   -1    0    0  501  502  0.00000000000E+00 -0.00000000000E+00 -0.10608659063E+03  0.10608659063E+03  0.00000000000E+00 0. -1.
         24    2    1    2    0    0  0.89226373327E+02 -0.63752021925E+02  0.17237438935E+04  0.17290163200E+04  0.78605077672E+02 0.  0.
         23    2    1    2    0    0 -0.94553655748E+02  0.44239662164E+02 -0.98246561928E+01  0.14092430029E+03  0.94157278094E+02 0.  0.
        -11    1    3    3    0    0  0.22786895123E+02  0.11039943950E+02  0.15222677381E+03  0.15431822192E+03  0.00000000000E+00 0.  1.
         12    1    3    3    0    0  0.66439478204E+02 -0.74791965875E+02  0.15715171197E+04  0.15746980981E+04  0.00000000000E+00 0. -1.
        -13    1    4    4    0    0  0.13873314474E+02  0.27352783928E+02 -0.50790522385E+01  0.31087624785E+02  0.00000000000E+00 0.  1.
         13    1    4    4    0    0 -0.10842697022E+03  0.16886878236E+02 -0.47456039543E+01  0.10983667550E+03  0.00000000000E+00 0. -1.
          1    1    1    2  501    0  0.53272824219E+01  0.19512359761E+02 -0.24432987162E+02  0.31718811187E+02  0.00000000000E+00 0. -1.
<scales pt_clust_5="13000.00000" pt_clust_6="13000.00000" pt_clust_7="13000.00000" pt_clust_8="13000.00000" pt_clust_9="20.22652"></scales>
<clustering>
<clus scale="   20.227">  2  9  1 -1</clus>
<clus scale="   78.605">  5  6 -1 -1</clus>
<clus scale="   94.157">  7  8 -1 -1</clus>
<clus scale="  134.733">  1  5  2 -1</clus>
<clus scale="   20.227">  2  5  1 -1</clus>
</clustering>
</event>
<event>
 9    2  0.6175212E-005  0.1509453E+03  0.7546771E-02  0.1201312E+00
         21   -1    0    0  501  502  0.00000000000E+00  0.00000000000E+00  0.24395072778E+02  0.24395072778E+02  0.00000000000E+00 0. -1.
          2   -1    0    0  502    0 -0.00000000000E+00 -0.00000000000E+00 -0.17703963555E+04  0.17703963555E+04  0.00000000000E+00 0. -1.
         24    2    1    2    0    0 -0.78162766034E+02 -0.14554303787E+03 -0.98723926655E+03  0.10042199027E+04  0.80771589874E+02 0.  0.
         23    2    1    2    0    0  0.18713735825E+02  0.62840716145E+02 -0.29638682223E+03  0.31711119862E+03  0.91734423126E+02 0.  0.
        -11    1    3    3    0    0 -0.24123241523E+02 -0.12252880312E+03 -0.64529496741E+03  0.65726770295E+03  0.00000000000E+00 0.  1.
         12    1    3    3    0    0 -0.54039524511E+02 -0.23014234753E+02 -0.34194429915E+03  0.34695219977E+03  0.00000000000E+00 0. -1.
        -11    1    4    4    0    0  0.18862966187E+02 -0.19338336190E+02 -0.11247845026E+03  0.11567706995E+03  0.00000000000E+00 0.  1.
         11    1    4    4    0    0 -0.14923036172E+00  0.82179052335E+02 -0.18390837197E+03  0.20143412867E+03  0.00000000000E+00 0. -1.
          1    1    1    2  501    0  0.59449030208E+02  0.82702321724E+02 -0.46237519393E+03  0.47346032693E+03  0.00000000000E+00 0. -1.
<scales pt_clust_5="13000.00000" pt_clust_6="13000.00000" pt_clust_7="13000.00000" pt_clust_8="13000.00000" pt_clust_9="101.85220"></scales>
<clustering>
<clus scale="   80.772">  5  6 -1 -1</clus>
<clus scale="   91.734">  7  8 -1 -1</clus>
<clus scale="  101.852">  1  9  2 -1</clus>
<clus scale="  144.545">  2  5  1 -1</clus>
<clus scale="  101.852">  1  5  2 -1</clus>
</clustering>
</event>
<event>
 9    2  0.6175212E-005  0.9957710E+02  0.7546771E-02  0.1282932E+00
          2   -1    0    0  502    0 -0.00000000000E+00  0.00000000000E+00  0.12169854422E+03  0.12169854422E+03  0.00000000000E+00 0. -1.
         21   -1    0    0  501  502  0.00000000000E+00 -0.00000000000E+00 -0.14461471680E+03  0.14461471680E+03  0.00000000000E+00 0. -1.
         24    2    1    2    0    0 -0.34418815379E+02 -0.45144477598E+02  0.22588983771E+02  0.10476326120E+03  0.85102291391E+02 0.  0.
         23    2    1    2    0    0 -0.20024187184E+02  0.40589799068E+02 -0.21746542310E+02  0.10197435576E+03  0.88754477457E+02 0.  0.
        -13    1    3    3    0    0 -0.61938565547E+02 -0.27201039754E+02  0.58739472533E+01  0.67902766675E+02  0.00000000000E+00 0.  1.
         14    1    3    3    0    0  0.27519750168E+02 -0.17943437844E+02  0.16715036518E+02  0.36860494527E+02  0.00000000000E+00 0. -1.
        -13    1    4    4    0    0  0.17224076414E+02  0.53767635760E+02  0.83637485125E+00  0.56465272394E+02  0.00000000000E+00 0.  1.
         13    1    4    4    0    0 -0.37248263598E+02 -0.13177836693E+02 -0.22582917161E+02  0.45509083362E+02  0.00000000000E+00 0. -1.
          1    1    1    2  501    0  0.54443002563E+02  0.45546785303E+01 -0.23758614047E+02  0.59575644067E+02  0.00000000000E+00 0. -1.
<scales pt_clust_5="13000.00000" pt_clust_6="13000.00000" pt_clust_7="13000.00000" pt_clust_8="13000.00000" pt_clust_9="54.63319"></scales>
<clustering>
<clus scale="   54.633">  2  9  1 -1</clus>
<clus scale="   85.102">  5  6 -1 -1</clus>
<clus scale="   88.754">  7  8 -1 -1</clus>
<clus scale="   96.336">  1  5  2 -1</clus>
<clus scale="   54.633">  2  5  1 -1</clus>
</clustering>
</event>
<event>
 9    2  0.6175212E-005  0.1313301E+03  0.7546771E-02  0.1228487E+00
         21   -1    0    0  501  502  0.00000000000E+00  0.00000000000E+00  0.60957175596E+02  0.60957175596E+02  0.00000000000E+00 0.  1.
         -1   -1    0    0    0  501 -0.00000000000E+00 -0.00000000000E+00 -0.51542559123E+03  0.51542559123E+03  0.00000000000E+00 0.  1.
         23    2    1    2    0    0  0.74314721948E+02  0.43123515836E+02 -0.22770759898E+03  0.26014844990E+03  0.91892055365E+02 0.  0.
         24    2    1    2    0    0 -0.10042636345E+03 -0.25447456117E+02 -0.24641646252E+03  0.27907781920E+03  0.80189330150E+02 0.  0.
        -13    1    4    4    0    0 -0.84413904920E+01  0.23599217503E+02 -0.31851026121E+02  0.40529840922E+02  0.00000000000E+00 0.  1.
         14    1    4    4    0    0 -0.91984972963E+02 -0.49046673621E+02 -0.21456543639E+03  0.23854797828E+03  0.00000000000E+00 0. -1.
        -13    1    3    3    0    0  0.25355349443E+02  0.16162898222E+00 -0.22331323580E+01  0.25454012443E+02  0.00000000000E+00 0. -1.
         13    1    3    3    0    0  0.48959372505E+02  0.42961886854E+02 -0.22547446662E+03  0.23469443746E+03  0.00000000000E+00 0.  1.
         -2    1    1    2    0  502  0.26111641507E+02 -0.17676059719E+02  0.19655645855E+02  0.37156497727E+02  0.00000000000E+00 0.  1.
<scales pt_clust_5="13000.00000" pt_clust_6="13000.00000" pt_clust_7="13000.00000" pt_clust_8="13000.00000" pt_clust_9="31.53190"></scales>
<clustering>
<clus scale="   31.532">  1  9  2 -1</clus>
<clus scale="   80.189">  5  6 -1 -1</clus>
<clus scale="   91.892">  7  8 -1 -1</clus>
<clus scale="  123.425">  1  5  2 -1</clus>
<clus scale="   31.532">  1  5  2 -1</clus>
</clustering>
</event>
<event>
 9    2  0.6175212E-005  0.1076554E+03  0.7546771E-02  0.1268924E+00
          2   -1    0    0  502    0 -0.00000000000E+00  0.00000000000E+00  0.50828763048E+03  0.50828763048E+03  0.00000000000E+00 0. -1.
         21   -1    0    0  501  502  0.00000000000E+00 -0.00000000000E+00 -0.89343962169E+02  0.89343962169E+02  0.00000000000E+00 0.  1.
         24    2    1    2    0    0  0.28035030770E+02  0.52528859776E+02  0.42502476895E+03  0.43669425801E+03  0.80688144692E+02 0.  0.
         23    2    1    2    0    0 -0.59675949387E+02 -0.20183203170E+02 -0.23220522717E+02  0.11255191306E+03  0.90333603012E+02 0.  0.
        -11    1    3    3    0    0  0.28169182930E+02 -0.12766051315E+02  0.84872110323E+02  0.90331334784E+02  0.00000000000E+00 0.  1.
         12    1    3    3    0    0 -0.13415216024E+00  0.65294911091E+02  0.34015265863E+03  0.34636292322E+03  0.00000000000E+00 0. -1.
        -13    1    4    4    0    0 -0.27470318594E+02 -0.20366713853E+02 -0.56625337944E+02  0.66150210385E+02  0.00000000000E+00 0.  1.
         13    1    4    4    0    0 -0.32205630794E+02  0.18351068209E+00  0.33404815227E+02  0.46401702677E+02  0.00000000000E+00 0. -1.
          1    1    1    2  501    0  0.31640918617E+02 -0.32345656605E+02  0.17139422074E+02  0.48385421577E+02  0.00000000000E+00 0. -1.
<scales pt_clust_5="13000.00000" pt_clust_6="13000.00000" pt_clust_7="13000.00000" pt_clust_8="13000.00000" pt_clust_9="45.24809"></scales>
<clustering>
<clus scale="   45.248">  2  9  1 -1</clus>
<clus scale="   80.688">  5  6 -1 -1</clus>
<clus scale="   90.334">  7  8 -1 -1</clus>
<clus scale="   99.700">  1  5  2 -1</clus>
<clus scale="   45.248">  2  5  1 -1</clus>
</clustering>
</event>
<event>
 9    2  0.6175212E-005  0.1206861E+03  0.7546771E-02  0.1249674E+00
          2   -1    0    0  502    0 -0.00000000000E+00  0.00000000000E+00  0.87366504141E+03  0.87366504141E+03  0.00000000000E+00 0. -1.
         21   -1    0    0  501  502  0.00000000000E+00 -0.00000000000E+00 -0.30774872343E+02  0.30774872343E+02  0.00000000000E+00 0.  1.
         24    2    1    2    0    0 -0.54092380565E+02  0.37269784426E+02  0.41742877341E+03  0.43064320382E+03  0.83016658912E+02 0.  0.
         23    2    1    2    0    0  0.58412887155E+02  0.56972886085E+01  0.13490738872E+03  0.18005112769E+03  0.10379730521E+03 0.  0.
        -13    1    3    3    0    0  0.75456360256E+01  0.33513062762E+02  0.72454758460E+02  0.80185747002E+02  0.00000000000E+00 0.  1.
         14    1    3    3    0    0 -0.61638016591E+02  0.37567216641E+01  0.34497401495E+03  0.35045745681E+03  0.00000000000E+00 0. -1.
        -11    1    4    4    0    0  0.84209867581E+01 -0.41986868913E+02  0.83826483412E+02  0.94131235519E+02  0.00000000000E+00 0. -1.
         11    1    4    4    0    0  0.49991900397E+02  0.47684157522E+02  0.51080905313E+02  0.85919892175E+02  0.00000000000E+00 0.  1.
          1    1    1    2  501    0 -0.43205065893E+01 -0.42967073034E+02  0.29055400694E+03  0.29374558225E+03  0.00000000000E+00 0. -1.
<scales pt_clust_5="13000.00000" pt_clust_6="13000.00000" pt_clust_7="13000.00000" pt_clust_8="13000.00000" pt_clust_9="43.18377"></scales>
<clustering>
<clus scale="   43.184">  2  9  1 -1</clus>
<clus scale="   83.017">  5  6 -1 -1</clus>
<clus scale="  103.359">  1  5  2 -1</clus>
<clus scale="  103.797">  7  8 -1 -1</clus>
<clus scale="   43.184">  2  5  1 -1</clus>
</clustering>
</event>
<event>
 9    2  0.6175212E-005  0.9513742E+02  0.7546771E-02  0.1298672E+00
         21   -1    0    0  501  502  0.00000000000E+00  0.00000000000E+00  0.21521029178E+02  0.21521029178E+02  0.00000000000E+00 0.  1.
          2   -1    0    0  502    0 -0.00000000000E+00 -0.00000000000E+00 -0.74416246024E+03  0.74416246024E+03  0.00000000000E+00 0. -1.
         24    2    1    2    0    0 -0.17226195717E+02 -0.11356408233E+02 -0.31208174497E+03  0.32222555955E+03  0.77515068558E+02 0.  0.
         23    2    1    2    0    0 -0.10168066650E+02  0.49793904286E+02 -0.35772664232E+03  0.37261149575E+03  0.91039297323E+02 0.  0.
        -11    1    3    3    0    0 -0.12929028564E+02  0.19407945600E+02 -0.27950492868E+02  0.36401348651E+02  0.00000000000E+00 0.  1.
         12    1    3    3    0    0 -0.42971671526E+01 -0.30764353832E+02 -0.28413125211E+03  0.28582421090E+03  0.00000000000E+00 0. -1.
        -11    1    4    4    0    0 -0.48925460214E+02  0.40043636896E+02 -0.19233208528E+03  0.20245696961E+03  0.00000000000E+00 0.  1.
         11    1    4    4    0    0  0.38757393564E+02  0.97502673900E+01 -0.16539455704E+03  0.17015452614E+03  0.00000000000E+00 0. -1.
          1    1    1    2  501    0  0.27394262367E+02 -0.38437496053E+02 -0.52833043765E+02  0.70846434116E+02  0.00000000000E+00 0. -1.
<scales pt_clust_5="13000.00000" pt_clust_6="13000.00000" pt_clust_7="13000.00000" pt_clust_8="13000.00000" pt_clust_9="47.20049"></scales>
<clustering>
<clus scale="   47.200">  1  9  2 -1</clus>
<clus scale="   77.515">  5  6 -1 -1</clus>
<clus scale="   82.289">  2  5  1 -1</clus>
<clus scale="   91.039">  7  8 -1 -1</clus>
<clus scale="   47.200">  1  5  2 -1</clus>
</clustering>
</event>
<event>
 9    2  0.6175212E-005  0.1116190E+03  0.7546771E-02  0.1261248E+00
          2   -1    0    0  502    0 -0.00000000000E+00  0.00000000000E+00  0.90262064985E+02  0.90262064985E+02  0.00000000000E+00 0. -1.
         21   -1    0    0  501  502  0.00000000000E+00 -0.00000000000E+00 -0.31991153448E+03  0.31991153448E+03  0.00000000000E+00 0. -1.
         23    2    1    2    0    0  0.50923692849E+02 -0.46548008750E+01 -0.25816971835E+02  0.10765079380E+03  0.91144323506E+02 0.  0.
         24    2    1    2    0    0 -0.10645852778E+03 -0.33322999055E+02 -0.18818171699E+03  0.23344764287E+03  0.81496030262E+02 0.  0.
        -11    1    4    4    0    0 -0.30888823431E+02  0.26395117709E+02 -0.42430865728E+02  0.58746914968E+02  0.00000000000E+00 0.  1.
         12    1    4    4    0    0 -0.75569704351E+02 -0.59718116765E+02 -0.14575085126E+03  0.17470072790E+03  0.00000000000E+00 0. -1.
        -13    1    3    3    0    0  0.16222963663E+02 -0.34267862074E+02  0.20110537650E+02  0.42917416578E+02  0.00000000000E+00 0.  1.
         13    1    3    3    0    0  0.34700729187E+02  0.29613061199E+02 -0.45927509485E+02  0.64733377226E+02  0.00000000000E+00 0. -1.
          1    1    1    2  501    0  0.55534834933E+02  0.37977799930E+02 -0.15650780667E+02  0.69075162787E+02  0.00000000000E+00 0. -1.
<scales pt_clust_5="13000.00000" pt_clust_6="13000.00000" pt_clust_7="13000.00000" pt_clust_8="13000.00000" pt_clust_9="67.27879"></scales>
<clustering>
<clus scale="   67.279">  2  9  1 -1</clus>
<clus scale="   81.496">  5  6 -1 -1</clus>
<clus scale="   91.144">  7  8 -1 -1</clus>
<clus scale="  103.890">  2  5  1 -1</clus>
<clus scale="   67.279">  2  5  1 -1</clus>
</clustering>
</event>
<event>
 9    2  0.6175212E-005  0.2444398E+03  0.7546771E-02  0.1139337E+00
          2   -1    0    0  502    0 -0.00000000000E+00  0.00000000000E+00  0.13555013306E+04  0.13555013306E+04  0.00000000000E+00 0. -1.
         21   -1    0    0  501  502  0.00000000000E+00 -0.00000000000E+00 -0.28311504678E+03  0.28311504678E+03  0.00000000000E+00 0. -1.
         24    2    1    2    0    0  0.89344023657E+02 -0.60366439418E+02 -0.47186605257E+02  0.14821737165E+03  0.90085248367E+02 0.  0.
         23    2    1    2    0    0 -0.17713716543E+03 -0.14655509925E+03 -0.88460772070E+02  0.26163153978E+03  0.88146366457E+02 0.  0.
        -13    1    3    3    0    0  0.86063228342E+02 -0.25596513185E+02 -0.63195580271E+02  0.10979864355E+03  0.00000000000E+00 0.  1.
         14    1    3    3    0    0  0.32807953157E+01 -0.34769926233E+02  0.16008975014E+02  0.38418728104E+02  0.00000000000E+00 0. -1.
        -13    1    4    4    0    0 -0.16064461782E+03 -0.13196720011E+03 -0.44709691003E+02  0.21265227863E+03  0.00000000000E+00 0. -1.
         13    1    4    4    0    0 -0.16492547615E+02 -0.14587899144E+02 -0.43751081067E+02  0.48979261150E+02  0.00000000000E+00 0.  1.
          1    1    1    2  501    0  0.87793141775E+02  0.20692153867E+03  0.12080336612E+04  0.12287674660E+04  0.00000000000E+00 0. -1.
<scales pt_clust_5="13000.00000" pt_clust_6="13000.00000" pt_clust_7="13000.00000" pt_clust_8="13000.00000" pt_clust_9="227.99360"></scales>
<clustering>
<clus scale="   88.146">  7  8 -1 -1</clus>
<clus scale="   90.085">  5  6 -1 -1</clus>
<clus scale="  140.506">  1  5  2 -1</clus>
<clus scale="  227.994">  2  9  1 -1</clus>
<clus scale="  227.994">  2  5  1 -1</clus>
</clustering>
</event>
<event>
 9    2  0.6175212E-005  0.9272999E+02  0.7546771E-02  0.1304074E+00
          2   -1    0    0  502    0 -0.00000000000E+00  0.00000000000E+00  0.60126367045E+03  0.60126367045E+03  0.00000000000E+00 0. -1.
         21   -1    0    0  501  502  0.00000000000E+00 -0.00000000000E+00 -0.56456060665E+02  0.56456060665E+02  0.00000000000E+00 0. -1.
         24    2    1    2    0    0 -0.15080343716E+02  0.10097660927E+02  0.48707149311E+03  0.49378636378E+03  0.79100911060E+02 0.  0.
         23    2    1    2    0    0 -0.73090244154E+01 -0.84718549503E+00  0.86609556880E+02  0.12624343964E+03  0.91553542519E+02 0.  0.
        -11    1    3    3    0    0 -0.53798850660E+01  0.40137989850E+02  0.15447389942E+03  0.15969404182E+03  0.00000000000E+00 0.  1.
         12    1    3    3    0    0 -0.97004586498E+01 -0.30040328923E+02  0.33259759369E+03  0.33409232195E+03  0.00000000000E+00 0. -1.
        -13    1    4    4    0    0 -0.49173420765E+02  0.42461367609E+00  0.38479230544E+02  0.62440826306E+02  0.00000000000E+00 0.  1.
         13    1    4    4    0    0  0.41864396350E+02 -0.12717991711E+01  0.48130326336E+02  0.63802613333E+02  0.00000000000E+00 0. -1.
          1    1    1    2  501    0  0.22389368131E+02 -0.92504754319E+01 -0.28873440202E+02  0.37689927701E+02  0.00000000000E+00 0. -1.
<scales pt_clust_5="13000.00000" pt_clust_6="13000.00000" pt_clust_7="13000.00000" pt_clust_8="13000.00000" pt_clust_9="24.22509"></scales>
<clustering>
<clus scale="   24.225">  2  9  1 -1</clus>
<clus scale="   79.101">  5  6 -1 -1</clus>
<clus scale="   80.460">  1  5  2 -1</clus>
<clus scale="   91.554">  7  8 -1 -1</clus>
<clus scale="   24.225">  2  5  1 -1</clus>
</clustering>
</event>
<event>
 9    2  0.6175212E-005  0.9765385E+02  0.7546771E-02  0.1291786E+00
          2   -1    0    0  502    0 -0.00000000000E+00  0.00000000000E+00  0.31932990782E+03  0.31932990782E+03  0.00000000000E+00 0. -1.
         21   -1    0    0  501  502  0.00000000000E+00 -0.00000000000E+00 -0.12018627866E+03  0.12018627866E+03  0.00000000000E+00 0. -1.
         24    2    1    2    0    0 -0.94886844302E+00 -0.33983932720E+02  0.25508649376E+03  0.26937983191E+03  0.79627674246E+02 0.  0.
         23    2    1    2    0    0  0.46673491330E+02  0.26728245089E+02 -0.13120860720E+02  0.10707202109E+03  0.91648496097E+02 0.  0.
        -13    1    3    3    0    0  0.81338501795E+01  0.25059245793E+02  0.65332366442E+02  0.70444612451E+02  0.00000000000E+00 0.  1.
         14    1    3    3    0    0 -0.90827186226E+01 -0.59043178513E+02  0.18975412731E+03  0.19893521945E+03  0.00000000000E+00 0. -1.
        -13    1    4    4    0    0 -0.13674812705E+02 -0.22567522719E+02  0.55013529093E+01  0.26954748525E+02  0.00000000000E+00 0.  1.
         13    1    4    4    0    0  0.60348304035E+02  0.49295767808E+02 -0.18622213629E+02  0.80117272570E+02  0.00000000000E+00 0. -1.
          1    1    1    2  501    0 -0.45724622887E+02  0.72556876316E+01 -0.42822003883E+02  0.63064333484E+02  0.00000000000E+00 0. -1.
<scales pt_clust_5="13000.00000" pt_clust_6="13000.00000" pt_clust_7="13000.00000" pt_clust_8="13000.00000" pt_clust_9="46.29672"></scales>
<clustering>
<clus scale="   46.297">  2  9  1 -1</clus>
<clus scale="   79.628">  5  6 -1 -1</clus>
<clus scale="   86.472">  1  5  2 -1</clus>
<clus scale="   91.648">  7  8 -1 -1</clus>
<clus scale="   46.297">  2  5  1 -1</clus>
</clustering>
</event>
<event>
 9    2  0.6175212E-005  0.1024902E+03  0.7546771E-02  0.1276939E+00
          2   -1    0    0  502    0 -0.00000000000E+00  0.00000000000E+00  0.11913577622E+03  0.11913577622E+03  0.00000000000E+00 0. -1.
         21   -1    0    0  501  502  0.00000000000E+00 -0.00000000000E+00 -0.17275418425E+03  0.17275418425E+03  0.00000000000E+00 0. -1.
         24    2    1    2    0    0 -0.38024872702E+02 -0.62635391784E+01  0.46725073982E+02  0.11622508037E+03  0.99196340164E+02 0.  0.
         23    2    1    2    0    0 -0.72152934592E+00  0.97675555409E+00 -0.39766316127E+02  0.10356198986E+03  0.95615120093E+02 0.  0.
        -13    1    3    3    0    0  0.12842412272E+02 -0.38830159407E+02  0.17788274542E+01  0.40937428591E+02  0.00000000000E+00 0.  1.
         14    1    3    3    0    0 -0.50867284974E+02  0.32566620228E+02  0.44946246528E+02  0.75287651781E+02  0.00000000000E+00 0. -1.
        -11    1    4    4    0    0  0.75644400044E+01  0.22135942615E+02 -0.65310319970E+02  0.69373327746E+02  0.00000000000E+00 0.  1.
         11    1    4    4    0    0 -0.82859693503E+01 -0.21159187061E+02  0.25544003843E+02  0.34188662119E+02  0.00000000000E+00 0. -1.
          1    1    1    2  501    0  0.38746402048E+02  0.52867836243E+01 -0.60577165886E+02  0.72102890231E+02  0.00000000000E+00 0. -1.
<scales pt_clust_5="13000.00000" pt_clust_6="13000.00000" pt_clust_7="13000.00000" pt_clust_8="13000.00000" pt_clust_9="39.10542"></scales>
<clustering>
<clus scale="   39.105">  2  9  1 -1</clus>
<clus scale="   95.615">  7  8 -1 -1</clus>
<clus scale="   99.028">  2  7  1 -1</clus>
<clus scale="   99.196">  5  6 -1 -1</clus>
<clus scale="   39.105">  2  5  1 -1</clus>
</clustering>
</event>
<event>
 9    2  0.6175212E-005  0.1153536E+03  0.7546771E-02  0.1254620E+00
         21   -1    0    0  501  502  0.00000000000E+00  0.00000000000E+00  0.55145747102E+02  0.55145747102E+02  0.00000000000E+00 0.  1.
          2   -1    0    0  502    0 -0.00000000000E+00 -0.00000000000E+00 -0.42220383725E+03  0.42220383725E+03  0.00000000000E+00 0. -1.
         24    2    1    2    0    0  0.44561368167E+02 -0.43650622432E+02 -0.26010172004E+03  0.27965665105E+03  0.81632379227E+02 0.  0.
         23    2    1    2    0    0 -0.67129436558E+02  0.64055432851E+02 -0.10423266417E+03  0.16714636928E+03  0.92000004090E+02 0.  0.
        -13    1    3    3    0    0 -0.56759275068E+01 -0.49892356698E+02 -0.10277862528E+03  0.11438928806E+03  0.00000000000E+00 0.  1.
         14    1    3    3    0    0  0.50237295674E+02  0.62417342657E+01 -0.15732309476E+03  0.16526736299E+03  0.00000000000E+00 0. -1.
        -13    1    4    4    0    0 -0.42046409231E+02 -0.24840474062E+01 -0.14272288307E+01  0.42143896389E+02  0.00000000000E+00 0. -1.
         13    1    4    4    0    0 -0.25083027327E+02  0.66539480258E+02 -0.10280543534E+03  0.12500247289E+03  0.00000000000E+00 0.  1.
          1    1    1    2  501    0  0.22568068391E+02 -0.20404810419E+02 -0.27237059301E+01  0.30546564015E+02  0.00000000000E+00 0. -1.
<scales pt_clust_5="13000.00000" pt_clust_6="13000.00000" pt_clust_7="13000.00000" pt_clust_8="13000.00000" pt_clust_9="30.42489"></scales>
<clustering>
<clus scale="   30.425">  1  9  2 -1</clus>
<clus scale="   81.632">  5  6 -1 -1</clus>
<clus scale="   92.000">  7  8 -1 -1</clus>
<clus scale="  107.267">  2  5  1 -1</clus>
<clus scale="   30.425">  1  5  2 -1</clus>
</clustering>
</event>
<event>
 9    2  0.6175212E-005  0.1162137E+03  0.7546771E-02  0.1252015E+00
         21   -1    0    0  501  502  0.00000000000E+00  0.00000000000E+00  0.88084558846E+02  0.88084558846E+02  0.00000000000E+00 0.  1.
          2   -1    0    0  502    0 -0.00000000000E+00 -0.00000000000E+00 -0.29452169681E+03  0.29452169681E+03  0.00000000000E+00 0. -1.
         23    2    1    2    0    0  0.71501133411E+02 -0.67186574495E+02 -0.99163449479E+02  0.16405188133E+03  0.86331814437E+02 0.  0.
         24    2    1    2    0    0 -0.39372299177E+02  0.25769022767E+02  0.81031431473E+01  0.91828335732E+02  0.78438267686E+02 0.  0.
        -13    1    4    4    0    0 -0.30505332219E+02 -0.20050770461E+02  0.22629494816E+02  0.42950002625E+02  0.00000000000E+00 0.  1.
         14    1    4    4    0    0 -0.88669669581E+01  0.45819793228E+02 -0.14526351668E+02  0.48878333107E+02  0.00000000000E+00 0. -1.
        -13    1    3    3    0    0  0.31409001051E+02 -0.80426889810E+02 -0.79914523149E+02  0.11764922848E+03  0.00000000000E+00 0. -1.
         13    1    3    3    0    0  0.40092132360E+02  0.13240315315E+02 -0.19248926329E+02  0.46402652851E+02  0.00000000000E+00 0.  1.
          1    1    1    2  501    0 -0.32128834234E+02  0.41417551727E+02 -0.11537683163E+03  0.12672603859E+03  0.00000000000E+00 0. -1.
<scales pt_clust_5="13000.00000" pt_clust_6="13000.00000" pt_clust_7="13000.00000" pt_clust_8="13000.00000" pt_clust_9="52.41830"></scales>
<clustering>
<clus scale="   52.418">  1  9  2 -1</clus>
<clus scale="   78.438">  5  6 -1 -1</clus>
<clus scale="   86.332">  7  8 -1 -1</clus>
<clus scale="  110.476">  1  5  2 -1</clus>
<clus scale="   52.418">  1  5  2 -1</clus>
</clustering>
</event>
<event>
 9    2  0.6175212E-005  0.1703997E+03  0.7546771E-02  0.1201833E+00
          2   -1    0    0  502    0 -0.00000000000E+00  0.00000000000E+00  0.78184674111E+03  0.78184674111E+03  0.00000000000E+00 0. -1.
         21   -1    0    0  501  502  0.00000000000E+00 -0.00000000000E+00 -0.10298502904E+03  0.10298502904E+03  0.00000000000E+00 0. -1.
         23    2    1    2    0    0 -0.35638196880E+02 -0.67512870487E+01  0.14149656365E+03  0.17289071981E+03  0.92489256230E+02 0.  0.
         24    2    1    2    0    0  0.51792060055E+02  0.15479894328E+03  0.53273803870E+03  0.56294284245E+03  0.80309997328E+02 0.  0.
        -11    1    4    4    0    0  0.62060766864E+02  0.81963126615E+02  0.37602351826E+03  0.38982454924E+03  0.00000000000E+00 0.  1.
         12    1    4    4    0    0 -0.10268706809E+02  0.72835816662E+02  0.15671452044E+03  0.17311829322E+03  0.00000000000E+00 0. -1.
        -13    1    3    3    0    0 -0.50952401711E+02  0.23307918243E+02  0.12118872974E+03  0.13351447303E+03  0.00000000000E+00 0.  1.
         13    1    3    3    0    0  0.15314204830E+02 -0.30059205292E+02  0.20307833914E+02  0.39376246782E+02  0.00000000000E+00 0. -1.
          1    1    1    2  501    0 -0.16153863175E+02 -0.14804765623E+03  0.46271097268E+01  0.14899820789E+03  0.00000000000E+00 0. -1.
<scales pt_clust_5="13000.00000" pt_clust_6="13000.00000" pt_clust_7="13000.00000" pt_clust_8="13000.00000" pt_clust_9="150.28756"></scales>
<clustering>
<clus scale="   80.310">  5  6 -1 -1</clus>
<clus scale="   92.489">  7  8 -1 -1</clus>
<clus scale="   99.347">  1  7  2 -1</clus>
<clus scale="  150.288">  2  9  1 -1</clus>
<clus scale="  150.288">  2  5  1 -1</clus>
</clustering>
</event>
<event>
 9    2  0.6175212E-005  0.2495953E+03  0.7546771E-02  0.1133391E+00
          2   -1    0    0  502    0 -0.00000000000E+00  0.00000000000E+00  0.20571804150E+03  0.20571804150E+03  0.00000000000E+00 0. -1.
         21   -1    0    0  501  502  0.00000000000E+00 -0.00000000000E+00 -0.56608463015E+03  0.56608463015E+03  0.00000000000E+00 0. -1.
         24    2    1    2    0    0  0.10123575881E+03  0.81968629746E+02 -0.18944142545E+03  0.24317998524E+03  0.79252232925E+02 0.  0.
         23    2    1    2    0    0 -0.27741661439E+03  0.24334163943E+02 -0.12055662693E+03  0.31678084146E+03  0.90906940034E+02 0.  0.
        -13    1    3    3    0    0  0.85275819353E+02  0.19749264247E+02 -0.12069282903E+03  0.14909311783E+03  0.00000000000E+00 0.  1.
         14    1    3    3    0    0  0.15959939454E+02  0.62219365499E+02 -0.68748596415E+02  0.94086867412E+02  0.00000000000E+00 0. -1.
        -13    1    4    4    0    0 -0.77539327644E+02  0.42106331425E+02 -0.61681308735E+02  0.10765627861E+03  0.00000000000E+00 0.  1.
         13    1    4    4    0    0 -0.19987728675E+03 -0.17772167482E+02 -0.58875318192E+02  0.20912456285E+03  0.00000000000E+00 0. -1.
          1    1    1    2  501    0  0.17618085559E+03 -0.10630279369E+03 -0.50368536276E+02  0.21184184494E+03  0.00000000000E+00 0. -1.
<scales pt_clust_5="13000.00000" pt_clust_6="13000.00000" pt_clust_7="13000.00000" pt_clust_8="13000.00000" pt_clust_9="232.45160"></scales>
<clustering>
<clus scale="   79.252">  5  6 -1 -1</clus>
<clus scale="   90.907">  7  8 -1 -1</clus>
<clus scale="  152.475">  1  5  2 -1</clus>
<clus scale="  232.452">  2  9  1 -1</clus>
<clus scale="  232.452">  2  5  1 -1</clus>
</clustering>
</event>
<event>
 9    2  0.6175212E-005  0.1036394E+03  0.7546771E-02  0.1273019E+00
         21   -1    0    0  501  502  0.00000000000E+00  0.00000000000E+00  0.49486101255E+02  0.49486101255E+02  0.00000000000E+00 0. -1.
         -1   -1    0    0    0  501 -0.00000000000E+00 -0.00000000000E+00 -0.66666983633E+03  0.66666983633E+03  0.00000000000E+00 0.  1.
         24    2    1    2    0    0  0.25617462525E+02  0.54975550257E+02 -0.45257837243E+03  0.46411112131E+03  0.83026406771E+02 0.  0.
         23    2    1    2    0    0 -0.51688561508E+02 -0.46239314278E+02 -0.18748729204E+03  0.21627322539E+03  0.82539940443E+02 0.  0.
        -13    1    3    3    0    0  0.40473821332E+02  0.80121433995E+01 -0.10105243371E+03  0.10915090019E+03  0.00000000000E+00 0.  1.
         14    1    3    3    0    0 -0.14856358807E+02  0.46963406858E+02 -0.35152593872E+03  0.35496022111E+03  0.00000000000E+00 0. -1.
        -13    1    4    4    0    0 -0.10361604673E+02  0.23781877131E+02 -0.55294063968E+02  0.61076788073E+02  0.00000000000E+00 0.  1.
         13    1    4    4    0    0 -0.41326956835E+02 -0.70021191409E+02 -0.13219322808E+03  0.15519643732E+03  0.00000000000E+00 0. -1.
         -2    1    1    2    0  502  0.26071098983E+02 -0.87362359796E+01  0.22881929397E+02  0.35771590882E+02  0.00000000000E+00 0.  1.
<scales pt_clust_5="13000.00000" pt_clust_6="13000.00000" pt_clust_7="13000.00000" pt_clust_8="13000.00000" pt_clust_9="27.49589"></scales>
<clustering>
<clus scale="   27.496">  1  9  2 -1</clus>
<clus scale="   82.540">  7  8 -1 -1</clus>
<clus scale="   83.026">  5  6 -1 -1</clus>
<clus scale="  103.250">  1  7  2 -1</clus>
<clus scale="   27.496">  1  5  2 -1</clus>
</clustering>
</event>
<event>
 9    2  0.6175212E-005  0.1446720E+03  0.7546771E-02  0.1210918E+00
         21   -1    0    0  501  502  0.00000000000E+00  0.00000000000E+00  0.55032440318E+03  0.55032440318E+03  0.00000000000E+00 0. -1.
          2   -1    0    0  502    0 -0.00000000000E+00 -0.00000000000E+00 -0.73866254626E+02  0.73866254626E+02  0.00000000000E+00 0. -1.
         24    2    1    2    0    0  0.95597523968E+01 -0.11450326785E+03  0.42211920418E+02  0.14808778848E+03  0.83341224241E+02 0.  0.
         23    2    1    2    0    0  0.32324588553E+02  0.77652513187E+02  0.23244653232E+03  0.26673383302E+03  0.10020357008E+03 0.  0.
        -11    1    3    3    0    0  0.13904758585E+02 -0.11009093332E+03  0.57614472061E+01  0.11111503132E+03  0.00000000000E+00 0.  1.
         12    1    3    3    0    0 -0.43450061882E+01 -0.44123345243E+01  0.36450473212E+02  0.36972757161E+02  0.00000000000E+00 0. -1.
        -11    1    4    4    0    0  0.54532885717E+02  0.97148984390E+01  0.13468339062E+03  0.14562908564E+03  0.00000000000E+00 0. -1.
         11    1    4    4    0    0 -0.22208297164E+02  0.67937614748E+02  0.97763141703E+02  0.12110474737E+03  0.00000000000E+00 0.  1.
          1    1    1    2  501    0 -0.41884340950E+02  0.36850754658E+02  0.20179969582E+03  0.20936903632E+03  0.00000000000E+00 0. -1.
<scales pt_clust_5="13000.00000" pt_clust_6="13000.00000" pt_clust_7="13000.00000" pt_clust_8="13000.00000" pt_clust_9="55.78778"></scales>
<clustering>
<clus scale="   55.788">  1  9  2 -1</clus>
<clus scale="   83.341">  5  6 -1 -1</clus>
<clus scale="  100.204">  7  8 -1 -1</clus>
<clus scale="  133.548">  2  5  1 -1</clus>
<clus scale="   55.788">  1  5  2 -1</clus>
</clustering>
</event>
<event>
 9    2  0.6175212E-005  0.9403000E+02  0.7546771E-02  0.1300248E+00
         21   -1    0    0  501  502  0.00000000000E+00  0.00000000000E+00  0.29212004682E+02  0.29212004682E+02  0.00000000000E+00 0. -1.
          2   -1    0    0  502    0 -0.00000000000E+00 -0.00000000000E+00 -0.63483580447E+03  0.63483580447E+03  0.00000000000E+00 0. -1.
         23    2    1    2    0    0  0.47055090771E+02 -0.45804035939E+01 -0.27607278927E+03  0.29464476480E+03  0.91455949950E+02 0.  0.
         24    2    1    2    0    0  0.25426582479E+02  0.31467399575E+02 -0.17133186923E+03  0.19330704730E+03  0.79851717508E+02 0.  0.
        -11    1    4    4    0    0 -0.20110089692E+02 -0.62251094523E+01 -0.91974808093E+02  0.94353235339E+02  0.00000000000E+00 0.  1.
         12    1    4    4    0    0  0.45536672170E+02  0.37692509027E+02 -0.79357061134E+02  0.98953811957E+02  0.00000000000E+00 0. -1.
        -13    1    3    3    0    0  0.48508150533E+02  0.34674903373E+02 -0.20432075956E+03  0.21284351618E+03  0.00000000000E+00 0. -1.
         13    1    3    3    0    0 -0.14530597622E+01 -0.39255306967E+02 -0.71752029709E+02  0.81801248616E+02  0.00000000000E+00 0.  1.
          1    1    1    2  501    0 -0.72481673250E+02 -0.26886995981E+02 -0.15821914129E+03  0.17609599706E+03  0.00000000000E+00 0. -1.
<scales pt_clust_5="13000.00000" pt_clust_6="13000.00000" pt_clust_7="13000.00000" pt_clust_8="13000.00000" pt_clust_9="77.30785"></scales>
<clustering>
<clus scale="   77.308">  1  9  2 -1</clus>
<clus scale="   79.852">  5  6 -1 -1</clus>
<clus scale="   82.787">  1  5  2 -1</clus>
<clus scale="   91.456">  7  8 -1 -1</clus>
<clus scale="   77.308">  1  5  2 -1</clus>
</clustering>
</event>
<event>
 9    2  0.6175212E-005  0.1725044E+03  0.7546771E-02  0.1176639E+00
          2   -1    0    0  502    0 -0.00000000000E+00  0.00000000000E+00  0.49930591148E+03  0.49930591148E+03  0.00000000000E+00 0. -1.
         21   -1    0    0  501  502  0.00000000000E+00 -0.00000000000E+00 -0.74006835603E+02  0.74006835603E+02  0.00000000000E+00 0.  1.
         24    2    1    2    0    0  0.13439356140E+03 -0.24783666648E+02  0.20341035288E+03  0.25842655456E+03  0.82052745007E+02 0.  0.
         23    2    1    2    0    0 -0.15717879239E+03  0.64057281013E+01  0.21965469510E+03  0.28552795250E+03  0.92367854000E+02 0.  0.
        -13    1    3    3    0    0  0.12067260611E+03  0.10725030097E+02  0.15996085839E+03  0.20065986234E+03  0.00000000000E+00 0.  1.
         14    1    3    3    0    0  0.13720955288E+02 -0.35508696745E+02  0.43449494490E+02  0.57766692219E+02  0.00000000000E+00 0. -1.
        -11    1    4    4    0    0 -0.78240351415E+02  0.15672977318E+02  0.17959283248E+03  0.19652170436E+03  0.00000000000E+00 0.  1.
         11    1    4    4    0    0 -0.78938440976E+02 -0.92672492169E+01  0.40061862617E+02  0.89006248141E+02  0.00000000000E+00 0. -1.
          1    1    1    2  501    0  0.22785230988E+02  0.18377938547E+02  0.22340278982E+01  0.29358240020E+02  0.00000000000E+00 0. -1.
<scales pt_clust_5="13000.00000" pt_clust_6="13000.00000" pt_clust_7="13000.00000" pt_clust_8="13000.00000" pt_clust_9="29.27312"></scales>
<clustering>
<clus scale="   29.273">  2  9  1 -1</clus>
<clus scale="   82.053">  5  6 -1 -1</clus>
<clus scale="   92.368">  7  8 -1 -1</clus>
<clus scale="  167.208">  1  5  2 -1</clus>
<clus scale="   29.273">  2  5  1 -1</clus>
</clustering>
</event>
<event>
 9    2  0.6175212E-005  0.2173478E+03  0.7546771E-02  0.1138405E+00
          2   -1    0    0  502    0 -0.00000000000E+00  0.00000000000E+00  0.24118241629E+03  0.24118241629E+03  0.00000000000E+00 0. -1.
         21   -1    0    0  501  502  0.00000000000E+00 -0.00000000000E+00 -0.34487035421E+03  0.34487035421E+03  0.00000000000E+00 0.  1.
         23    2    1    2    0    0  0.20318368077E+02 -0.19619056736E+03 -0.75698368273E+01  0.22562102857E+03  0.10928847743E+03 0.  0.
         24    2    1    2    0    0 -0.13671940916E+03  0.14491733453E+03 -0.90290552890E+02  0.23310496907E+03  0.80574884267E+02 0.  0.
        -13    1    4    4    0    0 -0.22274837683E+02  0.15996893627E+02 -0.48509804286E+02  0.55724950528E+02  0.00000000000E+00 0.  1.
         14    1    4    4    0    0 -0.11444457148E+03  0.12892044091E+03 -0.41780748605E+02  0.17738001854E+03  0.00000000000E+00 0. -1.
        -13    1    3    3    0    0  0.34660971763E+02 -0.11124485186E+03  0.44764344442E+02  0.12482246017E+03  0.00000000000E+00 0. -1.
         13    1    3    3    0    0 -0.14342603686E+02 -0.84945715501E+02 -0.52334181269E+02  0.10079856840E+03  0.00000000000E+00 0.  1.
          1    1    1    2  501    0  0.11640104108E+03  0.51273232828E+02 -0.58275481998E+01  0.12732677286E+03  0.00000000000E+00 0. -1.
<scales pt_clust_5="13000.00000" pt_clust_6="13000.00000" pt_clust_7="13000.00000" pt_clust_8="13000.00000" pt_clust_9="127.19341"></scales>
<clustering>
<clus scale="   80.575">  5  6 -1 -1</clus>
<clus scale="  109.288">  7  8 -1 -1</clus>
<clus scale="  127.193">  2  9  1 -1</clus>
<clus scale="  204.422">  2  5  1 -1</clus>
<clus scale="  127.193">  2  5  1 -1</clus>
</clustering>
</event>
<event>
 9    2  0.6175212E-005  0.1382386E+03  0.7546771E-02  0.1219611E+00
         21   -1    0    0  501  502  0.00000000000E+00  0.00000000000E+00  0.62245558984E+02  0.62245558984E+02  0.00000000000E+00 0.  1.
          2   -1    0    0  502    0 -0.00000000000E+00 -0.00000000000E+00 -0.60404321527E+03  0.60404321527E+03  0.00000000000E+00 0. -1.
         23    2    1    2    0    0  0.80957657054E+02  0.10097276438E+03 -0.26540807246E+03  0.30924282034E+03  0.91869666489E+02 0.  0.
         24    2    1    2    0    0 -0.83851546196E+01 -0.35969188417E+02 -0.81181189037E+02  0.13887503378E+03  0.10645090991E+03 0.  0.
        -13    1    4    4    0    0  0.26388753052E+02  0.24911083271E+02 -0.50880319384E+02  0.62495881928E+02  0.00000000000E+00 0.  1.
         14    1    4    4    0    0 -0.34773907672E+02 -0.60880271689E+02 -0.30300869654E+02  0.76379151850E+02  0.00000000000E+00 0. -1.
        -13    1    3    3    0    0  0.18898992810E+02  0.67956952659E+02 -0.61581999879E+02  0.93635794721E+02  0.00000000000E+00 0.  1.
         13    1    3    3    0    0  0.62058664244E+02  0.33015811725E+02 -0.20382607259E+03  0.21560702562E+03  0.00000000000E+00 0. -1.
          1    1    1    2  501    0 -0.72572502434E+02 -0.65003575966E+02 -0.19520839478E+03  0.21817092013E+03  0.00000000000E+00 0. -1.
<scales pt_clust_5="13000.00000" pt_clust_6="13000.00000" pt_clust_7="13000.00000" pt_clust_8="13000.00000" pt_clust_9="97.42814"></scales>
<clustering>
<clus scale="   91.870">  7  8 -1 -1</clus>
<clus scale="   97.428">  1  9  2 -1</clus>
<clus scale="  106.451">  5  6 -1 -1</clus>
<clus scale="  127.351">  2  7  1 -1</clus>
<clus scale="   97.428">  1  5  2 -1</clus>
</clustering>
</event>
<event>
 9    2  0.6175212E-005  0.1100031E+03  0.7546771E-02  0.1264527E+00
         21   -1    0    0  501  502  0.00000000000E+00  0.00000000000E+00  0.80832345869E+02  0.80832345869E+02  0.00000000000E+00 0. -1.
          2   -1    0    0  502    0 -0.00000000000E+00 -0.00000000000E+00 -0.28266340979E+03  0.28266340979E+03  0.00000000000E+00 0. -1.
         24    2    1    2    0    0  0.55496118647E+02 -0.43314241890E+02 -0.18601305100E+03  0.21434747373E+03  0.79925225158E+02 0.  0.
         23    2    1    2    0    0 -0.12452277952E+02  0.39407908800E+02  0.85375513701E+01  0.99537545474E+02  0.90148714208E+02 0.  0.
        -11    1    3    3    0    0 -0.43167873757E+01 -0.39103048510E+02 -0.38198909428E+02  0.54834658178E+02  0.00000000000E+00 0.  1.
         12    1    3    3    0    0  0.59812906023E+02 -0.42111933798E+01 -0.14781414157E+03  0.15951281555E+03  0.00000000000E+00 0. -1.
        -13    1    4    4    0    0 -0.32687835126E+02  0.54310701949E+02  0.26439907322E+02  0.68681988983E+02  0.00000000000E+00 0.  1.
         13    1    4    4    0    0  0.20235557174E+02 -0.14902793149E+02 -0.17902355952E+02  0.30855556491E+02  0.00000000000E+00 0. -1.
          1    1    1    2  501    0 -0.43043840695E+02  0.39063330892E+01 -0.24355564296E+02  0.49610736460E+02  0.00000000000E+00 0. -1.
<scales pt_clust_5="13000.00000" pt_clust_6="13000.00000" pt_clust_7="13000.00000" pt_clust_8="13000.00000" pt_clust_9="43.22073"></scales>
<clustering>
<clus scale="   43.221">  1  9  2 -1</clus>
<clus scale="   79.925">  5  6 -1 -1</clus>
<clus scale="   90.149">  7  8 -1 -1</clus>
<clus scale="  101.794">  2  5  1 -1</clus>
<clus scale="   43.221">  1  5  2 -1</clus>
</clustering>
</event>
<event>
 9    2  0.6175212E-005  0.1385148E+03  0.7546771E-02  0.1218758E+00
         21   -1    0    0  501  502  0.00000000000E+00  0.00000000000E+00  0.29532345310E+02  0.29532345310E+02  0.00000000000E+00 0.  1.
          2   -1    0    0  502    0 -0.00000000000E+00 -0.00000000000E+00 -0.10497197328E+04  0.10497197328E+04  0.00000000000E+00 0. -1.
         24    2    1    2    0    0  0.74378892728E+02 -0.34565519075E+02 -0.43396771958E+03  0.44884081466E+03  0.80019375616E+02 0.  0.
         23    2    1    2    0    0 -0.11385388750E+03  0.69450356070E+02 -0.52368164260E+03  0.54864188242E+03  0.94759657478E+02 0.  0.
        -11    1    3    3    0    0  0.72881224694E+01  0.24249522948E+02 -0.10122576097E+03  0.10434467297E+03  0.00000000000E+00 0.  1.
         12    1    3    3    0    0  0.67090770259E+02 -0.58815042023E+02 -0.33274195861E+03  0.34449614170E+03  0.00000000000E+00 0. -1.
        -11    1    4    4    0    0 -0.28005947690E+02 -0.21840418260E+02 -0.78527300858E+02  0.86185114468E+02  0.00000000000E+00 0.  1.
         11    1    4    4    0    0 -0.85847939808E+02  0.91290774330E+02 -0.44515434175E+03  0.46245676795E+03  0.00000000000E+00 0. -1.
          1    1    1    2  501    0  0.39474994769E+02 -0.34884836995E+02 -0.62538025270E+02  0.81769380999E+02  0.00000000000E+00 0. -1.
<scales pt_clust_5="13000.00000" pt_clust_6="13000.00000" pt_clust_7="13000.00000" pt_clust_8="13000.00000" pt_clust_9="52.68042"></scales>
<clustering>
<clus scale="   52.680">  1  9  2 -1</clus>
<clus scale="   80.019">  5  6 -1 -1</clus>
<clus scale="   94.760">  7  8 -1 -1</clus>
<clus scale="  128.880">  2  5  1 -1</clus>
<clus scale="   52.680">  1  5  2 -1</clus>
</clustering>
</event>
<event>
 9    2  0.6175212E-005  0.1102405E+03  0.7546771E-02  0.1264592E+00
          2   -1    0    0  502    0 -0.00000000000E+00  0.00000000000E+00  0.72549940959E+03  0.72549940959E+03  0.00000000000E+00 0. -1.
         21   -1    0    0  501  502  0.00000000000E+00 -0.00000000000E+00 -0.99800985721E+02  0.99800985721E+02  0.00000000000E+00 0. -1.
         24    2    1    2    0    0  0.17387652334E+02 -0.58618256122E+02  0.66960461332E+03  0.67715626958E+03  0.80198783381E+02 0.  0.
         23    2    1    2    0    0 -0.39000625419E+02  0.57357172262E+02 -0.21254341286E+02  0.11681016391E+03  0.91553117782E+02 0.  0.
        -11    1    3    3    0    0  0.39892617577E+02 -0.11312028754E+02  0.17788309914E+03  0.18265207333E+03  0.00000000000E+00 0.  1.
         12    1    3    3    0    0 -0.22504965244E+02 -0.47306227368E+02  0.49172151418E+03  0.49450419626E+03  0.00000000000E+00 0. -1.
        -11    1    4    4    0    0  0.13899221765E+02  0.55008714071E+02  0.63555262376E+01  0.57092378679E+02  0.00000000000E+00 0.  1.
         11    1    4    4    0    0 -0.52899847184E+02  0.23484581907E+01 -0.27609867523E+02  0.59717785228E+02  0.00000000000E+00 0. -1.
          1    1    1    2  501    0  0.21612973085E+02  0.12610838601E+01 -0.22651848163E+02  0.31333961819E+02  0.00000000000E+00 0. -1.
<scales pt_clust_5="13000.00000" pt_clust_6="13000.00000" pt_clust_7="13000.00000" pt_clust_8="13000.00000" pt_clust_9="21.64973"></scales>
<clustering>
<clus scale="   21.650">  2  9  1 -1</clus>
<clus scale="   80.199">  5  6 -1 -1</clus>
<clus scale="   91.553">  7  8 -1 -1</clus>
<clus scale="  101.009">  1  5  2 -1</clus>
<clus scale="   21.650">  2  5  1 -1</clus>
</clustering>
</event>
<event>
 9    2  0.6175212E-005  0.8228261E+02  0.7546771E-02  0.1324169E+00
          2   -1    0    0  502    0 -0.00000000000E+00  0.00000000000E+00  0.28807556936E+03  0.28807556936E+03  0.00000000000E+00 0. -1.
         21   -1    0    0  501  502  0.00000000000E+00 -0.00000000000E+00 -0.71137595720E+02  0.71137595720E+02  0.00000000000E+00 0. -1.
         24    2    1    2    0    0  0.23084822809E+01  0.84651275338E+01  0.21530813904E+03  0.22971152749E+03  0.79578914597E+02 0.  0.
         23    2    1    2    0    0 -0.31953152894E+02  0.55047734460E+01  0.22369321223E+02  0.90719026344E+02  0.81720552483E+02 0.  0.
        -13    1    3    3    0    0  0.46255655753E+01  0.36608407992E+02  0.50741567243E+02  0.62739764415E+02  0.00000000000E+00 0.  1.
         14    1    3    3    0    0 -0.23170832944E+01 -0.28143280458E+02  0.16456657180E+03  0.16697176307E+03  0.00000000000E+00 0. -1.
        -11    1    4    4    0    0 -0.19412961564E+02 -0.33535310766E+02 -0.81582039365E+01  0.39598439822E+02  0.00000000000E+00 0. -1.
         11    1    4    4    0    0 -0.12540191330E+02  0.39040084212E+02  0.30527525160E+02  0.51120586521E+02  0.00000000000E+00 0.  1.
          1    1    1    2  501    0  0.29644670613E+02 -0.13969900980E+02 -0.20739486631E+02  0.38782611243E+02  0.00000000000E+00 0. -1.
<scales pt_clust_5="13000.00000" pt_clust_6="13000.00000" pt_clust_7="13000.00000" pt_clust_8="13000.00000" pt_clust_9="32.77140"></scales>
<clustering>
<clus scale="   32.771">  2  9  1 -1</clus>
<clus scale="   79.579">  5  6 -1 -1</clus>
<clus scale="   80.156">  1  5  2 -1</clus>
<clus scale="   81.721">  7  8 -1 -1</clus>
<clus scale="   32.771">  2  5  1 -1</clus>
</clustering>
</event>
<event>
 9    2  0.6175212E-005  0.9528886E+02  0.7546771E-02  0.1295922E+00
          4   -1    0    0  502    0 -0.00000000000E+00  0.00000000000E+00  0.60330400811E+03  0.60330400811E+03  0.00000000000E+00 0. -1.
         21   -1    0    0  501  502  0.00000000000E+00 -0.00000000000E+00 -0.90428987579E+02  0.90428987579E+02  0.00000000000E+00 0. -1.
         24    2    1    2    0    0 -0.39720784210E+01 -0.32682378114E+02  0.45749801592E+03  0.46560751922E+03  0.80012574868E+02 0.  0.
         23    2    1    2    0    0 -0.79834821810E+02  0.20779404148E+02 -0.83169220076E+01  0.12219062100E+03  0.89755190702E+02 0.  0.
        -11    1    3    3    0    0  0.30173858074E+02 -0.22280442805E+02  0.10873340602E+03  0.11502101298E+03  0.00000000000E+00 0.  1.
         12    1    3    3    0    0 -0.34145936495E+02 -0.10401935308E+02  0.34876460991E+03  0.35058650624E+03  0.00000000000E+00 0. -1.
        -11    1    4    4    0    0 -0.85559982907E+02  0.12207269296E+01  0.19446335455E+02  0.87750560181E+02  0.00000000000E+00 0. -1.
         11    1    4    4    0    0  0.57251610978E+01  0.19558677218E+02 -0.27763257463E+02  0.34440060817E+02  0.00000000000E+00 0.  1.
          3    1    1    2  501    0  0.83806900231E+02  0.11902973966E+02  0.63693926616E+02  0.10593485547E+03  0.00000000000E+00 0. -1.
<scales pt_clust_5="13000.00000" pt_clust_6="13000.00000" pt_clust_7="13000.00000" pt_clust_8="13000.00000" pt_clust_9="84.64796"></scales>
<clustering>
<clus scale="   80.013">  5  6 -1 -1</clus>
<clus scale="   84.648">  2  9  1 -1</clus>
<clus scale="   86.174">  1  5  2 -1</clus>
<clus scale="   89.755">  7  8 -1 -1</clus>
<clus scale="   84.648">  2  5  1 -1</clus>
</clustering>
</event>
<event>
 9    2  0.6175212E-005  0.9261977E+02  0.7546771E-02  0.1302364E+00
          2   -1    0    0  502    0 -0.00000000000E+00  0.00000000000E+00  0.86864182959E+03  0.86864182959E+03  0.00000000000E+00 0. -1.
         21   -1    0    0  501  502  0.00000000000E+00 -0.00000000000E+00 -0.17574251798E+02  0.17574251798E+02  0.00000000000E+00 0.  1.
         24    2    1    2    0    0  0.34508720348E+01 -0.45649679562E+02  0.36242260018E+03  0.37373976369E+03  0.78964980073E+02 0.  0.
         23    2    1    2    0    0  0.10570891449E+01 -0.60464148239E+01  0.19555798124E+03  0.21483089890E+03  0.88722683275E+02 0.  0.
        -13    1    3    3    0    0  0.32359071751E+02 -0.33041581040E+02  0.10960523392E+03  0.11896286355E+03  0.00000000000E+00 0.  1.
         14    1    3    3    0    0 -0.28908199716E+02 -0.12608098522E+02  0.25281736626E+03  0.25477690014E+03  0.00000000000E+00 0. -1.
        -13    1    4    4    0    0 -0.17011111074E+02  0.23784015801E+02  0.16760153791E+03  0.17013327957E+03  0.00000000000E+00 0. -1.
         13    1    4    4    0    0  0.18068200218E+02 -0.29830430625E+02  0.27956443330E+02  0.44697619334E+02  0.00000000000E+00 0.  1.
          1    1    1    2  501    0 -0.45079611797E+01  0.51696094386E+02  0.29308699636E+03  0.29764541879E+03  0.00000000000E+00 0. -1.
<scales pt_clust_5="13000.00000" pt_clust_6="13000.00000" pt_clust_7="13000.00000" pt_clust_8="13000.00000" pt_clust_9="51.89230"></scales>
<clustering>
<clus scale="   51.892">  2  9  1 -1</clus>
<clus scale="   78.965">  5  6 -1 -1</clus>
<clus scale="   83.320">  1  5  2 -1</clus>
<clus scale="   88.723">  7  8 -1 -1</clus>
<clus scale="   51.892">  2  5  1 -1</clus>
</clustering>
</event>
<event>
 9    2  0.6175212E-005  0.1280023E+03  0.7546771E-02  0.1233108E+00
          2   -1    0    0  502    0 -0.00000000000E+00  0.00000000000E+00  0.31308120458E+03  0.31308120458E+03  0.00000000000E+00 0. -1.
         21   -1    0    0  501  502  0.00000000000E+00 -0.00000000000E+00 -0.71791364902E+02  0.71791364902E+02  0.00000000000E+00 0. -1.
         23    2    1    2    0    0 -0.62777330816E+02 -0.83037796529E+02  0.18570304827E+03  0.23110173622E+03  0.89922863771E+02 0.  0.
         24    2    1    2    0    0  0.35347746903E+02  0.59100975331E+02  0.31438092158E+02  0.11008430035E+03  0.79923782750E+02 0.  0.
        -11    1    4    4    0    0  0.29366954610E+02  0.60464006343E+02  0.54301936458E+02  0.86411888008E+02  0.00000000000E+00 0.  1.
         12    1    4    4    0    0  0.59807922935E+01 -0.13630310120E+01 -0.22863844300E+02  0.23672412343E+02  0.00000000000E+00 0. -1.
        -13    1    3    3    0    0 -0.77930963918E+02 -0.65424954002E+02  0.18063235144E+03  0.20732029840E+03  0.00000000000E+00 0. -1.
         13    1    3    3    0    0  0.15153633103E+02 -0.17612842527E+02  0.50706968296E+01  0.23781437812E+02  0.00000000000E+00 0.  1.
          1    1    1    2  501    0  0.27429583912E+02  0.23936821198E+02  0.24148699253E+02  0.43686532917E+02  0.00000000000E+00 0. -1.
<scales pt_clust_5="13000.00000" pt_clust_6="13000.00000" pt_clust_7="13000.00000" pt_clust_8="13000.00000" pt_clust_9="36.40540"></scales>
<clustering>
<clus scale="   36.405">  2  9  1 -1</clus>
<clus scale="   79.924">  5  6 -1 -1</clus>
<clus scale="   89.923">  7  8 -1 -1</clus>
<clus scale="  121.187">  2  5  1 -1</clus>
<clus scale="   36.405">  2  5  1 -1</clus>
</clustering>
</event>
<event>
 9    2  0.6175212E-005  0.1427743E+03  0.7546771E-02  0.1213942E+00
         21   -1    0    0  501  502  0.00000000000E+00  0.00000000000E+00  0.54760345585E+02  0.54760345585E+02  0.00000000000E+00 0.  1.
          2   -1    0    0  502    0 -0.00000000000E+00 -0.00000000000E+00 -0.63059631561E+03  0.63059631561E+03  0.00000000000E+00 0. -1.
         24    2    1    2    0    0  0.82036956869E+02 -0.84374051011E+02 -0.38253884799E+03  0.40838332103E+03  0.81190663852E+02 0.  0.
         23    2    1    2    0    0 -0.49651638383E+02  0.61904845796E+02 -0.19971974246E+03  0.23703683945E+03  0.10000496288E+03 0.  0.
        -13    1    3    3    0    0  0.17560773445E+02 -0.15406420637E+02 -0.12510069373E+02  0.26499818802E+02  0.00000000000E+00 0.  1.
         14    1    3    3    0    0  0.64476183424E+02 -0.68967630374E+02 -0.37002877861E+03  0.38188350222E+03  0.00000000000E+00 0. -1.
        -13    1    4    4    0    0 -0.14503354803E+02  0.70130944410E+02 -0.18440784822E+03  0.19782555737E+03  0.00000000000E+00 0. -1.
         13    1    4    4    0    0 -0.35148283580E+02 -0.82260986140E+01 -0.15311894239E+02  0.39211282078E+02  0.00000000000E+00 0.  1.
          1    1    1    2  501    0 -0.32385318486E+02  0.22469205214E+02  0.64226204220E+01  0.39936500717E+02  0.00000000000E+00 0. -1.
<scales pt_clust_5="13000.00000" pt_clust_6="13000.00000" pt_clust_7="13000.00000" pt_clust_8="13000.00000" pt_clust_9="39.41667"></scales>
<clustering>
<clus scale="   39.417">  1  9  2 -1</clus>
<clus scale="   81.191">  5  6 -1 -1</clus>
<clus scale="  100.005">  7  8 -1 -1</clus>
<clus scale="  130.290">  2  5  1 -1</clus>
<clus scale="   39.417">  1  5  2 -1</clus>
</clustering>
</event>
<event>
 9    2  0.6175212E-005  0.1486575E+03  0.7546771E-02  0.1225897E+00
         21   -1    0    0  501  502  0.00000000000E+00  0.00000000000E+00  0.61729293979E+02  0.61729293979E+02  0.00000000000E+00 0. -1.
          2   -1    0    0  502    0 -0.00000000000E+00 -0.00000000000E+00 -0.84652355517E+03  0.84652355517E+03  0.00000000000E+00 0. -1.
         24    2    1    2    0    0 -0.50968505255E+01  0.30974034384E+02 -0.49959052038E+03  0.50759672601E+03  0.84133105898E+02 0.  0.
         23    2    1    2    0    0 -0.11445012547E+03 -0.32931205869E+02 -0.21615782931E+03  0.26258857487E+03  0.89695356277E+02 0.  0.
        -13    1    3    3    0    0  0.98877128131E+01  0.57819141864E+02 -0.30447955980E+03  0.31007841325E+03  0.00000000000E+00 0.  1.
         14    1    3    3    0    0 -0.14984563339E+02 -0.26845107479E+02 -0.19511096059E+03  0.19751831276E+03  0.00000000000E+00 0. -1.
        -13    1    4    4    0    0 -0.87580079401E+02  0.17119169901E+02 -0.10532806753E+03  0.13804831797E+03  0.00000000000E+00 0. -1.
         13    1    4    4    0    0 -0.26870046073E+02 -0.50050375770E+02 -0.11082976178E+03  0.12454025689E+03  0.00000000000E+00 0.  1.
          1    1    1    2  501    0  0.11954697600E+03  0.19571714844E+01 -0.69045911497E+02  0.13806754827E+03  0.00000000000E+00 0. -1.
<scales pt_clust_5="13000.00000" pt_clust_6="13000.00000" pt_clust_7="13000.00000" pt_clust_8="13000.00000" pt_clust_9="118.54865"></scales>
<clustering>
<clus scale="   84.133">  5  6 -1 -1</clus>
<clus scale="   89.695">  7  8 -1 -1</clus>
<clus scale="   89.798">  2  5  1 -1</clus>
<clus scale="  118.549">  1  9  2 -1</clus>
<clus scale="  118.549">  1  5  2 -1</clus>
</clustering>
</event>
<event>
 9    2  0.6175212E-005  0.1846217E+03  0.7546771E-02  0.1169516E+00
          2   -1    0    0  502    0 -0.00000000000E+00  0.00000000000E+00  0.21866241177E+04  0.21866241177E+04  0.00000000000E+00 0. -1.
         21   -1    0    0  501  502  0.00000000000E+00 -0.00000000000E+00 -0.11170962906E+03  0.11170962906E+03  0.00000000000E+00 0. -1.
         24    2    1    2    0    0 -0.65450822513E+02  0.12198164704E+03  0.20385058083E+04  0.20448566936E+04  0.82277788860E+02 0.  0.
         23    2    1    2    0    0  0.93837473870E+02 -0.89766547648E+02  0.76681752282E+02  0.19460825891E+03  0.12299910050E+03 0.  0.
        -11    1    3    3    0    0 -0.26122470547E+02  0.13388866856E+02  0.15136528468E+03  0.15418526074E+03  0.00000000000E+00 0.  1.
         12    1    3    3    0    0 -0.39328351966E+02  0.10859278018E+03  0.18871405236E+04  0.18906714329E+04  0.00000000000E+00 0. -1.
        -11    1    4    4    0    0  0.17472325215E+02 -0.47175937333E+02 -0.28506812392E+02  0.57822915565E+02  0.00000000000E+00 0.  1.
         11    1    4    4    0    0  0.76365148655E+02 -0.42590610316E+02  0.10518856467E+03  0.13678534335E+03  0.00000000000E+00 0. -1.
          1    1    1    2  501    0 -0.28386651357E+02 -0.32215099390E+02 -0.40273071976E+02  0.58868794199E+02  0.00000000000E+00 0. -1.
<scales pt_clust_5="13000.00000" pt_clust_6="13000.00000" pt_clust_7="13000.00000" pt_clust_8="13000.00000" pt_clust_9="42.93733"></scales>
<clustering>
<clus scale="   42.937">  2  9  1 -1</clus>
<clus scale="   82.278">  5  6 -1 -1</clus>
<clus scale="  122.999">  7  8 -1 -1</clus>
<clus scale="  160.393">  1  5  2 -1</clus>
<clus scale="   42.937">  2  5  1 -1</clus>
</clustering>
</event>
<event>
 9    2  0.6175212E-005  0.1296896E+03  0.7546771E-02  0.1234886E+00
         -1   -1    0    0    0  501 -0.00000000000E+00  0.00000000000E+00  0.18002937095E+03  0.18002937095E+03  0.00000000000E+00 0.  1.
         21   -1    0    0  501  502  0.00000000000E+00 -0.00000000000E+00 -0.25307920199E+03  0.25307920199E+03  0.00000000000E+00 0.  1.
         23    2    1    2    0    0 -0.77853820568E+02 -0.21183762248E+02  0.11755147656E+03  0.17582932312E+03  0.10289621989E+03 0.  0.
         24    2    1    2    0    0  0.74410575280E+02 -0.22858201482E+02 -0.18011818145E+03  0.21187609530E+03  0.79934281648E+02 0.  0.
        -13    1    4    4    0    0  0.84577228089E+02 -0.34031433856E+02 -0.17214274489E+03  0.19479366165E+03  0.00000000000E+00 0.  1.
         14    1    4    4    0    0 -0.10166652809E+02  0.11173232374E+02 -0.79754365579E+01  0.17082433647E+02  0.00000000000E+00 0. -1.
        -13    1    3    3    0    0  0.25292296661E+02 -0.92107084012E+00  0.18039245740E+02  0.31079945765E+02  0.00000000000E+00 0. -1.
         13    1    3    3    0    0 -0.10314611723E+03 -0.20262691408E+02  0.99512230819E+02  0.14474937736E+03  0.00000000000E+00 0.  1.
         -2    1    1    2    0  502  0.34432452887E+01  0.44041963730E+02 -0.10483126154E+02  0.45403154530E+02  0.00000000000E+00 0.  1.
<scales pt_clust_5="13000.00000" pt_clust_6="13000.00000" pt_clust_7="13000.00000" pt_clust_8="13000.00000" pt_clust_9="44.17636"></scales>
<clustering>
<clus scale="   44.176">  2  9  1 -1</clus>
<clus scale="   79.934">  5  6 -1 -1</clus>
<clus scale="  102.896">  7  8 -1 -1</clus>
<clus scale="  112.344">  2  5  1 -1</clus>
<clus scale="   44.176">  2  5  1 -1</clus>
</clustering>
</event>
<event>
 9    2  0.6175212E-005  0.9309489E+02  0.7546771E-02  0.1299770E+00
         21   -1    0    0  501  502  0.00000000000E+00  0.00000000000E+00  0.31433160287E+03  0.31433160287E+03  0.00000000000E+00 0. -1.
          2   -1    0    0  502    0 -0.00000000000E+00 -0.00000000000E+00 -0.10478849076E+03  0.10478849076E+03  0.00000000000E+00 0. -1.
         23    2    1    2    0    0 -0.58609730844E+01  0.27773001493E+02 -0.47876819040E+02  0.10501381313E+03  0.89050662711E+02 0.  0.
         24    2    1    2    0    0 -0.22785519184E+02 -0.25212381278E+02  0.44075205126E+02  0.98831687431E+02  0.81671504696E+02 0.  0.
        -11    1    4    4    0    0  0.29524208500E+02 -0.16164381359E+02  0.78488959244E+01  0.34562570499E+02  0.00000000000E+00 0.  1.
         12    1    4    4    0    0 -0.52309727684E+02 -0.90479999197E+01  0.36226309201E+02  0.64269116932E+02  0.00000000000E+00 0. -1.
        -13    1    3    3    0    0  0.29613287815E+02  0.26007925694E+02  0.66195029603E+01  0.39964694838E+02  0.00000000000E+00 0.  1.
         13    1    3    3    0    0 -0.35474260899E+02  0.17650757992E+01 -0.54496322000E+02  0.65049118291E+02  0.00000000000E+00 0. -1.
          1    1    1    2  501    0  0.28646492268E+02 -0.25606202145E+01  0.21334472603E+03  0.21527459307E+03  0.00000000000E+00 0. -1.
<scales pt_clust_5="13000.00000" pt_clust_6="13000.00000" pt_clust_7="13000.00000" pt_clust_8="13000.00000" pt_clust_9="28.76071"></scales>
<clustering>
<clus scale="   28.761">  1  9  2 -1</clus>
<clus scale="   81.672">  5  6 -1 -1</clus>
<clus scale="   86.063">  1  5  2 -1</clus>
<clus scale="   89.051">  7  8 -1 -1</clus>
<clus scale="   28.761">  1  5  2 -1</clus>
</clustering>
</event>
<event>
 9    2  0.6175212E-005  0.9586860E+02  0.7546771E-02  0.1294724E+00
          2   -1    0    0  502    0 -0.00000000000E+00  0.00000000000E+00  0.30012702595E+03  0.30012702595E+03  0.00000000000E+00 0. -1.
         21   -1    0    0  501  502  0.00000000000E+00 -0.00000000000E+00 -0.56203598740E+02  0.56203598740E+02  0.00000000000E+00 0. -1.
         24    2    1    2    0    0 -0.27819061590E+02 -0.13971948313E+02  0.16310072748E+03  0.18462788028E+03  0.80724787677E+02 0.  0.
         23    2    1    2    0    0  0.94012829210E+01  0.42306725997E+02  0.20507029190E+02  0.10256480757E+03  0.90668397583E+02 0.  0.
        -13    1    3    3    0    0 -0.66528947406E+01 -0.29277762388E+02  0.13772277619E+02  0.33032166288E+02  0.00000000000E+00 0.  1.
         14    1    3    3    0    0 -0.21166166850E+02  0.15305814075E+02  0.14932844986E+03  0.15159571399E+03  0.00000000000E+00 0. -1.
        -13    1    4    4    0    0 -0.13627653815E+02 -0.18566663043E+02  0.28886207959E+02  0.36943834875E+02  0.00000000000E+00 0.  1.
         13    1    4    4    0    0  0.23028936736E+02  0.60873389040E+02 -0.83791787684E+01  0.65620972694E+02  0.00000000000E+00 0. -1.
          1    1    1    2  501    0  0.18417778669E+02 -0.28334777684E+02  0.60315670537E+02  0.69137936836E+02  0.00000000000E+00 0. -1.
<scales pt_clust_5="13000.00000" pt_clust_6="13000.00000" pt_clust_7="13000.00000" pt_clust_8="13000.00000" pt_clust_9="33.79461"></scales>
<clustering>
<clus scale="   33.795">  2  9  1 -1</clus>
<clus scale="   80.725">  5  6 -1 -1</clus>
<clus scale="   86.525">  1  5  2 -1</clus>
<clus scale="   90.668">  7  8 -1 -1</clus>
<clus scale="   33.795">  2  5  1 -1</clus>
</clustering>
</event>
<event>
 9    2  0.6175212E-005  0.1029817E+03  0.7546771E-02  0.1279005E+00
         21   -1    0    0  501  502  0.00000000000E+00  0.00000000000E+00  0.68240059225E+02  0.68240059225E+02  0.00000000000E+00 0. -1.
          2   -1    0    0  502    0 -0.00000000000E+00 -0.00000000000E+00 -0.33835124552E+03  0.33835124552E+03  0.00000000000E+00 0. -1.
         24    2    1    2    0    0  0.69924755333E+01 -0.69271735768E+02 -0.17867046404E+03  0.20788020172E+03  0.80271884593E+02 0.  0.
         23    2    1    2    0    0  0.27036558568E+02 -0.89599802194E+00 -0.29807387895E+02  0.99312139593E+02  0.90788999255E+02 0.  0.
        -11    1    3    3    0    0 -0.18732760958E+01 -0.22744300412E+02  0.22331398742E+00  0.22822406396E+02  0.00000000000E+00 0.  1.
         12    1    3    3    0    0  0.88657516291E+01 -0.46527435356E+02 -0.17889377803E+03  0.18505779533E+03  0.00000000000E+00 0. -1.
        -13    1    4    4    0    0  0.85299494211E+01  0.32539838892E+02  0.17964273268E+02  0.38135498768E+02  0.00000000000E+00 0.  1.
         13    1    4    4    0    0  0.18506609147E+02 -0.33435836914E+02 -0.47771661163E+02  0.61176640824E+02  0.00000000000E+00 0. -1.
          1    1    1    2  501    0 -0.34029034101E+02  0.70167733790E+02 -0.61633334356E+02  0.99398963430E+02  0.00000000000E+00 0. -1.
<scales pt_clust_5="13000.00000" pt_clust_6="13000.00000" pt_clust_7="13000.00000" pt_clust_8="13000.00000" pt_clust_9="77.98388"></scales>
<clustering>
<clus scale="   77.984">  1  9  2 -1</clus>
<clus scale="   80.272">  5  6 -1 -1</clus>
<clus scale="   90.789">  7  8 -1 -1</clus>
<clus scale="   93.841">  2  5  1 -1</clus>
<clus scale="   77.984">  1  5  2 -1</clus>
</clustering>
</event>
<event>
 9    2  0.6175212E-005  0.9926844E+02  0.7546771E-02  0.1286081E+00
          2   -1    0    0  502    0 -0.00000000000E+00  0.00000000000E+00  0.55834484860E+03  0.55834484860E+03  0.00000000000E+00 0. -1.
         21   -1    0    0  501  502  0.00000000000E+00 -0.00000000000E+00 -0.87085888155E+02  0.87085888155E+02  0.00000000000E+00 0. -1.
         23    2    1    2    0    0 -0.42069975820E+02  0.89362516069E+01  0.38307356571E+03  0.39539147495E+03  0.87973417892E+02 0.  0.
         24    2    1    2    0    0  0.56313646273E+02  0.37636141588E+02  0.14283960347E+03  0.17683439525E+03  0.79243580895E+02 0.  0.
        -11    1    4    4    0    0  0.18932552497E+02 -0.23437366917E+02  0.25988918149E+02  0.39789138953E+02  0.00000000000E+00 0.  1.
         12    1    4    4    0    0  0.37381093776E+02  0.61073508505E+02  0.11685068532E+03  0.13704525629E+03  0.00000000000E+00 0. -1.
        -13    1    3    3    0    0 -0.10042014769E+02 -0.37871806415E+02  0.11858178313E+03  0.12488696919E+03  0.00000000000E+00 0.  1.
         13    1    3    3    0    0 -0.32027961051E+02  0.46808058022E+02  0.26449178258E+03  0.27050450576E+03  0.00000000000E+00 0. -1.
          1    1    1    2  501    0 -0.14243670453E+02 -0.46572393194E+02 -0.54654208735E+02  0.73204866561E+02  0.00000000000E+00 0. -1.
<scales pt_clust_5="13000.00000" pt_clust_6="13000.00000" pt_clust_7="13000.00000" pt_clust_8="13000.00000" pt_clust_9="48.70185"></scales>
<clustering>
<clus scale="   48.702">  2  9  1 -1</clus>
<clus scale="   79.244">  5  6 -1 -1</clus>
<clus scale="   87.973">  7  8 -1 -1</clus>
<clus scale="   91.621">  2  5  1 -1</clus>
<clus scale="   48.702">  2  5  1 -1</clus>
</clustering>
</event>
<event>
 9    2  0.6175212E-005  0.1022404E+03  0.7546771E-02  0.1276965E+00
          2   -1    0    0  502    0 -0.00000000000E+00  0.00000000000E+00  0.48298138127E+03  0.48298138127E+03  0.00000000000E+00 0. -1.
         21   -1    0    0  501  502  0.00000000000E+00 -0.00000000000E+00 -0.31550924823E+02  0.31550924823E+02  0.00000000000E+00 0.  1.
         23    2    1    2    0    0  0.44237623235E+02 -0.51865491239E+02  0.20959939144E+03  0.23663568823E+03  0.86125185422E+02 0.  0.
         24    2    1    2    0    0 -0.34597850557E+02  0.21689246144E+02  0.11752488147E+03  0.14961739799E+03  0.83101343875E+02 0.  0.
        -11    1    4    4    0    0  0.79351101606E+01 -0.26733762858E+02  0.30523410899E+02  0.41344149075E+02  0.00000000000E+00 0.  1.
         12    1    4    4    0    0 -0.42532960718E+02  0.48423009002E+02  0.87001470573E+02  0.10827324891E+03  0.00000000000E+00 0. -1.
        -13    1    3    3    0    0 -0.60347093924E+01 -0.31098600022E+02  0.15901678473E+02  0.35445789863E+02  0.00000000000E+00 0.  1.
         13    1    3    3    0    0  0.50272332627E+02 -0.20766891217E+02  0.19369771296E+03  0.20118989837E+03  0.00000000000E+00 0. -1.
          1    1    1    2  501    0 -0.96397726781E+01  0.30176245095E+02  0.12430618353E+03  0.12827921987E+03  0.00000000000E+00 0. -1.
<scales pt_clust_5="13000.00000" pt_clust_6="13000.00000" pt_clust_7="13000.00000" pt_clust_8="13000.00000" pt_clust_9="31.67857"></scales>
<clustering>
<clus scale="   31.679">  2  9  1 -1</clus>
<clus scale="   83.101">  5  6 -1 -1</clus>
<clus scale="   86.125">  7  8 -1 -1</clus>
<clus scale="   99.707">  2  5  1 -1</clus>
<clus scale="   31.679">  2  5  1 -1</clus>
</clustering>
</event>
<event>
 9    2  0.1264909E-004  0.3175671E+03  0.7546771E-02  0.1077136E+00
         21   -1    0    0  501  502  0.00000000000E+00  0.00000000000E+00  0.57440299410E+03  0.57440299410E+03  0.00000000000E+00 0. -1.
          2   -1    0    0  502    0 -0.00000000000E+00 -0.00000000000E+00 -0.88944428952E+03  0.88944428952E+03  0.00000000000E+00 0. -1.
         23    2    1    2    0    0  0.28823948885E+03  0.10979404382E+03 -0.79342225800E+03  0.85608812558E+03  0.90726315238E+02 0.  0.
         24    2    1    2    0    0 -0.21182840068E+03 -0.11510585327E+03  0.46537944106E+03  0.53006804351E+03  0.79205288947E+02 0.  0.
        -11    1    4    4    0    0 -0.13693731601E+03 -0.93330975100E+02  0.24065204082E+03  0.29219155391E+03  0.00000000000E+00 0.  1.
         12    1    4    4    0    0 -0.74891084668E+02 -0.21774878171E+02  0.22472740025E+03  0.23787648960E+03  0.00000000000E+00 0. -1.
        -13    1    3    3    0    0  0.37996123611E+02  0.12940434000E+02 -0.21155594261E+03  0.21533015835E+03  0.00000000000E+00 0. -1.
         13    1    3    3    0    0  0.25024336524E+03  0.96853609824E+02 -0.58186631539E+03  0.64075796723E+03  0.00000000000E+00 0.  1.
          1    1    1    2  501    0 -0.76411088175E+02  0.53118094471E+01  0.13001521521E+02  0.77691114534E+02  0.00000000000E+00 0. -1.
<scales pt_clust_5="13000.00000" pt_clust_6="13000.00000" pt_clust_7="13000.00000" pt_clust_8="13000.00000" pt_clust_9="76.59549"></scales>
<clustering>
<clus scale="   76.595">  1  9  2 -1</clus>
<clus scale="   79.205">  5  6 -1 -1</clus>
<clus scale="   90.726">  7  8 -1 -1</clus>
<clus scale="  314.470">  1  5  2 -1</clus>
<clus scale="   76.595">  1  5  2 -1</clus>
</clustering>
</event>
<event>
 9    2  0.6175212E-005  0.1268273E+03  0.7546771E-02  0.1235814E+00
          2   -1    0    0  502    0 -0.00000000000E+00  0.00000000000E+00  0.10285267734E+03  0.10285267734E+03  0.00000000000E+00 0. -1.
         21   -1    0    0  501  502  0.00000000000E+00 -0.00000000000E+00 -0.39872817006E+03  0.39872817006E+03  0.00000000000E+00 0.  1.
         24    2    1    2    0    0  0.65605629413E+02 -0.53495618964E+02  0.43003943340E+02  0.12372308869E+03  0.79323285822E+02 0.  0.
         23    2    1    2    0    0 -0.71764562898E+02  0.78677629383E+02 -0.27591918662E+03  0.30976914644E+03  0.92115170784E+02 0.  0.
        -11    1    3    3    0    0 -0.11225232148E+02 -0.21626415486E+02 -0.85979109514E+01  0.25838571096E+02  0.00000000000E+00 0.  1.
         12    1    3    3    0    0  0.76830861561E+02 -0.31869203478E+02  0.51601854292E+02  0.97884517596E+02  0.00000000000E+00 0. -1.
        -13    1    4    4    0    0  0.14738678529E+01  0.63092343569E+02 -0.95949717901E+02  0.11484408765E+03  0.00000000000E+00 0. -1.
         13    1    4    4    0    0 -0.73238430751E+02  0.15585285814E+02 -0.17996946872E+03  0.19492505879E+03  0.00000000000E+00 0.  1.
          1    1    1    2  501    0  0.61589334849E+01 -0.25182010419E+02 -0.62960249443E+02  0.68088612267E+02  0.00000000000E+00 0. -1.
<scales pt_clust_5="13000.00000" pt_clust_6="13000.00000" pt_clust_7="13000.00000" pt_clust_8="13000.00000" pt_clust_9="25.92424"></scales>
<clustering>
<clus scale="   25.924">  2  9  1 -1</clus>
<clus scale="   79.323">  5  6 -1 -1</clus>
<clus scale="   92.115">  7  8 -1 -1</clus>
<clus scale="  117.865">  1  5  2 -1</clus>
<clus scale="   25.924">  2  5  1 -1</clus>
</clustering>
</event>
<event>
 9    2  0.6175212E-005  0.2788826E+03  0.7546771E-02  0.1115463E+00
         21   -1    0    0  501  502  0.00000000000E+00  0.00000000000E+00  0.31594784358E+03  0.31594784358E+03  0.00000000000E+00 0.  1.
          2   -1    0    0  502    0 -0.00000000000E+00 -0.00000000000E+00 -0.53745335096E+03  0.53745335096E+03  0.00000000000E+00 0. -1.
         23    2    1    2    0    0 -0.70880521286E+02 -0.12601818305E+03 -0.20105457617E+03  0.26363797723E+03  0.90429031186E+02 0.  0.
         24    2    1    2    0    0  0.90093546962E+02  0.30431678635E+03  0.13307237345E+03  0.35369344506E+03  0.81640938546E+02 0.  0.
        -11    1    4    4    0    0  0.81615779803E+02  0.25817552930E+03  0.78898418714E+02  0.28202960823E+03  0.00000000000E+00 0.  1.
         12    1    4    4    0    0  0.84777671597E+01  0.46141257047E+02  0.54173954734E+02  0.71663836832E+02  0.00000000000E+00 0. -1.
        -11    1    3    3    0    0 -0.49617351591E+02 -0.13550119831E+03 -0.15342210196E+03  0.21062003155E+03  0.00000000000E+00 0.  1.
         11    1    3    3    0    0 -0.21263169695E+02  0.94830152623E+01 -0.47632474211E+02  0.53017945673E+02  0.00000000000E+00 0. -1.
          1    1    1    2  501    0 -0.19213025677E+02 -0.17829860330E+03 -0.15352330466E+03  0.23606977225E+03  0.00000000000E+00 0. -1.
<scales pt_clust_5="13000.00000" pt_clust_6="13000.00000" pt_clust_7="13000.00000" pt_clust_8="13000.00000" pt_clust_9="266.66525"></scales>
<clustering>
<clus scale="   81.641">  5  6 -1 -1</clus>
<clus scale="   90.429">  7  8 -1 -1</clus>
<clus scale="  170.535">  2  7  1 -1</clus>
<clus scale="  266.665">  1  9  2 -1</clus>
<clus scale="  266.665">  1  5  2 -1</clus>
</clustering>
</event>
<event>
 9    2  0.6175212E-005  0.1078798E+03  0.7546771E-02  0.1269077E+00
         21   -1    0    0  501  502  0.00000000000E+00  0.00000000000E+00  0.45511369000E+03  0.45511369000E+03  0.00000000000E+00 0.  1.
         -1   -1    0    0    0  501 -0.00000000000E+00 -0.00000000000E+00 -0.11121506079E+03  0.11121506079E+03  0.00000000000E+00 0.  1.
         24    2    1    2    0    0 -0.96028418995E+01  0.45322653174E+02 -0.36597994061E+02  0.10085981382E+03  0.81773659638E+02 0.  0.
         23    2    1    2    0    0  0.37288102972E+02 -0.75095588911E+02  0.53343514099E+02  0.13579931717E+03  0.92553627428E+02 0.  0.
        -13    1    3    3    0    0  0.22386488547E+02  0.39939965093E+02 -0.48132496976E+02  0.66431114293E+02  0.00000000000E+00 0.  1.
         14    1    3    3    0    0 -0.31989330446E+02  0.53826880812E+01  0.11534502915E+02  0.34428699524E+02  0.00000000000E+00 0. -1.
        -11    1    4    4    0    0  0.50046571261E+02 -0.95997605348E+01  0.46034897532E+02  0.68673331710E+02  0.00000000000E+00 0.  1.
         11    1    4    4    0    0 -0.12758468290E+02 -0.65495828376E+02  0.73086165671E+01  0.67125985459E+02  0.00000000000E+00 0. -1.
         -2    1    1    2    0  502 -0.27685261072E+02  0.29772935736E+02  0.32715310917E+03  0.32966961980E+03  0.00000000000E+00 0.  1.
<scales pt_clust_5="13000.00000" pt_clust_6="13000.00000" pt_clust_7="13000.00000" pt_clust_8="13000.00000" pt_clust_9="40.65589"></scales>
<clustering>
<clus scale="   40.656">  1  9  2 -1</clus>
<clus scale="   81.774">  5  6 -1 -1</clus>
<clus scale="   92.554">  7  8 -1 -1</clus>
<clus scale="   98.787">  2  5  1 -1</clus>
<clus scale="   40.656">  1  5  2 -1</clus>
</clustering>
</event>
<event>
 9    2  0.6175212E-005  0.1144315E+03  0.7546771E-02  0.1258349E+00
         21   -1    0    0  501  502  0.00000000000E+00  0.00000000000E+00  0.25137142027E+02  0.25137142027E+02  0.00000000000E+00 0.  1.
          2   -1    0    0  502    0 -0.00000000000E+00 -0.00000000000E+00 -0.92185696273E+03  0.92185696273E+03  0.00000000000E+00 0. -1.
         24    2    1    2    0    0  0.62935976621E+02 -0.18493429261E+02 -0.64627027995E+03  0.65418220305E+03  0.77370123220E+02 0.  0.
         23    2    1    2    0    0 -0.74825420480E+02 -0.44926863257E+01 -0.16637924185E+03  0.20484863924E+03  0.93069248953E+02 0.  0.
        -13    1    3    3    0    0  0.26830651171E+02  0.15702264535E+02 -0.81516440592E+02  0.87243194809E+02  0.00000000000E+00 0.  1.
         14    1    3    3    0    0  0.36105325450E+02 -0.34195693795E+02 -0.56475383935E+03  0.56693900824E+03  0.00000000000E+00 0. -1.
        -13    1    4    4    0    0  0.12628146628E+02  0.22567136146E+02 -0.54231847131E+02  0.60081935425E+02  0.00000000000E+00 0. -1.
         13    1    4    4    0    0 -0.87453567108E+02 -0.27059822472E+02 -0.11214739472E+03  0.14476670382E+03  0.00000000000E+00 0.  1.
          1    1    1    2  501    0  0.11889443859E+02  0.22986115586E+02 -0.84070298908E+02  0.87963262465E+02  0.00000000000E+00 0. -1.
<scales pt_clust_5="13000.00000" pt_clust_6="13000.00000" pt_clust_7="13000.00000" pt_clust_8="13000.00000" pt_clust_9="25.87897"></scales>
<clustering>
<clus scale="   25.879">  1  9  2 -1</clus>
<clus scale="   77.370">  5  6 -1 -1</clus>
<clus scale="   93.069">  7  8 -1 -1</clus>
<clus scale="  102.073">  2  5  1 -1</clus>
<clus scale="   25.879">  1  5  2 -1</clus>
</clustering>
</event>
<event>
 9    2  0.6175212E-005  0.1052121E+03  0.7546771E-02  0.1273277E+00
         21   -1    0    0  501  502  0.00000000000E+00  0.00000000000E+00  0.37263138251E+02  0.37263138251E+02  0.00000000000E+00 0. -1.
          2   -1    0    0  502    0 -0.00000000000E+00 -0.00000000000E+00 -0.44629023248E+03  0.44629023248E+03  0.00000000000E+00 0. -1.
         24    2    1    2    0    0  0.85906778185E+01 -0.67868791269E+02 -0.21276720720E+03  0.23762874377E+03  0.80731424066E+02 0.  0.
         23    2    1    2    0    0 -0.37018252064E+02  0.30574300184E+02 -0.13742134284E+03  0.17068514048E+03  0.89127172612E+02 0.  0.
        -11    1    3    3    0    0 -0.22276120396E+02 -0.11105680983E+02 -0.13135439962E+03  0.13369195933E+03  0.00000000000E+00 0.  1.
         12    1    3    3    0    0  0.30866798214E+02 -0.56763110286E+02 -0.81412807577E+02  0.10393678444E+03  0.00000000000E+00 0. -1.
        -13    1    4    4    0    0 -0.62919738577E+02  0.38789900848E+02 -0.96307549393E+02  0.12140302295E+03  0.00000000000E+00 0. -1.
         13    1    4    4    0    0  0.25901486513E+02 -0.82156006634E+01 -0.41113793443E+02  0.49282117538E+02  0.00000000000E+00 0.  1.
          1    1    1    2  501    0  0.28427574246E+02  0.37294491085E+02 -0.58838544196E+02  0.75239486481E+02  0.00000000000E+00 0. -1.
<scales pt_clust_5="13000.00000" pt_clust_6="13000.00000" pt_clust_7="13000.00000" pt_clust_8="13000.00000" pt_clust_9="46.89356"></scales>
<clustering>
<clus scale="   46.894">  1  9  2 -1</clus>
<clus scale="   80.731">  5  6 -1 -1</clus>
<clus scale="   89.127">  7  8 -1 -1</clus>
<clus scale="   98.201">  2  5  1 -1</clus>
<clus scale="   46.894">  1  5  2 -1</clus>
</clustering>
</event>
<event>
 9    2  0.6175212E-005  0.1248851E+03  0.7546771E-02  0.1239080E+00
          2   -1    0    0  502    0 -0.00000000000E+00  0.00000000000E+00  0.92823225728E+03  0.92823225728E+03  0.00000000000E+00 0. -1.
         21   -1    0    0  501  502  0.00000000000E+00 -0.00000000000E+00 -0.21170222706E+02  0.21170222706E+02  0.00000000000E+00 0.  1.
         23    2    1    2    0    0  0.92100438427E+02 -0.69081192932E+01  0.52147007134E+03  0.53753211450E+03  0.92084341457E+02 0.  0.
         24    2    1    2    0    0 -0.73705933987E+02 -0.21348167498E+02  0.27322999940E+03  0.29455887222E+03  0.78879577011E+02 0.  0.
        -13    1    4    4    0    0 -0.46363592786E+02  0.13345422045E+02  0.60962443167E+02  0.77743826137E+02  0.00000000000E+00 0.  1.
         14    1    4    4    0    0 -0.27342341201E+02 -0.34693589543E+02  0.21226755623E+03  0.21681504608E+03  0.00000000000E+00 0. -1.
        -13    1    3    3    0    0 -0.13353398766E+02 -0.20060660129E+02  0.90637044737E+02  0.93786018265E+02  0.00000000000E+00 0.  1.
         13    1    3    3    0    0  0.10545383719E+03  0.13152540835E+02  0.43083302661E+03  0.44374609623E+03  0.00000000000E+00 0. -1.
          1    1    1    2  501    0 -0.18394504440E+02  0.28256286791E+02  0.11236196383E+03  0.11731149327E+03  0.00000000000E+00 0. -1.
<scales pt_clust_5="13000.00000" pt_clust_6="13000.00000" pt_clust_7="13000.00000" pt_clust_8="13000.00000" pt_clust_9="33.71612"></scales>
<clustering>
<clus scale="   33.716">  2  9  1 -1</clus>
<clus scale="   78.880">  5  6 -1 -1</clus>
<clus scale="   92.084">  7  8 -1 -1</clus>
<clus scale="  115.494">  2  5  1 -1</clus>
<clus scale="   33.716">  2  5  1 -1</clus>
</clustering>
</event>
<event>
 9    2  0.6175212E-005  0.2141121E+03  0.7546771E-02  0.1171836E+00
          2   -1    0    0  502    0 -0.00000000000E+00  0.00000000000E+00  0.35291316152E+03  0.35291316152E+03  0.00000000000E+00 0. -1.
         21   -1    0    0  501  502  0.00000000000E+00 -0.00000000000E+00 -0.65763118093E+03  0.65763118093E+03  0.00000000000E+00 0. -1.
         23    2    1    2    0    0  0.33499129044E+02 -0.29898858544E+01 -0.34318221929E+02  0.10338214738E+03  0.91536861303E+02 0.  0.
         24    2    1    2    0    0  0.15619020135E+03  0.68786657043E+02  0.27093928366E+03  0.32978947496E+03  0.78905127731E+02 0.  0.
        -13    1    4    4    0    0  0.73804832578E+02 -0.89525063200E+01  0.11807048650E+03  0.13952756166E+03  0.00000000000E+00 0.  1.
         14    1    4    4    0    0  0.82385368770E+02  0.77739163363E+02  0.15286879716E+03  0.19026191330E+03  0.00000000000E+00 0. -1.
        -13    1    3    3    0    0 -0.30812645106E+02 -0.80195559296E+01 -0.19009960176E+02  0.37082488612E+02  0.00000000000E+00 0. -1.
         13    1    3    3    0    0  0.64311774150E+02  0.50296700753E+01 -0.15308261752E+02  0.66299658772E+02  0.00000000000E+00 0.  1.
          1    1    1    2  501    0 -0.18968933039E+03 -0.65796771188E+02 -0.54133908113E+03  0.57737272011E+03  0.00000000000E+00 0. -1.
<scales pt_clust_5="13000.00000" pt_clust_6="13000.00000" pt_clust_7="13000.00000" pt_clust_8="13000.00000" pt_clust_9="199.04262"></scales>
<clustering>
<clus scale="   78.905">  5  6 -1 -1</clus>
<clus scale="   91.537">  7  8 -1 -1</clus>
<clus scale="   97.520">  1  7  2 -1</clus>
<clus scale="  199.043">  2  9  1 -1</clus>
<clus scale="  199.043">  2  5  1 -1</clus>
</clustering>
</event>
<event>
 9    2  0.6175212E-005  0.2166660E+03  0.7546771E-02  0.1158743E+00
         21   -1    0    0  501  502  0.00000000000E+00  0.00000000000E+00  0.10490706258E+03  0.10490706258E+03  0.00000000000E+00 0. -1.
          2   -1    0    0  502    0 -0.00000000000E+00 -0.00000000000E+00 -0.10719321837E+04  0.10719321837E+04  0.00000000000E+00 0. -1.
         23    2    1    2    0    0 -0.90297683487E+02 -0.40197037406E+01 -0.43785996130E+03  0.45598671063E+03  0.89625358573E+02 0.  0.
         24    2    1    2    0    0  0.12572070882E+03 -0.17242697585E+03 -0.88207428430E+02  0.24458376455E+03  0.80646815317E+02 0.  0.
        -11    1    4    4    0    0  0.39190103003E+02 -0.48446675783E+01 -0.13727252970E+02  0.41806368551E+02  0.00000000000E+00 0.  1.
         12    1    4    4    0    0  0.86530605821E+02 -0.16758230827E+03 -0.74480175460E+02  0.20277739600E+03  0.00000000000E+00 0. -1.
        -13    1    3    3    0    0 -0.65539335706E+02 -0.26388366671E+02 -0.39698079617E+03  0.40321892682E+03  0.00000000000E+00 0.  1.
         13    1    3    3    0    0 -0.24758347781E+02  0.22368662931E+02 -0.40879165132E+02  0.52767783808E+02  0.00000000000E+00 0. -1.
          1    1    1    2  501    0 -0.35423025337E+02  0.17644667959E+03 -0.44095773136E+03  0.47626877108E+03  0.00000000000E+00 0. -1.
<scales pt_clust_5="13000.00000" pt_clust_6="13000.00000" pt_clust_7="13000.00000" pt_clust_8="13000.00000" pt_clust_9="201.09771"></scales>
<clustering>
<clus scale="   80.647">  5  6 -1 -1</clus>
<clus scale="   89.625">  7  8 -1 -1</clus>
<clus scale="  127.289">  2  7  1 -1</clus>
<clus scale="  201.098">  1  9  2 -1</clus>
<clus scale="  201.098">  1  5  2 -1</clus>
</clustering>
</event>
<event>
 9    2  0.6175212E-005  0.1099367E+03  0.7546771E-02  0.1265237E+00
          2   -1    0    0  502    0 -0.00000000000E+00  0.00000000000E+00  0.40240381963E+03  0.40240381963E+03  0.00000000000E+00 0. -1.
         21   -1    0    0  501  502  0.00000000000E+00 -0.00000000000E+00 -0.46462630121E+02  0.46462630121E+02  0.00000000000E+00 0. -1.
         24    2    1    2    0    0  0.49816457414E+02  0.39211102806E+02  0.14049859409E+03  0.17375697135E+03  0.80202494580E+02 0.  0.
         23    2    1    2    0    0 -0.65345813081E+02  0.59454628067E+00  0.94971167190E+02  0.14728531948E+03  0.91667954943E+02 0.  0.
        -13    1    3    3    0    0  0.42747691249E+02  0.38964188592E+01  0.12899459893E+03  0.13594908511E+03  0.00000000000E+00 0.  1.
         14    1    3    3    0    0  0.70687661651E+01  0.35314683947E+02  0.11503995159E+02  0.37807886241E+02  0.00000000000E+00 0. -1.
        -13    1    4    4    0    0  0.23346449857E+02  0.52457472199E+00  0.14233017826E+02  0.27347955975E+02  0.00000000000E+00 0. -1.
         13    1    4    4    0    0 -0.88692262938E+02  0.69971558681E-01  0.80738149364E+02  0.11993736350E+03  0.00000000000E+00 0.  1.
          1    1    1    2  501    0  0.15529355666E+02 -0.39805649087E+02  0.12047142822E+03  0.12782415893E+03  0.00000000000E+00 0. -1.
<scales pt_clust_5="13000.00000" pt_clust_6="13000.00000" pt_clust_7="13000.00000" pt_clust_8="13000.00000" pt_clust_9="42.72765"></scales>
<clustering>
<clus scale="   42.728">  2  9  1 -1</clus>
<clus scale="   80.202">  5  6 -1 -1</clus>
<clus scale="   91.668">  7  8 -1 -1</clus>
<clus scale="  100.576">  1  5  2 -1</clus>
<clus scale="   42.728">  2  5  1 -1</clus>
</clustering>
</event>
<event>
 9    2  0.6175212E-005  0.1032946E+03  0.7546771E-02  0.1278056E+00
          2   -1    0    0  502    0 -0.00000000000E+00  0.00000000000E+00  0.57139417621E+03  0.57139417621E+03  0.00000000000E+00 0. -1.
         21   -1    0    0  501  502  0.00000000000E+00 -0.00000000000E+00 -0.29184693548E+02  0.29184693548E+02  0.00000000000E+00 0. -1.
         23    2    1    2    0    0 -0.36696483115E+02 -0.21488721208E+02  0.33920600231E+03  0.35409711627E+03  0.92280326946E+02 0.  0.
         24    2    1    2    0    0  0.56806937748E+02  0.14681693768E+02  0.10373099382E+03  0.14496430380E+03  0.82534538152E+02 0.  0.
        -13    1    4    4    0    0  0.17689798609E+02 -0.25371187500E+02  0.76888939078E+02  0.82876625671E+02  0.00000000000E+00 0.  1.
         14    1    4    4    0    0  0.39117139139E+02  0.40052881268E+02  0.26842054741E+02  0.62087678125E+02  0.00000000000E+00 0. -1.
        -13    1    3    3    0    0 -0.23269111163E+02 -0.58113171842E+02  0.20948433020E+03  0.21863731812E+03  0.00000000000E+00 0. -1.
         13    1    3    3    0    0 -0.13427371952E+02  0.36624450634E+02  0.12972167211E+03  0.13545979816E+03  0.00000000000E+00 0.  1.
          1    1    1    2  501    0 -0.20110454633E+02  0.68070274401E+01  0.99272486539E+02  0.10151744969E+03  0.00000000000E+00 0. -1.
<scales pt_clust_5="13000.00000" pt_clust_6="13000.00000" pt_clust_7="13000.00000" pt_clust_8="13000.00000" pt_clust_9="21.23126"></scales>
<clustering>
<clus scale="   21.231">  2  9  1 -1</clus>
<clus scale="   82.535">  5  6 -1 -1</clus>
<clus scale="   92.280">  7  8 -1 -1</clus>
<clus scale="   94.689">  2  5  1 -1</clus>
<clus scale="   21.231">  2  5  1 -1</clus>
</clustering>
</event>
<event>
 9    2  0.6175212E-005  0.1313402E+03  0.7546771E-02  0.1238173E+00
         21   -1    0    0  501  502  0.00000000000E+00  0.00000000000E+00  0.79155495647E+03  0.79155495647E+03  0.00000000000E+00 0. -1.
          2   -1    0    0  502    0 -0.00000000000E+00 -0.00000000000E+00 -0.15122837132E+03  0.15122837132E+03  0.00000000000E+00 0. -1.
         23    2    1    2    0    0 -0.35764080058E+02  0.31678846720E+02  0.50017803160E+02  0.11283047395E+03  0.89142113877E+02 0.  0.
         24    2    1    2    0    0 -0.62785391101E+02  0.37834023699E+01 -0.93075361111E+02  0.13858937750E+03  0.81164482636E+02 0.  0.
        -13    1    4    4    0    0 -0.30475225469E+02 -0.86062996936E-01  0.87370586901E+01  0.31703043526E+02  0.00000000000E+00 0.  1.
         14    1    4    4    0    0 -0.32310165632E+02  0.38694653668E+01 -0.10181241980E+03  0.10688633398E+03  0.00000000000E+00 0. -1.
        -11    1    3    3    0    0 -0.62881319841E+02  0.30415664810E+02  0.20653653230E+02  0.72840554930E+02  0.00000000000E+00 0. -1.
         11    1    3    3    0    0  0.27117239783E+02  0.12631819101E+01  0.29364149929E+02  0.39989919018E+02  0.00000000000E+00 0.  1.
          1    1    1    2  501    0  0.98549471159E+02 -0.35462249090E+02  0.68338414310E+03  0.69136347634E+03  0.00000000000E+00 0. -1.
<scales pt_clust_5="13000.00000" pt_clust_6="13000.00000" pt_clust_7="13000.00000" pt_clust_8="13000.00000" pt_clust_9="103.25977"></scales>
<clustering>
<clus scale="   81.164">  5  6 -1 -1</clus>
<clus scale="   89.142">  7  8 -1 -1</clus>
<clus scale="  101.138">  2  7  1 -1</clus>
<clus scale="  103.260">  1  9  2 -1</clus>
<clus scale="  103.260">  1  5  2 -1</clus>
</clustering>
</event>
<event>
 9    2  0.6175212E-005  0.1813259E+03  0.7546771E-02  0.1190467E+00
         21   -1    0    0  501  502  0.00000000000E+00  0.00000000000E+00  0.28013387559E+03  0.28013387559E+03  0.00000000000E+00 0. -1.
          4   -1    0    0  502    0 -0.00000000000E+00 -0.00000000000E+00 -0.49926189362E+03  0.49926189362E+03  0.00000000000E+00 0. -1.
         24    2    1    2    0    0 -0.38213208648E+02 -0.55452361768E+02 -0.31488324557E+03  0.33215257581E+03  0.81477981905E+02 0.  0.
         23    2    1    2    0    0 -0.95592710711E+02  0.13899899076E+03 -0.83495471193E+02  0.20846531280E+03  0.89596914888E+02 0.  0.
        -11    1    3    3    0    0 -0.40542844449E+02  0.87294410777E+01 -0.12127156791E+03  0.12816676075E+03  0.00000000000E+00 0.  1.
         12    1    3    3    0    0  0.23296358011E+01 -0.64181802846E+02 -0.19361167766E+03  0.20398581506E+03  0.00000000000E+00 0. -1.
        -11    1    4    4    0    0 -0.12482549482E+02  0.34540970056E+02  0.17879100708E+02  0.40847948493E+02  0.00000000000E+00 0.  1.
         11    1    4    4    0    0 -0.83110161229E+02  0.10445802070E+03 -0.10137457190E+03  0.16761736431E+03  0.00000000000E+00 0. -1.
          3    1    1    2  501    0  0.13380591936E+03 -0.83546628990E+02  0.17925069873E+03  0.23877788060E+03  0.00000000000E+00 0. -1.
<scales pt_clust_5="13000.00000" pt_clust_6="13000.00000" pt_clust_7="13000.00000" pt_clust_8="13000.00000" pt_clust_9="157.64345"></scales>
<clustering>
<clus scale="   81.478">  5  6 -1 -1</clus>
<clus scale="   89.597">  7  8 -1 -1</clus>
<clus scale="  105.707">  2  5  1 -1</clus>
<clus scale="  157.643">  1  9  2 -1</clus>
<clus scale="  157.643">  1  5  2 -1</clus>
</clustering>
</event>
<event>
 9    2  0.6175212E-005  0.2011093E+03  0.7546771E-02  0.1184766E+00
          2   -1    0    0  502    0 -0.00000000000E+00  0.00000000000E+00  0.64029545291E+03  0.64029545291E+03  0.00000000000E+00 0. -1.
         21   -1    0    0  501  502  0.00000000000E+00 -0.00000000000E+00 -0.13918894028E+03  0.13918894028E+03  0.00000000000E+00 0. -1.
         24    2    1    2    0    0  0.20325924808E+02  0.30217749708E+02  0.33049528440E+03  0.34199138231E+03  0.80029475504E+02 0.  0.
         23    2    1    2    0    0  0.13681619865E+03 -0.11216148284E+03  0.16168186944E+02  0.20241626732E+03  0.97015795420E+02 0.  0.
        -11    1    3    3    0    0 -0.14020412533E+02 -0.16002863619E+02  0.35172848839E+02  0.41107090715E+02  0.00000000000E+00 0.  1.
         12    1    3    3    0    0  0.34346337341E+02  0.46220613327E+02  0.29532243556E+03  0.30088429160E+03  0.00000000000E+00 0. -1.
        -11    1    4    4    0    0  0.81496285453E+02 -0.16031700720E+02 -0.20591039425E+02  0.85572489009E+02  0.00000000000E+00 0.  1.
         11    1    4    4    0    0  0.55319913193E+02 -0.96129782121E+02  0.36759226369E+02  0.11684377831E+03  0.00000000000E+00 0. -1.
          1    1    1    2  501    0 -0.15714212345E+03  0.81943733133E+02  0.15444304128E+03  0.23507674356E+03  0.00000000000E+00 0. -1.
<scales pt_clust_5="13000.00000" pt_clust_6="13000.00000" pt_clust_7="13000.00000" pt_clust_8="13000.00000" pt_clust_9="176.16162"></scales>
<clustering>
<clus scale="   80.029">  5  6 -1 -1</clus>
<clus scale="   87.926">  1  5  2 -1</clus>
<clus scale="   97.016">  7  8 -1 -1</clus>
<clus scale="  176.162">  2  9  1 -1</clus>
<clus scale="  176.162">  2  5  1 -1</clus>
</clustering>
</event>
<event>
 9    2  0.6175212E-005  0.2281730E+03  0.7546771E-02  0.1128605E+00
          2   -1    0    0  502    0 -0.00000000000E+00  0.00000000000E+00  0.73166865677E+03  0.73166865677E+03  0.00000000000E+00 0. -1.
         21   -1    0    0  501  502  0.00000000000E+00 -0.00000000000E+00 -0.16887123319E+03  0.16887123319E+03  0.00000000000E+00 0. -1.
         23    2    1    2    0    0  0.12096769004E+03 -0.18298553773E+03  0.61127572806E+03  0.65579912510E+03  0.91091095687E+02 0.  0.
         24    2    1    2    0    0 -0.92800540263E+02  0.12803638136E+03 -0.41860873747E+02  0.18263932766E+03  0.81237528485E+02 0.  0.
        -13    1    4    4    0    0 -0.50217490052E+02  0.11362740825E+03 -0.47077127277E+01  0.12431873057E+03  0.00000000000E+00 0.  1.
         14    1    4    4    0    0 -0.42583050211E+02  0.14408973111E+02 -0.37153161020E+02  0.58320597092E+02  0.00000000000E+00 0. -1.
        -13    1    3    3    0    0  0.60229456240E+02 -0.86896951836E+02  0.42171198359E+03  0.43476391840E+03  0.00000000000E+00 0.  1.
         13    1    3    3    0    0  0.60738233796E+02 -0.96088585893E+02  0.18956374447E+03  0.22103520670E+03  0.00000000000E+00 0. -1.
          1    1    1    2  501    0 -0.28167149772E+02  0.54949156374E+02 -0.66174307360E+01  0.62101437198E+02  0.00000000000E+00 0. -1.
<scales pt_clust_5="13000.00000" pt_clust_6="13000.00000" pt_clust_7="13000.00000" pt_clust_8="13000.00000" pt_clust_9="61.74786"></scales>
<clustering>
<clus scale="   61.748">  2  9  1 -1</clus>
<clus scale="   81.238">  5  6 -1 -1</clus>
<clus scale="   91.091">  7  8 -1 -1</clus>
<clus scale="  224.421">  2  5  1 -1</clus>
<clus scale="   61.748">  2  5  1 -1</clus>
</clustering>
</event>
<event>
 9    2  0.6175212E-005  0.9108361E+02  0.7546771E-02  0.1305056E+00
          2   -1    0    0  502    0 -0.00000000000E+00  0.00000000000E+00  0.54824772357E+03  0.54824772357E+03  0.00000000000E+00 0. -1.
         21   -1    0    0  501  502  0.00000000000E+00 -0.00000000000E+00 -0.10182545315E+03  0.10182545315E+03  0.00000000000E+00 0.  1.
         24    2    1    2    0    0 -0.17984753999E+02 -0.55857611754E+00  0.49949602866E+03  0.50645057676E+03  0.81683172511E+02 0.  0.
         23    2    1    2    0    0 -0.71604360933E+00  0.13390633722E+02 -0.52284888401E+01  0.90674027393E+02  0.89524412080E+02 0.  0.
        -13    1    3    3    0    0 -0.31906011231E+02 -0.17728200506E+01  0.72547562256E+02  0.79273483794E+02  0.00000000000E+00 0.  1.
         14    1    3    3    0    0  0.13921257232E+02  0.12142439331E+01  0.42694846640E+03  0.42717709296E+03  0.00000000000E+00 0. -1.
        -13    1    4    4    0    0  0.14639446373E+02 -0.20993996402E+02 -0.34514728058E+02  0.42968915834E+02  0.00000000000E+00 0.  1.
         13    1    4    4    0    0 -0.15355489982E+02  0.34384630124E+02  0.29286239218E+02  0.47705111559E+02  0.00000000000E+00 0. -1.
          1    1    1    2  501    0  0.18700797608E+02 -0.12832057605E+02 -0.47845269395E+02  0.52948572568E+02  0.00000000000E+00 0. -1.
<scales pt_clust_5="13000.00000" pt_clust_6="13000.00000" pt_clust_7="13000.00000" pt_clust_8="13000.00000" pt_clust_9="22.67998"></scales>
<clustering>
<clus scale="   22.680">  2  9  1 -1</clus>
<clus scale="   81.683">  5  6 -1 -1</clus>
<clus scale="   83.389">  1  5  2 -1</clus>
<clus scale="   89.524">  7  8 -1 -1</clus>
<clus scale="   22.680">  2  5  1 -1</clus>
</clustering>
</event>
<event>
 9    2  0.6175212E-005  0.1027606E+03  0.7546771E-02  0.1276839E+00
         21   -1    0    0  501  502  0.00000000000E+00  0.00000000000E+00  0.28382769105E+02  0.28382769105E+02  0.00000000000E+00 0.  1.
          2   -1    0    0  502    0 -0.00000000000E+00 -0.00000000000E+00 -0.76639851139E+03  0.76639851139E+03  0.00000000000E+00 0. -1.
         23    2    1    2    0    0  0.16981579640E+02  0.48169322452E+02 -0.59460021149E+03  0.60365397668E+03  0.90774745323E+02 0.  0.
         24    2    1    2    0    0 -0.30421769079E+02 -0.29155022003E+02 -0.13681582026E+03  0.16692526893E+03  0.85848572439E+02 0.  0.
        -11    1    4    4    0    0 -0.46687809379E+02  0.14357865741E+02 -0.63161148609E+02  0.79845040841E+02  0.00000000000E+00 0.  1.
         12    1    4    4    0    0  0.16266040301E+02 -0.43512887744E+02 -0.73654671654E+02  0.87080228085E+02  0.00000000000E+00 0. -1.
        -13    1    3    3    0    0 -0.37345013258E+02  0.13675594918E+02 -0.21957864741E+03  0.22315119159E+03  0.00000000000E+00 0.  1.
         13    1    3    3    0    0  0.54326592898E+02  0.34493727534E+02 -0.37502156407E+03  0.38050278508E+03  0.00000000000E+00 0. -1.
          1    1    1    2  501    0  0.13440189439E+02 -0.19014300449E+02 -0.65997105366E+01  0.24202034892E+02  0.00000000000E+00 0. -1.
<scales pt_clust_5="13000.00000" pt_clust_6="13000.00000" pt_clust_7="13000.00000" pt_clust_8="13000.00000" pt_clust_9="23.28481"></scales>
<clustering>
<clus scale="   23.285">  1  9  2 -1</clus>
<clus scale="   85.849">  5  6 -1 -1</clus>
<clus scale="   90.775">  7  8 -1 -1</clus>
<clus scale="   98.436">  1  5  2 -1</clus>
<clus scale="   23.285">  1  5  2 -1</clus>
</clustering>
</event>
<event>
 9    2  0.6175212E-005  0.1215128E+03  0.7546771E-02  0.1253414E+00
         21   -1    0    0  501  502  0.00000000000E+00  0.00000000000E+00  0.92666143743E+02  0.92666143743E+02  0.00000000000E+00 0. -1.
          2   -1    0    0  502    0 -0.00000000000E+00 -0.00000000000E+00 -0.24179831255E+03  0.24179831255E+03  0.00000000000E+00 0. -1.
         24    2    1    2    0    0  0.44052251677E+02 -0.75277979658E+01 -0.43902333264E+02  0.10373954801E+03  0.82687425500E+02 0.  0.
         23    2    1    2    0    0  0.36865845160E+02 -0.40343441668E+02 -0.78073051607E+02  0.13286334844E+03  0.92577449452E+02 0.  0.
        -13    1    3    3    0    0 -0.14580820695E+02  0.22296212318E+02 -0.43818039139E+01  0.26998548506E+02  0.00000000000E+00 0.  1.
         14    1    3    3    0    0  0.58633072371E+02 -0.29824010284E+02 -0.39520529350E+02  0.76740999506E+02  0.00000000000E+00 0. -1.
        -13    1    4    4    0    0  0.23951543301E+02 -0.64269846384E+02 -0.24583958434E+02  0.72860555811E+02  0.00000000000E+00 0. -1.
         13    1    4    4    0    0  0.12914301858E+02  0.23926404716E+02 -0.53489093173E+02  0.60002792632E+02  0.00000000000E+00 0.  1.
          1    1    1    2  501    0 -0.80918096836E+02  0.47871239634E+02 -0.27156783933E+02  0.97861559835E+02  0.00000000000E+00 0. -1.
<scales pt_clust_5="13000.00000" pt_clust_6="13000.00000" pt_clust_7="13000.00000" pt_clust_8="13000.00000" pt_clust_9="78.70689"></scales>
<clustering>
<clus scale="   82.687">  5  6 -1 -1</clus>
<clus scale="   92.577">  7  8 -1 -1</clus>
<clus scale="   93.992">  2  5  1 -1</clus>
<clus scale="   78.707">  1  9  2 -1</clus>
<clus scale="   78.707">  1  5  2 -1</clus>
</clustering>
</event>
<event>
 9    2  0.6175212E-005  0.2088052E+03  0.7546771E-02  0.1170702E+00
          2   -1    0    0  502    0 -0.00000000000E+00  0.00000000000E+00  0.88776992403E+02  0.88776992403E+02  0.00000000000E+00 0. -1.
         21   -1    0    0  501  502  0.00000000000E+00 -0.00000000000E+00 -0.75368248021E+03  0.75368248021E+03  0.00000000000E+00 0. -1.
         24    2    1    2    0    0  0.12773617701E+02 -0.71323075348E+02 -0.11881645061E+03  0.16049936577E+03  0.79953430751E+02 0.  0.
         23    2    1    2    0    0  0.12224839271E+03  0.16886459922E+03 -0.40058368196E+03  0.46078800061E+03  0.91642636693E+02 0.  0.
        -13    1    3    3    0    0  0.41643336240E+01 -0.60109327570E+02 -0.12946557027E+03  0.14279988383E+03  0.00000000000E+00 0.  1.
         14    1    3    3    0    0  0.86092840771E+01 -0.11213747778E+02  0.10649119656E+02  0.17699481941E+02  0.00000000000E+00 0. -1.
        -11    1    4    4    0    0  0.72328662768E+02  0.16188469471E+03 -0.31377604846E+03  0.36040740617E+03  0.00000000000E+00 0. -1.
         11    1    4    4    0    0  0.49919729947E+02  0.69799045144E+01 -0.86807633507E+02  0.10038059444E+03  0.00000000000E+00 0.  1.
          1    1    1    2  501    0 -0.13502201042E+03 -0.97541523872E+02 -0.14550535523E+03  0.22117210623E+03  0.00000000000E+00 0. -1.
<scales pt_clust_5="13000.00000" pt_clust_6="13000.00000" pt_clust_7="13000.00000" pt_clust_8="13000.00000" pt_clust_9="187.62005"></scales>
<clustering>
<clus scale="   79.953">  5  6 -1 -1</clus>
<clus scale="   91.643">  7  8 -1 -1</clus>
<clus scale="  107.901">  1  5  2 -1</clus>
<clus scale="  187.620">  2  9  1 -1</clus>
<clus scale="  187.620">  2  5  1 -1</clus>
</clustering>
</event>
<event>
 9    2  0.6819871E-005  0.3484627E+03  0.7546771E-02  0.1113410E+00
         21   -1    0    0  501  502  0.00000000000E+00  0.00000000000E+00  0.21712535849E+03  0.21712535849E+03  0.00000000000E+00 0.  1.
          2   -1    0    0  502    0 -0.00000000000E+00 -0.00000000000E+00 -0.15977162722E+04  0.15977162722E+04  0.00000000000E+00 0. -1.
         24    2    1    2    0    0  0.21227163691E+02 -0.41316845011E+02 -0.86557357763E+02  0.12637188461E+03  0.79498445758E+02 0.  0.
         23    2    1    2    0    0 -0.33443904500E+03 -0.47695120971E+02  0.40723176109E+01  0.35014853214E+03  0.91995170568E+02 0.  0.
        -11    1    3    3    0    0  0.50185726257E+02 -0.34759400093E+02 -0.67883069339E+02  0.91295860353E+02  0.00000000000E+00 0.  1.
         12    1    3    3    0    0 -0.28958562567E+02 -0.65574449181E+01 -0.18674288424E+02  0.35076024261E+02  0.00000000000E+00 0. -1.
        -11    1    4    4    0    0 -0.16475523385E+03 -0.68923402412E+02 -0.75231107825E+01  0.17874932077E+03  0.00000000000E+00 0. -1.
         11    1    4    4    0    0 -0.16968381115E+03  0.21228281441E+02  0.11595428393E+02  0.17139921137E+03  0.00000000000E+00 0.  1.
          1    1    1    2  501    0  0.31321188131E+03  0.89011965982E+02 -0.12981058736E+04  0.13383212140E+04  0.00000000000E+00 0. -1.
<scales pt_clust_5="13000.00000" pt_clust_6="13000.00000" pt_clust_7="13000.00000" pt_clust_8="13000.00000" pt_clust_9="336.10009"></scales>
<clustering>
<clus scale="   79.498">  5  6 -1 -1</clus>
<clus scale="   91.995">  7  8 -1 -1</clus>
<clus scale="   92.074">  2  5  1 -1</clus>
<clus scale="  336.100">  1  9  2 -1</clus>
<clus scale="  336.100">  1  5  2 -1</clus>
</clustering>
</event>
<event>
 9    2  0.6175212E-005  0.1014129E+03  0.7546771E-02  0.1282259E+00
         21   -1    0    0  501  502  0.00000000000E+00  0.00000000000E+00  0.44056445774E+02  0.44056445774E+02  0.00000000000E+00 0. -1.
          2   -1    0    0  502    0 -0.00000000000E+00 -0.00000000000E+00 -0.99977094732E+03  0.99977094732E+03  0.00000000000E+00 0. -1.
         24    2    1    2    0    0 -0.21586729336E+02  0.45766869111E+02 -0.83449816080E+03  0.83993024690E+03  0.80839631893E+02 0.  0.
         23    2    1    2    0    0 -0.13056418201E+02  0.12139519933E+02 -0.48436801538E+02  0.10464917951E+03  0.91035647022E+02 0.  0.
        -11    1    3    3    0    0 -0.29288432958E+02  0.17040549627E+02 -0.11679459639E+03  0.12161073301E+03  0.00000000000E+00 0.  1.
         12    1    3    3    0    0  0.77017036220E+01  0.28726319484E+02 -0.71770356441E+03  0.71831951389E+03  0.00000000000E+00 0. -1.
        -13    1    4    4    0    0 -0.30242592203E+02 -0.69410084462E+01  0.16268073162E+02  0.35034870997E+02  0.00000000000E+00 0. -1.
         13    1    4    4    0    0  0.17186174001E+02  0.19080528379E+02 -0.64704874700E+02  0.69614308514E+02  0.00000000000E+00 0.  1.
          1    1    1    2  501    0  0.34643147537E+02 -0.57906389044E+02 -0.72779539206E+02  0.99247966682E+02  0.00000000000E+00 0. -1.
<scales pt_clust_5="13000.00000" pt_clust_6="13000.00000" pt_clust_7="13000.00000" pt_clust_8="13000.00000" pt_clust_9="67.47813"></scales>
<clustering>
<clus scale="   67.478">  1  9  2 -1</clus>
<clus scale="   80.840">  5  6 -1 -1</clus>
<clus scale="   91.036">  7  8 -1 -1</clus>
<clus scale="   92.370">  2  5  1 -1</clus>
<clus scale="   67.478">  1  5  2 -1</clus>
</clustering>
</event>
<event>
 9    2  0.6175212E-005  0.2332107E+03  0.7546771E-02  0.1144006E+00
         21   -1    0    0  501  502  0.00000000000E+00  0.00000000000E+00  0.21311318573E+03  0.21311318573E+03  0.00000000000E+00 0. -1.
          2   -1    0    0  502    0 -0.00000000000E+00 -0.00000000000E+00 -0.53330057946E+03  0.53330057946E+03  0.00000000000E+00 0. -1.
         24    2    1    2    0    0 -0.10006271144E+03  0.67079016524E+02 -0.23325446219E+03  0.27444414404E+03  0.79998771150E+02 0.  0.
         23    2    1    2    0    0 -0.14360391513E+03  0.52720360991E+02 -0.92152842184E+02  0.20039538965E+03  0.90910092771E+02 0.  0.
        -11    1    3    3    0    0 -0.31638419910E+02  0.61089219136E+02 -0.15926130241E+03  0.17348499865E+03  0.00000000000E+00 0.  1.
         12    1    3    3    0    0 -0.68424291527E+02  0.59897973880E+01 -0.73993159776E+02  0.10095914539E+03  0.00000000000E+00 0. -1.
        -11    1    4    4    0    0 -0.32561193953E+02  0.20961033671E+02 -0.73948364563E+02  0.83474288891E+02  0.00000000000E+00 0.  1.
         11    1    4    4    0    0 -0.11104272117E+03  0.31759327321E+02 -0.18204477621E+02  0.11692110076E+03  0.00000000000E+00 0. -1.
          1    1    1    2  501    0  0.24366662656E+03 -0.11979937752E+03  0.52199106462E+01  0.27157423151E+03  0.00000000000E+00 0. -1.
<scales pt_clust_5="13000.00000" pt_clust_6="13000.00000" pt_clust_7="13000.00000" pt_clust_8="13000.00000" pt_clust_9="214.76174"></scales>
<clustering>
<clus scale="   79.999">  5  6 -1 -1</clus>
<clus scale="   90.910">  7  8 -1 -1</clus>
<clus scale="  144.610">  2  5  1 -1</clus>
<clus scale="  214.762">  1  9  2 -1</clus>
<clus scale="  214.762">  1  5  2 -1</clus>
</clustering>
</event>
<event>
 9    2  0.6175212E-005  0.1178491E+03  0.7546771E-02  0.1259755E+00
          2   -1    0    0  502    0 -0.00000000000E+00  0.00000000000E+00  0.17291975605E+04  0.17291975605E+04  0.00000000000E+00 0. -1.
         21   -1    0    0  501  502  0.00000000000E+00 -0.00000000000E+00 -0.13490220777E+02  0.13490220777E+02  0.00000000000E+00 0. -1.
         24    2    1    2    0    0  0.23828050292E+02 -0.33223275867E+02  0.46134543092E+03  0.47021462720E+03  0.81182676497E+02 0.  0.
         23    2    1    2    0    0  0.20539236125E+02 -0.54799495265E+02  0.49670105450E+03  0.50842705960E+03  0.91440103289E+02 0.  0.
        -11    1    3    3    0    0  0.89458643988E+01  0.27189572752E+02  0.15301269412E+03  0.15566690694E+03  0.00000000000E+00 0.  1.
         12    1    3    3    0    0  0.14882185893E+02 -0.60412848619E+02  0.30833273680E+03  0.31454772026E+03  0.00000000000E+00 0. -1.
        -13    1    4    4    0    0  0.33640941591E+02  0.15428234105E+02  0.18074438372E+03  0.18449464926E+03  0.00000000000E+00 0.  1.
         13    1    4    4    0    0 -0.13101705467E+02 -0.70227729371E+02  0.31595667078E+03  0.32393241034E+03  0.00000000000E+00 0. -1.
          1    1    1    2  501    0 -0.44367286416E+02  0.88022771133E+02  0.75766085433E+03  0.76404609450E+03  0.00000000000E+00 0. -1.
<scales pt_clust_5="13000.00000" pt_clust_6="13000.00000" pt_clust_7="13000.00000" pt_clust_8="13000.00000" pt_clust_9="74.34457"></scales>
<clustering>
<clus scale="   81.183">  5  6 -1 -1</clus>
<clus scale="   90.897">  1  5  2 -1</clus>
<clus scale="   74.345">  2  9  1 -1</clus>
<clus scale="   91.440">  7  8 -1 -1</clus>
<clus scale="   74.345">  2  5  1 -1</clus>
</clustering>
</event>
<event>
 9    2  0.6175212E-005  0.1290041E+03  0.7546771E-02  0.1231754E+00
         21   -1    0    0  501  502  0.00000000000E+00  0.00000000000E+00  0.17889714845E+03  0.17889714845E+03  0.00000000000E+00 0. -1.
         -1   -1    0    0    0  501 -0.00000000000E+00 -0.00000000000E+00 -0.35803422026E+03  0.35803422026E+03  0.00000000000E+00 0.  1.
         24    2    1    2    0    0 -0.80484776320E+02 -0.25145309665E+02 -0.19516036796E+03  0.22794645753E+03  0.82230970214E+02 0.  0.
         23    2    1    2    0    0  0.11373658780E+03 -0.44284306018E+02 -0.90186506057E+02  0.17781068891E+03  0.92660261462E+02 0.  0.
        -13    1    3    3    0    0 -0.82644812632E+02 -0.47168979222E+02 -0.16599657301E+03  0.19133724129E+03  0.00000000000E+00 0.  1.
         14    1    3    3    0    0  0.21600363120E+01  0.22023669557E+02 -0.29163794951E+02  0.36609216238E+02  0.00000000000E+00 0. -1.
        -13    1    4    4    0    0  0.28745729779E+02 -0.83689111661E+01  0.18536605358E+02  0.35213085535E+02  0.00000000000E+00 0. -1.
         13    1    4    4    0    0  0.84990858019E+02 -0.35915394852E+02 -0.10872311142E+03  0.14259760338E+03  0.00000000000E+00 0.  1.
         -2    1    1    2    0  502 -0.33251811478E+02  0.69429615683E+02  0.10620980221E+03  0.13117422226E+03  0.00000000000E+00 0.  1.
<scales pt_clust_5="13000.00000" pt_clust_6="13000.00000" pt_clust_7="13000.00000" pt_clust_8="13000.00000" pt_clust_9="76.98152"></scales>
<clustering>
<clus scale="   76.982">  1  9  2 -1</clus>
<clus scale="   82.231">  5  6 -1 -1</clus>
<clus scale="   92.660">  7  8 -1 -1</clus>
<clus scale="  121.730">  2  5  1 -1</clus>
<clus scale="   76.982">  1  5  2 -1</clus>
</clustering>
</event>
<event>
 9    2  0.6175212E-005  0.1117253E+03  0.7546771E-02  0.1273452E+00
          4   -1    0    0  502    0 -0.00000000000E+00  0.00000000000E+00  0.47085804275E+03  0.47085804275E+03  0.00000000000E+00 0. -1.
         21   -1    0    0  501  502  0.00000000000E+00 -0.00000000000E+00 -0.86657562599E+02  0.86657562599E+02  0.00000000000E+00 0. -1.
         24    2    1    2    0    0  0.29896647465E+02 -0.55546399929E+02  0.40499328165E+03  0.41367337379E+03  0.55918600875E+02 0.  0.
         23    2    1    2    0    0 -0.13788044092E+02  0.14501266358E+02 -0.40428792700E+01  0.96674976102E+02  0.94495022332E+02 0.  0.
        -13    1    3    3    0    0  0.19155542697E+02 -0.40835692535E+02  0.12161082677E+03  0.12970613628E+03  0.00000000000E+00 0.  1.
         14    1    3    3    0    0  0.10741104768E+02 -0.14710707394E+02  0.28338245488E+03  0.28396723751E+03  0.00000000000E+00 0. -1.
        -11    1    4    4    0    0 -0.67192962742E+01  0.37009454941E+02 -0.39205256992E+02  0.54331398595E+02  0.00000000000E+00 0.  1.
         11    1    4    4    0    0 -0.70687478174E+01 -0.22508188583E+02  0.35162377722E+02  0.42343577507E+02  0.00000000000E+00 0. -1.
          3    1    1    2  501    0 -0.16108603373E+02  0.41045133571E+02 -0.16749922233E+02  0.47167255457E+02  0.00000000000E+00 0. -1.
<scales pt_clust_5="13000.00000" pt_clust_6="13000.00000" pt_clust_7="13000.00000" pt_clust_8="13000.00000" pt_clust_9="44.09297"></scales>
<clustering>
<clus scale="   44.093">  2  9  1 -1</clus>
<clus scale="   55.919">  5  6 -1 -1</clus>
<clus scale="   81.732">  1  5  2 -1</clus>
<clus scale="   94.495">  7  8 -1 -1</clus>
<clus scale="   44.093">  2  5  1 -1</clus>
</clustering>
</event>
<event>
 9    2  0.6175212E-005  0.1565574E+03  0.7546771E-02  0.1208736E+00
         -1   -1    0    0    0  501 -0.00000000000E+00  0.00000000000E+00  0.25741729638E+03  0.25741729638E+03  0.00000000000E+00 0.  1.
         21   -1    0    0  501  502  0.00000000000E+00 -0.00000000000E+00 -0.22782264547E+03  0.22782264547E+03  0.00000000000E+00 0. -1.
         24    2    1    2    0    0 -0.14489339467E+02  0.48175691586E+02  0.61306981405E+02  0.12628973645E+03  0.98283840714E+02 0.  0.
         23    2    1    2    0    0  0.36575541991E+02  0.11192609428E+03 -0.10454562284E+03  0.18167902711E+03  0.90621524952E+02 0.  0.
        -13    1    3    3    0    0  0.33084111279E+02 -0.10465159916E+02  0.22869147791E+02  0.41558102842E+02  0.00000000000E+00 0.  1.
         14    1    3    3    0    0 -0.47573450746E+02  0.58640851502E+02  0.38437833615E+02  0.84731633607E+02  0.00000000000E+00 0. -1.
        -13    1    4    4    0    0  0.87567939853E+01  0.70887382799E+02 -0.63884196482E+01  0.71711326766E+02  0.00000000000E+00 0.  1.
         13    1    4    4    0    0  0.27818748005E+02  0.41038711478E+02 -0.98157203193E+02  0.10996770034E+03  0.00000000000E+00 0. -1.
         -2    1    1    2    0  502 -0.22086202524E+02 -0.16010178586E+03  0.72833292350E+02  0.17727117829E+03  0.00000000000E+00 0.  1.
<scales pt_clust_5="13000.00000" pt_clust_6="13000.00000" pt_clust_7="13000.00000" pt_clust_8="13000.00000" pt_clust_9="127.66352"></scales>
<clustering>
<clus scale="   90.622">  7  8 -1 -1</clus>
<clus scale="   98.284">  5  6 -1 -1</clus>
<clus scale="  110.411">  1  5  2 -1</clus>
<clus scale="  127.664">  2  9  1 -1</clus>
<clus scale="  127.664">  2  5  1 -1</clus>
</clustering>
</event>
<event>
 9    2  0.6175212E-005  0.1689658E+03  0.7546771E-02  0.1180745E+00
         21   -1    0    0  501  502  0.00000000000E+00  0.00000000000E+00  0.17325402256E+03  0.17325402256E+03  0.00000000000E+00 0. -1.
          2   -1    0    0  502    0 -0.00000000000E+00 -0.00000000000E+00 -0.71639085258E+03  0.71639085258E+03  0.00000000000E+00 0. -1.
         24    2    1    2    0    0 -0.82979077658E+02 -0.11186440279E+03 -0.46085136612E+03  0.48823657028E+03  0.81189869838E+02 0.  0.
         23    2    1    2    0    0  0.10942225317E+03  0.11005688940E+03  0.10676529778E+03  0.21050859526E+03  0.93964309590E+02 0.  0.
        -11    1    3    3    0    0 -0.77420691610E+02 -0.91645291567E+02 -0.44767450940E+03  0.46347091529E+03  0.00000000000E+00 0.  1.
         12    1    3    3    0    0 -0.55583860480E+01 -0.20219111221E+02 -0.13176856725E+02  0.24765654992E+02  0.00000000000E+00 0. -1.
        -13    1    4    4    0    0  0.96117108136E+02  0.12570125897E+03  0.81638333190E+02  0.17805651470E+03  0.00000000000E+00 0. -1.
         13    1    4    4    0    0  0.13305145037E+02 -0.15644369563E+02  0.25126964586E+02  0.32452080562E+02  0.00000000000E+00 0.  1.
          1    1    1    2  501    0 -0.26443175514E+02  0.18075133855E+01 -0.18905076167E+03  0.19089970959E+03  0.00000000000E+00 0. -1.
<scales pt_clust_5="13000.00000" pt_clust_6="13000.00000" pt_clust_7="13000.00000" pt_clust_8="13000.00000" pt_clust_9="26.50489"></scales>
<clustering>
<clus scale="   26.505">  1  9  2 -1</clus>
<clus scale="   81.190">  5  6 -1 -1</clus>
<clus scale="   93.964">  7  8 -1 -1</clus>
<clus scale="  162.210">  2  5  1 -1</clus>
<clus scale="   26.505">  1  5  2 -1</clus>
</clustering>
</event>
<event>
 9    2  0.6175212E-005  0.1253294E+03  0.7546771E-02  0.1238951E+00
          2   -1    0    0  502    0 -0.00000000000E+00  0.00000000000E+00  0.22610095587E+03  0.22610095587E+03  0.00000000000E+00 0. -1.
         21   -1    0    0  501  502  0.00000000000E+00 -0.00000000000E+00 -0.32019271212E+03  0.32019271212E+03  0.00000000000E+00 0. -1.
         23    2    1    2    0    0 -0.86772621569E+02 -0.13163482121E+02  0.18400872328E+03  0.22485031147E+03  0.94845596681E+02 0.  0.
         24    2    1    2    0    0  0.24748952914E+02 -0.16265708763E+02 -0.19995881194E+03  0.21742829528E+03  0.80090281340E+02 0.  0.
        -13    1    4    4    0    0  0.29878124552E+02 -0.21497755899E+02 -0.30476792024E+02  0.47787976390E+02  0.00000000000E+00 0.  1.
         14    1    4    4    0    0 -0.51291716377E+01  0.52320471355E+01 -0.16948201992E+03  0.16964031889E+03  0.00000000000E+00 0. -1.
        -11    1    3    3    0    0 -0.10412784846E+03 -0.23692864696E+02  0.13745062693E+03  0.17405928733E+03  0.00000000000E+00 0. -1.
         11    1    3    3    0    0  0.17355226888E+02  0.10529382575E+02  0.46558096348E+02  0.50791024141E+02  0.00000000000E+00 0.  1.
          1    1    1    2  501    0  0.62023668655E+02  0.29429190884E+02 -0.78141667588E+02  0.10401506123E+03  0.00000000000E+00 0. -1.
<scales pt_clust_5="13000.00000" pt_clust_6="13000.00000" pt_clust_7="13000.00000" pt_clust_8="13000.00000" pt_clust_9="68.65139"></scales>
<clustering>
<clus scale="   68.651">  2  9  1 -1</clus>
<clus scale="   80.090">  5  6 -1 -1</clus>
<clus scale="   94.846">  7  8 -1 -1</clus>
<clus scale="  114.570">  2  5  1 -1</clus>
<clus scale="   68.651">  2  5  1 -1</clus>
</clustering>
</event>
<event>
 9    2  0.6873762E-005  0.1562958E+03  0.7546771E-02  0.1196037E+00
         21   -1    0    0  501  502  0.00000000000E+00  0.00000000000E+00  0.14591518551E+03  0.14591518551E+03  0.00000000000E+00 0. -1.
         -1   -1    0    0    0  501 -0.00000000000E+00 -0.00000000000E+00 -0.51364078276E+03  0.51364078276E+03  0.00000000000E+00 0.  1.
         23    2    1    2    0    0 -0.38451792253E+02  0.92153107395E+02 -0.73612650227E+02  0.15768765955E+03  0.97343927235E+02 0.  0.
         24    2    1    2    0    0  0.12770083205E+03 -0.12837401876E+03 -0.59007217261E+01  0.19798735780E+03  0.79854768997E+02 0.  0.
        -11    1    4    4    0    0  0.46241622462E+02 -0.10177784133E+03 -0.97153143393E+01  0.11221142529E+03  0.00000000000E+00 0.  1.
         12    1    4    4    0    0  0.81459209591E+02 -0.26596177439E+02  0.38145926132E+01  0.85775932512E+02  0.00000000000E+00 0. -1.
        -11    1    3    3    0    0  0.76448132410E+01  0.85441552218E+02 -0.70438903679E+02  0.11099703224E+03  0.00000000000E+00 0.  1.
         11    1    3    3    0    0 -0.46096605494E+02  0.67115551769E+01 -0.31737465488E+01  0.46690627305E+02  0.00000000000E+00 0. -1.
         -2    1    1    2    0  502 -0.89249039800E+02  0.36220911369E+02 -0.28821222529E+03  0.30388095092E+03  0.00000000000E+00 0.  1.
<scales pt_clust_5="13000.00000" pt_clust_6="13000.00000" pt_clust_7="13000.00000" pt_clust_8="13000.00000" pt_clust_9="96.31903"></scales>
<clustering>
<clus scale="   79.855">  5  6 -1 -1</clus>
<clus scale="   96.319">  1  9  2 -1</clus>
<clus scale="   97.344">  7  8 -1 -1</clus>
<clus scale="  146.046">  1  5  2 -1</clus>
<clus scale="   96.319">  1  5  2 -1</clus>
</clustering>
</event>
<event>
 9    2  0.6175212E-005  0.1188311E+03  0.7546771E-02  0.1248688E+00
          2   -1    0    0  502    0 -0.00000000000E+00  0.00000000000E+00  0.57926970661E+03  0.57926970661E+03  0.00000000000E+00 0. -1.
         21   -1    0    0  501  502  0.00000000000E+00 -0.00000000000E+00 -0.70152557931E+02  0.70152557931E+02  0.00000000000E+00 0. -1.
         23    2    1    2    0    0 -0.62906546553E+02  0.48084726362E+02  0.46437086100E+03  0.47996781221E+03  0.91975158080E+02 0.  0.
         24    2    1    2    0    0  0.70165590723E+02 -0.16036790591E+01  0.56385759593E+02  0.12099148928E+03  0.80831953367E+02 0.  0.
        -13    1    4    4    0    0  0.67224192122E+02 -0.33436800930E+02  0.39504750172E+02  0.84839477539E+02  0.00000000000E+00 0.  1.
         14    1    4    4    0    0  0.29413986004E+01  0.31833121871E+02  0.16881009421E+02  0.36152011740E+02  0.00000000000E+00 0. -1.
        -13    1    3    3    0    0  0.18677570635E+02  0.12593679671E+02  0.36089635186E+02  0.42543086164E+02  0.00000000000E+00 0.  1.
         13    1    3    3    0    0 -0.81584117188E+02  0.35491046692E+02  0.42828122581E+03  0.43742472605E+03  0.00000000000E+00 0. -1.
          1    1    1    2  501    0 -0.72590441697E+01 -0.46481047303E+02 -0.11639471918E+02  0.48462963046E+02  0.00000000000E+00 0. -1.
<scales pt_clust_5="13000.00000" pt_clust_6="13000.00000" pt_clust_7="13000.00000" pt_clust_8="13000.00000" pt_clust_9="47.04446"></scales>
<clustering>
<clus scale="   47.044">  2  9  1 -1</clus>
<clus scale="   80.832">  5  6 -1 -1</clus>
<clus scale="   91.975">  7  8 -1 -1</clus>
<clus scale="  110.432">  2  5  1 -1</clus>
<clus scale="   47.044">  2  5  1 -1</clus>
</clustering>
</event>
<event>
 9    2  0.6175212E-005  0.1600531E+03  0.7546771E-02  0.1196779E+00
          2   -1    0    0  502    0 -0.00000000000E+00  0.00000000000E+00  0.10513446901E+04  0.10513446901E+04  0.00000000000E+00 0. -1.
         21   -1    0    0  501  502  0.00000000000E+00 -0.00000000000E+00 -0.81909641775E+02  0.81909641775E+02  0.00000000000E+00 0. -1.
         23    2    1    2    0    0  0.53981776438E+02  0.80540538021E+02  0.22550217450E+02  0.13569846238E+03  0.92221201097E+02 0.  0.
         24    2    1    2    0    0 -0.65791410692E+02  0.88251746676E+02  0.53742723494E+03  0.55451430746E+03  0.80877708930E+02 0.  0.
        -11    1    4    4    0    0 -0.47519041650E+02  0.11923790092E+01  0.19761412156E+03  0.20325063869E+03  0.00000000000E+00 0.  1.
         12    1    4    4    0    0 -0.18272369043E+02  0.87059367667E+02  0.33981311339E+03  0.35126366877E+03  0.00000000000E+00 0. -1.
        -11    1    3    3    0    0  0.62705615952E+02  0.20512237397E+02 -0.10206325805E+02  0.66760132125E+02  0.00000000000E+00 0.  1.
         11    1    3    3    0    0 -0.87238395139E+01  0.60028300624E+02  0.32756543255E+02  0.68938330250E+02  0.00000000000E+00 0. -1.
          1    1    1    2  501    0  0.11809634254E+02 -0.16879228470E+03  0.40945759595E+03  0.44304156207E+03  0.00000000000E+00 0. -1.
<scales pt_clust_5="13000.00000" pt_clust_6="13000.00000" pt_clust_7="13000.00000" pt_clust_8="13000.00000" pt_clust_9="138.11508"></scales>
<clustering>
<clus scale="   80.878">  5  6 -1 -1</clus>
<clus scale="   92.221">  7  8 -1 -1</clus>
<clus scale="  133.812">  1  7  2 -1</clus>
<clus scale="  138.115">  2  9  1 -1</clus>
<clus scale="  138.115">  2  5  1 -1</clus>
</clustering>
</event>
<event>
 9    2  0.6175212E-005  0.1183810E+03  0.7546771E-02  0.1246523E+00
          2   -1    0    0  502    0 -0.00000000000E+00  0.00000000000E+00  0.10892068154E+04  0.10892068154E+04  0.00000000000E+00 0. -1.
         21   -1    0    0  501  502  0.00000000000E+00 -0.00000000000E+00 -0.32187842636E+02  0.32187842636E+02  0.00000000000E+00 0.  1.
         24    2    1    2    0    0 -0.80660333054E+02  0.12024057013E+02  0.91380046064E+03  0.92170720733E+03  0.88669199305E+02 0.  0.
         23    2    1    2    0    0  0.43643599690E+02 -0.66156874696E+01  0.95538260119E+02  0.13908303304E+03  0.90928542380E+02 0.  0.
        -13    1    3    3    0    0  0.12216543052E+02 -0.18156806571E+02  0.12735016804E+03  0.12921679012E+03  0.00000000000E+00 0.  1.
         14    1    3    3    0    0 -0.92876876106E+02  0.30180863584E+02  0.78645029259E+03  0.79249041721E+03  0.00000000000E+00 0. -1.
        -13    1    4    4    0    0 -0.15215928940E+02  0.26210157498E+02  0.47406481716E+02  0.56266076443E+02  0.00000000000E+00 0. -1.
         13    1    4    4    0    0  0.58859528630E+02 -0.32825844968E+02  0.48131778403E+02  0.82816956601E+02  0.00000000000E+00 0.  1.
          1    1    1    2  501    0  0.37016733364E+02 -0.54083695434E+01  0.47680252054E+02  0.60604417710E+02  0.00000000000E+00 0. -1.
<scales pt_clust_5="13000.00000" pt_clust_6="13000.00000" pt_clust_7="13000.00000" pt_clust_8="13000.00000" pt_clust_9="37.40974"></scales>
<clustering>
<clus scale="   37.410">  2  9  1 -1</clus>
<clus scale="   88.669">  5  6 -1 -1</clus>
<clus scale="   90.929">  7  8 -1 -1</clus>
<clus scale="  116.655">  1  5  2 -1</clus>
<clus scale="   37.410">  2  5  1 -1</clus>
</clustering>
</event>
<event>
 9    2  0.6175212E-005  0.9271728E+02  0.7546771E-02  0.1304305E+00
          2   -1    0    0  502    0 -0.00000000000E+00  0.00000000000E+00  0.10425685020E+03  0.10425685020E+03  0.00000000000E+00 0. -1.
         21   -1    0    0  501  502  0.00000000000E+00 -0.00000000000E+00 -0.98678994600E+02  0.98678994600E+02  0.00000000000E+00 0. -1.
         24    2    1    2    0    0  0.44220844228E+01 -0.98256568165E+00  0.10706971801E+02  0.79702893378E+02  0.78850438818E+02 0.  0.
         23    2    1    2    0    0 -0.20706627968E+02  0.21908078507E+02 -0.67919836503E+01  0.96665516968E+02  0.91593464740E+02 0.  0.
        -13    1    3    3    0    0 -0.13081153254E+01 -0.38550470672E+02 -0.43690137371E+01  0.38819302361E+02  0.00000000000E+00 0.  1.
         14    1    3    3    0    0  0.57301997482E+01  0.37567904990E+02  0.15075985538E+02  0.40883591017E+02  0.00000000000E+00 0. -1.
        -11    1    4    4    0    0  0.35810066301E+02  0.12581495474E+02 -0.10138738526E+02  0.39286752165E+02  0.00000000000E+00 0. -1.
         11    1    4    4    0    0 -0.56516694269E+02  0.93265830333E+01  0.33467548752E+01  0.57378764803E+02  0.00000000000E+00 0.  1.
          1    1    1    2  501    0  0.16284543545E+02 -0.20925512826E+02  0.16628674532E+01  0.26567434457E+02  0.00000000000E+00 0. -1.
<scales pt_clust_5="13000.00000" pt_clust_6="13000.00000" pt_clust_7="13000.00000" pt_clust_8="13000.00000" pt_clust_9="26.51536"></scales>
<clustering>
<clus scale="   26.515">  2  9  1 -1</clus>
<clus scale="   78.850">  5  6 -1 -1</clus>
<clus scale="   80.153">  1  5  2 -1</clus>
<clus scale="   91.593">  7  8 -1 -1</clus>
<clus scale="   26.515">  2  5  1 -1</clus>
</clustering>
</event>
<event>
 9    2  0.6175212E-005  0.9331312E+02  0.7546771E-02  0.1301568E+00
         21   -1    0    0  501  502  0.00000000000E+00  0.00000000000E+00  0.49413970449E+02  0.49413970449E+02  0.00000000000E+00 0.  1.
          2   -1    0    0  502    0 -0.00000000000E+00 -0.00000000000E+00 -0.22503761044E+03  0.22503761044E+03  0.00000000000E+00 0. -1.
         23    2    1    2    0    0 -0.49334168877E+01 -0.87540185562E+01 -0.11517380263E+03  0.14743795521E+03  0.91498493873E+02 0.  0.
         24    2    1    2    0    0  0.26906715447E+02  0.19264422563E+02 -0.44055279440E+02  0.97652495396E+02  0.80622905540E+02 0.  0.
        -11    1    4    4    0    0  0.18192837403E+02  0.17197324708E+02  0.20575049990E+02  0.32404629175E+02  0.00000000000E+00 0.  1.
         12    1    4    4    0    0  0.87138780437E+01  0.20670978547E+01 -0.64630329430E+02  0.65247866221E+02  0.00000000000E+00 0. -1.
        -11    1    3    3    0    0 -0.22027630276E+02  0.36921664292E+02 -0.59775777702E+02  0.73631307129E+02  0.00000000000E+00 0.  1.
         11    1    3    3    0    0  0.17094213388E+02 -0.45675682848E+02 -0.55398024931E+02  0.73806648083E+02  0.00000000000E+00 0. -1.
          1    1    1    2  501    0 -0.21973298559E+02 -0.10510404007E+02 -0.16394557915E+02  0.29361130278E+02  0.00000000000E+00 0. -1.
<scales pt_clust_5="13000.00000" pt_clust_6="13000.00000" pt_clust_7="13000.00000" pt_clust_8="13000.00000" pt_clust_9="24.35764"></scales>
<clustering>
<clus scale="   24.358">  1  9  2 -1</clus>
<clus scale="   80.623">  5  6 -1 -1</clus>
<clus scale="   82.677">  1  5  2 -1</clus>
<clus scale="   91.498">  7  8 -1 -1</clus>
<clus scale="   24.358">  1  5  2 -1</clus>
</clustering>
</event>
<event>
 9    2  0.6175212E-005  0.9385508E+02  0.7546771E-02  0.1300668E+00
         21   -1    0    0  501  502  0.00000000000E+00  0.00000000000E+00  0.15212397001E+03  0.15212397001E+03  0.00000000000E+00 0. -1.
          2   -1    0    0  502    0 -0.00000000000E+00 -0.00000000000E+00 -0.42001960487E+03  0.42001960487E+03  0.00000000000E+00 0. -1.
         24    2    1    2    0    0  0.73524050365E+00 -0.14822728871E+02 -0.31442018603E+03  0.32475832825E+03  0.79922866047E+02 0.  0.
         23    2    1    2    0    0 -0.30904083349E+02  0.54872251614E+02 -0.62449844689E+02  0.12742882828E+03  0.91499162900E+02 0.  0.
        -11    1    3    3    0    0 -0.21709449704E+02  0.17483919432E+02 -0.48462203838E+02  0.55906822893E+02  0.00000000000E+00 0.  1.
         12    1    3    3    0    0  0.22444690207E+02 -0.32306648303E+02 -0.26595798219E+03  0.26885150536E+03  0.00000000000E+00 0. -1.
        -13    1    4    4    0    0  0.21833633284E+02  0.10590211492E+02 -0.52517543696E+02  0.57852852287E+02  0.00000000000E+00 0. -1.
         13    1    4    4    0    0 -0.52737716632E+02  0.44282040123E+02 -0.99323009929E+01  0.69575975998E+02  0.00000000000E+00 0.  1.
          1    1    1    2  501    0  0.30168842845E+02 -0.40049522743E+02  0.10897439586E+03  0.11995641835E+03  0.00000000000E+00 0. -1.
<scales pt_clust_5="13000.00000" pt_clust_6="13000.00000" pt_clust_7="13000.00000" pt_clust_8="13000.00000" pt_clust_9="50.14103"></scales>
<clustering>
<clus scale="   50.141">  1  9  2 -1</clus>
<clus scale="   79.923">  5  6 -1 -1</clus>
<clus scale="   82.610">  2  5  1 -1</clus>
<clus scale="   91.499">  7  8 -1 -1</clus>
<clus scale="   50.141">  1  5  2 -1</clus>
</clustering>
</event>
<event>
 9    2  0.6175212E-005  0.1120141E+03  0.7546771E-02  0.1260586E+00
         -3   -1    0    0    0  501 -0.00000000000E+00  0.00000000000E+00  0.11095417254E+03  0.11095417254E+03  0.00000000000E+00 0.  1.
         21   -1    0    0  501  502  0.00000000000E+00 -0.00000000000E+00 -0.25181649131E+03  0.25181649131E+03  0.00000000000E+00 0. -1.
         24    2    1    2    0    0 -0.39904678524E+02  0.27900122183E+02  0.48841986876E+01  0.94273764969E+02  0.80578453564E+02 0.  0.
         23    2    1    2    0    0  0.58568181791E+02 -0.97757701980E+02 -0.62948742426E+02  0.15857019893E+03  0.90527142903E+02 0.  0.
        -13    1    3    3    0    0 -0.46319787060E+02  0.51634797061E+02  0.93687193368E+00  0.69372564244E+02  0.00000000000E+00 0.  1.
         14    1    3    3    0    0  0.64151085358E+01 -0.23734674877E+02  0.39473267540E+01  0.24901200725E+02  0.00000000000E+00 0. -1.
        -11    1    4    4    0    0  0.22632230632E+02 -0.83333099411E+01  0.20064170729E+02  0.31372485795E+02  0.00000000000E+00 0.  1.
         11    1    4    4    0    0  0.35935951160E+02 -0.89424392039E+02 -0.83012913155E+02  0.12719771314E+03  0.00000000000E+00 0. -1.
         -4    1    1    2    0  502 -0.18663503267E+02  0.69857579797E+02 -0.82797775034E+02  0.10992669994E+03  0.00000000000E+00 0.  1.
<scales pt_clust_5="13000.00000" pt_clust_6="13000.00000" pt_clust_7="13000.00000" pt_clust_8="13000.00000" pt_clust_9="72.30773"></scales>
<clustering>
<clus scale="   72.308">  2  9  1 -1</clus>
<clus scale="   80.578">  5  6 -1 -1</clus>
<clus scale="   90.527">  7  8 -1 -1</clus>
<clus scale="  104.139">  1  5  2 -1</clus>
<clus scale="   72.308">  2  5  1 -1</clus>
</clustering>
</event>
<event>
 9    2  0.6175212E-005  0.1078619E+03  0.7546771E-02  0.1268743E+00
          2   -1    0    0  502    0 -0.00000000000E+00  0.00000000000E+00  0.63626984889E+03  0.63626984889E+03  0.00000000000E+00 0. -1.
         21   -1    0    0  501  502  0.00000000000E+00 -0.00000000000E+00 -0.33112005055E+02  0.33112005055E+02  0.00000000000E+00 0. -1.
         24    2    1    2    0    0 -0.14804742903E+02  0.55128697346E+02  0.19952877226E+03  0.22235261433E+03  0.79816041344E+02 0.  0.
         23    2    1    2    0    0  0.52939482792E+02 -0.46608914471E+02  0.14125327988E+03  0.18175975182E+03  0.90050755462E+02 0.  0.
        -11    1    3    3    0    0 -0.18515395559E+01 -0.20910157515E+02  0.43099698191E+02  0.47940034107E+02  0.00000000000E+00 0.  1.
         12    1    3    3    0    0 -0.12953203347E+02  0.76038854861E+02  0.15642907407E+03  0.17441258023E+03  0.00000000000E+00 0. -1.
        -13    1    4    4    0    0  0.86174571193E+01 -0.65520184403E+02  0.77669306317E+02  0.10197880307E+03  0.00000000000E+00 0. -1.
         13    1    4    4    0    0  0.44322025673E+02  0.18911269931E+02  0.63583973565E+02  0.79780948757E+02  0.00000000000E+00 0.  1.
          1    1    1    2  501    0 -0.38134739889E+02 -0.85197828747E+01  0.26237579169E+03  0.26526948778E+03  0.00000000000E+00 0. -1.
<scales pt_clust_5="13000.00000" pt_clust_6="13000.00000" pt_clust_7="13000.00000" pt_clust_8="13000.00000" pt_clust_9="39.07488"></scales>
<clustering>
<clus scale="   39.075">  2  9  1 -1</clus>
<clus scale="   79.816">  5  6 -1 -1</clus>
<clus scale="   90.051">  7  8 -1 -1</clus>
<clus scale="   99.477">  1  5  2 -1</clus>
<clus scale="   39.075">  2  5  1 -1</clus>
</clustering>
</event>
<event>
 9    2  0.6175212E-005  0.2434941E+03  0.7546771E-02  0.1128890E+00
          2   -1    0    0  502    0 -0.00000000000E+00  0.00000000000E+00  0.10180265852E+04  0.10180265852E+04  0.00000000000E+00 0. -1.
         21   -1    0    0  501  502  0.00000000000E+00 -0.00000000000E+00 -0.41024914256E+03  0.41024914256E+03  0.00000000000E+00 0. -1.
         24    2    1    2    0    0  0.16443420021E+03  0.73250811511E+00  0.65639620986E+03  0.68153039932E+03  0.81169933465E+02 0.  0.
         23    2    1    2    0    0  0.16158724734E+03  0.13389893391E+03 -0.25163131480E+03  0.33976903441E+03  0.89918380464E+02 0.  0.
        -13    1    3    3    0    0  0.26576488770E+02  0.28296153911E+02  0.20869329186E+03  0.21227310745E+03  0.00000000000E+00 0.  1.
         14    1    3    3    0    0  0.13785771144E+03 -0.27563645796E+02  0.44770291800E+03  0.46925729186E+03  0.00000000000E+00 0. -1.
        -13    1    4    4    0    0  0.76130489185E+02  0.35338450244E+02 -0.44544849586E+02  0.95020529749E+02  0.00000000000E+00 0.  1.
         13    1    4    4    0    0  0.85456758155E+02  0.98560483669E+02 -0.20708646522E+03  0.24474850466E+03  0.00000000000E+00 0. -1.
          1    1    1    2  501    0 -0.32602144755E+03 -0.13463144203E+03  0.20301254763E+03  0.40697629408E+03  0.00000000000E+00 0. -1.
<scales pt_clust_5="13000.00000" pt_clust_6="13000.00000" pt_clust_7="13000.00000" pt_clust_8="13000.00000" pt_clust_9="226.28331"></scales>
<clustering>
<clus scale="   81.170">  5  6 -1 -1</clus>
<clus scale="   89.918">  7  8 -1 -1</clus>
<clus scale="  183.379">  1  5  2 -1</clus>
<clus scale="  226.283">  2  9  1 -1</clus>
<clus scale="  226.283">  2  5  1 -1</clus>
</clustering>
</event>
<event>
 9    2  0.6175212E-005  0.1942428E+03  0.7546771E-02  0.1155580E+00
         21   -1    0    0  501  502  0.00000000000E+00  0.00000000000E+00  0.10583121830E+03  0.10583121830E+03  0.00000000000E+00 0. -1.
          2   -1    0    0  502    0 -0.00000000000E+00 -0.00000000000E+00 -0.10910981165E+04  0.10910981165E+04  0.00000000000E+00 0. -1.
         23    2    1    2    0    0  0.16380952059E+03 -0.81203943288E+02 -0.79305879412E+03  0.81870708484E+03  0.88946053276E+02 0.  0.
         24    2    1    2    0    0 -0.11508913032E+03  0.50572736427E+01  0.25552985722E+02  0.14244293798E+03  0.79786913503E+02 0.  0.
        -13    1    4    4    0    0 -0.80867251930E+02  0.85434085012E+01 -0.21542563914E+02  0.84122436505E+02  0.00000000000E+00 0.  1.
         14    1    4    4    0    0 -0.34221878394E+02 -0.34861348585E+01  0.47095549636E+02  0.58320501477E+02  0.00000000000E+00 0. -1.
        -13    1    3    3    0    0  0.14474404302E+03 -0.39401974477E+02 -0.68592666491E+03  0.70213869229E+03  0.00000000000E+00 0. -1.
         13    1    3    3    0    0  0.19065477569E+02 -0.41801968811E+02 -0.10713212922E+03  0.11656839255E+03  0.00000000000E+00 0.  1.
          1    1    1    2  501    0 -0.48720390265E+02  0.76146669646E+02 -0.21776108981E+03  0.23577931198E+03  0.00000000000E+00 0. -1.
<scales pt_clust_5="13000.00000" pt_clust_6="13000.00000" pt_clust_7="13000.00000" pt_clust_8="13000.00000" pt_clust_9="90.39911"></scales>
<clustering>
<clus scale="   79.787">  5  6 -1 -1</clus>
<clus scale="   88.946">  7  8 -1 -1</clus>
<clus scale="   90.399">  1  9  2 -1</clus>
<clus scale="  190.223">  1  5  2 -1</clus>
<clus scale="   90.399">  1  5  2 -1</clus>
</clustering>
</event>
<event>
 9    2  0.6175212E-005  0.9270659E+02  0.7546771E-02  0.1301879E+00
         21   -1    0    0  501  502  0.00000000000E+00  0.00000000000E+00  0.31541199470E+03  0.31541199470E+03  0.00000000000E+00 0. -1.
          2   -1    0    0  502    0 -0.00000000000E+00 -0.00000000000E+00 -0.73438221969E+02  0.73438221969E+02  0.00000000000E+00 0. -1.
         24    2    1    2    0    0  0.14128671766E+02  0.13539683361E+02 -0.25879427749E+02  0.86930447980E+02  0.80648717374E+02 0.  0.
         23    2    1    2    0    0 -0.48437150924E+02 -0.87024260064E+01  0.17450989255E+03  0.20235348958E+03  0.89840649699E+02 0.  0.
        -11    1    3    3    0    0  0.22679768020E+02 -0.54285307331E+01  0.23646517535E+02  0.33211422958E+02  0.00000000000E+00 0.  1.
         12    1    3    3    0    0 -0.85510962545E+01  0.18968214094E+02 -0.49525945284E+02  0.53719025022E+02  0.00000000000E+00 0. -1.
        -13    1    4    4    0    0  0.10663015018E+02 -0.31812455701E+02  0.94209230035E+02  0.10000555610E+03  0.00000000000E+00 0. -1.
         13    1    4    4    0    0 -0.59100165941E+02  0.23110029695E+02  0.80300662515E+02  0.10234793348E+03  0.00000000000E+00 0.  1.
          1    1    1    2  501    0  0.34308479158E+02 -0.48372573545E+01  0.93343307926E+02  0.99566279108E+02  0.00000000000E+00 0. -1.
<scales pt_clust_5="13000.00000" pt_clust_6="13000.00000" pt_clust_7="13000.00000" pt_clust_8="13000.00000" pt_clust_9="34.64781"></scales>
<clustering>
<clus scale="   34.648">  1  9  2 -1</clus>
<clus scale="   80.649">  5  6 -1 -1</clus>
<clus scale="   83.829">  2  5  1 -1</clus>
<clus scale="   89.841">  7  8 -1 -1</clus>
<clus scale="   34.648">  1  5  2 -1</clus>
</clustering>
</event>
<event>
 9    2  0.6175212E-005  0.2210743E+03  0.7546771E-02  0.1133729E+00
          2   -1    0    0  502    0 -0.00000000000E+00  0.00000000000E+00  0.71938024676E+03  0.71938024676E+03  0.00000000000E+00 0. -1.
         21   -1    0    0  501  502  0.00000000000E+00 -0.00000000000E+00 -0.15628415097E+03  0.15628415097E+03  0.00000000000E+00 0.  1.
         24    2    1    2    0    0  0.18522126684E+03  0.59777819079E+01  0.40858464434E+03  0.45601752903E+03  0.81657354997E+02 0.  0.
         23    2    1    2    0    0 -0.24420050387E+03 -0.16096730423E+02  0.21236638972E+03  0.33641143513E+03  0.90444344133E+02 0.  0.
        -11    1    3    3    0    0  0.10620732171E+03 -0.28965476650E+01  0.13902059887E+03  0.17497174653E+03  0.00000000000E+00 0.  1.
         12    1    3    3    0    0  0.79013945124E+02  0.88743295730E+01  0.26956404547E+03  0.28104578250E+03  0.00000000000E+00 0. -1.
        -11    1    4    4    0    0 -0.17858421664E+03  0.17328033417E+02  0.18536467403E+03  0.25797799432E+03  0.00000000000E+00 0. -1.
         11    1    4    4    0    0 -0.65616287230E+02 -0.33424763839E+02  0.27001715686E+02  0.78433440811E+02  0.00000000000E+00 0.  1.
          1    1    1    2  501    0  0.58979237030E+02  0.10118948515E+02 -0.57854938272E+02  0.83235433573E+02  0.00000000000E+00 0. -1.
<scales pt_clust_5="13000.00000" pt_clust_6="13000.00000" pt_clust_7="13000.00000" pt_clust_8="13000.00000" pt_clust_9="59.84099"></scales>
<clustering>
<clus scale="   59.841">  2  9  1 -1</clus>
<clus scale="   81.657">  5  6 -1 -1</clus>
<clus scale="   90.444">  7  8 -1 -1</clus>
<clus scale="  217.627">  1  5  2 -1</clus>
<clus scale="   59.841">  2  5  1 -1</clus>
</clustering>
</event>
<event>
 9    2  0.6175212E-005  0.9657885E+02  0.7546771E-02  0.1292722E+00
         21   -1    0    0  501  502  0.00000000000E+00  0.00000000000E+00  0.84591128658E+02  0.84591128658E+02  0.00000000000E+00 0.  1.
          2   -1    0    0  502    0 -0.00000000000E+00 -0.00000000000E+00 -0.26088095016E+03  0.26088095016E+03  0.00000000000E+00 0. -1.
         24    2    1    2    0    0 -0.33815359430E+02 -0.16143714763E+02 -0.10592546978E+03  0.13847045730E+03  0.80930614345E+02 0.  0.
         23    2    1    2    0    0 -0.22733200634E+02  0.63423303260E+02 -0.12682040805E+02  0.11340489013E+03  0.90335602826E+02 0.  0.
        -13    1    3    3    0    0  0.47404229703E+01  0.25348531151E+02 -0.11227290620E+02  0.28125996802E+02  0.00000000000E+00 0.  1.
         14    1    3    3    0    0 -0.38555782401E+02 -0.41492245914E+02 -0.94698179159E+02  0.11034446050E+03  0.00000000000E+00 0. -1.
        -13    1    4    4    0    0 -0.52620524676E+02  0.46156304335E+02  0.11939973801E+02  0.71006246355E+02  0.00000000000E+00 0.  1.
         13    1    4    4    0    0  0.29887324042E+02  0.17266998925E+02 -0.24622014606E+02  0.42398643771E+02  0.00000000000E+00 0. -1.
          1    1    1    2  501    0  0.56548560064E+02 -0.47279588497E+02 -0.57682310917E+02  0.93596731388E+02  0.00000000000E+00 0. -1.
<scales pt_clust_5="13000.00000" pt_clust_6="13000.00000" pt_clust_7="13000.00000" pt_clust_8="13000.00000" pt_clust_9="73.70960"></scales>
<clustering>
<clus scale="   73.710">  1  9  2 -1</clus>
<clus scale="   80.931">  5  6 -1 -1</clus>
<clus scale="   87.845">  2  5  1 -1</clus>
<clus scale="   90.336">  7  8 -1 -1</clus>
<clus scale="   73.710">  1  5  2 -1</clus>
</clustering>
</event>
<event>
 9    2  0.6175212E-005  0.9628176E+02  0.7546771E-02  0.1289623E+00
         -3   -1    0    0    0  501 -0.00000000000E+00  0.00000000000E+00  0.41261732287E+03  0.41261732287E+03  0.00000000000E+00 0.  1.
         21   -1    0    0  501  502  0.00000000000E+00 -0.00000000000E+00 -0.59387178487E+02  0.59387178487E+02  0.00000000000E+00 0.  1.
         23    2    1    2    0    0 -0.16144489005E+02 -0.23091131211E+02  0.89880877540E+02  0.13228837925E+03  0.92885942269E+02 0.  0.
         24    2    1    2    0    0 -0.72924947659E+02 -0.67889274220E+01  0.84320572211E+02  0.13753438220E+03  0.80259640305E+02 0.  0.
        -11    1    4    4    0    0 -0.76621452067E+02 -0.81398153732E+00  0.96652223427E+02  0.12334164656E+03  0.00000000000E+00 0.  1.
         12    1    4    4    0    0  0.36965044076E+01 -0.59749458847E+01 -0.12331651216E+02  0.14192735637E+02  0.00000000000E+00 0. -1.
        -13    1    3    3    0    0  0.24637059577E+02 -0.32901726903E+02  0.78844934141E+02  0.88915870223E+02  0.00000000000E+00 0. -1.
         13    1    3    3    0    0 -0.40781548582E+02  0.98105956920E+01  0.11035943400E+02  0.43372509027E+02  0.00000000000E+00 0.  1.
         -4    1    1    2    0  502  0.89069436664E+02  0.29880058633E+02  0.17902869464E+03  0.20218173991E+03  0.00000000000E+00 0.  1.
<scales pt_clust_5="13000.00000" pt_clust_6="13000.00000" pt_clust_7="13000.00000" pt_clust_8="13000.00000" pt_clust_9="93.94781"></scales>
<clustering>
<clus scale="   80.260">  5  6 -1 -1</clus>
<clus scale="   92.886">  7  8 -1 -1</clus>
<clus scale="   93.948">  2  9  1 -1</clus>
<clus scale="   93.948">  2  5  1 -1</clus>
<clus scale="   93.948">  2  5  1 -1</clus>
</clustering>
</event>
<event>
 9    2  0.6175212E-005  0.1325855E+03  0.7546771E-02  0.1233724E+00
         21   -1    0    0  501  502  0.00000000000E+00  0.00000000000E+00  0.11007417446E+03  0.11007417446E+03  0.00000000000E+00 0.  1.
         -1   -1    0    0    0  501 -0.00000000000E+00 -0.00000000000E+00 -0.40051574785E+03  0.40051574785E+03  0.00000000000E+00 0.  1.
         24    2    1    2    0    0 -0.44647601077E+02 -0.56110874527E+02 -0.16240848643E+03  0.19486190143E+03  0.80329357298E+02 0.  0.
         23    2    1    2    0    0 -0.36562125781E+02 -0.68492727802E+02  0.85251272530E-01  0.11942370090E+03  0.90741226934E+02 0.  0.
        -11    1    3    3    0    0  0.23564911860E+02 -0.13007622651E+02 -0.37591180099E+02  0.46234187991E+02  0.00000000000E+00 0.  1.
         12    1    3    3    0    0 -0.68212512937E+02 -0.43103251877E+02 -0.12481730633E+03  0.14862771344E+03  0.00000000000E+00 0. -1.
        -13    1    4    4    0    0 -0.95672479825E+01 -0.51303200449E+02  0.41787941362E+02  0.66856433150E+02  0.00000000000E+00 0.  1.
         13    1    4    4    0    0 -0.26994877798E+02 -0.17189527353E+02 -0.41702690090E+02  0.52567267750E+02  0.00000000000E+00 0. -1.
         -2    1    1    2    0  502  0.81209726858E+02  0.12460360233E+03 -0.12811833823E+03  0.19630431998E+03  0.00000000000E+00 0.  1.
<scales pt_clust_5="13000.00000" pt_clust_6="13000.00000" pt_clust_7="13000.00000" pt_clust_8="13000.00000" pt_clust_9="96.66935"></scales>
<clustering>
<clus scale="   80.329">  5  6 -1 -1</clus>
<clus scale="   90.741">  7  8 -1 -1</clus>
<clus scale="  107.678">  2  5  1 -1</clus>
<clus scale="   96.669">  1  9  2 -1</clus>
<clus scale="   96.669">  1  5  2 -1</clus>
</clustering>
</event>
<event>
 9    2  0.6175212E-005  0.8704396E+02  0.7546771E-02  0.1316132E+00
         21   -1    0    0  501  502  0.00000000000E+00  0.00000000000E+00  0.98382336133E+02  0.98382336133E+02  0.00000000000E+00 0.  1.
          2   -1    0    0  502    0 -0.00000000000E+00 -0.00000000000E+00 -0.95290945098E+02  0.95290945098E+02  0.00000000000E+00 0. -1.
         23    2    1    2    0    0  0.38716095472E+02 -0.17133354874E+02 -0.61380191384E+01  0.83553917810E+02  0.71771122359E+02 0.  0.
         24    2    1    2    0    0 -0.13292290880E+02  0.14066332250E+02  0.25856112216E+01  0.83663427749E+02  0.81353162554E+02 0.  0.
        -11    1    4    4    0    0  0.16698949062E+02  0.23946345704E+02  0.29990116370E+02  0.41853189272E+02  0.00000000000E+00 0.  1.
         12    1    4    4    0    0 -0.29991239942E+02 -0.98800134534E+01 -0.27404505149E+02  0.41810238477E+02  0.00000000000E+00 0. -1.
        -11    1    3    3    0    0  0.47853357044E+02  0.96211060142E+01  0.11610424722E+02  0.50172815583E+02  0.00000000000E+00 0. -1.
         11    1    3    3    0    0 -0.91372615721E+01 -0.26754460888E+02 -0.17748443860E+02  0.33381102227E+02  0.00000000000E+00 0.  1.
          1    1    1    2  501    0 -0.25423804592E+02  0.30670226233E+01  0.66437989516E+01  0.26455935671E+02  0.00000000000E+00 0. -1.
<scales pt_clust_5="13000.00000" pt_clust_6="13000.00000" pt_clust_7="13000.00000" pt_clust_8="13000.00000" pt_clust_9="25.60813"></scales>
<clustering>
<clus scale="   25.608">  1  9  2 -1</clus>
<clus scale="   71.771">  7  8 -1 -1</clus>
<clus scale="   78.163">  2  7  1 -1</clus>
<clus scale="   81.353">  5  6 -1 -1</clus>
<clus scale="   25.608">  1  5  2 -1</clus>
</clustering>
</event>
<event>
 9    2  0.6175212E-005  0.1091971E+03  0.7546771E-02  0.1275983E+00
         -3   -1    0    0    0  501 -0.00000000000E+00  0.00000000000E+00  0.25935410113E+03  0.25935410113E+03  0.00000000000E+00 0.  1.
         21   -1    0    0  501  502  0.00000000000E+00 -0.00000000000E+00 -0.11251756479E+03  0.11251756479E+03  0.00000000000E+00 0.  1.
         24    2    1    2    0    0  0.11700670301E+02  0.17757707066E+02  0.18481808981E+03  0.20268540194E+03  0.80445037097E+02 0.  0.
         23    2    1    2    0    0 -0.32729110971E+02 -0.71753915738E+01  0.13187016875E+02  0.11286217225E+03  0.10696397320E+03 0.  0.
        -13    1    3    3    0    0  0.38396636038E+01  0.49606562850E+02  0.12345328940E+03  0.13310247465E+03  0.00000000000E+00 0.  1.
         14    1    3    3    0    0  0.78610066976E+01 -0.31848855784E+02  0.61364800408E+02  0.69582927290E+02  0.00000000000E+00 0. -1.
        -11    1    4    4    0    0 -0.33063368632E+02 -0.45365108871E+02  0.37573128498E+02  0.67549385144E+02  0.00000000000E+00 0. -1.
         11    1    4    4    0    0  0.33425766079E+00  0.38189717297E+02 -0.24386111623E+02  0.45312787108E+02  0.00000000000E+00 0.  1.
         -4    1    1    2    0  502  0.21028440670E+02 -0.10582315492E+02 -0.51168570340E+02  0.56324091726E+02  0.00000000000E+00 0.  1.
<scales pt_clust_5="13000.00000" pt_clust_6="13000.00000" pt_clust_7="13000.00000" pt_clust_8="13000.00000" pt_clust_9="23.54104"></scales>
<clustering>
<clus scale="   23.541">  2  9  1 -1</clus>
<clus scale="   80.445">  5  6 -1 -1</clus>
<clus scale="   83.391">  1  5  2 -1</clus>
<clus scale="  106.964">  7  8 -1 -1</clus>
<clus scale="   23.541">  2  5  1 -1</clus>
</clustering>
</event>
<event>
 9    2  0.6175212E-005  0.1118294E+03  0.7546771E-02  0.1269455E+00
         21   -1    0    0  501  502  0.00000000000E+00  0.00000000000E+00  0.60696371840E+02  0.60696371840E+02  0.00000000000E+00 0.  1.
          2   -1    0    0  502    0 -0.00000000000E+00 -0.00000000000E+00 -0.57154739888E+03  0.57154739888E+03  0.00000000000E+00 0. -1.
         24    2    1    2    0    0  0.20994421987E+02 -0.29835053401E+02 -0.15043768817E+03  0.17430554808E+03  0.80125089094E+02 0.  0.
         23    2    1    2    0    0 -0.21749829136E+01 -0.57480187899E+02 -0.26475207813E+02  0.11226091933E+03  0.92697760648E+02 0.  0.
        -13    1    3    3    0    0  0.29796040313E+02 -0.35520299227E+02 -0.15578803857E+03  0.16254048307E+03  0.00000000000E+00 0.  1.
         14    1    3    3    0    0 -0.88016183260E+01  0.56852458267E+01  0.53503503975E+01  0.11765065008E+02  0.00000000000E+00 0. -1.
        -11    1    4    4    0    0 -0.14057815712E+02  0.17661635388E+02  0.13520144956E+02  0.26312542005E+02  0.00000000000E+00 0. -1.
         11    1    4    4    0    0  0.11882832799E+02 -0.75141823286E+02 -0.39995352769E+02  0.85948377327E+02  0.00000000000E+00 0.  1.
          1    1    1    2  501    0 -0.18819439073E+02  0.87315241299E+02 -0.33393813106E+03  0.34567730331E+03  0.00000000000E+00 0. -1.
<scales pt_clust_5="13000.00000" pt_clust_6="13000.00000" pt_clust_7="13000.00000" pt_clust_8="13000.00000" pt_clust_9="62.55351"></scales>
<clustering>
<clus scale="   80.125">  5  6 -1 -1</clus>
<clus scale="   88.039">  2  5  1 -1</clus>
<clus scale="   62.554">  1  9  2 -1</clus>
<clus scale="   92.698">  7  8 -1 -1</clus>
<clus scale="   62.554">  1  5  2 -1</clus>
</clustering>
</event>
<event>
 9    2  0.6175212E-005  0.9755973E+02  0.7546771E-02  0.1292424E+00
         21   -1    0    0  501  502  0.00000000000E+00  0.00000000000E+00  0.78067375001E+02  0.78067375001E+02  0.00000000000E+00 0. -1.
          2   -1    0    0  502    0 -0.00000000000E+00 -0.00000000000E+00 -0.16026476506E+03  0.16026476506E+03  0.00000000000E+00 0. -1.
         23    2    1    2    0    0  0.33226059168E+02 -0.22099507115E+02 -0.66438103696E+02  0.12087116878E+03  0.92754830579E+02 0.  0.
         24    2    1    2    0    0 -0.13483128191E+01  0.22962210582E+02 -0.41391923801E+01  0.83520412160E+02  0.80183821757E+02 0.  0.
        -11    1    4    4    0    0  0.30262535812E+02 -0.18051748274E+01 -0.24050006274E+02  0.38697319439E+02  0.00000000000E+00 0.  1.
         12    1    4    4    0    0 -0.31610848631E+02  0.24767385409E+02  0.19910813894E+02  0.44823092721E+02  0.00000000000E+00 0. -1.
        -13    1    3    3    0    0 -0.11546658379E+02  0.22566568757E+02  0.45970759745E+01  0.25762539718E+02  0.00000000000E+00 0.  1.
         13    1    3    3    0    0  0.44772717548E+02 -0.44666075873E+02 -0.71035179670E+02  0.95108629058E+02  0.00000000000E+00 0. -1.
          1    1    1    2  501    0 -0.31877746349E+02 -0.86270346636E+00 -0.11620093982E+02  0.33940559125E+02  0.00000000000E+00 0. -1.
<scales pt_clust_5="13000.00000" pt_clust_6="13000.00000" pt_clust_7="13000.00000" pt_clust_8="13000.00000" pt_clust_9="31.88942"></scales>
<clustering>
<clus scale="   31.889">  1  9  2 -1</clus>
<clus scale="   80.184">  5  6 -1 -1</clus>
<clus scale="   85.696">  1  5  2 -1</clus>
<clus scale="   92.755">  7  8 -1 -1</clus>
<clus scale="   31.889">  1  5  2 -1</clus>
</clustering>
</event>
<event>
 9    2  0.6175212E-005  0.1116027E+03  0.7546771E-02  0.1260676E+00
         21   -1    0    0  501  502  0.00000000000E+00  0.00000000000E+00  0.61971608331E+03  0.61971608331E+03  0.00000000000E+00 0.  1.
         -3   -1    0    0    0  501 -0.00000000000E+00 -0.00000000000E+00 -0.44539116111E+02  0.44539116111E+02  0.00000000000E+00 0.  1.
         24    2    1    2    0    0  0.69352731842E+02  0.54961122156E+01  0.55679008147E+02  0.12336243038E+03  0.85311948859E+02 0.  0.
         23    2    1    2    0    0 -0.36231088646E+02  0.16929363034E+02  0.27416118996E+03  0.29231667313E+03  0.93195408645E+02 0.  0.
        -11    1    3    3    0    0  0.15451125839E+02  0.22539942936E+02 -0.16313741175E+02  0.31826474331E+02  0.00000000000E+00 0.  1.
         12    1    3    3    0    0  0.53901606003E+02 -0.17043830720E+02  0.71992749322E+02  0.91535956051E+02  0.00000000000E+00 0. -1.
        -11    1    4    4    0    0 -0.56191750909E+02  0.25300317043E+02  0.25812331107E+03  0.26537758502E+03  0.00000000000E+00 0.  1.
         11    1    4    4    0    0  0.19960662264E+02 -0.83709540090E+01  0.16037878892E+02  0.26939088113E+02  0.00000000000E+00 0. -1.
         -4    1    1    2    0  502 -0.33121643197E+02 -0.22425475250E+02  0.24533676909E+03  0.24857609590E+03  0.00000000000E+00 0.  1.
<scales pt_clust_5="13000.00000" pt_clust_6="13000.00000" pt_clust_7="13000.00000" pt_clust_8="13000.00000" pt_clust_9="39.99931"></scales>
<clustering>
<clus scale="   39.999">  1  9  2 -1</clus>
<clus scale="   85.312">  5  6 -1 -1</clus>
<clus scale="   93.195">  7  8 -1 -1</clus>
<clus scale="  105.109">  2  5  1 -1</clus>
<clus scale="   39.999">  1  5  2 -1</clus>
</clustering>
</event>
<event>
 9    2  0.6175212E-005  0.9525373E+02  0.7546771E-02  0.1296844E+00
         21   -1    0    0  501  502  0.00000000000E+00  0.00000000000E+00  0.34312425422E+03  0.34312425422E+03  0.00000000000E+00 0. -1.
          2   -1    0    0  502    0 -0.00000000000E+00 -0.00000000000E+00 -0.15505093228E+03  0.15505093228E+03  0.00000000000E+00 0. -1.
         24    2    1    2    0    0  0.10620949504E+02  0.48851282180E+01 -0.68756274808E+02  0.10686922695E+03  0.80974917707E+02 0.  0.
         23    2    1    2    0    0 -0.60275823767E+02  0.25887353108E+01 -0.18490984890E+02  0.11144369370E+03  0.91858063677E+02 0.  0.
        -13    1    3    3    0    0 -0.32341529717E+02  0.12046990403E+01 -0.97770945936E+01  0.33808540680E+02  0.00000000000E+00 0.  1.
         14    1    3    3    0    0  0.42962479221E+02  0.36804291777E+01 -0.58979180215E+02  0.73060686272E+02  0.00000000000E+00 0. -1.
        -11    1    4    4    0    0 -0.61078264319E+02 -0.35495345588E+02 -0.19677609843E+02  0.73332682071E+02  0.00000000000E+00 0.  1.
         11    1    4    4    0    0  0.80244055195E+00  0.38084080899E+02  0.11866249529E+01  0.38111011631E+02  0.00000000000E+00 0. -1.
          1    1    1    2  501    0  0.49654874263E+02 -0.74738635288E+01  0.27532058164E+03  0.27986226585E+03  0.00000000000E+00 0. -1.
<scales pt_clust_5="13000.00000" pt_clust_6="13000.00000" pt_clust_7="13000.00000" pt_clust_8="13000.00000" pt_clust_9="50.21419"></scales>
<clustering>
<clus scale="   50.214">  1  9  2 -1</clus>
<clus scale="   80.975">  5  6 -1 -1</clus>
<clus scale="   84.807">  2  5  1 -1</clus>
<clus scale="   91.858">  7  8 -1 -1</clus>
<clus scale="   50.214">  1  5  2 -1</clus>
</clustering>
</event>
<event>
 9    2  0.6175212E-005  0.9384277E+02  0.7546771E-02  0.1296680E+00
          2   -1    0    0  502    0 -0.00000000000E+00  0.00000000000E+00  0.16567769486E+03  0.16567769486E+03  0.00000000000E+00 0. -1.
         21   -1    0    0  501  502  0.00000000000E+00 -0.00000000000E+00 -0.87495913376E+02  0.87495913376E+02  0.00000000000E+00 0. -1.
         24    2    1    2    0    0  0.49760774033E+02  0.10464246487E+02  0.89374998541E+02  0.13143740768E+03  0.81867372538E+02 0.  0.
         23    2    1    2    0    0 -0.25416036861E+02 -0.29710531684E+02 -0.22726673160E+02  0.88628703951E+02  0.76222403980E+02 0.  0.
        -11    1    3    3    0    0  0.22205944979E+02  0.32387787793E+02  0.44732113801E+01  0.39523188264E+02  0.00000000000E+00 0.  1.
         12    1    3    3    0    0  0.27554829055E+02 -0.21923541306E+02  0.84901787161E+02  0.91914219415E+02  0.00000000000E+00 0. -1.
        -13    1    4    4    0    0 -0.37869172136E+02 -0.57027986585E+01  0.15907714904E+02  0.41468681005E+02  0.00000000000E+00 0.  1.
         13    1    4    4    0    0  0.12453135275E+02 -0.24007733025E+02 -0.38634388064E+02  0.47160022946E+02  0.00000000000E+00 0. -1.
          1    1    1    2  501    0 -0.24344737173E+02  0.19246285196E+02  0.11533456104E+02  0.33107496607E+02  0.00000000000E+00 0. -1.
<scales pt_clust_5="13000.00000" pt_clust_6="13000.00000" pt_clust_7="13000.00000" pt_clust_8="13000.00000" pt_clust_9="31.03364"></scales>
<clustering>
<clus scale="   31.034">  2  9  1 -1</clus>
<clus scale="   76.222">  7  8 -1 -1</clus>
<clus scale="   81.867">  5  6 -1 -1</clus>
<clus scale="   88.961">  2  7  1 -1</clus>
<clus scale="   31.034">  2  5  1 -1</clus>
</clustering>
</event>
<event>
 9    2  0.6175212E-005  0.9456700E+02  0.7546771E-02  0.1300980E+00
         21   -1    0    0  501  502  0.00000000000E+00  0.00000000000E+00  0.48947798587E+02  0.48947798587E+02  0.00000000000E+00 0. -1.
          2   -1    0    0  502    0 -0.00000000000E+00 -0.00000000000E+00 -0.51690308606E+03  0.51690308606E+03  0.00000000000E+00 0. -1.
         24    2    1    2    0    0  0.26895833184E+02  0.98607495854E+01 -0.36972568251E+03  0.37883248344E+03  0.77436102576E+02 0.  0.
         23    2    1    2    0    0  0.28267936054E+02 -0.20578340474E+02 -0.82846130375E+02  0.12875555299E+03  0.92151868146E+02 0.  0.
        -11    1    3    3    0    0 -0.13293469599E+02 -0.20237569746E+02 -0.54549279494E+02  0.59681650920E+02  0.00000000000E+00 0.  1.
         12    1    3    3    0    0  0.40189302783E+02  0.30098319331E+02 -0.31517640301E+03  0.31915083252E+03  0.00000000000E+00 0. -1.
        -11    1    4    4    0    0 -0.27171042818E+02  0.24393700638E+01 -0.57408669401E+02  0.63560769477E+02  0.00000000000E+00 0.  1.
         11    1    4    4    0    0  0.55438978872E+02 -0.23017710537E+02 -0.25437460975E+02  0.65194783515E+02  0.00000000000E+00 0. -1.
          1    1    1    2  501    0 -0.55163769238E+02  0.10717590888E+02 -0.15383474589E+02  0.58262848209E+02  0.00000000000E+00 0. -1.
<scales pt_clust_5="13000.00000" pt_clust_6="13000.00000" pt_clust_7="13000.00000" pt_clust_8="13000.00000" pt_clust_9="56.19527"></scales>
<clustering>
<clus scale="   56.195">  1  9  2 -1</clus>
<clus scale="   77.436">  5  6 -1 -1</clus>
<clus scale="   80.295">  2  5  1 -1</clus>
<clus scale="   92.152">  7  8 -1 -1</clus>
<clus scale="   56.195">  1  5  2 -1</clus>
</clustering>
</event>
<event>
 9    2  0.6175212E-005  0.9515889E+02  0.7546771E-02  0.1298918E+00
          2   -1    0    0  502    0 -0.00000000000E+00  0.00000000000E+00  0.13596302523E+04  0.13596302523E+04  0.00000000000E+00 0. -1.
         21   -1    0    0  501  502  0.00000000000E+00 -0.00000000000E+00 -0.50231978520E+02  0.50231978520E+02  0.00000000000E+00 0.  1.
         24    2    1    2    0    0 -0.18936764852E+02  0.31535816692E+01  0.11826495178E+04  0.11855229467E+04  0.80226111486E+02 0.  0.
         23    2    1    2    0    0 -0.54169170032E+02 -0.96425877460E+01  0.55525939556E+02  0.12206868969E+03  0.93756901389E+02 0.  0.
        -13    1    3    3    0    0 -0.32627265115E+02  0.63206785611E+01  0.19775038989E+03  0.20052357993E+03  0.00000000000E+00 0.  1.
         14    1    3    3    0    0  0.13690500262E+02 -0.31670968920E+01  0.98489912791E+03  0.98499936673E+03  0.00000000000E+00 0. -1.
        -11    1    4    4    0    0 -0.44371566043E+02 -0.49661408987E+02  0.26524356590E+02  0.71684258441E+02  0.00000000000E+00 0.  1.
         11    1    4    4    0    0 -0.97976039886E+01  0.40018821241E+02  0.29001582967E+02  0.50384431246E+02  0.00000000000E+00 0. -1.
          1    1    1    2  501    0  0.73105934884E+02  0.64890060769E+01  0.71222816433E+02  0.10227059448E+03  0.00000000000E+00 0. -1.
<scales pt_clust_5="13000.00000" pt_clust_6="13000.00000" pt_clust_7="13000.00000" pt_clust_8="13000.00000" pt_clust_9="73.39336"></scales>
<clustering>
<clus scale="   73.393">  2  9  1 -1</clus>
<clus scale="   80.226">  5  6 -1 -1</clus>
<clus scale="   81.860">  1  5  2 -1</clus>
<clus scale="   93.757">  7  8 -1 -1</clus>
<clus scale="   73.393">  2  5  1 -1</clus>
</clustering>
</event>
<event>
 9    2  0.6175212E-005  0.9106265E+02  0.7546771E-02  0.1304341E+00
         21   -1    0    0  501  502  0.00000000000E+00  0.00000000000E+00  0.50491133905E+02  0.50491133905E+02  0.00000000000E+00 0. -1.
          2   -1    0    0  502    0 -0.00000000000E+00 -0.00000000000E+00 -0.12381197968E+04  0.12381197968E+04  0.00000000000E+00 0. -1.
         24    2    1    2    0    0  0.19221196401E+02 -0.12583538603E+02 -0.10404408221E+04  0.10439299770E+04  0.82127296136E+02 0.  0.
         23    2    1    2    0    0  0.19076014081E+01  0.79069990099E+01 -0.18257735709E+03  0.20319946406E+03  0.88822132902E+02 0.  0.
        -13    1    3    3    0    0  0.33907887655E+02 -0.11125272413E+02 -0.18774969726E+03  0.19111113351E+03  0.00000000000E+00 0.  1.
         14    1    3    3    0    0 -0.14686691254E+02 -0.14582661900E+01 -0.85269112486E+03  0.85281884351E+03  0.00000000000E+00 0. -1.
        -11    1    4    4    0    0 -0.25876919865E+02  0.38549946929E+02 -0.78488866904E+02  0.91193287131E+02  0.00000000000E+00 0.  1.
         11    1    4    4    0    0  0.27784521274E+02 -0.30642947919E+02 -0.10408849019E+03  0.11200617693E+03  0.00000000000E+00 0. -1.
          1    1    1    2  501    0 -0.21128797809E+02  0.46765395933E+01  0.35389516295E+02  0.41481489643E+02  0.00000000000E+00 0. -1.
<scales pt_clust_5="13000.00000" pt_clust_6="13000.00000" pt_clust_7="13000.00000" pt_clust_8="13000.00000" pt_clust_9="21.64015"></scales>
<clustering>
<clus scale="   21.640">  1  9  2 -1</clus>
<clus scale="   82.127">  5  6 -1 -1</clus>
<clus scale="   84.545">  2  5  1 -1</clus>
<clus scale="   88.822">  7  8 -1 -1</clus>
<clus scale="   21.640">  1  5  2 -1</clus>
</clustering>
</event>
<event>
 9    2  0.6175212E-005  0.1556251E+03  0.7546771E-02  0.1226343E+00
         21   -1    0    0  501  502  0.00000000000E+00  0.00000000000E+00  0.31034633440E+03  0.31034633440E+03  0.00000000000E+00 0. -1.
          2   -1    0    0  502    0 -0.00000000000E+00 -0.00000000000E+00 -0.50218294317E+03  0.50218294317E+03  0.00000000000E+00 0. -1.
         24    2    1    2    0    0  0.35189639728E+02 -0.10467543564E+01 -0.43018605060E+03  0.43711973347E+03  0.69095707710E+02 0.  0.
         23    2    1    2    0    0  0.71590985864E+02  0.89606485240E+02  0.79369032379E+02  0.16441262818E+03  0.87048707926E+02 0.  0.
        -13    1    3    3    0    0 -0.19757595560E+02  0.89595399096E+01 -0.12192990219E+03  0.12384481009E+03  0.00000000000E+00 0.  1.
         14    1    3    3    0    0  0.54947235288E+02 -0.10006294266E+02 -0.30825614841E+03  0.31327492338E+03  0.00000000000E+00 0. -1.
        -11    1    4    4    0    0 -0.81180100961E+01  0.33542931565E+02  0.53365132072E+02  0.63552086252E+02  0.00000000000E+00 0.  1.
         11    1    4    4    0    0  0.79708995960E+02  0.56063553676E+02  0.26003900306E+02  0.10086054193E+03  0.00000000000E+00 0. -1.
          1    1    1    2  501    0 -0.10678062559E+03 -0.88559730884E+02  0.15898040945E+03  0.21099691591E+03  0.00000000000E+00 0. -1.
<scales pt_clust_5="13000.00000" pt_clust_6="13000.00000" pt_clust_7="13000.00000" pt_clust_8="13000.00000" pt_clust_9="129.00267"></scales>
<clustering>
<clus scale="   69.096">  5  6 -1 -1</clus>
<clus scale="   77.548">  2  5  1 -1</clus>
<clus scale="   87.049">  7  8 -1 -1</clus>
<clus scale="  129.003">  1  9  2 -1</clus>
<clus scale="  129.003">  1  5  2 -1</clus>
</clustering>
</event>
<event>
 9    2  0.6175212E-005  0.9265502E+02  0.7546771E-02  0.1300736E+00
         21   -1    0    0  501  502  0.00000000000E+00  0.00000000000E+00  0.68834593482E+02  0.68834593482E+02  0.00000000000E+00 0. -1.
          2   -1    0    0  502    0 -0.00000000000E+00 -0.00000000000E+00 -0.21072788429E+03  0.21072788429E+03  0.00000000000E+00 0. -1.
         23    2    1    2    0    0 -0.20326193120E+02  0.56637903063E+02 -0.83150554761E+02  0.13342836602E+03  0.85253198832E+02 0.  0.
         24    2    1    2    0    0 -0.61109546887E+01 -0.10366695537E+02 -0.22826820761E+02  0.81869810612E+02  0.77696782431E+02 0.  0.
        -11    1    4    4    0    0  0.32501860834E+02 -0.13916472778E+02 -0.24570177434E+02  0.43054997287E+02  0.00000000000E+00 0.  1.
         12    1    4    4    0    0 -0.38612815522E+02  0.35497772407E+01  0.17433566731E+01  0.38814813326E+02  0.00000000000E+00 0. -1.
        -13    1    3    3    0    0 -0.30098661654E+02  0.75293131063E+02 -0.53827082023E+02  0.97325946067E+02  0.00000000000E+00 0. -1.
         13    1    3    3    0    0  0.97724685338E+01 -0.18655228000E+02 -0.29323472738E+02  0.36102419952E+02  0.00000000000E+00 0.  1.
          1    1    1    2  501    0  0.26437147809E+02 -0.46271207526E+02 -0.35915915282E+02  0.64264301138E+02  0.00000000000E+00 0. -1.
<scales pt_clust_5="13000.00000" pt_clust_6="13000.00000" pt_clust_7="13000.00000" pt_clust_8="13000.00000" pt_clust_9="53.29118"></scales>
<clustering>
<clus scale="   53.291">  1  9  2 -1</clus>
<clus scale="   77.697">  5  6 -1 -1</clus>
<clus scale="   85.253">  7  8 -1 -1</clus>
<clus scale="   85.753">  1  5  2 -1</clus>
<clus scale="   53.291">  1  5  2 -1</clus>
</clustering>
</event>
<event>
 9    2  0.6175212E-005  0.9221839E+02  0.7546771E-02  0.1302906E+00
          2   -1    0    0  502    0 -0.00000000000E+00  0.00000000000E+00  0.65154841560E+03  0.65154841560E+03  0.00000000000E+00 0. -1.
         21   -1    0    0  501  502  0.00000000000E+00 -0.00000000000E+00 -0.39117463544E+02  0.39117463544E+02  0.00000000000E+00 0.  1.
         23    2    1    2    0    0  0.28326526986E+02 -0.48076907771E+01  0.52997991955E+03  0.53820580179E+03  0.89225915159E+02 0.  0.
         24    2    1    2    0    0  0.34184750913E+00 -0.24250443790E+02  0.71511086913E+02  0.11019977340E+03  0.80261781825E+02 0.  0.
        -13    1    4    4    0    0  0.25121548703E+02  0.44918626754E+01 -0.38636269565E+01  0.25810785591E+02  0.00000000000E+00 0.  1.
         14    1    4    4    0    0 -0.24779701194E+02 -0.28742306465E+02  0.75374713869E+02  0.84388987807E+02  0.00000000000E+00 0. -1.
        -13    1    3    3    0    0  0.58778608266E+02 -0.16260187216E+02  0.36267683728E+03  0.36776868651E+03  0.00000000000E+00 0. -1.
         13    1    3    3    0    0 -0.30452081280E+02  0.11452496439E+02  0.16730308227E+03  0.17043711529E+03  0.00000000000E+00 0.  1.
          1    1    1    2  501    0 -0.28668374495E+02  0.29058134567E+02  0.10939945594E+02  0.42260303954E+02  0.00000000000E+00 0. -1.
<scales pt_clust_5="13000.00000" pt_clust_6="13000.00000" pt_clust_7="13000.00000" pt_clust_8="13000.00000" pt_clust_9="40.81974"></scales>
<clustering>
<clus scale="   40.820">  2  9  1 -1</clus>
<clus scale="   80.262">  5  6 -1 -1</clus>
<clus scale="   83.576">  2  5  1 -1</clus>
<clus scale="   89.226">  7  8 -1 -1</clus>
<clus scale="   40.820">  2  5  1 -1</clus>
</clustering>
</event>
<event>
 9    2  0.6175212E-005  0.2437464E+03  0.7546771E-02  0.1117961E+00
          2   -1    0    0  502    0 -0.00000000000E+00  0.00000000000E+00  0.13818580194E+04  0.13818580194E+04  0.00000000000E+00 0. -1.
         21   -1    0    0  501  502  0.00000000000E+00 -0.00000000000E+00 -0.50115852783E+02  0.50115852783E+02  0.00000000000E+00 0. -1.
         24    2    1    2    0    0 -0.20421148538E+03 -0.83478726636E+02  0.54684764885E+03  0.59503759348E+03  0.79726771165E+02 0.  0.
         23    2    1    2    0    0  0.20302081029E+03  0.11405975137E+03  0.60712923572E+03  0.65655581335E+03  0.90733405524E+02 0.  0.
        -13    1    3    3    0    0 -0.13951522398E+03 -0.72250524334E+02  0.46046459856E+03  0.48653086492E+03  0.00000000000E+00 0.  1.
         14    1    3    3    0    0 -0.64696261406E+02 -0.11228202302E+02  0.86383050293E+02  0.10850672857E+03  0.00000000000E+00 0. -1.
        -13    1    4    4    0    0  0.31858404197E+02  0.58671299601E+02  0.21502052650E+03  0.22514685459E+03  0.00000000000E+00 0.  1.
         13    1    4    4    0    0  0.17116240610E+03  0.55388451769E+02  0.39210870922E+03  0.43140895876E+03  0.00000000000E+00 0. -1.
          1    1    1    2  501    0  0.11906750881E+01 -0.30581024734E+02  0.17776528205E+03  0.18038046536E+03  0.00000000000E+00 0. -1.
<scales pt_clust_5="13000.00000" pt_clust_6="13000.00000" pt_clust_7="13000.00000" pt_clust_8="13000.00000" pt_clust_9="30.60421"></scales>
<clustering>
<clus scale="   30.604">  2  9  1 -1</clus>
<clus scale="   79.727">  5  6 -1 -1</clus>
<clus scale="   90.733">  7  8 -1 -1</clus>
<clus scale="  239.867">  1  5  2 -1</clus>
<clus scale="   30.604">  2  5  1 -1</clus>
</clustering>
</event>
<event>
 9    2  0.6175212E-005  0.1132252E+03  0.7546771E-02  0.1258304E+00
         21   -1    0    0  501  502  0.00000000000E+00  0.00000000000E+00  0.39392379327E+03  0.39392379327E+03  0.00000000000E+00 0. -1.
          2   -1    0    0  502    0 -0.00000000000E+00 -0.00000000000E+00 -0.10561525171E+03  0.10561525171E+03  0.00000000000E+00 0. -1.
         24    2    1    2    0    0  0.41643596791E+02  0.73909726335E+02  0.13045874560E+03  0.17511780630E+03  0.80311424951E+02 0.  0.
         23    2    1    2    0    0  0.36630489625E+02 -0.58867302828E+02  0.20306223379E+03  0.23278461040E+03  0.90262129025E+02 0.  0.
        -13    1    3    3    0    0  0.52404728829E+02  0.49645262446E+02  0.43686878893E+02  0.84376839680E+02  0.00000000000E+00 0.  1.
         14    1    3    3    0    0 -0.10761132037E+02  0.24264463889E+02  0.86771866706E+02  0.90740966615E+02  0.00000000000E+00 0. -1.
        -13    1    4    4    0    0  0.29780621815E+02 -0.83286487389E+02  0.15871516125E+03  0.18169762471E+03  0.00000000000E+00 0.  1.
         13    1    4    4    0    0  0.68498678101E+01  0.24419184560E+02  0.44347072540E+02  0.51086985685E+02  0.00000000000E+00 0. -1.
          1    1    1    2  501    0 -0.78274086416E+02 -0.15042423506E+02 -0.45212437829E+02  0.91636628286E+02  0.00000000000E+00 0. -1.
<scales pt_clust_5="13000.00000" pt_clust_6="13000.00000" pt_clust_7="13000.00000" pt_clust_8="13000.00000" pt_clust_9="79.70642"></scales>
<clustering>
<clus scale="   79.706">  1  9  2 -1</clus>
<clus scale="   80.311">  5  6 -1 -1</clus>
<clus scale="   90.262">  7  8 -1 -1</clus>
<clus scale="  105.464">  2  5  1 -1</clus>
<clus scale="   79.706">  1  5  2 -1</clus>
</clustering>
</event>
<event>
 9    2  0.7602465E-005  0.1024945E+03  0.7546771E-02  0.1284538E+00
          2   -1    0    0  502    0 -0.00000000000E+00  0.00000000000E+00  0.70564697574E+03  0.70564697574E+03  0.00000000000E+00 0. -1.
         21   -1    0    0  501  502  0.00000000000E+00 -0.00000000000E+00 -0.62081443673E+02  0.62081443673E+02  0.00000000000E+00 0. -1.
         24    2    1    2    0    0 -0.45041873253E+02  0.32580680901E+02  0.48124222888E+03  0.48989893229E+03  0.72915086805E+02 0.  0.
         23    2    1    2    0    0 -0.42485970957E+02 -0.45772470687E+02  0.15249988529E+03  0.18876969615E+03  0.92073917968E+02 0.  0.
        -13    1    3    3    0    0  0.42747927685E+01  0.21717876240E+02  0.39495061621E+02  0.45274715836E+02  0.00000000000E+00 0.  1.
         14    1    3    3    0    0 -0.49316666021E+02  0.10862804661E+02  0.44174716726E+03  0.44462421645E+03  0.00000000000E+00 0. -1.
        -13    1    4    4    0    0  0.28321460874E+02 -0.18121727424E+02  0.32791579167E+02  0.46965836681E+02  0.00000000000E+00 0.  1.
         13    1    4    4    0    0 -0.70807431831E+02 -0.27650743263E+02  0.11970830613E+03  0.14180385947E+03  0.00000000000E+00 0. -1.
          1    1    1    2  501    0  0.87527844209E+02  0.13191789786E+02  0.98234178953E+01  0.89059790977E+02  0.00000000000E+00 0. -1.
<scales pt_clust_5="13000.00000" pt_clust_6="13000.00000" pt_clust_7="13000.00000" pt_clust_8="13000.00000" pt_clust_9="88.51636"></scales>
<clustering>
<clus scale="   72.915">  5  6 -1 -1</clus>
<clus scale="   88.516">  2  9  1 -1</clus>
<clus scale="   85.698">  1  5  2 -1</clus>
<clus scale="   92.074">  7  8 -1 -1</clus>
<clus scale="   88.516">  2  5  1 -1</clus>
</clustering>
</event>
<event>
 9    2  0.6175212E-005  0.1006552E+03  0.7546771E-02  0.1285342E+00
         21   -1    0    0  501  502  0.00000000000E+00  0.00000000000E+00  0.31996424162E+02  0.31996424162E+02  0.00000000000E+00 0.  1.
          2   -1    0    0  502    0 -0.00000000000E+00 -0.00000000000E+00 -0.51003403451E+03  0.51003403451E+03  0.00000000000E+00 0. -1.
         24    2    1    2    0    0  0.45590358454E+02  0.17939738683E+02 -0.32754941371E+03  0.34052242411E+03  0.79161783039E+02 0.  0.
         23    2    1    2    0    0 -0.21632708828E+02  0.11731711762E+02 -0.97929206700E+02  0.13657105457E+03  0.91956056182E+02 0.  0.
        -11    1    3    3    0    0  0.44215470416E+02 -0.23925733612E+02 -0.15441386404E+03  0.16239177923E+03  0.00000000000E+00 0.  1.
         12    1    3    3    0    0  0.13748880381E+01  0.41865472295E+02 -0.17313554967E+03  0.17813064489E+03  0.00000000000E+00 0. -1.
        -11    1    4    4    0    0  0.35846673319E+02 -0.25419730339E+01 -0.38657122689E+02  0.52780855900E+02  0.00000000000E+00 0. -1.
         11    1    4    4    0    0 -0.57479382147E+02  0.14273684796E+02 -0.59272084011E+02  0.83790198667E+02  0.00000000000E+00 0.  1.
          1    1    1    2  501    0 -0.23957649626E+02 -0.29671450445E+02 -0.52558989934E+02  0.64936979989E+02  0.00000000000E+00 0. -1.
<scales pt_clust_5="13000.00000" pt_clust_6="13000.00000" pt_clust_7="13000.00000" pt_clust_8="13000.00000" pt_clust_9="38.13612"></scales>
<clustering>
<clus scale="   38.136">  1  9  2 -1</clus>
<clus scale="   79.162">  5  6 -1 -1</clus>
<clus scale="   89.119">  2  5  1 -1</clus>
<clus scale="   91.956">  7  8 -1 -1</clus>
<clus scale="   38.136">  1  5  2 -1</clus>
</clustering>
</event>
<event>
 9    2  0.6175212E-005  0.1199784E+03  0.7546771E-02  0.1256997E+00
         -1   -1    0    0    0  501 -0.00000000000E+00  0.00000000000E+00  0.33170630499E+03  0.33170630499E+03  0.00000000000E+00 0.  1.
         21   -1    0    0  501  502  0.00000000000E+00 -0.00000000000E+00 -0.10781270090E+03  0.10781270090E+03  0.00000000000E+00 0.  1.
         23    2    1    2    0    0 -0.46426988470E+02  0.30809592600E+01  0.16809951634E+02  0.92494440347E+02  0.78151707932E+02 0.  0.
         24    2    1    2    0    0 -0.53840065891E+01  0.73456746336E+02  0.22748009592E+03  0.25237566437E+03  0.80755190673E+02 0.  0.
        -11    1    4    4    0    0  0.31107433934E+02  0.63088492074E+02  0.16359158182E+03  0.17807311959E+03  0.00000000000E+00 0.  1.
         12    1    4    4    0    0 -0.36491440523E+02  0.10368254262E+02  0.63888514101E+02  0.74302544788E+02  0.00000000000E+00 0. -1.
        -13    1    3    3    0    0 -0.67642922683E+02  0.95500762149E+01  0.16650215391E+02  0.70313573493E+02  0.00000000000E+00 0.  1.
         13    1    3    3    0    0  0.21215934213E+02 -0.64691169550E+01  0.15973624278E+00  0.22180866853E+02  0.00000000000E+00 0. -1.
         -2    1    1    2    0  502  0.51810995059E+02 -0.76537705596E+02 -0.20396443462E+02  0.94648901171E+02  0.00000000000E+00 0.  1.
<scales pt_clust_5="13000.00000" pt_clust_6="13000.00000" pt_clust_7="13000.00000" pt_clust_8="13000.00000" pt_clust_9="88.73221"></scales>
<clustering>
<clus scale="   78.152">  7  8 -1 -1</clus>
<clus scale="   80.755">  5  6 -1 -1</clus>
<clus scale="   90.954">  1  7  2 -1</clus>
<clus scale="   88.732">  2  9  1 -1</clus>
<clus scale="   88.732">  2  5  1 -1</clus>
</clustering>
</event>
<event>
 9    2  0.6175212E-005  0.9556977E+02  0.7546771E-02  0.1298964E+00
          2   -1    0    0  502    0 -0.00000000000E+00  0.00000000000E+00  0.43675677496E+03  0.43675677496E+03  0.00000000000E+00 0. -1.
         21   -1    0    0  501  502  0.00000000000E+00 -0.00000000000E+00 -0.31930216594E+02  0.31930216594E+02  0.00000000000E+00 0.  1.
         23    2    1    2    0    0  0.22297619998E+02 -0.38002548937E+02  0.15447870005E+03  0.18429185843E+03  0.90324098290E+02 0.  0.
         24    2    1    2    0    0 -0.16534851997E+02  0.99167122153E+01  0.77506236371E+02  0.10919167997E+03  0.74457127173E+02 0.  0.
        -11    1    4    4    0    0 -0.39480329912E+02  0.27222358476E+02  0.44436213434E+02  0.65378362746E+02  0.00000000000E+00 0.  1.
         12    1    4    4    0    0  0.22945477915E+02 -0.17305646261E+02  0.33070022938E+02  0.43813317226E+02  0.00000000000E+00 0. -1.
        -11    1    3    3    0    0  0.22174295942E+02  0.26308566841E+02  0.38180647659E+02  0.51396516860E+02  0.00000000000E+00 0. -1.
         11    1    3    3    0    0  0.12332405596E+00 -0.64311115778E+02  0.11629805239E+03  0.13289534157E+03  0.00000000000E+00 0.  1.
          1    1    1    2  501    0 -0.57627680006E+01  0.28085836722E+02  0.17284162195E+03  0.17520345315E+03  0.00000000000E+00 0. -1.
<scales pt_clust_5="13000.00000" pt_clust_6="13000.00000" pt_clust_7="13000.00000" pt_clust_8="13000.00000" pt_clust_9="28.67097"></scales>
<clustering>
<clus scale="   28.671">  2  9  1 -1</clus>
<clus scale="   74.457">  5  6 -1 -1</clus>
<clus scale="   80.740">  2  5  1 -1</clus>
<clus scale="   90.324">  7  8 -1 -1</clus>
<clus scale="   28.671">  2  5  1 -1</clus>
</clustering>
</event>
<event>
 9    2  0.6175212E-005  0.8697400E+02  0.7546771E-02  0.1310988E+00
          2   -1    0    0  502    0 -0.00000000000E+00  0.00000000000E+00  0.12661306859E+04  0.12661306859E+04  0.00000000000E+00 0. -1.
         21   -1    0    0  501  502  0.00000000000E+00 -0.00000000000E+00 -0.13655291569E+02  0.13655291569E+02  0.00000000000E+00 0.  1.
         24    2    1    2    0    0 -0.19559110459E+02 -0.24675875212E+00  0.93794641695E+03  0.94194339158E+03  0.84446741641E+02 0.  0.
         23    2    1    2    0    0 -0.15949517591E+01 -0.25906680350E+02  0.23969690072E+03  0.25579786381E+03  0.85464863863E+02 0.  0.
        -11    1    3    3    0    0  0.27872962849E+02 -0.76763424896E+01  0.16548349471E+03  0.16798992623E+03  0.00000000000E+00 0.  1.
         12    1    3    3    0    0 -0.47432073308E+02  0.74295837375E+01  0.77246292224E+03  0.77395346535E+03  0.00000000000E+00 0. -1.
        -11    1    4    4    0    0  0.22612099834E+02  0.53196625381E+01  0.14995062703E+02  0.27648829521E+02  0.00000000000E+00 0.  1.
         11    1    4    4    0    0 -0.24207051593E+02 -0.31226342888E+02  0.22470183802E+03  0.22814903429E+03  0.00000000000E+00 0. -1.
          1    1    1    2  501    0  0.21154062218E+02  0.26153439102E+02  0.74832076687E+02  0.82044722112E+02  0.00000000000E+00 0. -1.
<scales pt_clust_5="13000.00000" pt_clust_6="13000.00000" pt_clust_7="13000.00000" pt_clust_8="13000.00000" pt_clust_9="33.63773"></scales>
<clustering>
<clus scale="   33.638">  2  9  1 -1</clus>
<clus scale="   84.447">  5  6 -1 -1</clus>
<clus scale="   85.465">  7  8 -1 -1</clus>
<clus scale="   85.974">  1  5  2 -1</clus>
<clus scale="   33.638">  2  5  1 -1</clus>
</clustering>
</event>
<event>
 9    2  0.6175212E-005  0.1569155E+03  0.7546771E-02  0.1194021E+00
         21   -1    0    0  501  502  0.00000000000E+00  0.00000000000E+00  0.11787352590E+03  0.11787352590E+03  0.00000000000E+00 0. -1.
         -1   -1    0    0    0  501 -0.00000000000E+00 -0.00000000000E+00 -0.40710790680E+03  0.40710790680E+03  0.00000000000E+00 0.  1.
         23    2    1    2    0    0 -0.53705029277E+02  0.10502212243E+03 -0.17829477842E+03  0.23196997786E+03  0.90039803690E+02 0.  0.
         24    2    1    2    0    0  0.65966104594E+02 -0.12512100736E+03 -0.16672115998E+03  0.23246493306E+03  0.78975986714E+02 0.  0.
        -11    1    4    4    0    0 -0.18024828654E+02 -0.28703091963E+02 -0.40181618645E+02  0.52567332186E+02  0.00000000000E+00 0.  1.
         12    1    4    4    0    0  0.83990933248E+02 -0.96417915392E+02 -0.12653954134E+03  0.17989760087E+03  0.00000000000E+00 0. -1.
        -11    1    3    3    0    0 -0.19989872612E+02  0.44043589303E+02 -0.14851828576E+03  0.15619575529E+03  0.00000000000E+00 0.  1.
         11    1    3    3    0    0 -0.33715156666E+02  0.60978533126E+02 -0.29776492659E+02  0.75774222571E+02  0.00000000000E+00 0. -1.
         -2    1    1    2    0  502 -0.12261075317E+02  0.20098884926E+02  0.55781557505E+02  0.60546521790E+02  0.00000000000E+00 0.  1.
<scales pt_clust_5="13000.00000" pt_clust_6="13000.00000" pt_clust_7="13000.00000" pt_clust_8="13000.00000" pt_clust_9="23.54356"></scales>
<clustering>
<clus scale="   23.544">  1  9  2 -1</clus>
<clus scale="   78.976">  5  6 -1 -1</clus>
<clus scale="   90.040">  7  8 -1 -1</clus>
<clus scale="  150.839">  1  5  2 -1</clus>
<clus scale="   23.544">  1  5  2 -1</clus>
</clustering>
</event>
<event>
 9    2  0.6175212E-005  0.1472263E+03  0.7546771E-02  0.1206665E+00
          2   -1    0    0  502    0 -0.00000000000E+00  0.00000000000E+00  0.21549903659E+04  0.21549903659E+04  0.00000000000E+00 0. -1.
         21   -1    0    0  501  502  0.00000000000E+00 -0.00000000000E+00 -0.43248115310E+02  0.43248115310E+02  0.00000000000E+00 0. -1.
         24    2    1    2    0    0  0.10465497820E+03  0.39653470032E+02  0.17588545829E+04  0.17642759179E+04  0.81086424511E+02 0.  0.
         23    2    1    2    0    0 -0.90194610145E+02 -0.88257582659E+02  0.34908617375E+03  0.38311068670E+03  0.94805975354E+02 0.  0.
        -13    1    3    3    0    0  0.19505290253E+02 -0.14159718976E+02  0.12398130966E+03  0.12630249061E+03  0.00000000000E+00 0.  1.
         14    1    3    3    0    0  0.85149687942E+02  0.53813189008E+02  0.16348732733E+04  0.16379734272E+04  0.00000000000E+00 0. -1.
        -11    1    4    4    0    0  0.19429915745E+02 -0.23443698780E+02  0.70692695140E+02  0.76971330926E+02  0.00000000000E+00 0. -1.
         11    1    4    4    0    0 -0.10962452589E+03 -0.64813883880E+02  0.27839347861E+03  0.30613935578E+03  0.00000000000E+00 0.  1.
          1    1    1    2  501    0 -0.14460368050E+02  0.48604112627E+02  0.38014939469E+01  0.50851876707E+02  0.00000000000E+00 0. -1.
<scales pt_clust_5="13000.00000" pt_clust_6="13000.00000" pt_clust_7="13000.00000" pt_clust_8="13000.00000" pt_clust_9="50.70958"></scales>
<clustering>
<clus scale="   50.710">  2  9  1 -1</clus>
<clus scale="   81.086">  5  6 -1 -1</clus>
<clus scale="   94.806">  7  8 -1 -1</clus>
<clus scale="  138.789">  1  5  2 -1</clus>
<clus scale="   50.710">  2  5  1 -1</clus>
</clustering>
</event>
<event>
 9    2  0.6175212E-005  0.1133362E+03  0.7546771E-02  0.1258230E+00
          2   -1    0    0  502    0 -0.00000000000E+00  0.00000000000E+00  0.77579103286E+03  0.77579103286E+03  0.00000000000E+00 0. -1.
         21   -1    0    0  501  502  0.00000000000E+00 -0.00000000000E+00 -0.88669483844E+02  0.88669483844E+02  0.00000000000E+00 0. -1.
         24    2    1    2    0    0  0.45744083391E+02 -0.43984195187E+02  0.59295244521E+03  0.60178050429E+03  0.80746779966E+02 0.  0.
         23    2    1    2    0    0 -0.69612759716E+02  0.56468186017E+02  0.15221132198E+03  0.19869202270E+03  0.90970550177E+02 0.  0.
        -13    1    3    3    0    0  0.59982861495E+01 -0.20211388652E+02  0.28599355748E+02  0.35530308430E+02  0.00000000000E+00 0.  1.
         14    1    3    3    0    0  0.39745797241E+02 -0.23772806535E+02  0.56435308946E+03  0.56625019586E+03  0.00000000000E+00 0. -1.
        -13    1    4    4    0    0  0.20113209265E+02  0.19575530899E+02  0.18980310332E+02  0.33882071620E+02  0.00000000000E+00 0. -1.
         13    1    4    4    0    0 -0.89725968981E+02  0.36892655117E+02  0.13323101165E+03  0.16480995108E+03  0.00000000000E+00 0.  1.
          1    1    1    2  501    0  0.23868676325E+02 -0.12483990830E+02 -0.58042218173E+02  0.63987989709E+02  0.00000000000E+00 0. -1.
<scales pt_clust_5="13000.00000" pt_clust_6="13000.00000" pt_clust_7="13000.00000" pt_clust_8="13000.00000" pt_clust_9="26.93629"></scales>
<clustering>
<clus scale="   26.936">  2  9  1 -1</clus>
<clus scale="   80.747">  5  6 -1 -1</clus>
<clus scale="   90.971">  7  8 -1 -1</clus>
<clus scale="  105.307">  1  5  2 -1</clus>
<clus scale="   26.936">  2  5  1 -1</clus>
</clustering>
</event>
<event>
 9    2  0.6175212E-005  0.1106558E+03  0.7546771E-02  0.1264226E+00
         21   -1    0    0  501  502  0.00000000000E+00  0.00000000000E+00  0.16149054894E+02  0.16149054894E+02  0.00000000000E+00 0. -1.
          2   -1    0    0  502    0 -0.00000000000E+00 -0.00000000000E+00 -0.15079921841E+04  0.15079921841E+04  0.00000000000E+00 0. -1.
         24    2    1    2    0    0  0.72543551735E+02 -0.38584425638E+02 -0.86618626196E+03  0.87375423376E+03  0.80103032480E+02 0.  0.
         23    2    1    2    0    0  0.26617138299E+01  0.30463628709E+02 -0.27673579099E+03  0.29336082024E+03  0.92427027671E+02 0.  0.
        -11    1    3    3    0    0  0.45339809425E+02 -0.99647043873E+01 -0.16358343156E+03  0.17004273796E+03  0.00000000000E+00 0.  1.
         12    1    3    3    0    0  0.27203742310E+02 -0.28619721250E+02 -0.70260283039E+03  0.70371149580E+03  0.00000000000E+00 0. -1.
        -13    1    4    4    0    0 -0.11559502801E+02  0.59039127309E+02 -0.13075008175E+03  0.14392645530E+03  0.00000000000E+00 0. -1.
         13    1    4    4    0    0  0.14221216630E+02 -0.28575498600E+02 -0.14598570924E+03  0.14943436494E+03  0.00000000000E+00 0.  1.
          1    1    1    2  501    0 -0.75205265565E+02  0.81207969287E+01 -0.34892107629E+03  0.35702618502E+03  0.00000000000E+00 0. -1.
<scales pt_clust_5="13000.00000" pt_clust_6="13000.00000" pt_clust_7="13000.00000" pt_clust_8="13000.00000" pt_clust_9="75.64244"></scales>
<clustering>
<clus scale="   75.642">  1  9  2 -1</clus>
<clus scale="   80.103">  5  6 -1 -1</clus>
<clus scale="   92.427">  7  8 -1 -1</clus>
<clus scale="  100.590">  2  5  1 -1</clus>
<clus scale="   75.642">  1  5  2 -1</clus>
</clustering>
</event>
<event>
 9    2  0.6175212E-005  0.2172051E+03  0.7546771E-02  0.1159025E+00
         -3   -1    0    0    0  501 -0.00000000000E+00  0.00000000000E+00  0.51969571287E+03  0.51969571287E+03  0.00000000000E+00 0.  1.
         21   -1    0    0  501  502  0.00000000000E+00 -0.00000000000E+00 -0.48261233455E+03  0.48261233455E+03  0.00000000000E+00 0.  1.
         24    2    1    2    0    0 -0.93493893552E+02  0.25276717181E+02  0.15617956294E+03  0.20036360266E+03  0.79834183328E+02 0.  0.
         23    2    1    2    0    0  0.21778419900E+03  0.12372941802E+03  0.26225144694E+03  0.37406955130E+03  0.91723942194E+02 0.  0.
        -11    1    3    3    0    0 -0.97249816458E+02  0.38364725963E+01  0.14795301624E+03  0.17709415670E+03  0.00000000000E+00 0.  1.
         12    1    3    3    0    0  0.37559229061E+01  0.21440244585E+02  0.82265467053E+01  0.23269445963E+02  0.00000000000E+00 0. -1.
        -13    1    4    4    0    0  0.14314974333E+03  0.51800818988E+02  0.20596797221E+03  0.25612102499E+03  0.00000000000E+00 0.  1.
         13    1    4    4    0    0  0.74634455677E+02  0.71928599034E+02  0.56283474722E+02  0.11794852632E+03  0.00000000000E+00 0. -1.
         -4    1    1    2    0  502 -0.12429030545E+03 -0.14900613520E+03 -0.38134763156E+03  0.42787489346E+03  0.00000000000E+00 0.  1.
<scales pt_clust_5="13000.00000" pt_clust_6="13000.00000" pt_clust_7="13000.00000" pt_clust_8="13000.00000" pt_clust_9="196.88767"></scales>
<clustering>
<clus scale="   79.834">  5  6 -1 -1</clus>
<clus scale="   91.724">  7  8 -1 -1</clus>
<clus scale="  125.513">  1  5  2 -1</clus>
<clus scale="  196.888">  2  9  1 -1</clus>
<clus scale="  196.888">  2  5  1 -1</clus>
</clustering>
</event>
<event>
 9    2  0.6175212E-005  0.2806126E+03  0.7546771E-02  0.1095464E+00
         -1   -1    0    0    0  501 -0.00000000000E+00  0.00000000000E+00  0.20879728456E+03  0.20879728456E+03  0.00000000000E+00 0.  1.
         21   -1    0    0  501  502  0.00000000000E+00 -0.00000000000E+00 -0.69924190034E+03  0.69924190034E+03  0.00000000000E+00 0.  1.
         24    2    1    2    0    0 -0.23375928215E+03 -0.12993032493E+03  0.19765663548E+02  0.28253772548E+03  0.88947139001E+02 0.  0.
         23    2    1    2    0    0  0.20955131024E+03  0.14974811379E+03 -0.52424788607E+03  0.59121115376E+03  0.91425013419E+02 0.  0.
        -11    1    3    3    0    0 -0.19084352687E+03 -0.77449252271E+02  0.43879908468E+02  0.21058272672E+03  0.00000000000E+00 0.  1.
         12    1    3    3    0    0 -0.42915755281E+02 -0.52481072659E+02 -0.24114244920E+02  0.71954998762E+02  0.00000000000E+00 0. -1.
        -13    1    4    4    0    0  0.14782951124E+03  0.12761947561E+03 -0.30327959601E+03  0.36071984740E+03  0.00000000000E+00 0.  1.
         13    1    4    4    0    0  0.61721798994E+02  0.22128638179E+02 -0.22096829005E+03  0.23049130636E+03  0.00000000000E+00 0. -1.
         -2    1    1    2    0  502  0.24207971909E+02 -0.19817788859E+02  0.14037606745E+02  0.34290305661E+02  0.00000000000E+00 0.  1.
<scales pt_clust_5="13000.00000" pt_clust_6="13000.00000" pt_clust_7="13000.00000" pt_clust_8="13000.00000" pt_clust_9="31.28533"></scales>
<clustering>
<clus scale="   31.285">  2  9  1 -1</clus>
<clus scale="   88.947">  5  6 -1 -1</clus>
<clus scale="   91.425">  7  8 -1 -1</clus>
<clus scale="  279.815">  1  5  2 -1</clus>
<clus scale="   31.285">  2  5  1 -1</clus>
</clustering>
</event>
<event>
 9    2  0.6175212E-005  0.9120101E+02  0.7546771E-02  0.1303990E+00
         21   -1    0    0  501  502  0.00000000000E+00  0.00000000000E+00  0.14655392114E+03  0.14655392114E+03  0.00000000000E+00 0.  1.
         -3   -1    0    0    0  501 -0.00000000000E+00 -0.00000000000E+00 -0.12746027015E+03  0.12746027015E+03  0.00000000000E+00 0.  1.
         23    2    1    2    0    0  0.22839047525E+02 -0.15363574992E+02 -0.55001803753E+02  0.10708911888E+03  0.87665383352E+02 0.  0.
         24    2    1    2    0    0 -0.26195006384E+02 -0.59791116858E+01 -0.45636835169E+01  0.85352817530E+02  0.80884782976E+02 0.  0.
        -11    1    4    4    0    0  0.53667762294E+01 -0.39087237977E+02 -0.33360754698E+01  0.39594745349E+02  0.00000000000E+00 0.  1.
         12    1    4    4    0    0 -0.31561782613E+02  0.33108126291E+02 -0.12276080471E+01  0.45758072181E+02  0.00000000000E+00 0. -1.
        -11    1    3    3    0    0 -0.15737928541E+02  0.17475044993E+02  0.92465847673E+01  0.25269723428E+02  0.00000000000E+00 0. -1.
         11    1    3    3    0    0  0.38576976066E+02 -0.32838619985E+02 -0.64248388520E+02  0.81819395453E+02  0.00000000000E+00 0.  1.
         -4    1    1    2    0  502  0.33559588589E+01  0.21342686678E+02  0.78659138258E+02  0.81572254878E+02  0.00000000000E+00 0.  1.
<scales pt_clust_5="13000.00000" pt_clust_6="13000.00000" pt_clust_7="13000.00000" pt_clust_8="13000.00000" pt_clust_9="21.60492"></scales>
<clustering>
<clus scale="   21.605">  1  9  2 -1</clus>
<clus scale="   80.885">  5  6 -1 -1</clus>
<clus scale="   84.704">  1  5  2 -1</clus>
<clus scale="   87.665">  7  8 -1 -1</clus>
<clus scale="   21.605">  1  5  2 -1</clus>
</clustering>
</event>
<event>
 9    2  0.6175212E-005  0.3561662E+03  0.7546771E-02  0.1060373E+00
         21   -1    0    0  501  502  0.00000000000E+00  0.00000000000E+00  0.85467459241E+02  0.85467459241E+02  0.00000000000E+00 0.  1.
          2   -1    0    0  502    0 -0.00000000000E+00 -0.00000000000E+00 -0.20270022783E+04  0.20270022783E+04  0.00000000000E+00 0. -1.
         23    2    1    2    0    0  0.36798955486E+03 -0.10029484073E+03 -0.10126856226E+04  0.10860010160E+04  0.91600595693E+02 0.  0.
         24    2    1    2    0    0 -0.30994958162E+03  0.48415783988E+01 -0.61716048763E+03  0.69536478764E+03  0.80950209217E+02 0.  0.
        -13    1    4    4    0    0 -0.34611665054E+02  0.20173524172E+01 -0.14214643554E+03  0.14631352024E+03  0.00000000000E+00 0.  1.
         14    1    4    4    0    0 -0.27533791656E+03  0.28242259816E+01 -0.47501405209E+03  0.54905126740E+03  0.00000000000E+00 0. -1.
        -11    1    3    3    0    0  0.87226679490E+02 -0.16657958218E+02 -0.14331097421E+03  0.16859423631E+03  0.00000000000E+00 0. -1.
         11    1    3    3    0    0  0.28076287537E+03 -0.83636882510E+02 -0.86937464834E+03  0.91740677973E+03  0.00000000000E+00 0.  1.
          1    1    1    2  501    0 -0.58039973245E+02  0.95453262329E+02 -0.31168870885E+03  0.33110393385E+03  0.00000000000E+00 0. -1.
<scales pt_clust_5="13000.00000" pt_clust_6="13000.00000" pt_clust_7="13000.00000" pt_clust_8="13000.00000" pt_clust_9="111.71381"></scales>
<clustering>
<clus scale="   80.950">  5  6 -1 -1</clus>
<clus scale="   91.601">  7  8 -1 -1</clus>
<clus scale="  111.714">  1  9  2 -1</clus>
<clus scale="  353.577">  1  5  2 -1</clus>
<clus scale="  111.714">  1  5  2 -1</clus>
</clustering>
</event>
<event>
 9    2  0.6175212E-005  0.2650340E+03  0.7546771E-02  0.1138724E+00
         21   -1    0    0  501  502  0.00000000000E+00  0.00000000000E+00  0.49945246957E+03  0.49945246957E+03  0.00000000000E+00 0. -1.
          2   -1    0    0  502    0 -0.00000000000E+00 -0.00000000000E+00 -0.37583500799E+03  0.37583500799E+03  0.00000000000E+00 0. -1.
         24    2    1    2    0    0 -0.78871812435E+02  0.56780347141E+01  0.35510323608E+02  0.11737625952E+03  0.79140383759E+02 0.  0.
         23    2    1    2    0    0  0.31773083380E+03 -0.68747931001E+01 -0.19796624184E+03  0.38522764856E+03  0.90606637611E+02 0.  0.
        -11    1    3    3    0    0 -0.28401717467E+02 -0.20873204217E+02  0.47452910031E+02  0.59111140065E+02  0.00000000000E+00 0.  1.
         12    1    3    3    0    0 -0.50470094968E+02  0.26551238932E+02 -0.11942586423E+02  0.58265119457E+02  0.00000000000E+00 0. -1.
        -13    1    4    4    0    0  0.27527865895E+03 -0.11818344642E+01 -0.12891712491E+03  0.30397263348E+03  0.00000000000E+00 0. -1.
         13    1    4    4    0    0  0.42452174848E+02 -0.56929586359E+01 -0.69049116932E+02  0.81255015085E+02  0.00000000000E+00 0.  1.
          1    1    1    2  501    0 -0.23885902137E+03  0.11967583860E+01  0.28607337982E+03  0.37268356948E+03  0.00000000000E+00 0. -1.
<scales pt_clust_5="13000.00000" pt_clust_6="13000.00000" pt_clust_7="13000.00000" pt_clust_8="13000.00000" pt_clust_9="249.06516"></scales>
<clustering>
<clus scale="   79.140">  5  6 -1 -1</clus>
<clus scale="   90.607">  7  8 -1 -1</clus>
<clus scale="  111.876">  2  5  1 -1</clus>
<clus scale="  249.065">  1  9  2 -1</clus>
<clus scale="  249.065">  1  5  2 -1</clus>
</clustering>
</event>
<event>
 9    2  0.6175212E-005  0.2409088E+03  0.7546771E-02  0.1157335E+00
         21   -1    0    0  501  502  0.00000000000E+00  0.00000000000E+00  0.57706198772E+03  0.57706198772E+03  0.00000000000E+00 0. -1.
          2   -1    0    0  502    0 -0.00000000000E+00 -0.00000000000E+00 -0.93237868118E+03  0.93237868118E+03  0.00000000000E+00 0. -1.
         24    2    1    2    0    0  0.29817333487E+01  0.52172567062E+02 -0.81284715191E+03  0.81846075664E+03  0.80166391365E+02 0.  0.
         23    2    1    2    0    0 -0.18834602092E+03 -0.11045354997E+03  0.42780430080E+03  0.49440871262E+03  0.11725717477E+03 0.  0.
        -11    1    3    3    0    0 -0.24966232049E+02  0.20278771835E+02 -0.11753209216E+03  0.12185374027E+03  0.00000000000E+00 0.  1.
         12    1    3    3    0    0  0.27947965398E+02  0.31893795227E+02 -0.69531505975E+03  0.69660701637E+03  0.00000000000E+00 0. -1.
        -11    1    4    4    0    0 -0.90012493529E+02 -0.59557020233E+02  0.95407177976E+02  0.14405491057E+03  0.00000000000E+00 0.  1.
         11    1    4    4    0    0 -0.98333527391E+02 -0.50896529741E+02  0.33239712283E+03  0.35035380205E+03  0.00000000000E+00 0. -1.
          1    1    1    2  501    0  0.18536428757E+03  0.58280982913E+02  0.29726157655E+02  0.19657119963E+03  0.00000000000E+00 0. -1.
<scales pt_clust_5="13000.00000" pt_clust_6="13000.00000" pt_clust_7="13000.00000" pt_clust_8="13000.00000" pt_clust_9="210.44682"></scales>
<clustering>
<clus scale="   80.166">  5  6 -1 -1</clus>
<clus scale="   95.695">  2  5  1 -1</clus>
<clus scale="  117.257">  7  8 -1 -1</clus>
<clus scale="  210.447">  1  9  2 -1</clus>
<clus scale="  210.447">  1  5  2 -1</clus>
</clustering>
</event>
<event>
 9    2  0.6175212E-005  0.1011636E+03  0.7546771E-02  0.1283072E+00
         21   -1    0    0  501  502  0.00000000000E+00  0.00000000000E+00  0.30584664440E+03  0.30584664440E+03  0.00000000000E+00 0. -1.
          2   -1    0    0  502    0 -0.00000000000E+00 -0.00000000000E+00 -0.48899846415E+02  0.48899846415E+02  0.00000000000E+00 0. -1.
         23    2    1    2    0    0  0.82664119593E+01  0.46987376093E+02  0.57442190385E+02  0.11734872828E+03  0.90526083064E+02 0.  0.
         24    2    1    2    0    0 -0.27618394635E+02 -0.35337580681E+02  0.10071725926E+03  0.13606091258E+03  0.79731331907E+02 0.  0.
        -13    1    4    4    0    0  0.93214252513E+01 -0.50262643872E+02  0.63715835486E+02  0.81688004195E+02  0.00000000000E+00 0.  1.
         14    1    4    4    0    0 -0.36939819886E+02  0.14925063191E+02  0.37001423774E+02  0.54372908381E+02  0.00000000000E+00 0. -1.
        -11    1    3    3    0    0 -0.12914523578E+00  0.20395013198E+02 -0.23864704964E+02  0.31392632653E+02  0.00000000000E+00 0. -1.
         11    1    3    3    0    0  0.83955571951E+01  0.26592362895E+02  0.81306895349E+02  0.85956095631E+02  0.00000000000E+00 0.  1.
          1    1    1    2  501    0  0.19351982676E+02 -0.11649795412E+02  0.98787348339E+02  0.10133684995E+03  0.00000000000E+00 0. -1.
<scales pt_clust_5="13000.00000" pt_clust_6="13000.00000" pt_clust_7="13000.00000" pt_clust_8="13000.00000" pt_clust_9="22.58798"></scales>
<clustering>
<clus scale="   22.588">  1  9  2 -1</clus>
<clus scale="   79.731">  5  6 -1 -1</clus>
<clus scale="   90.526">  7  8 -1 -1</clus>
<clus scale="   91.631">  1  5  2 -1</clus>
<clus scale="   22.588">  1  5  2 -1</clus>
</clustering>
</event>
<event>
 9    2  0.6175212E-005  0.1294868E+03  0.7546771E-02  0.1230938E+00
          4   -1    0    0  502    0 -0.00000000000E+00  0.00000000000E+00  0.53851993868E+03  0.53851993868E+03  0.00000000000E+00 0. -1.
         21   -1    0    0  501  502  0.00000000000E+00 -0.00000000000E+00 -0.60667607169E+02  0.60667607169E+02  0.00000000000E+00 0.  1.
         24    2    1    2    0    0 -0.33395607673E+01 -0.93545580526E+02  0.37095875468E+03  0.39097436097E+03  0.80552001584E+02 0.  0.
         23    2    1    2    0    0  0.40886289739E+02  0.84466378661E+02  0.10805652881E+03  0.16956682386E+03  0.90941940389E+02 0.  0.
        -11    1    3    3    0    0 -0.27028721786E+02 -0.62917786873E+02  0.13007987063E+03  0.14700330762E+03  0.00000000000E+00 0.  1.
         12    1    3    3    0    0  0.23689161019E+02 -0.30627793654E+02  0.24087888405E+03  0.24397105336E+03  0.00000000000E+00 0. -1.
        -11    1    4    4    0    0  0.60070274640E+02  0.65104368295E+02  0.41854836845E+02  0.97973690518E+02  0.00000000000E+00 0.  1.
         11    1    4    4    0    0 -0.19183984901E+02  0.19362010366E+02  0.66201691969E+02  0.71593133341E+02  0.00000000000E+00 0. -1.
          3    1    1    2  501    0 -0.37546728972E+02  0.90792018653E+01 -0.11629519814E+01  0.38646361023E+02  0.00000000000E+00 0. -1.
<scales pt_clust_5="13000.00000" pt_clust_6="13000.00000" pt_clust_7="13000.00000" pt_clust_8="13000.00000" pt_clust_9="38.62886"></scales>
<clustering>
<clus scale="   38.629">  2  9  1 -1</clus>
<clus scale="   80.552">  5  6 -1 -1</clus>
<clus scale="   90.942">  7  8 -1 -1</clus>
<clus scale="  122.413">  1  5  2 -1</clus>
<clus scale="   38.629">  2  5  1 -1</clus>
</clustering>
</event>
<event>
 9    2  0.6175212E-005  0.9564297E+02  0.7546771E-02  0.1295258E+00
         21   -1    0    0  501  502  0.00000000000E+00  0.00000000000E+00  0.17988569913E+03  0.17988569913E+03  0.00000000000E+00 0.  1.
          2   -1    0    0  502    0 -0.00000000000E+00 -0.00000000000E+00 -0.23443123498E+03  0.23443123498E+03  0.00000000000E+00 0. -1.
         24    2    1    2    0    0  0.30292669103E+02  0.11902066129E+00 -0.18038578858E+03  0.19962116288E+03  0.79949458914E+02 0.  0.
         23    2    1    2    0    0 -0.45703688230E+02 -0.36578290612E+02  0.30693823038E+02  0.11164422608E+03  0.89975129806E+02 0.  0.
        -11    1    3    3    0    0 -0.27390594620E+02 -0.80772403460E+00 -0.67441485163E+02  0.72795954645E+02  0.00000000000E+00 0.  1.
         12    1    3    3    0    0  0.57683263723E+02  0.92674469589E+00 -0.11294430341E+03  0.12682520823E+03  0.00000000000E+00 0. -1.
        -11    1    4    4    0    0 -0.67351405502E+02 -0.42906684766E+02  0.90212567492E+01  0.80365281646E+02  0.00000000000E+00 0.  1.
         11    1    4    4    0    0  0.21647717272E+02  0.63283941542E+01  0.21672566288E+02  0.31278944439E+02  0.00000000000E+00 0. -1.
          1    1    1    2  501    0  0.15411019127E+02  0.36459269950E+02  0.95146429686E+02  0.10305154515E+03  0.00000000000E+00 0. -1.
<scales pt_clust_5="13000.00000" pt_clust_6="13000.00000" pt_clust_7="13000.00000" pt_clust_8="13000.00000" pt_clust_9="39.58255"></scales>
<clustering>
<clus scale="   39.583">  1  9  2 -1</clus>
<clus scale="   79.949">  5  6 -1 -1</clus>
<clus scale="   86.278">  2  5  1 -1</clus>
<clus scale="   89.975">  7  8 -1 -1</clus>
<clus scale="   39.583">  1  5  2 -1</clus>
</clustering>
</event>
<event>
 9    2  0.6175212E-005  0.1320766E+03  0.7546771E-02  0.1226016E+00
          4   -1    0    0  502    0 -0.00000000000E+00  0.00000000000E+00  0.14441823382E+03  0.14441823382E+03  0.00000000000E+00 0. -1.
         21   -1    0    0  501  502  0.00000000000E+00 -0.00000000000E+00 -0.35718240244E+03  0.35718240244E+03  0.00000000000E+00 0. -1.
         24    2    1    2    0    0 -0.55853189477E+02 -0.74737098057E+02  0.65905737437E+02  0.14216892622E+03  0.84635836114E+02 0.  0.
         23    2    1    2    0    0  0.63706548571E+01  0.12578217033E+03 -0.17993208572E+03  0.23776298850E+03  0.91071090983E+02 0.  0.
        -13    1    3    3    0    0 -0.12673825463E+02 -0.50893386603E+02 -0.82644110468E+01  0.53094850425E+02  0.00000000000E+00 0.  1.
         14    1    3    3    0    0 -0.43179364014E+02 -0.23843711454E+02  0.74170148484E+02  0.89074075795E+02  0.00000000000E+00 0. -1.
        -11    1    4    4    0    0  0.47346779949E+02  0.66368966906E+02 -0.11293254766E+03  0.13928502310E+03  0.00000000000E+00 0.  1.
         11    1    4    4    0    0 -0.40976125092E+02  0.59413203426E+02 -0.66999538060E+02  0.98477965399E+02  0.00000000000E+00 0. -1.
          3    1    1    2  501    0  0.49482534620E+02 -0.51045072276E+02 -0.98737820332E+02  0.12166872154E+03  0.00000000000E+00 0. -1.
<scales pt_clust_5="13000.00000" pt_clust_6="13000.00000" pt_clust_7="13000.00000" pt_clust_8="13000.00000" pt_clust_9="71.09234"></scales>
<clustering>
<clus scale="   71.092">  2  9  1 -1</clus>
<clus scale="   84.636">  5  6 -1 -1</clus>
<clus scale="   91.071">  7  8 -1 -1</clus>
<clus scale="  127.724">  1  5  2 -1</clus>
<clus scale="   71.092">  2  5  1 -1</clus>
</clustering>
</event>
<event>
 9    2  0.6175212E-005  0.9975716E+02  0.7546771E-02  0.1287958E+00
          4   -1    0    0  502    0 -0.00000000000E+00  0.00000000000E+00  0.82326905210E+02  0.82326905210E+02  0.00000000000E+00 0. -1.
         21   -1    0    0  501  502  0.00000000000E+00 -0.00000000000E+00 -0.25485224200E+03  0.25485224200E+03  0.00000000000E+00 0.  1.
         23    2    1    2    0    0 -0.15818821566E+02 -0.43446930495E+02  0.56532482186E+01  0.10459679173E+03  0.93651795172E+02 0.  0.
         24    2    1    2    0    0  0.26287870117E+02 -0.14141817736E+02 -0.13525946471E+03  0.16000056860E+03  0.80087552299E+02 0.  0.
        -13    1    4    4    0    0  0.53659595953E+02 -0.38576719741E+01 -0.10465686739E+03  0.11767452470E+03  0.00000000000E+00 0.  1.
         14    1    4    4    0    0 -0.27371725836E+02 -0.10284145762E+02 -0.30602597315E+02  0.42326043894E+02  0.00000000000E+00 0. -1.
        -13    1    3    3    0    0 -0.19319323523E+02 -0.72451345725E+02  0.83692515855E+00  0.74987560318E+02  0.00000000000E+00 0.  1.
         13    1    3    3    0    0  0.35005019575E+01  0.29004415230E+02  0.48163230601E+01  0.29609231409E+02  0.00000000000E+00 0. -1.
          3    1    1    2  501    0 -0.10469048551E+02  0.57588748230E+02 -0.42919120294E+02  0.72581786883E+02  0.00000000000E+00 0. -1.
<scales pt_clust_5="13000.00000" pt_clust_6="13000.00000" pt_clust_7="13000.00000" pt_clust_8="13000.00000" pt_clust_9="58.53260"></scales>
<clustering>
<clus scale="   58.533">  2  9  1 -1</clus>
<clus scale="   80.088">  5  6 -1 -1</clus>
<clus scale="   87.148">  2  5  1 -1</clus>
<clus scale="   93.652">  7  8 -1 -1</clus>
<clus scale="   58.533">  2  5  1 -1</clus>
</clustering>
</event>
<event>
 9    2  0.6175212E-005  0.1760312E+03  0.7546771E-02  0.1172731E+00
          2   -1    0    0  502    0 -0.00000000000E+00  0.00000000000E+00  0.26111738794E+03  0.26111738794E+03  0.00000000000E+00 0. -1.
         21   -1    0    0  501  502  0.00000000000E+00 -0.00000000000E+00 -0.28449139860E+03  0.28449139860E+03  0.00000000000E+00 0. -1.
         24    2    1    2    0    0 -0.12572397242E+03  0.33517410608E+02  0.43060059609E+02  0.15928133968E+03  0.81156899784E+02 0.  0.
         23    2    1    2    0    0  0.20077185389E+03 -0.10577150743E+03 -0.11698053259E+03  0.27053546150E+03  0.89487662971E+02 0.  0.
        -13    1    3    3    0    0 -0.52928083718E+02  0.52248523799E+02  0.37775049508E+01  0.74468515688E+02  0.00000000000E+00 0.  1.
         14    1    3    3    0    0 -0.72795888705E+02 -0.18731113190E+02  0.39282554658E+02  0.84812823996E+02  0.00000000000E+00 0. -1.
        -13    1    4    4    0    0  0.12026223778E+03 -0.83098938147E+02 -0.28786367167E+02  0.14898689302E+03  0.00000000000E+00 0. -1.
         13    1    4    4    0    0  0.80509616104E+02 -0.22672569282E+02 -0.88194165422E+02  0.12154856847E+03  0.00000000000E+00 0.  1.
          1    1    1    2  501    0 -0.75047881466E+02  0.72254096821E+02  0.50546462326E+02  0.11579198536E+03  0.00000000000E+00 0. -1.
<scales pt_clust_5="13000.00000" pt_clust_6="13000.00000" pt_clust_7="13000.00000" pt_clust_8="13000.00000" pt_clust_9="104.17701"></scales>
<clustering>
<clus scale="   81.157">  5  6 -1 -1</clus>
<clus scale="   89.488">  7  8 -1 -1</clus>
<clus scale="  104.177">  2  9  1 -1</clus>
<clus scale="  171.946">  1  5  2 -1</clus>
<clus scale="  104.177">  2  5  1 -1</clus>
</clustering>
</event>
<event>
 9    2  0.6175212E-005  0.6269323E+03  0.7546771E-02  0.9851054E-01
          2   -1    0    0  502    0 -0.00000000000E+00  0.00000000000E+00  0.33903313390E+03  0.33903313390E+03  0.00000000000E+00 0. -1.
         21   -1    0    0  501  502  0.00000000000E+00 -0.00000000000E+00 -0.11074902381E+04  0.11074902381E+04  0.00000000000E+00 0. -1.
         24    2    1    2    0    0 -0.30399774011E+03 -0.35062938914E+02 -0.18780128028E+03  0.37142053829E+03  0.95078176828E+02 0.  0.
         23    2    1    2    0    0 -0.25807802330E+03  0.11021340054E+03 -0.51945881625E+02  0.29978937531E+03  0.91782542796E+02 0.  0.
        -13    1    3    3    0    0 -0.11372842485E+03 -0.58406643608E+02 -0.88857506704E+02  0.15569568759E+03  0.00000000000E+00 0.  1.
         14    1    3    3    0    0 -0.19026931527E+03  0.23343704694E+02 -0.98943773572E+02  0.21572485070E+03  0.00000000000E+00 0. -1.
        -11    1    4    4    0    0 -0.85627635336E+02  0.85532836645E+02 -0.22938552514E+02  0.12318334006E+03  0.00000000000E+00 0.  1.
         11    1    4    4    0    0 -0.17245038797E+03  0.24680563891E+02 -0.29007329112E+02  0.17660603525E+03  0.00000000000E+00 0. -1.
          1    1    1    2  501    0  0.56207576342E+03 -0.75150461621E+02 -0.52870994234E+03  0.77531345843E+03  0.00000000000E+00 0. -1.
<scales pt_clust_5="13000.00000" pt_clust_6="13000.00000" pt_clust_7="13000.00000" pt_clust_8="13000.00000" pt_clust_9="567.07738"></scales>
<clustering>
<clus scale="   91.783">  7  8 -1 -1</clus>
<clus scale="   95.078">  5  6 -1 -1</clus>
<clus scale="  206.267">  5  7 -1 -1</clus>
<clus scale="  567.077">  2  9  1 -1</clus>
<clus scale="  567.077">  2  5  1 -1</clus>
</clustering>
</event>
<event>
 9    2  0.6175212E-005  0.1605435E+03  0.7546771E-02  0.1189926E+00
          2   -1    0    0  502    0 -0.00000000000E+00  0.00000000000E+00  0.14601743123E+03  0.14601743123E+03  0.00000000000E+00 0. -1.
         21   -1    0    0  501  502  0.00000000000E+00 -0.00000000000E+00 -0.36265355307E+03  0.36265355307E+03  0.00000000000E+00 0.  1.
         24    2    1    2    0    0 -0.36655535102E+02 -0.13182803023E+03  0.59796197739E+02  0.16919303089E+03  0.79551484144E+02 0.  0.
         23    2    1    2    0    0  0.58888671899E+02  0.10207753422E+03 -0.16682715367E+03  0.22375113379E+03  0.91354102264E+02 0.  0.
        -11    1    3    3    0    0  0.18627003834E+02 -0.14772492638E+02 -0.52049484878E+01  0.24336871190E+02  0.00000000000E+00 0.  1.
         12    1    3    3    0    0 -0.55282538935E+02 -0.11705553759E+03  0.65001146227E+02  0.14485615970E+03  0.00000000000E+00 0. -1.
        -13    1    4    4    0    0  0.74104311561E+02  0.44828376576E+02 -0.12127207229E+03  0.14902331313E+03  0.00000000000E+00 0.  1.
         13    1    4    4    0    0 -0.15215639662E+02  0.57249157641E+02 -0.45555081374E+02  0.74727820656E+02  0.00000000000E+00 0. -1.
          1    1    1    2  501    0 -0.22233136798E+02  0.29750496009E+02 -0.10960516591E+03  0.11572681962E+03  0.00000000000E+00 0. -1.
<scales pt_clust_5="13000.00000" pt_clust_6="13000.00000" pt_clust_7="13000.00000" pt_clust_8="13000.00000" pt_clust_9="37.14033"></scales>
<clustering>
<clus scale="   37.140">  2  9  1 -1</clus>
<clus scale="   79.551">  5  6 -1 -1</clus>
<clus scale="   91.354">  7  8 -1 -1</clus>
<clus scale="  154.133">  1  5  2 -1</clus>
<clus scale="   37.140">  2  5  1 -1</clus>
</clustering>
</event>
<event>
 9    2  0.6175212E-005  0.9936696E+02  0.7546771E-02  0.1286927E+00
         21   -1    0    0  501  502  0.00000000000E+00  0.00000000000E+00  0.20014576641E+02  0.20014576641E+02  0.00000000000E+00 0.  1.
          2   -1    0    0  502    0 -0.00000000000E+00 -0.00000000000E+00 -0.92531429903E+03  0.92531429903E+03  0.00000000000E+00 0. -1.
         24    2    1    2    0    0 -0.16336160531E+02  0.36851147850E+02 -0.58550072752E+03  0.59239666936E+03  0.80609147755E+02 0.  0.
         23    2    1    2    0    0 -0.68649732362E+01 -0.42735021504E+02 -0.14557157934E+03  0.17706832458E+03  0.91042281036E+02 0.  0.
        -11    1    3    3    0    0  0.11437101221E+02 -0.21827756125E+02 -0.13314793050E+03  0.13540911940E+03  0.00000000000E+00 0.  1.
         12    1    3    3    0    0 -0.27773261752E+02  0.58678903974E+02 -0.45235279702E+03  0.45698754995E+03  0.00000000000E+00 0. -1.
        -13    1    4    4    0    0 -0.30017728785E+02  0.18394812823E+02 -0.45303284482E+02  0.57374391195E+02  0.00000000000E+00 0.  1.
         13    1    4    4    0    0  0.23152755549E+02 -0.61129834327E+02 -0.10026829486E+03  0.11969393338E+03  0.00000000000E+00 0. -1.
          1    1    1    2  501    0  0.23201133767E+02  0.58838736545E+01 -0.17422741553E+03  0.17586388174E+03  0.00000000000E+00 0. -1.
<scales pt_clust_5="13000.00000" pt_clust_6="13000.00000" pt_clust_7="13000.00000" pt_clust_8="13000.00000" pt_clust_9="23.93560"></scales>
<clustering>
<clus scale="   23.936">  1  9  2 -1</clus>
<clus scale="   80.609">  5  6 -1 -1</clus>
<clus scale="   89.905">  2  5  1 -1</clus>
<clus scale="   91.042">  7  8 -1 -1</clus>
<clus scale="   23.936">  1  5  2 -1</clus>
</clustering>
</event>
<event>
 9    2  0.6175212E-005  0.9393878E+02  0.7546771E-02  0.1301752E+00
          2   -1    0    0  502    0 -0.00000000000E+00  0.00000000000E+00  0.10966189081E+03  0.10966189081E+03  0.00000000000E+00 0. -1.
         21   -1    0    0  501  502  0.00000000000E+00 -0.00000000000E+00 -0.25710155933E+03  0.25710155933E+03  0.00000000000E+00 0. -1.
         23    2    1    2    0    0  0.28987862018E+02 -0.65886000547E+01  0.66105930415E+02  0.11590150376E+03  0.90440360148E+02 0.  0.
         24    2    1    2    0    0 -0.74809046481E+01  0.12433606681E+02 -0.67637578827E+02  0.10326159526E+03  0.76665223380E+02 0.  0.
        -11    1    4    4    0    0 -0.57125292249E+01 -0.21882014294E+02  0.47714554690E+01  0.23113250032E+02  0.00000000000E+00 0.  1.
         12    1    4    4    0    0 -0.17683754232E+01  0.34315620976E+02 -0.72409034296E+02  0.80148345225E+02  0.00000000000E+00 0. -1.
        -13    1    3    3    0    0  0.41827803427E+02  0.19156752304E+02  0.73027682524E+02  0.86310999954E+02  0.00000000000E+00 0. -1.
         13    1    3    3    0    0 -0.12839941409E+02 -0.25745352359E+02 -0.69217521083E+01  0.29590503810E+02  0.00000000000E+00 0.  1.
          1    1    1    2  501    0 -0.21506957370E+02 -0.58450066267E+01 -0.14590802011E+03  0.14760035112E+03  0.00000000000E+00 0. -1.
<scales pt_clust_5="13000.00000" pt_clust_6="13000.00000" pt_clust_7="13000.00000" pt_clust_8="13000.00000" pt_clust_9="22.28707"></scales>
<clustering>
<clus scale="   22.287">  2  9  1 -1</clus>
<clus scale="   76.665">  5  6 -1 -1</clus>
<clus scale="   80.763">  2  5  1 -1</clus>
<clus scale="   90.440">  7  8 -1 -1</clus>
<clus scale="   22.287">  2  5  1 -1</clus>
</clustering>
</event>
<event>
 9    2  0.6175212E-005  0.3004700E+03  0.7546771E-02  0.1085006E+00
         21   -1    0    0  501  502  0.00000000000E+00  0.00000000000E+00  0.77003373669E+03  0.77003373669E+03  0.00000000000E+00 0. -1.
          4   -1    0    0  502    0 -0.00000000000E+00 -0.00000000000E+00 -0.94400617166E+02  0.94400617166E+02  0.00000000000E+00 0. -1.
         24    2    1    2    0    0  0.59660135487E+02  0.12362656478E+03  0.20547485276E+03  0.25641739406E+03  0.68462439183E+02 0.  0.
         23    2    1    2    0    0  0.63010829938E+02  0.74005428742E+02  0.10979843100E+03  0.17910463559E+03  0.10283776965E+03 0.  0.
        -13    1    3    3    0    0  0.50263438657E+02  0.31853910542E+02  0.99280314850E+02  0.11574828638E+03  0.00000000000E+00 0.  1.
         14    1    3    3    0    0  0.93966968299E+01  0.91772654234E+02  0.10619453791E+03  0.14066910769E+03  0.00000000000E+00 0. -1.
        -13    1    4    4    0    0  0.37733783958E+02  0.25855491606E+02 -0.10635222064E+02  0.46962249162E+02  0.00000000000E+00 0.  1.
         13    1    4    4    0    0  0.25277045980E+02  0.48149937136E+02  0.12043365307E+03  0.13214238643E+03  0.00000000000E+00 0. -1.
          3    1    1    2  501    0 -0.12267096542E+03 -0.19763199352E+03  0.36035983576E+03  0.42891232420E+03  0.00000000000E+00 0. -1.
<scales pt_clust_5="13000.00000" pt_clust_6="13000.00000" pt_clust_7="13000.00000" pt_clust_8="13000.00000" pt_clust_9="232.60819"></scales>
<clustering>
<clus scale="   68.462">  5  6 -1 -1</clus>
<clus scale="  102.838">  7  8 -1 -1</clus>
<clus scale="  118.302">  5  7 -1 -1</clus>
<clus scale="  232.608">  1  9  2 -1</clus>
<clus scale="  232.608">  1  5  2 -1</clus>
</clustering>
</event>
<event>
 9    2  0.6175212E-005  0.1513818E+03  0.7546771E-02  0.1223567E+00
          2   -1    0    0  502    0 -0.00000000000E+00  0.00000000000E+00  0.13136142803E+03  0.13136142803E+03  0.00000000000E+00 0. -1.
         21   -1    0    0  501  502  0.00000000000E+00 -0.00000000000E+00 -0.29344316860E+03  0.29344316860E+03  0.00000000000E+00 0.  1.
         24    2    1    2    0    0 -0.14559440108E+02  0.24947368746E+02 -0.11338799081E+02  0.89983200131E+02  0.84463361510E+02 0.  0.
         23    2    1    2    0    0 -0.26528609793E+02 -0.12578703676E+03 -0.16149230503E+03  0.22540286377E+03  0.90556836611E+02 0.  0.
        -11    1    3    3    0    0 -0.44690469042E+02  0.15317889555E+02 -0.27288059448E+02  0.54557437184E+02  0.00000000000E+00 0.  1.
         12    1    3    3    0    0  0.30131028934E+02  0.96294791902E+01  0.15949260367E+02  0.35425762947E+02  0.00000000000E+00 0. -1.
        -11    1    4    4    0    0  0.82765803393E+01 -0.10119609005E+03 -0.15023073045E+03  0.18132408223E+03  0.00000000000E+00 0.  1.
         11    1    4    4    0    0 -0.34805190133E+02 -0.24590946704E+02 -0.11261574578E+02  0.44078781539E+02  0.00000000000E+00 0. -1.
          1    1    1    2  501    0  0.41088049901E+02  0.10083966801E+03  0.10749363539E+02  0.10941853273E+03  0.00000000000E+00 0. -1.
<scales pt_clust_5="13000.00000" pt_clust_6="13000.00000" pt_clust_7="13000.00000" pt_clust_8="13000.00000" pt_clust_9="121.30919"></scales>
<clustering>
<clus scale="   84.463">  5  6 -1 -1</clus>
<clus scale="   89.266">  1  5  2 -1</clus>
<clus scale="   90.557">  7  8 -1 -1</clus>
<clus scale="  121.309">  2  9  1 -1</clus>
<clus scale="  121.309">  2  5  1 -1</clus>
</clustering>
</event>
<event>
 9    2  0.6175212E-005  0.9816318E+02  0.7546771E-02  0.1289746E+00
         -3   -1    0    0    0  501 -0.00000000000E+00  0.00000000000E+00  0.26713207304E+02  0.26713207304E+02  0.00000000000E+00 0.  1.
         21   -1    0    0  501  502  0.00000000000E+00 -0.00000000000E+00 -0.66152176959E+03  0.66152176959E+03  0.00000000000E+00 0. -1.
         24    2    1    2    0    0 -0.25897716280E+02 -0.32000712942E+02 -0.11477518634E+03  0.14651283009E+03  0.81227634735E+02 0.  0.
         23    2    1    2    0    0  0.14759120648E+02  0.27461148659E+01 -0.48860276632E+03  0.49736244614E+03  0.91713503841E+02 0.  0.
        -13    1    3    3    0    0 -0.19273683994E+02 -0.58888610015E+02 -0.66753692052E+02  0.91079079304E+02  0.00000000000E+00 0.  1.
         14    1    3    3    0    0 -0.66240322856E+01  0.26887897073E+02 -0.48021494287E+02  0.55433750787E+02  0.00000000000E+00 0. -1.
        -13    1    4    4    0    0 -0.34258166997E+02  0.21506450701E+02 -0.21276101959E+03  0.21657193005E+03  0.00000000000E+00 0.  1.
         13    1    4    4    0    0  0.49017287645E+02 -0.18760335835E+02 -0.27584174673E+03  0.28079051609E+03  0.00000000000E+00 0. -1.
         -4    1    1    2    0  502  0.11138595632E+02  0.29254598076E+02 -0.31430609629E+02  0.44359700663E+02  0.00000000000E+00 0.  1.
<scales pt_clust_5="13000.00000" pt_clust_6="13000.00000" pt_clust_7="13000.00000" pt_clust_8="13000.00000" pt_clust_9="31.30337"></scales>
<clustering>
<clus scale="   31.303">  2  9  1 -1</clus>
<clus scale="   81.228">  5  6 -1 -1</clus>
<clus scale="   88.445">  1  5  2 -1</clus>
<clus scale="   91.714">  7  8 -1 -1</clus>
<clus scale="   31.303">  2  5  1 -1</clus>
</clustering>
</event>
<event>
 9    2  0.6175212E-005  0.1171137E+03  0.7546771E-02  0.1250923E+00
         -1   -1    0    0    0  501 -0.00000000000E+00  0.00000000000E+00  0.20546440412E+03  0.20546440412E+03  0.00000000000E+00 0.  1.
         21   -1    0    0  501  502  0.00000000000E+00 -0.00000000000E+00 -0.20919084892E+03  0.20919084892E+03  0.00000000000E+00 0. -1.
         24    2    1    2    0    0  0.72846281294E+02  0.16263060012E+02 -0.91740262586E+02  0.14348356990E+03  0.81241560993E+02 0.  0.
         23    2    1    2    0    0  0.41090708759E+02 -0.46840637810E+02 -0.18870268765E+02  0.11198363734E+03  0.91113974187E+02 0.  0.
        -13    1    3    3    0    0  0.24082732034E+02  0.46903629540E+02 -0.43019237909E+02  0.68048389229E+02  0.00000000000E+00 0.  1.
         14    1    3    3    0    0  0.48763549260E+02 -0.30640569528E+02 -0.48721024677E+02  0.75435180672E+02  0.00000000000E+00 0. -1.
        -13    1    4    4    0    0 -0.26734171935E+02 -0.19004881396E+02 -0.20446891801E+02  0.38651996718E+02  0.00000000000E+00 0. -1.
         13    1    4    4    0    0  0.67824880694E+02 -0.27835756414E+02  0.15766230361E+01  0.73331640624E+02  0.00000000000E+00 0.  1.
         -2    1    1    2    0  502 -0.11393699005E+03  0.30577577797E+02  0.10688408656E+03  0.15918804580E+03  0.00000000000E+00 0.  1.
<scales pt_clust_5="13000.00000" pt_clust_6="13000.00000" pt_clust_7="13000.00000" pt_clust_8="13000.00000" pt_clust_9="73.57900"></scales>
<clustering>
<clus scale="   81.242">  5  6 -1 -1</clus>
<clus scale="   91.114">  7  8 -1 -1</clus>
<clus scale="  110.323">  1  5  2 -1</clus>
<clus scale="   73.579">  2  9  1 -1</clus>
<clus scale="   73.579">  2  5  1 -1</clus>
</clustering>
</event>
<event>
 9    2  0.6175212E-005  0.9426243E+02  0.7546771E-02  0.1298788E+00
         21   -1    0    0  501  502  0.00000000000E+00  0.00000000000E+00  0.13237773463E+03  0.13237773463E+03  0.00000000000E+00 0.  1.
          2   -1    0    0  502    0 -0.00000000000E+00 -0.00000000000E+00 -0.16041000781E+03  0.16041000781E+03  0.00000000000E+00 0. -1.
         24    2    1    2    0    0 -0.25104393598E+02  0.50933294822E+01 -0.95073551869E+02  0.12802829675E+03  0.81829651842E+02 0.  0.
         23    2    1    2    0    0 -0.10506642193E+02 -0.83352376577E+00  0.84090900230E+02  0.12504822045E+03  0.91949408064E+02 0.  0.
        -13    1    3    3    0    0 -0.32832174513E+02 -0.32834167568E+02 -0.44227008798E+02  0.64125365889E+02  0.00000000000E+00 0.  1.
         14    1    3    3    0    0  0.77277809146E+01  0.37927497050E+02 -0.50846543072E+02  0.63902930862E+02  0.00000000000E+00 0. -1.
        -13    1    4    4    0    0 -0.33083666689E+02  0.98591940441E+01 -0.28026171232E+01  0.34635059860E+02  0.00000000000E+00 0. -1.
         13    1    4    4    0    0  0.22577024496E+02 -0.10692717810E+02  0.86893517353E+02  0.90413160586E+02  0.00000000000E+00 0.  1.
          1    1    1    2  501    0  0.35611035792E+02 -0.42598057164E+01 -0.17049621541E+02  0.39711225234E+02  0.00000000000E+00 0. -1.
<scales pt_clust_5="13000.00000" pt_clust_6="13000.00000" pt_clust_7="13000.00000" pt_clust_8="13000.00000" pt_clust_9="35.86493"></scales>
<clustering>
<clus scale="   35.865">  1  9  2 -1</clus>
<clus scale="   81.830">  5  6 -1 -1</clus>
<clus scale="   84.420">  2  5  1 -1</clus>
<clus scale="   91.949">  7  8 -1 -1</clus>
<clus scale="   35.865">  1  5  2 -1</clus>
</clustering>
</event>
<event>
 9    2  0.6175212E-005  0.1053551E+03  0.7546771E-02  0.1270415E+00
         21   -1    0    0  501  502  0.00000000000E+00  0.00000000000E+00  0.61750484491E+03  0.61750484491E+03  0.00000000000E+00 0. -1.
          2   -1    0    0  502    0 -0.00000000000E+00 -0.00000000000E+00 -0.20756461757E+03  0.20756461757E+03  0.00000000000E+00 0. -1.
         24    2    1    2    0    0 -0.45526918610E+02  0.18537024128E+02 -0.17533427356E+03  0.20436795461E+03  0.92778401591E+02 0.  0.
         23    2    1    2    0    0  0.86658250829E+02  0.39696932063E+02  0.31824156031E+03  0.34431487379E+03  0.90496092458E+02 0.  0.
        -11    1    3    3    0    0 -0.56903445502E+01  0.21891234677E+02  0.18834833560E+01  0.22696997298E+02  0.00000000000E+00 0.  1.
         12    1    3    3    0    0 -0.39836574060E+02 -0.33542105489E+01 -0.17721775692E+03  0.18167095731E+03  0.00000000000E+00 0. -1.
        -11    1    4    4    0    0  0.22114406388E+01 -0.20705929748E+02  0.21487463010E+02  0.29922183460E+02  0.00000000000E+00 0.  1.
         11    1    4    4    0    0  0.84446810190E+02  0.60402861811E+02  0.29675409730E+03  0.31439269033E+03  0.00000000000E+00 0. -1.
          1    1    1    2  501    0 -0.41131332218E+02 -0.58233956191E+02  0.26703294059E+03  0.27638663409E+03  0.00000000000E+00 0. -1.
<scales pt_clust_5="13000.00000" pt_clust_6="13000.00000" pt_clust_7="13000.00000" pt_clust_8="13000.00000" pt_clust_9="71.29502"></scales>
<clustering>
<clus scale="   71.295">  1  9  2 -1</clus>
<clus scale="   90.496">  7  8 -1 -1</clus>
<clus scale="   92.778">  5  6 -1 -1</clus>
<clus scale="  103.351">  1  7  2 -1</clus>
<clus scale="   71.295">  1  5  2 -1</clus>
</clustering>
</event>
<event>
 9    2  0.6175212E-005  0.1337730E+03  0.7546771E-02  0.1224329E+00
         21   -1    0    0  501  502  0.00000000000E+00  0.00000000000E+00  0.75746532808E+02  0.75746532808E+02  0.00000000000E+00 0.  1.
          2   -1    0    0  502    0 -0.00000000000E+00 -0.00000000000E+00 -0.33669463529E+03  0.33669463529E+03  0.00000000000E+00 0. -1.
         24    2    1    2    0    0 -0.26480132300E+02  0.10169299096E+03 -0.19297173289E+03  0.23380024929E+03  0.79886200672E+02 0.  0.
         23    2    1    2    0    0  0.50681563888E+02 -0.73996696030E+02 -0.42322857861E+02  0.13379789585E+03  0.89813811272E+02 0.  0.
        -13    1    3    3    0    0 -0.42677672830E+02  0.21117808911E+02 -0.51134909223E+02  0.69872201573E+02  0.00000000000E+00 0.  1.
         14    1    3    3    0    0  0.16197540530E+02  0.80575182045E+02 -0.14183682366E+03  0.16392804772E+03  0.00000000000E+00 0. -1.
        -11    1    4    4    0    0  0.26258558918E+02 -0.81387406904E+02 -0.58474659134E+02  0.10359878223E+03  0.00000000000E+00 0. -1.
         11    1    4    4    0    0  0.24423004971E+02  0.73907108746E+01  0.16151801273E+02  0.30199113619E+02  0.00000000000E+00 0.  1.
          1    1    1    2  501    0 -0.24201431589E+02 -0.27696294926E+02 -0.25653511729E+02  0.44843022954E+02  0.00000000000E+00 0. -1.
<scales pt_clust_5="13000.00000" pt_clust_6="13000.00000" pt_clust_7="13000.00000" pt_clust_8="13000.00000" pt_clust_9="36.78035"></scales>
<clustering>
<clus scale="   36.780">  1  9  2 -1</clus>
<clus scale="   79.886">  5  6 -1 -1</clus>
<clus scale="   89.814">  7  8 -1 -1</clus>
<clus scale="  127.320">  2  5  1 -1</clus>
<clus scale="   36.780">  1  5  2 -1</clus>
</clustering>
</event>
<event>
 9    2  0.6175212E-005  0.1355510E+03  0.7546771E-02  0.1222709E+00
         -1   -1    0    0    0  501 -0.00000000000E+00  0.00000000000E+00  0.98174626494E+03  0.98174626494E+03  0.00000000000E+00 0.  1.
         21   -1    0    0  501  502  0.00000000000E+00 -0.00000000000E+00 -0.50619277455E+02  0.50619277455E+02  0.00000000000E+00 0. -1.
         24    2    1    2    0    0  0.11868824828E+03  0.12282345461E+02  0.52532190903E+03  0.54460970685E+03  0.79992927129E+02 0.  0.
         23    2    1    2    0    0 -0.30275412234E+02  0.58838241901E+02  0.72311196543E+02  0.13548727777E+03  0.93537981577E+02 0.  0.
        -11    1    3    3    0    0  0.33733271730E+01  0.26837876961E+02  0.84600589444E+02  0.88819540138E+02  0.00000000000E+00 0.  1.
         12    1    3    3    0    0  0.11531492111E+03 -0.14555531500E+02  0.44072131959E+03  0.45579016671E+03  0.00000000000E+00 0. -1.
        -11    1    4    4    0    0 -0.62090660243E+02  0.45070974911E+02  0.34300825108E+02  0.84042783581E+02  0.00000000000E+00 0. -1.
         11    1    4    4    0    0  0.31815248009E+02  0.13767266989E+02  0.38010371435E+02  0.51444494194E+02  0.00000000000E+00 0.  1.
         -2    1    1    2    0  502 -0.88412836051E+02 -0.71120587362E+02  0.33349388191E+03  0.35226855777E+03  0.00000000000E+00 0.  1.
<scales pt_clust_5="13000.00000" pt_clust_6="13000.00000" pt_clust_7="13000.00000" pt_clust_8="13000.00000" pt_clust_9="113.46797"></scales>
<clustering>
<clus scale="   79.993">  5  6 -1 -1</clus>
<clus scale="   93.538">  7  8 -1 -1</clus>
<clus scale="  113.468">  2  9  1 -1</clus>
<clus scale="  126.584">  1  5  2 -1</clus>
<clus scale="  113.468">  2  5  1 -1</clus>
</clustering>
</event>
<event>
 9    2  0.6175212E-005  0.9529681E+02  0.7546771E-02  0.1296403E+00
         21   -1    0    0  501  502  0.00000000000E+00  0.00000000000E+00  0.30753845540E+02  0.30753845540E+02  0.00000000000E+00 0.  1.
          2   -1    0    0  502    0 -0.00000000000E+00 -0.00000000000E+00 -0.88282242119E+03  0.88282242119E+03  0.00000000000E+00 0. -1.
         24    2    1    2    0    0  0.11633510947E+02 -0.51261852798E+02 -0.18062589102E+03  0.20474890469E+03  0.80828740787E+02 0.  0.
         23    2    1    2    0    0  0.34463801474E+02 -0.70710045738E+01 -0.13193115837E+03  0.16421706887E+03  0.91234107876E+02 0.  0.
        -13    1    3    3    0    0  0.20063875846E+02  0.14982058331E+02 -0.24920228558E+02  0.35327595123E+02  0.00000000000E+00 0.  1.
         14    1    3    3    0    0 -0.84303648990E+01 -0.66243911129E+02 -0.15570566246E+03  0.16942130957E+03  0.00000000000E+00 0. -1.
        -11    1    4    4    0    0  0.33284190075E+02 -0.36098378258E+02 -0.28477474809E+02  0.56761754671E+02  0.00000000000E+00 0.  1.
         11    1    4    4    0    0  0.11796113991E+01  0.29027373684E+02 -0.10345368356E+03  0.10745531420E+03  0.00000000000E+00 0. -1.
          1    1    1    2  501    0 -0.46097312422E+02  0.58332857372E+02 -0.53951152627E+03  0.54461029318E+03  0.00000000000E+00 0. -1.
<scales pt_clust_5="13000.00000" pt_clust_6="13000.00000" pt_clust_7="13000.00000" pt_clust_8="13000.00000" pt_clust_9="74.34844"></scales>
<clustering>
<clus scale="   74.348">  1  9  2 -1</clus>
<clus scale="   80.829">  5  6 -1 -1</clus>
<clus scale="   85.388">  2  5  1 -1</clus>
<clus scale="   91.234">  7  8 -1 -1</clus>
<clus scale="   74.348">  1  5  2 -1</clus>
</clustering>
</event>
<event>
 9    2  0.6175212E-005  0.2976628E+03  0.7546771E-02  0.1130197E+00
          2   -1    0    0  502    0 -0.00000000000E+00  0.00000000000E+00  0.19012575931E+03  0.19012575931E+03  0.00000000000E+00 0. -1.
         21   -1    0    0  501  502  0.00000000000E+00 -0.00000000000E+00 -0.79019334159E+03  0.79019334159E+03  0.00000000000E+00 0. -1.
         23    2    1    2    0    0  0.36257292138E+02 -0.45070229258E+01  0.24671280277E+02  0.10028574082E+03  0.90075819466E+02 0.  0.
         24    2    1    2    0    0 -0.24612303910E+02 -0.28360767243E+03 -0.16875115415E+03  0.34052388504E+03  0.80252644136E+02 0.  0.
        -11    1    4    4    0    0 -0.38776066960E+02 -0.17006024278E+03 -0.13693690404E+03  0.22175613911E+03  0.00000000000E+00 0.  1.
         12    1    4    4    0    0  0.14163763051E+02 -0.11354742965E+03 -0.31814250109E+02  0.11876774594E+03  0.00000000000E+00 0. -1.
        -13    1    3    3    0    0  0.59532036574E+02 -0.38049267694E+01  0.40524187642E+02  0.72116230006E+02  0.00000000000E+00 0.  1.
         13    1    3    3    0    0 -0.23274744435E+02 -0.70209615643E+00 -0.15852907365E+02  0.28169510813E+02  0.00000000000E+00 0. -1.
          1    1    1    2  501    0 -0.11644988229E+02  0.28811469536E+03 -0.45598770841E+03  0.53950947504E+03  0.00000000000E+00 0. -1.
<scales pt_clust_5="13000.00000" pt_clust_6="13000.00000" pt_clust_7="13000.00000" pt_clust_8="13000.00000" pt_clust_9="286.64027"></scales>
<clustering>
<clus scale="   80.253">  5  6 -1 -1</clus>
<clus scale="   90.076">  7  8 -1 -1</clus>
<clus scale="   97.204">  1  7  2 -1</clus>
<clus scale="  286.640">  2  9  1 -1</clus>
<clus scale="  286.640">  2  5  1 -1</clus>
</clustering>
</event>
<event>
 9    2  0.6175212E-005  0.1570413E+03  0.7546771E-02  0.1193391E+00
         21   -1    0    0  501  502  0.00000000000E+00  0.00000000000E+00  0.17641711600E+03  0.17641711600E+03  0.00000000000E+00 0.  1.
          2   -1    0    0  502    0 -0.00000000000E+00 -0.00000000000E+00 -0.36120282783E+03  0.36120282783E+03  0.00000000000E+00 0. -1.
         24    2    1    2    0    0  0.69207452611E+02 -0.12312272733E+03 -0.15389357679E+03  0.22499545182E+03  0.83611260480E+02 0.  0.
         23    2    1    2    0    0  0.32408303600E+02  0.10520274081E+03  0.77655767205E+02  0.16285955983E+03  0.91514497389E+02 0.  0.
        -13    1    3    3    0    0  0.75579860668E+01 -0.96786693438E+02 -0.89649673593E+02  0.13214329781E+03  0.00000000000E+00 0.  1.
         14    1    3    3    0    0  0.61649466545E+02 -0.26336033894E+02 -0.64243903199E+02  0.92852154013E+02  0.00000000000E+00 0. -1.
        -13    1    4    4    0    0 -0.40361344042E+00  0.51162781864E+02  0.85002272207E+02  0.99212798732E+02  0.00000000000E+00 0.  1.
         13    1    4    4    0    0  0.32811917041E+02  0.54039958946E+02 -0.73465050025E+01  0.63646761100E+02  0.00000000000E+00 0. -1.
          1    1    1    2  501    0 -0.10161575621E+03  0.17919986522E+02 -0.10854790224E+03  0.14976493217E+03  0.00000000000E+00 0. -1.
<scales pt_clust_5="13000.00000" pt_clust_6="13000.00000" pt_clust_7="13000.00000" pt_clust_8="13000.00000" pt_clust_9="103.18381"></scales>
<clustering>
<clus scale="   83.611">  5  6 -1 -1</clus>
<clus scale="   91.514">  7  8 -1 -1</clus>
<clus scale="  103.184">  1  9  2 -1</clus>
<clus scale="  152.571">  2  5  1 -1</clus>
<clus scale="  103.184">  1  5  2 -1</clus>
</clustering>
</event>
<event>
 9    2  0.6175212E-005  0.1410527E+03  0.7546771E-02  0.1215169E+00
         21   -1    0    0  501  502  0.00000000000E+00  0.00000000000E+00  0.47190156194E+03  0.47190156194E+03  0.00000000000E+00 0.  1.
         -3   -1    0    0    0  501 -0.00000000000E+00 -0.00000000000E+00 -0.15333021916E+03  0.15333021916E+03  0.00000000000E+00 0.  1.
         24    2    1    2    0    0  0.10791360686E+03 -0.11185697562E+02 -0.19825829363E+02  0.13398334909E+03  0.76078958643E+02 0.  0.
         23    2    1    2    0    0 -0.10589666381E+03 -0.35140944250E+02 -0.54122144387E+01  0.14432607744E+03  0.91387828486E+02 0.  0.
        -11    1    3    3    0    0  0.84852432316E+02 -0.38569469013E+02 -0.27880970221E+02  0.97287654460E+02  0.00000000000E+00 0.  1.
         12    1    3    3    0    0  0.23061174547E+02  0.27383771451E+02  0.80551408582E+01  0.36695694634E+02  0.00000000000E+00 0. -1.
        -13    1    4    4    0    0 -0.87819518819E+02  0.43600685990E+01 -0.31796748516E+02  0.93500327807E+02  0.00000000000E+00 0.  1.
         13    1    4    4    0    0 -0.18077144987E+02 -0.39501012850E+02  0.26384534078E+02  0.50825749630E+02  0.00000000000E+00 0. -1.
         -4    1    1    2    0  502 -0.20169430582E+01  0.46326641812E+02  0.34380938658E+03  0.34692235457E+03  0.00000000000E+00 0.  1.
<scales pt_clust_5="13000.00000" pt_clust_6="13000.00000" pt_clust_7="13000.00000" pt_clust_8="13000.00000" pt_clust_9="46.37053"></scales>
<clustering>
<clus scale="   46.371">  1  9  2 -1</clus>
<clus scale="   76.079">  5  6 -1 -1</clus>
<clus scale="   91.388">  7  8 -1 -1</clus>
<clus scale="  131.652">  2  5  1 -1</clus>
<clus scale="   46.371">  1  5  2 -1</clus>
</clustering>
</event>
<event>
 9    2  0.6175212E-005  0.1031018E+03  0.7546771E-02  0.1281783E+00
          2   -1    0    0  502    0 -0.00000000000E+00  0.00000000000E+00  0.34950917383E+03  0.34950917383E+03  0.00000000000E+00 0. -1.
         21   -1    0    0  501  502  0.00000000000E+00 -0.00000000000E+00 -0.72138958587E+02  0.72138958587E+02  0.00000000000E+00 0.  1.
         24    2    1    2    0    0  0.32232931023E+02  0.28790608527E+02  0.22606552496E+03  0.24243068598E+03  0.76152182795E+02 0.  0.
         23    2    1    2    0    0 -0.57536261587E+01 -0.69349373873E+02  0.59376254090E+02  0.13011228199E+03  0.92526896115E+02 0.  0.
        -11    1    3    3    0    0 -0.16122398482E+02  0.28387980460E+02  0.48991874457E+02  0.58872853933E+02  0.00000000000E+00 0.  1.
         12    1    3    3    0    0  0.48355329505E+02  0.40262806691E+00  0.17707365051E+03  0.18355783204E+03  0.00000000000E+00 0. -1.
        -13    1    4    4    0    0 -0.29747966579E+02 -0.54341751237E+02 -0.25727691693E+01  0.62004730338E+02  0.00000000000E+00 0.  1.
         13    1    4    4    0    0  0.23994340421E+02 -0.15007622635E+02  0.61949023260E+02  0.68107551653E+02  0.00000000000E+00 0. -1.
          1    1    1    2  501    0 -0.26479304864E+02  0.40558765346E+02 -0.80715638163E+01  0.49105164443E+02  0.00000000000E+00 0. -1.
<scales pt_clust_5="13000.00000" pt_clust_6="13000.00000" pt_clust_7="13000.00000" pt_clust_8="13000.00000" pt_clust_9="48.43725"></scales>
<clustering>
<clus scale="   48.437">  2  9  1 -1</clus>
<clus scale="   76.152">  5  6 -1 -1</clus>
<clus scale="   88.701">  1  5  2 -1</clus>
<clus scale="   92.527">  7  8 -1 -1</clus>
<clus scale="   48.437">  2  5  1 -1</clus>
</clustering>
</event>
<event>
 9    2  0.6175212E-005  0.9806902E+02  0.7546771E-02  0.1288354E+00
         21   -1    0    0  501  502  0.00000000000E+00  0.00000000000E+00  0.16411907215E+02  0.16411907215E+02  0.00000000000E+00 0. -1.
          2   -1    0    0  502    0 -0.00000000000E+00 -0.00000000000E+00 -0.91257756738E+03  0.91257756738E+03  0.00000000000E+00 0. -1.
         24    2    1    2    0    0 -0.16764956247E+01 -0.38666518268E+02 -0.46093956426E+03  0.46950775132E+03  0.80463261057E+02 0.  0.
         23    2    1    2    0    0  0.32288681184E+02  0.42920281627E+02 -0.39744566146E+03  0.41067023247E+03  0.88330495956E+02 0.  0.
        -11    1    3    3    0    0 -0.39602062508E+02 -0.78035239218E+01 -0.21422997687E+03  0.21799931497E+03  0.00000000000E+00 0.  1.
         12    1    3    3    0    0  0.37925566884E+02 -0.30862994346E+02 -0.24670958739E+03  0.25150843635E+03  0.00000000000E+00 0. -1.
        -11    1    4    4    0    0 -0.25261279995E+02  0.33071315139E+02 -0.21889183489E+03  0.22281265569E+03  0.00000000000E+00 0.  1.
         11    1    4    4    0    0  0.57549961179E+02  0.98489664882E+01 -0.17855382657E+03  0.18785757679E+03  0.00000000000E+00 0. -1.
          1    1    1    2  501    0 -0.30612185559E+02 -0.42537633594E+01 -0.37780434442E+02  0.48811490799E+02  0.00000000000E+00 0. -1.
<scales pt_clust_5="13000.00000" pt_clust_6="13000.00000" pt_clust_7="13000.00000" pt_clust_8="13000.00000" pt_clust_9="30.90632"></scales>
<clustering>
<clus scale="   30.906">  1  9  2 -1</clus>
<clus scale="   80.463">  5  6 -1 -1</clus>
<clus scale="   88.330">  7  8 -1 -1</clus>
<clus scale="   91.047">  2  5  1 -1</clus>
<clus scale="   30.906">  1  5  2 -1</clus>
</clustering>
</event>
<event>
 9    2  0.6175212E-005  0.1743849E+03  0.7546771E-02  0.1175331E+00
         21   -1    0    0  501  502  0.00000000000E+00  0.00000000000E+00  0.28752763302E+03  0.28752763302E+03  0.00000000000E+00 0.  1.
         -3   -1    0    0    0  501 -0.00000000000E+00 -0.00000000000E+00 -0.20359244641E+03  0.20359244641E+03  0.00000000000E+00 0.  1.
         23    2    1    2    0    0  0.11370347241E+03 -0.45408114405E+02 -0.18966506663E+02  0.15286892070E+03  0.89547764077E+02 0.  0.
         24    2    1    2    0    0 -0.20307899442E+03  0.73043275894E+02  0.82823557928E+02  0.24257034766E+03  0.73513493220E+02 0.  0.
        -13    1    4    4    0    0 -0.14705826899E+03  0.42768600080E+02  0.91347310306E+02  0.17832447597E+03  0.00000000000E+00 0.  1.
         14    1    4    4    0    0 -0.56020725435E+02  0.30274675815E+02 -0.85237523786E+01  0.64245871685E+02  0.00000000000E+00 0. -1.
        -11    1    3    3    0    0  0.89036251864E+02 -0.34343833129E+01 -0.42586256052E+02  0.98756459734E+02  0.00000000000E+00 0.  1.
         11    1    3    3    0    0  0.24667220542E+02 -0.41973731092E+02  0.23619749388E+02  0.54112460970E+02  0.00000000000E+00 0. -1.
         -4    1    1    2    0  502  0.89375522017E+02 -0.27635161490E+02  0.20078135346E+02  0.95680811061E+02  0.00000000000E+00 0.  1.
<scales pt_clust_5="13000.00000" pt_clust_6="13000.00000" pt_clust_7="13000.00000" pt_clust_8="13000.00000" pt_clust_9="93.55045"></scales>
<clustering>
<clus scale="   73.513">  5  6 -1 -1</clus>
<clus scale="   89.548">  7  8 -1 -1</clus>
<clus scale="   93.550">  1  9  2 -1</clus>
<clus scale="  166.720">  1  5  2 -1</clus>
<clus scale="   93.550">  1  5  2 -1</clus>
</clustering>
</event>
<event>
 9    2  0.6175212E-005  0.1076070E+03  0.7546771E-02  0.1267227E+00
          2   -1    0    0  502    0 -0.00000000000E+00  0.00000000000E+00  0.14287295478E+04  0.14287295478E+04  0.00000000000E+00 0. -1.
         21   -1    0    0  501  502  0.00000000000E+00 -0.00000000000E+00 -0.20015940741E+02  0.20015940741E+02  0.00000000000E+00 0. -1.
         24    2    1    2    0    0  0.58100069969E+02  0.12310514852E+02  0.46573661952E+03  0.47749884212E+03  0.86990680914E+02 0.  0.
         23    2    1    2    0    0 -0.38203946712E+02  0.81224517318E+02  0.40868532914E+03  0.42846470659E+03  0.92202726531E+02 0.  0.
        -11    1    3    3    0    0 -0.17645821233E+02 -0.14554935658E+02  0.68646428665E+02  0.72357123543E+02  0.00000000000E+00 0.  1.
         12    1    3    3    0    0  0.75745891201E+02  0.26865450510E+02  0.39709019085E+03  0.40514171858E+03  0.00000000000E+00 0. -1.
        -13    1    4    4    0    0 -0.42639836812E+01 -0.20042066714E+02  0.45499791176E+02  0.49900871656E+02  0.00000000000E+00 0.  1.
         13    1    4    4    0    0 -0.33939963031E+02  0.10126658403E+03  0.36318553797E+03  0.37856383494E+03  0.00000000000E+00 0. -1.
          1    1    1    2  501    0 -0.19896123256E+02 -0.93535032170E+02  0.53429165840E+03  0.54278193982E+03  0.00000000000E+00 0. -1.
<scales pt_clust_5="13000.00000" pt_clust_6="13000.00000" pt_clust_7="13000.00000" pt_clust_8="13000.00000" pt_clust_9="95.62775"></scales>
<clustering>
<clus scale="   86.991">  5  6 -1 -1</clus>
<clus scale="   92.203">  7  8 -1 -1</clus>
<clus scale="   95.628">  2  9  1 -1</clus>
<clus scale="  103.176">  1  5  2 -1</clus>
<clus scale="   95.628">  2  5  1 -1</clus>
</clustering>
</event>
<event>
 9    2  0.6175212E-005  0.1033456E+03  0.7546771E-02  0.1280269E+00
          2   -1    0    0  502    0 -0.00000000000E+00  0.00000000000E+00  0.10349527391E+04  0.10349527391E+04  0.00000000000E+00 0. -1.
         21   -1    0    0  501  502  0.00000000000E+00 -0.00000000000E+00 -0.20849371555E+02  0.20849371555E+02  0.00000000000E+00 0.  1.
         24    2    1    2    0    0 -0.48900224952E+01  0.42131692188E+02  0.76603791681E+03  0.77137405947E+03  0.80030355700E+02 0.  0.
         23    2    1    2    0    0  0.24985994357E+02 -0.40270899047E+02  0.14425188815E+03  0.17867094072E+03  0.94173523877E+02 0.  0.
        -13    1    3    3    0    0  0.28526027399E+02 -0.23000421935E+01  0.14140745575E+03  0.14427436701E+03  0.00000000000E+00 0.  1.
         14    1    3    3    0    0 -0.33416049894E+02  0.44431734382E+02  0.62463046105E+03  0.62709969246E+03  0.00000000000E+00 0. -1.
        -13    1    4    4    0    0  0.27143575955E+01 -0.20913128168E+02 -0.87629813255E+01  0.22836735945E+02  0.00000000000E+00 0.  1.
         13    1    4    4    0    0  0.22271636762E+02 -0.19357770880E+02  0.15301486948E+03  0.15583420478E+03  0.00000000000E+00 0. -1.
          1    1    1    2  501    0 -0.20095971862E+02 -0.18607931406E+01  0.10381356263E+03  0.10575711050E+03  0.00000000000E+00 0. -1.
<scales pt_clust_5="13000.00000" pt_clust_6="13000.00000" pt_clust_7="13000.00000" pt_clust_8="13000.00000" pt_clust_9="20.18195"></scales>
<clustering>
<clus scale="   20.182">  2  9  1 -1</clus>
<clus scale="   80.030">  5  6 -1 -1</clus>
<clus scale="   90.645">  1  5  2 -1</clus>
<clus scale="   94.174">  7  8 -1 -1</clus>
<clus scale="   20.182">  2  5  1 -1</clus>
</clustering>
</event>
<event>
 9    2  0.6175212E-005  0.1082367E+03  0.7546771E-02  0.1267586E+00
         21   -1    0    0  501  502  0.00000000000E+00  0.00000000000E+00  0.44092764812E+03  0.44092764812E+03  0.00000000000E+00 0. -1.
          2   -1    0    0  502    0 -0.00000000000E+00 -0.00000000000E+00 -0.57826045773E+02  0.57826045773E+02  0.00000000000E+00 0. -1.
         23    2    1    2    0    0  0.13605004802E+02 -0.49683435655E+02  0.98906814165E+02  0.14338406440E+03  0.90127088614E+02 0.  0.
         24    2    1    2    0    0 -0.91107819309E+02  0.18148506121E+02  0.12484664611E+03  0.17538916272E+03  0.80899136837E+02 0.  0.
        -11    1    4    4    0    0 -0.59106974853E+02  0.11111889624E+02  0.16743451918E+02  0.62429574317E+02  0.00000000000E+00 0.  1.
         12    1    4    4    0    0 -0.32000844456E+02  0.70366164968E+01  0.10810319419E+03  0.11295958840E+03  0.00000000000E+00 0. -1.
        -13    1    3    3    0    0  0.47874534579E+01 -0.75478402030E+02  0.80714494046E+02  0.11061075189E+03  0.00000000000E+00 0. -1.
         13    1    3    3    0    0  0.88175513441E+01  0.25794966375E+02  0.18192320120E+02  0.32773312517E+02  0.00000000000E+00 0.  1.
          1    1    1    2  501    0  0.77502814507E+02  0.31534929535E+02  0.15934814207E+03  0.17998046677E+03  0.00000000000E+00 0. -1.
<scales pt_clust_5="13000.00000" pt_clust_6="13000.00000" pt_clust_7="13000.00000" pt_clust_8="13000.00000" pt_clust_9="83.67280"></scales>
<clustering>
<clus scale="   80.899">  5  6 -1 -1</clus>
<clus scale="   83.673">  1  9  2 -1</clus>
<clus scale="   90.127">  7  8 -1 -1</clus>
<clus scale="  100.682">  1  5  2 -1</clus>
<clus scale="   83.673">  1  5  2 -1</clus>
</clustering>
</event>
<event>
 9    2  0.6175212E-005  0.9088289E+02  0.7546771E-02  0.1304669E+00
         21   -1    0    0  501  502  0.00000000000E+00  0.00000000000E+00  0.15150791771E+03  0.15150791771E+03  0.00000000000E+00 0. -1.
          2   -1    0    0  502    0 -0.00000000000E+00 -0.00000000000E+00 -0.67464740249E+03  0.67464740249E+03  0.00000000000E+00 0. -1.
         24    2    1    2    0    0  0.28184257135E+02 -0.10947000293E+01 -0.57649916171E+03  0.58263322702E+03  0.79464728360E+02 0.  0.
         23    2    1    2    0    0 -0.33560174467E+02 -0.28285555093E+02 -0.68202278578E+02  0.11834458361E+03  0.86183129025E+02 0.  0.
        -13    1    3    3    0    0 -0.90171469565E+01 -0.23327299169E+02 -0.70930539099E+02  0.75210459396E+02  0.00000000000E+00 0.  1.
         14    1    3    3    0    0  0.37201404091E+02  0.22232599139E+02 -0.50556862261E+03  0.50742276762E+03  0.00000000000E+00 0. -1.
        -11    1    4    4    0    0  0.18826676087E+02 -0.98203917132E+01  0.91443738418E+01  0.23119329550E+02  0.00000000000E+00 0.  1.
         11    1    4    4    0    0 -0.52386850553E+02 -0.18465163380E+02 -0.77346652420E+02  0.95225254056E+02  0.00000000000E+00 0. -1.
          1    1    1    2  501    0  0.53759173317E+01  0.29380255122E+02  0.12156195551E+03  0.12517750958E+03  0.00000000000E+00 0. -1.
<scales pt_clust_5="13000.00000" pt_clust_6="13000.00000" pt_clust_7="13000.00000" pt_clust_8="13000.00000" pt_clust_9="29.86804"></scales>
<clustering>
<clus scale="   29.868">  1  9  2 -1</clus>
<clus scale="   79.465">  5  6 -1 -1</clus>
<clus scale="   84.539">  2  5  1 -1</clus>
<clus scale="   86.183">  7  8 -1 -1</clus>
<clus scale="   29.868">  1  5  2 -1</clus>
</clustering>
</event>
<event>
 9    2  0.6175212E-005  0.2747539E+03  0.7546771E-02  0.1143428E+00
         21   -1    0    0  501  502  0.00000000000E+00  0.00000000000E+00  0.77929112658E+02  0.77929112658E+02  0.00000000000E+00 0.  1.
          2   -1    0    0  502    0 -0.00000000000E+00 -0.00000000000E+00 -0.15281289717E+04  0.15281289717E+04  0.00000000000E+00 0. -1.
         24    2    1    2    0    0  0.30477189673E+02 -0.27104374670E+02 -0.40524827720E+03  0.41504969057E+03  0.79853448618E+02 0.  0.
         23    2    1    2    0    0 -0.27601278111E+03 -0.25479478533E+02 -0.74252999464E+03  0.79792875212E+03  0.92234707958E+02 0.  0.
        -13    1    3    3    0    0  0.23152306754E+02 -0.55512311805E+02 -0.28453387577E+03  0.29082154757E+03  0.00000000000E+00 0.  1.
         14    1    3    3    0    0  0.73248829194E+01  0.28407937135E+02 -0.12071440143E+03  0.12422814300E+03  0.00000000000E+00 0. -1.
        -11    1    4    4    0    0 -0.11136285188E+03 -0.54422072757E+02 -0.34922909116E+03  0.37057307632E+03  0.00000000000E+00 0.  1.
         11    1    4    4    0    0 -0.16464992923E+03  0.28942594224E+02 -0.39330090348E+03  0.42735567580E+03  0.00000000000E+00 0. -1.
          1    1    1    2  501    0  0.24553559144E+03  0.52583853203E+02 -0.30242158718E+03  0.39307964164E+03  0.00000000000E+00 0. -1.
<scales pt_clust_5="13000.00000" pt_clust_6="13000.00000" pt_clust_7="13000.00000" pt_clust_8="13000.00000" pt_clust_9="258.80966"></scales>
<clustering>
<clus scale="   79.853">  5  6 -1 -1</clus>
<clus scale="   89.666">  2  5  1 -1</clus>
<clus scale="   92.235">  7  8 -1 -1</clus>
<clus scale="  258.810">  1  9  2 -1</clus>
<clus scale="  258.810">  1  5  2 -1</clus>
</clustering>
</event>
<event>
 9    2  0.6175212E-005  0.9172726E+02  0.7546771E-02  0.1303737E+00
         21   -1    0    0  501  502  0.00000000000E+00  0.00000000000E+00  0.72273903390E+02  0.72273903390E+02  0.00000000000E+00 0. -1.
          4   -1    0    0  502    0 -0.00000000000E+00 -0.00000000000E+00 -0.26907415918E+03  0.26907415918E+03  0.00000000000E+00 0. -1.
         24    2    1    2    0    0  0.13575776076E+02  0.28666648155E+01 -0.18648940595E+03  0.20406213768E+03  0.81673361854E+02 0.  0.
         23    2    1    2    0    0 -0.43385388439E+02 -0.87597306660E+01  0.10001597661E+02  0.10073545653E+03  0.89936507801E+02 0.  0.
        -13    1    3    3    0    0 -0.27452014790E+02  0.15881454994E+02 -0.38185632012E+02  0.49638455062E+02  0.00000000000E+00 0.  1.
         14    1    3    3    0    0  0.41027790866E+02 -0.13014790179E+02 -0.14830377394E+03  0.15442368261E+03  0.00000000000E+00 0. -1.
        -11    1    4    4    0    0  0.21138783511E+02  0.19803712132E+02  0.83767499284E+01  0.30153028403E+02  0.00000000000E+00 0.  1.
         11    1    4    4    0    0 -0.64524171950E+02 -0.28563442798E+02  0.16248477327E+01  0.70582428128E+02  0.00000000000E+00 0. -1.
          3    1    1    2  501    0  0.29809612363E+02  0.58930658505E+01 -0.20312447500E+02  0.36550468367E+02  0.00000000000E+00 0. -1.
<scales pt_clust_5="13000.00000" pt_clust_6="13000.00000" pt_clust_7="13000.00000" pt_clust_8="13000.00000" pt_clust_9="30.38653"></scales>
<clustering>
<clus scale="   30.387">  1  9  2 -1</clus>
<clus scale="   81.673">  5  6 -1 -1</clus>
<clus scale="   83.641">  2  5  1 -1</clus>
<clus scale="   89.937">  7  8 -1 -1</clus>
<clus scale="   30.387">  1  5  2 -1</clus>
</clustering>
</event>
<event>
 9    2  0.6175212E-005  0.1214335E+03  0.7546771E-02  0.1244504E+00
          2   -1    0    0  502    0 -0.00000000000E+00  0.00000000000E+00  0.63679513530E+03  0.63679513530E+03  0.00000000000E+00 0. -1.
         21   -1    0    0  501  502  0.00000000000E+00 -0.00000000000E+00 -0.46344479190E+02  0.46344479190E+02  0.00000000000E+00 0. -1.
         23    2    1    2    0    0  0.12123440802E+02 -0.72289117667E+02  0.42944554457E+03  0.44526293437E+03  0.91994079277E+02 0.  0.
         24    2    1    2    0    0 -0.23292611008E+02  0.91546496413E+02  0.17291858463E+03  0.21262736646E+03  0.79914037090E+02 0.  0.
        -11    1    4    4    0    0  0.19358420940E+02  0.75500328168E+02  0.10292960298E+03  0.12911061608E+03  0.00000000000E+00 0.  1.
         12    1    4    4    0    0 -0.42651031948E+02  0.16046168244E+02  0.69988981654E+02  0.83516750383E+02  0.00000000000E+00 0. -1.
        -11    1    3    3    0    0  0.24882731806E+02  0.10707387827E+02  0.52489679486E+02  0.59067460998E+02  0.00000000000E+00 0.  1.
         11    1    3    3    0    0 -0.12759291004E+02 -0.82996505494E+02  0.37695586508E+03  0.38619547337E+03  0.00000000000E+00 0. -1.
          1    1    1    2  501    0  0.11169170206E+02 -0.19257378746E+02 -0.11913473092E+02  0.25249313661E+02  0.00000000000E+00 0. -1.
<scales pt_clust_5="13000.00000" pt_clust_6="13000.00000" pt_clust_7="13000.00000" pt_clust_8="13000.00000" pt_clust_9="22.26201"></scales>
<clustering>
<clus scale="   22.262">  2  9  1 -1</clus>
<clus scale="   79.914">  5  6 -1 -1</clus>
<clus scale="   91.994">  7  8 -1 -1</clus>
<clus scale="  112.559">  2  5  1 -1</clus>
<clus scale="   22.262">  2  5  1 -1</clus>
</clustering>
</event>
<event>
 9    2  0.6175212E-005  0.1413746E+03  0.7546771E-02  0.1216127E+00
         21   -1    0    0  501  502  0.00000000000E+00  0.00000000000E+00  0.24112315259E+03  0.24112315259E+03  0.00000000000E+00 0. -1.
          2   -1    0    0  502    0 -0.00000000000E+00 -0.00000000000E+00 -0.18055262479E+03  0.18055262479E+03  0.00000000000E+00 0. -1.
         24    2    1    2    0    0  0.12123388690E+01 -0.99583064080E+02 -0.37587267833E+02  0.13353036369E+03  0.80618229370E+02 0.  0.
         23    2    1    2    0    0  0.93032701011E+02 -0.45111599306E+01  0.43458422732E+02  0.13744784766E+03  0.91257012324E+02 0.  0.
        -11    1    3    3    0    0 -0.23233000864E+02 -0.30612411193E+02  0.17214333068E+02  0.42109681917E+02  0.00000000000E+00 0.  1.
         12    1    3    3    0    0  0.24445339733E+02 -0.68970652887E+02 -0.54801600901E+02  0.91420681772E+02  0.00000000000E+00 0. -1.
        -11    1    4    4    0    0  0.85515435061E+01  0.31839050013E+02 -0.52392691603E+01  0.33381191462E+02  0.00000000000E+00 0.  1.
         11    1    4    4    0    0  0.84481157504E+02 -0.36350209944E+02  0.48697691892E+02  0.10406665620E+03  0.00000000000E+00 0. -1.
          1    1    1    2  501    0 -0.94245039879E+02  0.10409422401E+03  0.54699372903E+02  0.15069756604E+03  0.00000000000E+00 0. -1.
<scales pt_clust_5="13000.00000" pt_clust_6="13000.00000" pt_clust_7="13000.00000" pt_clust_8="13000.00000" pt_clust_9="107.97654"></scales>
<clustering>
<clus scale="   80.618">  5  6 -1 -1</clus>
<clus scale="   91.257">  7  8 -1 -1</clus>
<clus scale="  128.131">  2  5  1 -1</clus>
<clus scale="  107.977">  1  9  2 -1</clus>
<clus scale="  107.977">  1  5  2 -1</clus>
</clustering>
</event>
<event>
 9    2  0.6175212E-005  0.1799610E+03  0.7546771E-02  0.1169289E+00
         21   -1    0    0  501  502  0.00000000000E+00  0.00000000000E+00  0.10316170943E+03  0.10316170943E+03  0.00000000000E+00 0. -1.
          2   -1    0    0  502    0 -0.00000000000E+00 -0.00000000000E+00 -0.59055064211E+03  0.59055064211E+03  0.00000000000E+00 0. -1.
         24    2    1    2    0    0 -0.89749943581E+02 -0.12107564545E+03 -0.34586898675E+03  0.38562072448E+03  0.79772318849E+02 0.  0.
         23    2    1    2    0    0  0.14820643079E+03  0.90540764582E+02 -0.14150580042E+03  0.24214058427E+03  0.91898829253E+02 0.  0.
        -13    1    3    3    0    0 -0.23386505833E+02  0.85418254416E+01 -0.51691091697E+02  0.57374736581E+02  0.00000000000E+00 0.  1.
         14    1    3    3    0    0 -0.66363437748E+02 -0.12961747089E+03 -0.29417789506E+03  0.32824598789E+03  0.00000000000E+00 0. -1.
        -13    1    4    4    0    0  0.54976948539E+02  0.81860452995E+02 -0.47473188064E+02  0.10944086175E+03  0.00000000000E+00 0. -1.
         13    1    4    4    0    0  0.93229482251E+02  0.86803115872E+01 -0.94032612359E+02  0.13269972252E+03  0.00000000000E+00 0.  1.
          1    1    1    2  501    0 -0.58456487208E+02  0.30534880865E+02 -0.14145499272E-01  0.65951042799E+02  0.00000000000E+00 0. -1.
<scales pt_clust_5="13000.00000" pt_clust_6="13000.00000" pt_clust_7="13000.00000" pt_clust_8="13000.00000" pt_clust_9="65.95104"></scales>
<clustering>
<clus scale="   65.951">  1  9  2 -1</clus>
<clus scale="   79.772">  5  6 -1 -1</clus>
<clus scale="   91.899">  7  8 -1 -1</clus>
<clus scale="  174.081">  2  5  1 -1</clus>
<clus scale="   65.951">  1  5  2 -1</clus>
</clustering>
</event>
<event>
 9    2  0.6175212E-005  0.1307639E+03  0.7546771E-02  0.1248605E+00
         -1   -1    0    0    0  501 -0.00000000000E+00  0.00000000000E+00  0.26642817210E+03  0.26642817210E+03  0.00000000000E+00 0.  1.
         21   -1    0    0  501  502  0.00000000000E+00 -0.00000000000E+00 -0.56436367405E+03  0.56436367405E+03  0.00000000000E+00 0.  1.
         24    2    1    2    0    0 -0.55830648184E+01 -0.79787696551E+01  0.15335936652E+02  0.84418385864E+02  0.82440533361E+02 0.  0.
         23    2    1    2    0    0 -0.33435973884E+02  0.91966644557E+02  0.19104652792E+03  0.23362297530E+03  0.92223048620E+02 0.  0.
        -13    1    3    3    0    0 -0.12716067296E+02 -0.37361882066E+02  0.31166197799E+02  0.50288572104E+02  0.00000000000E+00 0.  1.
         14    1    3    3    0    0  0.71330024776E+01  0.29383112411E+02 -0.15830261147E+02  0.34129813760E+02  0.00000000000E+00 0. -1.
        -13    1    4    4    0    0 -0.11839217999E+02  0.30568792954E+02  0.15658008350E+03  0.15997481282E+03  0.00000000000E+00 0.  1.
         13    1    4    4    0    0 -0.21596755885E+02  0.61397851603E+02  0.34466444412E+02  0.73648162480E+02  0.00000000000E+00 0. -1.
         -2    1    1    2    0  502  0.39019038702E+02 -0.83987874902E+02 -0.50431796652E+03  0.51275048499E+03  0.00000000000E+00 0.  1.
<scales pt_clust_5="13000.00000" pt_clust_6="13000.00000" pt_clust_7="13000.00000" pt_clust_8="13000.00000" pt_clust_9="92.70435"></scales>
<clustering>
<clus scale="   82.441">  5  6 -1 -1</clus>
<clus scale="   83.014">  1  5  2 -1</clus>
<clus scale="   92.223">  7  8 -1 -1</clus>
<clus scale="   92.704">  2  9  1 -1</clus>
<clus scale="   92.704">  2  5  1 -1</clus>
</clustering>
</event>
<event>
 9    2  0.6175212E-005  0.1041508E+03  0.7546771E-02  0.1277223E+00
          2   -1    0    0  502    0 -0.00000000000E+00  0.00000000000E+00  0.27366328125E+03  0.27366328125E+03  0.00000000000E+00 0. -1.
         21   -1    0    0  501  502  0.00000000000E+00 -0.00000000000E+00 -0.53267635783E+02  0.53267635783E+02  0.00000000000E+00 0.  1.
         24    2    1    2    0    0 -0.49671086984E+02 -0.30407209802E+02  0.83336723492E+02  0.12939146197E+03  0.80033278439E+02 0.  0.
         23    2    1    2    0    0  0.17562315215E+02  0.39550071931E+02  0.72277474303E+02  0.12466146720E+03  0.91890179062E+02 0.  0.
        -13    1    3    3    0    0 -0.23191254683E+02  0.26398713515E+02  0.20697573042E+02  0.40781318013E+02  0.00000000000E+00 0.  1.
         14    1    3    3    0    0 -0.26479832301E+02 -0.56805923318E+02  0.62639150450E+02  0.88610143955E+02  0.00000000000E+00 0. -1.
        -13    1    4    4    0    0  0.17532938839E+02 -0.13021322642E+02 -0.12308902203E+02  0.25069261280E+02  0.00000000000E+00 0.  1.
         13    1    4    4    0    0  0.29376376642E-01  0.52571394573E+02  0.84586376506E+02  0.99592205923E+02  0.00000000000E+00 0. -1.
          1    1    1    2  501    0  0.32108771769E+02 -0.91428621282E+01  0.64781447669E+02  0.72877987860E+02  0.00000000000E+00 0. -1.
<scales pt_clust_5="13000.00000" pt_clust_6="13000.00000" pt_clust_7="13000.00000" pt_clust_8="13000.00000" pt_clust_9="33.38512"></scales>
<clustering>
<clus scale="   33.385">  2  9  1 -1</clus>
<clus scale="   80.033">  5  6 -1 -1</clus>
<clus scale="   91.890">  7  8 -1 -1</clus>
<clus scale="   93.856">  1  5  2 -1</clus>
<clus scale="   33.385">  2  5  1 -1</clus>
</clustering>
</event>
<event>
 9    2  0.6175212E-005  0.1504859E+03  0.7546771E-02  0.1202204E+00
          2   -1    0    0  502    0 -0.00000000000E+00  0.00000000000E+00  0.10202463340E+04  0.10202463340E+04  0.00000000000E+00 0. -1.
         21   -1    0    0  501  502  0.00000000000E+00 -0.00000000000E+00 -0.32422269983E+02  0.32422269983E+02  0.00000000000E+00 0.  1.
         24    2    1    2    0    0  0.52921393863E+02 -0.11529295559E+03  0.73140942547E+03  0.74656441348E+03  0.79407406918E+02 0.  0.
         23    2    1    2    0    0 -0.43886650012E+02  0.90092419441E+02  0.23602958647E+03  0.27245535744E+03  0.92082973561E+02 0.  0.
        -13    1    3    3    0    0  0.27471400374E+00 -0.56313822580E+02  0.15810830123E+03  0.16783788904E+03  0.00000000000E+00 0.  1.
         14    1    3    3    0    0  0.52646679859E+02 -0.58979133008E+02  0.57330112424E+03  0.57872652444E+03  0.00000000000E+00 0. -1.
        -13    1    4    4    0    0  0.33638169656E+01  0.85877317901E+02  0.17670295760E+03  0.19649469260E+03  0.00000000000E+00 0.  1.
         13    1    4    4    0    0 -0.47250466977E+02  0.42151015407E+01  0.59326628867E+02  0.75960664842E+02  0.00000000000E+00 0. -1.
          1    1    1    2  501    0 -0.90347438511E+01  0.25200536146E+02  0.20385052094E+02  0.33648833076E+02  0.00000000000E+00 0. -1.
<scales pt_clust_5="13000.00000" pt_clust_6="13000.00000" pt_clust_7="13000.00000" pt_clust_8="13000.00000" pt_clust_9="26.77113"></scales>
<clustering>
<clus scale="   26.771">  2  9  1 -1</clus>
<clus scale="   79.407">  5  6 -1 -1</clus>
<clus scale="   92.083">  7  8 -1 -1</clus>
<clus scale="  143.081">  1  5  2 -1</clus>
<clus scale="   26.771">  2  5  1 -1</clus>
</clustering>
</event>
<event>
 9    2  0.6175212E-005  0.1007953E+03  0.7546771E-02  0.1284445E+00
         21   -1    0    0  501  502  0.00000000000E+00  0.00000000000E+00  0.28242430366E+03  0.28242430366E+03  0.00000000000E+00 0. -1.
         -3   -1    0    0    0  501 -0.00000000000E+00 -0.00000000000E+00 -0.11179583403E+03  0.11179583403E+03  0.00000000000E+00 0.  1.
         23    2    1    2    0    0 -0.49055069363E+02 -0.50995054917E+01 -0.56003177096E+02  0.11790737167E+03  0.91287390486E+02 0.  0.
         24    2    1    2    0    0  0.23185014308E+01  0.49258804469E+02  0.12719139500E+03  0.15789522455E+03  0.79507519810E+02 0.  0.
        -13    1    4    4    0    0  0.31501356650E+01  0.71245983170E+02  0.10183507203E+03  0.12432335005E+03  0.00000000000E+00 0.  1.
         14    1    4    4    0    0 -0.83163423419E+00 -0.21987178700E+02  0.25356322974E+02  0.33571874500E+02  0.00000000000E+00 0. -1.
        -11    1    3    3    0    0 -0.32414378224E+02 -0.22889496257E+02 -0.76429649126E+02  0.86116852126E+02  0.00000000000E+00 0.  1.
         11    1    3    3    0    0 -0.16640691139E+02  0.17789990766E+02  0.20426472030E+02  0.31790519540E+02  0.00000000000E+00 0. -1.
         -4    1    1    2    0  502  0.46736567932E+02 -0.44159298978E+02  0.99440251722E+02  0.11841754148E+03  0.00000000000E+00 0.  1.
<scales pt_clust_5="13000.00000" pt_clust_6="13000.00000" pt_clust_7="13000.00000" pt_clust_8="13000.00000" pt_clust_9="64.29891"></scales>
<clustering>
<clus scale="   64.299">  1  9  2 -1</clus>
<clus scale="   79.508">  5  6 -1 -1</clus>
<clus scale="   90.265">  1  5  2 -1</clus>
<clus scale="   91.287">  7  8 -1 -1</clus>
<clus scale="   64.299">  1  5  2 -1</clus>
</clustering>
</event>
<event>
 9    2  0.6175212E-005  0.1405636E+03  0.7546771E-02  0.1214999E+00
         21   -1    0    0  501  502  0.00000000000E+00  0.00000000000E+00  0.17795161374E+03  0.17795161374E+03  0.00000000000E+00 0.  1.
         -1   -1    0    0    0  501 -0.00000000000E+00 -0.00000000000E+00 -0.38829173721E+03  0.38829173721E+03  0.00000000000E+00 0.  1.
         24    2    1    2    0    0 -0.92296231879E+02  0.58323500005E+02 -0.33802025721E+03  0.36418850872E+03  0.80345196072E+02 0.  0.
         23    2    1    2    0    0  0.61383096070E+02 -0.57502639497E+02  0.91070396182E+02  0.15413231452E+03  0.91588838219E+02 0.  0.
        -13    1    3    3    0    0 -0.10088538004E+03  0.49247220052E+02 -0.33170432563E+03  0.35018696182E+03  0.00000000000E+00 0.  1.
         14    1    3    3    0    0  0.85891481628E+01  0.90762799526E+01 -0.63159315786E+01  0.14001546902E+02  0.00000000000E+00 0. -1.
        -11    1    4    4    0    0  0.67450014905E+02 -0.10993238518E+02  0.24294364307E+02  0.72529800364E+02  0.00000000000E+00 0.  1.
         11    1    4    4    0    0 -0.60669188350E+01 -0.46509400979E+02  0.66776031875E+02  0.81602514156E+02  0.00000000000E+00 0. -1.
         -2    1    1    2    0  502  0.30913135809E+02 -0.82086050810E+00  0.36609737559E+02  0.47922527706E+02  0.00000000000E+00 0.  1.
<scales pt_clust_5="13000.00000" pt_clust_6="13000.00000" pt_clust_7="13000.00000" pt_clust_8="13000.00000" pt_clust_9="30.92403"></scales>
<clustering>
<clus scale="   30.924">  1  9  2 -1</clus>
<clus scale="   80.345">  5  6 -1 -1</clus>
<clus scale="   91.589">  7  8 -1 -1</clus>
<clus scale="  133.510">  2  5  1 -1</clus>
<clus scale="   30.924">  1  5  2 -1</clus>
</clustering>
</event>
<event>
 9    2  0.6175212E-005  0.1097758E+03  0.7546771E-02  0.1267287E+00
         21   -1    0    0  501  502  0.00000000000E+00  0.00000000000E+00  0.30765639608E+03  0.30765639608E+03  0.00000000000E+00 0. -1.
          4   -1    0    0  502    0 -0.00000000000E+00 -0.00000000000E+00 -0.63880340127E+02  0.63880340127E+02  0.00000000000E+00 0. -1.
         24    2    1    2    0    0  0.34439636720E+02  0.49413718431E+02  0.12435277907E+02  0.98707153275E+02  0.77205322514E+02 0.  0.
         23    2    1    2    0    0 -0.13489209017E+02 -0.54237742112E+02  0.22615157448E+03  0.25071353765E+03  0.92677137905E+02 0.  0.
        -11    1    3    3    0    0  0.25116979599E+02 -0.94915713365E+01  0.26184409737E+02  0.37504345133E+02  0.00000000000E+00 0.  1.
         12    1    3    3    0    0  0.93226571207E+01  0.58905289767E+02 -0.13749131830E+02  0.61202808142E+02  0.00000000000E+00 0. -1.
        -11    1    4    4    0    0  0.18555165524E+02 -0.39546403709E+02  0.20500131513E+03  0.20960379629E+03  0.00000000000E+00 0. -1.
         11    1    4    4    0    0 -0.32044374541E+02 -0.14691338403E+02  0.21150259349E+02  0.41109741356E+02  0.00000000000E+00 0.  1.
          3    1    1    2  501    0 -0.20950427703E+02  0.48240236812E+01  0.51892035651E+01  0.22116045285E+02  0.00000000000E+00 0. -1.
<scales pt_clust_5="13000.00000" pt_clust_6="13000.00000" pt_clust_7="13000.00000" pt_clust_8="13000.00000" pt_clust_9="21.49865"></scales>
<clustering>
<clus scale="   21.499">  1  9  2 -1</clus>
<clus scale="   77.205">  5  6 -1 -1</clus>
<clus scale="   92.677">  7  8 -1 -1</clus>
<clus scale="   97.069">  2  5  1 -1</clus>
<clus scale="   21.499">  1  5  2 -1</clus>
</clustering>
</event>
<event>
 9    2  0.6175212E-005  0.1114383E+03  0.7546771E-02  0.1276705E+00
         21   -1    0    0  501  502  0.00000000000E+00  0.00000000000E+00  0.25531081512E+02  0.25531081512E+02  0.00000000000E+00 0.  1.
         -1   -1    0    0    0  501 -0.00000000000E+00 -0.00000000000E+00 -0.59438994257E+03  0.59438994257E+03  0.00000000000E+00 0.  1.
         23    2    1    2    0    0 -0.11599556935E+02 -0.96990311238E+01 -0.29310252143E+03  0.31351740119E+03  0.11025176576E+03 0.  0.
         24    2    1    2    0    0 -0.26894398193E+02  0.22098820388E+02 -0.12417248672E+03  0.14951766490E+03  0.75664120566E+02 0.  0.
        -11    1    4    4    0    0 -0.53029960405E+02  0.21182692652E+02 -0.83250033815E+02  0.10095271813E+03  0.00000000000E+00 0.  1.
         12    1    4    4    0    0  0.26135562212E+02  0.91612773554E+00 -0.40922452910E+02  0.48564946765E+02  0.00000000000E+00 0. -1.
        -13    1    3    3    0    0 -0.55919186594E+02 -0.24248217805E+02 -0.20444783894E+03  0.21333975331E+03  0.00000000000E+00 0.  1.
         13    1    3    3    0    0  0.44319629659E+02  0.14549186682E+02 -0.88654682490E+02  0.10017764787E+03  0.00000000000E+00 0. -1.
         -2    1    1    2    0  502  0.38493955128E+02 -0.12399789264E+02 -0.15158385290E+03  0.15688595799E+03  0.00000000000E+00 0.  1.
<scales pt_clust_5="13000.00000" pt_clust_6="13000.00000" pt_clust_7="13000.00000" pt_clust_8="13000.00000" pt_clust_9="40.44182"></scales>
<clustering>
<clus scale="   40.442">  1  9  2 -1</clus>
<clus scale="   75.664">  5  6 -1 -1</clus>
<clus scale="   77.383">  1  5  2 -1</clus>
<clus scale="  110.252">  7  8 -1 -1</clus>
<clus scale="   40.442">  1  5  2 -1</clus>
</clustering>
</event>
<event>
 9    2  0.6175212E-005  0.2511780E+03  0.7546771E-02  0.1113175E+00
         21   -1    0    0  501  502  0.00000000000E+00  0.00000000000E+00  0.16413733042E+03  0.16413733042E+03  0.00000000000E+00 0.  1.
         -3   -1    0    0    0  501 -0.00000000000E+00 -0.00000000000E+00 -0.50187750192E+03  0.50187750192E+03  0.00000000000E+00 0.  1.
         23    2    1    2    0    0  0.11091263538E+03 -0.21510747148E+03 -0.29821798030E+03  0.39489912800E+03  0.91861420342E+02 0.  0.
         24    2    1    2    0    0 -0.12133980107E+03  0.18100732735E+03 -0.37686019858E+02  0.23540972249E+03  0.80687678580E+02 0.  0.
        -11    1    4    4    0    0 -0.12306030130E+03  0.16114189657E+03 -0.12301528042E+02  0.20313019514E+03  0.00000000000E+00 0.  1.
         12    1    4    4    0    0  0.17205002373E+01  0.19865430779E+02 -0.25384491816E+02  0.32279527349E+02  0.00000000000E+00 0. -1.
        -13    1    3    3    0    0  0.28713065964E+02 -0.14036704753E+03 -0.13097585303E+03  0.19411857785E+03  0.00000000000E+00 0.  1.
         13    1    3    3    0    0  0.82199569414E+02 -0.74740423946E+02 -0.16724212727E+03  0.20078055014E+03  0.00000000000E+00 0. -1.
         -4    1    1    2    0  502  0.10427165687E+02  0.34100144135E+02 -0.18361713467E+01  0.35705981845E+02  0.00000000000E+00 0.  1.
<scales pt_clust_5="13000.00000" pt_clust_6="13000.00000" pt_clust_7="13000.00000" pt_clust_8="13000.00000" pt_clust_9="35.65874"></scales>
<clustering>
<clus scale="   35.659">  1  9  2 -1</clus>
<clus scale="   80.688">  5  6 -1 -1</clus>
<clus scale="   91.861">  7  8 -1 -1</clus>
<clus scale="  247.310">  1  5  2 -1</clus>
<clus scale="   35.659">  1  5  2 -1</clus>
</clustering>
</event>
<event>
 9    2  0.6175212E-005  0.4684374E+03  0.7546771E-02  0.1062414E+00
         21   -1    0    0  501  502  0.00000000000E+00  0.00000000000E+00  0.27546139999E+03  0.27546139999E+03  0.00000000000E+00 0. -1.
          2   -1    0    0  502    0 -0.00000000000E+00 -0.00000000000E+00 -0.18774428484E+04  0.18774428484E+04  0.00000000000E+00 0. -1.
         24    2    1    2    0    0  0.11578598998E+03 -0.38567609689E+02 -0.42280259572E+03  0.44756543305E+03  0.81602242165E+02 0.  0.
         23    2    1    2    0    0  0.13851661634E+02 -0.45174158695E+03 -0.44985355411E+02  0.46292023921E+03  0.89493774995E+02 0.  0.
        -13    1    3    3    0    0  0.39946549677E+02  0.22961885958E+02 -0.96034145583E+02  0.10651540807E+03  0.00000000000E+00 0.  1.
         14    1    3    3    0    0  0.75839440307E+02 -0.61529495648E+02 -0.32676845013E+03  0.34105002499E+03  0.00000000000E+00 0. -1.
        -11    1    4    4    0    0 -0.25062788195E+02 -0.54163723078E+02 -0.18854677312E+02  0.62588745844E+02  0.00000000000E+00 0.  1.
         11    1    4    4    0    0  0.38914449829E+02 -0.39757786387E+03 -0.26130678099E+02  0.40033149337E+03  0.00000000000E+00 0. -1.
          1    1    1    2  501    0 -0.12963765162E+03  0.49030919664E+03 -0.11341934973E+04  0.12424185761E+04  0.00000000000E+00 0. -1.
<scales pt_clust_5="13000.00000" pt_clust_6="13000.00000" pt_clust_7="13000.00000" pt_clust_8="13000.00000" pt_clust_9="459.80937"></scales>
<clustering>
<clus scale="   81.602">  5  6 -1 -1</clus>
<clus scale="   89.494">  7  8 -1 -1</clus>
<clus scale="  146.809">  2  5  1 -1</clus>
<clus scale="  459.809">  1  9  2 -1</clus>
<clus scale="  459.809">  1  5  2 -1</clus>
</clustering>
</event>
<event>
 9    2  0.6175212E-005  0.1281699E+03  0.7546771E-02  0.1248235E+00
         -1   -1    0    0    0  501 -0.00000000000E+00  0.00000000000E+00  0.95471927646E+03  0.95471927646E+03  0.00000000000E+00 0.  1.
         21   -1    0    0  501  502  0.00000000000E+00 -0.00000000000E+00 -0.32539130658E+02  0.32539130658E+02  0.00000000000E+00 0. -1.
         24    2    1    2    0    0  0.25222703654E+02  0.27286280296E+02  0.29012527399E+03  0.30341395020E+03  0.80663651657E+02 0.  0.
         23    2    1    2    0    0 -0.75827989656E+02  0.50923367970E+02  0.17476106361E+03  0.21715904780E+03  0.90959052707E+02 0.  0.
        -11    1    3    3    0    0 -0.64933463074E+00  0.44026036396E+02  0.24400775521E+03  0.24794857959E+03  0.00000000000E+00 0.  1.
         12    1    3    3    0    0  0.25872038285E+02 -0.16739756099E+02  0.46117518773E+02  0.55465370612E+02  0.00000000000E+00 0. -1.
        -11    1    4    4    0    0  0.15487484179E+02  0.14960501204E+02  0.67193130052E+01  0.22557214583E+02  0.00000000000E+00 0.  1.
         11    1    4    4    0    0 -0.91315473836E+02  0.35962866766E+02  0.16804175060E+03  0.19460183322E+03  0.00000000000E+00 0. -1.
         -2    1    1    2    0  502  0.50605286003E+02 -0.78209648266E+02  0.45729380820E+03  0.46668540911E+03  0.00000000000E+00 0.  1.
<scales pt_clust_5="13000.00000" pt_clust_6="13000.00000" pt_clust_7="13000.00000" pt_clust_8="13000.00000" pt_clust_9="90.29938"></scales>
<clustering>
<clus scale="   80.664">  5  6 -1 -1</clus>
<clus scale="   88.811">  1  5  2 -1</clus>
<clus scale="   90.299">  2  9  1 -1</clus>
<clus scale="   90.959">  7  8 -1 -1</clus>
<clus scale="   90.299">  2  5  1 -1</clus>
</clustering>
</event>
<event>
 9    2  0.6175212E-005  0.8969333E+02  0.7546771E-02  0.1304831E+00
         21   -1    0    0  501  502  0.00000000000E+00  0.00000000000E+00  0.26718684943E+03  0.26718684943E+03  0.00000000000E+00 0. -1.
         -1   -1    0    0    0  501 -0.00000000000E+00 -0.00000000000E+00 -0.11857658241E+03  0.11857658241E+03  0.00000000000E+00 0.  1.
         23    2    1    2    0    0 -0.43798277964E+02 -0.47228681584E+01 -0.78451020635E+02  0.12104966410E+03  0.80980639060E+02 0.  0.
         24    2    1    2    0    0  0.15070284575E+02 -0.46817655855E+01  0.75721456876E+02  0.11038460938E+03  0.78752717729E+02 0.  0.
        -13    1    4    4    0    0  0.66779663720E+01  0.31898959469E+02  0.62690376230E+02  0.70655658810E+02  0.00000000000E+00 0.  1.
         14    1    4    4    0    0  0.83923182028E+01 -0.36580725054E+02  0.13031080646E+02  0.39728950567E+02  0.00000000000E+00 0. -1.
        -11    1    3    3    0    0 -0.20893199462E+02 -0.36765680566E+02 -0.68372512225E+02  0.80393043724E+02  0.00000000000E+00 0. -1.
         11    1    3    3    0    0 -0.22905078503E+02  0.32042812408E+02 -0.10078508410E+02  0.40656620371E+02  0.00000000000E+00 0.  1.
         -2    1    1    2    0  502  0.28727993389E+02  0.94046337439E+01  0.15133983079E+03  0.15432915837E+03  0.00000000000E+00 0.  1.
<scales pt_clust_5="13000.00000" pt_clust_6="13000.00000" pt_clust_7="13000.00000" pt_clust_8="13000.00000" pt_clust_9="30.22821"></scales>
<clustering>
<clus scale="   30.228">  1  9  2 -1</clus>
<clus scale="   78.753">  5  6 -1 -1</clus>
<clus scale="   80.981">  7  8 -1 -1</clus>
<clus scale="   87.687">  1  5  2 -1</clus>
<clus scale="   30.228">  1  5  2 -1</clus>
</clustering>
</event>
<event>
 9    2  0.6175212E-005  0.9460878E+02  0.7546771E-02  0.1298670E+00
         21   -1    0    0  501  502  0.00000000000E+00  0.00000000000E+00  0.10791807117E+03  0.10791807117E+03  0.00000000000E+00 0. -1.
          2   -1    0    0  502    0 -0.00000000000E+00 -0.00000000000E+00 -0.16109311413E+03  0.16109311413E+03  0.00000000000E+00 0. -1.
         23    2    1    2    0    0 -0.13307806042E+02 -0.24676614947E+02 -0.82820297106E+02  0.12617291627E+03  0.90963565011E+02 0.  0.
         24    2    1    2    0    0 -0.34513239016E+02  0.29552867344E+02  0.21428831543E+02  0.94072094398E+02  0.79535077089E+02 0.  0.
        -13    1    4    4    0    0  0.22031650404E+02 -0.13512778452E+01  0.19737876822E+02  0.29610865451E+02  0.00000000000E+00 0.  1.
         14    1    4    4    0    0 -0.56544889420E+02  0.30904145189E+02  0.16909547209E+01  0.64461228946E+02  0.00000000000E+00 0. -1.
        -11    1    3    3    0    0  0.33996486468E+02 -0.28085819266E+01 -0.80777578388E+01  0.35055661401E+02  0.00000000000E+00 0.  1.
         11    1    3    3    0    0 -0.47304292509E+02 -0.21868033021E+02 -0.74742539267E+02  0.91117254865E+02  0.00000000000E+00 0. -1.
          1    1    1    2  501    0  0.47821045058E+02 -0.48762523964E+01  0.82164226029E+01  0.48766174632E+02  0.00000000000E+00 0. -1.
<scales pt_clust_5="13000.00000" pt_clust_6="13000.00000" pt_clust_7="13000.00000" pt_clust_8="13000.00000" pt_clust_9="48.06901"></scales>
<clustering>
<clus scale="   48.069">  1  9  2 -1</clus>
<clus scale="   79.535">  5  6 -1 -1</clus>
<clus scale="   83.680">  1  5  2 -1</clus>
<clus scale="   90.964">  7  8 -1 -1</clus>
<clus scale="   48.069">  1  5  2 -1</clus>
</clustering>
</event>
<event>
 9    2  0.6175212E-005  0.1042416E+03  0.7546771E-02  0.1278455E+00
          2   -1    0    0  502    0 -0.00000000000E+00  0.00000000000E+00  0.30475152375E+03  0.30475152375E+03  0.00000000000E+00 0. -1.
         21   -1    0    0  501  502  0.00000000000E+00 -0.00000000000E+00 -0.27029525222E+03  0.27029525222E+03  0.00000000000E+00 0.  1.
         24    2    1    2    0    0  0.47114880875E+02 -0.53457764767E+00  0.27453769400E+03  0.28968883743E+03  0.79552368471E+02 0.  0.
         23    2    1    2    0    0 -0.94293566878E+01  0.26974457723E+02 -0.11057436120E+03  0.14791214955E+03  0.93993513034E+02 0.  0.
        -13    1    3    3    0    0  0.18386859404E+02 -0.84428424568E+01  0.84306772497E+01  0.21918816263E+02  0.00000000000E+00 0.  1.
         14    1    3    3    0    0  0.28728021472E+02  0.79082648091E+01  0.26610701675E+03  0.26777002116E+03  0.00000000000E+00 0. -1.
        -11    1    4    4    0    0 -0.19853249576E+02  0.78185009459E+01 -0.12161195999E+03  0.12346962901E+03  0.00000000000E+00 0.  1.
         11    1    4    4    0    0  0.10423892889E+02  0.19155956777E+02  0.11037598792E+02  0.24442520535E+02  0.00000000000E+00 0. -1.
          1    1    1    2  501    0 -0.37685524187E+02 -0.26439880075E+02 -0.12950706128E+03  0.13744578900E+03  0.00000000000E+00 0. -1.
<scales pt_clust_5="13000.00000" pt_clust_6="13000.00000" pt_clust_7="13000.00000" pt_clust_8="13000.00000" pt_clust_9="46.03549"></scales>
<clustering>
<clus scale="   46.035">  2  9  1 -1</clus>
<clus scale="   79.552">  5  6 -1 -1</clus>
<clus scale="   91.434">  1  5  2 -1</clus>
<clus scale="   93.994">  7  8 -1 -1</clus>
<clus scale="   46.035">  2  5  1 -1</clus>
</clustering>
</event>
<event>
 9    2  0.6175212E-005  0.9532213E+02  0.7546771E-02  0.1291420E+00
          2   -1    0    0  502    0 -0.00000000000E+00  0.00000000000E+00  0.11627033686E+04  0.11627033686E+04  0.00000000000E+00 0. -1.
         21   -1    0    0  501  502  0.00000000000E+00 -0.00000000000E+00 -0.39953869353E+02  0.39953869353E+02  0.00000000000E+00 0.  1.
         24    2    1    2    0    0  0.83060994760E+01  0.48405394565E+02  0.10651183971E+04  0.10692859209E+04  0.80517744399E+02 0.  0.
         23    2    1    2    0    0 -0.26912143229E+02 -0.25022092894E+02  0.45409142953E+02  0.10108602712E+03  0.82498642585E+02 0.  0.
        -11    1    3    3    0    0  0.15590313365E+02 -0.15358148049E+02  0.11915996585E+03  0.12115291182E+03  0.00000000000E+00 0.  1.
         12    1    3    3    0    0 -0.72842138888E+01  0.63763542613E+02  0.94595843129E+03  0.94813300906E+03  0.00000000000E+00 0. -1.
        -13    1    4    4    0    0 -0.64739995704E+01 -0.45291607774E+02 -0.18067662077E+01  0.45787627252E+02  0.00000000000E+00 0.  1.
         13    1    4    4    0    0 -0.20438143659E+02  0.20269514880E+02  0.47215909160E+02  0.55298399864E+02  0.00000000000E+00 0. -1.
          1    1    1    2  501    0  0.18606043753E+02 -0.23383301671E+02  0.12221959138E+02  0.32285289937E+02  0.00000000000E+00 0. -1.
<scales pt_clust_5="13000.00000" pt_clust_6="13000.00000" pt_clust_7="13000.00000" pt_clust_8="13000.00000" pt_clust_9="29.88250"></scales>
<clustering>
<clus scale="   29.882">  2  9  1 -1</clus>
<clus scale="   80.518">  5  6 -1 -1</clus>
<clus scale="   82.499">  7  8 -1 -1</clus>
<clus scale="   93.613">  1  5  2 -1</clus>
<clus scale="   29.882">  2  5  1 -1</clus>
</clustering>
</event>
<event>
 9    2  0.6175212E-005  0.9933790E+02  0.7546771E-02  0.1296955E+00
         21   -1    0    0  501  502  0.00000000000E+00  0.00000000000E+00  0.30859119755E+02  0.30859119755E+02  0.00000000000E+00 0.  1.
          2   -1    0    0  502    0 -0.00000000000E+00 -0.00000000000E+00 -0.31576541165E+03  0.31576541165E+03  0.00000000000E+00 0. -1.
         23    2    1    2    0    0  0.37999045368E+02  0.97524207214E+01 -0.14736306495E+03  0.17691073165E+03  0.89679969357E+02 0.  0.
         24    2    1    2    0    0 -0.46898309325E+02  0.97706248501E+01 -0.10245682673E+03  0.12858714553E+03  0.61174636285E+02 0.  0.
        -13    1    4    4    0    0 -0.39761554897E+02  0.12386008368E+02 -0.20752835865E+02  0.46530362642E+02  0.00000000000E+00 0.  1.
         14    1    4    4    0    0 -0.71367544274E+01 -0.26153835184E+01 -0.81703990864E+02  0.82056782887E+02  0.00000000000E+00 0. -1.
        -13    1    3    3    0    0 -0.16403785072E+02 -0.27182697728E+02 -0.55488072570E+02  0.63928940379E+02  0.00000000000E+00 0. -1.
         13    1    3    3    0    0  0.54402830440E+02  0.36935118449E+02 -0.91874992376E+02  0.11298179127E+03  0.00000000000E+00 0.  1.
          1    1    1    2  501    0  0.88992639570E+01 -0.19523045571E+02 -0.35086400219E+02  0.41126654224E+02  0.00000000000E+00 0. -1.
<scales pt_clust_5="13000.00000" pt_clust_6="13000.00000" pt_clust_7="13000.00000" pt_clust_8="13000.00000" pt_clust_9="21.45569"></scales>
<clustering>
<clus scale="   21.456">  1  9  2 -1</clus>
<clus scale="   61.175">  5  6 -1 -1</clus>
<clus scale="   74.618">  1  5  2 -1</clus>
<clus scale="   89.680">  7  8 -1 -1</clus>
<clus scale="   21.456">  1  5  2 -1</clus>
</clustering>
</event>
<event>
 9    2  0.6175212E-005  0.2861443E+03  0.7546771E-02  0.1092778E+00
          2   -1    0    0  502    0 -0.00000000000E+00  0.00000000000E+00  0.19362387431E+04  0.19362387431E+04  0.00000000000E+00 0. -1.
         21   -1    0    0  501  502  0.00000000000E+00 -0.00000000000E+00 -0.10285444266E+03  0.10285444266E+03  0.00000000000E+00 0. -1.
         23    2    1    2    0    0 -0.84366423045E+02  0.27565528951E+03  0.10256446994E+04  0.10692592278E+04  0.90910477307E+02 0.  0.
         24    2    1    2    0    0  0.12383060639E+03 -0.18111425461E+03  0.99407693257E+02  0.25413184071E+03  0.81022902197E+02 0.  0.
        -11    1    4    4    0    0  0.36533436604E+01 -0.51792912921E+02  0.46849441104E+02  0.69933703467E+02  0.00000000000E+00 0.  1.
         12    1    4    4    0    0  0.12017726273E+03 -0.12932134169E+03  0.52558252152E+02  0.18419813724E+03  0.00000000000E+00 0. -1.
        -11    1    3    3    0    0 -0.10006192816E+03  0.19255136067E+03  0.76965903344E+03  0.79966458200E+03  0.00000000000E+00 0. -1.
         11    1    3    3    0    0  0.15695505115E+02  0.83103928844E+02  0.25598566595E+03  0.26959464579E+03  0.00000000000E+00 0.  1.
          1    1    1    2  501    0 -0.39464183345E+02 -0.94541034899E+02  0.70833190784E+03  0.71570211730E+03  0.00000000000E+00 0. -1.
<scales pt_clust_5="13000.00000" pt_clust_6="13000.00000" pt_clust_7="13000.00000" pt_clust_8="13000.00000" pt_clust_9="102.44725"></scales>
<clustering>
<clus scale="   81.023">  5  6 -1 -1</clus>
<clus scale="   90.910">  7  8 -1 -1</clus>
<clus scale="  102.447">  2  9  1 -1</clus>
<clus scale="  283.158">  2  5  1 -1</clus>
<clus scale="  102.447">  2  5  1 -1</clus>
</clustering>
</event>
<event>
 9    2  0.6175212E-005  0.2221687E+03  0.7546771E-02  0.1132276E+00
          2   -1    0    0  502    0 -0.00000000000E+00  0.00000000000E+00  0.10222073504E+03  0.10222073504E+03  0.00000000000E+00 0. -1.
         21   -1    0    0  501  502  0.00000000000E+00 -0.00000000000E+00 -0.31127800962E+03  0.31127800962E+03  0.00000000000E+00 0. -1.
         24    2    1    2    0    0 -0.19189833855E+02  0.10411954366E+03 -0.69778343051E+02  0.14367685519E+03  0.67563987921E+02 0.  0.
         23    2    1    2    0    0  0.16523454623E+02  0.29800728722E+02 -0.48535245347E+02  0.10803139062E+03  0.90299520118E+02 0.  0.
        -13    1    3    3    0    0 -0.43803604406E+02  0.52922286013E+02 -0.40885470447E+02  0.79944642156E+02  0.00000000000E+00 0.  1.
         14    1    3    3    0    0  0.24613770550E+02  0.51197257647E+02 -0.28892872604E+02  0.63732213037E+02  0.00000000000E+00 0. -1.
        -11    1    4    4    0    0  0.17192759321E+02 -0.28369830935E+02 -0.35160269716E+02  0.48339247479E+02  0.00000000000E+00 0.  1.
         11    1    4    4    0    0 -0.66930469779E+00  0.58170559658E+02 -0.13374975632E+02  0.59692143141E+02  0.00000000000E+00 0. -1.
          1    1    1    2  501    0  0.26663792319E+01 -0.13392027238E+03 -0.90743686181E+02  0.16179049884E+03  0.00000000000E+00 0. -1.
<scales pt_clust_5="13000.00000" pt_clust_6="13000.00000" pt_clust_7="13000.00000" pt_clust_8="13000.00000" pt_clust_9="133.94681"></scales>
<clustering>
<clus scale="   67.564">  5  6 -1 -1</clus>
<clus scale="   90.300">  7  8 -1 -1</clus>
<clus scale="   93.372">  5  7 -1 -1</clus>
<clus scale="  133.947">  2  9  1 -1</clus>
<clus scale="  133.947">  2  5  1 -1</clus>
</clustering>
</event>
<event>
 9    2  0.6175212E-005  0.3156061E+03  0.7546771E-02  0.1089468E+00
         -1   -1    0    0    0  501 -0.00000000000E+00  0.00000000000E+00  0.15584515769E+04  0.15584515769E+04  0.00000000000E+00 0.  1.
         21   -1    0    0  501  502  0.00000000000E+00 -0.00000000000E+00 -0.16225545894E+03  0.16225545894E+03  0.00000000000E+00 0.  1.
         23    2    1    2    0    0  0.19689443609E+03  0.75594123247E+02  0.70684967272E+03  0.74341669532E+03  0.92466386469E+02 0.  0.
         24    2    1    2    0    0 -0.51008741083E+02  0.27733185485E+03  0.20098369829E+03  0.35734070172E+03  0.88221770290E+02 0.  0.
        -11    1    4    4    0    0 -0.64374433185E+02  0.12392274711E+03  0.75831594398E+02  0.15890671983E+03  0.00000000000E+00 0.  1.
         12    1    4    4    0    0  0.13365692102E+02  0.15340910774E+03  0.12515210389E+03  0.19843398189E+03  0.00000000000E+00 0. -1.
        -11    1    3    3    0    0  0.69150215096E+01  0.26518652892E+02  0.41458386202E+02  0.49697628315E+02  0.00000000000E+00 0. -1.
         11    1    3    3    0    0  0.18997941458E+03  0.49075470355E+02  0.66539128652E+03  0.69371906701E+03  0.00000000000E+00 0.  1.
         -2    1    1    2    0  502 -0.14588569500E+03 -0.35292597809E+03  0.48836274691E+03  0.61994963875E+03  0.00000000000E+00 0.  1.
<scales pt_clust_5="13000.00000" pt_clust_6="13000.00000" pt_clust_7="13000.00000" pt_clust_8="13000.00000" pt_clust_9="303.02515"></scales>
<clustering>
<clus scale="   88.222">  5  6 -1 -1</clus>
<clus scale="   92.466">  7  8 -1 -1</clus>
<clus scale="  230.287">  1  7  2 -1</clus>
<clus scale="  303.025">  2  9  1 -1</clus>
<clus scale="  303.025">  2  5  1 -1</clus>
</clustering>
</event>
<event>
 9    2  0.6175212E-005  0.1210919E+03  0.7546771E-02  0.1244934E+00
          2   -1    0    0  502    0 -0.00000000000E+00  0.00000000000E+00  0.55717385669E+03  0.55717385669E+03  0.00000000000E+00 0. -1.
         21   -1    0    0  501  502  0.00000000000E+00 -0.00000000000E+00 -0.41752262263E+02  0.41752262263E+02  0.00000000000E+00 0. -1.
         23    2    1    2    0    0  0.14670984633E+02 -0.82501790271E+02  0.33698344184E+03  0.35934103214E+03  0.92446493278E+02 0.  0.
         24    2    1    2    0    0 -0.46936566538E+02  0.59109043418E+02  0.16264597116E+03  0.19671690076E+03  0.80912958284E+02 0.  0.
        -13    1    4    4    0    0 -0.48965396612E+02  0.51066779543E+02  0.17093066511E+03  0.18499383318E+03  0.00000000000E+00 0.  1.
         14    1    4    4    0    0  0.20288300741E+01  0.80422638749E+01 -0.82846939510E+01  0.11723067583E+02  0.00000000000E+00 0. -1.
        -11    1    3    3    0    0  0.37535680150E+01 -0.29108178991E+02  0.15345898910E+02  0.33119057510E+02  0.00000000000E+00 0.  1.
         11    1    3    3    0    0  0.10917416618E+02 -0.53393611280E+02  0.32163754293E+03  0.32622197463E+03  0.00000000000E+00 0. -1.
          1    1    1    2  501    0  0.32265581905E+02  0.23392746853E+02  0.15792181430E+02  0.42868186051E+02  0.00000000000E+00 0. -1.
<scales pt_clust_5="13000.00000" pt_clust_6="13000.00000" pt_clust_7="13000.00000" pt_clust_8="13000.00000" pt_clust_9="39.85334"></scales>
<clustering>
<clus scale="   39.853">  2  9  1 -1</clus>
<clus scale="   80.913">  5  6 -1 -1</clus>
<clus scale="   92.446">  7  8 -1 -1</clus>
<clus scale="  112.534">  2  5  1 -1</clus>
<clus scale="   39.853">  2  5  1 -1</clus>
</clustering>
</event>
<event>
 9    2  0.6175212E-005  0.1336030E+03  0.7546771E-02  0.1224099E+00
         -1   -1    0    0    0  501 -0.00000000000E+00  0.00000000000E+00  0.34975610536E+03  0.34975610536E+03  0.00000000000E+00 0.  1.
         21   -1    0    0  501  502  0.00000000000E+00 -0.00000000000E+00 -0.12303711650E+03  0.12303711650E+03  0.00000000000E+00 0.  1.
         23    2    1    2    0    0 -0.97330019562E+02  0.63245334917E+02  0.23812736760E+03  0.27387572198E+03  0.69499372600E+02 0.  0.
         24    2    1    2    0    0  0.87847678950E+02 -0.26964519186E+02  0.46779423925E+02  0.12969299011E+03  0.78661662771E+02 0.  0.
        -11    1    4    4    0    0  0.76005088724E+02  0.12978855169E+02  0.41877422656E+02  0.87743619265E+02  0.00000000000E+00 0.  1.
         12    1    4    4    0    0  0.11842590226E+02 -0.39943374355E+02  0.49020012694E+01  0.41949370848E+02  0.00000000000E+00 0. -1.
        -11    1    3    3    0    0 -0.29967721099E+02  0.24230612905E+01  0.12642375801E+03  0.12994961379E+03  0.00000000000E+00 0. -1.
         11    1    3    3    0    0 -0.67362298463E+02  0.60822273626E+02  0.11170360959E+03  0.14392610819E+03  0.00000000000E+00 0.  1.
         -2    1    1    2    0  502  0.94823406121E+01 -0.36280815731E+02 -0.58187802664E+02  0.69224509767E+02  0.00000000000E+00 0.  1.
<scales pt_clust_5="13000.00000" pt_clust_6="13000.00000" pt_clust_7="13000.00000" pt_clust_8="13000.00000" pt_clust_9="37.49950"></scales>
<clustering>
<clus scale="   37.499">  2  9  1 -1</clus>
<clus scale="   69.499">  7  8 -1 -1</clus>
<clus scale="   78.662">  5  6 -1 -1</clus>
<clus scale="  128.422">  1  7  2 -1</clus>
<clus scale="   37.499">  2  5  1 -1</clus>
</clustering>
</event>
<event>
 9    2  0.6175212E-005  0.1130683E+03  0.7546771E-02  0.1259008E+00
         21   -1    0    0  501  502  0.00000000000E+00  0.00000000000E+00  0.50272604576E+02  0.50272604576E+02  0.00000000000E+00 0. -1.
          2   -1    0    0  502    0 -0.00000000000E+00 -0.00000000000E+00 -0.17931045975E+04  0.17931045975E+04  0.00000000000E+00 0. -1.
         24    2    1    2    0    0  0.65790994777E+02  0.75462631567E-01 -0.13746003919E+04  0.13785229471E+04  0.80441391986E+02 0.  0.
         23    2    1    2    0    0 -0.66695107700E+02  0.61046888216E+02 -0.38126686453E+03  0.40235083676E+03  0.91360899180E+02 0.  0.
        -11    1    3    3    0    0  0.20665824321E+02  0.24408993434E+02 -0.17974511264E+03  0.18256829071E+03  0.00000000000E+00 0.  1.
         12    1    3    3    0    0  0.45125170456E+02 -0.24333530802E+02 -0.11948552793E+04  0.11959546564E+04  0.00000000000E+00 0. -1.
        -11    1    4    4    0    0  0.89121125658E+01  0.38592481912E+02 -0.62675670372E+02  0.74142060041E+02  0.00000000000E+00 0. -1.
         11    1    4    4    0    0 -0.75607220266E+02  0.22454406303E+02 -0.31859119416E+03  0.32820877671E+03  0.00000000000E+00 0.  1.
          1    1    1    2  501    0  0.90411292251E+00 -0.61122350847E+02  0.13035263525E+02  0.62503418214E+02  0.00000000000E+00 0. -1.
<scales pt_clust_5="13000.00000" pt_clust_6="13000.00000" pt_clust_7="13000.00000" pt_clust_8="13000.00000" pt_clust_9="61.12904"></scales>
<clustering>
<clus scale="   61.129">  1  9  2 -1</clus>
<clus scale="   80.441">  5  6 -1 -1</clus>
<clus scale="   91.361">  7  8 -1 -1</clus>
<clus scale="  104.443">  2  5  1 -1</clus>
<clus scale="   61.129">  1  5  2 -1</clus>
</clustering>
</event>
<event>
 9    2  0.6175212E-005  0.9900596E+02  0.7546771E-02  0.1289712E+00
         21   -1    0    0  501  502  0.00000000000E+00  0.00000000000E+00  0.32594340126E+03  0.32594340126E+03  0.00000000000E+00 0. -1.
         -1   -1    0    0    0  501 -0.00000000000E+00 -0.00000000000E+00 -0.69582193317E+02  0.69582193317E+02  0.00000000000E+00 0.  1.
         24    2    1    2    0    0  0.20911888802E+01 -0.20812129783E+02  0.20916374657E+02  0.86203188684E+02  0.80968989086E+02 0.  0.
         23    2    1    2    0    0  0.43339757451E+02  0.63379191320E+02  0.20863274996E+03  0.24153735279E+03  0.94432049481E+02 0.  0.
        -11    1    3    3    0    0  0.11541512632E+02  0.25062549045E+02  0.27439053447E+02  0.38913230816E+02  0.00000000000E+00 0.  1.
         12    1    3    3    0    0 -0.94503237517E+01 -0.45874678828E+02 -0.65226787901E+01  0.47289957868E+02  0.00000000000E+00 0. -1.
        -11    1    4    4    0    0 -0.18717132701E+02  0.40433260015E+02  0.38116926808E+02  0.58635140328E+02  0.00000000000E+00 0.  1.
         11    1    4    4    0    0  0.62056890152E+02  0.22945931304E+02  0.17051582315E+03  0.18290221246E+03  0.00000000000E+00 0. -1.
         -2    1    1    2    0  502 -0.45430946332E+02 -0.42567061537E+02  0.26812083335E+02  0.67785053111E+02  0.00000000000E+00 0.  1.
<scales pt_clust_5="13000.00000" pt_clust_6="13000.00000" pt_clust_7="13000.00000" pt_clust_8="13000.00000" pt_clust_9="62.25696"></scales>
<clustering>
<clus scale="   62.257">  1  9  2 -1</clus>
<clus scale="   80.969">  5  6 -1 -1</clus>
<clus scale="   86.260">  2  5  1 -1</clus>
<clus scale="   94.432">  7  8 -1 -1</clus>
<clus scale="   62.257">  1  5  2 -1</clus>
</clustering>
</event>
<event>
 9    2  0.7554570E-005  0.1278909E+03  0.7546771E-02  0.1235291E+00
         21   -1    0    0  501  502  0.00000000000E+00  0.00000000000E+00  0.27845210224E+03  0.27845210224E+03  0.00000000000E+00 0.  1.
         -1   -1    0    0    0  501 -0.00000000000E+00 -0.00000000000E+00 -0.65845253308E+03  0.65845253308E+03  0.00000000000E+00 0.  1.
         23    2    1    2    0    0  0.19381044000E+02  0.89445911979E+02 -0.56783326433E+03  0.58342624631E+03  0.97853833667E+02 0.  0.
         24    2    1    2    0    0 -0.68327118209E+01 -0.48756603736E+02 -0.52720367596E+02  0.10918568956E+03  0.81964536768E+02 0.  0.
        -13    1    4    4    0    0 -0.35608589426E+02 -0.35850409999E+02 -0.58308993711E+02  0.77156738433E+02  0.00000000000E+00 0.  1.
         14    1    4    4    0    0  0.28775877605E+02 -0.12906193737E+02  0.55886261155E+01  0.32028951132E+02  0.00000000000E+00 0. -1.
        -13    1    3    3    0    0  0.43199799540E+02  0.23456904110E+01 -0.16290618524E+03  0.16855310776E+03  0.00000000000E+00 0.  1.
         13    1    3    3    0    0 -0.23818755540E+02  0.87100221568E+02 -0.40492707909E+03  0.41487313855E+03  0.00000000000E+00 0. -1.
         -2    1    1    2    0  502 -0.12548332179E+02 -0.40689308243E+02  0.24055320109E+03  0.24429269944E+03  0.00000000000E+00 0.  1.
<scales pt_clust_5="13000.00000" pt_clust_6="13000.00000" pt_clust_7="13000.00000" pt_clust_8="13000.00000" pt_clust_9="42.58028"></scales>
<clustering>
<clus scale="   42.580">  1  9  2 -1</clus>
<clus scale="   81.965">  5  6 -1 -1</clus>
<clus scale="   97.854">  7  8 -1 -1</clus>
<clus scale="  116.185">  1  5  2 -1</clus>
<clus scale="   42.580">  1  5  2 -1</clus>
</clustering>
</event>
<event>
 9    2  0.6175212E-005  0.9114799E+02  0.7546771E-02  0.1305995E+00
         -1   -1    0    0    0  501 -0.00000000000E+00  0.00000000000E+00  0.26792772139E+03  0.26792772139E+03  0.00000000000E+00 0.  1.
         21   -1    0    0  501  502  0.00000000000E+00 -0.00000000000E+00 -0.36323578129E+02  0.36323578129E+02  0.00000000000E+00 0.  1.
         23    2    1    2    0    0 -0.38352385296E+01  0.60633679829E+01  0.10463804203E+03  0.13804659221E+03  0.89756717262E+02 0.  0.
         24    2    1    2    0    0 -0.81586520008E+01 -0.25013242513E+02  0.94344955401E+02  0.12661821580E+03  0.80243230619E+02 0.  0.
        -13    1    4    4    0    0  0.27804943703E+02 -0.14212322018E+02  0.76642253962E+01  0.32153465480E+02  0.00000000000E+00 0.  1.
         14    1    4    4    0    0 -0.35963595704E+02 -0.10800920495E+02  0.86680730005E+02  0.94464750323E+02  0.00000000000E+00 0. -1.
        -13    1    3    3    0    0  0.58854301390E+01  0.47202472378E+02  0.60014480936E+02  0.76579694492E+02  0.00000000000E+00 0.  1.
         13    1    3    3    0    0 -0.97206686686E+01 -0.41139104395E+02  0.44623561096E+02  0.61466897714E+02  0.00000000000E+00 0. -1.
         -2    1    1    2    0  502  0.11993890530E+02  0.18949874531E+02  0.32621145827E+02  0.39586491508E+02  0.00000000000E+00 0.  1.
<scales pt_clust_5="13000.00000" pt_clust_6="13000.00000" pt_clust_7="13000.00000" pt_clust_8="13000.00000" pt_clust_9="22.42658"></scales>
<clustering>
<clus scale="   22.427">  2  9  1 -1</clus>
<clus scale="   80.243">  5  6 -1 -1</clus>
<clus scale="   81.796">  2  5  1 -1</clus>
<clus scale="   89.757">  7  8 -1 -1</clus>
<clus scale="   22.427">  2  5  1 -1</clus>
</clustering>
</event>
<event>
 9    2  0.6175212E-005  0.9836127E+02  0.7546771E-02  0.1289377E+00
         21   -1    0    0  501  502  0.00000000000E+00  0.00000000000E+00  0.12185342551E+03  0.12185342551E+03  0.00000000000E+00 0. -1.
          2   -1    0    0  502    0 -0.00000000000E+00 -0.00000000000E+00 -0.93866771297E+02  0.93866771297E+02  0.00000000000E+00 0. -1.
         23    2    1    2    0    0  0.29826769839E+02 -0.13737610329E+02 -0.82501184055E+00  0.97004160384E+02  0.91273042848E+02 0.  0.
         24    2    1    2    0    0 -0.28311208757E+02  0.33780846517E+02  0.34042020880E+02  0.97946230114E+02  0.80572542936E+02 0.  0.
        -13    1    4    4    0    0  0.26189787335E+02  0.99007911044E+01 -0.25133596431E+01  0.28111342939E+02  0.00000000000E+00 0.  1.
         14    1    4    4    0    0 -0.54500996092E+02  0.23880055412E+02  0.36555380523E+02  0.69834887175E+02  0.00000000000E+00 0. -1.
        -13    1    3    3    0    0  0.12430691388E+02 -0.50662142853E+02  0.13262235537E+02  0.53824359711E+02  0.00000000000E+00 0.  1.
         13    1    3    3    0    0  0.17396078451E+02  0.36924532524E+02 -0.14087247377E+02  0.43179800674E+02  0.00000000000E+00 0. -1.
          1    1    1    2  501    0 -0.15155610823E+01 -0.20043236188E+02 -0.52303548309E+01  0.20769806305E+02  0.00000000000E+00 0. -1.
<scales pt_clust_5="13000.00000" pt_clust_6="13000.00000" pt_clust_7="13000.00000" pt_clust_8="13000.00000" pt_clust_9="20.10046"></scales>
<clustering>
<clus scale="   20.100">  1  9  2 -1</clus>
<clus scale="   80.573">  5  6 -1 -1</clus>
<clus scale="   88.522">  1  5  2 -1</clus>
<clus scale="   91.273">  7  8 -1 -1</clus>
<clus scale="   20.100">  1  5  2 -1</clus>
</clustering>
</event>
<event>
 9    2  0.6175212E-005  0.1466313E+03  0.7546771E-02  0.1206447E+00
          2   -1    0    0  502    0 -0.00000000000E+00  0.00000000000E+00  0.13635349005E+03  0.13635349005E+03  0.00000000000E+00 0. -1.
         21   -1    0    0  501  502  0.00000000000E+00 -0.00000000000E+00 -0.25611696702E+03  0.25611696702E+03  0.00000000000E+00 0. -1.
         23    2    1    2    0    0 -0.95139584127E+02  0.54366927168E+02  0.12331773566E+02  0.14251363412E+03  0.90281559758E+02 0.  0.
         24    2    1    2    0    0  0.12292557390E+03 -0.33219178366E+02 -0.47196998203E+02  0.15815812059E+03  0.81069253977E+02 0.  0.
        -11    1    4    4    0    0  0.39276446978E+02 -0.95135395841E+00  0.21886386085E+02  0.44972861344E+02  0.00000000000E+00 0.  1.
         12    1    4    4    0    0  0.83649126918E+02 -0.32267824408E+02 -0.69083384288E+02  0.11318525925E+03  0.00000000000E+00 0. -1.
        -13    1    3    3    0    0 -0.53346825805E+02  0.20479332434E+02 -0.38171558383E+02  0.68719391367E+02  0.00000000000E+00 0.  1.
         13    1    3    3    0    0 -0.41792758321E+02  0.33887594734E+02  0.50503331950E+02  0.73794242750E+02  0.00000000000E+00 0. -1.
          1    1    1    2  501    0 -0.27785989770E+02 -0.21147748802E+02 -0.84898252331E+02  0.91798702364E+02  0.00000000000E+00 0. -1.
<scales pt_clust_5="13000.00000" pt_clust_6="13000.00000" pt_clust_7="13000.00000" pt_clust_8="13000.00000" pt_clust_9="34.91831"></scales>
<clustering>
<clus scale="   34.918">  2  9  1 -1</clus>
<clus scale="   81.069">  5  6 -1 -1</clus>
<clus scale="   90.282">  7  8 -1 -1</clus>
<clus scale="  141.146">  2  5  1 -1</clus>
<clus scale="   34.918">  2  5  1 -1</clus>
</clustering>
</event>
<event>
 9    2  0.6175212E-005  0.1350288E+03  0.7546771E-02  0.1221984E+00
         21   -1    0    0  501  502  0.00000000000E+00  0.00000000000E+00  0.11111735913E+03  0.11111735913E+03  0.00000000000E+00 0. -1.
          2   -1    0    0  502    0 -0.00000000000E+00 -0.00000000000E+00 -0.32912288180E+03  0.32912288180E+03  0.00000000000E+00 0. -1.
         23    2    1    2    0    0 -0.12281953035E+02 -0.85586016921E+02 -0.70854743369E+02  0.14359763794E+03  0.90133646887E+02 0.  0.
         24    2    1    2    0    0  0.87832238136E+02  0.10346749233E+03 -0.39002658102E+02  0.16351255807E+03  0.82432549903E+02 0.  0.
        -11    1    4    4    0    0  0.64025881893E+02  0.23482299025E+02 -0.41845889830E+02  0.80011314295E+02  0.00000000000E+00 0.  1.
         12    1    4    4    0    0  0.23806356243E+02  0.79985193308E+02  0.28432317278E+01  0.83501243779E+02  0.00000000000E+00 0. -1.
        -11    1    3    3    0    0  0.25633668767E+02 -0.19756290403E+02  0.87860467633E+01  0.33534916172E+02  0.00000000000E+00 0. -1.
         11    1    3    3    0    0 -0.37915621801E+02 -0.65829726517E+02 -0.79640790133E+02  0.11006272177E+03  0.00000000000E+00 0.  1.
          1    1    1    2  501    0 -0.75550285101E+02 -0.17881475412E+02 -0.10814812119E+03  0.13313004491E+03  0.00000000000E+00 0. -1.
<scales pt_clust_5="13000.00000" pt_clust_6="13000.00000" pt_clust_7="13000.00000" pt_clust_8="13000.00000" pt_clust_9="77.63761"></scales>
<clustering>
<clus scale="   77.638">  1  9  2 -1</clus>
<clus scale="   82.433">  5  6 -1 -1</clus>
<clus scale="   90.134">  7  8 -1 -1</clus>
<clus scale="  130.015">  1  5  2 -1</clus>
<clus scale="   77.638">  1  5  2 -1</clus>
</clustering>
</event>
<event>
 9    2  0.6175212E-005  0.1443992E+03  0.7546771E-02  0.1222714E+00
          4   -1    0    0  502    0 -0.00000000000E+00  0.00000000000E+00  0.16375016805E+03  0.16375016805E+03  0.00000000000E+00 0. -1.
         21   -1    0    0  501  502  0.00000000000E+00 -0.00000000000E+00 -0.24217866800E+03  0.24217866800E+03  0.00000000000E+00 0.  1.
         23    2    1    2    0    0  0.37946917851E+02 -0.45911782157E+02 -0.84591461378E+02  0.13460307376E+03  0.86106978880E+02 0.  0.
         24    2    1    2    0    0  0.97602115785E+02  0.47817325417E+02  0.12843206193E+02  0.13559884055E+03  0.80058903292E+02 0.  0.
        -11    1    4    4    0    0  0.23559459806E+02  0.36361963307E+02 -0.26687013104E+02  0.50886512852E+02  0.00000000000E+00 0.  1.
         12    1    4    4    0    0  0.74042655979E+02  0.11455362110E+02  0.39530219297E+02  0.84712327693E+02  0.00000000000E+00 0. -1.
        -13    1    3    3    0    0  0.46161417321E+02  0.65539622954E+01 -0.19348899392E+02  0.50479805651E+02  0.00000000000E+00 0. -1.
         13    1    3    3    0    0 -0.82144994702E+01 -0.52465744452E+02 -0.65242561986E+02  0.84123268107E+02  0.00000000000E+00 0.  1.
          3    1    1    2  501    0 -0.13554903364E+03 -0.19055432604E+01 -0.66802447686E+01  0.13572692174E+03  0.00000000000E+00 0. -1.
<scales pt_clust_5="13000.00000" pt_clust_6="13000.00000" pt_clust_7="13000.00000" pt_clust_8="13000.00000" pt_clust_9="120.17371"></scales>
<clustering>
<clus scale="   80.059">  5  6 -1 -1</clus>
<clus scale="   86.107">  7  8 -1 -1</clus>
<clus scale="  104.701">  1  7  2 -1</clus>
<clus scale="  120.174">  2  9  1 -1</clus>
<clus scale="  120.174">  2  5  1 -1</clus>
</clustering>
</event>
<event>
 9    2  0.6175212E-005  0.1354772E+03  0.7546771E-02  0.1221151E+00
          2   -1    0    0  502    0 -0.00000000000E+00  0.00000000000E+00  0.37518220684E+03  0.37518220684E+03  0.00000000000E+00 0. -1.
         21   -1    0    0  501  502  0.00000000000E+00 -0.00000000000E+00 -0.13926085775E+03  0.13926085775E+03  0.00000000000E+00 0.  1.
         24    2    1    2    0    0 -0.86792671610E+02 -0.67220467336E+02  0.29074644891E+03  0.32291283703E+03  0.87679209015E+02 0.  0.
         23    2    1    2    0    0  0.56867798636E+02  0.11027836111E+02 -0.50872472892E+01  0.11074060075E+03  0.94244580102E+02 0.  0.
        -13    1    3    3    0    0 -0.29497774418E+01 -0.27334227315E+02  0.16121457621E+03  0.16354204582E+03  0.00000000000E+00 0.  1.
         14    1    3    3    0    0 -0.83842894168E+02 -0.39886240021E+02  0.12953187270E+03  0.15937079121E+03  0.00000000000E+00 0. -1.
        -11    1    4    4    0    0 -0.16431826998E+01 -0.21166234441E+02  0.28857694677E+02  0.35825634284E+02  0.00000000000E+00 0. -1.
         11    1    4    4    0    0  0.58510981336E+02  0.32194070551E+02 -0.33944941966E+02  0.74914966466E+02  0.00000000000E+00 0.  1.
          1    1    1    2  501    0  0.29924872974E+02  0.56192631225E+02 -0.49737852526E+02  0.80789626812E+02  0.00000000000E+00 0. -1.
<scales pt_clust_5="13000.00000" pt_clust_6="13000.00000" pt_clust_7="13000.00000" pt_clust_8="13000.00000" pt_clust_9="63.66404"></scales>
<clustering>
<clus scale="   63.664">  2  9  1 -1</clus>
<clus scale="   87.679">  5  6 -1 -1</clus>
<clus scale="   94.245">  7  8 -1 -1</clus>
<clus scale="  130.995">  1  5  2 -1</clus>
<clus scale="   63.664">  2  5  1 -1</clus>
</clustering>
</event>
<event>
 9    2  0.6175212E-005  0.1358657E+03  0.7546771E-02  0.1235944E+00
         21   -1    0    0  501  502  0.00000000000E+00  0.00000000000E+00  0.22413755055E+03  0.22413755055E+03  0.00000000000E+00 0.  1.
         -3   -1    0    0    0  501 -0.00000000000E+00 -0.00000000000E+00 -0.16631074473E+03  0.16631074473E+03  0.00000000000E+00 0.  1.
         23    2    1    2    0    0  0.22289710743E+01  0.27313721060E+02  0.71641780243E+02  0.11947882308E+03  0.91605877643E+02 0.  0.
         24    2    1    2    0    0  0.65308082042E+02  0.79831572763E+02  0.36712540187E+02  0.13460819739E+03  0.78315583433E+02 0.  0.
        -13    1    4    4    0    0  0.73177044871E+02  0.30054648183E+02  0.22734720704E+02  0.82310566144E+02  0.00000000000E+00 0.  1.
         14    1    4    4    0    0 -0.78689628294E+01  0.49776924580E+02  0.13977819482E+02  0.52297631248E+02  0.00000000000E+00 0. -1.
        -11    1    3    3    0    0  0.23654131727E+02  0.55143701079E+02  0.39247509557E+02  0.71698763748E+02  0.00000000000E+00 0.  1.
         11    1    3    3    0    0 -0.21425160653E+02 -0.27829980019E+02  0.32394270686E+02  0.47780059336E+02  0.00000000000E+00 0. -1.
         -4    1    1    2    0  502 -0.67537053116E+02 -0.10714529382E+03 -0.50527514614E+02  0.13636127480E+03  0.00000000000E+00 0.  1.
<scales pt_clust_5="13000.00000" pt_clust_6="13000.00000" pt_clust_7="13000.00000" pt_clust_8="13000.00000" pt_clust_9="111.02328"></scales>
<clustering>
<clus scale="   78.316">  5  6 -1 -1</clus>
<clus scale="   91.606">  7  8 -1 -1</clus>
<clus scale="   95.617">  2  7  1 -1</clus>
<clus scale="  111.023">  1  9  2 -1</clus>
<clus scale="  111.023">  1  5  2 -1</clus>
</clustering>
</event>
<event>
 9    2  0.6175212E-005  0.2461409E+03  0.7546771E-02  0.1116630E+00
          2   -1    0    0  502    0 -0.00000000000E+00  0.00000000000E+00  0.11859105381E+04  0.11859105381E+04  0.00000000000E+00 0. -1.
         21   -1    0    0  501  502  0.00000000000E+00 -0.00000000000E+00 -0.12413189985E+03  0.12413189985E+03  0.00000000000E+00 0. -1.
         24    2    1    2    0    0  0.22993293093E+03  0.86920372395E+01  0.92885398713E+03  0.96029050438E+03  0.80270911030E+02 0.  0.
         23    2    1    2    0    0 -0.20771066199E+03 -0.82399461312E+02  0.12286474679E+03  0.27211292740E+03  0.94954246479E+02 0.  0.
        -13    1    3    3    0    0  0.19773572693E+02 -0.19264771094E+02  0.61684795707E+02  0.67580615592E+02  0.00000000000E+00 0.  1.
         14    1    3    3    0    0  0.21015935824E+03  0.27956808334E+02  0.86716919143E+03  0.89270988879E+03  0.00000000000E+00 0. -1.
        -11    1    4    4    0    0 -0.12981772239E+03 -0.64120292808E+02  0.27066030885E+02  0.14729773597E+03  0.00000000000E+00 0.  1.
         11    1    4    4    0    0 -0.77892939608E+02 -0.18279168504E+02  0.95798715903E+02  0.12481519143E+03  0.00000000000E+00 0. -1.
          1    1    1    2  501    0 -0.22222268939E+02  0.73707424073E+02  0.10059904300E+02  0.77639006142E+02  0.00000000000E+00 0. -1.
<scales pt_clust_5="13000.00000" pt_clust_6="13000.00000" pt_clust_7="13000.00000" pt_clust_8="13000.00000" pt_clust_9="76.98450"></scales>
<clustering>
<clus scale="   76.985">  2  9  1 -1</clus>
<clus scale="   80.271">  5  6 -1 -1</clus>
<clus scale="   94.954">  7  8 -1 -1</clus>
<clus scale="  240.858">  1  5  2 -1</clus>
<clus scale="   76.985">  2  5  1 -1</clus>
</clustering>
</event>
<event>
 9    2  0.6175212E-005  0.1391522E+03  0.7546771E-02  0.1216434E+00
         21   -1    0    0  501  502  0.00000000000E+00  0.00000000000E+00  0.33683483319E+03  0.33683483319E+03  0.00000000000E+00 0. -1.
          2   -1    0    0  502    0 -0.00000000000E+00 -0.00000000000E+00 -0.20417353508E+03  0.20417353508E+03  0.00000000000E+00 0. -1.
         23    2    1    2    0    0  0.90326013619E+02  0.44733760839E+02 -0.47366131183E+02  0.14340138895E+03  0.90335540484E+02 0.  0.
         24    2    1    2    0    0 -0.11741761536E+03 -0.68770552291E+02  0.26299024378E+03  0.30708322103E+03  0.81363081670E+02 0.  0.
        -13    1    4    4    0    0 -0.52122916825E+02  0.12093033695E+02  0.72824939851E+02  0.90368754482E+02  0.00000000000E+00 0.  1.
         14    1    4    4    0    0 -0.65294698536E+02 -0.80863585986E+02  0.19016530393E+03  0.21671446655E+03  0.00000000000E+00 0. -1.
        -13    1    3    3    0    0  0.77709234452E+02  0.61313321111E+02 -0.85579252988E+01  0.99354348422E+02  0.00000000000E+00 0.  1.
         13    1    3    3    0    0  0.12616779167E+02 -0.16579560273E+02 -0.38808205884E+02  0.44047040529E+02  0.00000000000E+00 0. -1.
          1    1    1    2  501    0  0.27091601742E+02  0.24036791453E+02 -0.82962814484E+02  0.90523758293E+02  0.00000000000E+00 0. -1.
<scales pt_clust_5="13000.00000" pt_clust_6="13000.00000" pt_clust_7="13000.00000" pt_clust_8="13000.00000" pt_clust_9="36.21772"></scales>
<clustering>
<clus scale="   36.218">  1  9  2 -1</clus>
<clus scale="   81.363">  5  6 -1 -1</clus>
<clus scale="   90.336">  7  8 -1 -1</clus>
<clus scale="  133.502">  1  5  2 -1</clus>
<clus scale="   36.218">  1  5  2 -1</clus>
</clustering>
</event>
<event>
 9    2  0.6175212E-005  0.1046321E+03  0.7546771E-02  0.1276518E+00
          2   -1    0    0  502    0 -0.00000000000E+00  0.00000000000E+00  0.59837491614E+03  0.59837491614E+03  0.00000000000E+00 0. -1.
         21   -1    0    0  501  502  0.00000000000E+00 -0.00000000000E+00 -0.53703299486E+02  0.53703299486E+02  0.00000000000E+00 0. -1.
         24    2    1    2    0    0  0.74477405215E+02 -0.24785103757E+01  0.38671182259E+03  0.40201966468E+03  0.80751161967E+02 0.  0.
         23    2    1    2    0    0  0.35808639229E+00  0.86021849147E+01  0.14695314032E+03  0.17417049773E+03  0.93091412160E+02 0.  0.
        -13    1    3    3    0    0  0.18573959740E+02 -0.11827578443E+02  0.16556558033E+02  0.27550012816E+02  0.00000000000E+00 0.  1.
         14    1    3    3    0    0  0.55903445475E+02  0.93490680675E+01  0.37015526456E+03  0.37446965187E+03  0.00000000000E+00 0. -1.
        -13    1    4    4    0    0 -0.35530441602E+02 -0.13653442949E+02  0.26101372981E+02  0.46153119681E+02  0.00000000000E+00 0.  1.
         13    1    4    4    0    0  0.35888527994E+02  0.22255627863E+02  0.12085176734E+03  0.12801737805E+03  0.00000000000E+00 0. -1.
          1    1    1    2  501    0 -0.74835491607E+02 -0.61236745390E+01  0.11006653742E+02  0.75888053213E+02  0.00000000000E+00 0. -1.
<scales pt_clust_5="13000.00000" pt_clust_6="13000.00000" pt_clust_7="13000.00000" pt_clust_8="13000.00000" pt_clust_9="75.08562"></scales>
<clustering>
<clus scale="   75.086">  2  9  1 -1</clus>
<clus scale="   80.751">  5  6 -1 -1</clus>
<clus scale="   93.091">  7  8 -1 -1</clus>
<clus scale="   93.822">  1  5  2 -1</clus>
<clus scale="   75.086">  2  5  1 -1</clus>
</clustering>
</event>
<event>
 9    2  0.6175212E-005  0.9734510E+02  0.7546771E-02  0.1293214E+00
         21   -1    0    0  501  502  0.00000000000E+00  0.00000000000E+00  0.26333950789E+03  0.26333950789E+03  0.00000000000E+00 0. -1.
          4   -1    0    0  502    0 -0.00000000000E+00 -0.00000000000E+00 -0.76773951731E+02  0.76773951731E+02  0.00000000000E+00 0. -1.
         24    2    1    2    0    0 -0.44893212594E+00  0.49925197767E+02  0.48232808207E+01  0.93569791705E+02  0.78989334532E+02 0.  0.
         23    2    1    2    0    0  0.18712309298E+02  0.21958510480E+01  0.56622741105E+02  0.10977725200E+03  0.92140859371E+02 0.  0.
        -13    1    3    3    0    0 -0.83582572863E+01 -0.18193241755E+02  0.13931589482E+02  0.24391467687E+02  0.00000000000E+00 0.  1.
         14    1    3    3    0    0  0.79093251603E+01  0.68118439521E+02 -0.91083086618E+01  0.69178324018E+02  0.00000000000E+00 0. -1.
        -13    1    4    4    0    0  0.37733001514E+02 -0.33769032622E+02  0.18176380744E+02  0.53800629963E+02  0.00000000000E+00 0.  1.
         13    1    4    4    0    0 -0.19020692216E+02  0.35964883670E+02  0.38446360361E+02  0.55976622038E+02  0.00000000000E+00 0. -1.
          3    1    1    2  501    0 -0.18263377172E+02 -0.52121048815E+02  0.12511953423E+03  0.13676641591E+03  0.00000000000E+00 0. -1.
<scales pt_clust_5="13000.00000" pt_clust_6="13000.00000" pt_clust_7="13000.00000" pt_clust_8="13000.00000" pt_clust_9="55.22821"></scales>
<clustering>
<clus scale="   55.228">  1  9  2 -1</clus>
<clus scale="   78.989">  5  6 -1 -1</clus>
<clus scale="   85.003">  2  5  1 -1</clus>
<clus scale="   92.141">  7  8 -1 -1</clus>
<clus scale="   55.228">  1  5  2 -1</clus>
</clustering>
</event>
<event>
 9    2  0.6175212E-005  0.1217102E+03  0.7546771E-02  0.1244904E+00
         21   -1    0    0  501  502  0.00000000000E+00  0.00000000000E+00  0.12272105034E+03  0.12272105034E+03  0.00000000000E+00 0.  1.
          2   -1    0    0  502    0 -0.00000000000E+00 -0.00000000000E+00 -0.24634142280E+03  0.24634142280E+03  0.00000000000E+00 0. -1.
         24    2    1    2    0    0  0.85351262655E+02  0.25397114977E+02 -0.73479863665E+02  0.14085714056E+03  0.80694437214E+02 0.  0.
         23    2    1    2    0    0 -0.15031989011E+02 -0.85888368075E+02 -0.18943154944E+02  0.13034182133E+03  0.95012498143E+02 0.  0.
        -13    1    3    3    0    0  0.43051815038E+02  0.43544960178E+02 -0.72391159167E+02  0.94816149787E+02  0.00000000000E+00 0.  1.
         14    1    3    3    0    0  0.42299447617E+02 -0.18147845201E+02 -0.10887044988E+01  0.46040990776E+02  0.00000000000E+00 0. -1.
        -13    1    4    4    0    0 -0.11400951039E+02 -0.10562893800E+03 -0.25438159295E+02  0.10924538515E+03  0.00000000000E+00 0.  1.
         13    1    4    4    0    0 -0.36310379722E+01  0.19740569928E+02  0.64950043512E+01  0.21096436177E+02  0.00000000000E+00 0. -1.
          1    1    1    2  501    0 -0.70319273644E+02  0.60491253099E+02 -0.31197353854E+02  0.97863511253E+02  0.00000000000E+00 0. -1.
<scales pt_clust_5="13000.00000" pt_clust_6="13000.00000" pt_clust_7="13000.00000" pt_clust_8="13000.00000" pt_clust_9="92.75771"></scales>
<clustering>
<clus scale="   80.694">  5  6 -1 -1</clus>
<clus scale="   92.758">  1  9  2 -1</clus>
<clus scale="   95.012">  7  8 -1 -1</clus>
<clus scale="  110.895">  2  5  1 -1</clus>
<clus scale="   92.758">  1  5  2 -1</clus>
</clustering>
</event>
<event>
 9    2  0.6175212E-005  0.9841117E+02  0.7546771E-02  0.1289068E+00
         21   -1    0    0  501  502  0.00000000000E+00  0.00000000000E+00  0.11161454203E+03  0.11161454203E+03  0.00000000000E+00 0. -1.
          2   -1    0    0  502    0 -0.00000000000E+00 -0.00000000000E+00 -0.20089074390E+03  0.20089074390E+03  0.00000000000E+00 0. -1.
         24    2    1    2    0    0 -0.24162994370E+01 -0.43034386618E+02 -0.13819295275E+03  0.16567780967E+03  0.80585653153E+02 0.  0.
         23    2    1    2    0    0  0.50562584352E+01  0.41409104798E+01  0.56257055799E+02  0.10715945456E+03  0.90970212077E+02 0.  0.
        -11    1    3    3    0    0  0.63408873447E+01 -0.29491248965E+02 -0.38958233784E+01  0.30415753445E+02  0.00000000000E+00 0.  1.
         12    1    3    3    0    0 -0.87571867817E+01 -0.13543137653E+02 -0.13429712937E+03  0.13526205623E+03  0.00000000000E+00 0. -1.
        -11    1    4    4    0    0  0.43756075267E+02  0.17735522516E+02  0.43513702551E+02  0.64207360882E+02  0.00000000000E+00 0.  1.
         11    1    4    4    0    0 -0.38699816832E+02 -0.13594612036E+02  0.12743353248E+02  0.42952093677E+02  0.00000000000E+00 0. -1.
          1    1    1    2  501    0 -0.26399589981E+01  0.38893476138E+02 -0.73403049190E+01  0.39668021704E+02  0.00000000000E+00 0. -1.
<scales pt_clust_5="13000.00000" pt_clust_6="13000.00000" pt_clust_7="13000.00000" pt_clust_8="13000.00000" pt_clust_9="38.98297"></scales>
<clustering>
<clus scale="   38.983">  1  9  2 -1</clus>
<clus scale="   80.586">  5  6 -1 -1</clus>
<clus scale="   88.900">  2  5  1 -1</clus>
<clus scale="   90.970">  7  8 -1 -1</clus>
<clus scale="   38.983">  1  5  2 -1</clus>
</clustering>
</event>
<event>
 9    2  0.6175212E-005  0.9427266E+02  0.7546771E-02  0.1299803E+00
          4   -1    0    0  502    0 -0.00000000000E+00  0.00000000000E+00  0.22028497214E+03  0.22028497214E+03  0.00000000000E+00 0. -1.
         21   -1    0    0  501  502  0.00000000000E+00 -0.00000000000E+00 -0.81393400669E+02  0.81393400669E+02  0.00000000000E+00 0.  1.
         24    2    1    2    0    0  0.34628008406E+02 -0.36778888394E+02  0.61612075349E+02  0.11319190472E+03  0.80402573757E+02 0.  0.
         23    2    1    2    0    0  0.21516064613E+02 -0.11655459000E+02  0.27688155329E+02  0.99282521858E+02  0.92149847748E+02 0.  0.
        -13    1    3    3    0    0  0.60696272914E+02 -0.20586741065E+02  0.44831283906E+02  0.78215698360E+02  0.00000000000E+00 0.  1.
         14    1    3    3    0    0 -0.26068264508E+02 -0.16192147329E+02  0.16780791443E+02  0.34976206356E+02  0.00000000000E+00 0. -1.
        -13    1    4    4    0    0 -0.19645141721E+02  0.42770934068E+01  0.46989130790E+02  0.51109720540E+02  0.00000000000E+00 0. -1.
         13    1    4    4    0    0  0.41161206334E+02 -0.15932552407E+02 -0.19300975461E+02  0.48172801318E+02  0.00000000000E+00 0.  1.
          3    1    1    2  501    0 -0.56144073019E+02  0.48434347394E+02  0.49591340795E+02  0.89203946239E+02  0.00000000000E+00 0. -1.
<scales pt_clust_5="13000.00000" pt_clust_6="13000.00000" pt_clust_7="13000.00000" pt_clust_8="13000.00000" pt_clust_9="74.14883"></scales>
<clustering>
<clus scale="   74.149">  2  9  1 -1</clus>
<clus scale="   80.403">  5  6 -1 -1</clus>
<clus scale="   82.827">  1  5  2 -1</clus>
<clus scale="   92.150">  7  8 -1 -1</clus>
<clus scale="   74.149">  2  5  1 -1</clus>
</clustering>
</event>
<event>
 9    2  0.6175212E-005  0.1095364E+03  0.7546771E-02  0.1265734E+00
         21   -1    0    0  501  502  0.00000000000E+00  0.00000000000E+00  0.62344625673E+02  0.62344625673E+02  0.00000000000E+00 0. -1.
          2   -1    0    0  502    0 -0.00000000000E+00 -0.00000000000E+00 -0.38376621838E+03  0.38376621838E+03  0.00000000000E+00 0. -1.
         24    2    1    2    0    0 -0.15696360695E+02  0.62830104925E+02 -0.20423782569E+03  0.22851178226E+03  0.79438953697E+02 0.  0.
         23    2    1    2    0    0 -0.13757572832E+02 -0.54329418233E+02 -0.10804455645E+02  0.10689064404E+03  0.90376529170E+02 0.  0.
        -13    1    3    3    0    0 -0.21987116511E+02  0.43663430902E+02 -0.20244003088E+03  0.20825920050E+03  0.00000000000E+00 0.  1.
         14    1    3    3    0    0  0.62907558160E+01  0.19166674023E+02 -0.17977948148E+01  0.20252581762E+02  0.00000000000E+00 0. -1.
        -11    1    4    4    0    0  0.33053039903E+02  0.19064419019E+01 -0.51149227543E+01  0.33500752265E+02  0.00000000000E+00 0.  1.
         11    1    4    4    0    0 -0.46810612734E+02 -0.56235860135E+02 -0.56895328906E+01  0.73389891771E+02  0.00000000000E+00 0. -1.
          1    1    1    2  501    0  0.29453933526E+02 -0.85006866924E+01 -0.10637931137E+03  0.11070841776E+03  0.00000000000E+00 0. -1.
<scales pt_clust_5="13000.00000" pt_clust_6="13000.00000" pt_clust_7="13000.00000" pt_clust_8="13000.00000" pt_clust_9="30.65611"></scales>
<clustering>
<clus scale="   30.656">  1  9  2 -1</clus>
<clus scale="   79.439">  5  6 -1 -1</clus>
<clus scale="   90.377">  7  8 -1 -1</clus>
<clus scale="  100.702">  2  5  1 -1</clus>
<clus scale="   30.656">  1  5  2 -1</clus>
</clustering>
</event>
<event>
 9    2  0.6175212E-005  0.9795030E+02  0.7546771E-02  0.1288581E+00
          2   -1    0    0  502    0 -0.00000000000E+00  0.00000000000E+00  0.71043535729E+03  0.71043535729E+03  0.00000000000E+00 0. -1.
         21   -1    0    0  501  502  0.00000000000E+00 -0.00000000000E+00 -0.24878164631E+02  0.24878164631E+02  0.00000000000E+00 0.  1.
         24    2    1    2    0    0  0.30993913758E+02  0.13283476138E+02  0.30609129443E+03  0.31883008047E+03  0.82605485627E+02 0.  0.
         23    2    1    2    0    0 -0.25776058218E+02 -0.52633604535E+02  0.15586904258E+03  0.18939048146E+03  0.90215821953E+02 0.  0.
        -13    1    3    3    0    0 -0.89495928272E+01  0.39613731698E+02  0.16157998658E+03  0.16660562720E+03  0.00000000000E+00 0.  1.
         14    1    3    3    0    0  0.39943506585E+02 -0.26330255560E+02  0.14451130785E+03  0.15222445327E+03  0.00000000000E+00 0. -1.
        -13    1    4    4    0    0 -0.14669707598E+02 -0.73505737384E+02  0.14529642331E+03  0.16349111406E+03  0.00000000000E+00 0.  1.
         13    1    4    4    0    0 -0.11106350620E+02  0.20872132849E+02  0.10572619269E+02  0.25899367405E+02  0.00000000000E+00 0. -1.
          1    1    1    2  501    0 -0.52178555398E+01  0.39350128397E+02  0.22359685565E+03  0.22709296000E+03  0.00000000000E+00 0. -1.
<scales pt_clust_5="13000.00000" pt_clust_6="13000.00000" pt_clust_7="13000.00000" pt_clust_8="13000.00000" pt_clust_9="39.69459"></scales>
<clustering>
<clus scale="   39.695">  2  9  1 -1</clus>
<clus scale="   82.605">  5  6 -1 -1</clus>
<clus scale="   90.216">  7  8 -1 -1</clus>
<clus scale="   90.989">  1  5  2 -1</clus>
<clus scale="   39.695">  2  5  1 -1</clus>
</clustering>
</event>
<event>
 9    2  0.6175212E-005  0.9534351E+02  0.7546771E-02  0.1295418E+00
         -1   -1    0    0    0  501 -0.00000000000E+00  0.00000000000E+00  0.43400310528E+03  0.43400310528E+03  0.00000000000E+00 0.  1.
         21   -1    0    0  501  502  0.00000000000E+00 -0.00000000000E+00 -0.84424643537E+02  0.84424643537E+02  0.00000000000E+00 0.  1.
         23    2    1    2    0    0 -0.40259126198E+02  0.43030665768E+02  0.26755052455E+03  0.28828210484E+03  0.89726547597E+02 0.  0.
         24    2    1    2    0    0 -0.29740802856E+02 -0.12834100758E+02  0.11743766983E+03  0.14608809362E+03  0.80628129742E+02 0.  0.
        -13    1    4    4    0    0  0.12468513658E+02  0.21936338214E+02  0.13439616273E+02  0.28588285234E+02  0.00000000000E+00 0.  1.
         14    1    4    4    0    0 -0.42209316514E+02 -0.34770438972E+02  0.10399805356E+03  0.11749980839E+03  0.00000000000E+00 0. -1.
        -13    1    3    3    0    0 -0.40452593663E+02  0.69744795799E+02  0.20210314117E+03  0.21759234487E+03  0.00000000000E+00 0.  1.
         13    1    3    3    0    0  0.19346746531E+00 -0.26714130031E+02  0.65447383387E+02  0.70689759974E+02  0.00000000000E+00 0. -1.
         -2    1    1    2    0  502  0.69999929054E+02 -0.30196565011E+02 -0.35409732643E+02  0.84057550356E+02  0.00000000000E+00 0.  1.
<scales pt_clust_5="13000.00000" pt_clust_6="13000.00000" pt_clust_7="13000.00000" pt_clust_8="13000.00000" pt_clust_9="76.23531"></scales>
<clustering>
<clus scale="   76.235">  2  9  1 -1</clus>
<clus scale="   80.628">  5  6 -1 -1</clus>
<clus scale="   86.836">  2  5  1 -1</clus>
<clus scale="   89.727">  7  8 -1 -1</clus>
<clus scale="   76.235">  2  5  1 -1</clus>
</clustering>
</event>
<event>
 9    2  0.6175212E-005  0.1076616E+03  0.7546771E-02  0.1269565E+00
         21   -1    0    0  501  502  0.00000000000E+00  0.00000000000E+00  0.41274310181E+02  0.41274310181E+02  0.00000000000E+00 0.  1.
          2   -1    0    0  502    0 -0.00000000000E+00 -0.00000000000E+00 -0.76587586831E+03  0.76587586831E+03  0.00000000000E+00 0. -1.
         24    2    1    2    0    0 -0.13854172222E+02  0.58157742079E+02 -0.50207515484E+03  0.51191775227E+03  0.80037884322E+02 0.  0.
         23    2    1    2    0    0 -0.58821788086E+02 -0.53659486041E+02 -0.14531911347E+03  0.18910516716E+03  0.91125058644E+02 0.  0.
        -11    1    3    3    0    0 -0.28562231020E+02 -0.98971430380E+01 -0.15930522726E+03  0.16214780268E+03  0.00000000000E+00 0.  1.
         12    1    3    3    0    0  0.14708058797E+02  0.68054885117E+02 -0.34276992758E+03  0.34976994959E+03  0.00000000000E+00 0. -1.
        -11    1    4    4    0    0 -0.11283101399E+02  0.23432885677E+02 -0.13872597866E+02  0.29476388515E+02  0.00000000000E+00 0.  1.
         11    1    4    4    0    0 -0.47538686687E+02 -0.77092371717E+02 -0.13144651560E+03  0.15962877865E+03  0.00000000000E+00 0. -1.
          1    1    1    2  501    0  0.72675960308E+02 -0.44982560383E+01 -0.77207289816E+02  0.10612725906E+03  0.00000000000E+00 0. -1.
<scales pt_clust_5="13000.00000" pt_clust_6="13000.00000" pt_clust_7="13000.00000" pt_clust_8="13000.00000" pt_clust_9="72.81504"></scales>
<clustering>
<clus scale="   72.815">  1  9  2 -1</clus>
<clus scale="   80.038">  5  6 -1 -1</clus>
<clus scale="   91.125">  7  8 -1 -1</clus>
<clus scale="   98.455">  2  5  1 -1</clus>
<clus scale="   72.815">  1  5  2 -1</clus>
</clustering>
</event>
<event>
 9    2  0.6175212E-005  0.1091176E+03  0.7546771E-02  0.1263973E+00
          2   -1    0    0  502    0 -0.00000000000E+00  0.00000000000E+00  0.82412993302E+02  0.82412993302E+02  0.00000000000E+00 0. -1.
         21   -1    0    0  501  502  0.00000000000E+00 -0.00000000000E+00 -0.80705186833E+03  0.80705186833E+03  0.00000000000E+00 0. -1.
         23    2    1    2    0    0  0.23026076374E+02 -0.69711181322E+02  0.30440818874E+02  0.11738865427E+03  0.86392150707E+02 0.  0.
         24    2    1    2    0    0 -0.33977901018E+02  0.28378132627E+01 -0.33160338181E+03  0.34321238664E+03  0.81678568633E+02 0.  0.
        -13    1    4    4    0    0 -0.59327351833E+02  0.12226805212E+02 -0.20536618162E+03  0.21411328308E+03  0.00000000000E+00 0.  1.
         14    1    4    4    0    0  0.25349450815E+02 -0.93889919493E+01 -0.12623720019E+03  0.12909910356E+03  0.00000000000E+00 0. -1.
        -13    1    3    3    0    0  0.41798649852E+02 -0.12783303011E+02 -0.10305203377E+02  0.44908097064E+02  0.00000000000E+00 0. -1.
         13    1    3    3    0    0 -0.18772573478E+02 -0.56927878311E+02  0.40746022250E+02  0.72480557208E+02  0.00000000000E+00 0.  1.
          1    1    1    2  501    0  0.10951824644E+02  0.66873368059E+02 -0.42347631209E+03  0.42886382072E+03  0.00000000000E+00 0. -1.
<scales pt_clust_5="13000.00000" pt_clust_6="13000.00000" pt_clust_7="13000.00000" pt_clust_8="13000.00000" pt_clust_9="67.76422"></scales>
<clustering>
<clus scale="   67.764">  2  9  1 -1</clus>
<clus scale="   81.679">  5  6 -1 -1</clus>
<clus scale="   86.392">  7  8 -1 -1</clus>
<clus scale="  105.425">  2  5  1 -1</clus>
<clus scale="   67.764">  2  5  1 -1</clus>
</clustering>
</event>
<event>
 9    2  0.6175212E-005  0.1093251E+03  0.7546771E-02  0.1272476E+00
         21   -1    0    0  501  502  0.00000000000E+00  0.00000000000E+00  0.39621995468E+02  0.39621995468E+02  0.00000000000E+00 0. -1.
         -1   -1    0    0    0  501 -0.00000000000E+00 -0.00000000000E+00 -0.39649760659E+03  0.39649760659E+03  0.00000000000E+00 0.  1.
         24    2    1    2    0    0  0.68304122405E+01  0.56444973506E+02 -0.23134862000E+03  0.24946215860E+03  0.74003344728E+02 0.  0.
         23    2    1    2    0    0 -0.13083925755E+02 -0.25539297623E+02 -0.72369839581E+02  0.12485169945E+03  0.97606907224E+02 0.  0.
        -13    1    3    3    0    0 -0.26867823202E+02  0.18173422628E+02 -0.14988652434E+03  0.15335619777E+03  0.00000000000E+00 0.  1.
         14    1    3    3    0    0  0.33698235442E+02  0.38271550879E+02 -0.81462095659E+02  0.96105960834E+02  0.00000000000E+00 0. -1.
        -13    1    4    4    0    0 -0.19389710059E+02  0.17530495618E+02 -0.76772624898E+02  0.81100647757E+02  0.00000000000E+00 0.  1.
         13    1    4    4    0    0  0.63057843044E+01 -0.43069793241E+02  0.44027853174E+01  0.43751051691E+02  0.00000000000E+00 0. -1.
         -2    1    1    2    0  502  0.62535135141E+01 -0.30905675884E+02 -0.53157151541E+02  0.61805744014E+02  0.00000000000E+00 0.  1.
<scales pt_clust_5="13000.00000" pt_clust_6="13000.00000" pt_clust_7="13000.00000" pt_clust_8="13000.00000" pt_clust_9="31.53202"></scales>
<clustering>
<clus scale="   31.532">  1  9  2 -1</clus>
<clus scale="   74.003">  5  6 -1 -1</clus>
<clus scale="   88.890">  2  5  1 -1</clus>
<clus scale="   97.607">  7  8 -1 -1</clus>
<clus scale="   31.532">  1  5  2 -1</clus>
</clustering>
</event>
<event>
 9    2  0.6175212E-005  0.9156435E+02  0.7546771E-02  0.1304578E+00
          2   -1    0    0  502    0 -0.00000000000E+00  0.00000000000E+00  0.10079948772E+04  0.10079948772E+04  0.00000000000E+00 0. -1.
         21   -1    0    0  501  502  0.00000000000E+00 -0.00000000000E+00 -0.41920438300E+02  0.41920438300E+02  0.00000000000E+00 0. -1.
         24    2    1    2    0    0  0.22829662935E+02  0.27049711543E+01  0.74666613632E+03  0.75134402643E+03  0.80492338463E+02 0.  0.
         23    2    1    2    0    0  0.19557242293E+02 -0.53656242509E+02  0.20484108985E+03  0.23071198261E+03  0.89479990734E+02 0.  0.
        -13    1    3    3    0    0 -0.25435363283E+02 -0.85787617373E+01  0.13314740400E+03  0.13582630103E+03  0.00000000000E+00 0.  1.
         14    1    3    3    0    0  0.48265026218E+02  0.11283732892E+02  0.61351873232E+03  0.61551772541E+03  0.00000000000E+00 0. -1.
        -11    1    4    4    0    0  0.51430133361E+02 -0.51562501067E+02  0.12422590711E+03  0.14399939628E+03  0.00000000000E+00 0. -1.
         11    1    4    4    0    0 -0.31872891068E+02 -0.20937414427E+01  0.80615182741E+02  0.86712586321E+02  0.00000000000E+00 0.  1.
          1    1    1    2  501    0 -0.42386905228E+02  0.50951271355E+02  0.14567212741E+02  0.67859306470E+02  0.00000000000E+00 0. -1.
<scales pt_clust_5="13000.00000" pt_clust_6="13000.00000" pt_clust_7="13000.00000" pt_clust_8="13000.00000" pt_clust_9="66.27731"></scales>
<clustering>
<clus scale="   66.277">  2  9  1 -1</clus>
<clus scale="   80.492">  5  6 -1 -1</clus>
<clus scale="   82.803">  1  5  2 -1</clus>
<clus scale="   89.480">  7  8 -1 -1</clus>
<clus scale="   66.277">  2  5  1 -1</clus>
</clustering>
</event>
<event>
 9    2  0.6175212E-005  0.1002189E+03  0.7546771E-02  0.1285826E+00
         -3   -1    0    0    0  501 -0.00000000000E+00  0.00000000000E+00  0.50286739960E+03  0.50286739960E+03  0.00000000000E+00 0.  1.
         21   -1    0    0  501  502  0.00000000000E+00 -0.00000000000E+00 -0.26428748548E+02  0.26428748548E+02  0.00000000000E+00 0.  1.
         23    2    1    2    0    0  0.23725403584E+02 -0.27222202393E+02  0.18030182448E+03  0.20476689088E+03  0.90093221796E+02 0.  0.
         24    2    1    2    0    0 -0.24247304042E+01  0.55637164086E+02  0.19343078373E+03  0.21585699786E+03  0.77957694226E+02 0.  0.
        -13    1    4    4    0    0 -0.23789390711E+02  0.64650347329E+02  0.11484445352E+03  0.13392106266E+03  0.00000000000E+00 0.  1.
         14    1    4    4    0    0  0.21364660307E+02 -0.90131832436E+01  0.78586330206E+02  0.81935935202E+02  0.00000000000E+00 0. -1.
        -13    1    3    3    0    0  0.46016387453E+02 -0.11867500480E+02  0.16879132418E+03  0.17535351893E+03  0.00000000000E+00 0. -1.
         13    1    3    3    0    0 -0.22290983868E+02 -0.15354701913E+02  0.11510500296E+02  0.29413371954E+02  0.00000000000E+00 0.  1.
         -4    1    1    2    0  502 -0.21300673180E+02 -0.28414961693E+02  0.10270604285E+03  0.10867225940E+03  0.00000000000E+00 0.  1.
<scales pt_clust_5="13000.00000" pt_clust_6="13000.00000" pt_clust_7="13000.00000" pt_clust_8="13000.00000" pt_clust_9="35.51239"></scales>
<clustering>
<clus scale="   35.512">  2  9  1 -1</clus>
<clus scale="   77.958">  5  6 -1 -1</clus>
<clus scale="   89.468">  2  5  1 -1</clus>
<clus scale="   90.093">  7  8 -1 -1</clus>
<clus scale="   35.512">  2  5  1 -1</clus>
</clustering>
</event>
<event>
 9    2  0.6175212E-005  0.1285923E+03  0.7546771E-02  0.1233711E+00
          2   -1    0    0  502    0 -0.00000000000E+00  0.00000000000E+00  0.58647278803E+03  0.58647278803E+03  0.00000000000E+00 0. -1.
         21   -1    0    0  501  502  0.00000000000E+00 -0.00000000000E+00 -0.95238187961E+02  0.95238187961E+02  0.00000000000E+00 0.  1.
         24    2    1    2    0    0 -0.84560289085E+02 -0.40438130693E+02  0.48801914265E+03  0.50319415161E+03  0.79094789438E+02 0.  0.
         23    2    1    2    0    0  0.37820963113E+02 -0.35197642963E+01 -0.30596136299E+02  0.10599038097E+03  0.94101133419E+02 0.  0.
        -13    1    3    3    0    0 -0.46788894299E+01 -0.27059491672E+02  0.44132477000E+02  0.51978684305E+02  0.00000000000E+00 0.  1.
         14    1    3    3    0    0 -0.79881399655E+02 -0.13378639021E+02  0.44388666565E+03  0.45121546730E+03  0.00000000000E+00 0. -1.
        -11    1    4    4    0    0  0.54628011335E+02 -0.30307411809E+02 -0.38514791107E+02  0.73390380617E+02  0.00000000000E+00 0.  1.
         11    1    4    4    0    0 -0.16807048222E+02  0.26787647513E+02  0.79186548082E+01  0.32600000356E+02  0.00000000000E+00 0. -1.
          1    1    1    2  501    0  0.46739325972E+02  0.43957894989E+02  0.33811593721E+02  0.72526443413E+02  0.00000000000E+00 0. -1.
<scales pt_clust_5="13000.00000" pt_clust_6="13000.00000" pt_clust_7="13000.00000" pt_clust_8="13000.00000" pt_clust_9="64.16277"></scales>
<clustering>
<clus scale="   64.163">  2  9  1 -1</clus>
<clus scale="   79.095">  5  6 -1 -1</clus>
<clus scale="   94.101">  7  8 -1 -1</clus>
<clus scale="  118.055">  1  5  2 -1</clus>
<clus scale="   64.163">  2  5  1 -1</clus>
</clustering>
</event>
<event>
 9    2  0.6175212E-005  0.1105597E+03  0.7546771E-02  0.1264159E+00
         21   -1    0    0  501  502  0.00000000000E+00  0.00000000000E+00  0.63254621647E+03  0.63254621647E+03  0.00000000000E+00 0.  1.
         -1   -1    0    0    0  501 -0.00000000000E+00 -0.00000000000E+00 -0.89522183088E+02  0.89522183088E+02  0.00000000000E+00 0.  1.
         23    2    1    2    0    0  0.42945949914E+02  0.82945819765E+02  0.27393753388E+02  0.13455624276E+03  0.92901028574E+02 0.  0.
         24    2    1    2    0    0  0.40178590034E+02 -0.37966889941E+02  0.46100775850E+02  0.10856461423E+03  0.81272320630E+02 0.  0.
        -11    1    4    4    0    0  0.55453415181E+02 -0.63739427621E+01  0.73735899816E+01  0.56303447770E+02  0.00000000000E+00 0.  1.
         12    1    4    4    0    0 -0.15274825147E+02 -0.31592947179E+02  0.38727185868E+02  0.52261166462E+02  0.00000000000E+00 0. -1.
        -11    1    3    3    0    0  0.44745183853E+02  0.37077665812E+01 -0.11385186394E+02  0.46319558291E+02  0.00000000000E+00 0.  1.
         11    1    3    3    0    0 -0.17992339389E+01  0.79238053184E+02  0.38778939783E+02  0.88236684467E+02  0.00000000000E+00 0. -1.
         -2    1    1    2    0  502 -0.83124539948E+02 -0.44978929823E+02  0.46952950415E+03  0.47894754257E+03  0.00000000000E+00 0.  1.
<scales pt_clust_5="13000.00000" pt_clust_6="13000.00000" pt_clust_7="13000.00000" pt_clust_8="13000.00000" pt_clust_9="94.51346"></scales>
<clustering>
<clus scale="   81.272">  5  6 -1 -1</clus>
<clus scale="   92.901">  7  8 -1 -1</clus>
<clus scale="   94.513">  1  9  2 -1</clus>
<clus scale="  100.985">  1  5  2 -1</clus>
<clus scale="   94.513">  1  5  2 -1</clus>
</clustering>
</event>
<event>
 9    2  0.8923655E-005  0.1088088E+03  0.7546771E-02  0.1270784E+00
          4   -1    0    0  502    0 -0.00000000000E+00  0.00000000000E+00  0.49034975539E+03  0.49034975539E+03  0.00000000000E+00 0. -1.
         21   -1    0    0  501  502  0.00000000000E+00 -0.00000000000E+00 -0.15109366955E+03  0.15109366955E+03  0.00000000000E+00 0. -1.
         24    2    1    2    0    0 -0.50449543857E+02 -0.39801994390E+02  0.33041150270E+03  0.34561724734E+03  0.78422989650E+02 0.  0.
         23    2    1    2    0    0  0.17255046095E+02  0.10620995947E+02  0.13212436675E+03  0.16486316603E+03  0.96501155713E+02 0.  0.
        -11    1    3    3    0    0 -0.27903229251E+02  0.15289460911E+00  0.27243671232E+02  0.38997835858E+02  0.00000000000E+00 0.  1.
         12    1    3    3    0    0 -0.22546314606E+02 -0.39954888999E+02  0.30316783147E+03  0.30661941148E+03  0.00000000000E+00 0. -1.
        -11    1    4    4    0    0  0.44764221226E+02 -0.15149927856E+02  0.29931007104E+02  0.55939440489E+02  0.00000000000E+00 0.  1.
         11    1    4    4    0    0 -0.27509175131E+02  0.25770923802E+02  0.10219335965E+03  0.10892372554E+03  0.00000000000E+00 0. -1.
          3    1    1    2  501    0  0.33194497762E+02  0.29180998443E+02 -0.12327978361E+03  0.13096301157E+03  0.00000000000E+00 0. -1.
<scales pt_clust_5="13000.00000" pt_clust_6="13000.00000" pt_clust_7="13000.00000" pt_clust_8="13000.00000" pt_clust_9="44.19735"></scales>
<clustering>
<clus scale="   44.197">  2  9  1 -1</clus>
<clus scale="   78.423">  5  6 -1 -1</clus>
<clus scale="   93.151">  1  5  2 -1</clus>
<clus scale="   96.501">  7  8 -1 -1</clus>
<clus scale="   44.197">  2  5  1 -1</clus>
</clustering>
</event>
<event>
 9    2  0.6175212E-005  0.9434567E+02  0.7546771E-02  0.1299759E+00
          2   -1    0    0  502    0 -0.00000000000E+00  0.00000000000E+00  0.57596332447E+03  0.57596332447E+03  0.00000000000E+00 0. -1.
         21   -1    0    0  501  502  0.00000000000E+00 -0.00000000000E+00 -0.26857807640E+02  0.26857807640E+02  0.00000000000E+00 0.  1.
         24    2    1    2    0    0  0.12114180236E+02  0.12245435995E+02  0.32741434204E+03  0.33742294213E+03  0.79733220430E+02 0.  0.
         23    2    1    2    0    0 -0.47357431063E+02  0.10362474217E+02  0.16499495945E+03  0.19491652451E+03  0.91755150993E+02 0.  0.
        -13    1    3    3    0    0 -0.18625140208E+02 -0.23540646408E+02  0.77805995305E+02  0.83395628102E+02  0.00000000000E+00 0.  1.
         14    1    3    3    0    0  0.30739320444E+02  0.35786082403E+02  0.24960834673E+03  0.25402731403E+03  0.00000000000E+00 0. -1.
        -11    1    4    4    0    0 -0.47188915419E+02  0.43132553719E+02  0.71850108255E+02  0.96175095451E+02  0.00000000000E+00 0.  1.
         11    1    4    4    0    0 -0.16851564422E+00 -0.32770079502E+02  0.93144851197E+02  0.98741429059E+02  0.00000000000E+00 0. -1.
          1    1    1    2  501    0  0.35243250827E+02 -0.22607910212E+02  0.56696215340E+02  0.70481665466E+02  0.00000000000E+00 0. -1.
<scales pt_clust_5="13000.00000" pt_clust_6="13000.00000" pt_clust_7="13000.00000" pt_clust_8="13000.00000" pt_clust_9="41.87128"></scales>
<clustering>
<clus scale="   41.871">  2  9  1 -1</clus>
<clus scale="   79.733">  5  6 -1 -1</clus>
<clus scale="   82.701">  1  5  2 -1</clus>
<clus scale="   91.755">  7  8 -1 -1</clus>
<clus scale="   41.871">  2  5  1 -1</clus>
</clustering>
</event>
<event>
 9    2  0.6175212E-005  0.2161501E+03  0.7546771E-02  0.1177864E+00
          2   -1    0    0  502    0 -0.00000000000E+00  0.00000000000E+00  0.21154188526E+03  0.21154188526E+03  0.00000000000E+00 0. -1.
         21   -1    0    0  501  502  0.00000000000E+00 -0.00000000000E+00 -0.32006248081E+03  0.32006248081E+03  0.00000000000E+00 0. -1.
         24    2    1    2    0    0  0.28398921177E+02  0.22630609774E+02  0.36545802950E+02  0.90392128748E+02  0.74273131101E+02 0.  0.
         23    2    1    2    0    0  0.13023894452E+03  0.11696403987E+03 -0.26693846898E+02  0.19900426963E+03  0.90815023949E+02 0.  0.
        -13    1    3    3    0    0 -0.24130507942E+02 -0.28364900670E+01  0.10545869862E+02  0.26486646836E+02  0.00000000000E+00 0.  1.
         14    1    3    3    0    0  0.52529429119E+02  0.25467099841E+02  0.25999933088E+02  0.63905481912E+02  0.00000000000E+00 0. -1.
        -13    1    4    4    0    0  0.12188141787E+03  0.54652150558E+02 -0.99546519711E+01  0.13394414015E+03  0.00000000000E+00 0.  1.
         13    1    4    4    0    0  0.83575266461E+01  0.62311889309E+02 -0.16739194927E+02  0.65060129478E+02  0.00000000000E+00 0. -1.
          1    1    1    2  501    0 -0.15863786570E+03 -0.13959464964E+03 -0.11837255161E+03  0.24220796770E+03  0.00000000000E+00 0. -1.
<scales pt_clust_5="13000.00000" pt_clust_6="13000.00000" pt_clust_7="13000.00000" pt_clust_8="13000.00000" pt_clust_9="196.14660"></scales>
<clustering>
<clus scale="   74.273">  5  6 -1 -1</clus>
<clus scale="   82.675">  1  5  2 -1</clus>
<clus scale="   90.815">  7  8 -1 -1</clus>
<clus scale="  196.147">  2  9  1 -1</clus>
<clus scale="  196.147">  2  5  1 -1</clus>
</clustering>
</event>
<event>
 9    2  0.6175212E-005  0.2930367E+03  0.7546771E-02  0.1089321E+00
          2   -1    0    0  502    0 -0.00000000000E+00  0.00000000000E+00  0.18170948254E+04  0.18170948254E+04  0.00000000000E+00 0. -1.
         21   -1    0    0  501  502  0.00000000000E+00 -0.00000000000E+00 -0.19582109018E+03  0.19582109018E+03  0.00000000000E+00 0. -1.
         24    2    1    2    0    0 -0.28161967970E+03  0.54502944556E+01  0.14733726174E+04  0.15020162627E+04  0.76724403803E+02 0.  0.
         23    2    1    2    0    0  0.25542435995E+03 -0.12132754296E+03  0.22196286503E+03  0.37090367474E+03  0.91323853113E+02 0.  0.
        -13    1    3    3    0    0 -0.15704478616E+03 -0.19074450176E+02  0.65379975635E+03  0.67266709516E+03  0.00000000000E+00 0.  1.
         14    1    3    3    0    0 -0.12457489354E+03  0.24524744632E+02  0.81957286105E+03  0.82934916758E+03  0.00000000000E+00 0. -1.
        -11    1    4    4    0    0  0.13497492385E+03 -0.10615558079E+03  0.15954321070E+03  0.23439554919E+03  0.00000000000E+00 0. -1.
         11    1    4    4    0    0  0.12044943611E+03 -0.15171962164E+02  0.62419654327E+02  0.13650812555E+03  0.00000000000E+00 0.  1.
          1    1    1    2  501    0  0.26195319750E+02  0.11587724850E+03 -0.74061747174E+02  0.13999597812E+03  0.00000000000E+00 0. -1.
<scales pt_clust_5="13000.00000" pt_clust_6="13000.00000" pt_clust_7="13000.00000" pt_clust_8="13000.00000" pt_clust_9="118.80123"></scales>
<clustering>
<clus scale="   76.724">  5  6 -1 -1</clus>
<clus scale="   91.324">  7  8 -1 -1</clus>
<clus scale="  118.801">  2  9  1 -1</clus>
<clus scale="  288.820">  1  5  2 -1</clus>
<clus scale="  118.801">  2  5  1 -1</clus>
</clustering>
</event>
<event>
 9    2  0.6175212E-005  0.3039911E+03  0.7546771E-02  0.1083512E+00
         21   -1    0    0  501  502  0.00000000000E+00  0.00000000000E+00  0.22748459738E+03  0.22748459738E+03  0.00000000000E+00 0.  1.
          2   -1    0    0  502    0 -0.00000000000E+00 -0.00000000000E+00 -0.98297557958E+03  0.98297557958E+03  0.00000000000E+00 0. -1.
         24    2    1    2    0    0 -0.85247244381E+02  0.30747784601E+03 -0.24977172477E+03  0.41339226979E+03  0.81838473667E+02 0.  0.
         23    2    1    2    0    0 -0.59669083941E+02 -0.25891384793E+03 -0.12262695252E+02  0.28048433902E+03  0.89018596448E+02 0.  0.
        -13    1    3    3    0    0 -0.25337419838E+02  0.14757998409E+03 -0.69476555223E+02  0.16507219110E+03  0.00000000000E+00 0.  1.
         14    1    3    3    0    0 -0.59909824543E+02  0.15989786191E+03 -0.18029516954E+03  0.24832007869E+03  0.00000000000E+00 0. -1.
        -13    1    4    4    0    0 -0.70073177154E+02 -0.11154206370E+03  0.44621624841E+01  0.13180209795E+03  0.00000000000E+00 0.  1.
         13    1    4    4    0    0  0.10404093213E+02 -0.14737178423E+03 -0.16724857736E+02  0.14868224107E+03  0.00000000000E+00 0. -1.
          1    1    1    2  501    0  0.14491632832E+03 -0.48563998075E+02 -0.49345656218E+03  0.51658356815E+03  0.00000000000E+00 0. -1.
<scales pt_clust_5="13000.00000" pt_clust_6="13000.00000" pt_clust_7="13000.00000" pt_clust_8="13000.00000" pt_clust_9="152.83726"></scales>
<clustering>
<clus scale="   81.838">  5  6 -1 -1</clus>
<clus scale="   89.019">  7  8 -1 -1</clus>
<clus scale="  152.837">  1  9  2 -1</clus>
<clus scale="  301.967">  2  5  1 -1</clus>
<clus scale="  152.837">  1  5  2 -1</clus>
</clustering>
</event>
<event>
 9    2  0.6175212E-005  0.2006492E+03  0.7546771E-02  0.1149973E+00
          2   -1    0    0  502    0 -0.00000000000E+00  0.00000000000E+00  0.11632863966E+04  0.11632863966E+04  0.00000000000E+00 0. -1.
         21   -1    0    0  501  502  0.00000000000E+00 -0.00000000000E+00 -0.68240788261E+02  0.68240788261E+02  0.00000000000E+00 0.  1.
         23    2    1    2    0    0 -0.41424646834E+02  0.17856976519E+03  0.96583154985E+03  0.98722357922E+03  0.90424832190E+02 0.  0.
         24    2    1    2    0    0  0.30262148955E+02 -0.15546901917E+03  0.96610568291E+02  0.20281585565E+03  0.81940562690E+02 0.  0.
        -11    1    4    4    0    0  0.44354878956E+02 -0.43955088053E+02  0.15896126126E+02  0.64436727716E+02  0.00000000000E+00 0.  1.
         12    1    4    4    0    0 -0.14092730000E+02 -0.11151393112E+03  0.80714442165E+02  0.13837912793E+03  0.00000000000E+00 0. -1.
        -13    1    3    3    0    0  0.26940105559E+02  0.43491327246E+02  0.19051974557E+03  0.19726894911E+03  0.00000000000E+00 0.  1.
         13    1    3    3    0    0 -0.68364752393E+02  0.13507843795E+03  0.77531180429E+03  0.78995463011E+03  0.00000000000E+00 0. -1.
          1    1    1    2  501    0  0.11162497879E+02 -0.23100746021E+02  0.32603490153E+02  0.41487749949E+02  0.00000000000E+00 0. -1.
<scales pt_clust_5="13000.00000" pt_clust_6="13000.00000" pt_clust_7="13000.00000" pt_clust_8="13000.00000" pt_clust_9="25.65630"></scales>
<clustering>
<clus scale="   25.656">  2  9  1 -1</clus>
<clus scale="   81.941">  5  6 -1 -1</clus>
<clus scale="   90.425">  7  8 -1 -1</clus>
<clus scale="  196.971">  2  5  1 -1</clus>
<clus scale="   25.656">  2  5  1 -1</clus>
</clustering>
</event>
<event>
 9    2  0.6175212E-005  0.9711961E+02  0.7546771E-02  0.1290382E+00
         21   -1    0    0  501  502  0.00000000000E+00  0.00000000000E+00  0.92243933950E+02  0.92243933950E+02  0.00000000000E+00 0. -1.
         -3   -1    0    0    0  501 -0.00000000000E+00 -0.00000000000E+00 -0.22059768836E+03  0.22059768836E+03  0.00000000000E+00 0.  1.
         23    2    1    2    0    0 -0.41545630470E+02 -0.10648484867E+02 -0.15812579830E+03  0.18695385258E+03  0.90047461179E+02 0.  0.
         24    2    1    2    0    0  0.53107621853E+01  0.17964303327E+02  0.26700141959E+02  0.88794327440E+02  0.82587012393E+02 0.  0.
        -13    1    4    4    0    0 -0.20497943148E+02 -0.26347850927E+02  0.95293617439E+01  0.34715755170E+02  0.00000000000E+00 0.  1.
         14    1    4    4    0    0  0.25808705333E+02  0.44312154255E+02  0.17170780215E+02  0.54078572271E+02  0.00000000000E+00 0. -1.
        -11    1    3    3    0    0 -0.51804926225E+02 -0.38507034803E+02 -0.76482763745E+02  0.10008074370E+03  0.00000000000E+00 0. -1.
         11    1    3    3    0    0  0.10259295756E+02  0.27858549935E+02 -0.81643034558E+02  0.86873108876E+02  0.00000000000E+00 0.  1.
         -4    1    1    2    0  502  0.36234868284E+02 -0.73158184601E+01  0.30719019355E+01  0.37093442289E+02  0.00000000000E+00 0.  1.
<scales pt_clust_5="13000.00000" pt_clust_6="13000.00000" pt_clust_7="13000.00000" pt_clust_8="13000.00000" pt_clust_9="36.96602"></scales>
<clustering>
<clus scale="   36.966">  1  9  2 -1</clus>
<clus scale="   82.587">  5  6 -1 -1</clus>
<clus scale="   90.047">  7  8 -1 -1</clus>
<clus scale="   90.246">  1  5  2 -1</clus>
<clus scale="   36.966">  1  5  2 -1</clus>
</clustering>
</event>
<event>
 9    2  0.6175212E-005  0.1599281E+03  0.7546771E-02  0.1202921E+00
         21   -1    0    0  501  502  0.00000000000E+00  0.00000000000E+00  0.19948579199E+03  0.19948579199E+03  0.00000000000E+00 0. -1.
          2   -1    0    0  502    0 -0.00000000000E+00 -0.00000000000E+00 -0.31957361553E+03  0.31957361553E+03  0.00000000000E+00 0. -1.
         24    2    1    2    0    0 -0.81167368236E+02  0.23652392423E+02 -0.14772138389E+03  0.18867485279E+03  0.81418766156E+02 0.  0.
         23    2    1    2    0    0  0.33664471041E+02  0.89706154615E+02 -0.79118501745E+02  0.16758809227E+03  0.11245239244E+03 0.  0.
        -13    1    3    3    0    0  0.36072561872E+01  0.27134414501E+02 -0.63390371262E+02  0.69048011675E+02  0.00000000000E+00 0.  1.
         14    1    3    3    0    0 -0.84774624423E+02 -0.34820220778E+01 -0.84331012633E+02  0.11962684112E+03  0.00000000000E+00 0. -1.
        -11    1    4    4    0    0  0.46779705039E+01 -0.24448708882E+02  0.13779916711E+01  0.24930335639E+02  0.00000000000E+00 0.  1.
         11    1    4    4    0    0  0.28986500537E+02  0.11415486350E+03 -0.80496493416E+02  0.14265775663E+03  0.00000000000E+00 0. -1.
          1    1    1    2  501    0  0.47502897194E+02 -0.11335854704E+03  0.10675206210E+03  0.16279646247E+03  0.00000000000E+00 0. -1.
<scales pt_clust_5="13000.00000" pt_clust_6="13000.00000" pt_clust_7="13000.00000" pt_clust_8="13000.00000" pt_clust_9="113.71650"></scales>
<clustering>
<clus scale="   81.419">  5  6 -1 -1</clus>
<clus scale="  112.452">  7  8 -1 -1</clus>
<clus scale="  117.374">  2  5  1 -1</clus>
<clus scale="  113.716">  1  9  2 -1</clus>
<clus scale="  113.716">  1  5  2 -1</clus>
</clustering>
</event>
<event>
 9    2  0.6175212E-005  0.9804967E+02  0.7546771E-02  0.1290327E+00
          2   -1    0    0  502    0 -0.00000000000E+00  0.00000000000E+00  0.54542473165E+03  0.54542473165E+03  0.00000000000E+00 0. -1.
         21   -1    0    0  501  502  0.00000000000E+00 -0.00000000000E+00 -0.52649486351E+02  0.52649486351E+02  0.00000000000E+00 0.  1.
         24    2    1    2    0    0  0.96480019887E+01  0.32138857041E+02  0.41910777459E+03  0.42821827842E+03  0.81200844667E+02 0.  0.
         23    2    1    2    0    0  0.27893719803E+02 -0.38743164999E+02  0.80189106774E+02  0.13118386315E+03  0.92194472002E+02 0.  0.
        -13    1    3    3    0    0 -0.24727246894E+02  0.16646880605E+02  0.58616640715E+02  0.65760671693E+02  0.00000000000E+00 0.  1.
         14    1    3    3    0    0  0.34375248883E+02  0.15491976437E+02  0.36049113388E+03  0.36245760673E+03  0.00000000000E+00 0. -1.
        -13    1    4    4    0    0  0.37956615435E+02 -0.59206550475E+02  0.30785971263E+02  0.76771715502E+02  0.00000000000E+00 0.  1.
         13    1    4    4    0    0 -0.10062895632E+02  0.20463385476E+02  0.49403135511E+02  0.54412147651E+02  0.00000000000E+00 0. -1.
          1    1    1    2  501    0 -0.37541721791E+02  0.66043079580E+01 -0.65216360642E+01  0.38672076433E+02  0.00000000000E+00 0. -1.
<scales pt_clust_5="13000.00000" pt_clust_6="13000.00000" pt_clust_7="13000.00000" pt_clust_8="13000.00000" pt_clust_9="38.11821"></scales>
<clustering>
<clus scale="   38.118">  2  9  1 -1</clus>
<clus scale="   81.201">  5  6 -1 -1</clus>
<clus scale="   87.792">  1  5  2 -1</clus>
<clus scale="   92.194">  7  8 -1 -1</clus>
<clus scale="   38.118">  2  5  1 -1</clus>
</clustering>
</event>
<event>
 9    2  0.6175212E-005  0.1004018E+03  0.7546771E-02  0.1282998E+00
          2   -1    0    0  502    0 -0.00000000000E+00  0.00000000000E+00  0.52256262457E+03  0.52256262457E+03  0.00000000000E+00 0. -1.
         21   -1    0    0  501  502  0.00000000000E+00 -0.00000000000E+00 -0.16133018644E+03  0.16133018644E+03  0.00000000000E+00 0.  1.
         24    2    1    2    0    0  0.28810579872E+02 -0.39804809106E+02  0.48624909782E+03  0.49526852949E+03  0.80238761442E+02 0.  0.
         23    2    1    2    0    0 -0.82989626778E+01  0.44369319550E+02 -0.49884481818E+02  0.11060886416E+03  0.87797209549E+02 0.  0.
        -11    1    3    3    0    0 -0.26358563104E+01 -0.23612222763E+02  0.33117124960E+02  0.40758174247E+02  0.00000000000E+00 0.  1.
         12    1    3    3    0    0  0.31446436183E+02 -0.16192586343E+02  0.45313197286E+03  0.45451035525E+03  0.00000000000E+00 0. -1.
        -11    1    4    4    0    0  0.30013672163E+01 -0.23307905706E+02 -0.31999904573E+02  0.39702148131E+02  0.00000000000E+00 0.  1.
         11    1    4    4    0    0 -0.11300329894E+02  0.67677225256E+02 -0.17884577245E+02  0.70906716024E+02  0.00000000000E+00 0. -1.
          1    1    1    2  501    0 -0.20511617194E+02 -0.45645104439E+01 -0.75132177863E+02  0.78015417361E+02  0.00000000000E+00 0. -1.
<scales pt_clust_5="13000.00000" pt_clust_6="13000.00000" pt_clust_7="13000.00000" pt_clust_8="13000.00000" pt_clust_9="21.01336"></scales>
<clustering>
<clus scale="   21.013">  2  9  1 -1</clus>
<clus scale="   80.239">  5  6 -1 -1</clus>
<clus scale="   87.797">  7  8 -1 -1</clus>
<clus scale="   93.864">  1  5  2 -1</clus>
<clus scale="   21.013">  2  5  1 -1</clus>
</clustering>
</event>
<event>
 9    2  0.6175212E-005  0.9560083E+02  0.7546771E-02  0.1294412E+00
         21   -1    0    0  501  502  0.00000000000E+00  0.00000000000E+00  0.67211274386E+03  0.67211274386E+03  0.00000000000E+00 0.  1.
         -3   -1    0    0    0  501 -0.00000000000E+00 -0.00000000000E+00 -0.10282206366E+03  0.10282206366E+03  0.00000000000E+00 0.  1.
         24    2    1    2    0    0  0.36059736163E+02 -0.81027884085E+00 -0.62776187261E+02  0.10953899868E+03  0.82200860220E+02 0.  0.
         23    2    1    2    0    0  0.27835183233E+02 -0.54670394233E+02  0.23203288696E+03  0.25650969834E+03  0.90522457302E+02 0.  0.
        -11    1    3    3    0    0  0.46011375338E+02 -0.13890535746E+02 -0.74984359390E+02  0.89065413023E+02  0.00000000000E+00 0.  1.
         12    1    3    3    0    0 -0.99516391753E+01  0.13080256905E+02  0.12208172128E+02  0.20473585658E+02  0.00000000000E+00 0. -1.
        -13    1    4    4    0    0  0.48176961218E+02  0.19371070522E+01  0.86393405975E+02  0.98937316377E+02  0.00000000000E+00 0.  1.
         13    1    4    4    0    0 -0.20341777985E+02 -0.56607501285E+02  0.14563948099E+03  0.15757238196E+03  0.00000000000E+00 0. -1.
         -4    1    1    2    0  502 -0.63894919396E+02  0.55480673074E+02  0.40003398049E+03  0.40888611050E+03  0.00000000000E+00 0.  1.
<scales pt_clust_5="13000.00000" pt_clust_6="13000.00000" pt_clust_7="13000.00000" pt_clust_8="13000.00000" pt_clust_9="84.62072"></scales>
<clustering>
<clus scale="   82.201">  5  6 -1 -1</clus>
<clus scale="   84.621">  1  9  2 -1</clus>
<clus scale="   87.762">  2  5  1 -1</clus>
<clus scale="   90.522">  7  8 -1 -1</clus>
<clus scale="   84.621">  1  5  2 -1</clus>
</clustering>
</event>
<event>
 9    2  0.6175212E-005  0.9230810E+02  0.7546771E-02  0.1303759E+00
          2   -1    0    0  502    0 -0.00000000000E+00  0.00000000000E+00  0.44919342837E+03  0.44919342837E+03  0.00000000000E+00 0. -1.
         21   -1    0    0  501  502  0.00000000000E+00 -0.00000000000E+00 -0.91420319233E+02  0.91420319233E+02  0.00000000000E+00 0. -1.
         24    2    1    2    0    0  0.10039457733E+02 -0.11333528287E+02  0.38986466322E+03  0.39847102591E+03  0.80965815528E+02 0.  0.
         23    2    1    2    0    0 -0.47166893428E+01 -0.11180799066E+02  0.11421243664E+02  0.92861991526E+02  0.91354514049E+02 0.  0.
        -11    1    3    3    0    0  0.14986942885E+02  0.26907045676E+02  0.72477278253E+02  0.78749942394E+02  0.00000000000E+00 0.  1.
         12    1    3    3    0    0 -0.49474851516E+01 -0.38240573962E+02  0.31738738497E+03  0.31972108351E+03  0.00000000000E+00 0. -1.
        -13    1    4    4    0    0 -0.45205289052E+02 -0.16625073117E+01  0.21470862424E+02  0.50072747299E+02  0.00000000000E+00 0. -1.
         13    1    4    4    0    0  0.40488599709E+02 -0.95182917546E+01 -0.10049618760E+02  0.42789244227E+02  0.00000000000E+00 0.  1.
          1    1    1    2  501    0 -0.53227683905E+01  0.22514327353E+02 -0.43512797742E+02  0.49280730177E+02  0.00000000000E+00 0. -1.
<scales pt_clust_5="13000.00000" pt_clust_6="13000.00000" pt_clust_7="13000.00000" pt_clust_8="13000.00000" pt_clust_9="23.13497"></scales>
<clustering>
<clus scale="   23.135">  2  9  1 -1</clus>
<clus scale="   80.966">  5  6 -1 -1</clus>
<clus scale="   82.040">  1  5  2 -1</clus>
<clus scale="   91.355">  7  8 -1 -1</clus>
<clus scale="   23.135">  2  5  1 -1</clus>
</clustering>
</event>
<event>
 9    2  0.6175212E-005  0.9544668E+02  0.7546771E-02  0.1300335E+00
         21   -1    0    0  501  502  0.00000000000E+00  0.00000000000E+00  0.23563608091E+02  0.23563608091E+02  0.00000000000E+00 0.  1.
          2   -1    0    0  502    0 -0.00000000000E+00 -0.00000000000E+00 -0.62498628706E+03  0.62498628706E+03  0.00000000000E+00 0. -1.
         24    2    1    2    0    0 -0.63721347590E+01  0.10265283123E+02 -0.16933063630E+03  0.18652088167E+03  0.77273506282E+02 0.  0.
         23    2    1    2    0    0 -0.36578330170E+02 -0.16331389031E+02 -0.18668782116E+03  0.21282072305E+03  0.93998027036E+02 0.  0.
        -11    1    3    3    0    0 -0.36140789887E+02 -0.54903928984E+01 -0.46457503061E+02  0.59115147792E+02  0.00000000000E+00 0.  1.
         12    1    3    3    0    0  0.29768655128E+02  0.15755676021E+02 -0.12287313323E+03  0.12740573388E+03  0.00000000000E+00 0. -1.
        -11    1    4    4    0    0 -0.31932382279E+02 -0.52469296258E+02 -0.14489085037E+03  0.15737236927E+03  0.00000000000E+00 0. -1.
         11    1    4    4    0    0 -0.46459478916E+01  0.36137907227E+02 -0.41796970788E+02  0.55448353786E+02  0.00000000000E+00 0.  1.
          1    1    1    2  501    0  0.42950464929E+02  0.60661059078E+01 -0.24540422152E+03  0.24920829043E+03  0.00000000000E+00 0. -1.
<scales pt_clust_5="13000.00000" pt_clust_6="13000.00000" pt_clust_7="13000.00000" pt_clust_8="13000.00000" pt_clust_9="43.37674"></scales>
<clustering>
<clus scale="   43.377">  1  9  2 -1</clus>
<clus scale="   77.274">  5  6 -1 -1</clus>
<clus scale="   79.029">  2  5  1 -1</clus>
<clus scale="   93.998">  7  8 -1 -1</clus>
<clus scale="   43.377">  1  5  2 -1</clus>
</clustering>
</event>
<event>
 9    2  0.6175212E-005  0.1329741E+03  0.7546771E-02  0.1244103E+00
          4   -1    0    0  502    0 -0.00000000000E+00  0.00000000000E+00  0.14235111396E+04  0.14235111396E+04  0.00000000000E+00 0. -1.
         21   -1    0    0  501  502  0.00000000000E+00 -0.00000000000E+00 -0.57862999103E+02  0.57862999103E+02  0.00000000000E+00 0. -1.
         24    2    1    2    0    0  0.33257038788E+02 -0.88846758255E+01  0.67933127969E+03  0.68480583625E+03  0.79265867202E+02 0.  0.
         23    2    1    2    0    0 -0.98624857843E+02  0.77528238301E+02  0.68439821418E+03  0.70176022447E+03  0.91263392194E+02 0.  0.
        -13    1    3    3    0    0  0.76359473606E+01 -0.31413974233E+02  0.11538259670E+03  0.11982607851E+03  0.00000000000E+00 0.  1.
         14    1    3    3    0    0  0.25621091428E+02  0.22529298408E+02  0.56394868299E+03  0.56497975775E+03  0.00000000000E+00 0. -1.
        -13    1    4    4    0    0 -0.41682609477E+02 -0.38401493480E+01  0.91741531714E+02  0.10083994903E+03  0.00000000000E+00 0.  1.
         13    1    4    4    0    0 -0.56942248367E+02  0.81368387649E+02  0.59265668247E+03  0.60092027544E+03  0.00000000000E+00 0. -1.
          3    1    1    2  501    0  0.65367819055E+02 -0.68643562475E+02  0.19186465797E+01  0.94808077937E+02  0.00000000000E+00 0. -1.
<scales pt_clust_5="13000.00000" pt_clust_6="13000.00000" pt_clust_7="13000.00000" pt_clust_8="13000.00000" pt_clust_9="96.71144"></scales>
<clustering>
<clus scale="   79.266">  5  6 -1 -1</clus>
<clus scale="   86.418">  1  5  2 -1</clus>
<clus scale="   91.263">  7  8 -1 -1</clus>
<clus scale="   96.711">  2  9  1 -1</clus>
<clus scale="   96.711">  2  5  1 -1</clus>
</clustering>
</event>
<event>
 9    2  0.6175212E-005  0.1330018E+03  0.7546771E-02  0.1241170E+00
         21   -1    0    0  501  502  0.00000000000E+00  0.00000000000E+00  0.11546338363E+03  0.11546338363E+03  0.00000000000E+00 0. -1.
          2   -1    0    0  502    0 -0.00000000000E+00 -0.00000000000E+00 -0.32150784949E+03  0.32150784949E+03  0.00000000000E+00 0. -1.
         23    2    1    2    0    0 -0.24518844734E+02 -0.85844856593E+01  0.30998608363E+02  0.96741130543E+02  0.87880973351E+02 0.  0.
         24    2    1    2    0    0 -0.45404674318E+01 -0.99397656954E+02 -0.15989059891E+03  0.20437322496E+03  0.79390814391E+02 0.  0.
        -13    1    4    4    0    0 -0.24556962561E+02 -0.19443163777E+02 -0.92518178383E+01  0.32660023901E+02  0.00000000000E+00 0.  1.
         14    1    4    4    0    0  0.20016495129E+02 -0.79954493177E+02 -0.15063878107E+03  0.17171320106E+03  0.00000000000E+00 0. -1.
        -11    1    3    3    0    0 -0.39212012031E+02 -0.40434270186E+02  0.22483942636E+02  0.60646844679E+02  0.00000000000E+00 0. -1.
         11    1    3    3    0    0  0.14693167297E+02  0.31849784527E+02  0.85146657264E+01  0.36094285864E+02  0.00000000000E+00 0.  1.
          1    1    1    2  501    0  0.29059312166E+02  0.10798214261E+03 -0.77152475322E+02  0.13585687761E+03  0.00000000000E+00 0. -1.
<scales pt_clust_5="13000.00000" pt_clust_6="13000.00000" pt_clust_7="13000.00000" pt_clust_8="13000.00000" pt_clust_9="106.70787"></scales>
<clustering>
<clus scale="   79.391">  5  6 -1 -1</clus>
<clus scale="   87.881">  7  8 -1 -1</clus>
<clus scale="   91.640">  2  7  1 -1</clus>
<clus scale="  106.708">  1  9  2 -1</clus>
<clus scale="  106.708">  1  5  2 -1</clus>
</clustering>
</event>
<event>
 9    2  0.6175212E-005  0.1014127E+03  0.7546771E-02  0.1282813E+00
         21   -1    0    0  501  502  0.00000000000E+00  0.00000000000E+00  0.24246695863E+02  0.24246695863E+02  0.00000000000E+00 0.  1.
         -1   -1    0    0    0  501 -0.00000000000E+00 -0.00000000000E+00 -0.97912248879E+03  0.97912248879E+03  0.00000000000E+00 0.  1.
         23    2    1    2    0    0 -0.14895373471E+02 -0.12491469362E+02 -0.31806023825E+03  0.33139119432E+03  0.90993953405E+02 0.  0.
         24    2    1    2    0    0  0.96500785135E+02 -0.15903058717E+02 -0.33231662212E+03  0.35545738696E+03  0.79688818508E+02 0.  0.
        -13    1    4    4    0    0  0.92233143325E+02 -0.27029214151E+02 -0.32947408693E+03  0.34320650504E+03  0.00000000000E+00 0.  1.
         14    1    4    4    0    0  0.42676418098E+01  0.11126155434E+02 -0.28425351929E+01  0.12250881915E+02  0.00000000000E+00 0. -1.
        -13    1    3    3    0    0  0.32357313297E+02 -0.20707896089E+02 -0.20516140874E+03  0.20872713365E+03  0.00000000000E+00 0. -1.
         13    1    3    3    0    0 -0.47252686768E+02  0.82164267263E+01 -0.11289882951E+03  0.12266406067E+03  0.00000000000E+00 0.  1.
         -2    1    1    2    0  502 -0.81605411663E+02  0.28394528079E+02 -0.30449893255E+03  0.31652060337E+03  0.00000000000E+00 0.  1.
<scales pt_clust_5="13000.00000" pt_clust_6="13000.00000" pt_clust_7="13000.00000" pt_clust_8="13000.00000" pt_clust_9="86.40428"></scales>
<clustering>
<clus scale="   79.689">  5  6 -1 -1</clus>
<clus scale="   86.404">  1  9  2 -1</clus>
<clus scale="   90.994">  7  8 -1 -1</clus>
<clus scale="   91.405">  1  5  2 -1</clus>
<clus scale="   86.404">  1  5  2 -1</clus>
</clustering>
</event>
<event>
 9    2  0.7313887E-005  0.9134813E+02  0.7546771E-02  0.1310407E+00
         21   -1    0    0  501  502  0.00000000000E+00  0.00000000000E+00  0.16271729758E+03  0.16271729758E+03  0.00000000000E+00 0. -1.
          2   -1    0    0  502    0 -0.00000000000E+00 -0.00000000000E+00 -0.21436512288E+03  0.21436512288E+03  0.00000000000E+00 0. -1.
         23    2    1    2    0    0 -0.26459114284E+01  0.17599046026E+02 -0.17578588044E+03  0.19834261356E+03  0.90124299293E+02 0.  0.
         24    2    1    2    0    0 -0.12771486039E+02 -0.21422742978E+01  0.27287747476E+02  0.79459446156E+02  0.73494776864E+02 0.  0.
        -11    1    4    4    0    0 -0.13927682406E+02 -0.36737050270E+02  0.89791806262E+01  0.40301574218E+02  0.00000000000E+00 0.  1.
         12    1    4    4    0    0  0.11561963668E+01  0.34594775972E+02  0.18308566850E+02  0.39157871938E+02  0.00000000000E+00 0. -1.
        -13    1    3    3    0    0 -0.23108589306E+02  0.20894788777E+02 -0.17484070972E+03  0.17759468706E+03  0.00000000000E+00 0. -1.
         13    1    3    3    0    0  0.20462677878E+02 -0.32957427505E+01 -0.94517072054E+00  0.20747926497E+02  0.00000000000E+00 0.  1.
          1    1    1    2  501    0  0.15417397467E+02 -0.15456771728E+02  0.96850307662E+02  0.99280360752E+02  0.00000000000E+00 0. -1.
<scales pt_clust_5="13000.00000" pt_clust_6="13000.00000" pt_clust_7="13000.00000" pt_clust_8="13000.00000" pt_clust_9="21.83135"></scales>
<clustering>
<clus scale="   21.831">  1  9  2 -1</clus>
<clus scale="   73.495">  5  6 -1 -1</clus>
<clus scale="   74.990">  1  5  2 -1</clus>
<clus scale="   90.124">  7  8 -1 -1</clus>
<clus scale="   21.831">  1  5  2 -1</clus>
</clustering>
</event>
<event>
 9    2  0.6175212E-005  0.1085221E+03  0.7546771E-02  0.1276698E+00
         21   -1    0    0  501  502  0.00000000000E+00  0.00000000000E+00  0.34028763188E+02  0.34028763188E+02  0.00000000000E+00 0. -1.
          2   -1    0    0  502    0 -0.00000000000E+00 -0.00000000000E+00 -0.49748134891E+03  0.49748134891E+03  0.00000000000E+00 0. -1.
         24    2    1    2    0    0 -0.87788653316E+01 -0.48533036834E+02 -0.17350231510E+03  0.19064364527E+03  0.61720515183E+02 0.  0.
         23    2    1    2    0    0 -0.26355537481E+02  0.67466428965E+02 -0.27353660375E+03  0.29771199941E+03  0.92540950955E+02 0.  0.
        -13    1    3    3    0    0  0.26261105392E+02 -0.16232053913E+02 -0.78649326644E+02  0.84491667117E+02  0.00000000000E+00 0.  1.
         14    1    3    3    0    0 -0.35039970724E+02 -0.32300982921E+02 -0.94852988455E+02  0.10615197815E+03  0.00000000000E+00 0. -1.
        -13    1    4    4    0    0 -0.46126504927E+02  0.32338288716E+02 -0.68204400984E+02  0.88460497892E+02  0.00000000000E+00 0.  1.
         13    1    4    4    0    0  0.19770967446E+02  0.35128140249E+02 -0.20533220277E+03  0.20925150151E+03  0.00000000000E+00 0. -1.
          1    1    1    2  501    0  0.35134402813E+02 -0.18933392131E+02 -0.16413666865E+02  0.43154467423E+02  0.00000000000E+00 0. -1.
<scales pt_clust_5="13000.00000" pt_clust_6="13000.00000" pt_clust_7="13000.00000" pt_clust_8="13000.00000" pt_clust_9="39.91115"></scales>
<clustering>
<clus scale="   39.911">  1  9  2 -1</clus>
<clus scale="   61.721">  5  6 -1 -1</clus>
<clus scale="   83.801">  2  5  1 -1</clus>
<clus scale="   92.541">  7  8 -1 -1</clus>
<clus scale="   39.911">  1  5  2 -1</clus>
</clustering>
</event>
<event>
 9    2  0.6175212E-005  0.1363399E+03  0.7546771E-02  0.1237359E+00
          2   -1    0    0  502    0 -0.00000000000E+00  0.00000000000E+00  0.18434566606E+03  0.18434566606E+03  0.00000000000E+00 0. -1.
         21   -1    0    0  501  502  0.00000000000E+00 -0.00000000000E+00 -0.29390274982E+03  0.29390274982E+03  0.00000000000E+00 0.  1.
         23    2    1    2    0    0  0.20042360029E+02  0.44504876831E+01  0.63623594298E+02  0.11179808252E+03  0.89606620667E+02 0.  0.
         24    2    1    2    0    0 -0.10734006482E+03 -0.40967686185E+02 -0.22015392696E+03  0.26080526173E+03  0.79695621994E+02 0.  0.
        -11    1    4    4    0    0 -0.11353553496E+03 -0.47747330563E+02 -0.21937779692E+03  0.25158843983E+03  0.00000000000E+00 0.  1.
         12    1    4    4    0    0  0.61954701418E+01  0.67796443775E+01 -0.77613004078E+00  0.92168219036E+01  0.00000000000E+00 0. -1.
        -13    1    3    3    0    0  0.88978805050E+01  0.47049262194E+02  0.32211350532E+02  0.57709413908E+02  0.00000000000E+00 0.  1.
         13    1    3    3    0    0  0.11144479524E+02 -0.42598774511E+02  0.31412243766E+02  0.54088668611E+02  0.00000000000E+00 0. -1.
          1    1    1    2  501    0  0.87297704791E+02  0.36517198502E+02  0.46973248891E+02  0.10564507163E+03  0.00000000000E+00 0. -1.
<scales pt_clust_5="13000.00000" pt_clust_6="13000.00000" pt_clust_7="13000.00000" pt_clust_8="13000.00000" pt_clust_9="110.62185"></scales>
<clustering>
<clus scale="   79.696">  5  6 -1 -1</clus>
<clus scale="   89.607">  7  8 -1 -1</clus>
<clus scale="   91.929">  1  7  2 -1</clus>
<clus scale="  110.622">  2  9  1 -1</clus>
<clus scale="  110.622">  2  5  1 -1</clus>
</clustering>
</event>
<event>
 9    2  0.6175212E-005  0.1000638E+03  0.7546771E-02  0.1283913E+00
          2   -1    0    0  502    0 -0.00000000000E+00  0.00000000000E+00  0.18302374133E+03  0.18302374133E+03  0.00000000000E+00 0. -1.
         21   -1    0    0  501  502  0.00000000000E+00 -0.00000000000E+00 -0.12609622684E+03  0.12609622684E+03  0.00000000000E+00 0.  1.
         24    2    1    2    0    0 -0.46799460603E+02  0.50714725799E+02  0.85150661692E+02  0.13623277191E+03  0.80910815287E+02 0.  0.
         23    2    1    2    0    0 -0.22335054404E+02 -0.15032276148E+02 -0.13617264120E+02  0.93728177823E+02  0.88739604768E+02 0.  0.
        -11    1    3    3    0    0 -0.48000665587E+02  0.42418367880E+02  0.10024664851E+03  0.11896542509E+03  0.00000000000E+00 0.  1.
         12    1    3    3    0    0  0.12012049839E+01  0.82963579190E+01 -0.15095986817E+02  0.17267346818E+02  0.00000000000E+00 0. -1.
        -13    1    4    4    0    0  0.20324797005E+01 -0.23351693766E+02 -0.46434504459E+02  0.52015341774E+02  0.00000000000E+00 0.  1.
         13    1    4    4    0    0 -0.24367534105E+02  0.83194176179E+01  0.32817240338E+02  0.41712836049E+02  0.00000000000E+00 0. -1.
          1    1    1    2  501    0  0.69134515007E+02 -0.35682449651E+02 -0.14605883087E+02  0.79159018432E+02  0.00000000000E+00 0. -1.
<scales pt_clust_5="13000.00000" pt_clust_6="13000.00000" pt_clust_7="13000.00000" pt_clust_8="13000.00000" pt_clust_9="77.79986"></scales>
<clustering>
<clus scale="   77.800">  2  9  1 -1</clus>
<clus scale="   80.911">  5  6 -1 -1</clus>
<clus scale="   88.740">  7  8 -1 -1</clus>
<clus scale="   93.191">  1  5  2 -1</clus>
<clus scale="   77.800">  2  5  1 -1</clus>
</clustering>
</event>
<event>
 9    2  0.6175212E-005  0.3902514E+03  0.7546771E-02  0.1089388E+00
          2   -1    0    0  502    0 -0.00000000000E+00  0.00000000000E+00  0.14167675579E+04  0.14167675579E+04  0.00000000000E+00 0. -1.
         21   -1    0    0  501  502  0.00000000000E+00 -0.00000000000E+00 -0.20325363117E+03  0.20325363117E+03  0.00000000000E+00 0. -1.
         24    2    1    2    0    0 -0.88114520117E+02  0.11659142555E+02  0.26991728623E+02  0.12501417753E+03  0.83665326796E+02 0.  0.
         23    2    1    2    0    0  0.23627765342E+03 -0.31725683928E+03  0.19940130985E+03  0.45109613683E+03  0.85134074966E+02 0.  0.
        -13    1    3    3    0    0 -0.35666873391E+02  0.45537010242E+02  0.23639475647E+02  0.62486558300E+02  0.00000000000E+00 0.  1.
         14    1    3    3    0    0 -0.52447646726E+02 -0.33877867687E+02  0.33522529761E+01  0.62527619226E+02  0.00000000000E+00 0. -1.
        -13    1    4    4    0    0  0.24254861238E+03 -0.29738795539E+03  0.19051314883E+03  0.42844449495E+03  0.00000000000E+00 0. -1.
         13    1    4    4    0    0 -0.62709589646E+01 -0.19868883898E+02  0.88881610214E+01  0.22651641884E+02  0.00000000000E+00 0.  1.
          1    1    1    2  501    0 -0.14816313330E+03  0.30559769673E+03  0.98712088822E+03  0.10439108747E+04  0.00000000000E+00 0. -1.
<scales pt_clust_5="13000.00000" pt_clust_6="13000.00000" pt_clust_7="13000.00000" pt_clust_8="13000.00000" pt_clust_9="380.85232"></scales>
<clustering>
<clus scale="   83.665">  5  6 -1 -1</clus>
<clus scale="   85.134">  7  8 -1 -1</clus>
<clus scale="  122.066">  1  5  2 -1</clus>
<clus scale="  380.852">  2  9  1 -1</clus>
<clus scale="  380.852">  2  5  1 -1</clus>
</clustering>
</event>
<event>
 9    2  0.6175212E-005  0.2172132E+03  0.7546771E-02  0.1136624E+00
         21   -1    0    0  501  502  0.00000000000E+00  0.00000000000E+00  0.56685969201E+02  0.56685969201E+02  0.00000000000E+00 0. -1.
          2   -1    0    0  502    0 -0.00000000000E+00 -0.00000000000E+00 -0.14949465184E+04  0.14949465184E+04  0.00000000000E+00 0. -1.
         24    2    1    2    0    0  0.20757040019E+03  0.33253228496E+02 -0.11837116839E+04  0.12049263451E+04  0.80516446868E+02 0.  0.
         23    2    1    2    0    0 -0.15524713932E+03 -0.34960495541E+02 -0.20815732533E+03  0.27675749444E+03  0.89114129770E+02 0.  0.
        -11    1    3    3    0    0  0.13443100370E+03  0.36699723769E+01 -0.54436921403E+03  0.56073434409E+03  0.00000000000E+00 0.  1.
         12    1    3    3    0    0  0.73139396488E+02  0.29583256119E+02 -0.63934246984E+03  0.64419200096E+03  0.00000000000E+00 0. -1.
        -11    1    4    4    0    0 -0.66792833307E+02 -0.12126867699E+02 -0.15929564907E+03  0.17315729068E+03  0.00000000000E+00 0.  1.
         11    1    4    4    0    0 -0.88454306016E+02 -0.22833627842E+02 -0.48861676256E+02  0.10360020376E+03  0.00000000000E+00 0. -1.
          1    1    1    2  501    0 -0.52323260864E+02  0.17072670449E+01 -0.46391539971E+02  0.69948648086E+02  0.00000000000E+00 0. -1.
<scales pt_clust_5="13000.00000" pt_clust_6="13000.00000" pt_clust_7="13000.00000" pt_clust_8="13000.00000" pt_clust_9="52.35111"></scales>
<clustering>
<clus scale="   52.351">  1  9  2 -1</clus>
<clus scale="   80.516">  5  6 -1 -1</clus>
<clus scale="   89.114">  7  8 -1 -1</clus>
<clus scale="  213.830">  2  5  1 -1</clus>
<clus scale="   52.351">  1  5  2 -1</clus>
</clustering>
</event>
<event>
 9    2  0.6175212E-005  0.1108434E+03  0.7546771E-02  0.1264294E+00
         21   -1    0    0  501  502  0.00000000000E+00  0.00000000000E+00  0.47545784649E+03  0.47545784649E+03  0.00000000000E+00 0.  1.
         -1   -1    0    0    0  501 -0.00000000000E+00 -0.00000000000E+00 -0.66166690519E+02  0.66166690519E+02  0.00000000000E+00 0.  1.
         24    2    1    2    0    0  0.28507675837E+02 -0.47275255758E+02  0.10741452412E+02  0.98203669131E+02  0.80504313190E+02 0.  0.
         23    2    1    2    0    0 -0.68485392543E+02  0.40364362226E+02  0.16150934127E+03  0.20293362989E+03  0.93687032678E+02 0.  0.
        -13    1    3    3    0    0 -0.23035568175E+02 -0.20462082006E+02  0.23461796850E+02  0.38727123732E+02  0.00000000000E+00 0.  1.
         14    1    3    3    0    0  0.51543244012E+02 -0.26813173752E+02 -0.12720344438E+02  0.59476545398E+02  0.00000000000E+00 0. -1.
        -11    1    4    4    0    0 -0.24499894571E+02 -0.20700321588E+02  0.10220036759E+03  0.10711518698E+03  0.00000000000E+00 0.  1.
         11    1    4    4    0    0 -0.43985497972E+02  0.61064683814E+02  0.59308973687E+02  0.95818442906E+02  0.00000000000E+00 0. -1.
         -2    1    1    2    0  502  0.39977716706E+02  0.69108935326E+01  0.23704036228E+03  0.24048723798E+03  0.00000000000E+00 0.  1.
<scales pt_clust_5="13000.00000" pt_clust_6="13000.00000" pt_clust_7="13000.00000" pt_clust_8="13000.00000" pt_clust_9="40.57066"></scales>
<clustering>
<clus scale="   40.571">  1  9  2 -1</clus>
<clus scale="   80.504">  5  6 -1 -1</clus>
<clus scale="   93.687">  7  8 -1 -1</clus>
<clus scale="   99.950">  2  5  1 -1</clus>
<clus scale="   40.571">  1  5  2 -1</clus>
</clustering>
</event>
<event>
 9    2  0.6175212E-005  0.8751445E+02  0.7546771E-02  0.1309261E+00
          4   -1    0    0  502    0 -0.00000000000E+00  0.00000000000E+00  0.21482929403E+03  0.21482929403E+03  0.00000000000E+00 0. -1.
         21   -1    0    0  501  502  0.00000000000E+00 -0.00000000000E+00 -0.81852356230E+02  0.81852356230E+02  0.00000000000E+00 0. -1.
         24    2    1    2    0    0 -0.22914030140E+02  0.70172286798E+01  0.75640262543E+02  0.11699261528E+03  0.85973998616E+02 0.  0.
         23    2    1    2    0    0 -0.42108605446E+02 -0.31294804642E+02  0.40964582526E+02  0.10837711975E+03  0.85527794389E+02 0.  0.
        -13    1    3    3    0    0 -0.12760473690E+02 -0.36049582913E+02  0.13182544532E+02  0.40449741623E+02  0.00000000000E+00 0.  1.
         14    1    3    3    0    0 -0.10153556450E+02  0.43066811593E+02  0.62457718010E+02  0.76542873662E+02  0.00000000000E+00 0. -1.
        -11    1    4    4    0    0 -0.17198177056E+02 -0.10241747419E+02  0.64903028642E+02  0.67919612861E+02  0.00000000000E+00 0.  1.
         11    1    4    4    0    0 -0.24910428390E+02 -0.21053057223E+02 -0.23938446116E+02  0.40457506887E+02  0.00000000000E+00 0. -1.
          3    1    1    2  501    0  0.65022635586E+02  0.24277575962E+02  0.16372092732E+02  0.71311915229E+02  0.00000000000E+00 0. -1.
<scales pt_clust_5="13000.00000" pt_clust_6="13000.00000" pt_clust_7="13000.00000" pt_clust_8="13000.00000" pt_clust_9="69.40709"></scales>
<clustering>
<clus scale="   69.407">  2  9  1 -1</clus>
<clus scale="   85.528">  7  8 -1 -1</clus>
<clus scale="   85.974">  5  6 -1 -1</clus>
<clus scale="   87.076">  2  7  1 -1</clus>
<clus scale="   69.407">  2  5  1 -1</clus>
</clustering>
</event>
<event>
 9    2  0.6175212E-005  0.3251348E+03  0.7546771E-02  0.1073599E+00
         21   -1    0    0  501  502  0.00000000000E+00  0.00000000000E+00  0.94380802350E+02  0.94380802350E+02  0.00000000000E+00 0.  1.
         -1   -1    0    0    0  501 -0.00000000000E+00 -0.00000000000E+00 -0.24538680311E+04  0.24538680311E+04  0.00000000000E+00 0.  1.
         23    2    1    2    0    0 -0.18336308655E+03 -0.22966337700E+03 -0.13148960780E+04  0.13503927024E+04  0.90782522500E+02 0.  0.
         24    2    1    2    0    0  0.19547467497E+03  0.33659961210E+03 -0.48092850295E+03  0.62401152715E+03  0.81169659645E+02 0.  0.
        -13    1    4    4    0    0  0.12651866634E+03  0.24904384020E+03 -0.39244380029E+03  0.48170732158E+03  0.00000000000E+00 0.  1.
         14    1    4    4    0    0  0.68956008632E+02  0.87555771895E+02 -0.88484702656E+02  0.14230420557E+03  0.00000000000E+00 0. -1.
        -11    1    3    3    0    0 -0.12154776529E+03 -0.86146198108E+02 -0.72513378267E+03  0.74027969678E+03  0.00000000000E+00 0.  1.
         11    1    3    3    0    0 -0.61815321264E+02 -0.14351717890E+03 -0.58976229535E+03  0.61011300560E+03  0.00000000000E+00 0. -1.
         -2    1    1    2    0  502 -0.12111588415E+02 -0.10693623510E+03 -0.56366264776E+03  0.57384460390E+03  0.00000000000E+00 0.  1.
<scales pt_clust_5="13000.00000" pt_clust_6="13000.00000" pt_clust_7="13000.00000" pt_clust_8="13000.00000" pt_clust_9="107.61998"></scales>
<clustering>
<clus scale="   81.170">  5  6 -1 -1</clus>
<clus scale="   90.783">  7  8 -1 -1</clus>
<clus scale="  107.620">  1  9  2 -1</clus>
<clus scale="  322.583">  1  5  2 -1</clus>
<clus scale="  107.620">  1  5  2 -1</clus>
</clustering>
</event>
<event>
 9    2  0.6175212E-005  0.1025833E+03  0.7546771E-02  0.1283962E+00
          2   -1    0    0  502    0 -0.00000000000E+00  0.00000000000E+00  0.71159702304E+03  0.71159702304E+03  0.00000000000E+00 0. -1.
         21   -1    0    0  501  502  0.00000000000E+00 -0.00000000000E+00 -0.22030812719E+02  0.22030812719E+02  0.00000000000E+00 0.  1.
         24    2    1    2    0    0  0.58294596780E+02  0.22329194160E+02  0.53929795392E+03  0.54959161580E+03  0.85509111378E+02 0.  0.
         23    2    1    2    0    0 -0.45831919450E+02 -0.28238270442E+01  0.13325679931E+03  0.15531049377E+03  0.65233703513E+02 0.  0.
        -11    1    3    3    0    0  0.76006665728E+02  0.20056509436E+02  0.31790150623E+03  0.32747617390E+03  0.00000000000E+00 0.  1.
         12    1    3    3    0    0 -0.17712068948E+02  0.22726847239E+01  0.22139644769E+03  0.22211544190E+03  0.00000000000E+00 0. -1.
        -13    1    4    4    0    0 -0.35803498978E+02  0.26368985499E+02  0.10252923422E+03  0.11175624280E+03  0.00000000000E+00 0.  1.
         13    1    4    4    0    0 -0.10028420472E+02 -0.29192812544E+02  0.30727565090E+02  0.43554250972E+02  0.00000000000E+00 0. -1.
          1    1    1    2  501    0 -0.12462677329E+02 -0.19505367116E+02  0.17011457089E+02  0.28725726185E+02  0.00000000000E+00 0. -1.
<scales pt_clust_5="13000.00000" pt_clust_6="13000.00000" pt_clust_7="13000.00000" pt_clust_8="13000.00000" pt_clust_9="23.14687"></scales>
<clustering>
<clus scale="   23.147">  2  9  1 -1</clus>
<clus scale="   65.234">  7  8 -1 -1</clus>
<clus scale="   85.509">  5  6 -1 -1</clus>
<clus scale="   86.412">  2  7  1 -1</clus>
<clus scale="   23.147">  2  5  1 -1</clus>
</clustering>
</event>
<event>
 9    2  0.6175212E-005  0.1269214E+03  0.7546771E-02  0.1235849E+00
         21   -1    0    0  501  502  0.00000000000E+00  0.00000000000E+00  0.48104214809E+03  0.48104214809E+03  0.00000000000E+00 0. -1.
         -1   -1    0    0    0  501 -0.00000000000E+00 -0.00000000000E+00 -0.49484994078E+02  0.49484994078E+02  0.00000000000E+00 0.  1.
         24    2    1    2    0    0 -0.85412549574E+02  0.46203745609E+02  0.79526017735E+02  0.14793625721E+03  0.78298524687E+02 0.  0.
         23    2    1    2    0    0  0.64366978061E+02 -0.20446080333E+02  0.23932283963E+03  0.26507691330E+03  0.91810665675E+02 0.  0.
        -13    1    3    3    0    0 -0.97450137299E+02  0.27131640587E+02  0.57235186915E+02  0.11622616660E+03  0.00000000000E+00 0.  1.
         14    1    3    3    0    0  0.12037587725E+02  0.19072105022E+02  0.22290830820E+02  0.31710090616E+02  0.00000000000E+00 0. -1.
        -13    1    4    4    0    0  0.61110243667E+02 -0.45092246260E+02  0.22238345195E+03  0.23499398345E+03  0.00000000000E+00 0. -1.
         13    1    4    4    0    0  0.32567343940E+01  0.24646165927E+02  0.16939387678E+02  0.30082929856E+02  0.00000000000E+00 0.  1.
         -2    1    1    2    0  502  0.21045571513E+02 -0.25757665276E+02  0.11270829664E+03  0.11751397165E+03  0.00000000000E+00 0.  1.
<scales pt_clust_5="13000.00000" pt_clust_6="13000.00000" pt_clust_7="13000.00000" pt_clust_8="13000.00000" pt_clust_9="33.26219"></scales>
<clustering>
<clus scale="   33.262">  1  9  2 -1</clus>
<clus scale="   78.299">  5  6 -1 -1</clus>
<clus scale="   91.811">  7  8 -1 -1</clus>
<clus scale="  117.518">  2  5  1 -1</clus>
<clus scale="   33.262">  1  5  2 -1</clus>
</clustering>
</event>
<event>
 9    2  0.6175212E-005  0.9503701E+02  0.7546771E-02  0.1298007E+00
         21   -1    0    0  501  502  0.00000000000E+00  0.00000000000E+00  0.21811930378E+03  0.21811930378E+03  0.00000000000E+00 0. -1.
         -3   -1    0    0    0  501 -0.00000000000E+00 -0.00000000000E+00 -0.90016891127E+02  0.90016891127E+02  0.00000000000E+00 0.  1.
         24    2    1    2    0    0 -0.21076706520E+02 -0.14467849255E+02 -0.45250750817E+02  0.95427101976E+02  0.80032213028E+02 0.  0.
         23    2    1    2    0    0 -0.23289821032E+01  0.26127658252E+02  0.14861093368E+03  0.17670971320E+03  0.91940385296E+02 0.  0.
        -11    1    3    3    0    0 -0.17057614392E+02 -0.39321224961E+02  0.88304753042E+00  0.42870744268E+02  0.00000000000E+00 0.  1.
         12    1    3    3    0    0 -0.40190921280E+01  0.24853375706E+02 -0.46133798347E+02  0.52556357707E+02  0.00000000000E+00 0. -1.
        -13    1    4    4    0    0  0.31652002379E+02  0.45613633089E+02  0.74856013160E+02  0.93198044424E+02  0.00000000000E+00 0.  1.
         13    1    4    4    0    0 -0.33980984482E+02 -0.19485974837E+02  0.73754920517E+02  0.83511668779E+02  0.00000000000E+00 0. -1.
         -4    1    1    2    0  502  0.23405688623E+02 -0.11659808997E+02  0.24742229793E+02  0.35999379729E+02  0.00000000000E+00 0.  1.
<scales pt_clust_5="13000.00000" pt_clust_6="13000.00000" pt_clust_7="13000.00000" pt_clust_8="13000.00000" pt_clust_9="26.14914"></scales>
<clustering>
<clus scale="   26.149">  1  9  2 -1</clus>
<clus scale="   80.032">  5  6 -1 -1</clus>
<clus scale="   83.571">  2  5  1 -1</clus>
<clus scale="   91.940">  7  8 -1 -1</clus>
<clus scale="   26.149">  1  5  2 -1</clus>
</clustering>
</event>
<event>
 9    2  0.6175212E-005  0.1648688E+03  0.7546771E-02  0.1183706E+00
          2   -1    0    0  502    0 -0.00000000000E+00  0.00000000000E+00  0.94693968557E+03  0.94693968557E+03  0.00000000000E+00 0. -1.
         21   -1    0    0  501  502  0.00000000000E+00 -0.00000000000E+00 -0.57557780280E+02  0.57557780280E+02  0.00000000000E+00 0. -1.
         24    2    1    2    0    0 -0.14686270209E+03 -0.38873852973E+02  0.72977506595E+03  0.74963393168E+03  0.79369735628E+02 0.  0.
         23    2    1    2    0    0  0.10403379481E+03  0.15683817070E+02  0.65257155198E+02  0.14868464756E+03  0.82338420767E+02 0.  0.
        -13    1    3    3    0    0 -0.74383022809E+02 -0.11807413065E+02  0.19067236071E+03  0.20500780040E+03  0.00000000000E+00 0.  1.
         14    1    3    3    0    0 -0.72479679283E+02 -0.27066439908E+02  0.53910270523E+03  0.54462613128E+03  0.00000000000E+00 0. -1.
        -11    1    4    4    0    0  0.67939973640E+02  0.45292342875E+02  0.20895357396E+02  0.84284353838E+02  0.00000000000E+00 0.  1.
         11    1    4    4    0    0  0.36093821175E+02 -0.29608525805E+02  0.44361797802E+02  0.64400293723E+02  0.00000000000E+00 0. -1.
          1    1    1    2  501    0  0.42828907278E+02  0.23190035903E+02  0.94349684144E+02  0.10617888661E+03  0.00000000000E+00 0. -1.
<scales pt_clust_5="13000.00000" pt_clust_6="13000.00000" pt_clust_7="13000.00000" pt_clust_8="13000.00000" pt_clust_9="48.70416"></scales>
<clustering>
<clus scale="   48.704">  2  9  1 -1</clus>
<clus scale="   79.370">  5  6 -1 -1</clus>
<clus scale="   82.338">  7  8 -1 -1</clus>
<clus scale="  163.406">  1  5  2 -1</clus>
<clus scale="   48.704">  2  5  1 -1</clus>
</clustering>
</event>
<event>
 9    2  0.6175212E-005  0.1344977E+03  0.7546771E-02  0.1223234E+00
          2   -1    0    0  502    0 -0.00000000000E+00  0.00000000000E+00  0.54917655950E+03  0.54917655950E+03  0.00000000000E+00 0. -1.
         21   -1    0    0  501  502  0.00000000000E+00 -0.00000000000E+00 -0.16188278121E+03  0.16188278121E+03  0.00000000000E+00 0. -1.
         24    2    1    2    0    0 -0.91592346473E+02  0.56424476579E+02  0.31116431726E+03  0.33900410062E+03  0.80793987442E+02 0.  0.
         23    2    1    2    0    0  0.71714285001E+02 -0.53044211136E+02  0.20523343246E+03  0.24138619645E+03  0.90498105111E+02 0.  0.
        -13    1    3    3    0    0 -0.61085355192E+02  0.89637536628E+01  0.79994799560E+02  0.10104918335E+03  0.00000000000E+00 0.  1.
         14    1    3    3    0    0 -0.30506991281E+02  0.47460722916E+02  0.23116951770E+03  0.23795491727E+03  0.00000000000E+00 0. -1.
        -13    1    4    4    0    0  0.21738985487E+02 -0.45755257354E+02  0.29677529377E+02  0.58710159388E+02  0.00000000000E+00 0.  1.
         13    1    4    4    0    0  0.49975299514E+02 -0.72889537826E+01  0.17555590309E+03  0.18267603706E+03  0.00000000000E+00 0. -1.
          1    1    1    2  501    0  0.19878061472E+02 -0.33802654425E+01 -0.12910397144E+03  0.13066904363E+03  0.00000000000E+00 0. -1.
<scales pt_clust_5="13000.00000" pt_clust_6="13000.00000" pt_clust_7="13000.00000" pt_clust_8="13000.00000" pt_clust_9="20.16342"></scales>
<clustering>
<clus scale="   20.163">  2  9  1 -1</clus>
<clus scale="   80.794">  5  6 -1 -1</clus>
<clus scale="   90.498">  7  8 -1 -1</clus>
<clus scale="  128.169">  1  5  2 -1</clus>
<clus scale="   20.163">  2  5  1 -1</clus>
</clustering>
</event>
<event>
 9    2  0.6175212E-005  0.1147945E+03  0.7546771E-02  0.1256694E+00
         21   -1    0    0  501  502  0.00000000000E+00  0.00000000000E+00  0.12816747304E+03  0.12816747304E+03  0.00000000000E+00 0. -1.
         -3   -1    0    0    0  501 -0.00000000000E+00 -0.00000000000E+00 -0.25481733881E+03  0.25481733881E+03  0.00000000000E+00 0.  1.
         23    2    1    2    0    0 -0.65562925789E+01  0.67241988206E+02 -0.17762166239E+03  0.21160869468E+03  0.93082301023E+02 0.  0.
         24    2    1    2    0    0 -0.18505059546E+02 -0.67011405948E+02 -0.90146806401E+01  0.10636456441E+03  0.79994939461E+02 0.  0.
        -13    1    4    4    0    0 -0.46675516999E+02 -0.41455451931E+02  0.10993354565E+02  0.63387792410E+02  0.00000000000E+00 0.  1.
         14    1    4    4    0    0  0.28170457454E+02 -0.25555954016E+02 -0.20008035205E+02  0.42976772001E+02  0.00000000000E+00 0. -1.
        -11    1    3    3    0    0  0.31768419884E+02  0.53548072576E+00 -0.24063167082E+02  0.39856683900E+02  0.00000000000E+00 0. -1.
         11    1    3    3    0    0 -0.38324712463E+02  0.66706507481E+02 -0.15355849531E+03  0.17175201078E+03  0.00000000000E+00 0.  1.
         -4    1    1    2    0  502  0.25061352124E+02 -0.23058225890E+00  0.59986477254E+02  0.65011552757E+02  0.00000000000E+00 0.  1.
<scales pt_clust_5="13000.00000" pt_clust_6="13000.00000" pt_clust_7="13000.00000" pt_clust_8="13000.00000" pt_clust_9="25.06241"></scales>
<clustering>
<clus scale="   25.062">  1  9  2 -1</clus>
<clus scale="   79.995">  5  6 -1 -1</clus>
<clus scale="   93.082">  7  8 -1 -1</clus>
<clus scale="  104.464">  1  5  2 -1</clus>
<clus scale="   25.062">  1  5  2 -1</clus>
</clustering>
</event>
<event>
 9    2  0.7775537E-005  0.9254339E+02  0.7546771E-02  0.1304477E+00
          4   -1    0    0  502    0 -0.00000000000E+00  0.00000000000E+00  0.59957089688E+03  0.59957089688E+03  0.00000000000E+00 0. -1.
         21   -1    0    0  501  502  0.00000000000E+00 -0.00000000000E+00 -0.10663915812E+03  0.10663915812E+03  0.00000000000E+00 0. -1.
         24    2    1    2    0    0 -0.90716937484E+01 -0.24377321272E+02  0.45686061534E+03  0.46417625657E+03  0.77855159716E+02 0.  0.
         23    2    1    2    0    0 -0.18511714484E+02 -0.15870425300E+01  0.11916379844E+03  0.15071356388E+03  0.90384540730E+02 0.  0.
        -11    1    3    3    0    0  0.23898472223E+02 -0.34667126614E+01  0.50849710701E+02  0.56292523035E+02  0.00000000000E+00 0.  1.
         12    1    3    3    0    0 -0.32970165971E+02 -0.20910608611E+02  0.40601090463E+03  0.40788373353E+03  0.00000000000E+00 0. -1.
        -13    1    4    4    0    0  0.32112534082E+02  0.15064312362E+02  0.28308782558E+02  0.45382105746E+02  0.00000000000E+00 0.  1.
         13    1    4    4    0    0 -0.50624248565E+02 -0.16651354892E+02  0.90855015881E+02  0.10533145814E+03  0.00000000000E+00 0. -1.
          3    1    1    2  501    0  0.27583408232E+02  0.25964363802E+02 -0.83092675015E+02  0.91320234552E+02  0.00000000000E+00 0. -1.
<scales pt_clust_5="13000.00000" pt_clust_6="13000.00000" pt_clust_7="13000.00000" pt_clust_8="13000.00000" pt_clust_9="37.88130"></scales>
<clustering>
<clus scale="   37.881">  2  9  1 -1</clus>
<clus scale="   77.855">  5  6 -1 -1</clus>
<clus scale="   80.351">  1  5  2 -1</clus>
<clus scale="   90.385">  7  8 -1 -1</clus>
<clus scale="   37.881">  2  5  1 -1</clus>
</clustering>
</event>
<event>
 9    2  0.6175212E-005  0.9525270E+02  0.7546771E-02  0.1299066E+00
          2   -1    0    0  502    0 -0.00000000000E+00  0.00000000000E+00  0.31406362028E+03  0.31406362028E+03  0.00000000000E+00 0. -1.
         21   -1    0    0  501  502  0.00000000000E+00 -0.00000000000E+00 -0.19249716707E+03  0.19249716707E+03  0.00000000000E+00 0.  1.
         24    2    1    2    0    0 -0.10845920842E+02  0.20389153548E+02  0.23441266516E+03  0.24802876162E+03  0.77689236183E+02 0.  0.
         23    2    1    2    0    0 -0.29623946353E+02 -0.72351352657E+02 -0.14205637032E+03  0.18648264240E+03  0.92105738917E+02 0.  0.
        -13    1    3    3    0    0  0.14108072978E+02 -0.25274638505E+02  0.88647305747E+02  0.93253363966E+02  0.00000000000E+00 0.  1.
         14    1    3    3    0    0 -0.24953993820E+02  0.45663792053E+02  0.14576535942E+03  0.15477539765E+03  0.00000000000E+00 0. -1.
        -11    1    4    4    0    0  0.21785281374E+02 -0.18853879852E+02 -0.31237322697E+01  0.28979733838E+02  0.00000000000E+00 0. -1.
         11    1    4    4    0    0 -0.51409227727E+02 -0.53497472805E+02 -0.13893263805E+03  0.15750290857E+03  0.00000000000E+00 0.  1.
          1    1    1    2  501    0  0.40469867195E+02  0.51962199109E+02  0.29210158366E+02  0.72049383334E+02  0.00000000000E+00 0. -1.
<scales pt_clust_5="13000.00000" pt_clust_6="13000.00000" pt_clust_7="13000.00000" pt_clust_8="13000.00000" pt_clust_9="65.86262"></scales>
<clustering>
<clus scale="   65.863">  2  9  1 -1</clus>
<clus scale="   77.689">  5  6 -1 -1</clus>
<clus scale="   81.395">  1  5  2 -1</clus>
<clus scale="   92.106">  7  8 -1 -1</clus>
<clus scale="   65.863">  2  5  1 -1</clus>
</clustering>
</event>
<event>
 9    2  0.6175212E-005  0.3100324E+03  0.7546771E-02  0.1085086E+00
          2   -1    0    0  502    0 -0.00000000000E+00  0.00000000000E+00  0.69787366603E+03  0.69787366603E+03  0.00000000000E+00 0. -1.
         21   -1    0    0  501  502  0.00000000000E+00 -0.00000000000E+00 -0.33972762078E+03  0.33972762078E+03  0.00000000000E+00 0. -1.
         24    2    1    2    0    0  0.26177389661E+03 -0.14302652163E+02  0.19889762232E+03  0.33771729562E+03  0.75911585350E+02 0.  0.
         23    2    1    2    0    0 -0.17667973109E+03 -0.28675132967E+03  0.16680766083E+03  0.38694364694E+03  0.91970309078E+02 0.  0.
        -13    1    3    3    0    0  0.84243453520E+02  0.26589968026E+02  0.44515929218E+02  0.98922463651E+02  0.00000000000E+00 0.  1.
         14    1    3    3    0    0  0.17753044309E+03 -0.40892620189E+02  0.15438169310E+03  0.23879483197E+03  0.00000000000E+00 0. -1.
        -13    1    4    4    0    0 -0.79836602937E+02 -0.79615121797E+02  0.94534128005E+02  0.14713650854E+03  0.00000000000E+00 0.  1.
         13    1    4    4    0    0 -0.96843128156E+02 -0.20713620787E+03  0.72273532825E+02  0.23980713841E+03  0.00000000000E+00 0. -1.
          1    1    1    2  501    0 -0.85094165519E+02  0.30105398183E+03 -0.75592379031E+01  0.31294034425E+03  0.00000000000E+00 0. -1.
<scales pt_clust_5="13000.00000" pt_clust_6="13000.00000" pt_clust_7="13000.00000" pt_clust_8="13000.00000" pt_clust_9="296.07693"></scales>
<clustering>
<clus scale="   75.912">  5  6 -1 -1</clus>
<clus scale="   91.970">  7  8 -1 -1</clus>
<clus scale="  272.934">  1  5  2 -1</clus>
<clus scale="  296.077">  2  9  1 -1</clus>
<clus scale="  296.077">  2  5  1 -1</clus>
</clustering>
</event>
<event>
 9    2  0.6175212E-005  0.1717397E+03  0.7546771E-02  0.1177746E+00
          2   -1    0    0  502    0 -0.00000000000E+00  0.00000000000E+00  0.72804619189E+03  0.72804619189E+03  0.00000000000E+00 0. -1.
         21   -1    0    0  501  502  0.00000000000E+00 -0.00000000000E+00 -0.70816078505E+02  0.70816078505E+02  0.00000000000E+00 0. -1.
         24    2    1    2    0    0  0.44330117889E+01 -0.14903338498E+03  0.52013273917E+03  0.54696570917E+03  0.80017618163E+02 0.  0.
         23    2    1    2    0    0 -0.46333445309E+02  0.12708692215E+03  0.10892308710E+03  0.19684127979E+03  0.92651910881E+02 0.  0.
        -11    1    3    3    0    0 -0.36872593552E+02 -0.55572920187E+02  0.18869100355E+03  0.20013053848E+03  0.00000000000E+00 0.  1.
         12    1    3    3    0    0  0.41305605341E+02 -0.93460464791E+02  0.33144173562E+03  0.34683517068E+03  0.00000000000E+00 0. -1.
        -11    1    4    4    0    0 -0.23415443061E+02  0.11326618128E+03  0.12108141254E+03  0.16744616824E+03  0.00000000000E+00 0.  1.
         11    1    4    4    0    0 -0.22918002248E+02  0.13820740864E+02 -0.12158325444E+02  0.29395111544E+02  0.00000000000E+00 0. -1.
          1    1    1    2  501    0  0.41900433520E+02  0.21946462832E+02  0.28174287117E+02  0.55055281441E+02  0.00000000000E+00 0. -1.
<scales pt_clust_5="13000.00000" pt_clust_6="13000.00000" pt_clust_7="13000.00000" pt_clust_8="13000.00000" pt_clust_9="47.30004"></scales>
<clustering>
<clus scale="   47.300">  2  9  1 -1</clus>
<clus scale="   80.018">  5  6 -1 -1</clus>
<clus scale="   92.652">  7  8 -1 -1</clus>
<clus scale="  165.266">  1  5  2 -1</clus>
<clus scale="   47.300">  2  5  1 -1</clus>
</clustering>
</event>
<event>
 9    2  0.6175212E-005  0.1125329E+03  0.7546771E-02  0.1260190E+00
          2   -1    0    0  502    0 -0.00000000000E+00  0.00000000000E+00  0.12987880739E+04  0.12987880739E+04  0.00000000000E+00 0. -1.
         21   -1    0    0  501  502  0.00000000000E+00 -0.00000000000E+00 -0.30817996154E+02  0.30817996154E+02  0.00000000000E+00 0. -1.
         24    2    1    2    0    0  0.30338880717E+02 -0.72987472950E+02  0.10165389952E+04  0.10227693031E+04  0.80361058778E+02 0.  0.
         23    2    1    2    0    0  0.11370453698E+02  0.24824192677E+02  0.21019417428E+03  0.23094307324E+03  0.91692880943E+02 0.  0.
        -13    1    3    3    0    0 -0.17122084765E+02 -0.29103829029E+02  0.14688352171E+03  0.15071485528E+03  0.00000000000E+00 0.  1.
         14    1    3    3    0    0  0.47460965481E+02 -0.43883643921E+02  0.86965547345E+03  0.87205444781E+03  0.00000000000E+00 0. -1.
        -13    1    4    4    0    0  0.29799591164E+01 -0.32519191802E+02  0.11452184363E+03  0.11908665190E+03  0.00000000000E+00 0. -1.
         13    1    4    4    0    0  0.83904945816E+01  0.57343384479E+02  0.95672330648E+02  0.11185642134E+03  0.00000000000E+00 0.  1.
          1    1    1    2  501    0 -0.41709334415E+02  0.48163280273E+02  0.41236908347E+02  0.75893693770E+02  0.00000000000E+00 0. -1.
<scales pt_clust_5="13000.00000" pt_clust_6="13000.00000" pt_clust_7="13000.00000" pt_clust_8="13000.00000" pt_clust_9="63.71319"></scales>
<clustering>
<clus scale="   63.713">  2  9  1 -1</clus>
<clus scale="   80.361">  5  6 -1 -1</clus>
<clus scale="   91.693">  7  8 -1 -1</clus>
<clus scale="  103.508">  1  5  2 -1</clus>
<clus scale="   63.713">  2  5  1 -1</clus>
</clustering>
</event>
<event>
 9    2  0.6175212E-005  0.2616922E+03  0.7546771E-02  0.1135273E+00
         21   -1    0    0  501  502  0.00000000000E+00  0.00000000000E+00  0.38020594958E+03  0.38020594958E+03  0.00000000000E+00 0.  1.
          2   -1    0    0  502    0 -0.00000000000E+00 -0.00000000000E+00 -0.30946653750E+03  0.30946653750E+03  0.00000000000E+00 0. -1.
         24    2    1    2    0    0  0.57680331779E+02  0.78332140260E+02  0.43148131844E+02  0.13352635046E+03  0.80650977132E+02 0.  0.
         23    2    1    2    0    0  0.14203130500E+03  0.10926437751E+03 -0.13074431446E+03  0.23968547258E+03  0.90793470078E+02 0.  0.
        -13    1    3    3    0    0  0.30282957184E+02  0.91117994642E+02  0.30415509893E+02  0.10072065173E+03  0.00000000000E+00 0.  1.
         14    1    3    3    0    0  0.27397374595E+02 -0.12785854381E+02  0.12732621950E+02  0.32805698723E+02  0.00000000000E+00 0. -1.
        -11    1    4    4    0    0  0.14736077121E+03  0.74367806009E+02 -0.10090142266E+03  0.19346024025E+03  0.00000000000E+00 0.  1.
         11    1    4    4    0    0 -0.53294662150E+01  0.34896571500E+02 -0.29842891798E+02  0.46225232325E+02  0.00000000000E+00 0. -1.
          1    1    1    2  501    0 -0.19971163678E+03 -0.18759651777E+03  0.15833559470E+03  0.31646066405E+03  0.00000000000E+00 0. -1.
<scales pt_clust_5="13000.00000" pt_clust_6="13000.00000" pt_clust_7="13000.00000" pt_clust_8="13000.00000" pt_clust_9="245.43704"></scales>
<clustering>
<clus scale="   80.651">  5  6 -1 -1</clus>
<clus scale="   90.793">  7  8 -1 -1</clus>
<clus scale="  126.363">  2  5  1 -1</clus>
<clus scale="  245.437">  1  9  2 -1</clus>
<clus scale="  245.437">  1  5  2 -1</clus>
</clustering>
</event>
<event>
 9    2  0.6175212E-005  0.1105192E+03  0.7546771E-02  0.1263744E+00
          2   -1    0    0  502    0 -0.00000000000E+00  0.00000000000E+00  0.35915684957E+03  0.35915684957E+03  0.00000000000E+00 0. -1.
         21   -1    0    0  501  502  0.00000000000E+00 -0.00000000000E+00 -0.73863910344E+02  0.73863910344E+02  0.00000000000E+00 0.  1.
         24    2    1    2    0    0  0.64802052429E+02  0.65257935482E+01  0.23861436783E+03  0.25970557658E+03  0.79172457296E+02 0.  0.
         23    2    1    2    0    0 -0.57439242327E+02 -0.30962918841E+02  0.75846685414E+02  0.13455743648E+03  0.89972301969E+02 0.  0.
        -11    1    3    3    0    0  0.27174170156E+02 -0.34277014028E+02  0.73721270697E+02  0.85721496531E+02  0.00000000000E+00 0.  1.
         12    1    3    3    0    0  0.37627882274E+02  0.40802807576E+02  0.16489309713E+03  0.17398408005E+03  0.00000000000E+00 0. -1.
        -11    1    4    4    0    0 -0.29412495578E+02 -0.48394242743E+02  0.55555175361E+01  0.56903087806E+02  0.00000000000E+00 0.  1.
         11    1    4    4    0    0 -0.28026746750E+02  0.17431323902E+02  0.70291167878E+02  0.77654348674E+02  0.00000000000E+00 0. -1.
          1    1    1    2  501    0 -0.73628101021E+01  0.24437125293E+02 -0.29168114019E+02  0.38757746846E+02  0.00000000000E+00 0. -1.
<scales pt_clust_5="13000.00000" pt_clust_6="13000.00000" pt_clust_7="13000.00000" pt_clust_8="13000.00000" pt_clust_9="25.52223"></scales>
<clustering>
<clus scale="   25.522">  2  9  1 -1</clus>
<clus scale="   79.172">  5  6 -1 -1</clus>
<clus scale="   89.972">  7  8 -1 -1</clus>
<clus scale="  101.920">  1  5  2 -1</clus>
<clus scale="   25.522">  2  5  1 -1</clus>
</clustering>
</event>
<event>
 9    2  0.6175212E-005  0.1567826E+03  0.7546771E-02  0.1221556E+00
         21   -1    0    0  501  502  0.00000000000E+00  0.00000000000E+00  0.50720623966E+03  0.50720623966E+03  0.00000000000E+00 0. -1.
          4   -1    0    0  502    0 -0.00000000000E+00 -0.00000000000E+00 -0.67355612239E+03  0.67355612239E+03  0.00000000000E+00 0. -1.
         24    2    1    2    0    0 -0.28936357177E+02 -0.18677025499E+02 -0.56620560409E+03  0.57237418592E+03  0.76402084796E+02 0.  0.
         23    2    1    2    0    0  0.12610315398E+03  0.96521922484E+02 -0.66715115210E+01  0.18322279012E+03  0.91146008085E+02 0.  0.
        -11    1    3    3    0    0  0.15528727835E+02  0.17765493779E+02 -0.10618399845E+03  0.10877405796E+03  0.00000000000E+00 0.  1.
         12    1    3    3    0    0 -0.44465085011E+02 -0.36442519279E+02 -0.46002160563E+03  0.46360012796E+03  0.00000000000E+00 0. -1.
        -13    1    4    4    0    0  0.43042023223E+02  0.34256993296E+02 -0.46505921186E+02  0.72034422731E+02  0.00000000000E+00 0. -1.
         13    1    4    4    0    0  0.83061130757E+02  0.62264929187E+02  0.39834409665E+02  0.11118836739E+03  0.00000000000E+00 0.  1.
          3    1    1    2  501    0 -0.97166796804E+02 -0.77844896984E+02  0.40652723288E+03  0.42516538601E+03  0.00000000000E+00 0. -1.
<scales pt_clust_5="13000.00000" pt_clust_6="13000.00000" pt_clust_7="13000.00000" pt_clust_8="13000.00000" pt_clust_9="127.56638"></scales>
<clustering>
<clus scale="   76.402">  5  6 -1 -1</clus>
<clus scale="   83.806">  2  5  1 -1</clus>
<clus scale="   91.146">  7  8 -1 -1</clus>
<clus scale="  127.566">  1  9  2 -1</clus>
<clus scale="  127.566">  1  5  2 -1</clus>
</clustering>
</event>
<event>
 9    2  0.6175212E-005  0.1098967E+03  0.7546771E-02  0.1264375E+00
         21   -1    0    0  501  502  0.00000000000E+00  0.00000000000E+00  0.43166740124E+03  0.43166740124E+03  0.00000000000E+00 0. -1.
          2   -1    0    0  502    0 -0.00000000000E+00 -0.00000000000E+00 -0.50111499025E+02  0.50111499025E+02  0.00000000000E+00 0. -1.
         23    2    1    2    0    0  0.14507139417E+02  0.81737045765E+02  0.13773258260E+03  0.18492343129E+03  0.91296272580E+02 0.  0.
         24    2    1    2    0    0  0.15114333687E+02 -0.32614643958E+02  0.21441133616E+03  0.23239224846E+03  0.82108330791E+02 0.  0.
        -13    1    4    4    0    0  0.39347315752E+01  0.27735412125E+02  0.75332871093E+02  0.80372735834E+02  0.00000000000E+00 0.  1.
         14    1    4    4    0    0  0.11179602111E+02 -0.60350056083E+02  0.13907846507E+03  0.15201951263E+03  0.00000000000E+00 0. -1.
        -13    1    3    3    0    0 -0.13201603652E+02 -0.16511826705E+02  0.27455476429E+02  0.34651492696E+02  0.00000000000E+00 0.  1.
         13    1    3    3    0    0  0.27708743069E+02  0.98248872470E+02  0.11027710617E+03  0.15027193860E+03  0.00000000000E+00 0. -1.
          1    1    1    2  501    0 -0.29621473104E+02 -0.49122401807E+02  0.29411983448E+02  0.64463220509E+02  0.00000000000E+00 0. -1.
<scales pt_clust_5="13000.00000" pt_clust_6="13000.00000" pt_clust_7="13000.00000" pt_clust_8="13000.00000" pt_clust_9="57.36240"></scales>
<clustering>
<clus scale="   57.362">  1  9  2 -1</clus>
<clus scale="   82.108">  5  6 -1 -1</clus>
<clus scale="   91.296">  7  8 -1 -1</clus>
<clus scale="  102.392">  1  5  2 -1</clus>
<clus scale="   57.362">  1  5  2 -1</clus>
</clustering>
</event>
<event>
 9    2  0.6175212E-005  0.9825297E+02  0.7546771E-02  0.1287377E+00
          2   -1    0    0  502    0 -0.00000000000E+00  0.00000000000E+00  0.86586353228E+02  0.86586353228E+02  0.00000000000E+00 0. -1.
         21   -1    0    0  501  502  0.00000000000E+00 -0.00000000000E+00 -0.21450004596E+03  0.21450004596E+03  0.00000000000E+00 0.  1.
         24    2    1    2    0    0 -0.68158284175E+01  0.41083077942E+02  0.27313177146E+02  0.98202835336E+02  0.84637535479E+02 0.  0.
         23    2    1    2    0    0 -0.12062397904E+02 -0.23201995396E+02 -0.82729852910E+02  0.12586448822E+03  0.91180078958E+02 0.  0.
        -13    1    3    3    0    0  0.31227550847E+02  0.92045587513E+01  0.35198870727E+02  0.47946265070E+02  0.00000000000E+00 0.  1.
         14    1    3    3    0    0 -0.38043379265E+02  0.31878519191E+02 -0.78856935808E+01  0.50256570266E+02  0.00000000000E+00 0. -1.
        -13    1    4    4    0    0  0.24584409609E+02 -0.36548913401E+02 -0.12928504634E+02  0.45906018110E+02  0.00000000000E+00 0. -1.
         13    1    4    4    0    0 -0.36646807513E+02  0.13346918006E+02 -0.69801348276E+02  0.79958470110E+02  0.00000000000E+00 0.  1.
          1    1    1    2  501    0  0.18878226322E+02 -0.17881082546E+02 -0.72497016970E+02  0.77019075634E+02  0.00000000000E+00 0. -1.
<scales pt_clust_5="13000.00000" pt_clust_6="13000.00000" pt_clust_7="13000.00000" pt_clust_8="13000.00000" pt_clust_9="26.00232"></scales>
<clustering>
<clus scale="   26.002">  2  9  1 -1</clus>
<clus scale="   84.638">  5  6 -1 -1</clus>
<clus scale="   91.180">  7  8 -1 -1</clus>
<clus scale="   92.214">  1  5  2 -1</clus>
<clus scale="   26.002">  2  5  1 -1</clus>
</clustering>
</event>
<event>
 9    2  0.6175212E-005  0.2216186E+03  0.7546771E-02  0.1133451E+00
          2   -1    0    0  502    0 -0.00000000000E+00  0.00000000000E+00  0.15947183069E+04  0.15947183069E+04  0.00000000000E+00 0. -1.
         21   -1    0    0  501  502  0.00000000000E+00 -0.00000000000E+00 -0.10065962571E+03  0.10065962571E+03  0.00000000000E+00 0. -1.
         24    2    1    2    0    0  0.20117078884E+03 -0.48809219763E+02  0.13506534390E+04  0.13687878832E+04  0.80396085527E+02 0.  0.
         23    2    1    2    0    0 -0.15514431777E+03  0.19045654938E+02  0.85838618241E+01  0.18105273317E+03  0.90961053199E+02 0.  0.
        -11    1    3    3    0    0  0.48653571166E+02 -0.84527563028E+01  0.15259960086E+03  0.16039095130E+03  0.00000000000E+00 0.  1.
         12    1    3    3    0    0  0.15251721767E+03 -0.40356463460E+02  0.11980538381E+04  0.12083969319E+04  0.00000000000E+00 0. -1.
        -11    1    4    4    0    0 -0.28596907870E+02  0.60162732068E+01  0.40454078069E+02  0.49905020944E+02  0.00000000000E+00 0.  1.
         11    1    4    4    0    0 -0.12654740990E+03  0.13029381732E+02 -0.31870216245E+02  0.13114771223E+03  0.00000000000E+00 0. -1.
          1    1    1    2  501    0 -0.46026471070E+02  0.29763564824E+02  0.13482138039E+03  0.14553731631E+03  0.00000000000E+00 0. -1.
<scales pt_clust_5="13000.00000" pt_clust_6="13000.00000" pt_clust_7="13000.00000" pt_clust_8="13000.00000" pt_clust_9="54.81158"></scales>
<clustering>
<clus scale="   54.812">  2  9  1 -1</clus>
<clus scale="   80.396">  5  6 -1 -1</clus>
<clus scale="   90.961">  7  8 -1 -1</clus>
<clus scale="  217.496">  1  5  2 -1</clus>
<clus scale="   54.812">  2  5  1 -1</clus>
</clustering>
</event>
<event>
 9    2  0.6175212E-005  0.1065021E+03  0.7546771E-02  0.1275354E+00
          2   -1    0    0  502    0 -0.00000000000E+00  0.00000000000E+00  0.22106515336E+03  0.22106515336E+03  0.00000000000E+00 0. -1.
         21   -1    0    0  501  502  0.00000000000E+00 -0.00000000000E+00 -0.86824525188E+02  0.86824525188E+02  0.00000000000E+00 0.  1.
         24    2    1    2    0    0 -0.35869440855E+02 -0.39329015665E+02  0.10392814344E+03  0.14043426666E+03  0.78021381642E+02 0.  0.
         23    2    1    2    0    0  0.18919054438E+02  0.14959953874E+02 -0.27532260568E+02  0.10243863458E+03  0.95676108002E+02 0.  0.
        -11    1    3    3    0    0  0.18281448624E+02 -0.21932005605E+02  0.93003275353E+01  0.30028658410E+02  0.00000000000E+00 0.  1.
         12    1    3    3    0    0 -0.54150889479E+02 -0.17397010061E+02  0.94627815909E+02  0.11040560825E+03  0.00000000000E+00 0. -1.
        -13    1    4    4    0    0  0.53245114095E+02  0.29667347763E+02 -0.12728173569E+02  0.62267167116E+02  0.00000000000E+00 0.  1.
         13    1    4    4    0    0 -0.34326059657E+02 -0.14707393889E+02 -0.14804086999E+02  0.40171467467E+02  0.00000000000E+00 0. -1.
          1    1    1    2  501    0  0.16950386417E+02  0.24369061791E+02  0.57844745297E+02  0.65016777302E+02  0.00000000000E+00 0. -1.
<scales pt_clust_5="13000.00000" pt_clust_6="13000.00000" pt_clust_7="13000.00000" pt_clust_8="13000.00000" pt_clust_9="29.68447"></scales>
<clustering>
<clus scale="   29.684">  2  9  1 -1</clus>
<clus scale="   78.021">  5  6 -1 -1</clus>
<clus scale="   90.973">  1  5  2 -1</clus>
<clus scale="   95.676">  7  8 -1 -1</clus>
<clus scale="   29.684">  2  5  1 -1</clus>
</clustering>
</event>
<event>
 9    2  0.6175212E-005  0.9994566E+02  0.7546771E-02  0.1282569E+00
          2   -1    0    0  502    0 -0.00000000000E+00  0.00000000000E+00  0.88578589403E+03  0.88578589403E+03  0.00000000000E+00 0. -1.
         21   -1    0    0  501  502  0.00000000000E+00 -0.00000000000E+00 -0.17262996081E+02  0.17262996081E+02  0.00000000000E+00 0. -1.
         24    2    1    2    0    0  0.23366614678E+02  0.43927229058E+02  0.44160597672E+03  0.45289771022E+03  0.87320656815E+02 0.  0.
         23    2    1    2    0    0  0.16473344348E+02 -0.33486695784E+02  0.33712837135E+03  0.35136752356E+03  0.91710784398E+02 0.  0.
        -13    1    3    3    0    0  0.10578957269E+02  0.49216022929E+02  0.10965023532E+03  0.12065365869E+03  0.00000000000E+00 0.  1.
         14    1    3    3    0    0  0.12787657409E+02 -0.52887938715E+01  0.33195574140E+03  0.33224405153E+03  0.00000000000E+00 0. -1.
        -13    1    4    4    0    0  0.42969757948E+02  0.49886951330E+00  0.25524013812E+03  0.25883233391E+03  0.00000000000E+00 0.  1.
         13    1    4    4    0    0 -0.26496413600E+02 -0.33985565298E+02  0.81888233226E+02  0.92535189648E+02  0.00000000000E+00 0. -1.
          1    1    1    2  501    0 -0.39839959026E+02 -0.10440533273E+02  0.89788549876E+02  0.98783656336E+02  0.00000000000E+00 0. -1.
<scales pt_clust_5="13000.00000" pt_clust_6="13000.00000" pt_clust_7="13000.00000" pt_clust_8="13000.00000" pt_clust_9="41.18528"></scales>
<clustering>
<clus scale="   41.185">  2  9  1 -1</clus>
<clus scale="   87.321">  5  6 -1 -1</clus>
<clus scale="   91.711">  7  8 -1 -1</clus>
<clus scale="   95.933">  1  5  2 -1</clus>
<clus scale="   41.185">  2  5  1 -1</clus>
</clustering>
</event>
<event>
 9    2  0.6175212E-005  0.1286819E+03  0.7546771E-02  0.1244900E+00
         21   -1    0    0  501  502  0.00000000000E+00  0.00000000000E+00  0.24680112211E+02  0.24680112211E+02  0.00000000000E+00 0. -1.
          2   -1    0    0  502    0 -0.00000000000E+00 -0.00000000000E+00 -0.13843930328E+04  0.13843930328E+04  0.00000000000E+00 0. -1.
         23    2    1    2    0    0  0.24112233772E+01 -0.25186881949E+02 -0.15234721278E+03  0.17892750470E+03  0.90361416960E+02 0.  0.
         24    2    1    2    0    0 -0.41887541417E+02 -0.75420905640E+02 -0.80205947587E+03  0.81067758640E+03  0.80348410782E+02 0.  0.
        -11    1    4    4    0    0  0.13330898675E+02 -0.24489411899E+02 -0.79976327551E+02  0.84697444608E+02  0.00000000000E+00 0.  1.
         12    1    4    4    0    0 -0.55218440092E+02 -0.50931493741E+02 -0.72208314832E+03  0.72598014179E+03  0.00000000000E+00 0. -1.
        -13    1    3    3    0    0  0.25403342809E+02 -0.52266040127E+02 -0.10015084281E+03  0.11578972360E+03  0.00000000000E+00 0.  1.
         13    1    3    3    0    0 -0.22992119431E+02  0.27079158178E+02 -0.52196369971E+02  0.63137781096E+02  0.00000000000E+00 0. -1.
          1    1    1    2  501    0  0.39476318040E+02  0.10060778759E+03 -0.40530623189E+03  0.41946805387E+03  0.00000000000E+00 0. -1.
<scales pt_clust_5="13000.00000" pt_clust_6="13000.00000" pt_clust_7="13000.00000" pt_clust_8="13000.00000" pt_clust_9="100.51456"></scales>
<clustering>
<clus scale="   80.348">  5  6 -1 -1</clus>
<clus scale="   90.361">  7  8 -1 -1</clus>
<clus scale="   93.837">  2  7  1 -1</clus>
<clus scale="  100.515">  1  9  2 -1</clus>
<clus scale="  100.515">  1  5  2 -1</clus>
</clustering>
</event>
<event>
 9    2  0.6175212E-005  0.2362673E+03  0.7546771E-02  0.1122988E+00
         21   -1    0    0  501  502  0.00000000000E+00  0.00000000000E+00  0.15453892130E+03  0.15453892130E+03  0.00000000000E+00 0.  1.
         -1   -1    0    0    0  501 -0.00000000000E+00 -0.00000000000E+00 -0.96541029143E+03  0.96541029143E+03  0.00000000000E+00 0.  1.
         24    2    1    2    0    0  0.17602780399E+03  0.13237585587E+03 -0.84266337617E+03  0.87463509919E+03  0.79973972076E+02 0.  0.
         23    2    1    2    0    0 -0.15401892456E+03 -0.12912139342E+03  0.32975255118E+02  0.22303447310E+03  0.90900194604E+02 0.  0.
        -13    1    3    3    0    0  0.12654901975E+03  0.10416209847E+03 -0.73255604107E+03  0.75066820265E+03  0.00000000000E+00 0.  1.
         14    1    3    3    0    0  0.49478784242E+02  0.28213757404E+02 -0.11010733510E+03  0.12396689654E+03  0.00000000000E+00 0. -1.
        -13    1    4    4    0    0 -0.11661484874E+03 -0.13912948267E+03  0.31762290000E+02  0.18429562925E+03  0.00000000000E+00 0.  1.
         13    1    4    4    0    0 -0.37404075820E+02  0.10008089249E+02  0.12129651176E+01  0.38738843849E+02  0.00000000000E+00 0. -1.
         -2    1    1    2    0  502 -0.22008879437E+02 -0.32544624496E+01 -0.11832490817E+01  0.22279640443E+02  0.00000000000E+00 0.  1.
<scales pt_clust_5="13000.00000" pt_clust_6="13000.00000" pt_clust_7="13000.00000" pt_clust_8="13000.00000" pt_clust_9="22.24820"></scales>
<clustering>
<clus scale="   22.248">  1  9  2 -1</clus>
<clus scale="   79.974">  5  6 -1 -1</clus>
<clus scale="   90.900">  7  8 -1 -1</clus>
<clus scale="  232.283">  2  5  1 -1</clus>
<clus scale="   22.248">  1  5  2 -1</clus>
</clustering>
</event>
<event>
 9    2  0.6175212E-005  0.1451224E+03  0.7546771E-02  0.1232034E+00
          2   -1    0    0  502    0 -0.00000000000E+00  0.00000000000E+00  0.11484136881E+03  0.11484136881E+03  0.00000000000E+00 0. -1.
         21   -1    0    0  501  502  0.00000000000E+00 -0.00000000000E+00 -0.56925242252E+03  0.56925242252E+03  0.00000000000E+00 0. -1.
         24    2    1    2    0    0  0.28894463626E+02 -0.21886910973E+02  0.38682052137E+02  0.93401025070E+02  0.76899437100E+02 0.  0.
         23    2    1    2    0    0 -0.84924470330E+02  0.11421083677E+03 -0.13304757271E+03  0.21479935736E+03  0.90447921048E+02 0.  0.
        -13    1    3    3    0    0 -0.21097776412E+02  0.12082499304E+02  0.14453983456E+02  0.28284635347E+02  0.00000000000E+00 0.  1.
         14    1    3    3    0    0  0.49992240038E+02 -0.33969410277E+02  0.24228068681E+02  0.65116389723E+02  0.00000000000E+00 0. -1.
        -11    1    4    4    0    0 -0.57828178650E+02  0.16373539807E+02 -0.80572051547E+02  0.10051888650E+03  0.00000000000E+00 0.  1.
         11    1    4    4    0    0 -0.27096291681E+02  0.97837296960E+02 -0.52475521159E+02  0.11428047086E+03  0.00000000000E+00 0. -1.
          1    1    1    2  501    0  0.56030006704E+02 -0.92323925795E+02 -0.36004553314E+03  0.37589340891E+03  0.00000000000E+00 0. -1.
<scales pt_clust_5="13000.00000" pt_clust_6="13000.00000" pt_clust_7="13000.00000" pt_clust_8="13000.00000" pt_clust_9="113.48875"></scales>
<clustering>
<clus scale="   76.899">  5  6 -1 -1</clus>
<clus scale="   85.014">  1  5  2 -1</clus>
<clus scale="   90.448">  7  8 -1 -1</clus>
<clus scale="  113.489">  2  9  1 -1</clus>
<clus scale="  113.489">  2  5  1 -1</clus>
</clustering>
</event>
<event>
 9    2  0.6175212E-005  0.1199104E+03  0.7546771E-02  0.1252267E+00
         21   -1    0    0  501  502  0.00000000000E+00  0.00000000000E+00  0.31329359192E+02  0.31329359192E+02  0.00000000000E+00 0.  1.
          2   -1    0    0  502    0 -0.00000000000E+00 -0.00000000000E+00 -0.10287123185E+04  0.10287123185E+04  0.00000000000E+00 0. -1.
         24    2    1    2    0    0  0.54664222439E+01 -0.59138482394E+02 -0.21925764638E+03  0.24101294106E+03  0.80536205461E+02 0.  0.
         23    2    1    2    0    0 -0.76547809827E+02 -0.13372345322E+02 -0.20115691829E+03  0.23319351047E+03  0.88750891503E+02 0.  0.
        -13    1    3    3    0    0  0.23272222448E+02 -0.57097379169E+02 -0.21344398306E+03  0.22217119739E+03  0.00000000000E+00 0.  1.
         14    1    3    3    0    0 -0.17805800204E+02 -0.20411032259E+01 -0.58136633198E+01  0.18841743669E+02  0.00000000000E+00 0. -1.
        -11    1    4    4    0    0 -0.29558988731E+02  0.11308909667E+02 -0.76780281696E+01  0.32566506863E+02  0.00000000000E+00 0.  1.
         11    1    4    4    0    0 -0.46988821095E+02 -0.24681254989E+02 -0.19347889012E+03  0.20062700361E+03  0.00000000000E+00 0. -1.
          1    1    1    2  501    0  0.71081387583E+02  0.72510827716E+02 -0.57696839462E+03  0.58583522614E+03  0.00000000000E+00 0. -1.
<scales pt_clust_5="13000.00000" pt_clust_6="13000.00000" pt_clust_7="13000.00000" pt_clust_8="13000.00000" pt_clust_9="80.63374"></scales>
<clustering>
<clus scale="   80.536">  5  6 -1 -1</clus>
<clus scale="   88.751">  7  8 -1 -1</clus>
<clus scale="  100.067">  2  5  1 -1</clus>
<clus scale="   80.634">  1  9  2 -1</clus>
<clus scale="   80.634">  1  5  2 -1</clus>
</clustering>
</event>
<event>
 9    2  0.6175212E-005  0.2212486E+03  0.7546771E-02  0.1132956E+00
          2   -1    0    0  502    0 -0.00000000000E+00  0.00000000000E+00  0.42501545121E+03  0.42501545121E+03  0.00000000000E+00 0. -1.
         21   -1    0    0  501  502  0.00000000000E+00 -0.00000000000E+00 -0.78507067240E+02  0.78507067240E+02  0.00000000000E+00 0. -1.
         24    2    1    2    0    0 -0.41510589706E+02  0.38345234700E+02  0.94219730408E+02  0.13571605879E+03  0.79674368110E+02 0.  0.
         23    2    1    2    0    0 -0.71356004713E+02  0.41723448419E+02  0.16086260866E+03  0.20194934092E+03  0.89856729710E+02 0.  0.
        -13    1    3    3    0    0 -0.36601772319E+02  0.54185022093E+01  0.13118652104E+01  0.37023923258E+02  0.00000000000E+00 0.  1.
         14    1    3    3    0    0 -0.49088173875E+01  0.32926732491E+02  0.92907865197E+02  0.98692135534E+02  0.00000000000E+00 0. -1.
        -13    1    4    4    0    0 -0.34343249052E+02  0.38379651395E+02  0.18354088846E+02  0.54674756278E+02  0.00000000000E+00 0. -1.
         13    1    4    4    0    0 -0.37012755661E+02  0.33437970234E+01  0.14250851982E+03  0.14727458464E+03  0.00000000000E+00 0.  1.
          1    1    1    2  501    0  0.11286659442E+03 -0.80068683119E+02  0.91426044903E+02  0.16585711875E+03  0.00000000000E+00 0. -1.
<scales pt_clust_5="13000.00000" pt_clust_6="13000.00000" pt_clust_7="13000.00000" pt_clust_8="13000.00000" pt_clust_9="138.38303"></scales>
<clustering>
<clus scale="   79.674">  5  6 -1 -1</clus>
<clus scale="   89.857">  7  8 -1 -1</clus>
<clus scale="   92.683">  5  7 -1 -1</clus>
<clus scale="  138.383">  2  9  1 -1</clus>
<clus scale="  138.383">  2  5  1 -1</clus>
</clustering>
</event>
<event>
 9    2  0.6175212E-005  0.1939479E+03  0.7546771E-02  0.1190280E+00
         21   -1    0    0  501  502  0.00000000000E+00  0.00000000000E+00  0.18523785327E+03  0.18523785327E+03  0.00000000000E+00 0. -1.
          2   -1    0    0  502    0 -0.00000000000E+00 -0.00000000000E+00 -0.46949968778E+03  0.46949968778E+03  0.00000000000E+00 0. -1.
         24    2    1    2    0    0 -0.16087157595E+02  0.16959261736E+02  0.71015418513E+02  0.11210326706E+03  0.83531668371E+02 0.  0.
         23    2    1    2    0    0 -0.16551570416E+03 -0.21221849103E+01 -0.66274267835E+02  0.20098757973E+03  0.92756544971E+02 0.  0.
        -11    1    3    3    0    0 -0.55413995326E+01 -0.24683913254E+02 -0.40449351476E+01  0.25619605435E+02  0.00000000000E+00 0.  1.
         12    1    3    3    0    0 -0.10545758062E+02  0.41643174990E+02  0.75060353661E+02  0.86483661624E+02  0.00000000000E+00 0. -1.
        -13    1    4    4    0    0 -0.15392231236E+03  0.21116223714E+02 -0.33088851436E+02  0.15884849775E+03  0.00000000000E+00 0. -1.
         13    1    4    4    0    0 -0.11593391802E+02 -0.23238408625E+02 -0.33185416398E+02  0.42139081984E+02  0.00000000000E+00 0.  1.
          1    1    1    2  501    0  0.18160286176E+03 -0.14837076825E+02 -0.28900298519E+03  0.34164669426E+03  0.00000000000E+00 0. -1.
<scales pt_clust_5="13000.00000" pt_clust_6="13000.00000" pt_clust_7="13000.00000" pt_clust_8="13000.00000" pt_clust_9="170.32923"></scales>
<clustering>
<clus scale="   83.532">  5  6 -1 -1</clus>
<clus scale="   86.741">  2  5  1 -1</clus>
<clus scale="   92.757">  7  8 -1 -1</clus>
<clus scale="  170.329">  1  9  2 -1</clus>
<clus scale="  170.329">  1  5  2 -1</clus>
</clustering>
</event>
<event>
 9    2  0.6175212E-005  0.1042151E+03  0.7546771E-02  0.1276176E+00
         21   -1    0    0  501  502  0.00000000000E+00  0.00000000000E+00  0.91032658746E+02  0.91032658746E+02  0.00000000000E+00 0.  1.
          2   -1    0    0  502    0 -0.00000000000E+00 -0.00000000000E+00 -0.43598530579E+03  0.43598530579E+03  0.00000000000E+00 0. -1.
         24    2    1    2    0    0 -0.14628299472E+02 -0.49296208868E+02 -0.36519533141E+03  0.37766628444E+03  0.81363929115E+02 0.  0.
         23    2    1    2    0    0  0.24077793076E+02  0.27792028284E+02  0.50800397480E+02  0.11080954027E+03  0.91356099276E+02 0.  0.
        -13    1    3    3    0    0  0.33433727417E+02 -0.26333134504E+02 -0.14473915787E+03  0.15086640422E+03  0.00000000000E+00 0.  1.
         14    1    3    3    0    0 -0.48062026889E+02 -0.22963074364E+02 -0.22045617354E+03  0.22679988021E+03  0.00000000000E+00 0. -1.
        -11    1    4    4    0    0  0.34401052364E+02 -0.26366961920E+02  0.22646190575E+02  0.48902955250E+02  0.00000000000E+00 0.  1.
         11    1    4    4    0    0 -0.10323259287E+02  0.54158990204E+02  0.28154206905E+02  0.61906585019E+02  0.00000000000E+00 0. -1.
          1    1    1    2  501    0 -0.94494936041E+01  0.21504180584E+02 -0.30557713113E+02  0.38542139829E+02  0.00000000000E+00 0. -1.
<scales pt_clust_5="13000.00000" pt_clust_6="13000.00000" pt_clust_7="13000.00000" pt_clust_8="13000.00000" pt_clust_9="23.48879"></scales>
<clustering>
<clus scale="   23.489">  1  9  2 -1</clus>
<clus scale="   81.364">  5  6 -1 -1</clus>
<clus scale="   91.356">  7  8 -1 -1</clus>
<clus scale="   95.577">  2  5  1 -1</clus>
<clus scale="   23.489">  1  5  2 -1</clus>
</clustering>
</event>
<event>
 9    2  0.6175212E-005  0.1040503E+03  0.7546771E-02  0.1277349E+00
         21   -1    0    0  501  502  0.00000000000E+00  0.00000000000E+00  0.10021782071E+03  0.10021782071E+03  0.00000000000E+00 0. -1.
          2   -1    0    0  502    0 -0.00000000000E+00 -0.00000000000E+00 -0.14966557365E+03  0.14966557365E+03  0.00000000000E+00 0. -1.
         23    2    1    2    0    0 -0.29491128361E+02  0.26699822039E+02 -0.37292172917E+02  0.10735539116E+03  0.92476303464E+02 0.  0.
         24    2    1    2    0    0  0.63529831262E+02 -0.82967389426E+01 -0.61621979140E+01  0.10337155556E+03  0.80887764702E+02 0.  0.
        -13    1    4    4    0    0  0.72229838947E+02 -0.28299633071E+02 -0.16376325436E+02  0.79285578140E+02  0.00000000000E+00 0.  1.
         14    1    4    4    0    0 -0.87000076846E+01  0.20002894129E+02  0.10214127522E+02  0.24085977420E+02  0.00000000000E+00 0. -1.
        -13    1    3    3    0    0 -0.15425924809E+02 -0.17460651600E+02  0.22037061565E+02  0.32069698984E+02  0.00000000000E+00 0.  1.
         13    1    3    3    0    0 -0.14065203552E+02  0.44160473639E+02 -0.59329234481E+02  0.75285692181E+02  0.00000000000E+00 0. -1.
          1    1    1    2  501    0 -0.34038702901E+02 -0.18403083097E+02 -0.59933821069E+01  0.39156447639E+02  0.00000000000E+00 0. -1.
<scales pt_clust_5="13000.00000" pt_clust_6="13000.00000" pt_clust_7="13000.00000" pt_clust_8="13000.00000" pt_clust_9="38.69505"></scales>
<clustering>
<clus scale="   38.695">  1  9  2 -1</clus>
<clus scale="   80.888">  5  6 -1 -1</clus>
<clus scale="   92.476">  7  8 -1 -1</clus>
<clus scale="   93.901">  1  5  2 -1</clus>
<clus scale="   38.695">  1  5  2 -1</clus>
</clustering>
</event>
<event>
 9    2  0.9662933E-005  0.9845566E+02  0.7546771E-02  0.1287590E+00
         21   -1    0    0  501  502  0.00000000000E+00  0.00000000000E+00  0.16226585060E+03  0.16226585060E+03  0.00000000000E+00 0.  1.
         -1   -1    0    0    0  501 -0.00000000000E+00 -0.00000000000E+00 -0.34059801210E+03  0.34059801210E+03  0.00000000000E+00 0.  1.
         23    2    1    2    0    0 -0.14236633254E+02 -0.42463488445E+02 -0.20099575388E+03  0.22499673664E+03  0.90655440215E+02 0.  0.
         24    2    1    2    0    0 -0.54727907056E+02 -0.17334318223E+02  0.11472636123E+03  0.14822361905E+03  0.74246083301E+02 0.  0.
        -11    1    4    4    0    0 -0.70333381653E+02 -0.31532769362E+01  0.10080314909E+03  0.12295528698E+03  0.00000000000E+00 0.  1.
         12    1    4    4    0    0  0.15605474597E+02 -0.14181041287E+02  0.13923212131E+02  0.25268332067E+02  0.00000000000E+00 0. -1.
        -13    1    3    3    0    0  0.23314411075E+02  0.14535268971E+02 -0.28978929331E+02  0.39932620162E+02  0.00000000000E+00 0. -1.
         13    1    3    3    0    0 -0.37551044329E+02 -0.56998757416E+02 -0.17201682455E+03  0.18506411648E+03  0.00000000000E+00 0.  1.
         -2    1    1    2    0  502  0.68964540310E+02  0.59797806668E+02 -0.92062768845E+02  0.12964350701E+03  0.00000000000E+00 0.  1.
<scales pt_clust_5="13000.00000" pt_clust_6="13000.00000" pt_clust_7="13000.00000" pt_clust_8="13000.00000" pt_clust_9="91.27921"></scales>
<clustering>
<clus scale="   74.246">  5  6 -1 -1</clus>
<clus scale="   90.655">  7  8 -1 -1</clus>
<clus scale="   91.279">  1  9  2 -1</clus>
<clus scale="   91.279">  1  5  2 -1</clus>
<clus scale="   91.279">  1  5  2 -1</clus>
</clustering>
</event>
<event>
 9    2  0.6175212E-005  0.9129675E+02  0.7546771E-02  0.1304833E+00
         21   -1    0    0  501  502  0.00000000000E+00  0.00000000000E+00  0.14924943856E+02  0.14924943856E+02  0.00000000000E+00 0. -1.
          2   -1    0    0  502    0 -0.00000000000E+00 -0.00000000000E+00 -0.73415633798E+03  0.73415633798E+03  0.00000000000E+00 0. -1.
         23    2    1    2    0    0  0.12671175049E+02  0.12436852213E+01 -0.36807440532E+03  0.37900079492E+03  0.89446795752E+02 0.  0.
         24    2    1    2    0    0 -0.15484767900E+02  0.27510372525E+02 -0.28216210299E+03  0.29528071144E+03  0.81108862367E+02 0.  0.
        -11    1    4    4    0    0  0.32190931218E+02  0.20814167452E+02 -0.14187224909E+03  0.14695992883E+03  0.00000000000E+00 0.  1.
         12    1    4    4    0    0 -0.47675699118E+02  0.66962050727E+01 -0.14028985390E+03  0.14832078261E+03  0.00000000000E+00 0. -1.
        -11    1    3    3    0    0 -0.13516429470E+01 -0.42138774916E+02 -0.22230955986E+03  0.22627205681E+03  0.00000000000E+00 0.  1.
         11    1    3    3    0    0  0.14022817996E+02  0.43382460137E+02 -0.14576484546E+03  0.15272873811E+03  0.00000000000E+00 0. -1.
          1    1    1    2  501    0  0.28135928514E+01 -0.28754057746E+02 -0.68994885822E+02  0.74799775476E+02  0.00000000000E+00 0. -1.
<scales pt_clust_5="13000.00000" pt_clust_6="13000.00000" pt_clust_7="13000.00000" pt_clust_8="13000.00000" pt_clust_9="28.89139"></scales>
<clustering>
<clus scale="   28.891">  1  9  2 -1</clus>
<clus scale="   81.109">  5  6 -1 -1</clus>
<clus scale="   83.145">  1  5  2 -1</clus>
<clus scale="   89.447">  7  8 -1 -1</clus>
<clus scale="   28.891">  1  5  2 -1</clus>
</clustering>
</event>
<event>
 9    2  0.6175212E-005  0.1102718E+03  0.7546771E-02  0.1266633E+00
         -1   -1    0    0    0  501 -0.00000000000E+00  0.00000000000E+00  0.21817862964E+03  0.21817862964E+03  0.00000000000E+00 0.  1.
         21   -1    0    0  501  502  0.00000000000E+00 -0.00000000000E+00 -0.10610443829E+03  0.10610443829E+03  0.00000000000E+00 0.  1.
         23    2    1    2    0    0 -0.20904325302E+02  0.51494594618E+02  0.99951928517E+02  0.14602187476E+03  0.90792707872E+02 0.  0.
         24    2    1    2    0    0  0.46092897710E+02 -0.56746954227E+02  0.62698514193E+02  0.12151607299E+03  0.74096425556E+02 0.  0.
        -11    1    4    4    0    0  0.43442763471E+02 -0.40001528258E+02  0.26429156319E+01  0.59113289234E+02  0.00000000000E+00 0.  1.
         12    1    4    4    0    0  0.26501342390E+01 -0.16745425969E+02  0.60055598561E+02  0.62402783759E+02  0.00000000000E+00 0. -1.
        -11    1    3    3    0    0 -0.18397079544E+02  0.20133293211E+02 -0.11953993115E+02  0.29777507999E+02  0.00000000000E+00 0. -1.
         11    1    3    3    0    0 -0.25072457575E+01  0.31361301407E+02  0.11190592163E+03  0.11624436676E+03  0.00000000000E+00 0.  1.
         -2    1    1    2    0  502 -0.25188572408E+02  0.52523596095E+01 -0.50576251366E+02  0.56745120175E+02  0.00000000000E+00 0.  1.
<scales pt_clust_5="13000.00000" pt_clust_6="13000.00000" pt_clust_7="13000.00000" pt_clust_8="13000.00000" pt_clust_9="25.73036"></scales>
<clustering>
<clus scale="   25.730">  2  9  1 -1</clus>
<clus scale="   74.096">  5  6 -1 -1</clus>
<clus scale="   90.793">  7  8 -1 -1</clus>
<clus scale="   96.989">  2  5  1 -1</clus>
<clus scale="   25.730">  2  5  1 -1</clus>
</clustering>
</event>
<event>
 9    2  0.6175212E-005  0.1504773E+03  0.7546771E-02  0.1201731E+00
          2   -1    0    0  502    0 -0.00000000000E+00  0.00000000000E+00  0.85395690776E+03  0.85395690776E+03  0.00000000000E+00 0. -1.
         21   -1    0    0  501  502  0.00000000000E+00 -0.00000000000E+00 -0.32441028341E+02  0.32441028341E+02  0.00000000000E+00 0. -1.
         23    2    1    2    0    0 -0.11381581249E+02  0.11532708529E+03  0.38596175964E+03  0.41309398248E+03  0.90831060009E+02 0.  0.
         24    2    1    2    0    0 -0.87951146180E+01 -0.12604680185E+03  0.29504271066E+03  0.33094712213E+03  0.80688575620E+02 0.  0.
        -13    1    4    4    0    0 -0.20124224254E+02  0.30206381093E+01  0.41067414512E+02  0.45832752384E+02  0.00000000000E+00 0.  1.
         14    1    4    4    0    0  0.11329109636E+02 -0.12906743996E+03  0.25397529615E+03  0.28511436975E+03  0.00000000000E+00 0. -1.
        -13    1    3    3    0    0 -0.54790034757E+01  0.78912268818E+02  0.35845090839E+03  0.36707522304E+03  0.00000000000E+00 0.  1.
         13    1    3    3    0    0 -0.59025777729E+01  0.36414816474E+02  0.27510851250E+02  0.46018759432E+02  0.00000000000E+00 0. -1.
          1    1    1    2  501    0  0.20176695867E+02  0.10719716561E+02  0.14051140913E+03  0.14235683150E+03  0.00000000000E+00 0. -1.
<scales pt_clust_5="13000.00000" pt_clust_6="13000.00000" pt_clust_7="13000.00000" pt_clust_8="13000.00000" pt_clust_9="22.84758"></scales>
<clustering>
<clus scale="   22.848">  2  9  1 -1</clus>
<clus scale="   80.689">  5  6 -1 -1</clus>
<clus scale="   90.831">  7  8 -1 -1</clus>
<clus scale="  144.581">  2  5  1 -1</clus>
<clus scale="   22.848">  2  5  1 -1</clus>
</clustering>
</event>
<event>
 9    2  0.6175212E-005  0.1067761E+03  0.7546771E-02  0.1272292E+00
         21   -1    0    0  501  502  0.00000000000E+00  0.00000000000E+00  0.29122763611E+03  0.29122763611E+03  0.00000000000E+00 0. -1.
          2   -1    0    0  502    0 -0.00000000000E+00 -0.00000000000E+00 -0.99441877168E+02  0.99441877168E+02  0.00000000000E+00 0. -1.
         24    2    1    2    0    0 -0.64615184168E+00 -0.58616077915E+02 -0.24599593311E+02  0.10201876791E+03  0.79789892299E+02 0.  0.
         23    2    1    2    0    0  0.57809358837E+02  0.27736624337E+02  0.82086052511E+02  0.13946135299E+03  0.92736760032E+02 0.  0.
        -13    1    3    3    0    0  0.19579743488E+02  0.11934082810E+02  0.39526402271E+01  0.23268262770E+02  0.00000000000E+00 0.  1.
         14    1    3    3    0    0 -0.20225895330E+02 -0.70550160725E+02 -0.28552233538E+02  0.78750505143E+02  0.00000000000E+00 0. -1.
        -11    1    4    4    0    0  0.53485675641E+01  0.51406664425E+02  0.21739746670E+02  0.56070214085E+02  0.00000000000E+00 0.  1.
         11    1    4    4    0    0  0.52460791273E+02 -0.23670040087E+02  0.60346305840E+02  0.83391138901E+02  0.00000000000E+00 0. -1.
          1    1    1    2  501    0 -0.57163206995E+02  0.30879453578E+02  0.13429929974E+03  0.14918939238E+03  0.00000000000E+00 0. -1.
<scales pt_clust_5="13000.00000" pt_clust_6="13000.00000" pt_clust_7="13000.00000" pt_clust_8="13000.00000" pt_clust_9="64.97055"></scales>
<clustering>
<clus scale="   64.971">  1  9  2 -1</clus>
<clus scale="   79.790">  5  6 -1 -1</clus>
<clus scale="   92.737">  7  8 -1 -1</clus>
<clus scale="   95.747">  2  5  1 -1</clus>
<clus scale="   64.971">  1  5  2 -1</clus>
</clustering>
</event>
<event>
 9    2  0.6175212E-005  0.9567217E+02  0.7546771E-02  0.1301160E+00
          4   -1    0    0  502    0 -0.00000000000E+00  0.00000000000E+00  0.79330596695E+02  0.79330596695E+02  0.00000000000E+00 0. -1.
         21   -1    0    0  501  502  0.00000000000E+00 -0.00000000000E+00 -0.17147048965E+03  0.17147048965E+03  0.00000000000E+00 0.  1.
         23    2    1    2    0    0 -0.63985154612E+01  0.22975937897E+02 -0.96178710321E+01  0.94950066569E+02  0.91401186950E+02 0.  0.
         24    2    1    2    0    0  0.34646415921E+02 -0.24967098286E+02 -0.93516733776E+02  0.12547352335E+03  0.71933965777E+02 0.  0.
        -11    1    4    4    0    0  0.30618751566E+02 -0.44904850424E+02 -0.89545489160E+02  0.10474897693E+03  0.00000000000E+00 0.  1.
         12    1    4    4    0    0  0.40276643553E+01  0.19937752138E+02 -0.39712446161E+01  0.20724546419E+02  0.00000000000E+00 0. -1.
        -11    1    3    3    0    0 -0.15013711515E+02  0.49657431985E+02  0.18657210663E+02  0.55130423493E+02  0.00000000000E+00 0.  1.
         11    1    3    3    0    0  0.86151960537E+01 -0.26681494089E+02 -0.28275081695E+02  0.39819643076E+02  0.00000000000E+00 0. -1.
          3    1    1    2  501    0 -0.28247900460E+02  0.19911603898E+01  0.10994711858E+02  0.30377496423E+02  0.00000000000E+00 0. -1.
<scales pt_clust_5="13000.00000" pt_clust_6="13000.00000" pt_clust_7="13000.00000" pt_clust_8="13000.00000" pt_clust_9="28.31800"></scales>
<clustering>
<clus scale="   28.318">  2  9  1 -1</clus>
<clus scale="   71.934">  5  6 -1 -1</clus>
<clus scale="   77.288">  2  5  1 -1</clus>
<clus scale="   91.401">  7  8 -1 -1</clus>
<clus scale="   28.318">  2  5  1 -1</clus>
</clustering>
</event>
<event>
 9    2  0.6175212E-005  0.1317151E+03  0.7546771E-02  0.1241272E+00
          2   -1    0    0  502    0 -0.00000000000E+00  0.00000000000E+00  0.56310543136E+02  0.56310543136E+02  0.00000000000E+00 0. -1.
         21   -1    0    0  501  502  0.00000000000E+00 -0.00000000000E+00 -0.92894414203E+03  0.92894414203E+03  0.00000000000E+00 0. -1.
         23    2    1    2    0    0 -0.20066596942E+02  0.11845745172E+02 -0.50003138646E+02  0.10661185792E+03  0.91229295638E+02 0.  0.
         24    2    1    2    0    0 -0.67621467871E+02  0.49878901890E+02 -0.11824008616E+03  0.16613673754E+03  0.80994628305E+02 0.  0.
        -13    1    4    4    0    0 -0.57667912769E+02  0.17886341699E+02 -0.22050062125E+02  0.64278414901E+02  0.00000000000E+00 0.  1.
         14    1    4    4    0    0 -0.99535551024E+01  0.31992560192E+02 -0.96190024037E+02  0.10185832264E+03  0.00000000000E+00 0. -1.
        -13    1    3    3    0    0  0.34146110612E+02  0.18253253978E+02 -0.27867347429E+02  0.47704582625E+02  0.00000000000E+00 0.  1.
         13    1    3    3    0    0 -0.54212707555E+02 -0.64075088067E+01 -0.22135791217E+02  0.58907275292E+02  0.00000000000E+00 0. -1.
          1    1    1    2  501    0  0.87688064814E+02 -0.61724647062E+02 -0.70439037408E+03  0.71250608970E+03  0.00000000000E+00 0. -1.
<scales pt_clust_5="13000.00000" pt_clust_6="13000.00000" pt_clust_7="13000.00000" pt_clust_8="13000.00000" pt_clust_9="103.86888"></scales>
<clustering>
<clus scale="   80.995">  5  6 -1 -1</clus>
<clus scale="   91.229">  7  8 -1 -1</clus>
<clus scale="   94.158">  1  7  2 -1</clus>
<clus scale="  103.869">  2  9  1 -1</clus>
<clus scale="  103.869">  2  5  1 -1</clus>
</clustering>
</event>
<event>
 9    2  0.6175212E-005  0.9269761E+02  0.7546771E-02  0.1303188E+00
          2   -1    0    0  502    0 -0.00000000000E+00  0.00000000000E+00  0.93841366531E+03  0.93841366531E+03  0.00000000000E+00 0. -1.
         21   -1    0    0  501  502  0.00000000000E+00 -0.00000000000E+00 -0.31760015967E+02  0.31760015967E+02  0.00000000000E+00 0. -1.
         23    2    1    2    0    0 -0.85700669421E+01  0.97083923589E+01  0.43718265065E+03  0.44668714944E+03  0.90736103671E+02 0.  0.
         24    2    1    2    0    0 -0.21362889110E+02 -0.64423567265E+02  0.87331855698E+02  0.13629141716E+03  0.79634969219E+02 0.  0.
        -11    1    4    4    0    0 -0.30666860565E+02  0.61388903220E+01  0.40175364996E+02  0.50913674626E+02  0.00000000000E+00 0.  1.
         12    1    4    4    0    0  0.93039714546E+01 -0.70562457588E+02  0.47156490702E+02  0.85377742538E+02  0.00000000000E+00 0. -1.
        -13    1    3    3    0    0 -0.40261349628E+02 -0.22702506978E+02  0.21004665209E+03  0.21507202550E+03  0.00000000000E+00 0. -1.
         13    1    3    3    0    0  0.31691282686E+02  0.32410899337E+02  0.22713599856E+03  0.23161512394E+03  0.00000000000E+00 0.  1.
          1    1    1    2  501    0  0.29932956052E+02  0.54715174907E+02  0.38213914299E+03  0.38719511468E+03  0.00000000000E+00 0. -1.
<scales pt_clust_5="13000.00000" pt_clust_6="13000.00000" pt_clust_7="13000.00000" pt_clust_8="13000.00000" pt_clust_9="62.36775"></scales>
<clustering>
<clus scale="   62.368">  2  9  1 -1</clus>
<clus scale="   79.635">  5  6 -1 -1</clus>
<clus scale="   81.863">  2  5  1 -1</clus>
<clus scale="   90.736">  7  8 -1 -1</clus>
<clus scale="   62.368">  2  5  1 -1</clus>
</clustering>
</event>
<event>
 9    2  0.6175212E-005  0.9377192E+02  0.7546771E-02  0.1300992E+00
         21   -1    0    0  501  502  0.00000000000E+00  0.00000000000E+00  0.21452512464E+03  0.21452512464E+03  0.00000000000E+00 0.  1.
          2   -1    0    0  502    0 -0.00000000000E+00 -0.00000000000E+00 -0.64859120850E+02  0.64859120850E+02  0.00000000000E+00 0. -1.
         23    2    1    2    0    0 -0.11756501497E+02 -0.37236451960E+01  0.57743425524E+02  0.10937313988E+03  0.92065735623E+02 0.  0.
         24    2    1    2    0    0 -0.32269916617E+02  0.28236135723E+02  0.70745940972E+02  0.11535181865E+03  0.80389222052E+02 0.  0.
        -11    1    4    4    0    0 -0.29118502014E+02  0.71925830986E+00 -0.93588550847E+01  0.30593997133E+02  0.00000000000E+00 0.  1.
         12    1    4    4    0    0 -0.31514146031E+01  0.27516877413E+02  0.80104796056E+02  0.84757821514E+02  0.00000000000E+00 0. -1.
        -11    1    3    3    0    0 -0.25241349333E+02  0.39058943695E+02  0.19506917131E+02  0.50430611881E+02  0.00000000000E+00 0. -1.
         11    1    3    3    0    0  0.13484847836E+02 -0.42782588891E+02  0.38236508392E+02  0.58942528003E+02  0.00000000000E+00 0.  1.
          1    1    1    2  501    0  0.44026418114E+02 -0.24512490527E+02  0.21176637292E+02  0.54659286958E+02  0.00000000000E+00 0. -1.
<scales pt_clust_5="13000.00000" pt_clust_6="13000.00000" pt_clust_7="13000.00000" pt_clust_8="13000.00000" pt_clust_9="50.39038"></scales>
<clustering>
<clus scale="   50.390">  1  9  2 -1</clus>
<clus scale="   80.389">  5  6 -1 -1</clus>
<clus scale="   82.338">  1  5  2 -1</clus>
<clus scale="   92.066">  7  8 -1 -1</clus>
<clus scale="   50.390">  1  5  2 -1</clus>
</clustering>
</event>
<event>
 9    2  0.6175212E-005  0.1210094E+03  0.7546771E-02  0.1257921E+00
         21   -1    0    0  501  502  0.00000000000E+00  0.00000000000E+00  0.50726355836E+03  0.50726355836E+03  0.00000000000E+00 0. -1.
          2   -1    0    0  502    0 -0.00000000000E+00 -0.00000000000E+00 -0.20773686865E+03  0.20773686865E+03  0.00000000000E+00 0. -1.
         24    2    1    2    0    0 -0.48628843712E+01  0.27796518333E+02 -0.17580621506E+03  0.19617593215E+03  0.82346080812E+02 0.  0.
         23    2    1    2    0    0 -0.35209065519E+02  0.59764418693E+02  0.25709440470E+03  0.28028577312E+03  0.87470667363E+02 0.  0.
        -13    1    3    3    0    0  0.15064230991E+02 -0.25346386958E+02 -0.47974057397E+02  0.56310572456E+02  0.00000000000E+00 0.  1.
         14    1    3    3    0    0 -0.19927115362E+02  0.53142905291E+02 -0.12783215766E+03  0.13986535969E+03  0.00000000000E+00 0. -1.
        -13    1    4    4    0    0 -0.34560855240E+02 -0.72120915699E+01  0.14896871675E+03  0.15309521727E+03  0.00000000000E+00 0.  1.
         13    1    4    4    0    0 -0.64821027965E+00  0.66976510263E+02  0.10812568794E+03  0.12719055585E+03  0.00000000000E+00 0. -1.
          1    1    1    2  501    0  0.40071949891E+02 -0.87560937026E+02  0.21823850008E+03  0.23853872175E+03  0.00000000000E+00 0. -1.
<scales pt_clust_5="13000.00000" pt_clust_6="13000.00000" pt_clust_7="13000.00000" pt_clust_8="13000.00000" pt_clust_9="83.61918"></scales>
<clustering>
<clus scale="   82.346">  5  6 -1 -1</clus>
<clus scale="   87.047">  2  5  1 -1</clus>
<clus scale="   83.619">  1  9  2 -1</clus>
<clus scale="   87.471">  7  8 -1 -1</clus>
<clus scale="   83.619">  1  5  2 -1</clus>
</clustering>
</event>
<event>
 9    2  0.6175212E-005  0.1297977E+03  0.7546771E-02  0.1228955E+00
         21   -1    0    0  501  502  0.00000000000E+00  0.00000000000E+00  0.47453194760E+02  0.47453194760E+02  0.00000000000E+00 0. -1.
          2   -1    0    0  502    0 -0.00000000000E+00 -0.00000000000E+00 -0.71011842135E+03  0.71011842135E+03  0.00000000000E+00 0. -1.
         24    2    1    2    0    0 -0.34400444424E+02 -0.91422318057E+02 -0.55184029094E+03  0.56619679856E+03  0.80682570493E+02 0.  0.
         23    2    1    2    0    0  0.53658909997E+02  0.83149534757E+02 -0.10907520625E+03  0.17034177229E+03  0.85590858237E+02 0.  0.
        -11    1    3    3    0    0  0.22264143890E+02 -0.15716043449E+02 -0.69064602402E+02  0.74246922022E+02  0.00000000000E+00 0.  1.
         12    1    3    3    0    0 -0.56664588314E+02 -0.75706274608E+02 -0.48277568854E+03  0.49194987654E+03  0.00000000000E+00 0. -1.
        -13    1    4    4    0    0  0.21969299660E+02  0.74185151550E+02 -0.11323897536E+03  0.13714646324E+03  0.00000000000E+00 0. -1.
         13    1    4    4    0    0  0.31689610338E+02  0.89643832073E+01  0.41637691060E+01  0.33195309048E+02  0.00000000000E+00 0.  1.
          1    1    1    2  501    0 -0.19258465574E+02  0.82727833000E+01 -0.17497293901E+01  0.21033045256E+02  0.00000000000E+00 0. -1.
<scales pt_clust_5="13000.00000" pt_clust_6="13000.00000" pt_clust_7="13000.00000" pt_clust_8="13000.00000" pt_clust_9="20.96014"></scales>
<clustering>
<clus scale="   20.960">  1  9  2 -1</clus>
<clus scale="   80.683">  5  6 -1 -1</clus>
<clus scale="   85.591">  7  8 -1 -1</clus>
<clus scale="  126.615">  2  5  1 -1</clus>
<clus scale="   20.960">  1  5  2 -1</clus>
</clustering>
</event>
<event>
 9    2  0.6175212E-005  0.9106680E+02  0.7546771E-02  0.1304734E+00
          2   -1    0    0  502    0 -0.00000000000E+00  0.00000000000E+00  0.53342225496E+03  0.53342225496E+03  0.00000000000E+00 0. -1.
         21   -1    0    0  501  502  0.00000000000E+00 -0.00000000000E+00 -0.28545400637E+02  0.28545400637E+02  0.00000000000E+00 0.  1.
         23    2    1    2    0    0 -0.13434141325E+02 -0.78221386551E+00  0.20316250990E+03  0.22219118996E+03  0.88954097460E+02 0.  0.
         24    2    1    2    0    0  0.27578006481E+02 -0.21266427892E+02  0.89824377489E+02  0.12627342207E+03  0.81631800994E+02 0.  0.
        -13    1    4    4    0    0  0.17743476620E+02  0.21266339746E+02  0.14850223616E+01  0.27736139965E+02  0.00000000000E+00 0.  1.
         14    1    4    4    0    0  0.98345298610E+01 -0.42532767638E+02  0.88339355127E+02  0.98537282106E+02  0.00000000000E+00 0. -1.
        -13    1    3    3    0    0 -0.12393185618E+01 -0.43266745963E+02  0.74663926876E+02  0.86303239762E+02  0.00000000000E+00 0.  1.
         13    1    3    3    0    0 -0.12194822764E+02  0.42484532098E+02  0.12849858302E+03  0.13588795020E+03  0.00000000000E+00 0. -1.
          1    1    1    2  501    0 -0.14143865155E+02  0.22048641757E+02  0.21188996694E+03  0.21350304357E+03  0.00000000000E+00 0. -1.
<scales pt_clust_5="13000.00000" pt_clust_6="13000.00000" pt_clust_7="13000.00000" pt_clust_8="13000.00000" pt_clust_9="26.19527"></scales>
<clustering>
<clus scale="   26.195">  2  9  1 -1</clus>
<clus scale="   81.632">  5  6 -1 -1</clus>
<clus scale="   83.929">  2  5  1 -1</clus>
<clus scale="   88.954">  7  8 -1 -1</clus>
<clus scale="   26.195">  2  5  1 -1</clus>
</clustering>
</event>
<event>
 9    2  0.6175212E-005  0.1195495E+03  0.7546771E-02  0.1260658E+00
         21   -1    0    0  501  502  0.00000000000E+00  0.00000000000E+00  0.16390914320E+02  0.16390914320E+02  0.00000000000E+00 0. -1.
          2   -1    0    0  502    0 -0.00000000000E+00 -0.00000000000E+00 -0.12482111913E+04  0.12482111913E+04  0.00000000000E+00 0. -1.
         24    2    1    2    0    0 -0.13225437144E+01 -0.31766747098E+02 -0.35854043979E+03  0.36860342602E+03  0.79412614635E+02 0.  0.
         23    2    1    2    0    0 -0.29915863539E+02 -0.53257985265E+02 -0.51859167347E+03  0.52992664204E+03  0.90297011410E+02 0.  0.
        -11    1    3    3    0    0  0.27386255374E+02  0.12202112063E+02 -0.86699933123E+02  0.91737543709E+02  0.00000000000E+00 0.  1.
         12    1    3    3    0    0 -0.28708799088E+02 -0.43968859161E+02 -0.27184050667E+03  0.27686588231E+03  0.00000000000E+00 0. -1.
        -11    1    4    4    0    0  0.32487533362E+01  0.24278442300E+02 -0.10409689541E+03  0.10693998688E+03  0.00000000000E+00 0.  1.
         11    1    4    4    0    0 -0.33164616875E+02 -0.77536427565E+02 -0.41449477806E+03  0.42298665517E+03  0.00000000000E+00 0. -1.
          1    1    1    2  501    0  0.31238407253E+02  0.85024732363E+02 -0.35468816375E+03  0.36607203759E+03  0.00000000000E+00 0. -1.
<scales pt_clust_5="13000.00000" pt_clust_6="13000.00000" pt_clust_7="13000.00000" pt_clust_8="13000.00000" pt_clust_9="78.34884"></scales>
<clustering>
<clus scale="   79.413">  5  6 -1 -1</clus>
<clus scale="   85.541">  2  5  1 -1</clus>
<clus scale="   78.349">  1  9  2 -1</clus>
<clus scale="   90.297">  7  8 -1 -1</clus>
<clus scale="   78.349">  1  5  2 -1</clus>
</clustering>
</event>
<event>
 9    2  0.6175212E-005  0.1227170E+03  0.7546771E-02  0.1241365E+00
         -1   -1    0    0    0  501 -0.00000000000E+00  0.00000000000E+00  0.32679725070E+03  0.32679725070E+03  0.00000000000E+00 0.  1.
         21   -1    0    0  501  502  0.00000000000E+00 -0.00000000000E+00 -0.71918803861E+02  0.71918803861E+02  0.00000000000E+00 0.  1.
         24    2    1    2    0    0 -0.49957542816E+02 -0.51001740057E+02  0.11522361640E+03  0.15795520786E+03  0.81095205407E+02 0.  0.
         23    2    1    2    0    0  0.33344687608E+02  0.10067963464E+03  0.12308145978E+03  0.18581945262E+03  0.90175197310E+02 0.  0.
        -11    1    3    3    0    0 -0.29648900972E+02  0.61718099249E+01  0.84872738017E+02  0.90113984626E+02  0.00000000000E+00 0.  1.
         12    1    3    3    0    0 -0.20308641845E+02 -0.57173549982E+02  0.30350878387E+02  0.67841223235E+02  0.00000000000E+00 0. -1.
        -13    1    4    4    0    0  0.32980261587E+02 -0.43824618087E+01  0.21075073533E+02  0.39383528921E+02  0.00000000000E+00 0. -1.
         13    1    4    4    0    0  0.36442602152E+00  0.10506209645E+03  0.10200638624E+03  0.14643592370E+03  0.00000000000E+00 0.  1.
         -2    1    1    2    0  502  0.16612855208E+02 -0.49677894579E+02  0.16573370655E+02  0.54941394074E+02  0.00000000000E+00 0.  1.
<scales pt_clust_5="13000.00000" pt_clust_6="13000.00000" pt_clust_7="13000.00000" pt_clust_8="13000.00000" pt_clust_9="52.38206"></scales>
<clustering>
<clus scale="   52.382">  2  9  1 -1</clus>
<clus scale="   81.095">  5  6 -1 -1</clus>
<clus scale="   90.175">  7  8 -1 -1</clus>
<clus scale="  116.208">  1  5  2 -1</clus>
<clus scale="   52.382">  2  5  1 -1</clus>
</clustering>
</event>
<event>
 9    2  0.6175212E-005  0.1939803E+03  0.7546771E-02  0.1185803E+00
          2   -1    0    0  502    0 -0.00000000000E+00  0.00000000000E+00  0.41888725518E+03  0.41888725518E+03  0.00000000000E+00 0. -1.
         21   -1    0    0  501  502  0.00000000000E+00 -0.00000000000E+00 -0.30795647887E+03  0.30795647887E+03  0.00000000000E+00 0. -1.
         24    2    1    2    0    0  0.35191548813E+02  0.31125167513E+02  0.41250940290E+02  0.10425204377E+03  0.83424381301E+02 0.  0.
         23    2    1    2    0    0  0.78543505540E+02  0.10335074805E+03  0.29625396376E+03  0.33561561144E+03  0.89559858276E+02 0.  0.
        -13    1    3    3    0    0 -0.55083037646E+01 -0.22360668420E+02 -0.37988942817E+01  0.23340362044E+02  0.00000000000E+00 0.  1.
         14    1    3    3    0    0  0.40699852578E+02  0.53485835933E+02  0.45049834572E+02  0.80911681729E+02  0.00000000000E+00 0. -1.
        -13    1    4    4    0    0  0.28135526842E+02  0.87372059804E+02  0.11691211540E+03  0.14864026181E+03  0.00000000000E+00 0.  1.
         13    1    4    4    0    0  0.50407978698E+02  0.15978688247E+02  0.17934184837E+03  0.18697534963E+03  0.00000000000E+00 0. -1.
          1    1    1    2  501    0 -0.11373505435E+03 -0.13447591556E+03 -0.22657412775E+03  0.28697607883E+03  0.00000000000E+00 0. -1.
<scales pt_clust_5="13000.00000" pt_clust_6="13000.00000" pt_clust_7="13000.00000" pt_clust_8="13000.00000" pt_clust_9="172.06797"></scales>
<clustering>
<clus scale="   83.424">  5  6 -1 -1</clus>
<clus scale="   89.560">  7  8 -1 -1</clus>
<clus scale="   95.744">  1  5  2 -1</clus>
<clus scale="  172.068">  2  9  1 -1</clus>
<clus scale="  172.068">  2  5  1 -1</clus>
</clustering>
</event>
<event>
 9    2  0.6175212E-005  0.9055369E+02  0.7546771E-02  0.1306613E+00
         21   -1    0    0  501  502  0.00000000000E+00  0.00000000000E+00  0.20031544494E+03  0.20031544494E+03  0.00000000000E+00 0.  1.
         -1   -1    0    0    0  501 -0.00000000000E+00 -0.00000000000E+00 -0.12064961295E+03  0.12064961295E+03  0.00000000000E+00 0.  1.
         23    2    1    2    0    0 -0.11570717070E+02  0.30575237169E+01 -0.40610946082E+02  0.98316839720E+02  0.88733996225E+02 0.  0.
         24    2    1    2    0    0  0.28643757474E+02 -0.52858689819E+02  0.13472548014E+03  0.16805508815E+03  0.80480132477E+02 0.  0.
        -13    1    4    4    0    0  0.56825992703E+02 -0.35947192258E+02  0.83762288254E+02  0.10741282517E+03  0.00000000000E+00 0.  1.
         14    1    4    4    0    0 -0.28182235229E+02 -0.16911497562E+02  0.50963191887E+02  0.60642262982E+02  0.00000000000E+00 0. -1.
        -11    1    3    3    0    0 -0.18709536081E+02 -0.31396783849E+02 -0.49967793083E+02  0.61907876091E+02  0.00000000000E+00 0.  1.
         11    1    3    3    0    0  0.71388190118E+01  0.34454307566E+02  0.93568470016E+01  0.36408963629E+02  0.00000000000E+00 0. -1.
         -2    1    1    2    0  502 -0.17073040404E+02  0.49801166102E+02 -0.14448702066E+02  0.54593130018E+02  0.00000000000E+00 0.  1.
<scales pt_clust_5="13000.00000" pt_clust_6="13000.00000" pt_clust_7="13000.00000" pt_clust_8="13000.00000" pt_clust_9="52.64644"></scales>
<clustering>
<clus scale="   52.646">  1  9  2 -1</clus>
<clus scale="   80.480">  5  6 -1 -1</clus>
<clus scale="   82.482">  1  5  2 -1</clus>
<clus scale="   88.734">  7  8 -1 -1</clus>
<clus scale="   52.646">  1  5  2 -1</clus>
</clustering>
</event>
<event>
 9    2  0.6175212E-005  0.1397246E+03  0.7546771E-02  0.1240715E+00
         21   -1    0    0  501  502  0.00000000000E+00  0.00000000000E+00  0.12001058320E+03  0.12001058320E+03  0.00000000000E+00 0.  1.
          2   -1    0    0  502    0 -0.00000000000E+00 -0.00000000000E+00 -0.84183482943E+03  0.84183482943E+03  0.00000000000E+00 0. -1.
         24    2    1    2    0    0 -0.58840865308E+00 -0.20463005510E+02 -0.53820306062E+03  0.54408286480E+03  0.77100898076E+02 0.  0.
         23    2    1    2    0    0 -0.19079757707E+02 -0.99709414447E+02  0.56457897611E+02  0.14856705477E+03  0.92621115715E+02 0.  0.
        -13    1    3    3    0    0 -0.22477496686E+01  0.25401451670E+02 -0.90207155360E+02  0.93742290369E+02  0.00000000000E+00 0.  1.
         14    1    3    3    0    0  0.16593410155E+01 -0.45864457180E+02 -0.44799590526E+03  0.45034057443E+03  0.00000000000E+00 0. -1.
        -11    1    4    4    0    0 -0.11292453830E+02 -0.73968814210E+02  0.82327986713E+02  0.11125107813E+03  0.00000000000E+00 0.  1.
         11    1    4    4    0    0 -0.77873038767E+01 -0.25740600238E+02 -0.25870089102E+02  0.37315976638E+02  0.00000000000E+00 0. -1.
          1    1    1    2  501    0  0.19668166360E+02  0.12017241996E+03 -0.24007908322E+03  0.26919549307E+03  0.00000000000E+00 0. -1.
<scales pt_clust_5="13000.00000" pt_clust_6="13000.00000" pt_clust_7="13000.00000" pt_clust_8="13000.00000" pt_clust_9="104.61499"></scales>
<clustering>
<clus scale="   77.101">  5  6 -1 -1</clus>
<clus scale="   79.772">  2  5  1 -1</clus>
<clus scale="   92.621">  7  8 -1 -1</clus>
<clus scale="  104.615">  1  9  2 -1</clus>
<clus scale="  104.615">  1  5  2 -1</clus>
</clustering>
</event>
<event>
 9    2  0.6175212E-005  0.9775160E+02  0.7546771E-02  0.1291624E+00
          2   -1    0    0  502    0 -0.00000000000E+00  0.00000000000E+00  0.11315788670E+03  0.11315788670E+03  0.00000000000E+00 0. -1.
         21   -1    0    0  501  502  0.00000000000E+00 -0.00000000000E+00 -0.14516257305E+03  0.14516257305E+03  0.00000000000E+00 0.  1.
         24    2    1    2    0    0  0.82310363656E+01 -0.36593073539E+02  0.35975914202E+02  0.92626254417E+02  0.76671726301E+02 0.  0.
         23    2    1    2    0    0  0.22775953048E+02  0.47170298432E+02 -0.16608229149E+02  0.10476447841E+03  0.89196309173E+02 0.  0.
        -11    1    3    3    0    0  0.25030992974E+02  0.96363468026E+01 -0.65436284534E+01  0.27608492576E+02  0.00000000000E+00 0.  1.
         12    1    3    3    0    0 -0.16799956609E+02 -0.46229420341E+02  0.42519542656E+02  0.65017761841E+02  0.00000000000E+00 0. -1.
        -11    1    4    4    0    0  0.20128240808E+02 -0.21276319618E+02  0.10476837519E+02  0.31106140534E+02  0.00000000000E+00 0.  1.
         11    1    4    4    0    0  0.26477122397E+01  0.68446618050E+02 -0.27085066668E+02  0.73658337879E+02  0.00000000000E+00 0. -1.
          1    1    1    2  501    0 -0.31006989413E+02 -0.10577224894E+02 -0.51372371408E+02  0.60929726924E+02  0.00000000000E+00 0. -1.
<scales pt_clust_5="13000.00000" pt_clust_6="13000.00000" pt_clust_7="13000.00000" pt_clust_8="13000.00000" pt_clust_9="32.76143"></scales>
<clustering>
<clus scale="   32.761">  2  9  1 -1</clus>
<clus scale="   76.672">  5  6 -1 -1</clus>
<clus scale="   86.475">  1  5  2 -1</clus>
<clus scale="   89.196">  7  8 -1 -1</clus>
<clus scale="   32.761">  2  5  1 -1</clus>
</clustering>
</event>
<event>
 9    2  0.6175212E-005  0.9764785E+02  0.7546771E-02  0.1292934E+00
         21   -1    0    0  501  502  0.00000000000E+00  0.00000000000E+00  0.59556368629E+02  0.59556368629E+02  0.00000000000E+00 0. -1.
          2   -1    0    0  502    0 -0.00000000000E+00 -0.00000000000E+00 -0.78987210530E+03  0.78987210530E+03  0.00000000000E+00 0. -1.
         24    2    1    2    0    0 -0.34075381012E+02 -0.79027962352E+01 -0.61076601518E+03  0.61706155470E+03  0.80661336581E+02 0.  0.
         23    2    1    2    0    0 -0.22755209237E+02 -0.32006350732E+02 -0.12654132931E+03  0.16257194391E+03  0.94205747631E+02 0.  0.
        -13    1    3    3    0    0 -0.98760530148E+00  0.20878141726E+02 -0.45209207419E+02  0.49807073811E+02  0.00000000000E+00 0.  1.
         14    1    3    3    0    0 -0.33087775710E+02 -0.28780937962E+02 -0.56555680776E+03  0.56725448089E+03  0.00000000000E+00 0. -1.
        -13    1    4    4    0    0 -0.28020359665E+02  0.28103057140E+02 -0.34892085447E+02  0.52842974966E+02  0.00000000000E+00 0.  1.
         13    1    4    4    0    0  0.52651504275E+01 -0.60109407872E+02 -0.91649243865E+02  0.10972896894E+03  0.00000000000E+00 0. -1.
          1    1    1    2  501    0  0.56830590249E+02  0.39909146967E+02  0.69916078197E+01  0.69794975318E+02  0.00000000000E+00 0. -1.
<scales pt_clust_5="13000.00000" pt_clust_6="13000.00000" pt_clust_7="13000.00000" pt_clust_8="13000.00000" pt_clust_9="69.44391"></scales>
<clustering>
<clus scale="   69.444">  1  9  2 -1</clus>
<clus scale="   80.661">  5  6 -1 -1</clus>
<clus scale="   84.656">  2  5  1 -1</clus>
<clus scale="   94.206">  7  8 -1 -1</clus>
<clus scale="   69.444">  1  5  2 -1</clus>
</clustering>
</event>
<event>
 9    2  0.6175212E-005  0.1458827E+03  0.7546771E-02  0.1220871E+00
         21   -1    0    0  501  502  0.00000000000E+00  0.00000000000E+00  0.73121831306E+03  0.73121831306E+03  0.00000000000E+00 0.  1.
         -1   -1    0    0    0  501 -0.00000000000E+00 -0.00000000000E+00 -0.31973357630E+03  0.31973357630E+03  0.00000000000E+00 0.  1.
         24    2    1    2    0    0  0.31432139397E+02  0.15731519309E+01 -0.86616416407E+02  0.13652783983E+03  0.10073228511E+03 0.  0.
         23    2    1    2    0    0  0.24006073944E+01 -0.10953642687E+03 -0.17824303937E+03  0.22868197683E+03  0.92308578785E+02 0.  0.
        -11    1    3    3    0    0  0.24520492517E+02 -0.47300400695E+02 -0.29001191494E+02  0.60660131612E+02  0.00000000000E+00 0.  1.
         12    1    3    3    0    0  0.69116468800E+01  0.48873552625E+02 -0.57615224913E+02  0.75867708221E+02  0.00000000000E+00 0. -1.
        -11    1    4    4    0    0 -0.36302465070E+02 -0.61105832965E+02 -0.52094771530E+02  0.88122965300E+02  0.00000000000E+00 0.  1.
         11    1    4    4    0    0  0.38703072465E+02 -0.48430593906E+02 -0.12614826784E+03  0.14055901153E+03  0.00000000000E+00 0. -1.
         -2    1    1    2    0  502 -0.33832746792E+02  0.10796327494E+03  0.67634419253E+03  0.68574207269E+03  0.00000000000E+00 0.  1.
<scales pt_clust_5="13000.00000" pt_clust_6="13000.00000" pt_clust_7="13000.00000" pt_clust_8="13000.00000" pt_clust_9="112.96409"></scales>
<clustering>
<clus scale="   92.309">  7  8 -1 -1</clus>
<clus scale="  100.732">  5  6 -1 -1</clus>
<clus scale="  105.534">  2  5  1 -1</clus>
<clus scale="  112.964">  1  9  2 -1</clus>
<clus scale="  112.964">  1  5  2 -1</clus>
</clustering>
</event>
<event>
 9    2  0.6175212E-005  0.1090218E+03  0.7546771E-02  0.1266959E+00
         21   -1    0    0  501  502  0.00000000000E+00  0.00000000000E+00  0.16137600094E+03  0.16137600094E+03  0.00000000000E+00 0. -1.
          2   -1    0    0  502    0 -0.00000000000E+00 -0.00000000000E+00 -0.33814022181E+03  0.33814022181E+03  0.00000000000E+00 0. -1.
         23    2    1    2    0    0  0.32711575230E+02 -0.53394958539E+02 -0.26751038585E+03  0.28929624212E+03  0.90605962366E+02 0.  0.
         24    2    1    2    0    0  0.86276189860E+01  0.63387357986E+02 -0.85963794047E+01  0.10215648935E+03  0.79181169578E+02 0.  0.
        -13    1    4    4    0    0 -0.14662850610E+02  0.62436813401E+02 -0.29731353283E+02  0.70691641824E+02  0.00000000000E+00 0.  1.
         14    1    4    4    0    0  0.23290469596E+02  0.95054458468E+00  0.21134973879E+02  0.31464847527E+02  0.00000000000E+00 0. -1.
        -13    1    3    3    0    0  0.52343374930E+02  0.27243781394E+00 -0.14362483243E+03  0.15286594000E+03  0.00000000000E+00 0. -1.
         13    1    3    3    0    0 -0.19631799700E+02 -0.53667396353E+02 -0.12388555341E+03  0.13643030211E+03  0.00000000000E+00 0.  1.
          1    1    1    2  501    0 -0.41339194216E+02 -0.99923994471E+01  0.99342544383E+02  0.10806349129E+03  0.00000000000E+00 0. -1.
<scales pt_clust_5="13000.00000" pt_clust_6="13000.00000" pt_clust_7="13000.00000" pt_clust_8="13000.00000" pt_clust_9="42.52972"></scales>
<clustering>
<clus scale="   42.530">  1  9  2 -1</clus>
<clus scale="   79.181">  5  6 -1 -1</clus>
<clus scale="   90.606">  7  8 -1 -1</clus>
<clus scale="   99.730">  1  5  2 -1</clus>
<clus scale="   42.530">  1  5  2 -1</clus>
</clustering>
</event>
<event>
 9    2  0.6175212E-005  0.2748547E+03  0.7546771E-02  0.1115607E+00
         21   -1    0    0  501  502  0.00000000000E+00  0.00000000000E+00  0.23217051588E+03  0.23217051588E+03  0.00000000000E+00 0. -1.
          2   -1    0    0  502    0 -0.00000000000E+00 -0.00000000000E+00 -0.13167620859E+04  0.13167620859E+04  0.00000000000E+00 0. -1.
         24    2    1    2    0    0  0.13203077737E+03 -0.88318503140E+02 -0.60988097498E+03  0.63518527644E+03  0.79203835709E+02 0.  0.
         23    2    1    2    0    0  0.12131356002E+03  0.18570433292E+03 -0.57618952764E+03  0.62397961340E+03  0.90294557240E+02 0.  0.
        -13    1    3    3    0    0  0.85568627848E+02 -0.32090356530E+02 -0.45368119214E+03  0.46279412826E+03  0.00000000000E+00 0.  1.
         14    1    3    3    0    0  0.46462149527E+02 -0.56228146609E+02 -0.15619978284E+03  0.17239114817E+03  0.00000000000E+00 0. -1.
        -13    1    4    4    0    0  0.79651464343E+02  0.42450768919E+02 -0.22308690596E+03  0.24065367474E+03  0.00000000000E+00 0.  1.
         13    1    4    4    0    0  0.41662095682E+02  0.14325356400E+03 -0.35310262168E+03  0.38332593867E+03  0.00000000000E+00 0. -1.
          1    1    1    2  501    0 -0.25334433740E+03 -0.97385829776E+02  0.10147893258E+03  0.28976771195E+03  0.00000000000E+00 0. -1.
<scales pt_clust_5="13000.00000" pt_clust_6="13000.00000" pt_clust_7="13000.00000" pt_clust_8="13000.00000" pt_clust_9="259.59974"></scales>
<clustering>
<clus scale="   79.204">  5  6 -1 -1</clus>
<clus scale="   90.295">  7  8 -1 -1</clus>
<clus scale="  177.498">  2  5  1 -1</clus>
<clus scale="  259.600">  1  9  2 -1</clus>
<clus scale="  259.600">  1  5  2 -1</clus>
</clustering>
</event>
<event>
 9    2  0.8843381E-005  0.1055513E+03  0.7546771E-02  0.1275385E+00
         21   -1    0    0  501  502  0.00000000000E+00  0.00000000000E+00  0.95431316072E+02  0.95431316072E+02  0.00000000000E+00 0.  1.
          4   -1    0    0  502    0 -0.00000000000E+00 -0.00000000000E+00 -0.54281731086E+03  0.54281731086E+03  0.00000000000E+00 0. -1.
         23    2    1    2    0    0 -0.40717566951E+02  0.26124576130E+02 -0.49363239970E+03  0.50470996363E+03  0.93374448421E+02 0.  0.
         24    2    1    2    0    0  0.39805972729E+02 -0.49538177218E+02  0.40191508951E+02  0.10933764090E+03  0.79377678599E+02 0.  0.
        -13    1    4    4    0    0  0.58235741068E+02 -0.19850218612E+02  0.84003766700E+01  0.62096691094E+02  0.00000000000E+00 0.  1.
         14    1    4    4    0    0 -0.18429768339E+02 -0.29687958606E+02  0.31791132281E+02  0.47240949810E+02  0.00000000000E+00 0. -1.
        -13    1    3    3    0    0  0.16003674208E+02 -0.23823896195E+02 -0.10849088155E+03  0.11222284526E+03  0.00000000000E+00 0.  1.
         13    1    3    3    0    0 -0.56721241159E+02  0.49948472326E+02 -0.38514151815E+03  0.39248711838E+03  0.00000000000E+00 0. -1.
          3    1    1    2  501    0  0.91159422242E+00  0.23413601087E+02  0.60548959628E+01  0.24201022396E+02  0.00000000000E+00 0. -1.
<scales pt_clust_5="13000.00000" pt_clust_6="13000.00000" pt_clust_7="13000.00000" pt_clust_8="13000.00000" pt_clust_9="23.43134"></scales>
<clustering>
<clus scale="   23.431">  1  9  2 -1</clus>
<clus scale="   79.378">  5  6 -1 -1</clus>
<clus scale="   93.374">  7  8 -1 -1</clus>
<clus scale="   93.398">  1  5  2 -1</clus>
<clus scale="   23.431">  1  5  2 -1</clus>
</clustering>
</event>
<event>
 9    2  0.6175212E-005  0.1064685E+03  0.7546771E-02  0.1273183E+00
          2   -1    0    0  502    0 -0.00000000000E+00  0.00000000000E+00  0.15919961685E+03  0.15919961685E+03  0.00000000000E+00 0. -1.
         21   -1    0    0  501  502  0.00000000000E+00 -0.00000000000E+00 -0.18538818343E+03  0.18538818343E+03  0.00000000000E+00 0. -1.
         23    2    1    2    0    0  0.18677144179E+02  0.28840106509E+02 -0.30546723457E+02  0.10293456970E+03  0.92096883054E+02 0.  0.
         24    2    1    2    0    0 -0.90711383279E+02 -0.20491746107E+02 -0.67843786071E+02  0.13932167489E+03  0.78481100089E+02 0.  0.
        -11    1    4    4    0    0  0.84796817135E+00 -0.25978688550E+02 -0.13424814226E+01  0.26027169749E+02  0.00000000000E+00 0.  1.
         12    1    4    4    0    0 -0.91559351450E+02  0.54869424429E+01 -0.66501304648E+02  0.11329450514E+03  0.00000000000E+00 0. -1.
        -11    1    3    3    0    0  0.39225429311E+02 -0.33032278631E+01 -0.47069435975E+02  0.61360226710E+02  0.00000000000E+00 0. -1.
         11    1    3    3    0    0 -0.20548285132E+02  0.32143334372E+02  0.16522712518E+02  0.41574342994E+02  0.00000000000E+00 0.  1.
          1    1    1    2  501    0  0.72034239100E+02 -0.83483604023E+01  0.72201942951E+02  0.10233155569E+03  0.00000000000E+00 0. -1.
<scales pt_clust_5="13000.00000" pt_clust_6="13000.00000" pt_clust_7="13000.00000" pt_clust_8="13000.00000" pt_clust_9="72.51643"></scales>
<clustering>
<clus scale="   72.516">  2  9  1 -1</clus>
<clus scale="   78.481">  5  6 -1 -1</clus>
<clus scale="   92.097">  7  8 -1 -1</clus>
<clus scale="   94.937">  2  5  1 -1</clus>
<clus scale="   72.516">  2  5  1 -1</clus>
</clustering>
</event>
<event>
 9    2  0.6175212E-005  0.9362565E+02  0.7546771E-02  0.1299763E+00
         -1   -1    0    0    0  501 -0.00000000000E+00  0.00000000000E+00  0.22079539744E+03  0.22079539744E+03  0.00000000000E+00 0.  1.
         21   -1    0    0  501  502  0.00000000000E+00 -0.00000000000E+00 -0.87553894550E+02  0.87553894550E+02  0.00000000000E+00 0. -1.
         24    2    1    2    0    0  0.23613553920E+02 -0.14054745847E+02  0.14099925719E+03  0.16482716702E+03  0.80821214106E+02 0.  0.
         23    2    1    2    0    0 -0.18045714397E+02 -0.11551582664E+02 -0.40843985189E+02  0.10131568505E+03  0.90208370124E+02 0.  0.
        -13    1    3    3    0    0 -0.47658017107E+01 -0.36318163979E+02  0.11408864824E+03  0.11982462835E+03  0.00000000000E+00 0.  1.
         14    1    3    3    0    0  0.28379355631E+02  0.22263418132E+02  0.26910608950E+02  0.45002538673E+02  0.00000000000E+00 0. -1.
        -13    1    4    4    0    0  0.76208240119E+01 -0.40985210839E+02  0.39663954367E+01  0.41875968752E+02  0.00000000000E+00 0.  1.
         13    1    4    4    0    0 -0.25666538409E+02  0.29433628175E+02 -0.44810380625E+02  0.59439716295E+02  0.00000000000E+00 0. -1.
         -2    1    1    2    0  502 -0.55678395231E+01  0.25606328511E+02  0.33086230888E+02  0.42206439925E+02  0.00000000000E+00 0.  1.
<scales pt_clust_5="13000.00000" pt_clust_6="13000.00000" pt_clust_7="13000.00000" pt_clust_8="13000.00000" pt_clust_9="26.20469"></scales>
<clustering>
<clus scale="   26.205">  2  9  1 -1</clus>
<clus scale="   80.821">  5  6 -1 -1</clus>
<clus scale="   84.618">  1  5  2 -1</clus>
<clus scale="   90.208">  7  8 -1 -1</clus>
<clus scale="   26.205">  2  5  1 -1</clus>
</clustering>
</event>
<event>
 9    2  0.6175212E-005  0.1108638E+03  0.7546771E-02  0.1265370E+00
         -1   -1    0    0    0  501 -0.00000000000E+00  0.00000000000E+00  0.40020944178E+02  0.40020944178E+02  0.00000000000E+00 0.  1.
         21   -1    0    0  501  502  0.00000000000E+00 -0.00000000000E+00 -0.38917803589E+03  0.38917803589E+03  0.00000000000E+00 0.  1.
         23    2    1    2    0    0  0.40175351484E+02  0.30449837758E+02 -0.13456932284E+03  0.17203216786E+03  0.94577548313E+02 0.  0.
         24    2    1    2    0    0 -0.69200508132E+02 -0.96105137675E+01 -0.14930638828E+03  0.18274641315E+03  0.78884609636E+02 0.  0.
        -11    1    4    4    0    0 -0.86123113136E+02 -0.13735215977E+02 -0.11562135180E+03  0.14482452750E+03  0.00000000000E+00 0.  1.
         12    1    4    4    0    0  0.16922605003E+02  0.41247022096E+01 -0.33685036483E+02  0.37921885650E+02  0.00000000000E+00 0. -1.
        -13    1    3    3    0    0  0.54754336037E+02 -0.61362728009E+01 -0.11614664229E+03  0.12855245495E+03  0.00000000000E+00 0.  1.
         13    1    3    3    0    0 -0.14578984553E+02  0.36586110559E+02 -0.18422680546E+02  0.43479712912E+02  0.00000000000E+00 0. -1.
         -2    1    1    2    0  502  0.29025156649E+02 -0.20839323990E+02 -0.65281380597E+02  0.74420399055E+02  0.00000000000E+00 0.  1.
<scales pt_clust_5="13000.00000" pt_clust_6="13000.00000" pt_clust_7="13000.00000" pt_clust_8="13000.00000" pt_clust_9="35.73146"></scales>
<clustering>
<clus scale="   35.731">  2  9  1 -1</clus>
<clus scale="   78.885">  5  6 -1 -1</clus>
<clus scale="   94.578">  7  8 -1 -1</clus>
<clus scale="   97.819">  2  5  1 -1</clus>
<clus scale="   35.731">  2  5  1 -1</clus>
</clustering>
</event>
<event>
 9    2  0.6175212E-005  0.1412987E+03  0.7546771E-02  0.1214453E+00
         21   -1    0    0  501  502  0.00000000000E+00  0.00000000000E+00  0.34764151950E+02  0.34764151950E+02  0.00000000000E+00 0. -1.
          2   -1    0    0  502    0 -0.00000000000E+00 -0.00000000000E+00 -0.78719516858E+03  0.78719516858E+03  0.00000000000E+00 0. -1.
         23    2    1    2    0    0 -0.64546347409E+02 -0.10612394683E+03 -0.44984427757E+03  0.47612933348E+03  0.94396742957E+02 0.  0.
         24    2    1    2    0    0  0.32391526329E+02  0.72781229440E+02 -0.16369860462E+03  0.19942102827E+03  0.81395301011E+02 0.  0.
        -13    1    4    4    0    0  0.65855043187E+01  0.71930397769E+02 -0.15688917313E+03  0.17271816244E+03  0.00000000000E+00 0.  1.
         14    1    4    4    0    0  0.25806022011E+02  0.85083167174E+00 -0.68094314851E+01  0.26702865833E+02  0.00000000000E+00 0. -1.
        -11    1    3    3    0    0  0.18555736963E+02 -0.13682448679E+02 -0.27567888454E+02  0.35937629999E+02  0.00000000000E+00 0.  1.
         11    1    3    3    0    0 -0.83102084372E+02 -0.92441498152E+02 -0.42227638912E+03  0.44019170348E+03  0.00000000000E+00 0. -1.
          1    1    1    2  501    0  0.32154821080E+02  0.33342717391E+02 -0.13888813444E+03  0.14640895878E+03  0.00000000000E+00 0. -1.
<scales pt_clust_5="13000.00000" pt_clust_6="13000.00000" pt_clust_7="13000.00000" pt_clust_8="13000.00000" pt_clust_9="46.32139"></scales>
<clustering>
<clus scale="   46.321">  1  9  2 -1</clus>
<clus scale="   81.395">  5  6 -1 -1</clus>
<clus scale="   94.397">  7  8 -1 -1</clus>
<clus scale="  132.965">  1  5  2 -1</clus>
<clus scale="   46.321">  1  5  2 -1</clus>
</clustering>
</event>
<event>
 9    2  0.6175212E-005  0.1380893E+03  0.7546771E-02  0.1218412E+00
          2   -1    0    0  502    0 -0.00000000000E+00  0.00000000000E+00  0.20462561178E+04  0.20462561178E+04  0.00000000000E+00 0. -1.
         21   -1    0    0  501  502  0.00000000000E+00 -0.00000000000E+00 -0.28872723844E+02  0.28872723844E+02  0.00000000000E+00 0. -1.
         24    2    1    2    0    0 -0.22327113807E+02  0.97608260455E+02  0.15128117918E+04  0.15182002564E+04  0.79414283617E+02 0.  0.
         23    2    1    2    0    0  0.38179143861E+02 -0.11515695138E+03  0.51055593485E+03  0.53253482279E+03  0.90593622298E+02 0.  0.
        -11    1    3    3    0    0 -0.87550545001E+01  0.53119729876E+02  0.32115983116E+03  0.32564089705E+03  0.00000000000E+00 0.  1.
         12    1    3    3    0    0 -0.13572059307E+02  0.44488530580E+02  0.11916519607E+04  0.11925593593E+04  0.00000000000E+00 0. -1.
        -13    1    4    4    0    0  0.55408449744E+02 -0.74925904404E+02  0.43798279202E+03  0.44778668310E+03  0.00000000000E+00 0. -1.
         13    1    4    4    0    0 -0.17229305882E+02 -0.40231046971E+02  0.72573142823E+02  0.84748139689E+02  0.00000000000E+00 0.  1.
          1    1    1    2  501    0 -0.15852030055E+02  0.17548690920E+02 -0.59843327180E+01  0.24393762480E+02  0.00000000000E+00 0. -1.
<scales pt_clust_5="13000.00000" pt_clust_6="13000.00000" pt_clust_7="13000.00000" pt_clust_8="13000.00000" pt_clust_9="23.64833"></scales>
<clustering>
<clus scale="   23.648">  2  9  1 -1</clus>
<clus scale="   79.414">  5  6 -1 -1</clus>
<clus scale="   90.594">  7  8 -1 -1</clus>
<clus scale="  131.027">  1  5  2 -1</clus>
<clus scale="   23.648">  2  5  1 -1</clus>
</clustering>
</event>
<event>
 9    2  0.6175212E-005  0.1311699E+03  0.7546771E-02  0.1227744E+00
          2   -1    0    0  502    0 -0.00000000000E+00  0.00000000000E+00  0.35442385628E+03  0.35442385628E+03  0.00000000000E+00 0. -1.
         21   -1    0    0  501  502  0.00000000000E+00 -0.00000000000E+00 -0.18663260399E+03  0.18663260399E+03  0.00000000000E+00 0.  1.
         24    2    1    2    0    0 -0.50496833548E+02 -0.81158849630E+02  0.22636081699E+03  0.25836509723E+03  0.79853709537E+02 0.  0.
         23    2    1    2    0    0  0.14085356182E+03  0.34037399081E+02 -0.62463497629E+02  0.18071130538E+03  0.88071657995E+02 0.  0.
        -11    1    3    3    0    0 -0.50276769323E+02 -0.14536877305E+02  0.13880872846E+03  0.14834735397E+03  0.00000000000E+00 0.  1.
         12    1    3    3    0    0 -0.22006422546E+00 -0.66621972325E+02  0.87552088537E+02  0.11001774326E+03  0.00000000000E+00 0. -1.
        -13    1    4    4    0    0  0.55886237685E+02 -0.25213751309E+02 -0.32540896865E+01  0.61397018799E+02  0.00000000000E+00 0.  1.
         13    1    4    4    0    0  0.84967324138E+02  0.59251150390E+02 -0.59209407943E+02  0.11931428658E+03  0.00000000000E+00 0. -1.
          1    1    1    2  501    0 -0.90356728275E+02  0.47121450549E+02  0.38939329303E+01  0.10198005766E+03  0.00000000000E+00 0. -1.
<scales pt_clust_5="13000.00000" pt_clust_6="13000.00000" pt_clust_7="13000.00000" pt_clust_8="13000.00000" pt_clust_9="101.90569"></scales>
<clustering>
<clus scale="   79.854">  5  6 -1 -1</clus>
<clus scale="   88.072">  7  8 -1 -1</clus>
<clus scale="  101.906">  2  9  1 -1</clus>
<clus scale="  125.800">  1  5  2 -1</clus>
<clus scale="  101.906">  2  5  1 -1</clus>
</clustering>
</event>
<event>
 9    2  0.6175212E-005  0.1064849E+03  0.7546771E-02  0.1274001E+00
          2   -1    0    0  502    0 -0.00000000000E+00  0.00000000000E+00  0.15019026198E+03  0.15019026198E+03  0.00000000000E+00 0. -1.
         21   -1    0    0  501  502  0.00000000000E+00 -0.00000000000E+00 -0.25160775448E+03  0.25160775448E+03  0.00000000000E+00 0. -1.
         24    2    1    2    0    0 -0.16850562026E+02  0.70103116450E+02  0.61892477716E+02  0.12471137859E+03  0.80770420174E+02 0.  0.
         23    2    1    2    0    0  0.10077404632E+01 -0.10987503773E+02  0.66404463311E+01  0.96452214954E+02  0.95588668063E+02 0.  0.
        -13    1    3    3    0    0 -0.58503815870E+01  0.35045714385E+02 -0.15710907298E+02  0.38849217104E+02  0.00000000000E+00 0.  1.
         14    1    3    3    0    0 -0.11000180439E+02  0.35057402065E+02  0.77603385014E+02  0.85862161485E+02  0.00000000000E+00 0. -1.
        -11    1    4    4    0    0  0.24760031126E+02 -0.46962074797E+02  0.25631438009E+01  0.53151343508E+02  0.00000000000E+00 0.  1.
         11    1    4    4    0    0 -0.23752290662E+02  0.35974571024E+02  0.40773025302E+01  0.43300871446E+02  0.00000000000E+00 0. -1.
          1    1    1    2  501    0  0.15842821563E+02 -0.59115612677E+02 -0.16995041655E+03  0.18063442292E+03  0.00000000000E+00 0. -1.
<scales pt_clust_5="13000.00000" pt_clust_6="13000.00000" pt_clust_7="13000.00000" pt_clust_8="13000.00000" pt_clust_9="61.20172"></scales>
<clustering>
<clus scale="   61.202">  2  9  1 -1</clus>
<clus scale="   80.770">  5  6 -1 -1</clus>
<clus scale="   93.411">  1  5  2 -1</clus>
<clus scale="   95.589">  7  8 -1 -1</clus>
<clus scale="   61.202">  2  5  1 -1</clus>
</clustering>
</event>
<event>
 9    2  0.6175212E-005  0.9750591E+02  0.7546771E-02  0.1290497E+00
         21   -1    0    0  501  502  0.00000000000E+00  0.00000000000E+00  0.25631675642E+02  0.25631675642E+02  0.00000000000E+00 0. -1.
         -1   -1    0    0    0  501 -0.00000000000E+00 -0.00000000000E+00 -0.53405563763E+03  0.53405563763E+03  0.00000000000E+00 0.  1.
         24    2    1    2    0    0  0.39927175905E+02 -0.17478236203E+02 -0.31100830049E+03  0.32427480618E+03  0.80798012523E+02 0.  0.
         23    2    1    2    0    0 -0.29521630182E+02 -0.50946610561E+01 -0.18427407762E+03  0.20729645653E+03  0.90096631395E+02 0.  0.
        -13    1    3    3    0    0  0.22346160217E+02  0.31966782271E+02 -0.11930719924E+03  0.12552065103E+03  0.00000000000E+00 0.  1.
         14    1    3    3    0    0  0.17581015688E+02 -0.49445018474E+02 -0.19170110126E+03  0.19875415515E+03  0.00000000000E+00 0. -1.
        -11    1    4    4    0    0  0.31397830320E+02 -0.11637260317E+02 -0.71527234633E+02  0.78977179430E+02  0.00000000000E+00 0.  1.
         11    1    4    4    0    0 -0.60919460501E+02  0.65425992608E+01 -0.11274684299E+03  0.12831927710E+03  0.00000000000E+00 0. -1.
         -2    1    1    2    0  502 -0.10405545723E+02  0.22572897259E+02 -0.13141583873E+02  0.28116050561E+02  0.00000000000E+00 0.  1.
<scales pt_clust_5="13000.00000" pt_clust_6="13000.00000" pt_clust_7="13000.00000" pt_clust_8="13000.00000" pt_clust_9="24.85581"></scales>
<clustering>
<clus scale="   24.856">  1  9  2 -1</clus>
<clus scale="   80.798">  5  6 -1 -1</clus>
<clus scale="   88.985">  2  5  1 -1</clus>
<clus scale="   90.097">  7  8 -1 -1</clus>
<clus scale="   24.856">  1  5  2 -1</clus>
</clustering>
</event>
<event>
 9    2  0.6175212E-005  0.1033174E+03  0.7546771E-02  0.1284047E+00
         -1   -1    0    0    0  501 -0.00000000000E+00  0.00000000000E+00  0.34959216930E+03  0.34959216930E+03  0.00000000000E+00 0.  1.
         21   -1    0    0  501  502  0.00000000000E+00 -0.00000000000E+00 -0.54777827507E+02  0.54777827507E+02  0.00000000000E+00 0.  1.
         23    2    1    2    0    0 -0.54063610225E+01 -0.48311600387E+01  0.15006418757E+03  0.18126836487E+03  0.10142184609E+03 0.  0.
         24    2    1    2    0    0 -0.32198456098E+02 -0.28459294248E+02  0.14591916071E+03  0.17286476108E+03  0.82116698421E+02 0.  0.
        -11    1    4    4    0    0 -0.24131263938E+02  0.25814294465E+02  0.77387229749E+02  0.85073374367E+02  0.00000000000E+00 0.  1.
         12    1    4    4    0    0 -0.80671921599E+01 -0.54273588713E+02  0.68531930957E+02  0.87791386718E+02  0.00000000000E+00 0. -1.
        -13    1    3    3    0    0 -0.72757935313E+01 -0.52783919878E+02  0.87027680842E+02  0.10204360147E+03  0.00000000000E+00 0.  1.
         13    1    3    3    0    0  0.18694325088E+01  0.47952759839E+02  0.63036506732E+02  0.79224763396E+02  0.00000000000E+00 0. -1.
         -2    1    1    2    0  502  0.37604817121E+02  0.33290454287E+02 -0.11690064826E+01  0.50236870857E+02  0.00000000000E+00 0.  1.
<scales pt_clust_5="13000.00000" pt_clust_6="13000.00000" pt_clust_7="13000.00000" pt_clust_8="13000.00000" pt_clust_9="50.22327"></scales>
<clustering>
<clus scale="   50.223">  2  9  1 -1</clus>
<clus scale="   82.117">  5  6 -1 -1</clus>
<clus scale="   84.447">  2  5  1 -1</clus>
<clus scale="  101.422">  7  8 -1 -1</clus>
<clus scale="   50.223">  2  5  1 -1</clus>
</clustering>
</event>
<event>
 9    2  0.6175212E-005  0.1302541E+03  0.7546771E-02  0.1243121E+00
         21   -1    0    0  501  502  0.00000000000E+00  0.00000000000E+00  0.50090734179E+02  0.50090734179E+02  0.00000000000E+00 0.  1.
          2   -1    0    0  502    0 -0.00000000000E+00 -0.00000000000E+00 -0.61786538879E+03  0.61786538879E+03  0.00000000000E+00 0. -1.
         24    2    1    2    0    0 -0.42542794922E+02  0.24653510591E+02 -0.25150314929E+03  0.26842094283E+03  0.79864156330E+02 0.  0.
         23    2    1    2    0    0 -0.54004253846E+02  0.50368599204E+02 -0.11715568614E+03  0.16587568635E+03  0.91300784826E+02 0.  0.
        -13    1    3    3    0    0 -0.36686230389E+02 -0.24601430349E+02 -0.11619339244E+03  0.12430613147E+03  0.00000000000E+00 0.  1.
         14    1    3    3    0    0 -0.58565645328E+01  0.49254940940E+02 -0.13530975685E+03  0.14411481136E+03  0.00000000000E+00 0. -1.
        -11    1    4    4    0    0  0.89977287039E+01  0.50562260720E+02 -0.34175906248E+02  0.61688685339E+02  0.00000000000E+00 0.  1.
         11    1    4    4    0    0 -0.63001982550E+02 -0.19366151641E+00 -0.82979779887E+02  0.10418700101E+03  0.00000000000E+00 0. -1.
          1    1    1    2  501    0  0.96547048768E+02 -0.75022109795E+02 -0.19911581919E+03  0.23365949379E+03  0.00000000000E+00 0. -1.
<scales pt_clust_5="13000.00000" pt_clust_6="13000.00000" pt_clust_7="13000.00000" pt_clust_8="13000.00000" pt_clust_9="92.89945"></scales>
<clustering>
<clus scale="   79.864">  5  6 -1 -1</clus>
<clus scale="   91.301">  7  8 -1 -1</clus>
<clus scale="   93.787">  2  5  1 -1</clus>
<clus scale="   92.899">  1  9  2 -1</clus>
<clus scale="   92.899">  1  5  2 -1</clus>
</clustering>
</event>
<event>
 9    2  0.6175212E-005  0.9328519E+02  0.7546771E-02  0.1301864E+00
         21   -1    0    0  501  502  0.00000000000E+00  0.00000000000E+00  0.30634738519E+03  0.30634738519E+03  0.00000000000E+00 0. -1.
          2   -1    0    0  502    0 -0.00000000000E+00 -0.00000000000E+00 -0.49652799011E+02  0.49652799011E+02  0.00000000000E+00 0. -1.
         23    2    1    2    0    0  0.10346251458E+02  0.28862581541E+02  0.91784420681E+02  0.13370353331E+03  0.92261375493E+02 0.  0.
         24    2    1    2    0    0 -0.15391318985E+02  0.24745048002E+02  0.13642030998E+03  0.16137947335E+03  0.81139530093E+02 0.  0.
        -11    1    4    4    0    0 -0.23287666620E+02 -0.14422817937E+02  0.11028306414E+03  0.11363400605E+03  0.00000000000E+00 0.  1.
         12    1    4    4    0    0  0.78963476347E+01  0.39167865940E+02  0.26137245840E+02  0.47745467307E+02  0.00000000000E+00 0. -1.
        -13    1    3    3    0    0  0.82729242318E+01  0.62358902004E+02  0.51698192457E+02  0.81423442803E+02  0.00000000000E+00 0. -1.
         13    1    3    3    0    0  0.20733272259E+01 -0.33496320463E+02  0.40086228224E+02  0.52280090509E+02  0.00000000000E+00 0.  1.
          1    1    1    2  501    0  0.50450675276E+01 -0.53607629543E+02  0.28489855518E+02  0.60917177537E+02  0.00000000000E+00 0. -1.
<scales pt_clust_5="13000.00000" pt_clust_6="13000.00000" pt_clust_7="13000.00000" pt_clust_8="13000.00000" pt_clust_9="53.84453"></scales>
<clustering>
<clus scale="   53.845">  1  9  2 -1</clus>
<clus scale="   81.140">  5  6 -1 -1</clus>
<clus scale="   82.302">  1  5  2 -1</clus>
<clus scale="   92.261">  7  8 -1 -1</clus>
<clus scale="   53.845">  1  5  2 -1</clus>
</clustering>
</event>
<event>
 9    2  0.6175212E-005  0.9961519E+02  0.7546771E-02  0.1283418E+00
         21   -1    0    0  501  502  0.00000000000E+00  0.00000000000E+00  0.37921166167E+03  0.37921166167E+03  0.00000000000E+00 0.  1.
         -1   -1    0    0    0  501 -0.00000000000E+00 -0.00000000000E+00 -0.18950542863E+03  0.18950542863E+03  0.00000000000E+00 0.  1.
         24    2    1    2    0    0  0.45709007174E+02 -0.22756357695E+01 -0.14670531482E+03  0.17598210756E+03  0.85748241551E+02 0.  0.
         23    2    1    2    0    0 -0.12419238662E+02 -0.43848310430E+02  0.77226896529E+02  0.12738180190E+03  0.90472195126E+02 0.  0.
        -11    1    3    3    0    0  0.33875383213E+02 -0.12819965944E+02 -0.15423771327E+03  0.15843347282E+03  0.00000000000E+00 0.  1.
         12    1    3    3    0    0  0.11833623961E+02  0.10544330174E+02  0.75323984484E+01  0.17548634741E+02  0.00000000000E+00 0. -1.
        -11    1    4    4    0    0 -0.40460584354E+02 -0.53502561503E+02  0.69804423236E+02  0.96810332491E+02  0.00000000000E+00 0.  1.
         11    1    4    4    0    0  0.28041345692E+02  0.96542510729E+01  0.74224732932E+01  0.30571469408E+02  0.00000000000E+00 0. -1.
         -2    1    1    2    0  502 -0.33289768512E+02  0.46123946199E+02  0.25918465133E+03  0.26535318084E+03  0.00000000000E+00 0.  1.
<scales pt_clust_5="13000.00000" pt_clust_6="13000.00000" pt_clust_7="13000.00000" pt_clust_8="13000.00000" pt_clust_9="56.88257"></scales>
<clustering>
<clus scale="   56.883">  1  9  2 -1</clus>
<clus scale="   85.748">  5  6 -1 -1</clus>
<clus scale="   90.472">  7  8 -1 -1</clus>
<clus scale="   95.345">  2  5  1 -1</clus>
<clus scale="   56.883">  1  5  2 -1</clus>
</clustering>
</event>
<event>
 9    2  0.6175212E-005  0.1536995E+03  0.7546771E-02  0.1224322E+00
          4   -1    0    0  502    0 -0.00000000000E+00  0.00000000000E+00  0.32728882164E+03  0.32728882164E+03  0.00000000000E+00 0. -1.
         21   -1    0    0  501  502  0.00000000000E+00 -0.00000000000E+00 -0.12768060101E+03  0.12768060101E+03  0.00000000000E+00 0.  1.
         24    2    1    2    0    0 -0.86249336157E+00 -0.22891509489E+02  0.73543287761E+02  0.11161208271E+03  0.80770518949E+02 0.  0.
         23    2    1    2    0    0  0.12312322782E+03 -0.10907970543E+02 -0.14577182338E+02  0.15396278718E+03  0.90629644931E+02 0.  0.
        -11    1    3    3    0    0  0.17878678251E+02 -0.19066372932E+02  0.85263204427E+02  0.89179525352E+02  0.00000000000E+00 0.  1.
         12    1    3    3    0    0 -0.18741171613E+02 -0.38251365572E+01 -0.11719916666E+02  0.22432557361E+02  0.00000000000E+00 0. -1.
        -13    1    4    4    0    0  0.11674705612E+02 -0.33729326705E+02  0.11024497738E+02  0.37356469071E+02  0.00000000000E+00 0. -1.
         13    1    4    4    0    0  0.11144852221E+03  0.22821356161E+02 -0.25601680076E+02  0.11660631811E+03  0.00000000000E+00 0.  1.
          3    1    1    2  501    0 -0.12226073446E+03  0.33799480033E+02  0.14064211521E+03  0.18939455275E+03  0.00000000000E+00 0. -1.
<scales pt_clust_5="13000.00000" pt_clust_6="13000.00000" pt_clust_7="13000.00000" pt_clust_8="13000.00000" pt_clust_9="124.13629"></scales>
<clustering>
<clus scale="   80.771">  5  6 -1 -1</clus>
<clus scale="   83.956">  1  5  2 -1</clus>
<clus scale="   90.630">  7  8 -1 -1</clus>
<clus scale="  124.136">  2  9  1 -1</clus>
<clus scale="  124.136">  2  5  1 -1</clus>
</clustering>
</event>
<event>
 9    2  0.6175212E-005  0.8927305E+02  0.7546771E-02  0.1308137E+00
         21   -1    0    0  501  502  0.00000000000E+00  0.00000000000E+00  0.11076923312E+03  0.11076923312E+03  0.00000000000E+00 0. -1.
          2   -1    0    0  502    0 -0.00000000000E+00 -0.00000000000E+00 -0.14590070025E+03  0.14590070025E+03  0.00000000000E+00 0. -1.
         24    2    1    2    0    0  0.79697837668E+01 -0.11508173777E+02 -0.50019138657E+02  0.95293320986E+02  0.79893349383E+02 0.  0.
         23    2    1    2    0    0 -0.32161091064E+02  0.26129691068E+02 -0.37134826062E+02  0.10217062982E+03  0.85689822950E+02 0.  0.
        -11    1    3    3    0    0 -0.55643147035E+01  0.30160117737E+02 -0.39906574402E+02  0.50330199488E+02  0.00000000000E+00 0.  1.
         12    1    3    3    0    0  0.13534098470E+02 -0.41668291513E+02 -0.10112564255E+02  0.44963121498E+02  0.00000000000E+00 0. -1.
        -13    1    4    4    0    0  0.13078635886E+02  0.44421193801E+02 -0.16001310065E+02  0.48993214828E+02  0.00000000000E+00 0. -1.
         13    1    4    4    0    0 -0.45239726950E+02 -0.18291502733E+02 -0.21133515997E+02  0.53177414991E+02  0.00000000000E+00 0.  1.
          1    1    1    2  501    0  0.24191307298E+02 -0.14621517292E+02  0.52022497589E+02  0.59205982570E+02  0.00000000000E+00 0. -1.
<scales pt_clust_5="13000.00000" pt_clust_6="13000.00000" pt_clust_7="13000.00000" pt_clust_8="13000.00000" pt_clust_9="28.26673"></scales>
<clustering>
<clus scale="   28.267">  1  9  2 -1</clus>
<clus scale="   79.893">  5  6 -1 -1</clus>
<clus scale="   83.725">  2  5  1 -1</clus>
<clus scale="   85.690">  7  8 -1 -1</clus>
<clus scale="   28.267">  1  5  2 -1</clus>
</clustering>
</event>
<event>
 9    2  0.6175212E-005  0.2861179E+03  0.7546771E-02  0.1118410E+00
          2   -1    0    0  502    0 -0.00000000000E+00  0.00000000000E+00  0.21872832637E+04  0.21872832637E+04  0.00000000000E+00 0. -1.
         21   -1    0    0  501  502  0.00000000000E+00 -0.00000000000E+00 -0.70553248557E+02  0.70553248557E+02  0.00000000000E+00 0. -1.
         24    2    1    2    0    0 -0.92393423878E+02  0.75056273846E+02  0.27781032836E+03  0.31413692139E+03  0.85635493921E+02 0.  0.
         23    2    1    2    0    0 -0.13271456557E+03 -0.23882371565E+03  0.51587236238E+03  0.59168346503E+03  0.96514793949E+02 0.  0.
        -13    1    3    3    0    0 -0.14436691146E+02 -0.14226363848E+02  0.13184725597E+02  0.24179422421E+02  0.00000000000E+00 0.  1.
         14    1    3    3    0    0 -0.77956732733E+02  0.89282637694E+02  0.26462560276E+03  0.28995749897E+03  0.00000000000E+00 0. -1.
        -11    1    4    4    0    0 -0.21391854292E+02 -0.12348645808E+03  0.27673821880E+03  0.30379361169E+03  0.00000000000E+00 0.  1.
         11    1    4    4    0    0 -0.11132271128E+03 -0.11533725757E+03  0.23913414359E+03  0.28788985334E+03  0.00000000000E+00 0. -1.
          1    1    1    2  501    0  0.22510798945E+03  0.16376744180E+03  0.13230473244E+04  0.13520161258E+04  0.00000000000E+00 0. -1.
<scales pt_clust_5="13000.00000" pt_clust_6="13000.00000" pt_clust_7="13000.00000" pt_clust_8="13000.00000" pt_clust_9="269.34811"></scales>
<clustering>
<clus scale="   85.635">  5  6 -1 -1</clus>
<clus scale="   96.515">  7  8 -1 -1</clus>
<clus scale="  146.641">  1  5  2 -1</clus>
<clus scale="  269.348">  2  9  1 -1</clus>
<clus scale="  269.348">  2  5  1 -1</clus>
</clustering>
</event>
<event>
 9    2  0.6175212E-005  0.1047018E+03  0.7546771E-02  0.1280776E+00
          2   -1    0    0  502    0 -0.00000000000E+00  0.00000000000E+00  0.22116748310E+03  0.22116748310E+03  0.00000000000E+00 0. -1.
         21   -1    0    0  501  502  0.00000000000E+00 -0.00000000000E+00 -0.65786526815E+02  0.65786526815E+02  0.00000000000E+00 0. -1.
         23    2    1    2    0    0 -0.63033759904E+01  0.30470814430E+02  0.10165064878E+03  0.14583885902E+03  0.99839447723E+02 0.  0.
         24    2    1    2    0    0  0.30772898050E+02 -0.22808310895E+02  0.89025868142E+01  0.89472184167E+02  0.80366817700E+02 0.  0.
        -13    1    4    4    0    0 -0.24116401158E+02 -0.18878428568E+02  0.15005243274E+02  0.34105031824E+02  0.00000000000E+00 0.  1.
         14    1    4    4    0    0  0.54889299208E+02 -0.39298823272E+01 -0.61026564594E+01  0.55367152343E+02  0.00000000000E+00 0. -1.
        -13    1    3    3    0    0 -0.35850851352E+02  0.54820756230E+02  0.72564430390E+02  0.97755794785E+02  0.00000000000E+00 0. -1.
         13    1    3    3    0    0  0.29547475361E+02 -0.24349941800E+02  0.29086218392E+02  0.48083064235E+02  0.00000000000E+00 0.  1.
          1    1    1    2  501    0 -0.24469522060E+02 -0.76625035350E+01  0.44827720685E+02  0.51642966724E+02  0.00000000000E+00 0. -1.
<scales pt_clust_5="13000.00000" pt_clust_6="13000.00000" pt_clust_7="13000.00000" pt_clust_8="13000.00000" pt_clust_9="25.64122"></scales>
<clustering>
<clus scale="   25.641">  2  9  1 -1</clus>
<clus scale="   80.367">  5  6 -1 -1</clus>
<clus scale="   86.333">  2  5  1 -1</clus>
<clus scale="   99.839">  7  8 -1 -1</clus>
<clus scale="   25.641">  2  5  1 -1</clus>
</clustering>
</event>
<event>
 9    2  0.6175212E-005  0.9223482E+02  0.7546771E-02  0.1303293E+00
         21   -1    0    0  501  502  0.00000000000E+00  0.00000000000E+00  0.74499083204E+02  0.74499083204E+02  0.00000000000E+00 0.  1.
          2   -1    0    0  502    0 -0.00000000000E+00 -0.00000000000E+00 -0.22598889360E+03  0.22598889360E+03  0.00000000000E+00 0. -1.
         24    2    1    2    0    0 -0.52162598238E+01 -0.16279122710E+02 -0.13929631068E+03  0.16192906881E+03  0.80779588724E+02 0.  0.
         23    2    1    2    0    0 -0.17809540387E+02  0.31372197971E+02  0.16687751661E+02  0.98657591256E+02  0.90296426965E+02 0.  0.
        -11    1    3    3    0    0  0.12527060695E+02 -0.37935702141E+02 -0.12346133078E+03  0.12976418977E+03  0.00000000000E+00 0.  1.
         12    1    3    3    0    0 -0.17743320519E+02  0.21656579431E+02 -0.15834979894E+02  0.32164879044E+02  0.00000000000E+00 0. -1.
        -13    1    4    4    0    0 -0.49098188510E+02  0.25167341995E+02  0.31452572419E+02  0.63508200493E+02  0.00000000000E+00 0. -1.
         13    1    4    4    0    0  0.31288648123E+02  0.62048559760E+01 -0.14764820758E+02  0.35149390764E+02  0.00000000000E+00 0.  1.
          1    1    1    2  501    0  0.23025800211E+02 -0.15093075261E+02 -0.28881251376E+02  0.39901316735E+02  0.00000000000E+00 0. -1.
<scales pt_clust_5="13000.00000" pt_clust_6="13000.00000" pt_clust_7="13000.00000" pt_clust_8="13000.00000" pt_clust_9="27.53160"></scales>
<clustering>
<clus scale="   27.532">  1  9  2 -1</clus>
<clus scale="   80.780">  5  6 -1 -1</clus>
<clus scale="   82.941">  2  5  1 -1</clus>
<clus scale="   90.296">  7  8 -1 -1</clus>
<clus scale="   27.532">  1  5  2 -1</clus>
</clustering>
</event>
<event>
 9    2  0.6175212E-005  0.1734853E+03  0.7546771E-02  0.1188341E+00
          2   -1    0    0  502    0 -0.00000000000E+00  0.00000000000E+00  0.49512868445E+03  0.49512868445E+03  0.00000000000E+00 0. -1.
         21   -1    0    0  501  502  0.00000000000E+00 -0.00000000000E+00 -0.10828284191E+03  0.10828284191E+03  0.00000000000E+00 0.  1.
         24    2    1    2    0    0  0.64057567360E+02 -0.74224581536E+02  0.91491301355E+02  0.15612286716E+03  0.79943924010E+02 0.  0.
         23    2    1    2    0    0 -0.17587842007E+03 -0.38124752726E+01  0.15360084466E+03  0.25059652461E+03  0.90871585504E+02 0.  0.
        -11    1    3    3    0    0  0.56739180950E+02 -0.51011095844E+02  0.10381806159E+03  0.12883965409E+03  0.00000000000E+00 0.  1.
         12    1    3    3    0    0  0.73183864105E+01 -0.23213485691E+02 -0.12326760232E+02  0.27283213070E+02  0.00000000000E+00 0. -1.
        -13    1    4    4    0    0 -0.11970865715E+03  0.38403047578E+02  0.11522980245E+03  0.17053698729E+03  0.00000000000E+00 0.  1.
         13    1    4    4    0    0 -0.56169762918E+02 -0.42215522851E+02  0.38371042208E+02  0.80059537320E+02  0.00000000000E+00 0. -1.
          1    1    1    2  501    0  0.11182085270E+03  0.78037056808E+02  0.14175369653E+03  0.19669213460E+03  0.00000000000E+00 0. -1.
<scales pt_clust_5="13000.00000" pt_clust_6="13000.00000" pt_clust_7="13000.00000" pt_clust_8="13000.00000" pt_clust_9="147.78192"></scales>
<clustering>
<clus scale="   79.944">  5  6 -1 -1</clus>
<clus scale="   90.872">  7  8 -1 -1</clus>
<clus scale="  126.506">  1  5  2 -1</clus>
<clus scale="  147.782">  2  9  1 -1</clus>
<clus scale="  147.782">  2  5  1 -1</clus>
</clustering>
</event>
<event>
 9    2  0.6175212E-005  0.8992172E+02  0.7546771E-02  0.1309058E+00
          2   -1    0    0  502    0 -0.00000000000E+00  0.00000000000E+00  0.13967939876E+03  0.13967939876E+03  0.00000000000E+00 0. -1.
         21   -1    0    0  501  502  0.00000000000E+00 -0.00000000000E+00 -0.13517313719E+03  0.13517313719E+03  0.00000000000E+00 0.  1.
         24    2    1    2    0    0 -0.47469002016E+01  0.16480738729E+02  0.25971649594E+02  0.86454925437E+02  0.80658413939E+02 0.  0.
         23    2    1    2    0    0  0.48422005140E+02 -0.75398252968E+02 -0.15653311118E+02  0.11482745004E+03  0.70076600951E+02 0.  0.
        -13    1    3    3    0    0 -0.26437437943E+01 -0.32057880964E+02  0.18698493463E+01  0.32221009446E+02  0.00000000000E+00 0.  1.
         14    1    3    3    0    0 -0.21031564073E+01  0.48538619693E+02  0.24101800247E+02  0.54233915991E+02  0.00000000000E+00 0. -1.
        -11    1    4    4    0    0 -0.23781334750E+01 -0.50786906892E+02 -0.26519309905E+02  0.57343170721E+02  0.00000000000E+00 0. -1.
         11    1    4    4    0    0  0.50800138615E+02 -0.24611346076E+02  0.10865998788E+02  0.57484279317E+02  0.00000000000E+00 0.  1.
          1    1    1    2  501    0 -0.43675104938E+02  0.58917514240E+02 -0.58120769041E+01  0.73570160483E+02  0.00000000000E+00 0. -1.
<scales pt_clust_5="13000.00000" pt_clust_6="13000.00000" pt_clust_7="13000.00000" pt_clust_8="13000.00000" pt_clust_9="73.34022"></scales>
<clustering>
<clus scale="   70.077">  7  8 -1 -1</clus>
<clus scale="   73.340">  2  9  1 -1</clus>
<clus scale="   80.566">  2  7  1 -1</clus>
<clus scale="   80.658">  5  6 -1 -1</clus>
<clus scale="   73.340">  2  5  1 -1</clus>
</clustering>
</event>
<event>
 9    2  0.6175212E-005  0.3934965E+03  0.7546771E-02  0.1046055E+00
          2   -1    0    0  502    0 -0.00000000000E+00  0.00000000000E+00  0.12677386676E+04  0.12677386676E+04  0.00000000000E+00 0. -1.
         21   -1    0    0  501  502  0.00000000000E+00 -0.00000000000E+00 -0.20596857638E+03  0.20596857638E+03  0.00000000000E+00 0. -1.
         24    2    1    2    0    0  0.11484506694E+03 -0.33945388699E+02  0.42839915771E+03  0.45111192050E+03  0.75062958114E+02 0.  0.
         23    2    1    2    0    0  0.11452403140E+03 -0.20711166343E+03  0.64243036352E+03  0.68972784399E+03  0.83646469779E+02 0.  0.
        -13    1    3    3    0    0  0.29418274967E+02  0.98619283795E+01  0.37880086225E+02  0.48965227109E+02  0.00000000000E+00 0.  1.
         14    1    3    3    0    0  0.85426791976E+02 -0.43807317078E+02  0.39051907148E+03  0.40214669339E+03  0.00000000000E+00 0. -1.
        -13    1    4    4    0    0  0.31852854116E+02 -0.52015017732E+02  0.28463230113E+03  0.29109399381E+03  0.00000000000E+00 0.  1.
         13    1    4    4    0    0  0.82671177286E+02 -0.15509664570E+03  0.35779806239E+03  0.39863385018E+03  0.00000000000E+00 0. -1.
          1    1    1    2  501    0 -0.22936909835E+03  0.24105705213E+03 -0.90594299630E+01  0.33286747953E+03  0.00000000000E+00 0. -1.
<scales pt_clust_5="13000.00000" pt_clust_6="13000.00000" pt_clust_7="13000.00000" pt_clust_8="13000.00000" pt_clust_9="332.74417"></scales>
<clustering>
<clus scale="   75.063">  5  6 -1 -1</clus>
<clus scale="   83.646">  7  8 -1 -1</clus>
<clus scale="  126.978">  5  7 -1 -1</clus>
<clus scale="  332.744">  2  9  1 -1</clus>
<clus scale="  332.744">  2  5  1 -1</clus>
</clustering>
</event>
<event>
 9    2  0.6175212E-005  0.9781878E+02  0.7546771E-02  0.1288987E+00
         21   -1    0    0  501  502  0.00000000000E+00  0.00000000000E+00  0.26639609330E+02  0.26639609330E+02  0.00000000000E+00 0.  1.
          2   -1    0    0  502    0 -0.00000000000E+00 -0.00000000000E+00 -0.66436387024E+03  0.66436387024E+03  0.00000000000E+00 0. -1.
         24    2    1    2    0    0 -0.16594541033E+02  0.29580143025E+02 -0.37781658869E+03  0.38803736630E+03  0.81714498688E+02 0.  0.
         23    2    1    2    0    0  0.60485973204E+02 -0.21162558393E+02 -0.19857523818E+03  0.22707816289E+03  0.89587722432E+02 0.  0.
        -11    1    3    3    0    0 -0.27799430968E+01 -0.24530571005E+02 -0.53163496783E+02  0.58615990886E+02  0.00000000000E+00 0.  1.
         12    1    3    3    0    0 -0.13814597936E+02  0.54110714029E+02 -0.32465309191E+03  0.32942137541E+03  0.00000000000E+00 0. -1.
        -11    1    4    4    0    0  0.69008642938E+02  0.97149297615E+01 -0.89707378967E+02  0.11359571515E+03  0.00000000000E+00 0.  1.
         11    1    4    4    0    0 -0.85226697343E+01 -0.30877488154E+02 -0.10886785921E+03  0.11348244773E+03  0.00000000000E+00 0. -1.
          1    1    1    2  501    0 -0.43891432171E+02 -0.84175846317E+01 -0.61332434044E+02  0.75887950393E+02  0.00000000000E+00 0. -1.
<scales pt_clust_5="13000.00000" pt_clust_6="13000.00000" pt_clust_7="13000.00000" pt_clust_8="13000.00000" pt_clust_9="44.69131"></scales>
<clustering>
<clus scale="   44.691">  1  9  2 -1</clus>
<clus scale="   81.714">  5  6 -1 -1</clus>
<clus scale="   89.588">  7  8 -1 -1</clus>
<clus scale="   90.663">  2  5  1 -1</clus>
<clus scale="   44.691">  1  5  2 -1</clus>
</clustering>
</event>
<event>
 9    2  0.6175212E-005  0.4242385E+03  0.7546771E-02  0.1035696E+00
         21   -1    0    0  501  502  0.00000000000E+00  0.00000000000E+00  0.22418822447E+03  0.22418822447E+03  0.00000000000E+00 0. -1.
          2   -1    0    0  502    0 -0.00000000000E+00 -0.00000000000E+00 -0.69390008119E+03  0.69390008119E+03  0.00000000000E+00 0. -1.
         24    2    1    2    0    0  0.82070658101E+02  0.13109422044E+03 -0.60142739665E+02  0.18342304320E+03  0.78138185861E+02 0.  0.
         23    2    1    2    0    0  0.21990257723E+03  0.66932069747E+02 -0.15048140512E+03  0.29022326519E+03  0.93529914675E+02 0.  0.
        -13    1    3    3    0    0  0.69019183242E+02  0.14018806401E+03 -0.60371085604E+02  0.16751420514E+03  0.00000000000E+00 0.  1.
         14    1    3    3    0    0  0.13051474859E+02 -0.90938435660E+01  0.22834593866E+00  0.15908838068E+02  0.00000000000E+00 0. -1.
        -13    1    4    4    0    0  0.57201968351E+02  0.40413380444E+02 -0.47561081544E+01  0.70199195629E+02  0.00000000000E+00 0.  1.
         13    1    4    4    0    0  0.16270060888E+03  0.26518689303E+02 -0.14572529696E+03  0.22002406956E+03  0.00000000000E+00 0. -1.
          1    1    1    2  501    0 -0.30197323533E+03 -0.19802629019E+03 -0.25908771194E+03  0.44444199727E+03  0.00000000000E+00 0. -1.
<scales pt_clust_5="13000.00000" pt_clust_6="13000.00000" pt_clust_7="13000.00000" pt_clust_8="13000.00000" pt_clust_9="361.11269"></scales>
<clustering>
<clus scale="   78.138">  5  6 -1 -1</clus>
<clus scale="   93.530">  7  8 -1 -1</clus>
<clus scale="  148.780">  5  7 -1 -1</clus>
<clus scale="  361.113">  1  9  2 -1</clus>
<clus scale="  361.113">  1  5  2 -1</clus>
</clustering>
</event>
<event>
 9    2  0.6175212E-005  0.1564012E+03  0.7546771E-02  0.1206174E+00
          2   -1    0    0  502    0 -0.00000000000E+00  0.00000000000E+00  0.48686204963E+03  0.48686204963E+03  0.00000000000E+00 0. -1.
         21   -1    0    0  501  502  0.00000000000E+00 -0.00000000000E+00 -0.13280767456E+03  0.13280767456E+03  0.00000000000E+00 0.  1.
         23    2    1    2    0    0 -0.64527713846E+01  0.73185784731E+02 -0.31177390212E+02  0.12107836604E+03  0.91050226344E+02 0.  0.
         24    2    1    2    0    0  0.24253589256E+02  0.10581504781E+03  0.13641883144E+03  0.19156360173E+03  0.79381704450E+02 0.  0.
        -13    1    4    4    0    0  0.36161495196E+02  0.94393430589E+02  0.14185990885E+03  0.17418957263E+03  0.00000000000E+00 0.  1.
         14    1    4    4    0    0 -0.11907905941E+02  0.11421617222E+02 -0.54410774106E+01  0.17374029102E+02  0.00000000000E+00 0. -1.
        -13    1    3    3    0    0 -0.39003733270E+02  0.68070697185E+02 -0.43254086525E+01  0.78572388179E+02  0.00000000000E+00 0.  1.
         13    1    3    3    0    0  0.32550961885E+02  0.51150875458E+01 -0.26851981560E+02  0.42505977861E+02  0.00000000000E+00 0. -1.
          1    1    1    2  501    0 -0.17800817871E+02 -0.17900083254E+03  0.24881293384E+03  0.30702775642E+03  0.00000000000E+00 0. -1.
<scales pt_clust_5="13000.00000" pt_clust_6="13000.00000" pt_clust_7="13000.00000" pt_clust_8="13000.00000" pt_clust_9="134.75868"></scales>
<clustering>
<clus scale="   79.382">  5  6 -1 -1</clus>
<clus scale="   91.050">  7  8 -1 -1</clus>
<clus scale="  116.996">  1  7  2 -1</clus>
<clus scale="  134.759">  2  9  1 -1</clus>
<clus scale="  134.759">  2  5  1 -1</clus>
</clustering>
</event>
<event>
 9    2  0.6175212E-005  0.8955794E+02  0.7546771E-02  0.1310850E+00
         21   -1    0    0  501  502  0.00000000000E+00  0.00000000000E+00  0.24748771349E+03  0.24748771349E+03  0.00000000000E+00 0. -1.
          2   -1    0    0  502    0 -0.00000000000E+00 -0.00000000000E+00 -0.49079468935E+03  0.49079468935E+03  0.00000000000E+00 0. -1.
         24    2    1    2    0    0  0.92654879792E+01 -0.47895668730E+01 -0.41875907996E+03  0.42619575418E+03  0.78580306764E+02 0.  0.
         23    2    1    2    0    0  0.19140293098E+02 -0.10377697053E+00 -0.36416314473E+02  0.98266490579E+02  0.89240089765E+02 0.  0.
        -11    1    3    3    0    0  0.21450582536E+02 -0.14023054947E+02 -0.42518618088E+02  0.49644802802E+02  0.00000000000E+00 0.  1.
         12    1    3    3    0    0 -0.12185094556E+02  0.92334880740E+01 -0.37624046187E+03  0.37655095137E+03  0.00000000000E+00 0. -1.
        -13    1    4    4    0    0 -0.18271771624E+02 -0.33984859879E+02 -0.52370488516E+01  0.38939119404E+02  0.00000000000E+00 0.  1.
         13    1    4    4    0    0  0.37412064722E+02  0.33881082908E+02 -0.31179265622E+02  0.59327371175E+02  0.00000000000E+00 0. -1.
          1    1    1    2  501    0 -0.28405781077E+02  0.48933438435E+01  0.21186841857E+03  0.21382015808E+03  0.00000000000E+00 0. -1.
<scales pt_clust_5="13000.00000" pt_clust_6="13000.00000" pt_clust_7="13000.00000" pt_clust_8="13000.00000" pt_clust_9="28.82418"></scales>
<clustering>
<clus scale="   28.824">  1  9  2 -1</clus>
<clus scale="   78.580">  5  6 -1 -1</clus>
<clus scale="   78.941">  2  5  1 -1</clus>
<clus scale="   89.240">  7  8 -1 -1</clus>
<clus scale="   28.824">  1  5  2 -1</clus>
</clustering>
</event>
<event>
 9    2  0.6175212E-005  0.1021539E+03  0.7546771E-02  0.1281269E+00
         21   -1    0    0  501  502  0.00000000000E+00  0.00000000000E+00  0.40373561928E+03  0.40373561928E+03  0.00000000000E+00 0. -1.
          2   -1    0    0  502    0 -0.00000000000E+00 -0.00000000000E+00 -0.20886453768E+03  0.20886453768E+03  0.00000000000E+00 0. -1.
         23    2    1    2    0    0 -0.51053346837E+01 -0.39452610870E+02 -0.16189775890E+03  0.19044560291E+03  0.92065576534E+02 0.  0.
         24    2    1    2    0    0  0.23080093946E+02  0.72213599120E+02  0.65878501877E+02  0.12887386355E+03  0.80752715503E+02 0.  0.
        -13    1    4    4    0    0 -0.15952566023E+02  0.21324622099E+02  0.58549931078E+02  0.64321989239E+02  0.00000000000E+00 0.  1.
         14    1    4    4    0    0  0.39032659969E+02  0.50888977021E+02  0.73285707988E+01  0.64551874307E+02  0.00000000000E+00 0. -1.
        -13    1    3    3    0    0  0.31649847797E+02 -0.10177002716E+02 -0.12866797091E+03  0.13289368303E+03  0.00000000000E+00 0. -1.
         13    1    3    3    0    0 -0.36755182481E+02 -0.29275608154E+02 -0.33229787989E+02  0.57551919879E+02  0.00000000000E+00 0.  1.
          1    1    1    2  501    0 -0.17974759263E+02 -0.32760988250E+02  0.29089033862E+03  0.29328069051E+03  0.00000000000E+00 0. -1.
<scales pt_clust_5="13000.00000" pt_clust_6="13000.00000" pt_clust_7="13000.00000" pt_clust_8="13000.00000" pt_clust_9="37.36809"></scales>
<clustering>
<clus scale="   37.368">  1  9  2 -1</clus>
<clus scale="   80.753">  5  6 -1 -1</clus>
<clus scale="   92.066">  7  8 -1 -1</clus>
<clus scale="   92.089">  1  5  2 -1</clus>
<clus scale="   37.368">  1  5  2 -1</clus>
</clustering>
</event>
<event>
 9    2  0.6175212E-005  0.1984557E+03  0.7546771E-02  0.1186791E+00
          2   -1    0    0  502    0 -0.00000000000E+00  0.00000000000E+00  0.14060382318E+04  0.14060382318E+04  0.00000000000E+00 0. -1.
         21   -1    0    0  501  502  0.00000000000E+00 -0.00000000000E+00 -0.50622279007E+02  0.50622279007E+02  0.00000000000E+00 0.  1.
         24    2    1    2    0    0  0.33413051675E+02  0.54348828151E+01  0.96531131119E+02  0.13026502309E+03  0.80652011710E+02 0.  0.
         23    2    1    2    0    0 -0.18516161488E+03 -0.25269588586E+02  0.36908768013E+03  0.42353337471E+03  0.90727218316E+02 0.  0.
        -11    1    3    3    0    0  0.36909245663E+02 -0.14867548001E+02  0.96090388958E+01  0.40934948729E+02  0.00000000000E+00 0.  1.
         12    1    3    3    0    0 -0.34961939877E+01  0.20302430816E+02  0.86922092223E+02  0.89330074364E+02  0.00000000000E+00 0. -1.
        -11    1    4    4    0    0 -0.35657112445E+02  0.30366988794E+02  0.10557955167E+03  0.11550162513E+03  0.00000000000E+00 0. -1.
         11    1    4    4    0    0 -0.14950450243E+03 -0.55636577380E+02  0.26350812846E+03  0.30803174959E+03  0.00000000000E+00 0.  1.
          1    1    1    2  501    0  0.15174856320E+03  0.19834705771E+02  0.88979714154E+03  0.90286211299E+03  0.00000000000E+00 0. -1.
<scales pt_clust_5="13000.00000" pt_clust_6="13000.00000" pt_clust_7="13000.00000" pt_clust_8="13000.00000" pt_clust_9="176.50292"></scales>
<clustering>
<clus scale="   80.652">  5  6 -1 -1</clus>
<clus scale="   87.468">  1  5  2 -1</clus>
<clus scale="   90.727">  7  8 -1 -1</clus>
<clus scale="  176.503">  2  9  1 -1</clus>
<clus scale="  176.503">  2  5  1 -1</clus>
</clustering>
</event>
<event>
 9    2  0.6175212E-005  0.9561861E+02  0.7546771E-02  0.1304347E+00
         21   -1    0    0  501  502  0.00000000000E+00  0.00000000000E+00  0.33768399120E+02  0.33768399120E+02  0.00000000000E+00 0. -1.
          2   -1    0    0  502    0 -0.00000000000E+00 -0.00000000000E+00 -0.33911433991E+03  0.33911433991E+03  0.00000000000E+00 0. -1.
         23    2    1    2    0    0 -0.21615861800E+02 -0.42884137218E+02 -0.16839340561E+03  0.19736430182E+03  0.91049623138E+02 0.  0.
         24    2    1    2    0    0  0.19509882422E+02  0.33025656930E+01 -0.93953171453E+02  0.11703697660E+03  0.66924681653E+02 0.  0.
        -11    1    4    4    0    0  0.16147054284E+01 -0.29891745756E+02 -0.56202687191E+02  0.63677828053E+02  0.00000000000E+00 0.  1.
         12    1    4    4    0    0  0.17895176994E+02  0.33194311449E+02 -0.37750484261E+02  0.53359148552E+02  0.00000000000E+00 0. -1.
        -11    1    3    3    0    0 -0.34178957728E+02 -0.66823316502E+02 -0.11198467345E+03  0.13481143819E+03  0.00000000000E+00 0. -1.
         11    1    3    3    0    0  0.12563095928E+02  0.23939179284E+02 -0.56408732159E+02  0.62552863626E+02  0.00000000000E+00 0.  1.
          1    1    1    2  501    0  0.21059793781E+01  0.39581571525E+02 -0.42999363724E+02  0.58481460603E+02  0.00000000000E+00 0. -1.
<scales pt_clust_5="13000.00000" pt_clust_6="13000.00000" pt_clust_7="13000.00000" pt_clust_8="13000.00000" pt_clust_9="39.63756"></scales>
<clustering>
<clus scale="   39.638">  1  9  2 -1</clus>
<clus scale="   66.925">  5  6 -1 -1</clus>
<clus scale="   73.019">  1  5  2 -1</clus>
<clus scale="   91.050">  7  8 -1 -1</clus>
<clus scale="   39.638">  1  5  2 -1</clus>
</clustering>
</event>
<event>
 9    2  0.6175212E-005  0.1771263E+03  0.7546771E-02  0.1171347E+00
         21   -1    0    0  501  502  0.00000000000E+00  0.00000000000E+00  0.17195330214E+03  0.17195330214E+03  0.00000000000E+00 0. -1.
         -3   -1    0    0    0  501 -0.00000000000E+00 -0.00000000000E+00 -0.24208557258E+03  0.24208557258E+03  0.00000000000E+00 0.  1.
         23    2    1    2    0    0  0.14058255064E+03 -0.36960108612E+02 -0.70411847590E+02  0.18469344357E+03  0.89578661777E+02 0.  0.
         24    2    1    2    0    0 -0.14818714723E+03  0.74085380986E+02 -0.19499056976E+02  0.18659838323E+03  0.83610221394E+02 0.  0.
        -11    1    4    4    0    0 -0.48773518697E+02  0.26396954942E+02 -0.47297337198E+02  0.72888225814E+02  0.00000000000E+00 0.  1.
         12    1    4    4    0    0 -0.99413628531E+02  0.47688426044E+02  0.27798280222E+02  0.11371015742E+03  0.00000000000E+00 0. -1.
        -11    1    3    3    0    0  0.30111919238E+02  0.28771223059E+02 -0.23723078135E+02  0.47930109459E+02  0.00000000000E+00 0. -1.
         11    1    3    3    0    0  0.11047063140E+03 -0.65731331671E+02 -0.46688769454E+02  0.13676333411E+03  0.00000000000E+00 0.  1.
         -4    1    1    2    0  502  0.76045965903E+01 -0.37125272374E+02  0.19778634126E+02  0.42747047922E+02  0.00000000000E+00 0.  1.
<scales pt_clust_5="13000.00000" pt_clust_6="13000.00000" pt_clust_7="13000.00000" pt_clust_8="13000.00000" pt_clust_9="37.89612"></scales>
<clustering>
<clus scale="   37.896">  1  9  2 -1</clus>
<clus scale="   83.610">  5  6 -1 -1</clus>
<clus scale="   89.579">  7  8 -1 -1</clus>
<clus scale="  174.184">  1  5  2 -1</clus>
<clus scale="   37.896">  1  5  2 -1</clus>
</clustering>
</event>
<event>
 9    2  0.6175212E-005  0.1117134E+03  0.7546771E-02  0.1262747E+00
          2   -1    0    0  502    0 -0.00000000000E+00  0.00000000000E+00  0.19750518764E+03  0.19750518764E+03  0.00000000000E+00 0. -1.
         21   -1    0    0  501  502  0.00000000000E+00 -0.00000000000E+00 -0.13777313785E+03  0.13777313785E+03  0.00000000000E+00 0. -1.
         24    2    1    2    0    0  0.60183370838E+02 -0.61167730629E+02  0.58641348454E+02  0.13010126694E+03  0.78256006250E+02 0.  0.
         23    2    1    2    0    0 -0.49440425019E+02 -0.30474095315E+02 -0.19609004660E+02  0.11061431231E+03  0.92075984457E+02 0.  0.
        -11    1    3    3    0    0  0.67381195737E+01 -0.60916286317E+02  0.41331519568E+02  0.73922193581E+02  0.00000000000E+00 0.  1.
         12    1    3    3    0    0  0.53445251265E+02 -0.25144431210E+00  0.17309828886E+02  0.56179073355E+02  0.00000000000E+00 0. -1.
        -13    1    4    4    0    0 -0.62992968820E+02  0.10199088829E+02 -0.85202438274E+00  0.63818974288E+02  0.00000000000E+00 0. -1.
         13    1    4    4    0    0  0.13552543800E+02 -0.40673184144E+02 -0.18756980277E+02  0.46795338026E+02  0.00000000000E+00 0.  1.
          1    1    1    2  501    0 -0.10742945819E+02  0.91641825944E+02  0.20699706003E+02  0.94562746237E+02  0.00000000000E+00 0. -1.
<scales pt_clust_5="13000.00000" pt_clust_6="13000.00000" pt_clust_7="13000.00000" pt_clust_8="13000.00000" pt_clust_9="92.26941"></scales>
<clustering>
<clus scale="   78.256">  5  6 -1 -1</clus>
<clus scale="   92.076">  7  8 -1 -1</clus>
<clus scale="   92.269">  2  9  1 -1</clus>
<clus scale="  100.628">  1  5  2 -1</clus>
<clus scale="   92.269">  2  5  1 -1</clus>
</clustering>
</event>
<event>
 9    2  0.6175212E-005  0.1088254E+03  0.7546771E-02  0.1268672E+00
         21   -1    0    0  501  502  0.00000000000E+00  0.00000000000E+00  0.11145625429E+03  0.11145625429E+03  0.00000000000E+00 0. -1.
          4   -1    0    0  502    0 -0.00000000000E+00 -0.00000000000E+00 -0.16601554131E+03  0.16601554131E+03  0.00000000000E+00 0. -1.
         24    2    1    2    0    0 -0.36423028171E+02 -0.63270332829E+02 -0.47270664572E+02  0.11643345730E+03  0.77410995674E+02 0.  0.
         23    2    1    2    0    0  0.47568366368E+02  0.15083529999E+02 -0.26795131225E+02  0.10787170953E+03  0.91804489561E+02 0.  0.
        -13    1    3    3    0    0 -0.55822107924E+02 -0.34455274525E+02 -0.48648140341E+02  0.81669549003E+02  0.00000000000E+00 0.  1.
         14    1    3    3    0    0  0.19399079753E+02 -0.28815058303E+02  0.13774757691E+01  0.34763908293E+02  0.00000000000E+00 0. -1.
        -11    1    4    4    0    0  0.45256439048E+02  0.39008742404E+02  0.13219210891E+02  0.61192930930E+02  0.00000000000E+00 0.  1.
         11    1    4    4    0    0  0.23119273199E+01 -0.23925212405E+02 -0.40014342117E+02  0.46678778600E+02  0.00000000000E+00 0. -1.
          3    1    1    2  501    0 -0.11145338197E+02  0.48186802830E+02  0.19506508783E+02  0.53166628776E+02  0.00000000000E+00 0. -1.
<scales pt_clust_5="13000.00000" pt_clust_6="13000.00000" pt_clust_7="13000.00000" pt_clust_8="13000.00000" pt_clust_9="49.45894"></scales>
<clustering>
<clus scale="   49.459">  1  9  2 -1</clus>
<clus scale="   77.411">  5  6 -1 -1</clus>
<clus scale="   91.804">  7  8 -1 -1</clus>
<clus scale="   96.992">  2  5  1 -1</clus>
<clus scale="   49.459">  1  5  2 -1</clus>
</clustering>
</event>
<event>
 9    2  0.6175212E-005  0.1116419E+03  0.7546771E-02  0.1260992E+00
         21   -1    0    0  501  502  0.00000000000E+00  0.00000000000E+00  0.10596422686E+04  0.10596422686E+04  0.00000000000E+00 0. -1.
         -3   -1    0    0    0  501 -0.00000000000E+00 -0.00000000000E+00 -0.16982659034E+02  0.16982659034E+02  0.00000000000E+00 0.  1.
         23    2    1    2    0    0  0.34772057946E+02  0.55221802400E+02  0.26977714770E+03  0.29228005812E+03  0.91593555874E+02 0.  0.
         24    2    1    2    0    0 -0.54839272658E+02 -0.34982069414E+02  0.60583271350E+03  0.61488113201E+03  0.82549613926E+02 0.  0.
        -11    1    4    4    0    0 -0.17329982121E+02 -0.13762772099E+02  0.29191320633E+02  0.36631617170E+02  0.00000000000E+00 0.  1.
         12    1    4    4    0    0 -0.37509290537E+02 -0.21219297314E+02  0.57664139286E+03  0.57824951484E+03  0.00000000000E+00 0. -1.
        -11    1    3    3    0    0  0.11757749036E+02  0.74553054129E+02  0.23221907186E+03  0.24417637043E+03  0.00000000000E+00 0. -1.
         11    1    3    3    0    0  0.23014308910E+02 -0.19331251729E+02  0.37558075842E+02  0.48103687686E+02  0.00000000000E+00 0.  1.
         -4    1    1    2    0  502  0.20067214712E+02 -0.20239732987E+02  0.16704974840E+03  0.16946373753E+03  0.00000000000E+00 0.  1.
<scales pt_clust_5="13000.00000" pt_clust_6="13000.00000" pt_clust_7="13000.00000" pt_clust_8="13000.00000" pt_clust_9="28.50158"></scales>
<clustering>
<clus scale="   28.502">  1  9  2 -1</clus>
<clus scale="   82.550">  5  6 -1 -1</clus>
<clus scale="   91.594">  7  8 -1 -1</clus>
<clus scale="  104.350">  1  5  2 -1</clus>
<clus scale="   28.502">  1  5  2 -1</clus>
</clustering>
</event>
<event>
 9    2  0.6175212E-005  0.1252284E+03  0.7546771E-02  0.1236873E+00
         21   -1    0    0  501  502  0.00000000000E+00  0.00000000000E+00  0.35447603348E+03  0.35447603348E+03  0.00000000000E+00 0.  1.
          2   -1    0    0  502    0 -0.00000000000E+00 -0.00000000000E+00 -0.25273828773E+03  0.25273828773E+03  0.00000000000E+00 0. -1.
         23    2    1    2    0    0  0.11056474170E+01 -0.92620167353E+02 -0.21677048061E+03  0.25169094197E+03  0.88199609687E+02 0.  0.
         24    2    1    2    0    0  0.21822920386E+01  0.33630490012E+02  0.25164793965E+03  0.26629955666E+03  0.80330542688E+02 0.  0.
        -13    1    4    4    0    0  0.23546703331E+02  0.49303419994E+02  0.20955924795E+03  0.21656489296E+03  0.00000000000E+00 0.  1.
         14    1    4    4    0    0 -0.21364411292E+02 -0.15672929982E+02  0.42088691696E+02  0.49734663694E+02  0.00000000000E+00 0. -1.
        -11    1    3    3    0    0 -0.33054126528E+02 -0.55489799360E+01 -0.70679656501E+02  0.78223911319E+02  0.00000000000E+00 0.  1.
         11    1    3    3    0    0  0.34159773945E+02 -0.87071187417E+02 -0.14609082411E+03  0.17346703065E+03  0.00000000000E+00 0. -1.
          1    1    1    2  501    0 -0.32879394555E+01  0.58989677341E+02  0.66860286707E+02  0.89223822588E+02  0.00000000000E+00 0. -1.
<scales pt_clust_5="13000.00000" pt_clust_6="13000.00000" pt_clust_7="13000.00000" pt_clust_8="13000.00000" pt_clust_9="59.08124"></scales>
<clustering>
<clus scale="   59.081">  1  9  2 -1</clus>
<clus scale="   80.331">  5  6 -1 -1</clus>
<clus scale="   88.200">  7  8 -1 -1</clus>
<clus scale="  119.816">  1  5  2 -1</clus>
<clus scale="   59.081">  1  5  2 -1</clus>
</clustering>
</event>
<event>
 9    2  0.6175212E-005  0.9849300E+02  0.7546771E-02  0.1288578E+00
         21   -1    0    0  501  502  0.00000000000E+00  0.00000000000E+00  0.17407001541E+03  0.17407001541E+03  0.00000000000E+00 0.  1.
         -1   -1    0    0    0  501 -0.00000000000E+00 -0.00000000000E+00 -0.86466139731E+02  0.86466139731E+02  0.00000000000E+00 0.  1.
         23    2    1    2    0    0  0.13879070583E+02 -0.29207270129E+02 -0.56811215286E+01  0.95732114797E+02  0.89925910799E+02 0.  0.
         24    2    1    2    0    0 -0.74341236462E+01  0.60426292175E+02  0.85580756122E+02  0.13200891861E+03  0.79973031671E+02 0.  0.
        -11    1    4    4    0    0  0.42596007636E+01  0.63664221411E+02  0.22324235580E+02  0.67599177368E+02  0.00000000000E+00 0.  1.
         12    1    4    4    0    0 -0.11693724410E+02 -0.32379292362E+01  0.63256520541E+02  0.64409741245E+02  0.00000000000E+00 0. -1.
        -13    1    3    3    0    0  0.36516852429E+02 -0.42403636758E+02 -0.26829269499E+02  0.62059315364E+02  0.00000000000E+00 0.  1.
         13    1    3    3    0    0 -0.22637781846E+02  0.13196366629E+02  0.21148147970E+02  0.33672799433E+02  0.00000000000E+00 0. -1.
         -2    1    1    2    0  502 -0.64449469365E+01 -0.31219022046E+02  0.77042410830E+01  0.32795121728E+02  0.00000000000E+00 0.  1.
<scales pt_clust_5="13000.00000" pt_clust_6="13000.00000" pt_clust_7="13000.00000" pt_clust_8="13000.00000" pt_clust_9="31.87735"></scales>
<clustering>
<clus scale="   31.877">  1  9  2 -1</clus>
<clus scale="   79.973">  5  6 -1 -1</clus>
<clus scale="   89.498">  1  5  2 -1</clus>
<clus scale="   89.926">  7  8 -1 -1</clus>
<clus scale="   31.877">  1  5  2 -1</clus>
</clustering>
</event>
<event>
 9    2  0.6175212E-005  0.4434584E+03  0.7546771E-02  0.1029691E+00
         21   -1    0    0  501  502  0.00000000000E+00  0.00000000000E+00  0.21982370687E+03  0.21982370687E+03  0.00000000000E+00 0. -1.
          2   -1    0    0  502    0 -0.00000000000E+00 -0.00000000000E+00 -0.99479147998E+03  0.99479147998E+03  0.00000000000E+00 0. -1.
         24    2    1    2    0    0 -0.62769814982E+02  0.20159285343E+03 -0.28551013254E+03  0.36422102205E+03  0.81001166035E+02 0.  0.
         23    2    1    2    0    0  0.95012944837E+02  0.15945737207E+03 -0.43785071506E+03  0.48425189803E+03  0.91282741382E+02 0.  0.
        -13    1    3    3    0    0  0.87887951306E+01  0.10682473672E+03 -0.12766990878E+03  0.16669844901E+03  0.00000000000E+00 0.  1.
         14    1    3    3    0    0 -0.71558610112E+02  0.94768116707E+02 -0.15784022376E+03  0.19752257304E+03  0.00000000000E+00 0. -1.
        -13    1    4    4    0    0  0.21543988576E+02  0.40719834824E+02 -0.34900193790E+02  0.57795085590E+02  0.00000000000E+00 0.  1.
         13    1    4    4    0    0  0.73468956261E+02  0.11873753725E+03 -0.40295052127E+03  0.42645681244E+03  0.00000000000E+00 0. -1.
          1    1    1    2  501    0 -0.32243129856E+02 -0.36105022550E+03 -0.51606925513E+02  0.36614226677E+03  0.00000000000E+00 0. -1.
<scales pt_clust_5="13000.00000" pt_clust_6="13000.00000" pt_clust_7="13000.00000" pt_clust_8="13000.00000" pt_clust_9="362.48708"></scales>
<clustering>
<clus scale="   81.001">  5  6 -1 -1</clus>
<clus scale="   91.283">  7  8 -1 -1</clus>
<clus scale="  199.020">  5  7 -1 -1</clus>
<clus scale="  362.487">  1  9  2 -1</clus>
<clus scale="  362.487">  1  5  2 -1</clus>
</clustering>
</event>
<event>
 9    2  0.6175212E-005  0.1153139E+03  0.7546771E-02  0.1253358E+00
         21   -1    0    0  501  502  0.00000000000E+00  0.00000000000E+00  0.68896904519E+02  0.68896904519E+02  0.00000000000E+00 0. -1.
          2   -1    0    0  502    0 -0.00000000000E+00 -0.00000000000E+00 -0.44055000608E+03  0.44055000608E+03  0.00000000000E+00 0. -1.
         24    2    1    2    0    0 -0.55893965496E+02 -0.35983100616E+01 -0.15169762077E+03  0.18245949373E+03  0.84511629313E+02 0.  0.
         23    2    1    2    0    0  0.78662316898E+02 -0.56698168526E+02 -0.22596105678E+03  0.26225620262E+03  0.91200187582E+02 0.  0.
        -13    1    3    3    0    0 -0.23401684494E+02 -0.94210493984E+01  0.19536033922E+01  0.25302402556E+02  0.00000000000E+00 0.  1.
         14    1    3    3    0    0 -0.32492281002E+02  0.58227393367E+01 -0.15365122416E+03  0.15715709117E+03  0.00000000000E+00 0. -1.
        -13    1    4    4    0    0  0.53076246695E+02  0.14482170549E+02 -0.12059273751E+03  0.13254972489E+03  0.00000000000E+00 0.  1.
         13    1    4    4    0    0  0.25586070202E+02 -0.71180339075E+02 -0.10536831927E+03  0.12970647773E+03  0.00000000000E+00 0. -1.
          1    1    1    2  501    0 -0.22768351402E+02  0.60296478588E+02  0.60055759943E+01  0.64731214253E+02  0.00000000000E+00 0. -1.
<scales pt_clust_5="13000.00000" pt_clust_6="13000.00000" pt_clust_7="13000.00000" pt_clust_8="13000.00000" pt_clust_9="64.45202"></scales>
<clustering>
<clus scale="   64.452">  1  9  2 -1</clus>
<clus scale="   84.512">  5  6 -1 -1</clus>
<clus scale="   91.200">  7  8 -1 -1</clus>
<clus scale="  110.100">  2  5  1 -1</clus>
<clus scale="   64.452">  1  5  2 -1</clus>
</clustering>
</event>
<event>
 9    2  0.6175212E-005  0.3025787E+03  0.7546771E-02  0.1083959E+00
         21   -1    0    0  501  502  0.00000000000E+00  0.00000000000E+00  0.25421270731E+03  0.25421270731E+03  0.00000000000E+00 0.  1.
          2   -1    0    0  502    0 -0.00000000000E+00 -0.00000000000E+00 -0.33659719844E+03  0.33659719844E+03  0.00000000000E+00 0. -1.
         24    2    1    2    0    0 -0.36274160286E+01 -0.63723219622E+02  0.23838906546E+02  0.99356376571E+02  0.72315898902E+02 0.  0.
         23    2    1    2    0    0 -0.26834491172E+02 -0.18236452663E+03  0.30847009367E+02  0.20812438642E+03  0.91582267646E+02 0.  0.
        -13    1    3    3    0    0  0.29150788547E+02 -0.48508924571E+02  0.99181335432E+00  0.56602720161E+02  0.00000000000E+00 0.  1.
         14    1    3    3    0    0 -0.32778204576E+02 -0.15214295051E+02  0.22847093191E+02  0.42753656410E+02  0.00000000000E+00 0. -1.
        -13    1    4    4    0    0 -0.22250730920E+02  0.10695791459E+01  0.48809502202E+01  0.22804883272E+02  0.00000000000E+00 0. -1.
         13    1    4    4    0    0 -0.45837602522E+01 -0.18343410578E+03  0.25966059147E+02  0.18531950315E+03  0.00000000000E+00 0.  1.
          1    1    1    2  501    0  0.30461907201E+02  0.24608774626E+03 -0.13707040705E+03  0.28332914276E+03  0.00000000000E+00 0. -1.
<scales pt_clust_5="13000.00000" pt_clust_6="13000.00000" pt_clust_7="13000.00000" pt_clust_8="13000.00000" pt_clust_9="247.96606"></scales>
<clustering>
<clus scale="   72.316">  5  6 -1 -1</clus>
<clus scale="   91.582">  7  8 -1 -1</clus>
<clus scale="   93.071">  5  7 -1 -1</clus>
<clus scale="  247.966">  1  9  2 -1</clus>
<clus scale="  247.966">  1  5  2 -1</clus>
</clustering>
</event>
<event>
 9    2  0.6175212E-005  0.1040235E+03  0.7546771E-02  0.1278658E+00
         21   -1    0    0  501  502  0.00000000000E+00  0.00000000000E+00  0.17256015757E+03  0.17256015757E+03  0.00000000000E+00 0. -1.
         -1   -1    0    0    0  501 -0.00000000000E+00 -0.00000000000E+00 -0.10428862745E+03  0.10428862745E+03  0.00000000000E+00 0.  1.
         24    2    1    2    0    0  0.50165325244E+02 -0.28961704683E+02 -0.34860312213E+02  0.10083194999E+03  0.74809762570E+02 0.  0.
         23    2    1    2    0    0 -0.24786279701E+02  0.23350759042E+02  0.11306637832E+03  0.14819106157E+03  0.89537518468E+02 0.  0.
        -11    1    3    3    0    0  0.46757130631E+02 -0.34015530664E+02 -0.54992986546E+02  0.79796705198E+02  0.00000000000E+00 0.  1.
         12    1    3    3    0    0  0.34081946129E+01  0.50538259815E+01  0.20132674333E+02  0.21035244790E+02  0.00000000000E+00 0. -1.
        -13    1    4    4    0    0 -0.49650558081E+02  0.28894158188E+01  0.10312338012E+03  0.11448999157E+03  0.00000000000E+00 0.  1.
         13    1    4    4    0    0  0.24864278380E+02  0.20461343223E+02  0.99429981920E+01  0.33701069997E+02  0.00000000000E+00 0. -1.
         -2    1    1    2    0  502 -0.25379045543E+02  0.56109456404E+01 -0.99345359825E+01  0.27825773463E+02  0.00000000000E+00 0.  1.
<scales pt_clust_5="13000.00000" pt_clust_6="13000.00000" pt_clust_7="13000.00000" pt_clust_8="13000.00000" pt_clust_9="25.99191"></scales>
<clustering>
<clus scale="   25.992">  1  9  2 -1</clus>
<clus scale="   74.810">  5  6 -1 -1</clus>
<clus scale="   89.538">  7  8 -1 -1</clus>
<clus scale="   91.654">  2  5  1 -1</clus>
<clus scale="   25.992">  1  5  2 -1</clus>
</clustering>
</event>
<event>
 9    2  0.6175212E-005  0.1518404E+03  0.7546771E-02  0.1200093E+00
         21   -1    0    0  501  502  0.00000000000E+00  0.00000000000E+00  0.11923743996E+03  0.11923743996E+03  0.00000000000E+00 0.  1.
          2   -1    0    0  502    0 -0.00000000000E+00 -0.00000000000E+00 -0.71336071593E+03  0.71336071593E+03  0.00000000000E+00 0. -1.
         23    2    1    2    0    0  0.12095554952E+03 -0.24235280916E+02 -0.62816845417E+03  0.64673450182E+03  0.91936473873E+02 0.  0.
         24    2    1    2    0    0 -0.92994277350E+02  0.83398653539E+01  0.66049760506E+02  0.14048975997E+03  0.81592357612E+02 0.  0.
        -13    1    4    4    0    0 -0.49075317748E+02  0.27575131960E+02  0.72848657684E+02  0.92063573910E+02  0.00000000000E+00 0.  1.
         14    1    4    4    0    0 -0.43918959602E+02 -0.19235266606E+02 -0.67988971778E+01  0.48426186064E+02  0.00000000000E+00 0. -1.
        -13    1    3    3    0    0  0.25577626392E+02 -0.48321398829E+02 -0.25701081821E+03  0.26276174234E+03  0.00000000000E+00 0.  1.
         13    1    3    3    0    0  0.95377923129E+02  0.24086117913E+02 -0.37115763595E+03  0.38397275948E+03  0.00000000000E+00 0. -1.
          1    1    1    2  501    0 -0.27961272171E+02  0.15895415562E+02 -0.32004582305E+02  0.45373894100E+02  0.00000000000E+00 0. -1.
<scales pt_clust_5="13000.00000" pt_clust_6="13000.00000" pt_clust_7="13000.00000" pt_clust_8="13000.00000" pt_clust_9="32.16360"></scales>
<clustering>
<clus scale="   32.164">  1  9  2 -1</clus>
<clus scale="   81.592">  5  6 -1 -1</clus>
<clus scale="   91.936">  7  8 -1 -1</clus>
<clus scale="  145.810">  1  5  2 -1</clus>
<clus scale="   32.164">  1  5  2 -1</clus>
</clustering>
</event>
<event>
 9    2  0.6175212E-005  0.3366679E+03  0.7546771E-02  0.1068564E+00
         21   -1    0    0  501  502  0.00000000000E+00  0.00000000000E+00  0.16542738247E+03  0.16542738247E+03  0.00000000000E+00 0. -1.
          2   -1    0    0  502    0 -0.00000000000E+00 -0.00000000000E+00 -0.86679228138E+03  0.86679228138E+03  0.00000000000E+00 0. -1.
         24    2    1    2    0    0 -0.19659227357E+03  0.29205908849E+03 -0.40868979063E+03  0.54543873089E+03  0.80802419439E+02 0.  0.
         23    2    1    2    0    0  0.12972212567E+03 -0.25881173855E+03 -0.18553077200E+03  0.35617882061E+03  0.92899617806E+02 0.  0.
        -11    1    3    3    0    0 -0.78083547824E+02  0.53959199320E+02 -0.97271147377E+02  0.13590552507E+03  0.00000000000E+00 0.  1.
         12    1    3    3    0    0 -0.11850872574E+03  0.23809988917E+03 -0.31141864325E+03  0.40953320582E+03  0.00000000000E+00 0. -1.
        -13    1    4    4    0    0 -0.71117179883E+01 -0.64033910841E+02 -0.25199037437E+02  0.69180270006E+02  0.00000000000E+00 0. -1.
         13    1    4    4    0    0  0.13683384366E+03 -0.19477782771E+03 -0.16033173457E+03  0.28699855060E+03  0.00000000000E+00 0.  1.
          1    1    1    2  501    0  0.66870147895E+02 -0.33247349945E+02 -0.10714433627E+03  0.13060211236E+03  0.00000000000E+00 0. -1.
<scales pt_clust_5="13000.00000" pt_clust_6="13000.00000" pt_clust_7="13000.00000" pt_clust_8="13000.00000" pt_clust_9="74.67937"></scales>
<clustering>
<clus scale="   74.679">  1  9  2 -1</clus>
<clus scale="   80.802">  5  6 -1 -1</clus>
<clus scale="   92.900">  7  8 -1 -1</clus>
<clus scale="  333.533">  2  5  1 -1</clus>
<clus scale="   74.679">  1  5  2 -1</clus>
</clustering>
</event>
<event>
 9    2  0.6175212E-005  0.1915765E+03  0.7546771E-02  0.1158333E+00
         21   -1    0    0  501  502  0.00000000000E+00  0.00000000000E+00  0.82636090224E+02  0.82636090224E+02  0.00000000000E+00 0. -1.
          2   -1    0    0  502    0 -0.00000000000E+00 -0.00000000000E+00 -0.14593425669E+04  0.14593425669E+04  0.00000000000E+00 0. -1.
         24    2    1    2    0    0  0.14889459893E+03  0.77975862881E+02 -0.12210771516E+04  0.12352363119E+04  0.80805317241E+02 0.  0.
         23    2    1    2    0    0 -0.16823421568E+03 -0.24405057536E+02 -0.74578819791E+02  0.20768157414E+03  0.93119695631E+02 0.  0.
        -13    1    3    3    0    0  0.17333472573E+02  0.27585557066E+02 -0.96102040325E+02  0.10147420551E+03  0.00000000000E+00 0.  1.
         14    1    3    3    0    0  0.13156112635E+03  0.50390305816E+02 -0.11249751113E+04  0.11337621064E+04  0.00000000000E+00 0. -1.
        -11    1    4    4    0    0 -0.28502112499E+02 -0.14485225919E+02 -0.58514938346E+02  0.66679758521E+02  0.00000000000E+00 0.  1.
         11    1    4    4    0    0 -0.13973210319E+03 -0.99198316169E+01 -0.16063881445E+02  0.14100181562E+03  0.00000000000E+00 0. -1.
          1    1    1    2  501    0  0.19339616759E+02 -0.53570805345E+02 -0.81050505285E+02  0.99060771089E+02  0.00000000000E+00 0. -1.
<scales pt_clust_5="13000.00000" pt_clust_6="13000.00000" pt_clust_7="13000.00000" pt_clust_8="13000.00000" pt_clust_9="56.95482"></scales>
<clustering>
<clus scale="   56.955">  1  9  2 -1</clus>
<clus scale="   80.805">  5  6 -1 -1</clus>
<clus scale="   93.120">  7  8 -1 -1</clus>
<clus scale="  185.903">  2  5  1 -1</clus>
<clus scale="   56.955">  1  5  2 -1</clus>
</clustering>
</event>
<event>
 9    2  0.6175212E-005  0.1057050E+03  0.7546771E-02  0.1269542E+00
         21   -1    0    0  501  502  0.00000000000E+00  0.00000000000E+00  0.66304428493E+02  0.66304428493E+02  0.00000000000E+00 0.  1.
          2   -1    0    0  502    0 -0.00000000000E+00 -0.00000000000E+00 -0.12619611654E+04  0.12619611654E+04  0.00000000000E+00 0. -1.
         24    2    1    2    0    0 -0.39553665556E+02  0.45360193582E+02 -0.11778904393E+04  0.11824532952E+04  0.84545070378E+02 0.  0.
         23    2    1    2    0    0  0.62598616355E+02 -0.42927465326E+02  0.23260188871E+01  0.11514164318E+03  0.86549601852E+02 0.  0.
        -11    1    3    3    0    0 -0.16417442376E+02  0.19322150516E+02 -0.78125821598E+02  0.82137213947E+02  0.00000000000E+00 0.  1.
         12    1    3    3    0    0 -0.23136223180E+02  0.26038043066E+02 -0.10997646177E+04  0.11003160813E+04  0.00000000000E+00 0. -1.
        -11    1    4    4    0    0  0.32496473643E+02 -0.35982318873E+02  0.42491895741E+02  0.64469444502E+02  0.00000000000E+00 0.  1.
         11    1    4    4    0    0  0.30102142712E+02 -0.69451464530E+01 -0.40165876854E+02  0.50672198675E+02  0.00000000000E+00 0. -1.
          1    1    1    2  501    0 -0.23044950798E+02 -0.24327282564E+01 -0.20092316581E+02  0.30670655514E+02  0.00000000000E+00 0. -1.
<scales pt_clust_5="13000.00000" pt_clust_6="13000.00000" pt_clust_7="13000.00000" pt_clust_8="13000.00000" pt_clust_9="23.17300"></scales>
<clustering>
<clus scale="   23.173">  1  9  2 -1</clus>
<clus scale="   84.545">  5  6 -1 -1</clus>
<clus scale="   86.550">  7  8 -1 -1</clus>
<clus scale="  104.070">  2  5  1 -1</clus>
<clus scale="   23.173">  1  5  2 -1</clus>
</clustering>
</event>
<event>
 9    2  0.6175212E-005  0.9944093E+02  0.7546771E-02  0.1290976E+00
         21   -1    0    0  501  502  0.00000000000E+00  0.00000000000E+00  0.23450555348E+02  0.23450555348E+02  0.00000000000E+00 0. -1.
          2   -1    0    0  502    0 -0.00000000000E+00 -0.00000000000E+00 -0.58791267158E+03  0.58791267158E+03  0.00000000000E+00 0. -1.
         23    2    1    2    0    0  0.21292843486E+02  0.21029752939E+02 -0.39985598976E+03  0.41254004467E+03  0.96999176361E+02 0.  0.
         24    2    1    2    0    0 -0.18085603869E+00 -0.11927187091E+02 -0.15278833215E+03  0.17297297952E+03  0.80206525315E+02 0.  0.
        -13    1    4    4    0    0 -0.33164428982E+02 -0.27769063014E+02 -0.67542891799E+02  0.80206249401E+02  0.00000000000E+00 0.  1.
         14    1    4    4    0    0  0.32983572944E+02  0.15841875922E+02 -0.85245440353E+02  0.92766730124E+02  0.00000000000E+00 0. -1.
        -13    1    3    3    0    0 -0.36107840280E+02  0.17741148020E+02 -0.11220438137E+03  0.11919877374E+03  0.00000000000E+00 0.  1.
         13    1    3    3    0    0  0.57400683766E+02  0.32886049192E+01 -0.28765160839E+03  0.29334127093E+03  0.00000000000E+00 0. -1.
          1    1    1    2  501    0 -0.21111987448E+02 -0.91025658480E+01 -0.11817794323E+02  0.25850202739E+02  0.00000000000E+00 0. -1.
<scales pt_clust_5="13000.00000" pt_clust_6="13000.00000" pt_clust_7="13000.00000" pt_clust_8="13000.00000" pt_clust_9="22.99071"></scales>
<clustering>
<clus scale="   22.991">  1  9  2 -1</clus>
<clus scale="   80.207">  5  6 -1 -1</clus>
<clus scale="   83.143">  1  5  2 -1</clus>
<clus scale="   96.999">  7  8 -1 -1</clus>
<clus scale="   22.991">  1  5  2 -1</clus>
</clustering>
</event>
<event>
 9    2  0.6175212E-005  0.1081881E+03  0.7546771E-02  0.1275281E+00
         -1   -1    0    0    0  501 -0.00000000000E+00  0.00000000000E+00  0.21262533262E+03  0.21262533262E+03  0.00000000000E+00 0.  1.
         21   -1    0    0  501  502  0.00000000000E+00 -0.00000000000E+00 -0.11225957368E+03  0.11225957368E+03  0.00000000000E+00 0.  1.
         23    2    1    2    0    0  0.33209831749E+02  0.15747084616E+02  0.14664147424E+03  0.18237664455E+03  0.10201301343E+03 0.  0.
         24    2    1    2    0    0 -0.41777623186E+02  0.19652768996E+02 -0.11759086311E+02  0.92329039325E+02  0.79087130834E+02 0.  0.
        -11    1    4    4    0    0  0.11617502915E+02  0.29165396234E+02 -0.20356138940E+02  0.37416027368E+02  0.00000000000E+00 0.  1.
         12    1    4    4    0    0 -0.53395126101E+02 -0.95126272381E+01  0.85970526284E+01  0.54913011957E+02  0.00000000000E+00 0. -1.
        -11    1    3    3    0    0 -0.23041599610E+02  0.76771539140E+01 -0.86496166001E+00  0.24302307781E+02  0.00000000000E+00 0. -1.
         11    1    3    3    0    0  0.56251431359E+02  0.80699307017E+01  0.14750643590E+03  0.15807433677E+03  0.00000000000E+00 0.  1.
         -2    1    1    2    0  502  0.85677914369E+01 -0.35399853612E+02 -0.34516628997E+02  0.50179222425E+02  0.00000000000E+00 0.  1.
<scales pt_clust_5="13000.00000" pt_clust_6="13000.00000" pt_clust_7="13000.00000" pt_clust_8="13000.00000" pt_clust_9="36.42193"></scales>
<clustering>
<clus scale="   36.422">  2  9  1 -1</clus>
<clus scale="   79.087">  5  6 -1 -1</clus>
<clus scale="   86.907">  2  5  1 -1</clus>
<clus scale="  102.013">  7  8 -1 -1</clus>
<clus scale="   36.422">  2  5  1 -1</clus>
</clustering>
</event>
<event>
 9    2  0.6175212E-005  0.1086721E+03  0.7546771E-02  0.1265366E+00
         21   -1    0    0  501  502  0.00000000000E+00  0.00000000000E+00  0.45784373542E+02  0.45784373542E+02  0.00000000000E+00 0. -1.
          2   -1    0    0  502    0 -0.00000000000E+00 -0.00000000000E+00 -0.45604278510E+03  0.45604278510E+03  0.00000000000E+00 0. -1.
         23    2    1    2    0    0 -0.10887135682E+02  0.67382279617E+02 -0.32369064645E+03  0.34181894665E+03  0.86056123286E+02 0.  0.
         24    2    1    2    0    0  0.28656383594E+02 -0.54725600682E+02 -0.40083733015E+02  0.10865937625E+03  0.79900404906E+02 0.  0.
        -11    1    4    4    0    0  0.26856855989E+02 -0.62477431111E+02 -0.57792225369E+02  0.89244951818E+02  0.00000000000E+00 0.  1.
         12    1    4    4    0    0  0.17995276052E+01  0.77518304298E+01  0.17708492354E+02  0.19414424433E+02  0.00000000000E+00 0. -1.
        -13    1    3    3    0    0  0.34244137025E+02  0.17354715688E+02 -0.76250482299E+02  0.85369685065E+02  0.00000000000E+00 0. -1.
         13    1    3    3    0    0 -0.45131272707E+02  0.50027563930E+02 -0.24744016415E+03  0.25644926158E+03  0.00000000000E+00 0.  1.
          1    1    1    2  501    0 -0.17769247912E+02 -0.12656678936E+02 -0.46484032092E+02  0.51348835747E+02  0.00000000000E+00 0. -1.
<scales pt_clust_5="13000.00000" pt_clust_6="13000.00000" pt_clust_7="13000.00000" pt_clust_8="13000.00000" pt_clust_9="21.81601"></scales>
<clustering>
<clus scale="   21.816">  1  9  2 -1</clus>
<clus scale="   79.900">  5  6 -1 -1</clus>
<clus scale="   86.056">  7  8 -1 -1</clus>
<clus scale="  103.866">  1  5  2 -1</clus>
<clus scale="   21.816">  1  5  2 -1</clus>
</clustering>
</event>
<event>
 9    2  0.6175212E-005  0.2633639E+03  0.7546771E-02  0.1115909E+00
         21   -1    0    0  501  502  0.00000000000E+00  0.00000000000E+00  0.11835356636E+03  0.11835356636E+03  0.00000000000E+00 0. -1.
          2   -1    0    0  502    0 -0.00000000000E+00 -0.00000000000E+00 -0.13102149228E+04  0.13102149228E+04  0.00000000000E+00 0. -1.
         24    2    1    2    0    0 -0.67080684001E+02  0.16980297190E+03 -0.49130616990E+03  0.53054077673E+03  0.82212503667E+02 0.  0.
         23    2    1    2    0    0  0.27352379303E+03 -0.20183382437E+03 -0.46366393212E+03  0.58217616630E+03  0.91611618498E+02 0.  0.
        -13    1    3    3    0    0  0.18125528242E+02  0.48386293254E+02 -0.11610563604E+03  0.12708377894E+03  0.00000000000E+00 0.  1.
         14    1    3    3    0    0 -0.85206212243E+02  0.12141667864E+03 -0.37520053387E+03  0.40345699780E+03  0.00000000000E+00 0. -1.
        -13    1    4    4    0    0  0.95936055222E+02 -0.24547094958E+02 -0.16101514006E+03  0.18902952650E+03  0.00000000000E+00 0.  1.
         13    1    4    4    0    0  0.17758773781E+03 -0.17728672941E+03 -0.30264879206E+03  0.39314663979E+03  0.00000000000E+00 0. -1.
          1    1    1    2  501    0 -0.20644310903E+03  0.32030852472E+02 -0.23689125445E+03  0.31585154616E+03  0.00000000000E+00 0. -1.
<scales pt_clust_5="13000.00000" pt_clust_6="13000.00000" pt_clust_7="13000.00000" pt_clust_8="13000.00000" pt_clust_9="246.91671"></scales>
<clustering>
<clus scale="   82.213">  5  6 -1 -1</clus>
<clus scale="   91.612">  7  8 -1 -1</clus>
<clus scale="  200.229">  2  5  1 -1</clus>
<clus scale="  246.917">  1  9  2 -1</clus>
<clus scale="  246.917">  1  5  2 -1</clus>
</clustering>
</event>
<event>
 9    2  0.6175212E-005  0.9178915E+02  0.7546771E-02  0.1306047E+00
         21   -1    0    0  501  502  0.00000000000E+00  0.00000000000E+00  0.12362849777E+03  0.12362849777E+03  0.00000000000E+00 0. -1.
          2   -1    0    0  502    0 -0.00000000000E+00 -0.00000000000E+00 -0.26543814484E+03  0.26543814484E+03  0.00000000000E+00 0. -1.
         24    2    1    2    0    0 -0.90407192610E+01  0.75265257032E+01 -0.20766382620E+03  0.22267677389E+03  0.79512877743E+02 0.  0.
         23    2    1    2    0    0 -0.18701904094E+02 -0.63548965892E+01 -0.15688046795E+01  0.93472898050E+02  0.91348648563E+02 0.  0.
        -11    1    3    3    0    0 -0.74261937443E+01  0.24393385397E+02 -0.15653290044E+02  0.29920078440E+02  0.00000000000E+00 0.  1.
         12    1    3    3    0    0 -0.16145255167E+01 -0.16866859693E+02 -0.19201053615E+03  0.19275669545E+03  0.00000000000E+00 0. -1.
        -11    1    4    4    0    0 -0.37312560600E+02 -0.37787340386E+02 -0.13943815233E+02  0.54904829070E+02  0.00000000000E+00 0.  1.
         11    1    4    4    0    0  0.18610656506E+02  0.31432443797E+02  0.12375010553E+02  0.38568068980E+02  0.00000000000E+00 0. -1.
          1    1    1    2  501    0  0.27742623355E+02 -0.11716291141E+01  0.67422983809E+02  0.72916970666E+02  0.00000000000E+00 0. -1.
<scales pt_clust_5="13000.00000" pt_clust_6="13000.00000" pt_clust_7="13000.00000" pt_clust_8="13000.00000" pt_clust_9="27.76735"></scales>
<clustering>
<clus scale="   27.767">  1  9  2 -1</clus>
<clus scale="   79.513">  5  6 -1 -1</clus>
<clus scale="   80.019">  2  5  1 -1</clus>
<clus scale="   91.349">  7  8 -1 -1</clus>
<clus scale="   27.767">  1  5  2 -1</clus>
</clustering>
</event>
<event>
 9    2  0.6175212E-005  0.1295492E+03  0.7546771E-02  0.1229847E+00
          2   -1    0    0  502    0 -0.00000000000E+00  0.00000000000E+00  0.11560962895E+03  0.11560962895E+03  0.00000000000E+00 0. -1.
         21   -1    0    0  501  502  0.00000000000E+00 -0.00000000000E+00 -0.37170385785E+03  0.37170385785E+03  0.00000000000E+00 0. -1.
         23    2    1    2    0    0  0.54340465279E+02 -0.63612848038E+02 -0.46844893155E+02  0.13061533974E+03  0.88692966798E+02 0.  0.
         24    2    1    2    0    0 -0.85667655314E+02  0.94664542210E+02 -0.25272794909E+03  0.29476277458E+03  0.81935061522E+02 0.  0.
        -13    1    4    4    0    0 -0.51055493647E+02  0.69083548193E+02 -0.82227845255E+02  0.11891433302E+03  0.00000000000E+00 0.  1.
         14    1    4    4    0    0 -0.34612161667E+02  0.25580994016E+02 -0.17050010384E+03  0.17584844156E+03  0.00000000000E+00 0. -1.
        -13    1    3    3    0    0  0.37618940379E+02 -0.86042638836E+02 -0.34640827664E+02  0.10009249380E+03  0.00000000000E+00 0. -1.
         13    1    3    3    0    0  0.16721524900E+02  0.22429790798E+02 -0.12204065491E+02  0.30522845947E+02  0.00000000000E+00 0.  1.
          1    1    1    2  501    0  0.31327190035E+02 -0.31051694172E+02  0.43478613344E+02  0.61935372485E+02  0.00000000000E+00 0. -1.
<scales pt_clust_5="13000.00000" pt_clust_6="13000.00000" pt_clust_7="13000.00000" pt_clust_8="13000.00000" pt_clust_9="44.10898"></scales>
<clustering>
<clus scale="   44.109">  2  9  1 -1</clus>
<clus scale="   81.935">  5  6 -1 -1</clus>
<clus scale="   88.693">  7  8 -1 -1</clus>
<clus scale="  125.020">  2  5  1 -1</clus>
<clus scale="   44.109">  2  5  1 -1</clus>
</clustering>
</event>
<event>
 9    2  0.6175212E-005  0.2142616E+03  0.7546771E-02  0.1178700E+00
         21   -1    0    0  501  502  0.00000000000E+00  0.00000000000E+00  0.66095357867E+03  0.66095357867E+03  0.00000000000E+00 0. -1.
          2   -1    0    0  502    0 -0.00000000000E+00 -0.00000000000E+00 -0.17849054889E+03  0.17849054889E+03  0.00000000000E+00 0. -1.
         24    2    1    2    0    0 -0.15388781170E+02  0.10844935260E+02  0.28463917566E+02  0.88024326546E+02  0.81139757542E+02 0.  0.
         23    2    1    2    0    0  0.10630639256E+02 -0.18994889407E+03  0.51802575529E+03  0.56115609192E+03  0.10174420622E+03 0.  0.
        -11    1    3    3    0    0  0.20558734905E+02  0.23369530570E+02 -0.11171202751E+02  0.33069507266E+02  0.00000000000E+00 0.  1.
         12    1    3    3    0    0 -0.35947516074E+02 -0.12524595309E+02  0.39635120317E+02  0.54954819280E+02  0.00000000000E+00 0. -1.
        -11    1    4    4    0    0  0.28973927992E+02 -0.73372687819E+01  0.47705587803E+02  0.56295178515E+02  0.00000000000E+00 0.  1.
         11    1    4    4    0    0 -0.18343288736E+02 -0.18261162529E+03  0.47032016749E+03  0.50486091340E+03  0.00000000000E+00 0. -1.
          1    1    1    2  501    0  0.47581419143E+01  0.17910395881E+03 -0.64026643078E+02  0.19026370910E+03  0.00000000000E+00 0. -1.
<scales pt_clust_5="13000.00000" pt_clust_6="13000.00000" pt_clust_7="13000.00000" pt_clust_8="13000.00000" pt_clust_9="188.56346"></scales>
<clustering>
<clus scale="   81.140">  5  6 -1 -1</clus>
<clus scale="   83.295">  2  5  1 -1</clus>
<clus scale="  101.744">  7  8 -1 -1</clus>
<clus scale="  188.563">  1  9  2 -1</clus>
<clus scale="  188.563">  1  5  2 -1</clus>
</clustering>
</event>
<event>
 9    2  0.6175212E-005  0.1588277E+03  0.7546771E-02  0.1191789E+00
         21   -1    0    0  501  502  0.00000000000E+00  0.00000000000E+00  0.24615899780E+02  0.24615899780E+02  0.00000000000E+00 0. -1.
          4   -1    0    0  502    0 -0.00000000000E+00 -0.00000000000E+00 -0.17223781036E+04  0.17223781036E+04  0.00000000000E+00 0. -1.
         24    2    1    2    0    0 -0.10383199449E+03  0.10019538068E+03 -0.95638426410E+03  0.97052779536E+03  0.80206879782E+02 0.  0.
         23    2    1    2    0    0  0.32481713403E+02 -0.10661110362E+03 -0.34808240560E+03  0.37669952448E+03  0.91215029073E+02 0.  0.
        -11    1    3    3    0    0 -0.34918825861E+02  0.38901775373E+02 -0.14922025191E+03  0.15811184682E+03  0.00000000000E+00 0.  1.
         12    1    3    3    0    0 -0.68913168632E+02  0.61293605306E+02 -0.80716401219E+03  0.81241594854E+03  0.00000000000E+00 0. -1.
        -11    1    4    4    0    0  0.52394786366E+02 -0.23740925655E+02 -0.16530966949E+03  0.17503180287E+03  0.00000000000E+00 0.  1.
         11    1    4    4    0    0 -0.19913072963E+02 -0.82870177967E+02 -0.18277273611E+03  0.20166772160E+03  0.00000000000E+00 0. -1.
          3    1    1    2  501    0  0.71350281090E+02  0.64157229435E+01 -0.39329553407E+03  0.39976668349E+03  0.00000000000E+00 0. -1.
<scales pt_clust_5="13000.00000" pt_clust_6="13000.00000" pt_clust_7="13000.00000" pt_clust_8="13000.00000" pt_clust_9="71.63818"></scales>
<clustering>
<clus scale="   71.638">  1  9  2 -1</clus>
<clus scale="   80.207">  5  6 -1 -1</clus>
<clus scale="   91.215">  7  8 -1 -1</clus>
<clus scale="  152.772">  2  5  1 -1</clus>
<clus scale="   71.638">  1  5  2 -1</clus>
</clustering>
</event>
<event>
 9    2  0.6175212E-005  0.9669261E+02  0.7546771E-02  0.1293738E+00
          4   -1    0    0  502    0 -0.00000000000E+00  0.00000000000E+00  0.99332385983E+02  0.99332385983E+02  0.00000000000E+00 0. -1.
         21   -1    0    0  501  502  0.00000000000E+00 -0.00000000000E+00 -0.14352775136E+03  0.14352775136E+03  0.00000000000E+00 0. -1.
         24    2    1    2    0    0  0.17193215885E+02  0.22363858366E+02  0.27570457387E+02  0.89439520951E+02  0.80271719515E+02 0.  0.
         23    2    1    2    0    0  0.11261529937E+01 -0.41557749472E+02 -0.32116497434E+02  0.10571240189E+03  0.91735095486E+02 0.  0.
        -13    1    3    3    0    0 -0.18923831220E+02  0.12143586445E+02 -0.19131806153E+02  0.29522941697E+02  0.00000000000E+00 0.  1.
         14    1    3    3    0    0  0.36117047105E+02  0.10220271920E+02  0.46702263540E+02  0.59916579253E+02  0.00000000000E+00 0. -1.
        -13    1    4    4    0    0  0.15268014718E+01  0.23148112726E+02  0.13222488842E+02  0.26702068397E+02  0.00000000000E+00 0.  1.
         13    1    4    4    0    0 -0.40064847804E+00 -0.64705862198E+02 -0.45338986276E+02  0.79010333492E+02  0.00000000000E+00 0. -1.
          3    1    1    2  501    0 -0.18319368878E+02  0.19193891107E+02 -0.39649325326E+02  0.47708214500E+02  0.00000000000E+00 0. -1.
<scales pt_clust_5="13000.00000" pt_clust_6="13000.00000" pt_clust_7="13000.00000" pt_clust_8="13000.00000" pt_clust_9="26.53309"></scales>
<clustering>
<clus scale="   26.533">  2  9  1 -1</clus>
<clus scale="   80.272">  5  6 -1 -1</clus>
<clus scale="   85.893">  1  5  2 -1</clus>
<clus scale="   91.735">  7  8 -1 -1</clus>
<clus scale="   26.533">  2  5  1 -1</clus>
</clustering>
</event>
<event>
 9    2  0.6175212E-005  0.1075090E+03  0.7546771E-02  0.1267907E+00
         21   -1    0    0  501  502  0.00000000000E+00  0.00000000000E+00  0.15689028617E+03  0.15689028617E+03  0.00000000000E+00 0.  1.
          2   -1    0    0  502    0 -0.00000000000E+00 -0.00000000000E+00 -0.91199384207E+03  0.91199384207E+03  0.00000000000E+00 0. -1.
         24    2    1    2    0    0 -0.36661734998E+02  0.45734022639E+02 -0.87244594725E+03  0.87839285137E+03  0.83524767765E+02 0.  0.
         23    2    1    2    0    0  0.56734272115E+02 -0.33910220734E+02  0.56170163238E+02  0.12503327102E+03  0.90053045039E+02 0.  0.
        -13    1    3    3    0    0 -0.35065815630E+02  0.35588595351E+02 -0.20978339612E+03  0.21565071952E+03  0.00000000000E+00 0.  1.
         14    1    3    3    0    0 -0.15959193678E+01  0.10145427289E+02 -0.66266255113E+03  0.66274213185E+03  0.00000000000E+00 0. -1.
        -11    1    4    4    0    0  0.33233550503E+02 -0.62472795188E+02  0.20558331731E+02  0.73688289580E+02  0.00000000000E+00 0. -1.
         11    1    4    4    0    0  0.23500721612E+02  0.28562574454E+02  0.35611831507E+02  0.51344981439E+02  0.00000000000E+00 0.  1.
          1    1    1    2  501    0 -0.20072537118E+02 -0.11823801905E+02  0.61172228114E+02  0.65458005853E+02  0.00000000000E+00 0. -1.
<scales pt_clust_5="13000.00000" pt_clust_6="13000.00000" pt_clust_7="13000.00000" pt_clust_8="13000.00000" pt_clust_9="23.29612"></scales>
<clustering>
<clus scale="   23.296">  1  9  2 -1</clus>
<clus scale="   83.525">  5  6 -1 -1</clus>
<clus scale="   90.053">  7  8 -1 -1</clus>
<clus scale="  102.103">  2  5  1 -1</clus>
<clus scale="   23.296">  1  5  2 -1</clus>
</clustering>
</event>
<event>
 9    2  0.6175212E-005  0.1798760E+03  0.7546771E-02  0.1176671E+00
         21   -1    0    0  501  502  0.00000000000E+00  0.00000000000E+00  0.66083921642E+03  0.66083921642E+03  0.00000000000E+00 0.  1.
         -1   -1    0    0    0  501 -0.00000000000E+00 -0.00000000000E+00 -0.16430660792E+03  0.16430660792E+03  0.00000000000E+00 0.  1.
         24    2    1    2    0    0 -0.92531481185E+01  0.12244338736E+03 -0.52192332724E+02  0.15634317502E+03  0.81493220108E+02 0.  0.
         23    2    1    2    0    0  0.15993706083E+03 -0.52789886126E+02  0.41235409719E+03  0.45396722652E+03  0.87656749777E+02 0.  0.
        -13    1    3    3    0    0 -0.16572814847E+02  0.11663731481E+03 -0.69423144726E+02  0.13674243826E+03  0.00000000000E+00 0.  1.
         14    1    3    3    0    0  0.73196667281E+01  0.58060725500E+01  0.17230812002E+02  0.19600736764E+02  0.00000000000E+00 0. -1.
        -13    1    4    4    0    0  0.10050595526E+03 -0.71358800943E+02  0.31660913798E+03  0.33975707758E+03  0.00000000000E+00 0.  1.
         13    1    4    4    0    0  0.59431105565E+02  0.18568914816E+02  0.95744959212E+02  0.11421014894E+03  0.00000000000E+00 0. -1.
         -2    1    1    2    0  502 -0.15068391271E+03 -0.69653501232E+02  0.13637084404E+03  0.21483542279E+03  0.00000000000E+00 0.  1.
<scales pt_clust_5="13000.00000" pt_clust_6="13000.00000" pt_clust_7="13000.00000" pt_clust_8="13000.00000" pt_clust_9="157.07227"></scales>
<clustering>
<clus scale="   81.493">  5  6 -1 -1</clus>
<clus scale="   87.657">  7  8 -1 -1</clus>
<clus scale="  147.374">  2  5  1 -1</clus>
<clus scale="  157.072">  1  9  2 -1</clus>
<clus scale="  157.072">  1  5  2 -1</clus>
</clustering>
</event>
<event>
 9    2  0.6175212E-005  0.1072787E+03  0.7546771E-02  0.1268368E+00
          2   -1    0    0  502    0 -0.00000000000E+00  0.00000000000E+00  0.94411722428E+03  0.94411722428E+03  0.00000000000E+00 0. -1.
         21   -1    0    0  501  502  0.00000000000E+00 -0.00000000000E+00 -0.26316104768E+02  0.26316104768E+02  0.00000000000E+00 0. -1.
         24    2    1    2    0    0 -0.63340890629E+02 -0.46100161030E+02  0.49331463571E+03  0.50667551887E+03  0.84990930904E+02 0.  0.
         23    2    1    2    0    0 -0.19437442447E+02  0.45439657615E+02  0.23070968497E+03  0.25303966560E+03  0.91430503528E+02 0.  0.
        -13    1    3    3    0    0  0.14916823090E+02 -0.27396256228E+02  0.85828837545E+02  0.91321716041E+02  0.00000000000E+00 0.  1.
         14    1    3    3    0    0 -0.78257713719E+02 -0.18703904801E+02  0.40748579817E+03  0.41535380282E+03  0.00000000000E+00 0. -1.
        -11    1    4    4    0    0 -0.22601874669E+02 -0.24591912551E+02  0.85537286256E+02  0.91827197722E+02  0.00000000000E+00 0. -1.
         11    1    4    4    0    0  0.31644322220E+01  0.70031570166E+02  0.14517239872E+03  0.16121246788E+03  0.00000000000E+00 0.  1.
          1    1    1    2  501    0  0.82778333076E+02  0.66050341462E+00  0.19377679883E+03  0.21071814458E+03  0.00000000000E+00 0. -1.
<scales pt_clust_5="13000.00000" pt_clust_6="13000.00000" pt_clust_7="13000.00000" pt_clust_8="13000.00000" pt_clust_9="82.78097"></scales>
<clustering>
<clus scale="   82.781">  2  9  1 -1</clus>
<clus scale="   84.991">  5  6 -1 -1</clus>
<clus scale="   91.431">  7  8 -1 -1</clus>
<clus scale="  101.846">  1  5  2 -1</clus>
<clus scale="   82.781">  2  5  1 -1</clus>
</clustering>
</event>
<event>
 9    2  0.6175212E-005  0.1066870E+03  0.7546771E-02  0.1270370E+00
         21   -1    0    0  501  502  0.00000000000E+00  0.00000000000E+00  0.30651058951E+03  0.30651058951E+03  0.00000000000E+00 0. -1.
          2   -1    0    0  502    0 -0.00000000000E+00 -0.00000000000E+00 -0.13646880507E+03  0.13646880507E+03  0.00000000000E+00 0. -1.
         24    2    1    2    0    0  0.49274270037E+02  0.40969882022E+02 -0.95564138350E+02  0.13776441209E+03  0.75763076630E+02 0.  0.
         23    2    1    2    0    0 -0.72178649450E+02 -0.21315229872E+02  0.16530480658E+03  0.20047134373E+03  0.84846827382E+02 0.  0.
        -11    1    3    3    0    0  0.27210420536E+02 -0.17121496385E+02 -0.13599231738E+02  0.34906900866E+02  0.00000000000E+00 0.  1.
         12    1    3    3    0    0  0.22063849501E+02  0.58091378407E+02 -0.81964906612E+02  0.10285751123E+03  0.00000000000E+00 0. -1.
        -11    1    4    4    0    0 -0.90346252236E+02 -0.10544145508E+02  0.12086440903E+03  0.15126741112E+03  0.00000000000E+00 0. -1.
         11    1    4    4    0    0  0.18167602787E+02 -0.10771084364E+02  0.44440397551E+02  0.49203932606E+02  0.00000000000E+00 0.  1.
          1    1    1    2  501    0  0.22904379413E+02 -0.19654652150E+02  0.10030111621E+03  0.10474363876E+03  0.00000000000E+00 0. -1.
<scales pt_clust_5="13000.00000" pt_clust_6="13000.00000" pt_clust_7="13000.00000" pt_clust_8="13000.00000" pt_clust_9="30.18138"></scales>
<clustering>
<clus scale="   30.181">  1  9  2 -1</clus>
<clus scale="   75.763">  5  6 -1 -1</clus>
<clus scale="   84.847">  7  8 -1 -1</clus>
<clus scale="   99.615">  2  5  1 -1</clus>
<clus scale="   30.181">  1  5  2 -1</clus>
</clustering>
</event>
<event>
 9    2  0.6175212E-005  0.9203325E+02  0.7546771E-02  0.1298721E+00
          2   -1    0    0  502    0 -0.00000000000E+00  0.00000000000E+00  0.40294275905E+03  0.40294275905E+03  0.00000000000E+00 0. -1.
         21   -1    0    0  501  502  0.00000000000E+00 -0.00000000000E+00 -0.12407519599E+03  0.12407519599E+03  0.00000000000E+00 0. -1.
         24    2    1    2    0    0  0.49576744001E+01 -0.37697974776E+02  0.32442351118E+03  0.33735123224E+03  0.84317990061E+02 0.  0.
         23    2    1    2    0    0 -0.56107829859E+02 -0.22810069570E+02 -0.26248303353E+02  0.10811706321E+03  0.85626736963E+02 0.  0.
        -13    1    3    3    0    0 -0.13871617333E+02  0.17368781342E+02  0.30609808011E+02  0.37829309791E+02  0.00000000000E+00 0.  1.
         14    1    3    3    0    0  0.18829291733E+02 -0.55066756118E+02  0.29381370317E+03  0.29952192244E+03  0.00000000000E+00 0. -1.
        -13    1    4    4    0    0  0.52794113720E+01  0.19755333595E+02 -0.26428920176E+02  0.33416062179E+02  0.00000000000E+00 0.  1.
         13    1    4    4    0    0 -0.61387241231E+02 -0.42565403165E+02  0.18061682330E+00  0.74701001031E+02  0.00000000000E+00 0. -1.
          1    1    1    2  501    0  0.51150155459E+02  0.60508044347E+02 -0.19307644763E+02  0.81549659598E+02  0.00000000000E+00 0. -1.
<scales pt_clust_5="13000.00000" pt_clust_6="13000.00000" pt_clust_7="13000.00000" pt_clust_8="13000.00000" pt_clust_9="79.23107"></scales>
<clustering>
<clus scale="   79.231">  2  9  1 -1</clus>
<clus scale="   84.318">  5  6 -1 -1</clus>
<clus scale="   85.627">  7  8 -1 -1</clus>
<clus scale="   90.817">  1  5  2 -1</clus>
<clus scale="   79.231">  2  5  1 -1</clus>
</clustering>
</event>
<event>
 9    2  0.6175212E-005  0.9768701E+02  0.7546771E-02  0.1291385E+00
         21   -1    0    0  501  502  0.00000000000E+00  0.00000000000E+00  0.11720309436E+02  0.11720309436E+02  0.00000000000E+00 0.  1.
          2   -1    0    0  502    0 -0.00000000000E+00 -0.00000000000E+00 -0.14567987130E+04  0.14567987130E+04  0.00000000000E+00 0. -1.
         24    2    1    2    0    0 -0.25586191416E+02  0.16938794994E+02 -0.10386754693E+04  0.10422478290E+04  0.80574378438E+02 0.  0.
         23    2    1    2    0    0  0.24293975294E+02 -0.40410240426E+02 -0.30012634221E+03  0.31742592445E+03  0.91979407786E+02 0.  0.
        -11    1    3    3    0    0  0.24246014079E+02  0.45469452125E+01 -0.14382406457E+03  0.14592431414E+03  0.00000000000E+00 0.  1.
         12    1    3    3    0    0 -0.49832205496E+02  0.12391849782E+02 -0.89485140474E+03  0.89632351481E+03  0.00000000000E+00 0. -1.
        -11    1    4    4    0    0  0.41104163009E+02  0.14577879937E+02 -0.16295879288E+03  0.16869390913E+03  0.00000000000E+00 0. -1.
         11    1    4    4    0    0 -0.16810187715E+02 -0.54988120362E+02 -0.13716754933E+03  0.14873201532E+03  0.00000000000E+00 0.  1.
          1    1    1    2  501    0  0.12922161220E+01  0.23471445432E+02 -0.10627659207E+03  0.10884526905E+03  0.00000000000E+00 0. -1.
<scales pt_clust_5="13000.00000" pt_clust_6="13000.00000" pt_clust_7="13000.00000" pt_clust_8="13000.00000" pt_clust_9="23.50699"></scales>
<clustering>
<clus scale="   23.507">  1  9  2 -1</clus>
<clus scale="   80.574">  5  6 -1 -1</clus>
<clus scale="   87.033">  2  5  1 -1</clus>
<clus scale="   91.979">  7  8 -1 -1</clus>
<clus scale="   23.507">  1  5  2 -1</clus>
</clustering>
</event>
<event>
 9    2  0.6175212E-005  0.3832382E+03  0.7546771E-02  0.1049983E+00
          2   -1    0    0  502    0 -0.00000000000E+00  0.00000000000E+00  0.11651865082E+04  0.11651865082E+04  0.00000000000E+00 0. -1.
         21   -1    0    0  501  502  0.00000000000E+00 -0.00000000000E+00 -0.26955339871E+03  0.26955339871E+03  0.00000000000E+00 0.  1.
         24    2    1    2    0    0  0.61035641658E+02 -0.37438998844E+03  0.76913625556E+03  0.86134947122E+03  0.80368644099E+02 0.  0.
         23    2    1    2    0    0 -0.17870848485E+02  0.35753027538E+03  0.24683217986E+03  0.44444067818E+03  0.91946323258E+02 0.  0.
        -11    1    3    3    0    0  0.24235435049E+02 -0.21311577884E+02  0.76891128833E+02  0.83389359976E+02  0.00000000000E+00 0.  1.
         12    1    3    3    0    0  0.36800206609E+02 -0.35307841056E+03  0.69224512673E+03  0.77796011125E+03  0.00000000000E+00 0. -1.
        -13    1    4    4    0    0  0.20892138067E+02  0.22296194827E+03  0.11341633680E+03  0.25102146773E+03  0.00000000000E+00 0. -1.
         13    1    4    4    0    0 -0.38762986552E+02  0.13456832712E+03  0.13341584307E+03  0.19341921045E+03  0.00000000000E+00 0.  1.
          1    1    1    2  501    0 -0.43164793173E+02  0.16859713062E+02 -0.12033532594E+03  0.12894975751E+03  0.00000000000E+00 0. -1.
<scales pt_clust_5="13000.00000" pt_clust_6="13000.00000" pt_clust_7="13000.00000" pt_clust_8="13000.00000" pt_clust_9="46.34058"></scales>
<clustering>
<clus scale="   46.341">  2  9  1 -1</clus>
<clus scale="   80.369">  5  6 -1 -1</clus>
<clus scale="   91.946">  7  8 -1 -1</clus>
<clus scale="  380.627">  1  5  2 -1</clus>
<clus scale="   46.341">  2  5  1 -1</clus>
</clustering>
</event>
<event>
 9    2  0.6175212E-005  0.1937773E+03  0.7546771E-02  0.1156577E+00
          2   -1    0    0  502    0 -0.00000000000E+00  0.00000000000E+00  0.90555258399E+03  0.90555258399E+03  0.00000000000E+00 0. -1.
         21   -1    0    0  501  502  0.00000000000E+00 -0.00000000000E+00 -0.62657456210E+02  0.62657456210E+02  0.00000000000E+00 0.  1.
         24    2    1    2    0    0  0.10189181608E+03 -0.14292736964E+03  0.64859450554E+03  0.67660695535E+03  0.79447871132E+02 0.  0.
         23    2    1    2    0    0 -0.99570151342E+02  0.11285167824E+03  0.12803290765E+03  0.21879273300E+03  0.93958066454E+02 0.  0.
        -13    1    3    3    0    0  0.74000678938E+01 -0.23797141526E+02  0.27248891063E+02  0.36926508281E+02  0.00000000000E+00 0.  1.
         14    1    3    3    0    0  0.94491748186E+02 -0.11913022812E+03  0.62134561448E+03  0.63968044707E+03  0.00000000000E+00 0. -1.
        -13    1    4    4    0    0 -0.18642062131E+02  0.18780764024E+02 -0.14204227117E+02  0.30033375531E+02  0.00000000000E+00 0.  1.
         13    1    4    4    0    0 -0.80928089211E+02  0.94070914212E+02  0.14223713477E+03  0.18875935747E+03  0.00000000000E+00 0. -1.
          1    1    1    2  501    0 -0.23216647387E+01  0.30075691408E+02  0.66267714590E+02  0.72810351859E+02  0.00000000000E+00 0. -1.
<scales pt_clust_5="13000.00000" pt_clust_6="13000.00000" pt_clust_7="13000.00000" pt_clust_8="13000.00000" pt_clust_9="30.16518"></scales>
<clustering>
<clus scale="   30.165">  2  9  1 -1</clus>
<clus scale="   79.448">  5  6 -1 -1</clus>
<clus scale="   93.958">  7  8 -1 -1</clus>
<clus scale="  187.172">  1  5  2 -1</clus>
<clus scale="   30.165">  2  5  1 -1</clus>
</clustering>
</event>
<event>
 9    2  0.6175212E-005  0.1012696E+03  0.7546771E-02  0.1283487E+00
          2   -1    0    0  502    0 -0.00000000000E+00  0.00000000000E+00  0.10166725331E+04  0.10166725331E+04  0.00000000000E+00 0. -1.
         21   -1    0    0  501  502  0.00000000000E+00 -0.00000000000E+00 -0.98394268543E+02  0.98394268543E+02  0.00000000000E+00 0. -1.
         24    2    1    2    0    0 -0.49546876872E+02  0.25062428857E+02  0.82358959856E+03  0.82932632132E+03  0.79995637559E+02 0.  0.
         23    2    1    2    0    0 -0.47000696848E+02 -0.13949362501E+02  0.14324625954E+03  0.17709990719E+03  0.91876199513E+02 0.  0.
        -11    1    3    3    0    0  0.94174232528E-01  0.20637482928E+02  0.49444660104E+02  0.53578810953E+02  0.00000000000E+00 0.  1.
         12    1    3    3    0    0 -0.49641051104E+02  0.44249459290E+01  0.77414493846E+03  0.77574751037E+03  0.00000000000E+00 0. -1.
        -11    1    4    4    0    0 -0.20821209691E+02  0.39452546133E+02  0.58549636539E+02  0.73607649794E+02  0.00000000000E+00 0.  1.
         11    1    4    4    0    0 -0.26179487157E+02 -0.53401908634E+02  0.84696623004E+02  0.10349225740E+03  0.00000000000E+00 0. -1.
          1    1    1    2  501    0  0.96547573720E+02 -0.11113066356E+02 -0.48557593558E+02  0.10864057312E+03  0.00000000000E+00 0. -1.
<scales pt_clust_5="13000.00000" pt_clust_6="13000.00000" pt_clust_7="13000.00000" pt_clust_8="13000.00000" pt_clust_9="97.18505"></scales>
<clustering>
<clus scale="   79.996">  5  6 -1 -1</clus>
<clus scale="   91.876">  7  8 -1 -1</clus>
<clus scale="   97.185">  2  9  1 -1</clus>
<clus scale="   90.629">  1  5  2 -1</clus>
<clus scale="   97.185">  2  5  1 -1</clus>
</clustering>
</event>
<event>
 9    2  0.6175212E-005  0.1399403E+03  0.7546771E-02  0.1215538E+00
          2   -1    0    0  502    0 -0.00000000000E+00  0.00000000000E+00  0.39293973507E+03  0.39293973507E+03  0.00000000000E+00 0. -1.
         21   -1    0    0  501  502  0.00000000000E+00 -0.00000000000E+00 -0.76225387552E+02  0.76225387552E+02  0.00000000000E+00 0.  1.
         23    2    1    2    0    0 -0.29200998719E+02  0.10628139998E+03  0.26227899896E+03  0.29886381236E+03  0.91547095691E+02 0.  0.
         24    2    1    2    0    0  0.51416135511E+02 -0.83970007654E+02  0.53682397553E+02  0.13880722406E+03  0.81798927065E+02 0.  0.
        -13    1    4    4    0    0  0.33552239536E+02  0.52397653037E+01  0.16511082992E+01  0.33999030529E+02  0.00000000000E+00 0.  1.
         14    1    4    4    0    0  0.17863895975E+02 -0.89209772958E+02  0.52031289254E+02  0.10480819353E+03  0.00000000000E+00 0. -1.
        -13    1    3    3    0    0  0.21107750002E+02  0.21609420760E+02  0.17260699202E+02  0.34791319502E+02  0.00000000000E+00 0.  1.
         13    1    3    3    0    0 -0.50308748721E+02  0.84671979222E+02  0.24501829976E+03  0.26407249285E+03  0.00000000000E+00 0. -1.
          1    1    1    2  501    0 -0.22215136792E+02 -0.22311392328E+02  0.75295099649E+00  0.31494086199E+02  0.00000000000E+00 0. -1.
<scales pt_clust_5="13000.00000" pt_clust_6="13000.00000" pt_clust_7="13000.00000" pt_clust_8="13000.00000" pt_clust_9="31.48508"></scales>
<clustering>
<clus scale="   31.485">  2  9  1 -1</clus>
<clus scale="   81.799">  5  6 -1 -1</clus>
<clus scale="   91.547">  7  8 -1 -1</clus>
<clus scale="  133.767">  2  5  1 -1</clus>
<clus scale="   31.485">  2  5  1 -1</clus>
</clustering>
</event>
<event>
 9    2  0.6175212E-005  0.1029183E+03  0.7546771E-02  0.1278911E+00
          2   -1    0    0  502    0 -0.00000000000E+00  0.00000000000E+00  0.11383640591E+04  0.11383640591E+04  0.00000000000E+00 0. -1.
         21   -1    0    0  501  502  0.00000000000E+00 -0.00000000000E+00 -0.29587538456E+02  0.29587538456E+02  0.00000000000E+00 0. -1.
         24    2    1    2    0    0  0.35994951288E+02  0.23376580817E+02  0.61038682410E+03  0.61721193208E+03  0.80847962337E+02 0.  0.
         23    2    1    2    0    0 -0.66334709263E+02 -0.57951510024E+02  0.13728972009E+03  0.18672164444E+03  0.90872625660E+02 0.  0.
        -13    1    3    3    0    0 -0.23058826884E+02  0.39093383165E-01  0.87641843140E+02  0.90624520382E+02  0.00000000000E+00 0.  1.
         14    1    3    3    0    0  0.59053778171E+02  0.23337487434E+02  0.52274498096E+03  0.52658741170E+03  0.00000000000E+00 0. -1.
        -11    1    4    4    0    0 -0.71761586878E+02 -0.24494325316E+02  0.44465252365E+02  0.87902536891E+02  0.00000000000E+00 0.  1.
         11    1    4    4    0    0  0.54268776149E+01 -0.33457184708E+02  0.92824467726E+02  0.98819107554E+02  0.00000000000E+00 0. -1.
          1    1    1    2  501    0  0.30339757975E+02  0.34574929207E+02  0.36109997648E+03  0.36401802106E+03  0.00000000000E+00 0. -1.
<scales pt_clust_5="13000.00000" pt_clust_6="13000.00000" pt_clust_7="13000.00000" pt_clust_8="13000.00000" pt_clust_9="45.99923"></scales>
<clustering>
<clus scale="   45.999">  2  9  1 -1</clus>
<clus scale="   80.848">  5  6 -1 -1</clus>
<clus scale="   90.873">  7  8 -1 -1</clus>
<clus scale="   94.185">  1  5  2 -1</clus>
<clus scale="   45.999">  2  5  1 -1</clus>
</clustering>
</event>
<event>
 9    2  0.6175212E-005  0.1948194E+03  0.7546771E-02  0.1180193E+00
          2   -1    0    0  502    0 -0.00000000000E+00  0.00000000000E+00  0.92279460591E+03  0.92279460591E+03  0.00000000000E+00 0. -1.
         21   -1    0    0  501  502  0.00000000000E+00 -0.00000000000E+00 -0.74239060427E+02  0.74239060427E+02  0.00000000000E+00 0. -1.
         24    2    1    2    0    0 -0.67226347485E+02  0.29209574837E+02  0.17932049627E+03  0.20889140723E+03  0.78148567327E+02 0.  0.
         23    2    1    2    0    0  0.21926342243E+03 -0.51469601843E+02  0.51885889163E+03  0.57314512021E+03  0.92494383997E+02 0.  0.
        -13    1    3    3    0    0 -0.73699825604E+01 -0.19827769160E+02  0.81315214291E+02  0.84021551687E+02  0.00000000000E+00 0.  1.
         14    1    3    3    0    0 -0.59856364925E+02  0.49037343997E+02  0.98005281976E+02  0.12486985554E+03  0.00000000000E+00 0. -1.
        -13    1    4    4    0    0  0.17445723901E+03 -0.72660856198E+02  0.35794894663E+03  0.40477447629E+03  0.00000000000E+00 0.  1.
         13    1    4    4    0    0  0.44806183427E+02  0.21191254355E+02  0.16090994500E+03  0.16837064392E+03  0.00000000000E+00 0. -1.
          1    1    1    2  501    0 -0.15203707495E+03  0.22260027006E+02  0.15037615759E+03  0.21499713889E+03  0.00000000000E+00 0. -1.
<scales pt_clust_5="13000.00000" pt_clust_6="13000.00000" pt_clust_7="13000.00000" pt_clust_8="13000.00000" pt_clust_9="171.46244"></scales>
<clustering>
<clus scale="   78.149">  5  6 -1 -1</clus>
<clus scale="   92.494">  7  8 -1 -1</clus>
<clus scale="  107.144">  1  5  2 -1</clus>
<clus scale="  171.462">  2  9  1 -1</clus>
<clus scale="  171.462">  2  5  1 -1</clus>
</clustering>
</event>
<event>
 9    2  0.6175212E-005  0.1248547E+03  0.7546771E-02  0.1236556E+00
         21   -1    0    0  501  502  0.00000000000E+00  0.00000000000E+00  0.48321933856E+02  0.48321933856E+02  0.00000000000E+00 0.  1.
         -1   -1    0    0    0  501 -0.00000000000E+00 -0.00000000000E+00 -0.67640764800E+03  0.67640764800E+03  0.00000000000E+00 0.  1.
         24    2    1    2    0    0 -0.45313335088E+01  0.11399386045E+03 -0.31336315704E+03  0.34345229838E+03  0.82145479887E+02 0.  0.
         23    2    1    2    0    0  0.65307676359E+02 -0.42536396352E+02 -0.13396995303E+03  0.17763191303E+03  0.86779667003E+02 0.  0.
        -13    1    3    3    0    0 -0.66449948184E+01  0.69343091237E+02 -0.27759684596E+03  0.28620382447E+03  0.00000000000E+00 0.  1.
         14    1    3    3    0    0  0.21136613096E+01  0.44650769217E+02 -0.35766311085E+02  0.57248473905E+02  0.00000000000E+00 0. -1.
        -13    1    4    4    0    0  0.86487781486E+02 -0.38285205094E+02 -0.11485174194E+03  0.14878446122E+03  0.00000000000E+00 0. -1.
         13    1    4    4    0    0 -0.21180105126E+02 -0.42511912587E+01 -0.19118211092E+02  0.28847451805E+02  0.00000000000E+00 0.  1.
         -2    1    1    2    0  502 -0.60776342851E+02 -0.71457464102E+02 -0.18075260407E+03  0.20364537045E+03  0.00000000000E+00 0.  1.
<scales pt_clust_5="13000.00000" pt_clust_6="13000.00000" pt_clust_7="13000.00000" pt_clust_8="13000.00000" pt_clust_9="93.80801"></scales>
<clustering>
<clus scale="   82.145">  5  6 -1 -1</clus>
<clus scale="   86.780">  7  8 -1 -1</clus>
<clus scale="   93.808">  1  9  2 -1</clus>
<clus scale="  121.679">  2  5  1 -1</clus>
<clus scale="   93.808">  1  5  2 -1</clus>
</clustering>
</event>
<event>
 9    2  0.6175212E-005  0.9491508E+02  0.7546771E-02  0.1296438E+00
         21   -1    0    0  501  502  0.00000000000E+00  0.00000000000E+00  0.23010511698E+03  0.23010511698E+03  0.00000000000E+00 0. -1.
          2   -1    0    0  502    0 -0.00000000000E+00 -0.00000000000E+00 -0.24070357623E+03  0.24070357623E+03  0.00000000000E+00 0. -1.
         24    2    1    2    0    0 -0.31963867522E+01  0.40310107946E+02 -0.18625738021E+03  0.20642972949E+03  0.79286189500E+02 0.  0.
         23    2    1    2    0    0  0.49728321291E+02  0.28667301783E+02  0.58364773923E+02  0.12056999003E+03  0.88520932721E+02 0.  0.
        -11    1    3    3    0    0  0.91630034792E+01 -0.22863403128E+02 -0.51579179205E+02  0.57158617572E+02  0.00000000000E+00 0.  1.
         12    1    3    3    0    0 -0.12359390231E+02  0.63173511075E+02 -0.13467820100E+03  0.14927111192E+03  0.00000000000E+00 0. -1.
        -11    1    4    4    0    0 -0.19762044764E+02  0.23317827641E+02  0.36321580268E+02  0.47471219621E+02  0.00000000000E+00 0.  1.
         11    1    4    4    0    0  0.69490366056E+02  0.53494741425E+01  0.22043193655E+02  0.73098770405E+02  0.00000000000E+00 0. -1.
          1    1    1    2  501    0 -0.46531934539E+02 -0.68977409730E+02  0.11729414704E+03  0.14380897369E+03  0.00000000000E+00 0. -1.
<scales pt_clust_5="13000.00000" pt_clust_6="13000.00000" pt_clust_7="13000.00000" pt_clust_8="13000.00000" pt_clust_9="83.20519"></scales>
<clustering>
<clus scale="   79.286">  5  6 -1 -1</clus>
<clus scale="   83.205">  1  9  2 -1</clus>
<clus scale="   86.367">  2  5  1 -1</clus>
<clus scale="   88.521">  7  8 -1 -1</clus>
<clus scale="   83.205">  1  5  2 -1</clus>
</clustering>
</event>
<event>
 9    2  0.6175212E-005  0.1054950E+03  0.7546771E-02  0.1275180E+00
         -3   -1    0    0    0  501 -0.00000000000E+00  0.00000000000E+00  0.12234577751E+03  0.12234577751E+03  0.00000000000E+00 0.  1.
         21   -1    0    0  501  502  0.00000000000E+00 -0.00000000000E+00 -0.25782360447E+03  0.25782360447E+03  0.00000000000E+00 0. -1.
         24    2    1    2    0    0  0.13111811738E+02 -0.50108300837E+02  0.12541004754E+02  0.96928548684E+02  0.80963604971E+02 0.  0.
         23    2    1    2    0    0 -0.30515644298E+01  0.26480245723E+02 -0.20145102414E+03  0.22395767590E+03  0.94148871517E+02 0.  0.
        -11    1    3    3    0    0 -0.30508191214E+02 -0.26800085134E+02  0.22579548696E+02  0.46463214629E+02  0.00000000000E+00 0.  1.
         12    1    3    3    0    0  0.43620002952E+02 -0.23308215702E+02 -0.10038543942E+02  0.50465334055E+02  0.00000000000E+00 0. -1.
        -11    1    4    4    0    0  0.14904780766E+02 -0.26314832091E+02 -0.26083012993E+02  0.39936780597E+02  0.00000000000E+00 0.  1.
         11    1    4    4    0    0 -0.17956345196E+02  0.52795077814E+02 -0.17536801114E+03  0.18402089530E+03  0.00000000000E+00 0. -1.
         -4    1    1    2    0  502 -0.10060247308E+02  0.23628055114E+02  0.53432192423E+02  0.59283157402E+02  0.00000000000E+00 0.  1.
<scales pt_clust_5="13000.00000" pt_clust_6="13000.00000" pt_clust_7="13000.00000" pt_clust_8="13000.00000" pt_clust_9="25.68062"></scales>
<clustering>
<clus scale="   25.681">  2  9  1 -1</clus>
<clus scale="   80.964">  5  6 -1 -1</clus>
<clus scale="   93.916">  1  5  2 -1</clus>
<clus scale="   94.149">  7  8 -1 -1</clus>
<clus scale="   25.681">  2  5  1 -1</clus>
</clustering>
</event>
<event>
 9    2  0.6175212E-005  0.9524308E+02  0.7546771E-02  0.1296115E+00
         21   -1    0    0  501  502  0.00000000000E+00  0.00000000000E+00  0.39714112167E+02  0.39714112167E+02  0.00000000000E+00 0.  1.
          2   -1    0    0  502    0 -0.00000000000E+00 -0.00000000000E+00 -0.49442531614E+03  0.49442531614E+03  0.00000000000E+00 0. -1.
         24    2    1    2    0    0  0.63621250421E+01 -0.27781931504E+02 -0.17759342195E+03  0.19672834434E+03  0.79688804712E+02 0.  0.
         23    2    1    2    0    0 -0.45151553822E+02  0.28604162956E+02 -0.67558981662E+02  0.12429096136E+03  0.89594453626E+02 0.  0.
        -13    1    3    3    0    0 -0.33913204369E+02 -0.28152570284E+01 -0.48792836404E+02  0.59487578426E+02  0.00000000000E+00 0.  1.
         14    1    3    3    0    0  0.40275329411E+02 -0.24966674476E+02 -0.12880058554E+03  0.13724076592E+03  0.00000000000E+00 0. -1.
        -11    1    4    4    0    0 -0.20593873889E+02 -0.77564773273E+01 -0.76422537706E+02  0.79527824387E+02  0.00000000000E+00 0. -1.
         11    1    4    4    0    0 -0.24557679933E+02  0.36360640284E+02  0.88635560443E+01  0.44763136969E+02  0.00000000000E+00 0.  1.
          1    1    1    2  501    0  0.38789428780E+02 -0.82223145220E+00 -0.20955880036E+03  0.21312012260E+03  0.00000000000E+00 0. -1.
<scales pt_clust_5="13000.00000" pt_clust_6="13000.00000" pt_clust_7="13000.00000" pt_clust_8="13000.00000" pt_clust_9="38.79816"></scales>
<clustering>
<clus scale="   38.798">  1  9  2 -1</clus>
<clus scale="   79.689">  5  6 -1 -1</clus>
<clus scale="   85.991">  2  5  1 -1</clus>
<clus scale="   89.594">  7  8 -1 -1</clus>
<clus scale="   38.798">  1  5  2 -1</clus>
</clustering>
</event>
<event>
 9    2  0.6175212E-005  0.9807100E+02  0.7546771E-02  0.1288219E+00
         21   -1    0    0  501  502  0.00000000000E+00  0.00000000000E+00  0.75719631451E+02  0.75719631451E+02  0.00000000000E+00 0.  1.
          4   -1    0    0  502    0 -0.00000000000E+00 -0.00000000000E+00 -0.39166598129E+03  0.39166598129E+03  0.00000000000E+00 0. -1.
         24    2    1    2    0    0 -0.15041239555E+02  0.30131781091E+02 -0.24250160902E+03  0.25783273972E+03  0.80848798216E+02 0.  0.
         23    2    1    2    0    0  0.52487392907E+02 -0.82068744340E+02 -0.41324742594E+02  0.13791938338E+03  0.88452341688E+02 0.  0.
        -13    1    3    3    0    0 -0.11769946083E+02 -0.25840403884E+02 -0.51948414861E+02  0.59202161364E+02  0.00000000000E+00 0.  1.
         14    1    3    3    0    0 -0.32712934721E+01  0.55972184975E+02 -0.19055319416E+03  0.19863057835E+03  0.00000000000E+00 0. -1.
        -11    1    4    4    0    0  0.72439092004E+02 -0.35588631196E+02 -0.20911410686E+02  0.83374215544E+02  0.00000000000E+00 0.  1.
         11    1    4    4    0    0 -0.19951699097E+02 -0.46480113144E+02 -0.20413331908E+02  0.54545167837E+02  0.00000000000E+00 0. -1.
          3    1    1    2  501    0 -0.37446153351E+02  0.51936963249E+02 -0.32119998220E+02  0.71633489640E+02  0.00000000000E+00 0. -1.
<scales pt_clust_5="13000.00000" pt_clust_6="13000.00000" pt_clust_7="13000.00000" pt_clust_8="13000.00000" pt_clust_9="64.02861"></scales>
<clustering>
<clus scale="   64.029">  1  9  2 -1</clus>
<clus scale="   80.849">  5  6 -1 -1</clus>
<clus scale="   88.452">  7  8 -1 -1</clus>
<clus scale="   91.272">  2  5  1 -1</clus>
<clus scale="   64.029">  1  5  2 -1</clus>
</clustering>
</event>
<event>
 9    2  0.6175212E-005  0.9939271E+02  0.7546771E-02  0.1288847E+00
         21   -1    0    0  501  502  0.00000000000E+00  0.00000000000E+00  0.64476491834E+02  0.64476491834E+02  0.00000000000E+00 0. -1.
          2   -1    0    0  502    0 -0.00000000000E+00 -0.00000000000E+00 -0.20348245142E+03  0.20348245142E+03  0.00000000000E+00 0. -1.
         24    2    1    2    0    0 -0.19643065580E+02  0.11799713656E+02 -0.79438390337E+02  0.11541267904E+03  0.80526674810E+02 0.  0.
         23    2    1    2    0    0  0.28000342471E+02 -0.41302070621E+02 -0.59247643566E+02  0.12188137393E+03  0.94100509179E+02 0.  0.
        -13    1    3    3    0    0  0.11727031110E+02 -0.29251685921E+02 -0.36592887017E+02  0.48293102698E+02  0.00000000000E+00 0.  1.
         14    1    3    3    0    0 -0.31370096690E+02  0.41051399577E+02 -0.42845503320E+02  0.67119576342E+02  0.00000000000E+00 0. -1.
        -13    1    4    4    0    0  0.49340473166E+02 -0.34652875712E+02 -0.73732831395E+02  0.95246178469E+02  0.00000000000E+00 0. -1.
         13    1    4    4    0    0 -0.21340130695E+02 -0.66491949088E+01  0.14485187829E+02  0.26635195465E+02  0.00000000000E+00 0.  1.
          1    1    1    2  501    0 -0.83572768908E+01  0.29502356965E+02 -0.31992568310E+00  0.30664890281E+02  0.00000000000E+00 0. -1.
<scales pt_clust_5="13000.00000" pt_clust_6="13000.00000" pt_clust_7="13000.00000" pt_clust_8="13000.00000" pt_clust_9="30.66322"></scales>
<clustering>
<clus scale="   30.663">  1  9  2 -1</clus>
<clus scale="   80.527">  5  6 -1 -1</clus>
<clus scale="   86.652">  2  5  1 -1</clus>
<clus scale="   94.101">  7  8 -1 -1</clus>
<clus scale="   30.663">  1  5  2 -1</clus>
</clustering>
</event>
<event>
 9    2  0.6175212E-005  0.1155056E+03  0.7546771E-02  0.1255678E+00
         -3   -1    0    0    0  501 -0.00000000000E+00  0.00000000000E+00  0.39585306557E+03  0.39585306557E+03  0.00000000000E+00 0.  1.
         21   -1    0    0  501  502  0.00000000000E+00 -0.00000000000E+00 -0.74663903558E+02  0.74663903558E+02  0.00000000000E+00 0. -1.
         23    2    1    2    0    0  0.17111865833E+02  0.75876178474E+02  0.15979822336E+03  0.20134228595E+03  0.94621527717E+02 0.  0.
         24    2    1    2    0    0 -0.85209086512E+02 -0.89161380285E+01  0.70672767048E+02  0.13745275965E+03  0.80984783704E+02 0.  0.
        -13    1    4    4    0    0 -0.42545248363E+01 -0.20855614577E+02  0.48049264164E+02  0.52552729974E+02  0.00000000000E+00 0.  1.
         14    1    4    4    0    0 -0.80954561676E+02  0.11939476548E+02  0.22623502884E+02  0.84900029677E+02  0.00000000000E+00 0. -1.
        -13    1    3    3    0    0  0.53333698894E+02  0.30813432790E+02  0.10471401995E+03  0.12148653033E+03  0.00000000000E+00 0. -1.
         13    1    3    3    0    0 -0.36221833061E+02  0.45062745683E+02  0.55084203411E+02  0.79855755611E+02  0.00000000000E+00 0.  1.
         -4    1    1    2    0  502  0.68097220679E+02 -0.66960040445E+02  0.90718171601E+02  0.13172192353E+03  0.00000000000E+00 0.  1.
<scales pt_clust_5="13000.00000" pt_clust_6="13000.00000" pt_clust_7="13000.00000" pt_clust_8="13000.00000" pt_clust_9="95.50334"></scales>
<clustering>
<clus scale="   80.985">  5  6 -1 -1</clus>
<clus scale="   94.622">  7  8 -1 -1</clus>
<clus scale="   95.503">  2  9  1 -1</clus>
<clus scale="  104.627">  2  5  1 -1</clus>
<clus scale="   95.503">  2  5  1 -1</clus>
</clustering>
</event>
<event>
 9    2  0.6175212E-005  0.1241881E+03  0.7546771E-02  0.1240115E+00
         21   -1    0    0  501  502  0.00000000000E+00  0.00000000000E+00  0.71570971731E+03  0.71570971731E+03  0.00000000000E+00 0. -1.
          2   -1    0    0  502    0 -0.00000000000E+00 -0.00000000000E+00 -0.36620118442E+02  0.36620118442E+02  0.00000000000E+00 0. -1.
         23    2    1    2    0    0  0.45263899256E+02  0.88975368173E+02  0.16813452558E+03  0.21580032011E+03  0.91296893444E+02 0.  0.
         24    2    1    2    0    0  0.10796557417E+02 -0.66218030874E+02  0.31808192763E+03  0.33438916459E+03  0.78349265774E+02 0.  0.
        -11    1    4    4    0    0  0.11319142312E+02 -0.47241360830E+02  0.67900962872E+02  0.83488980798E+02  0.00000000000E+00 0.  1.
         12    1    4    4    0    0 -0.52258489517E+00 -0.18976670044E+02  0.25018096476E+03  0.25090018379E+03  0.00000000000E+00 0. -1.
        -11    1    3    3    0    0 -0.43898209321E+01  0.56507568802E+02  0.27156455412E+02  0.62847823592E+02  0.00000000000E+00 0.  1.
         11    1    3    3    0    0  0.49653720188E+02  0.32467799371E+02  0.14097807017E+03  0.15295249652E+03  0.00000000000E+00 0. -1.
          1    1    1    2  501    0 -0.56060456673E+02 -0.22757337299E+02  0.19287314566E+03  0.20214035104E+03  0.00000000000E+00 0. -1.
<scales pt_clust_5="13000.00000" pt_clust_6="13000.00000" pt_clust_7="13000.00000" pt_clust_8="13000.00000" pt_clust_9="60.50348"></scales>
<clustering>
<clus scale="   60.503">  1  9  2 -1</clus>
<clus scale="   78.349">  5  6 -1 -1</clus>
<clus scale="   91.297">  7  8 -1 -1</clus>
<clus scale="  115.005">  1  5  2 -1</clus>
<clus scale="   60.503">  1  5  2 -1</clus>
</clustering>
</event>
<event>
 9    2  0.6175212E-005  0.1482208E+03  0.7546771E-02  0.1222040E+00
         21   -1    0    0  501  502  0.00000000000E+00  0.00000000000E+00  0.32799315367E+03  0.32799315367E+03  0.00000000000E+00 0. -1.
         -3   -1    0    0    0  501 -0.00000000000E+00 -0.00000000000E+00 -0.12461388029E+03  0.12461388029E+03  0.00000000000E+00 0.  1.
         24    2    1    2    0    0 -0.51548990618E+02 -0.70063041361E+01  0.10605319822E+03  0.14452393894E+03  0.83267648838E+02 0.  0.
         23    2    1    2    0    0 -0.68537447323E+02 -0.37122218287E+02 -0.32624475605E+02  0.12572294391E+03  0.93093831375E+02 0.  0.
        -11    1    3    3    0    0 -0.34957982590E+02  0.35261823657E+02  0.73307204608E+02  0.88540403217E+02  0.00000000000E+00 0.  1.
         12    1    3    3    0    0 -0.16591008029E+02 -0.42268127794E+02  0.32745993612E+02  0.55983535724E+02  0.00000000000E+00 0. -1.
        -13    1    4    4    0    0 -0.27072493638E+02 -0.31992987911E+02 -0.61866277875E+02  0.74725548010E+02  0.00000000000E+00 0.  1.
         13    1    4    4    0    0 -0.41464953686E+02 -0.51292303760E+01  0.29241802270E+02  0.50997395898E+02  0.00000000000E+00 0. -1.
         -4    1    1    2    0  502  0.12008643794E+03  0.44128522423E+02  0.12995055077E+03  0.18236015111E+03  0.00000000000E+00 0.  1.
<scales pt_clust_5="13000.00000" pt_clust_6="13000.00000" pt_clust_7="13000.00000" pt_clust_8="13000.00000" pt_clust_9="115.33833"></scales>
<clustering>
<clus scale="   83.268">  5  6 -1 -1</clus>
<clus scale="   93.094">  7  8 -1 -1</clus>
<clus scale="   98.183">  2  5  1 -1</clus>
<clus scale="  115.338">  1  9  2 -1</clus>
<clus scale="  115.338">  1  5  2 -1</clus>
</clustering>
</event>
<event>
 9    2  0.6175212E-005  0.1151748E+03  0.7546771E-02  0.1267460E+00
          2   -1    0    0  502    0 -0.00000000000E+00  0.00000000000E+00  0.41333089248E+03  0.41333089248E+03  0.00000000000E+00 0. -1.
         21   -1    0    0  501  502  0.00000000000E+00 -0.00000000000E+00 -0.89241466365E+02  0.89241466365E+02  0.00000000000E+00 0. -1.
         24    2    1    2    0    0 -0.22147431099E+02  0.17927364159E+02  0.29753882224E+03  0.30952149829E+03  0.80388482219E+02 0.  0.
         23    2    1    2    0    0 -0.41717291779E+02 -0.40134724342E+01 -0.51839993245E+01  0.12039148916E+03  0.11274216788E+03 0.  0.
        -13    1    3    3    0    0  0.12229970635E+02  0.40395260607E+02  0.18414180256E+03  0.18891678780E+03  0.00000000000E+00 0.  1.
         14    1    3    3    0    0 -0.34377401734E+02 -0.22467896449E+02  0.11339701968E+03  0.12060471050E+03  0.00000000000E+00 0. -1.
        -13    1    4    4    0    0 -0.74967703180E+02  0.10917784986E+02  0.17107763722E+02  0.77666145319E+02  0.00000000000E+00 0. -1.
         13    1    4    4    0    0  0.33250411401E+02 -0.14931257420E+02 -0.22291763046E+02  0.42725343840E+02  0.00000000000E+00 0.  1.
          1    1    1    2  501    0  0.63864722878E+02 -0.13913891724E+02  0.31734603194E+02  0.72659371392E+02  0.00000000000E+00 0. -1.
<scales pt_clust_5="13000.00000" pt_clust_6="13000.00000" pt_clust_7="13000.00000" pt_clust_8="13000.00000" pt_clust_9="65.36283"></scales>
<clustering>
<clus scale="   65.363">  2  9  1 -1</clus>
<clus scale="   80.388">  5  6 -1 -1</clus>
<clus scale="   83.766">  1  5  2 -1</clus>
<clus scale="  112.742">  7  8 -1 -1</clus>
<clus scale="   65.363">  2  5  1 -1</clus>
</clustering>
</event>
<event>
 9    2  0.6175212E-005  0.1497860E+03  0.7546771E-02  0.1202733E+00
          2   -1    0    0  502    0 -0.00000000000E+00  0.00000000000E+00  0.82417964201E+03  0.82417964201E+03  0.00000000000E+00 0. -1.
         21   -1    0    0  501  502  0.00000000000E+00 -0.00000000000E+00 -0.34157259336E+02  0.34157259336E+02  0.00000000000E+00 0.  1.
         24    2    1    2    0    0 -0.54445180892E+02  0.99557425950E+02  0.39718958697E+03  0.42088183491E+03  0.80659730832E+02 0.  0.
         23    2    1    2    0    0  0.43502861126E+02 -0.12116999705E+03  0.27464903190E+03  0.31681411311E+03  0.91457227342E+02 0.  0.
        -13    1    3    3    0    0 -0.29478678015E+02  0.30568524902E+02  0.48092791819E+02  0.64158739055E+02  0.00000000000E+00 0.  1.
         14    1    3    3    0    0 -0.24966502877E+02  0.68988901048E+02  0.34909679515E+03  0.35672309586E+03  0.00000000000E+00 0. -1.
        -13    1    4    4    0    0  0.48424193877E+02 -0.78374903277E+02  0.96038653988E+02  0.13308249726E+03  0.00000000000E+00 0.  1.
         13    1    4    4    0    0 -0.49213327514E+01 -0.42795093769E+02  0.17861037791E+03  0.18373161586E+03  0.00000000000E+00 0. -1.
          1    1    1    2  501    0  0.10942319766E+02  0.21612571096E+02  0.11818376380E+03  0.12064095332E+03  0.00000000000E+00 0. -1.
<scales pt_clust_5="13000.00000" pt_clust_6="13000.00000" pt_clust_7="13000.00000" pt_clust_8="13000.00000" pt_clust_9="24.22474"></scales>
<clustering>
<clus scale="   24.225">  2  9  1 -1</clus>
<clus scale="   80.660">  5  6 -1 -1</clus>
<clus scale="   91.457">  7  8 -1 -1</clus>
<clus scale="  143.448">  1  5  2 -1</clus>
<clus scale="   24.225">  2  5  1 -1</clus>
</clustering>
</event>
<event>
 9    2  0.6175212E-005  0.9762390E+02  0.7546771E-02  0.1293222E+00
         21   -1    0    0  501  502  0.00000000000E+00  0.00000000000E+00  0.36208934694E+02  0.36208934694E+02  0.00000000000E+00 0.  1.
          2   -1    0    0  502    0 -0.00000000000E+00 -0.00000000000E+00 -0.35589696040E+03  0.35589696040E+03  0.00000000000E+00 0. -1.
         24    2    1    2    0    0 -0.12527499438E+01  0.40189943587E+02 -0.15584649772E+03  0.18002372258E+03  0.80644955771E+02 0.  0.
         23    2    1    2    0    0  0.94930236767E+01 -0.14165946331E+01 -0.11736224780E+03  0.15099536390E+03  0.94517609322E+02 0.  0.
        -13    1    3    3    0    0  0.27747289727E+02 -0.10178795898E+02 -0.73610811808E+02  0.79322579309E+02  0.00000000000E+00 0.  1.
         14    1    3    3    0    0 -0.29000039671E+02  0.50368739486E+02 -0.82235685910E+02  0.10070114327E+03  0.00000000000E+00 0. -1.
        -11    1    4    4    0    0 -0.13808232381E+02 -0.40452557249E+02 -0.29089566673E+02  0.51703767355E+02  0.00000000000E+00 0.  1.
         11    1    4    4    0    0  0.23301256058E+02  0.39035962616E+02 -0.88272681126E+02  0.99291596545E+02  0.00000000000E+00 0. -1.
          1    1    1    2  501    0 -0.82402737329E+01 -0.38773348954E+02 -0.46479280188E+02  0.61086808618E+02  0.00000000000E+00 0. -1.
<scales pt_clust_5="13000.00000" pt_clust_6="13000.00000" pt_clust_7="13000.00000" pt_clust_8="13000.00000" pt_clust_9="39.63931"></scales>
<clustering>
<clus scale="   39.639">  1  9  2 -1</clus>
<clus scale="   80.645">  5  6 -1 -1</clus>
<clus scale="   84.264">  2  5  1 -1</clus>
<clus scale="   94.518">  7  8 -1 -1</clus>
<clus scale="   39.639">  1  5  2 -1</clus>
</clustering>
</event>
<event>
 9    2  0.6175212E-005  0.9615680E+02  0.7546771E-02  0.1294052E+00
          2   -1    0    0  502    0 -0.00000000000E+00  0.00000000000E+00  0.66179451840E+03  0.66179451840E+03  0.00000000000E+00 0. -1.
         21   -1    0    0  501  502  0.00000000000E+00 -0.00000000000E+00 -0.90643582106E+02  0.90643582106E+02  0.00000000000E+00 0. -1.
         24    2    1    2    0    0  0.20710007340E+02 -0.24410909171E+02  0.56678248178E+03  0.57326967520E+03  0.79818180663E+02 0.  0.
         23    2    1    2    0    0 -0.30459718464E+02  0.46255782063E+02  0.57992147919E+02  0.12045083140E+03  0.89877259318E+02 0.  0.
        -11    1    3    3    0    0 -0.14953865560E+02 -0.41331692903E+02  0.22824962204E+03  0.23244314766E+03  0.00000000000E+00 0.  1.
         12    1    3    3    0    0  0.35663872900E+02  0.16920783731E+02  0.33853285974E+03  0.34082652755E+03  0.00000000000E+00 0. -1.
        -13    1    4    4    0    0 -0.53624291630E+02  0.31539602875E+02  0.70804673773E+01  0.62613450797E+02  0.00000000000E+00 0.  1.
         13    1    4    4    0    0  0.23164573167E+02  0.14716179187E+02  0.50911680542E+02  0.57837380607E+02  0.00000000000E+00 0. -1.
          1    1    1    2  501    0  0.97497111235E+01 -0.21844872891E+02 -0.53623693406E+02  0.58717593898E+02  0.00000000000E+00 0. -1.
<scales pt_clust_5="13000.00000" pt_clust_6="13000.00000" pt_clust_7="13000.00000" pt_clust_8="13000.00000" pt_clust_9="23.92186"></scales>
<clustering>
<clus scale="   23.922">  2  9  1 -1</clus>
<clus scale="   79.818">  5  6 -1 -1</clus>
<clus scale="   86.828">  1  5  2 -1</clus>
<clus scale="   89.877">  7  8 -1 -1</clus>
<clus scale="   23.922">  2  5  1 -1</clus>
</clustering>
</event>
<event>
 9    2  0.6175212E-005  0.1446088E+03  0.7546771E-02  0.1209702E+00
         -3   -1    0    0    0  501 -0.00000000000E+00  0.00000000000E+00  0.20762452986E+03  0.20762452986E+03  0.00000000000E+00 0.  1.
         21   -1    0    0  501  502  0.00000000000E+00 -0.00000000000E+00 -0.53984764868E+03  0.53984764868E+03  0.00000000000E+00 0.  1.
         23    2    1    2    0    0 -0.12117126379E+03 -0.24920094048E+02  0.15773320766E+03  0.22041801818E+03  0.91656160100E+02 0.  0.
         24    2    1    2    0    0  0.49298043246E+02  0.22687452245E+02 -0.14077999767E+03  0.17055050943E+03  0.79520129312E+02 0.  0.
        -11    1    4    4    0    0  0.29845512687E+02  0.44544517598E+02 -0.12770044189E+03  0.13850043875E+03  0.00000000000E+00 0.  1.
         12    1    4    4    0    0  0.19452530559E+02 -0.21857065353E+02 -0.13079555777E+02  0.32050070676E+02  0.00000000000E+00 0. -1.
        -13    1    3    3    0    0 -0.19592034770E+02 -0.23862106545E+02 -0.21968413372E+01  0.30952771557E+02  0.00000000000E+00 0. -1.
         13    1    3    3    0    0 -0.10157922902E+03 -0.10579875023E+01  0.15993004900E+03  0.18946524662E+03  0.00000000000E+00 0.  1.
         -4    1    1    2    0  502  0.71873220539E+02  0.22326418029E+01 -0.34917632882E+03  0.35650365093E+03  0.00000000000E+00 0.  1.
<scales pt_clust_5="13000.00000" pt_clust_6="13000.00000" pt_clust_7="13000.00000" pt_clust_8="13000.00000" pt_clust_9="71.90789"></scales>
<clustering>
<clus scale="   71.908">  2  9  1 -1</clus>
<clus scale="   79.520">  5  6 -1 -1</clus>
<clus scale="   91.656">  7  8 -1 -1</clus>
<clus scale="  137.238">  2  5  1 -1</clus>
<clus scale="   71.908">  2  5  1 -1</clus>
</clustering>
</event>
<event>
 9    2  0.6175212E-005  0.1041468E+03  0.7546771E-02  0.1277082E+00
          4   -1    0    0  502    0 -0.00000000000E+00  0.00000000000E+00  0.51102151101E+02  0.51102151101E+02  0.00000000000E+00 0. -1.
         21   -1    0    0  501  502  0.00000000000E+00 -0.00000000000E+00 -0.28083107423E+03  0.28083107423E+03  0.00000000000E+00 0.  1.
         24    2    1    2    0    0 -0.45613925765E+02 -0.15971497319E+02 -0.35602447665E+02  0.10258736431E+03  0.83192031384E+02 0.  0.
         23    2    1    2    0    0  0.25928394327E+02  0.24131145700E+02 -0.16051802224E+03  0.18955103551E+03  0.94387317863E+02 0.  0.
        -13    1    3    3    0    0  0.87895131529E+01 -0.25148636378E+02 -0.39090533884E+02  0.47305171942E+02  0.00000000000E+00 0.  1.
         14    1    3    3    0    0 -0.54403438917E+02  0.91771390583E+01  0.34880862191E+01  0.55282192366E+02  0.00000000000E+00 0. -1.
        -11    1    4    4    0    0 -0.49261434829E+01  0.20109049814E+02  0.48640317311E+01  0.21267335958E+02  0.00000000000E+00 0. -1.
         11    1    4    4    0    0  0.30854537810E+02  0.40220958857E+01 -0.16538205397E+03  0.16828369955E+03  0.00000000000E+00 0.  1.
          3    1    1    2  501    0  0.19685531438E+02 -0.81596483807E+01 -0.33608453225E+02  0.39794825516E+02  0.00000000000E+00 0. -1.
<scales pt_clust_5="13000.00000" pt_clust_6="13000.00000" pt_clust_7="13000.00000" pt_clust_8="13000.00000" pt_clust_9="21.30962"></scales>
<clustering>
<clus scale="   21.310">  2  9  1 -1</clus>
<clus scale="   83.192">  5  6 -1 -1</clus>
<clus scale="   94.120">  1  5  2 -1</clus>
<clus scale="   94.387">  7  8 -1 -1</clus>
<clus scale="   21.310">  2  5  1 -1</clus>
</clustering>
</event>
<event>
 9    2  0.6175212E-005  0.1618582E+03  0.7546771E-02  0.1187997E+00
          2   -1    0    0  502    0 -0.00000000000E+00  0.00000000000E+00  0.20754518308E+04  0.20754518308E+04  0.00000000000E+00 0. -1.
         21   -1    0    0  501  502  0.00000000000E+00 -0.00000000000E+00 -0.22548366592E+02  0.22548366592E+02  0.00000000000E+00 0. -1.
         24    2    1    2    0    0 -0.89205045678E+01  0.14196228933E+03  0.15147372001E+04  0.15235837306E+04  0.81521357410E+02 0.  0.
         23    2    1    2    0    0  0.48113738638E+02 -0.10586557450E+03  0.40455858828E+03  0.43057595285E+03  0.90584480518E+02 0.  0.
        -13    1    3    3    0    0  0.25789740971E+02  0.36471119976E+02  0.24823547297E+03  0.25222232925E+03  0.00000000000E+00 0.  1.
         14    1    3    3    0    0 -0.34710245539E+02  0.10549116935E+03  0.12665017271E+04  0.12713614013E+04  0.00000000000E+00 0. -1.
        -11    1    4    4    0    0  0.25242613690E+02  0.50241610138E+01  0.14689853152E+03  0.14913621392E+03  0.00000000000E+00 0.  1.
         11    1    4    4    0    0  0.22871124948E+02 -0.11088973551E+03  0.25766005676E+03  0.28143973893E+03  0.00000000000E+00 0. -1.
          1    1    1    2  501    0 -0.39193234070E+02 -0.36096714832E+02  0.13360767582E+03  0.14384051397E+03  0.00000000000E+00 0. -1.
<scales pt_clust_5="13000.00000" pt_clust_6="13000.00000" pt_clust_7="13000.00000" pt_clust_8="13000.00000" pt_clust_9="53.28304"></scales>
<clustering>
<clus scale="   53.283">  2  9  1 -1</clus>
<clus scale="   81.521">  5  6 -1 -1</clus>
<clus scale="   90.584">  7  8 -1 -1</clus>
<clus scale="  156.966">  1  5  2 -1</clus>
<clus scale="   53.283">  2  5  1 -1</clus>
</clustering>
</event>
<event>
 9    2  0.6175212E-005  0.1136151E+03  0.7546771E-02  0.1257779E+00
          2   -1    0    0  502    0 -0.00000000000E+00  0.00000000000E+00  0.10186753059E+04  0.10186753059E+04  0.00000000000E+00 0. -1.
         21   -1    0    0  501  502  0.00000000000E+00 -0.00000000000E+00 -0.77557755475E+02  0.77557755475E+02  0.00000000000E+00 0. -1.
         24    2    1    2    0    0 -0.41492430948E+02  0.55666297472E+02  0.94055143028E+03  0.94655631085E+03  0.80693854216E+02 0.  0.
         23    2    1    2    0    0  0.42162314077E+02 -0.28542595246E+02  0.31045791229E+02  0.10887044812E+03  0.91085634703E+02 0.  0.
        -13    1    3    3    0    0 -0.46462205586E+02  0.32952645742E+02  0.28735842200E+03  0.29294961359E+03  0.00000000000E+00 0.  1.
         14    1    3    3    0    0  0.49697746379E+01  0.22713651730E+02  0.65319300828E+03  0.65360669726E+03  0.00000000000E+00 0. -1.
        -11    1    4    4    0    0  0.40778692740E+02 -0.56488033981E+02  0.38920774890E+02  0.79803674619E+02  0.00000000000E+00 0.  1.
         11    1    4    4    0    0  0.13836213376E+01  0.27945438736E+02 -0.78749836609E+01  0.29066773502E+02  0.00000000000E+00 0. -1.
          1    1    1    2  501    0 -0.66988312946E+00 -0.27123702226E+02 -0.30479671089E+02  0.40806302400E+02  0.00000000000E+00 0. -1.
<scales pt_clust_5="13000.00000" pt_clust_6="13000.00000" pt_clust_7="13000.00000" pt_clust_8="13000.00000" pt_clust_9="27.13197"></scales>
<clustering>
<clus scale="   27.132">  2  9  1 -1</clus>
<clus scale="   80.694">  5  6 -1 -1</clus>
<clus scale="   91.086">  7  8 -1 -1</clus>
<clus scale="  105.467">  1  5  2 -1</clus>
<clus scale="   27.132">  2  5  1 -1</clus>
</clustering>
</event>
<event>
 9    2  0.6175212E-005  0.9820628E+02  0.7546771E-02  0.1285048E+00
          2   -1    0    0  502    0 -0.00000000000E+00  0.00000000000E+00  0.10213582260E+04  0.10213582260E+04  0.00000000000E+00 0. -1.
         21   -1    0    0  501  502  0.00000000000E+00 -0.00000000000E+00 -0.51052476255E+02  0.51052476255E+02  0.00000000000E+00 0. -1.
         24    2    1    2    0    0 -0.49172894106E+02 -0.26205350077E+02  0.83823689472E+03  0.84441215427E+03  0.85358659296E+02 0.  0.
         23    2    1    2    0    0 -0.10414937560E+02  0.17152628705E+02  0.14102355504E+03  0.16706540349E+03  0.87295603391E+02 0.  0.
        -11    1    3    3    0    0 -0.32054625126E+02 -0.31576866435E+02  0.16758738200E+03  0.17352270194E+03  0.00000000000E+00 0.  1.
         12    1    3    3    0    0 -0.17118268980E+02  0.53715163580E+01  0.67064951273E+03  0.67088945232E+03  0.00000000000E+00 0. -1.
        -11    1    4    4    0    0  0.29727166219E+02 -0.11222027734E+02  0.23035141739E+02  0.39246096275E+02  0.00000000000E+00 0.  1.
         11    1    4    4    0    0 -0.40142103779E+02  0.28374656439E+02  0.11798841330E+03  0.12781930721E+03  0.00000000000E+00 0. -1.
          1    1    1    2  501    0  0.59587831667E+02  0.90527213724E+01 -0.89547000082E+01  0.60933144505E+02  0.00000000000E+00 0. -1.
<scales pt_clust_5="13000.00000" pt_clust_6="13000.00000" pt_clust_7="13000.00000" pt_clust_8="13000.00000" pt_clust_9="60.27156"></scales>
<clustering>
<clus scale="   60.272">  2  9  1 -1</clus>
<clus scale="   85.359">  5  6 -1 -1</clus>
<clus scale="   87.296">  7  8 -1 -1</clus>
<clus scale="   96.489">  1  5  2 -1</clus>
<clus scale="   60.272">  2  5  1 -1</clus>
</clustering>
</event>
<event>
 9    2  0.6175212E-005  0.1871524E+03  0.7546771E-02  0.1198600E+00
          2   -1    0    0  502    0 -0.00000000000E+00  0.00000000000E+00  0.12262685951E+03  0.12262685951E+03  0.00000000000E+00 0. -1.
         21   -1    0    0  501  502  0.00000000000E+00 -0.00000000000E+00 -0.81348614833E+03  0.81348614833E+03  0.00000000000E+00 0.  1.
         24    2    1    2    0    0  0.10815814807E+02  0.28749691304E+02  0.46715013213E+02  0.93018369356E+02  0.74341092123E+02 0.  0.
         23    2    1    2    0    0  0.14119273385E+03  0.67772158910E+02 -0.56551553567E+03  0.59404186192E+03  0.92463284672E+02 0.  0.
        -11    1    3    3    0    0 -0.27766678684E+02 -0.51122877444E+01  0.10190660780E+02  0.30016220585E+02  0.00000000000E+00 0.  1.
         12    1    3    3    0    0  0.38582493491E+02  0.33861979049E+02  0.36524352433E+02  0.63002148771E+02  0.00000000000E+00 0. -1.
        -11    1    4    4    0    0  0.53638956349E+02  0.76322027615E+02 -0.31543924070E+03  0.32894392244E+03  0.00000000000E+00 0.  1.
         11    1    4    4    0    0  0.87553777499E+02 -0.85498687048E+01 -0.25007629497E+03  0.26509793947E+03  0.00000000000E+00 0. -1.
          1    1    1    2  501    0 -0.15200854865E+03 -0.96521850214E+02 -0.17205876636E+03  0.24905277656E+03  0.00000000000E+00 0. -1.
<scales pt_clust_5="13000.00000" pt_clust_6="13000.00000" pt_clust_7="13000.00000" pt_clust_8="13000.00000" pt_clust_9="162.71629"></scales>
<clustering>
<clus scale="   74.341">  5  6 -1 -1</clus>
<clus scale="   80.437">  1  5  2 -1</clus>
<clus scale="   92.463">  7  8 -1 -1</clus>
<clus scale="  162.716">  2  9  1 -1</clus>
<clus scale="  162.716">  2  5  1 -1</clus>
</clustering>
</event>
<event>
 9    2  0.6175212E-005  0.1480984E+03  0.7546771E-02  0.1229690E+00
          4   -1    0    0  502    0 -0.00000000000E+00  0.00000000000E+00  0.71028515540E+03  0.71028515540E+03  0.00000000000E+00 0. -1.
         21   -1    0    0  501  502  0.00000000000E+00 -0.00000000000E+00 -0.46814508606E+02  0.46814508606E+02  0.00000000000E+00 0. -1.
         24    2    1    2    0    0  0.21324013814E+02 -0.23148603625E+00  0.16968725307E+03  0.18931948153E+03  0.81199353957E+02 0.  0.
         23    2    1    2    0    0 -0.80807638423E+02 -0.91831200837E+02  0.18229858150E+03  0.23757323500E+03  0.90804324222E+02 0.  0.
        -11    1    3    3    0    0  0.32581895257E+02 -0.12323859383E+02  0.16924412833E+03  0.17279187592E+03  0.00000000000E+00 0.  1.
         12    1    3    3    0    0 -0.11257881443E+02  0.12092373346E+02  0.44312473416E+00  0.16527605612E+02  0.00000000000E+00 0. -1.
        -13    1    4    4    0    0 -0.26315005875E+02 -0.78482431432E+01  0.11181462221E+03  0.11513724069E+03  0.00000000000E+00 0.  1.
         13    1    4    4    0    0 -0.54492632548E+02 -0.83982957694E+02  0.70483959292E+02  0.12243599431E+03  0.00000000000E+00 0. -1.
          3    1    1    2  501    0  0.59483624609E+02  0.92062686874E+02  0.31148481223E+03  0.33020694748E+03  0.00000000000E+00 0. -1.
<scales pt_clust_5="13000.00000" pt_clust_6="13000.00000" pt_clust_7="13000.00000" pt_clust_8="13000.00000" pt_clust_9="116.99459"></scales>
<clustering>
<clus scale="   81.199">  5  6 -1 -1</clus>
<clus scale="   83.953">  1  5  2 -1</clus>
<clus scale="   90.804">  7  8 -1 -1</clus>
<clus scale="  116.995">  2  9  1 -1</clus>
<clus scale="  116.995">  2  5  1 -1</clus>
</clustering>
</event>
<event>
 9    2  0.6175212E-005  0.2193075E+03  0.7546771E-02  0.1135061E+00
         21   -1    0    0  501  502  0.00000000000E+00  0.00000000000E+00  0.47639548147E+02  0.47639548147E+02  0.00000000000E+00 0. -1.
          2   -1    0    0  502    0 -0.00000000000E+00 -0.00000000000E+00 -0.18895054381E+04  0.18895054381E+04  0.00000000000E+00 0. -1.
         24    2    1    2    0    0  0.17979015251E+03  0.96587434869E+02 -0.13627873181E+04  0.13803238170E+04  0.80317706815E+02 0.  0.
         23    2    1    2    0    0 -0.18976314620E+03 -0.35619352288E+02 -0.30298913295E+03  0.37020911655E+03  0.89294934822E+02 0.  0.
        -11    1    3    3    0    0  0.34431612366E+02  0.40992177829E+02 -0.19510580456E+03  0.20231700262E+03  0.00000000000E+00 0.  1.
         12    1    3    3    0    0  0.14535854014E+03  0.55595257040E+02 -0.11676815135E+04  0.11780068144E+04  0.00000000000E+00 0. -1.
        -11    1    4    4    0    0 -0.44196803421E+02  0.80366436626E+00 -0.14809370595E+03  0.15455015060E+03  0.00000000000E+00 0.  1.
         11    1    4    4    0    0 -0.14556634278E+03 -0.36423016654E+02 -0.15489542699E+03  0.21565896595E+03  0.00000000000E+00 0. -1.
          1    1    1    2  501    0  0.99729936863E+01 -0.60968082581E+02 -0.17608943894E+03  0.18661205267E+03  0.00000000000E+00 0. -1.
<scales pt_clust_5="13000.00000" pt_clust_6="13000.00000" pt_clust_7="13000.00000" pt_clust_8="13000.00000" pt_clust_9="61.77838"></scales>
<clustering>
<clus scale="   61.778">  1  9  2 -1</clus>
<clus scale="   80.318">  5  6 -1 -1</clus>
<clus scale="   89.295">  7  8 -1 -1</clus>
<clus scale="  215.808">  2  5  1 -1</clus>
<clus scale="   61.778">  1  5  2 -1</clus>
</clustering>
</event>
<event>
 9    2  0.6175212E-005  0.1135530E+03  0.7546771E-02  0.1257602E+00
         -1   -1    0    0    0  501 -0.00000000000E+00  0.00000000000E+00  0.37550939952E+03  0.37550939952E+03  0.00000000000E+00 0.  1.
         21   -1    0    0  501  502  0.00000000000E+00 -0.00000000000E+00 -0.19200657381E+03  0.19200657381E+03  0.00000000000E+00 0.  1.
         23    2    1    2    0    0 -0.72998542826E+02 -0.12956236794E+02  0.27875059893E+03  0.30221850961E+03  0.90207980927E+02 0.  0.
         24    2    1    2    0    0  0.48075309281E+02  0.37265060552E+02  0.52333460657E+02  0.11366531978E+03  0.80505240295E+02 0.  0.
        -11    1    4    4    0    0  0.62206834187E+02  0.29666646081E+01  0.23057147713E+02  0.66408759807E+02  0.00000000000E+00 0.  1.
         12    1    4    4    0    0 -0.14131524905E+02  0.34298395944E+02  0.29276312944E+02  0.47256559969E+02  0.00000000000E+00 0. -1.
        -11    1    3    3    0    0 -0.34285959997E+02 -0.23447592665E+02  0.24858633253E+03  0.25203269902E+03  0.00000000000E+00 0. -1.
         11    1    3    3    0    0 -0.38712582829E+02  0.10491355871E+02  0.30164266394E+02  0.50185810588E+02  0.00000000000E+00 0.  1.
         -2    1    1    2    0  502  0.24923233545E+02 -0.24308823759E+02 -0.14758123388E+03  0.15163214394E+03  0.00000000000E+00 0.  1.
<scales pt_clust_5="13000.00000" pt_clust_6="13000.00000" pt_clust_7="13000.00000" pt_clust_8="13000.00000" pt_clust_9="34.81503"></scales>
<clustering>
<clus scale="   34.815">  2  9  1 -1</clus>
<clus scale="   80.505">  5  6 -1 -1</clus>
<clus scale="   90.208">  7  8 -1 -1</clus>
<clus scale="  106.009">  2  5  1 -1</clus>
<clus scale="   34.815">  2  5  1 -1</clus>
</clustering>
</event>
<event>
 9    2  0.6175212E-005  0.9873706E+02  0.7546771E-02  0.1286552E+00
         21   -1    0    0  501  502  0.00000000000E+00  0.00000000000E+00  0.41786213350E+02  0.41786213350E+02  0.00000000000E+00 0.  1.
          2   -1    0    0  502    0 -0.00000000000E+00 -0.00000000000E+00 -0.33391802138E+03  0.33391802138E+03  0.00000000000E+00 0. -1.
         23    2    1    2    0    0 -0.32156365733E+02 -0.22781744482E+02 -0.17781651403E+03  0.20216510754E+03  0.87743822031E+02 0.  0.
         24    2    1    2    0    0  0.33821584017E+02  0.49418609296E+02 -0.71720971944E+02  0.12327411162E+03  0.80414614899E+02 0.  0.
        -13    1    4    4    0    0  0.21452446051E+02 -0.23838603031E+00  0.12422612241E+02  0.24790836299E+02  0.00000000000E+00 0.  1.
         14    1    4    4    0    0  0.12369137965E+02  0.49656995326E+02 -0.84143584185E+02  0.98483275323E+02  0.00000000000E+00 0. -1.
        -13    1    3    3    0    0  0.28168091873E+02 -0.16064877615E+02 -0.39421571481E+02  0.51044901710E+02  0.00000000000E+00 0.  1.
         13    1    3    3    0    0 -0.60324457605E+02 -0.67168668672E+01 -0.13839494255E+03  0.15112020583E+03  0.00000000000E+00 0. -1.
          1    1    1    2  501    0 -0.16652182840E+01 -0.26636864813E+02 -0.42594322050E+02  0.50265015566E+02  0.00000000000E+00 0. -1.
<scales pt_clust_5="13000.00000" pt_clust_6="13000.00000" pt_clust_7="13000.00000" pt_clust_8="13000.00000" pt_clust_9="26.68888"></scales>
<clustering>
<clus scale="   26.689">  1  9  2 -1</clus>
<clus scale="   80.415">  5  6 -1 -1</clus>
<clus scale="   87.744">  7  8 -1 -1</clus>
<clus scale="   92.285">  1  5  2 -1</clus>
<clus scale="   26.689">  1  5  2 -1</clus>
</clustering>
</event>
<event>
 9    2  0.6175212E-005  0.9468343E+02  0.7546771E-02  0.1294705E+00
          2   -1    0    0  502    0 -0.00000000000E+00  0.00000000000E+00  0.13325740401E+03  0.13325740401E+03  0.00000000000E+00 0. -1.
         21   -1    0    0  501  502  0.00000000000E+00 -0.00000000000E+00 -0.30783847742E+03  0.30783847742E+03  0.00000000000E+00 0.  1.
         23    2    1    2    0    0  0.28938707582E+02  0.63333437483E+01 -0.83329027443E+02  0.12661217005E+03  0.90605489631E+02 0.  0.
         24    2    1    2    0    0  0.40391241091E+02 -0.63480152679E+02 -0.16553023744E+03  0.19790906027E+03  0.78144446288E+02 0.  0.
        -13    1    4    4    0    0 -0.14740784813E+02 -0.39031001848E+02 -0.10253493889E+03  0.11069834478E+03  0.00000000000E+00 0.  1.
         14    1    4    4    0    0  0.55132025904E+02 -0.24449150832E+02 -0.62995298549E+02  0.87210715489E+02  0.00000000000E+00 0. -1.
        -11    1    3    3    0    0 -0.22776438742E+02 -0.22079826017E+02 -0.48923257269E+02  0.58307546515E+02  0.00000000000E+00 0. -1.
         11    1    3    3    0    0  0.51715146324E+02  0.28413169766E+02 -0.34405770174E+02  0.68304623538E+02  0.00000000000E+00 0.  1.
          1    1    1    2  501    0 -0.69329948673E+02  0.57146808931E+02  0.74278191473E+02  0.11657465111E+03  0.00000000000E+00 0. -1.
<scales pt_clust_5="13000.00000" pt_clust_6="13000.00000" pt_clust_7="13000.00000" pt_clust_8="13000.00000" pt_clust_9="89.84658"></scales>
<clustering>
<clus scale="   78.144">  5  6 -1 -1</clus>
<clus scale="   89.847">  2  9  1 -1</clus>
<clus scale="   89.847">  2  5  1 -1</clus>
<clus scale="   90.605">  7  8 -1 -1</clus>
<clus scale="   89.847">  2  5  1 -1</clus>
</clustering>
</event>
<event>
 9    2  0.6175212E-005  0.1669253E+03  0.7546771E-02  0.1196297E+00
          2   -1    0    0  502    0 -0.00000000000E+00  0.00000000000E+00  0.66166815310E+03  0.66166815310E+03  0.00000000000E+00 0. -1.
         21   -1    0    0  501  502  0.00000000000E+00 -0.00000000000E+00 -0.13654158775E+03  0.13654158775E+03  0.00000000000E+00 0. -1.
         23    2    1    2    0    0  0.48094109574E+02  0.61415941763E+02  0.13617507191E+03  0.18098046306E+03  0.90140537607E+02 0.  0.
         24    2    1    2    0    0  0.81383706562E+02 -0.13285332008E+03  0.42960969982E+03  0.46386404823E+03  0.79574171136E+02 0.  0.
        -13    1    4    4    0    0  0.45495812836E+02 -0.55407160960E+02  0.97871219763E+02  0.12132022968E+03  0.00000000000E+00 0.  1.
         14    1    4    4    0    0  0.35887893727E+02 -0.77446159118E+02  0.33173848005E+03  0.34254381855E+03  0.00000000000E+00 0. -1.
        -13    1    3    3    0    0 -0.14195601814E+02  0.53087369126E+02  0.49785851477E+02  0.74151297217E+02  0.00000000000E+00 0.  1.
         13    1    3    3    0    0  0.62289711388E+02  0.83285726368E+01  0.86389220434E+02  0.10682916584E+03  0.00000000000E+00 0. -1.
          1    1    1    2  501    0 -0.12947781614E+03  0.71437378315E+02 -0.40658206380E+02  0.15336522956E+03  0.00000000000E+00 0. -1.
<scales pt_clust_5="13000.00000" pt_clust_6="13000.00000" pt_clust_7="13000.00000" pt_clust_8="13000.00000" pt_clust_9="146.73786"></scales>
<clustering>
<clus scale="   79.574">  5  6 -1 -1</clus>
<clus scale="   90.141">  7  8 -1 -1</clus>
<clus scale="  119.207">  1  7  2 -1</clus>
<clus scale="  146.738">  2  9  1 -1</clus>
<clus scale="  146.738">  2  5  1 -1</clus>
</clustering>
</event>
<event>
 9    2  0.6175212E-005  0.1040515E+03  0.7546771E-02  0.1276902E+00
          2   -1    0    0  502    0 -0.00000000000E+00  0.00000000000E+00  0.41996626361E+03  0.41996626361E+03  0.00000000000E+00 0. -1.
         21   -1    0    0  501  502  0.00000000000E+00 -0.00000000000E+00 -0.40288771200E+03  0.40288771200E+03  0.00000000000E+00 0. -1.
         24    2    1    2    0    0 -0.22543478654E+02  0.42744490005E+02  0.36318285568E+03  0.37491835093E+03  0.79540451018E+02 0.  0.
         23    2    1    2    0    0  0.43149882715E+02 -0.13159490790E+03 -0.12069027810E+03  0.20476797932E+03  0.90469055274E+02 0.  0.
        -13    1    3    3    0    0  0.20325990642E-01 -0.20015939945E+02  0.37816765136E+02  0.42787217605E+02  0.00000000000E+00 0.  1.
         14    1    3    3    0    0 -0.22563804645E+02  0.62760429950E+02  0.32536609054E+03  0.33213113333E+03  0.00000000000E+00 0. -1.
        -11    1    4    4    0    0  0.20609450924E+02 -0.20865262963E+02 -0.79091331505E+02  0.84353704039E+02  0.00000000000E+00 0.  1.
         11    1    4    4    0    0  0.22540431791E+02 -0.11072964493E+03 -0.41598946599E+02  0.12041427528E+03  0.00000000000E+00 0. -1.
          1    1    1    2  501    0 -0.20606404061E+02  0.88850417893E+02 -0.22541402596E+03  0.24316764536E+03  0.00000000000E+00 0. -1.
<scales pt_clust_5="13000.00000" pt_clust_6="13000.00000" pt_clust_7="13000.00000" pt_clust_8="13000.00000" pt_clust_9="91.20867"></scales>
<clustering>
<clus scale="   79.540">  5  6 -1 -1</clus>
<clus scale="   90.469">  7  8 -1 -1</clus>
<clus scale="   91.209">  2  9  1 -1</clus>
<clus scale="   94.703">  1  5  2 -1</clus>
<clus scale="   91.209">  2  5  1 -1</clus>
</clustering>
</event>
<event>
 9    2  0.6175212E-005  0.1516346E+03  0.7546771E-02  0.1200267E+00
         21   -1    0    0  501  502  0.00000000000E+00  0.00000000000E+00  0.15213354579E+03  0.15213354579E+03  0.00000000000E+00 0.  1.
         -3   -1    0    0    0  501 -0.00000000000E+00 -0.00000000000E+00 -0.72048238932E+03  0.72048238932E+03  0.00000000000E+00 0.  1.
         24    2    1    2    0    0  0.14314307722E+02  0.11239950717E+03 -0.34015775153E+03  0.36756190756E+03  0.80968582430E+02 0.  0.
         23    2    1    2    0    0 -0.16477291630E+00 -0.13215126544E+03 -0.34779043727E+03  0.38301163870E+03  0.90971110862E+02 0.  0.
        -11    1    3    3    0    0 -0.32346776899E+02  0.37862261177E+02 -0.97900080130E+02  0.10983756410E+03  0.00000000000E+00 0.  1.
         12    1    3    3    0    0  0.46661084621E+02  0.74537245996E+02 -0.24225767140E+03  0.25772434346E+03  0.00000000000E+00 0. -1.
        -11    1    4    4    0    0 -0.20826973819E+02 -0.42640780338E+02 -0.40839306576E+02  0.62608689077E+02  0.00000000000E+00 0. -1.
         11    1    4    4    0    0  0.20662200902E+02 -0.89510485103E+02 -0.30695113070E+03  0.32040294962E+03  0.00000000000E+00 0.  1.
         -4    1    1    2    0  502 -0.14149534805E+02  0.19751758268E+02  0.11959934527E+03  0.12204238887E+03  0.00000000000E+00 0.  1.
<scales pt_clust_5="13000.00000" pt_clust_6="13000.00000" pt_clust_7="13000.00000" pt_clust_8="13000.00000" pt_clust_9="24.29694"></scales>
<clustering>
<clus scale="   24.297">  1  9  2 -1</clus>
<clus scale="   80.969">  5  6 -1 -1</clus>
<clus scale="   90.971">  7  8 -1 -1</clus>
<clus scale="  145.853">  2  5  1 -1</clus>
<clus scale="   24.297">  1  5  2 -1</clus>
</clustering>
</event>
<event>
 9    2  0.6175212E-005  0.2027725E+03  0.7546771E-02  0.1148756E+00
         -1   -1    0    0    0  501 -0.00000000000E+00  0.00000000000E+00  0.36567882092E+03  0.36567882092E+03  0.00000000000E+00 0.  1.
         21   -1    0    0  501  502  0.00000000000E+00 -0.00000000000E+00 -0.57056489845E+03  0.57056489845E+03  0.00000000000E+00 0.  1.
         24    2    1    2    0    0 -0.11905328014E+03 -0.12546017011E+03  0.25804906842E+03  0.32771419882E+03  0.10437114831E+03 0.  0.
         23    2    1    2    0    0  0.21049710276E+02  0.22698045711E+03 -0.35108136732E+03  0.42846748632E+03  0.91449670022E+02 0.  0.
        -13    1    3    3    0    0 -0.28734452093E+02 -0.10555357002E+03  0.14560016773E+03  0.18211708795E+03  0.00000000000E+00 0.  1.
         14    1    3    3    0    0 -0.90318828049E+02 -0.19906600090E+02  0.11244890069E+03  0.14559711087E+03  0.00000000000E+00 0. -1.
        -11    1    4    4    0    0 -0.16632929162E+02  0.11932362331E+03 -0.24350479871E+03  0.27167879639E+03  0.00000000000E+00 0.  1.
         11    1    4    4    0    0  0.37682639438E+02  0.10765683380E+03 -0.10757656861E+03  0.15678868994E+03  0.00000000000E+00 0. -1.
         -2    1    1    2    0  502  0.98003569865E+02 -0.10152028700E+03 -0.11185377862E+03  0.18006203423E+03  0.00000000000E+00 0.  1.
<scales pt_clust_5="13000.00000" pt_clust_6="13000.00000" pt_clust_7="13000.00000" pt_clust_8="13000.00000" pt_clust_9="141.10659"></scales>
<clustering>
<clus scale="   91.450">  7  8 -1 -1</clus>
<clus scale="  104.371">  5  6 -1 -1</clus>
<clus scale="  141.107">  2  9  1 -1</clus>
<clus scale="  196.434">  2  7  1 -1</clus>
<clus scale="  141.107">  2  5  1 -1</clus>
</clustering>
</event>
<event>
 9    2  0.6175212E-005  0.9359755E+02  0.7546771E-02  0.1300509E+00
         -1   -1    0    0    0  501 -0.00000000000E+00  0.00000000000E+00  0.51005701122E+03  0.51005701122E+03  0.00000000000E+00 0.  1.
         21   -1    0    0  501  502  0.00000000000E+00 -0.00000000000E+00 -0.38812428710E+02  0.38812428710E+02  0.00000000000E+00 0. -1.
         24    2    1    2    0    0  0.73331544091E+01  0.29822680872E+02  0.22086830961E+03  0.23718491145E+03  0.80812774884E+02 0.  0.
         23    2    1    2    0    0  0.54838526963E+02  0.10304906602E+02  0.11236130797E+03  0.15508417156E+03  0.91173360143E+02 0.  0.
        -13    1    3    3    0    0 -0.33135959045E+02 -0.37767164315E+01  0.98428972069E+02  0.10392554023E+03  0.00000000000E+00 0.  1.
         14    1    3    3    0    0  0.40469113454E+02  0.33599397303E+02  0.12243933754E+03  0.13325937123E+03  0.00000000000E+00 0. -1.
        -13    1    4    4    0    0 -0.14220541894E+02  0.21110233034E+02  0.67215107160E+02  0.71873057407E+02  0.00000000000E+00 0.  1.
         13    1    4    4    0    0  0.69059068857E+02 -0.10805326432E+02  0.45146200807E+02  0.83211114150E+02  0.00000000000E+00 0. -1.
         -2    1    1    2    0  502 -0.62171681372E+02 -0.40127587473E+02  0.13801496494E+03  0.15660035692E+03  0.00000000000E+00 0.  1.
<scales pt_clust_5="13000.00000" pt_clust_6="13000.00000" pt_clust_7="13000.00000" pt_clust_8="13000.00000" pt_clust_9="73.99694"></scales>
<clustering>
<clus scale="   73.997">  2  9  1 -1</clus>
<clus scale="   80.813">  5  6 -1 -1</clus>
<clus scale="   83.538">  1  5  2 -1</clus>
<clus scale="   91.173">  7  8 -1 -1</clus>
<clus scale="   73.997">  2  5  1 -1</clus>
</clustering>
</event>
<event>
 9    2  0.6175212E-005  0.2050495E+03  0.7546771E-02  0.1145989E+00
          2   -1    0    0  502    0 -0.00000000000E+00  0.00000000000E+00  0.12448851488E+04  0.12448851488E+04  0.00000000000E+00 0. -1.
         21   -1    0    0  501  502  0.00000000000E+00 -0.00000000000E+00 -0.91199886257E+02  0.91199886257E+02  0.00000000000E+00 0. -1.
         24    2    1    2    0    0  0.33532455062E+02  0.20980270474E+03  0.26293843986E+03  0.34765954907E+03  0.81172276297E+02 0.  0.
         23    2    1    2    0    0  0.51688417887E+02 -0.15998123289E+03  0.15050187482E+03  0.24162741484E+03  0.86413574491E+02 0.  0.
        -13    1    3    3    0    0  0.52679844191E+02  0.11164420964E+03  0.11255165586E+03  0.16705529255E+03  0.00000000000E+00 0.  1.
         14    1    3    3    0    0 -0.19147389128E+02  0.98158495102E+02  0.15038678400E+03  0.18060425652E+03  0.00000000000E+00 0. -1.
        -11    1    4    4    0    0  0.38968157540E+02 -0.44364860143E+02  0.11116358789E+02  0.60086034570E+02  0.00000000000E+00 0. -1.
         11    1    4    4    0    0  0.12720260347E+02 -0.11561637275E+03  0.13938551603E+03  0.18154138027E+03  0.00000000000E+00 0.  1.
          1    1    1    2  501    0 -0.85220872949E+02 -0.49821471851E+02  0.74024494786E+03  0.74679807115E+03  0.00000000000E+00 0. -1.
<scales pt_clust_5="13000.00000" pt_clust_6="13000.00000" pt_clust_7="13000.00000" pt_clust_8="13000.00000" pt_clust_9="98.71568"></scales>
<clustering>
<clus scale="   81.172">  5  6 -1 -1</clus>
<clus scale="   86.414">  7  8 -1 -1</clus>
<clus scale="   98.716">  2  9  1 -1</clus>
<clus scale="  202.896">  1  5  2 -1</clus>
<clus scale="   98.716">  2  5  1 -1</clus>
</clustering>
</event>
<event>
 9    2  0.6175212E-005  0.1473703E+03  0.7546771E-02  0.1213575E+00
         -3   -1    0    0    0  501 -0.00000000000E+00  0.00000000000E+00  0.23789966955E+03  0.23789966955E+03  0.00000000000E+00 0.  1.
         21   -1    0    0  501  502  0.00000000000E+00 -0.00000000000E+00 -0.28620687486E+03  0.28620687486E+03  0.00000000000E+00 0.  1.
         24    2    1    2    0    0 -0.72197227850E+02  0.48450739419E+02  0.62250447365E+02  0.13465560953E+03  0.81835818080E+02 0.  0.
         23    2    1    2    0    0 -0.79217716003E+02  0.54759030481E+02 -0.14994727111E+03  0.20202019070E+03  0.95152379829E+02 0.  0.
        -13    1    3    3    0    0 -0.89602714576E+02  0.32986824370E+02  0.44307936388E+02  0.10526143771E+03  0.00000000000E+00 0.  1.
         14    1    3    3    0    0  0.17405486726E+02  0.15463915049E+02  0.17942510977E+02  0.29394171820E+02  0.00000000000E+00 0. -1.
        -11    1    4    4    0    0 -0.17331647899E+02  0.44989682703E+02 -0.10784145039E+02  0.49404001385E+02  0.00000000000E+00 0.  1.
         11    1    4    4    0    0 -0.61886068104E+02  0.97693477780E+01 -0.13916312608E+03  0.15261618931E+03  0.00000000000E+00 0. -1.
         -4    1    1    2    0  502  0.15141494385E+03 -0.10320976990E+03  0.39389618437E+02  0.18743074418E+03  0.00000000000E+00 0.  1.
<scales pt_clust_5="13000.00000" pt_clust_6="13000.00000" pt_clust_7="13000.00000" pt_clust_8="13000.00000" pt_clust_9="112.53459"></scales>
<clustering>
<clus scale="   81.836">  5  6 -1 -1</clus>
<clus scale="   95.152">  7  8 -1 -1</clus>
<clus scale="  119.403">  1  5  2 -1</clus>
<clus scale="  112.535">  2  9  1 -1</clus>
<clus scale="  112.535">  2  5  1 -1</clus>
</clustering>
</event>
<event>
 9    2  0.6175212E-005  0.9760107E+02  0.7546771E-02  0.1291285E+00
         21   -1    0    0  501  502  0.00000000000E+00  0.00000000000E+00  0.27930567592E+03  0.27930567592E+03  0.00000000000E+00 0.  1.
          2   -1    0    0  502    0 -0.00000000000E+00 -0.00000000000E+00 -0.92618766539E+02  0.92618766539E+02  0.00000000000E+00 0. -1.
         24    2    1    2    0    0 -0.21424142011E+01  0.30441274002E+02 -0.38827308778E+02  0.94077142862E+02  0.80073015433E+02 0.  0.
         23    2    1    2    0    0  0.89811201604E+01 -0.52923431062E+02  0.85745987122E+02  0.13611736736E+03  0.91071473658E+02 0.  0.
        -11    1    3    3    0    0 -0.28441901126E+02  0.11603004377E+01  0.11055561186E+02  0.30537083520E+02  0.00000000000E+00 0.  1.
         12    1    3    3    0    0  0.26299486925E+02  0.29280973565E+02 -0.49882869963E+02  0.63540059342E+02  0.00000000000E+00 0. -1.
        -13    1    4    4    0    0 -0.18716088429E+02 -0.15964727064E+02  0.86495775566E+02  0.89925989942E+02  0.00000000000E+00 0.  1.
         13    1    4    4    0    0  0.27697208589E+02 -0.36958703999E+02 -0.74978844351E+00  0.46191377416E+02  0.00000000000E+00 0. -1.
          1    1    1    2  501    0 -0.68387059593E+01  0.22482157060E+02  0.13976823103E+03  0.14172993223E+03  0.00000000000E+00 0. -1.
<scales pt_clust_5="13000.00000" pt_clust_6="13000.00000" pt_clust_7="13000.00000" pt_clust_8="13000.00000" pt_clust_9="23.49926"></scales>
<clustering>
<clus scale="   23.499">  1  9  2 -1</clus>
<clus scale="   80.073">  5  6 -1 -1</clus>
<clus scale="   87.428">  2  5  1 -1</clus>
<clus scale="   91.071">  7  8 -1 -1</clus>
<clus scale="   23.499">  1  5  2 -1</clus>
</clustering>
</event>
<event>
 9    2  0.6175212E-005  0.1179529E+03  0.7546771E-02  0.1249656E+00
          2   -1    0    0  502    0 -0.00000000000E+00  0.00000000000E+00  0.79014146810E+03  0.79014146810E+03  0.00000000000E+00 0. -1.
         21   -1    0    0  501  502  0.00000000000E+00 -0.00000000000E+00 -0.70148534845E+02  0.70148534845E+02  0.00000000000E+00 0.  1.
         23    2    1    2    0    0  0.62004896043E+02 -0.41250239229E+02  0.63244398799E+03  0.64318314046E+03  0.90293769774E+02 0.  0.
         24    2    1    2    0    0 -0.89520411787E+02  0.31791331793E+02 -0.24068412158E+00  0.12462122271E+03  0.80658529100E+02 0.  0.
        -11    1    4    4    0    0 -0.38978793565E+02  0.49689077265E+02 -0.21831350895E+02  0.66820345922E+02  0.00000000000E+00 0.  1.
         12    1    4    4    0    0 -0.50541618222E+02 -0.17897745472E+02  0.21590666773E+02  0.57800876786E+02  0.00000000000E+00 0. -1.
        -11    1    3    3    0    0  0.70008462605E+02 -0.62798466691E+02  0.50488134948E+03  0.51356597366E+03  0.00000000000E+00 0. -1.
         11    1    3    3    0    0 -0.80035665624E+01  0.21548227462E+02  0.12756263851E+03  0.12961716680E+03  0.00000000000E+00 0.  1.
          1    1    1    2  501    0  0.27515515745E+02  0.94589074359E+01  0.87789629385E+02  0.92485639773E+02  0.00000000000E+00 0. -1.
<scales pt_clust_5="13000.00000" pt_clust_6="13000.00000" pt_clust_7="13000.00000" pt_clust_8="13000.00000" pt_clust_9="29.09597"></scales>
<clustering>
<clus scale="   29.096">  2  9  1 -1</clus>
<clus scale="   80.659">  5  6 -1 -1</clus>
<clus scale="   90.294">  7  8 -1 -1</clus>
<clus scale="  110.751">  2  5  1 -1</clus>
<clus scale="   29.096">  2  5  1 -1</clus>
</clustering>
</event>
<event>
 9    2  0.6175212E-005  0.1081788E+03  0.7546771E-02  0.1267887E+00
          2   -1    0    0  502    0 -0.00000000000E+00  0.00000000000E+00  0.28277901538E+03  0.28277901538E+03  0.00000000000E+00 0. -1.
         21   -1    0    0  501  502  0.00000000000E+00 -0.00000000000E+00 -0.10438572117E+03  0.10438572117E+03  0.00000000000E+00 0.  1.
         24    2    1    2    0    0 -0.44723788642E+02  0.32679018504E+02  0.19218793293E+03  0.21557076866E+03  0.80414048623E+02 0.  0.
         23    2    1    2    0    0  0.68029710065E+02 -0.38748351729E+02  0.28687817344E+02  0.12275994438E+03  0.90097374363E+02 0.  0.
        -11    1    3    3    0    0 -0.39087217804E+02  0.39943075524E+02  0.56147412284E+02  0.79219895128E+02  0.00000000000E+00 0.  1.
         12    1    3    3    0    0 -0.56365708381E+01 -0.72640570208E+01  0.13604052064E+03  0.13635087353E+03  0.00000000000E+00 0. -1.
        -13    1    4    4    0    0  0.64783829291E+02 -0.65102697355E+02  0.15611290690E+02  0.93161248046E+02  0.00000000000E+00 0.  1.
         13    1    4    4    0    0  0.32458807733E+01  0.26354345626E+02  0.13076526654E+02  0.29598696334E+02  0.00000000000E+00 0. -1.
          1    1    1    2  501    0 -0.23305921423E+02  0.60693332259E+01 -0.42482456064E+02  0.48834023512E+02  0.00000000000E+00 0. -1.
<scales pt_clust_5="13000.00000" pt_clust_6="13000.00000" pt_clust_7="13000.00000" pt_clust_8="13000.00000" pt_clust_9="24.08325"></scales>
<clustering>
<clus scale="   24.083">  2  9  1 -1</clus>
<clus scale="   80.414">  5  6 -1 -1</clus>
<clus scale="   90.097">  7  8 -1 -1</clus>
<clus scale="  100.257">  1  5  2 -1</clus>
<clus scale="   24.083">  2  5  1 -1</clus>
</clustering>
</event>
<event>
 9    2  0.6175212E-005  0.2162373E+03  0.7546771E-02  0.1138517E+00
          2   -1    0    0  502    0 -0.00000000000E+00  0.00000000000E+00  0.18047737223E+04  0.18047737223E+04  0.00000000000E+00 0. -1.
         21   -1    0    0  501  502  0.00000000000E+00 -0.00000000000E+00 -0.28968328855E+02  0.28968328855E+02  0.00000000000E+00 0.  1.
         23    2    1    2    0    0  0.20783258174E+03  0.71918122326E+01  0.96718009232E+03  0.99362123451E+03  0.92734688672E+02 0.  0.
         24    2    1    2    0    0 -0.18225291278E+03 -0.21468892606E+02  0.74026224618E+03  0.76574567451E+03  0.68565350812E+02 0.  0.
        -11    1    4    4    0    0 -0.49495653066E+02 -0.21116846343E+02  0.12120980702E+03  0.13261809148E+03  0.00000000000E+00 0.  1.
         12    1    4    4    0    0 -0.13275725972E+03 -0.35204626260E+00  0.61905243917E+03  0.63312758302E+03  0.00000000000E+00 0. -1.
        -11    1    3    3    0    0  0.11540528614E+03  0.25453193796E+02  0.70913479184E+03  0.71891473635E+03  0.00000000000E+00 0. -1.
         11    1    3    3    0    0  0.92427295604E+02 -0.18261381563E+02  0.25804530049E+03  0.27470649816E+03  0.00000000000E+00 0.  1.
          1    1    1    2  501    0 -0.25579668959E+02  0.14277080373E+02  0.68363054963E+02  0.74375142165E+02  0.00000000000E+00 0. -1.
<scales pt_clust_5="13000.00000" pt_clust_6="13000.00000" pt_clust_7="13000.00000" pt_clust_8="13000.00000" pt_clust_9="29.29427"></scales>
<clustering>
<clus scale="   29.294">  2  9  1 -1</clus>
<clus scale="   68.565">  5  6 -1 -1</clus>
<clus scale="   92.735">  7  8 -1 -1</clus>
<clus scale="  207.027">  2  5  1 -1</clus>
<clus scale="   29.294">  2  5  1 -1</clus>
</clustering>
</event>
<event>
 9    2  0.6175212E-005  0.1015761E+03  0.7546771E-02  0.1280599E+00
         21   -1    0    0  501  502  0.00000000000E+00  0.00000000000E+00  0.49517761014E+03  0.49517761014E+03  0.00000000000E+00 0. -1.
          4   -1    0    0  502    0 -0.00000000000E+00 -0.00000000000E+00 -0.42112241352E+02  0.42112241352E+02  0.00000000000E+00 0. -1.
         24    2    1    2    0    0 -0.21753611867E+01  0.50634220788E+02  0.37347819853E+02  0.10388391006E+03  0.82634439614E+02 0.  0.
         23    2    1    2    0    0  0.43673046624E+01 -0.30259825023E+02  0.27146190294E+03  0.28770209103E+03  0.90256291076E+02 0.  0.
        -11    1    3    3    0    0  0.28369038560E+02  0.14844386939E+02  0.45997176137E+02  0.56043718515E+02  0.00000000000E+00 0.  1.
         12    1    3    3    0    0 -0.30544399747E+02  0.35789833850E+02 -0.86493562837E+01  0.47840191544E+02  0.00000000000E+00 0. -1.
        -11    1    4    4    0    0 -0.15412623018E+02 -0.58603869385E+02  0.16542985776E+03  0.17617888720E+03  0.00000000000E+00 0.  1.
         11    1    4    4    0    0  0.19779927680E+02  0.28344044362E+02  0.10603204517E+03  0.11152320383E+03  0.00000000000E+00 0. -1.
          3    1    1    2  501    0 -0.21919434756E+01 -0.20374395765E+02  0.14425564600E+03  0.14570385040E+03  0.00000000000E+00 0. -1.
<scales pt_clust_5="13000.00000" pt_clust_6="13000.00000" pt_clust_7="13000.00000" pt_clust_8="13000.00000" pt_clust_9="20.49196"></scales>
<clustering>
<clus scale="   20.492">  1  9  2 -1</clus>
<clus scale="   82.634">  5  6 -1 -1</clus>
<clus scale="   90.256">  7  8 -1 -1</clus>
<clus scale="   94.868">  2  5  1 -1</clus>
<clus scale="   20.492">  1  5  2 -1</clus>
</clustering>
</event>
<event>
 9    2  0.6175212E-005  0.1102484E+03  0.7546771E-02  0.1263942E+00
         21   -1    0    0  501  502  0.00000000000E+00  0.00000000000E+00  0.23208165999E+03  0.23208165999E+03  0.00000000000E+00 0. -1.
          2   -1    0    0  502    0 -0.00000000000E+00 -0.00000000000E+00 -0.36439023196E+03  0.36439023196E+03  0.00000000000E+00 0. -1.
         24    2    1    2    0    0 -0.48434888064E+02  0.38788288270E+02 -0.30746933662E+03  0.32421176157E+03  0.82008558672E+02 0.  0.
         23    2    1    2    0    0  0.12094106285E+02 -0.66966408379E+02  0.27358545181E+02  0.11746944929E+03  0.91759545898E+02 0.  0.
        -11    1    3    3    0    0 -0.34702564104E+01  0.48154193788E+02 -0.91965145078E+02  0.10386749717E+03  0.00000000000E+00 0.  1.
         12    1    3    3    0    0 -0.44964631653E+02 -0.93659055180E+01 -0.21550419154E+03  0.22034426440E+03  0.00000000000E+00 0. -1.
        -13    1    4    4    0    0  0.29221187133E+02 -0.51969448450E+02  0.55374962963E+02  0.81370067426E+02  0.00000000000E+00 0.  1.
         13    1    4    4    0    0 -0.17127080848E+02 -0.14996959928E+02 -0.28016417782E+02  0.36099381862E+02  0.00000000000E+00 0. -1.
          1    1    1    2  501    0  0.36340781779E+02  0.28178120108E+02  0.14780221947E+03  0.15479068109E+03  0.00000000000E+00 0. -1.
<scales pt_clust_5="13000.00000" pt_clust_6="13000.00000" pt_clust_7="13000.00000" pt_clust_8="13000.00000" pt_clust_9="45.98542"></scales>
<clustering>
<clus scale="   45.985">  1  9  2 -1</clus>
<clus scale="   82.009">  5  6 -1 -1</clus>
<clus scale="   91.760">  7  8 -1 -1</clus>
<clus scale="  102.276">  2  5  1 -1</clus>
<clus scale="   45.985">  1  5  2 -1</clus>
</clustering>
</event>
<event>
 9    2  0.6175212E-005  0.1340829E+03  0.7546771E-02  0.1224247E+00
         21   -1    0    0  501  502  0.00000000000E+00  0.00000000000E+00  0.56449061194E+03  0.56449061194E+03  0.00000000000E+00 0. -1.
          2   -1    0    0  502    0 -0.00000000000E+00 -0.00000000000E+00 -0.21316222006E+03  0.21316222006E+03  0.00000000000E+00 0. -1.
         24    2    1    2    0    0  0.93028146680E+02 -0.60500150176E+02 -0.15845958981E+03  0.20903128205E+03  0.79184158938E+02 0.  0.
         23    2    1    2    0    0 -0.31932626716E+02  0.42276657877E+02  0.74527378394E+02  0.12871638856E+03  0.90590121443E+02 0.  0.
        -11    1    3    3    0    0  0.19905278946E+02  0.19283049847E+02 -0.38932978181E+02  0.47789464648E+02  0.00000000000E+00 0.  1.
         12    1    3    3    0    0  0.73122867734E+02 -0.79783200023E+02 -0.11952661163E+03  0.16124181740E+03  0.00000000000E+00 0. -1.
        -11    1    4    4    0    0 -0.50556251408E+02 -0.78722413842E+01  0.31701862954E+02  0.60190654221E+02  0.00000000000E+00 0. -1.
         11    1    4    4    0    0  0.18623624692E+02  0.50148899261E+02  0.42825515440E+02  0.68525734337E+02  0.00000000000E+00 0.  1.
          1    1    1    2  501    0 -0.61095519964E+02  0.18223492299E+02  0.43526060330E+03  0.43990516139E+03  0.00000000000E+00 0. -1.
<scales pt_clust_5="13000.00000" pt_clust_6="13000.00000" pt_clust_7="13000.00000" pt_clust_8="13000.00000" pt_clust_9="63.75546"></scales>
<clustering>
<clus scale="   63.755">  1  9  2 -1</clus>
<clus scale="   79.184">  5  6 -1 -1</clus>
<clus scale="   90.590">  7  8 -1 -1</clus>
<clus scale="  126.656">  2  5  1 -1</clus>
<clus scale="   63.755">  1  5  2 -1</clus>
</clustering>
</event>
<event>
 9    2  0.6175212E-005  0.4929981E+03  0.7546771E-02  0.1052805E+00
          2   -1    0    0  502    0 -0.00000000000E+00  0.00000000000E+00  0.15706718548E+04  0.15706718548E+04  0.00000000000E+00 0. -1.
         21   -1    0    0  501  502  0.00000000000E+00 -0.00000000000E+00 -0.21412796727E+03  0.21412796727E+03  0.00000000000E+00 0. -1.
         24    2    1    2    0    0  0.60413538638E+02  0.13106478320E+03  0.26166521796E+03  0.30934706272E+03  0.79994661559E+02 0.  0.
         23    2    1    2    0    0 -0.37507370564E+03  0.27583015871E+03  0.52500380868E+03  0.70777322236E+03  0.92473639690E+02 0.  0.
        -13    1    3    3    0    0 -0.11469150173E+02  0.63832808600E+02  0.82641860257E+02  0.10505163457E+03  0.00000000000E+00 0.  1.
         14    1    3    3    0    0  0.71882688812E+02  0.67231974601E+02  0.17902335771E+03  0.20429542815E+03  0.00000000000E+00 0. -1.
        -13    1    4    4    0    0 -0.34434767330E+03  0.27975070300E+03  0.48856844425E+03  0.65995068047E+03  0.00000000000E+00 0. -1.
         13    1    4    4    0    0 -0.30726032341E+02 -0.39205442957E+01  0.36435364431E+02  0.47822541884E+02  0.00000000000E+00 0.  1.
          1    1    1    2  501    0  0.31466016700E+03 -0.40689494191E+03  0.56987486088E+03  0.76767953699E+03  0.00000000000E+00 0. -1.
<scales pt_clust_5="13000.00000" pt_clust_6="13000.00000" pt_clust_7="13000.00000" pt_clust_8="13000.00000" pt_clust_9="484.24784"></scales>
<clustering>
<clus scale="   79.995">  5  6 -1 -1</clus>
<clus scale="   92.474">  7  8 -1 -1</clus>
<clus scale="  165.006">  1  5  2 -1</clus>
<clus scale="  484.248">  2  9  1 -1</clus>
<clus scale="  484.248">  2  5  1 -1</clus>
</clustering>
</event>
<event>
 9    2  0.6175212E-005  0.1179203E+03  0.7546771E-02  0.1263634E+00
         21   -1    0    0  501  502  0.00000000000E+00  0.00000000000E+00  0.46483513422E+02  0.46483513422E+02  0.00000000000E+00 0. -1.
          2   -1    0    0  502    0 -0.00000000000E+00 -0.00000000000E+00 -0.52901018678E+03  0.52901018678E+03  0.00000000000E+00 0. -1.
         24    2    1    2    0    0  0.11353114954E+02 -0.20065994373E+02 -0.28984090999E+03  0.30179248403E+03  0.80866636907E+02 0.  0.
         23    2    1    2    0    0  0.44698711254E+02 -0.42638045057E+02 -0.11607048349E+03  0.15993169085E+03  0.91048398806E+02 0.  0.
        -13    1    3    3    0    0  0.44337644501E+02 -0.11816913175E+02 -0.21101696815E+03  0.21594820445E+03  0.00000000000E+00 0.  1.
         14    1    3    3    0    0 -0.32984529547E+02 -0.82490811984E+01 -0.78823941834E+02  0.85844279578E+02  0.00000000000E+00 0. -1.
        -11    1    4    4    0    0 -0.11986678814E+02 -0.48837137195E+02 -0.72195378796E+02  0.87982493474E+02  0.00000000000E+00 0.  1.
         11    1    4    4    0    0  0.56685390068E+02  0.61990921383E+01 -0.43875104696E+02  0.71949197373E+02  0.00000000000E+00 0. -1.
          1    1    1    2  501    0 -0.56051826208E+02  0.62704039430E+02 -0.76615279877E+02  0.11376952533E+03  0.00000000000E+00 0. -1.
<scales pt_clust_5="13000.00000" pt_clust_6="13000.00000" pt_clust_7="13000.00000" pt_clust_8="13000.00000" pt_clust_9="74.93598"></scales>
<clustering>
<clus scale="   80.867">  5  6 -1 -1</clus>
<clus scale="   84.089">  2  5  1 -1</clus>
<clus scale="   74.936">  1  9  2 -1</clus>
<clus scale="   91.048">  7  8 -1 -1</clus>
<clus scale="   74.936">  1  5  2 -1</clus>
</clustering>
</event>
<event>
 9    2  0.6175212E-005  0.1974887E+03  0.7546771E-02  0.1152672E+00
          2   -1    0    0  502    0 -0.00000000000E+00  0.00000000000E+00  0.10022611501E+04  0.10022611501E+04  0.00000000000E+00 0. -1.
         21   -1    0    0  501  502  0.00000000000E+00 -0.00000000000E+00 -0.13070766295E+03  0.13070766295E+03  0.00000000000E+00 0.  1.
         23    2    1    2    0    0  0.77957789469E+02 -0.15428309620E+03  0.83688580465E+03  0.85913890543E+03  0.88662946576E+02 0.  0.
         24    2    1    2    0    0 -0.58051065707E+02  0.16027414661E+03  0.89394131193E+02  0.21528800369E+03  0.96435914166E+02 0.  0.
        -13    1    4    4    0    0 -0.47165253429E+02  0.80973802444E+02 -0.20872012164E+01  0.93731927443E+02  0.00000000000E+00 0.  1.
         14    1    4    4    0    0 -0.10885812278E+02  0.79300344163E+02  0.91481332409E+02  0.12155607625E+03  0.00000000000E+00 0. -1.
        -13    1    3    3    0    0 -0.13657905908E+02 -0.30560524853E+02  0.79407905205E+02  0.86174819305E+02  0.00000000000E+00 0.  1.
         13    1    3    3    0    0  0.91615695377E+02 -0.12372257135E+03  0.75747789944E+03  0.77296408613E+03  0.00000000000E+00 0. -1.
          1    1    1    2  501    0 -0.19906723762E+02 -0.59910504076E+01 -0.54726448660E+02  0.58541903956E+02  0.00000000000E+00 0. -1.
<scales pt_clust_5="13000.00000" pt_clust_6="13000.00000" pt_clust_7="13000.00000" pt_clust_8="13000.00000" pt_clust_9="20.78871"></scales>
<clustering>
<clus scale="   20.789">  2  9  1 -1</clus>
<clus scale="   88.663">  7  8 -1 -1</clus>
<clus scale="   96.436">  5  6 -1 -1</clus>
<clus scale="  193.812">  1  7  2 -1</clus>
<clus scale="   20.789">  2  5  1 -1</clus>
</clustering>
</event>
<event>
 9    2  0.6175212E-005  0.1031850E+03  0.7546771E-02  0.1283357E+00
         21   -1    0    0  501  502  0.00000000000E+00  0.00000000000E+00  0.17803617942E+03  0.17803617942E+03  0.00000000000E+00 0.  1.
         -3   -1    0    0    0  501 -0.00000000000E+00 -0.00000000000E+00 -0.78168514595E+02  0.78168514595E+02  0.00000000000E+00 0.  1.
         24    2    1    2    0    0  0.10942839050E+02 -0.17140230764E+02  0.11985179340E+02  0.83253824530E+02  0.79837469511E+02 0.  0.
         23    2    1    2    0    0 -0.24163243150E+02  0.50431048461E+02  0.69732009427E+02  0.13279495574E+03  0.98207912934E+02 0.  0.
        -11    1    3    3    0    0  0.16519949590E+02  0.11360828247E+02  0.38833189034E+02  0.43703474959E+02  0.00000000000E+00 0.  1.
         12    1    3    3    0    0 -0.55771105407E+01 -0.28501059010E+02 -0.26848009694E+02  0.39550349571E+02  0.00000000000E+00 0. -1.
        -11    1    4    4    0    0 -0.38508290492E+02  0.30243313225E+02 -0.94168539982E+01  0.49862045392E+02  0.00000000000E+00 0.  1.
         11    1    4    4    0    0  0.14345047343E+02  0.20187735236E+02  0.79148863426E+02  0.82932910348E+02  0.00000000000E+00 0. -1.
         -4    1    1    2    0  502  0.13220404100E+02 -0.33290817697E+02  0.18150476057E+02  0.40155913744E+02  0.00000000000E+00 0.  1.
<scales pt_clust_5="13000.00000" pt_clust_6="13000.00000" pt_clust_7="13000.00000" pt_clust_8="13000.00000" pt_clust_9="35.81979"></scales>
<clustering>
<clus scale="   35.820">  1  9  2 -1</clus>
<clus scale="   79.837">  5  6 -1 -1</clus>
<clus scale="   85.886">  2  5  1 -1</clus>
<clus scale="   98.208">  7  8 -1 -1</clus>
<clus scale="   35.820">  1  5  2 -1</clus>
</clustering>
</event>
<event>
 9    2  0.6175212E-005  0.1567819E+03  0.7546771E-02  0.1194380E+00
         21   -1    0    0  501  502  0.00000000000E+00  0.00000000000E+00  0.15390826887E+03  0.15390826887E+03  0.00000000000E+00 0. -1.
          2   -1    0    0  502    0 -0.00000000000E+00 -0.00000000000E+00 -0.34001374581E+03  0.34001374581E+03  0.00000000000E+00 0. -1.
         24    2    1    2    0    0  0.12754827450E+03  0.65721207466E+02 -0.17050334177E+03  0.23655183563E+03  0.79357053527E+02 0.  0.
         23    2    1    2    0    0 -0.84345951389E+02  0.10368562500E+01  0.68162212883E+02  0.14187322759E+03  0.91469179817E+02 0.  0.
        -13    1    3    3    0    0  0.12871606742E+02  0.15673263073E+02  0.51179262548E+01  0.20917041010E+02  0.00000000000E+00 0.  1.
         14    1    3    3    0    0  0.11467666776E+03  0.50047944393E+02 -0.17562126803E+03  0.21563479462E+03  0.00000000000E+00 0. -1.
        -11    1    4    4    0    0 -0.69124404097E+01 -0.32097498898E+02 -0.10628033293E+01  0.32850583234E+02  0.00000000000E+00 0.  1.
         11    1    4    4    0    0 -0.77433510980E+02  0.33134355148E+02  0.69225016213E+02  0.10902264436E+03  0.00000000000E+00 0. -1.
          1    1    1    2  501    0 -0.43202323107E+02 -0.66758063716E+02 -0.83764348052E+02  0.11549695146E+03  0.00000000000E+00 0. -1.
<scales pt_clust_5="13000.00000" pt_clust_6="13000.00000" pt_clust_7="13000.00000" pt_clust_8="13000.00000" pt_clust_9="79.51784"></scales>
<clustering>
<clus scale="   79.357">  5  6 -1 -1</clus>
<clus scale="   79.518">  1  9  2 -1</clus>
<clus scale="   91.469">  7  8 -1 -1</clus>
<clus scale="  150.038">  2  5  1 -1</clus>
<clus scale="   79.518">  1  5  2 -1</clus>
</clustering>
</event>
<event>
 9    2  0.6175212E-005  0.9554176E+02  0.7546771E-02  0.1295629E+00
         21   -1    0    0  501  502  0.00000000000E+00  0.00000000000E+00  0.47927562699E+02  0.47927562699E+02  0.00000000000E+00 0.  1.
          2   -1    0    0  502    0 -0.00000000000E+00 -0.00000000000E+00 -0.59229091057E+03  0.59229091057E+03  0.00000000000E+00 0. -1.
         24    2    1    2    0    0 -0.34591627870E+02 -0.57652351290E-01 -0.49262666496E+03  0.50035719616E+03  0.80496637669E+02 0.  0.
         23    2    1    2    0    0 -0.45182636990E+01 -0.44355564713E+00 -0.38015478000E+02  0.98411231369E+02  0.90658603804E+02 0.  0.
        -13    1    3    3    0    0 -0.73904872942E+01 -0.39134171956E+02 -0.20864531347E+03  0.21241226318E+03  0.00000000000E+00 0.  1.
         14    1    3    3    0    0 -0.27201140576E+02  0.39076519604E+02 -0.28398135149E+03  0.28794493297E+03  0.00000000000E+00 0. -1.
        -13    1    4    4    0    0 -0.75106563324E+01  0.23931254563E+02  0.22127554976E+02  0.33447624620E+02  0.00000000000E+00 0.  1.
         13    1    4    4    0    0  0.29923926333E+01 -0.24374810210E+02 -0.60143032976E+02  0.64963606750E+02  0.00000000000E+00 0. -1.
          1    1    1    2  501    0  0.39109891569E+02  0.50120799842E+00 -0.13721204916E+02  0.41450045746E+02  0.00000000000E+00 0. -1.
<scales pt_clust_5="13000.00000" pt_clust_6="13000.00000" pt_clust_7="13000.00000" pt_clust_8="13000.00000" pt_clust_9="39.11310"></scales>
<clustering>
<clus scale="   39.113">  1  9  2 -1</clus>
<clus scale="   80.497">  5  6 -1 -1</clus>
<clus scale="   85.959">  2  5  1 -1</clus>
<clus scale="   90.659">  7  8 -1 -1</clus>
<clus scale="   39.113">  1  5  2 -1</clus>
</clustering>
</event>
<event>
 9    2  0.6175212E-005  0.9300421E+02  0.7546771E-02  0.1302995E+00
          2   -1    0    0  502    0 -0.00000000000E+00  0.00000000000E+00  0.21528432285E+03  0.21528432285E+03  0.00000000000E+00 0. -1.
         21   -1    0    0  501  502  0.00000000000E+00 -0.00000000000E+00 -0.88416796579E+02  0.88416796579E+02  0.00000000000E+00 0. -1.
         24    2    1    2    0    0 -0.29157287027E+02  0.22079330151E+02  0.80154324400E+02  0.11920040746E+03  0.80289334359E+02 0.  0.
         23    2    1    2    0    0 -0.41476070233E+02  0.88498640282E+01  0.26670584160E+02  0.10483018583E+03  0.92084001360E+02 0.  0.
        -11    1    3    3    0    0  0.20832888478E+02  0.27614734823E+02  0.49197327095E+02  0.60141165727E+02  0.00000000000E+00 0.  1.
         12    1    3    3    0    0 -0.49990175505E+02 -0.55354046723E+01  0.30956997304E+02  0.59059241733E+02  0.00000000000E+00 0. -1.
        -13    1    4    4    0    0 -0.21074609727E+02 -0.41705246275E+02  0.95989925976E+01  0.47703326937E+02  0.00000000000E+00 0.  1.
         13    1    4    4    0    0 -0.20401460506E+02  0.50555110303E+02  0.17071591562E+02  0.57126858893E+02  0.00000000000E+00 0. -1.
          1    1    1    2  501    0  0.70633357260E+02 -0.30929194179E+02  0.20042617711E+02  0.79670526138E+02  0.00000000000E+00 0. -1.
<scales pt_clust_5="13000.00000" pt_clust_6="13000.00000" pt_clust_7="13000.00000" pt_clust_8="13000.00000" pt_clust_9="77.10828"></scales>
<clustering>
<clus scale="   77.108">  2  9  1 -1</clus>
<clus scale="   80.289">  5  6 -1 -1</clus>
<clus scale="   81.343">  1  5  2 -1</clus>
<clus scale="   92.084">  7  8 -1 -1</clus>
<clus scale="   77.108">  2  5  1 -1</clus>
</clustering>
</event>
<event>
 9    2  0.6175212E-005  0.2256281E+03  0.7546771E-02  0.1156023E+00
          2   -1    0    0  502    0 -0.00000000000E+00  0.00000000000E+00  0.13885414781E+04  0.13885414781E+04  0.00000000000E+00 0. -1.
         21   -1    0    0  501  502  0.00000000000E+00 -0.00000000000E+00 -0.62531880911E+02  0.62531880911E+02  0.00000000000E+00 0. -1.
         23    2    1    2    0    0 -0.32282127965E+02 -0.69845019375E+02  0.23604055720E+03  0.26484567318E+03  0.92236779216E+02 0.  0.
         24    2    1    2    0    0  0.21454199079E+03 -0.37541642088E+02  0.75577108698E+03  0.79070420429E+03  0.81151476102E+02 0.  0.
        -13    1    4    4    0    0  0.14228077231E+03 -0.61245005127E+02  0.46341166700E+03  0.48861553591E+03  0.00000000000E+00 0.  1.
         14    1    4    4    0    0  0.72261218481E+02  0.23703363039E+02  0.29235941997E+03  0.30208866838E+03  0.00000000000E+00 0. -1.
        -13    1    3    3    0    0 -0.43207883131E+02 -0.21712487622E+02  0.19423294607E+03  0.20016191101E+03  0.00000000000E+00 0.  1.
         13    1    3    3    0    0  0.10925755166E+02 -0.48132531753E+02  0.41807611135E+02  0.64683762164E+02  0.00000000000E+00 0. -1.
          1    1    1    2  501    0 -0.18225986282E+03  0.10738666146E+03  0.33419795303E+03  0.39552348156E+03  0.00000000000E+00 0. -1.
<scales pt_clust_5="13000.00000" pt_clust_6="13000.00000" pt_clust_7="13000.00000" pt_clust_8="13000.00000" pt_clust_9="210.52899"></scales>
<clustering>
<clus scale="   81.151">  5  6 -1 -1</clus>
<clus scale="   92.237">  7  8 -1 -1</clus>
<clus scale="  120.117">  1  7  2 -1</clus>
<clus scale="  210.529">  2  9  1 -1</clus>
<clus scale="  210.529">  2  5  1 -1</clus>
</clustering>
</event>
<event>
 9    2  0.6175212E-005  0.1159064E+03  0.7546771E-02  0.1266746E+00
         21   -1    0    0  501  502  0.00000000000E+00  0.00000000000E+00  0.77417535400E+02  0.77417535400E+02  0.00000000000E+00 0.  1.
          2   -1    0    0  502    0 -0.00000000000E+00 -0.00000000000E+00 -0.20032806869E+03  0.20032806869E+03  0.00000000000E+00 0. -1.
         24    2    1    2    0    0  0.12616854052E+02 -0.17213786621E+02 -0.97851163580E+02  0.12775760038E+03  0.79319951993E+02 0.  0.
         23    2    1    2    0    0 -0.39336226828E+02  0.18486500443E+02 -0.19830442143E+02  0.12273206187E+03  0.11305230266E+03 0.  0.
        -11    1    3    3    0    0  0.88032631603E+01  0.31482333632E+02 -0.31781090886E+02  0.45592461121E+02  0.00000000000E+00 0.  1.
         12    1    3    3    0    0  0.38135908914E+01 -0.48696120253E+02 -0.66070072694E+02  0.82165139256E+02  0.00000000000E+00 0. -1.
        -13    1    4    4    0    0 -0.23324668455E+02  0.38739627731E+02  0.38214522353E+02  0.59204295739E+02  0.00000000000E+00 0.  1.
         13    1    4    4    0    0 -0.16011558372E+02 -0.20253127288E+02 -0.58044964496E+02  0.63527766132E+02  0.00000000000E+00 0. -1.
          1    1    1    2  501    0  0.26719372776E+02 -0.12727138218E+01 -0.52289275619E+01  0.27255941838E+02  0.00000000000E+00 0. -1.
<scales pt_clust_5="13000.00000" pt_clust_6="13000.00000" pt_clust_7="13000.00000" pt_clust_8="13000.00000" pt_clust_9="26.74967"></scales>
<clustering>
<clus scale="   26.750">  1  9  2 -1</clus>
<clus scale="   79.320">  5  6 -1 -1</clus>
<clus scale="   83.337">  2  5  1 -1</clus>
<clus scale="  113.052">  7  8 -1 -1</clus>
<clus scale="   26.750">  1  5  2 -1</clus>
</clustering>
</event>
<event>
 9    2  0.6175212E-005  0.1742104E+03  0.7546771E-02  0.1176244E+00
          2   -1    0    0  502    0 -0.00000000000E+00  0.00000000000E+00  0.31591796246E+03  0.31591796246E+03  0.00000000000E+00 0. -1.
         21   -1    0    0  501  502  0.00000000000E+00 -0.00000000000E+00 -0.14128475432E+03  0.14128475432E+03  0.00000000000E+00 0.  1.
         23    2    1    2    0    0 -0.72436222242E+02  0.12329857355E+03  0.18733213605E+03  0.25575964453E+03  0.99348487885E+02 0.  0.
         24    2    1    2    0    0  0.43893307722E+02 -0.13935913602E+03 -0.20748191744E+02  0.16771726189E+03  0.79693169216E+02 0.  0.
        -13    1    4    4    0    0  0.53727421664E+02 -0.74001889129E+02  0.14850595004E+02  0.92646940615E+02  0.00000000000E+00 0.  1.
         14    1    4    4    0    0 -0.98341139421E+01 -0.65357246889E+02 -0.35598786748E+02  0.75070321272E+02  0.00000000000E+00 0. -1.
        -13    1    3    3    0    0 -0.26379828315E+02  0.11441198471E+03  0.16814247196E+03  0.20508020008E+03  0.00000000000E+00 0. -1.
         13    1    3    3    0    0 -0.46056393928E+02  0.88865888396E+01  0.19189664088E+02  0.50679444459E+02  0.00000000000E+00 0.  1.
          1    1    1    2  501    0  0.28542914520E+02  0.16060562471E+02  0.80492638268E+01  0.33725810359E+02  0.00000000000E+00 0. -1.
<scales pt_clust_5="13000.00000" pt_clust_6="13000.00000" pt_clust_7="13000.00000" pt_clust_8="13000.00000" pt_clust_9="32.75118"></scales>
<clustering>
<clus scale="   32.751">  2  9  1 -1</clus>
<clus scale="   79.693">  5  6 -1 -1</clus>
<clus scale="   99.348">  7  8 -1 -1</clus>
<clus scale="  163.799">  2  5  1 -1</clus>
<clus scale="   32.751">  2  5  1 -1</clus>
</clustering>
</event>
<event>
 9    2  0.6175212E-005  0.1021967E+03  0.7546771E-02  0.1281322E+00
         21   -1    0    0  501  502  0.00000000000E+00  0.00000000000E+00  0.26271288503E+02  0.26271288503E+02  0.00000000000E+00 0.  1.
          2   -1    0    0  502    0 -0.00000000000E+00 -0.00000000000E+00 -0.56126919566E+03  0.56126919566E+03  0.00000000000E+00 0. -1.
         24    2    1    2    0    0 -0.43268777916E+02  0.17334743302E+02 -0.24468585654E+03  0.26160933787E+03  0.79972475254E+02 0.  0.
         23    2    1    2    0    0  0.47064998755E+02  0.10715637624E+02 -0.14684020090E+03  0.17969364487E+03  0.91639633401E+02 0.  0.
        -11    1    3    3    0    0  0.99058642550E+01 -0.21367144476E+02 -0.37946987332E+02  0.44661559056E+02  0.00000000000E+00 0.  1.
         12    1    3    3    0    0 -0.53174642171E+02  0.38701887778E+02 -0.20673886921E+03  0.21694777881E+03  0.00000000000E+00 0. -1.
        -11    1    4    4    0    0  0.14989229586E+02  0.44535562098E+02 -0.11212942453E+03  0.12157755196E+03  0.00000000000E+00 0. -1.
         11    1    4    4    0    0  0.32075769169E+02 -0.33819924474E+02 -0.34710776366E+02  0.58116092910E+02  0.00000000000E+00 0.  1.
          1    1    1    2  501    0 -0.37962208389E+01 -0.28050380926E+02 -0.14347184971E+03  0.14623750142E+03  0.00000000000E+00 0. -1.
<scales pt_clust_5="13000.00000" pt_clust_6="13000.00000" pt_clust_7="13000.00000" pt_clust_8="13000.00000" pt_clust_9="28.30611"></scales>
<clustering>
<clus scale="   28.306">  1  9  2 -1</clus>
<clus scale="   79.972">  5  6 -1 -1</clus>
<clus scale="   91.640">  7  8 -1 -1</clus>
<clus scale="   91.880">  2  5  1 -1</clus>
<clus scale="   28.306">  1  5  2 -1</clus>
</clustering>
</event>
<event>
 9    2  0.6175212E-005  0.1014943E+03  0.7546771E-02  0.1281679E+00
         21   -1    0    0  501  502  0.00000000000E+00  0.00000000000E+00  0.23929531120E+02  0.23929531120E+02  0.00000000000E+00 0.  1.
          2   -1    0    0  502    0 -0.00000000000E+00 -0.00000000000E+00 -0.77650431723E+03  0.77650431723E+03  0.00000000000E+00 0. -1.
         23    2    1    2    0    0 -0.24929443028E+02 -0.48814009960E+02 -0.42259586343E+03  0.43563746763E+03  0.90490080731E+02 0.  0.
         24    2    1    2    0    0  0.40313103862E+02  0.15749867746E+02 -0.30976317752E+03  0.32310020736E+03  0.81038960827E+02 0.  0.
        -13    1    4    4    0    0  0.23166480872E+02 -0.11950913031E+02 -0.23833646830E+02  0.35320714595E+02  0.00000000000E+00 0.  1.
         14    1    4    4    0    0  0.17146622990E+02  0.27700780777E+02 -0.28592953069E+03  0.28777949276E+03  0.00000000000E+00 0. -1.
        -11    1    3    3    0    0 -0.21868629809E+01  0.26757223456E+02 -0.11185123974E+03  0.11502795838E+03  0.00000000000E+00 0.  1.
         11    1    3    3    0    0 -0.22742580047E+02 -0.75571233416E+02 -0.31074462369E+03  0.32060950925E+03  0.00000000000E+00 0. -1.
          1    1    1    2  501    0 -0.15383660834E+02  0.33064142214E+02 -0.20215745157E+02  0.41696173365E+02  0.00000000000E+00 0. -1.
<scales pt_clust_5="13000.00000" pt_clust_6="13000.00000" pt_clust_7="13000.00000" pt_clust_8="13000.00000" pt_clust_9="36.46772"></scales>
<clustering>
<clus scale="   36.468">  1  9  2 -1</clus>
<clus scale="   81.039">  5  6 -1 -1</clus>
<clus scale="   90.490">  7  8 -1 -1</clus>
<clus scale="   93.166">  1  5  2 -1</clus>
<clus scale="   36.468">  1  5  2 -1</clus>
</clustering>
</event>
<event>
 9    2  0.6175212E-005  0.9362681E+02  0.7546771E-02  0.1322267E+00
         21   -1    0    0  501  502  0.00000000000E+00  0.00000000000E+00  0.49299236626E+02  0.49299236626E+02  0.00000000000E+00 0. -1.
          2   -1    0    0  502    0 -0.00000000000E+00 -0.00000000000E+00 -0.32616480809E+03  0.32616480809E+03  0.00000000000E+00 0. -1.
         24    2    1    2    0    0  0.99669117377E+01  0.47821271822E+01 -0.24439981806E+03  0.25088140631E+03  0.55569784003E+02 0.  0.
         23    2    1    2    0    0  0.10860051523E+02  0.65102373858E+01 -0.35833470459E+02  0.10065312913E+03  0.93202418901E+02 0.  0.
        -11    1    3    3    0    0 -0.10674982923E+02  0.18444026156E+02 -0.43259552830E+02  0.48223710686E+02  0.00000000000E+00 0.  1.
         12    1    3    3    0    0  0.20641894660E+02 -0.13661898974E+02 -0.20114026523E+03  0.20265769562E+03  0.00000000000E+00 0. -1.
        -13    1    4    4    0    0 -0.32542975856E+02  0.53302279939E+01  0.12875868613E+02  0.35401194903E+02  0.00000000000E+00 0.  1.
         13    1    4    4    0    0  0.43403027379E+02  0.11800093920E+01 -0.48709339072E+02  0.65251934229E+02  0.00000000000E+00 0. -1.
          1    1    1    2  501    0 -0.20826963261E+02 -0.11292364568E+02  0.33677170500E+01  0.23929509279E+02  0.00000000000E+00 0. -1.
<scales pt_clust_5="13000.00000" pt_clust_6="13000.00000" pt_clust_7="13000.00000" pt_clust_8="13000.00000" pt_clust_9="23.69135"></scales>
<clustering>
<clus scale="   23.691">  1  9  2 -1</clus>
<clus scale="   55.570">  5  6 -1 -1</clus>
<clus scale="   56.279">  2  5  1 -1</clus>
<clus scale="   93.202">  7  8 -1 -1</clus>
<clus scale="   23.691">  1  5  2 -1</clus>
</clustering>
</event>
<event>
 9    2  0.6175212E-005  0.9435517E+02  0.7546771E-02  0.1300649E+00
         21   -1    0    0  501  502  0.00000000000E+00  0.00000000000E+00  0.38394609018E+02  0.38394609018E+02  0.00000000000E+00 0. -1.
          2   -1    0    0  502    0 -0.00000000000E+00 -0.00000000000E+00 -0.68326445707E+03  0.68326445707E+03  0.00000000000E+00 0. -1.
         23    2    1    2    0    0 -0.17499012745E+02  0.42770851648E+02 -0.12755071334E+03  0.16474275016E+03  0.93463511910E+02 0.  0.
         24    2    1    2    0    0  0.67900975732E+01  0.28697320825E+02 -0.92477915542E+02  0.12597265134E+03  0.80295095590E+02 0.  0.
        -13    1    4    4    0    0 -0.22946562841E+02  0.17810365947E+02 -0.89581840303E+02  0.94173563135E+02  0.00000000000E+00 0.  1.
         14    1    4    4    0    0  0.29736660414E+02  0.10886954877E+02 -0.28960752386E+01  0.31799088208E+02  0.00000000000E+00 0. -1.
        -13    1    3    3    0    0  0.21954552911E+02 -0.83071113107E+01 -0.83160412650E+02  0.86409864738E+02  0.00000000000E+00 0.  1.
         13    1    3    3    0    0 -0.39453565657E+02  0.51077962959E+02 -0.44390300689E+02  0.78332885420E+02  0.00000000000E+00 0. -1.
          1    1    1    2  501    0  0.10708915172E+02 -0.71468172473E+02 -0.42484121918E+03  0.43094366459E+03  0.00000000000E+00 0. -1.
<scales pt_clust_5="13000.00000" pt_clust_6="13000.00000" pt_clust_7="13000.00000" pt_clust_8="13000.00000" pt_clust_9="72.26608"></scales>
<clustering>
<clus scale="   72.266">  1  9  2 -1</clus>
<clus scale="   80.295">  5  6 -1 -1</clus>
<clus scale="   81.331">  1  5  2 -1</clus>
<clus scale="   93.464">  7  8 -1 -1</clus>
<clus scale="   72.266">  1  5  2 -1</clus>
</clustering>
</event>
<event>
 9    2  0.6175212E-005  0.1206223E+03  0.7546771E-02  0.1244563E+00
         21   -1    0    0  501  502  0.00000000000E+00  0.00000000000E+00  0.16561087089E+03  0.16561087089E+03  0.00000000000E+00 0. -1.
          2   -1    0    0  502    0 -0.00000000000E+00 -0.00000000000E+00 -0.20961660568E+03  0.20961660568E+03  0.00000000000E+00 0. -1.
         24    2    1    2    0    0  0.95263592548E+02 -0.41609000400E+02 -0.12178760240E+03  0.18032421418E+03  0.82934559404E+02 0.  0.
         23    2    1    2    0    0 -0.13603172176E+02  0.20249684986E+02  0.37052420707E+02  0.10118276060E+03  0.90939392607E+02 0.  0.
        -13    1    3    3    0    0  0.97342084699E+01 -0.27960589095E+02  0.15113541083E+01  0.29645126890E+02  0.00000000000E+00 0.  1.
         14    1    3    3    0    0  0.85529384078E+02 -0.13648411304E+02 -0.12329895651E+03  0.15067908729E+03  0.00000000000E+00 0. -1.
        -13    1    4    4    0    0 -0.25620716273E+02 -0.21693262415E+02 -0.11891463388E+02  0.35614963682E+02  0.00000000000E+00 0.  1.
         13    1    4    4    0    0  0.12017544097E+02  0.41942947401E+02  0.48943884095E+02  0.65567796922E+02  0.00000000000E+00 0. -1.
          1    1    1    2  501    0 -0.81660420371E+02  0.21359315413E+02  0.40729446895E+02  0.93720501783E+02  0.00000000000E+00 0. -1.
<scales pt_clust_5="13000.00000" pt_clust_6="13000.00000" pt_clust_7="13000.00000" pt_clust_8="13000.00000" pt_clust_9="84.40761"></scales>
<clustering>
<clus scale="   82.935">  5  6 -1 -1</clus>
<clus scale="   84.408">  1  9  2 -1</clus>
<clus scale="   90.939">  7  8 -1 -1</clus>
<clus scale="  114.708">  2  5  1 -1</clus>
<clus scale="   84.408">  1  5  2 -1</clus>
</clustering>
</event>
<event>
 9    2  0.6175212E-005  0.9464166E+02  0.7546771E-02  0.1298124E+00
          2   -1    0    0  502    0 -0.00000000000E+00  0.00000000000E+00  0.11094235038E+04  0.11094235038E+04  0.00000000000E+00 0. -1.
         21   -1    0    0  501  502  0.00000000000E+00 -0.00000000000E+00 -0.49084223425E+02  0.49084223425E+02  0.00000000000E+00 0. -1.
         24    2    1    2    0    0  0.18925375889E+02  0.18558901474E+02  0.91722131572E+03  0.92116882005E+03  0.80959559852E+02 0.  0.
         23    2    1    2    0    0  0.26313048073E+02  0.14128777920E+02  0.14826839435E+02  0.97433181081E+02  0.91549935792E+02 0.  0.
        -11    1    3    3    0    0  0.26879349290E+02  0.71898542809E+00  0.95442193809E+02  0.99157595359E+02  0.00000000000E+00 0.  1.
         12    1    3    3    0    0 -0.79539734011E+01  0.17839916046E+02  0.82177912192E+03  0.82201122469E+03  0.00000000000E+00 0. -1.
        -11    1    4    4    0    0 -0.33268355495E+02  0.96891363133E+01  0.14819476077E+02  0.37686598560E+02  0.00000000000E+00 0.  1.
         11    1    4    4    0    0  0.59581403568E+02  0.44396416065E+01  0.73633586426E-02  0.59746582521E+02  0.00000000000E+00 0. -1.
          1    1    1    2  501    0 -0.45238423962E+02 -0.32687679393E+02  0.12829112526E+03  0.13990572614E+03  0.00000000000E+00 0. -1.
<scales pt_clust_5="13000.00000" pt_clust_6="13000.00000" pt_clust_7="13000.00000" pt_clust_8="13000.00000" pt_clust_9="55.81221"></scales>
<clustering>
<clus scale="   55.812">  2  9  1 -1</clus>
<clus scale="   80.960">  5  6 -1 -1</clus>
<clus scale="   84.440">  1  5  2 -1</clus>
<clus scale="   91.550">  7  8 -1 -1</clus>
<clus scale="   55.812">  2  5  1 -1</clus>
</clustering>
</event>
<event>
 9    2  0.6175212E-005  0.2531105E+03  0.7546771E-02  0.1150867E+00
         21   -1    0    0  501  502  0.00000000000E+00  0.00000000000E+00  0.72171692593E+02  0.72171692593E+02  0.00000000000E+00 0. -1.
          2   -1    0    0  502    0 -0.00000000000E+00 -0.00000000000E+00 -0.18967580545E+04  0.18967580545E+04  0.00000000000E+00 0. -1.
         24    2    1    2    0    0  0.25892287235E+02 -0.44485710203E+02 -0.83726178288E+02  0.12743504125E+03  0.81118603642E+02 0.  0.
         23    2    1    2    0    0  0.89536271379E+02  0.24375125720E+03 -0.14201880368E+04  0.14467021830E+04  0.92637611586E+02 0.  0.
        -11    1    3    3    0    0 -0.85273874177E+01 -0.54565880035E+02 -0.69691085499E+02  0.88921307898E+02  0.00000000000E+00 0.  1.
         12    1    3    3    0    0  0.34419674653E+02  0.10080169833E+02 -0.14035092789E+02  0.38513733351E+02  0.00000000000E+00 0. -1.
        -13    1    4    4    0    0 -0.13251701668E+02  0.82730732040E+02 -0.38132052622E+03  0.39041686098E+03  0.00000000000E+00 0.  1.
         13    1    4    4    0    0  0.10278797305E+03  0.16102052516E+03 -0.10388675106E+04  0.10562853220E+04  0.00000000000E+00 0. -1.
          1    1    1    2  501    0 -0.11542855861E+03 -0.19926554700E+03 -0.32067214680E+03  0.39479252285E+03  0.00000000000E+00 0. -1.
<scales pt_clust_5="13000.00000" pt_clust_6="13000.00000" pt_clust_7="13000.00000" pt_clust_8="13000.00000" pt_clust_9="235.54870"></scales>
<clustering>
<clus scale="   81.119">  5  6 -1 -1</clus>
<clus scale="   92.638">  7  8 -1 -1</clus>
<clus scale="   96.071">  2  5  1 -1</clus>
<clus scale="  235.549">  1  9  2 -1</clus>
<clus scale="  235.549">  1  5  2 -1</clus>
</clustering>
</event>
<event>
 9    2  0.6175212E-005  0.1728025E+03  0.7546771E-02  0.1213982E+00
          2   -1    0    0  502    0 -0.00000000000E+00  0.00000000000E+00  0.12949178920E+04  0.12949178920E+04  0.00000000000E+00 0. -1.
         21   -1    0    0  501  502  0.00000000000E+00 -0.00000000000E+00 -0.46647737276E+02  0.46647737276E+02  0.00000000000E+00 0. -1.
         24    2    1    2    0    0  0.92942252975E+00  0.16498237170E+02  0.38480676695E+02  0.82897892767E+02  0.71541893254E+02 0.  0.
         23    2    1    2    0    0  0.19829854485E+02  0.13980622896E+03  0.40343979583E+03  0.43704626424E+03  0.91141447435E+02 0.  0.
        -11    1    3    3    0    0  0.30899122495E+02  0.11616244989E+01  0.38309772270E+02  0.49231532516E+02  0.00000000000E+00 0.  1.
         12    1    3    3    0    0 -0.29969699966E+02  0.15336612672E+02  0.17090442514E+00  0.33666360252E+02  0.00000000000E+00 0. -1.
        -11    1    4    4    0    0  0.43869352235E+02  0.92383526197E+02  0.33570219146E+03  0.35093474796E+03  0.00000000000E+00 0. -1.
         11    1    4    4    0    0 -0.24039497750E+02  0.47422702761E+02  0.67737604376E+02  0.86111516278E+02  0.00000000000E+00 0.  1.
          1    1    1    2  501    0 -0.20759277015E+02 -0.15630446613E+03  0.80634968218E+03  0.82162147226E+03  0.00000000000E+00 0. -1.
<scales pt_clust_5="13000.00000" pt_clust_6="13000.00000" pt_clust_7="13000.00000" pt_clust_8="13000.00000" pt_clust_9="146.81265"></scales>
<clustering>
<clus scale="   71.542">  5  6 -1 -1</clus>
<clus scale="   73.425">  1  5  2 -1</clus>
<clus scale="   91.141">  7  8 -1 -1</clus>
<clus scale="  146.813">  2  9  1 -1</clus>
<clus scale="  146.813">  2  5  1 -1</clus>
</clustering>
</event>
<event>
 9    2  0.6175212E-005  0.1078406E+03  0.7546771E-02  0.1268652E+00
         21   -1    0    0  501  502  0.00000000000E+00  0.00000000000E+00  0.17072258141E+03  0.17072258141E+03  0.00000000000E+00 0. -1.
         -1   -1    0    0    0  501 -0.00000000000E+00 -0.00000000000E+00 -0.19924123142E+03  0.19924123142E+03  0.00000000000E+00 0.  1.
         24    2    1    2    0    0 -0.45489924321E+02  0.27093402304E+02 -0.99477889439E+02  0.13897858356E+03  0.81337632972E+02 0.  0.
         23    2    1    2    0    0  0.27825489929E+02 -0.10230084311E+03  0.62960645555E+02  0.15331819059E+03  0.91119176276E+02 0.  0.
        -11    1    3    3    0    0 -0.37823425208E+02  0.46059843226E+02 -0.10223233315E+03  0.11833668321E+03  0.00000000000E+00 0.  1.
         12    1    3    3    0    0 -0.76664991135E+01 -0.18966440922E+02  0.27544437064E+01  0.20641900350E+02  0.00000000000E+00 0. -1.
        -13    1    4    4    0    0 -0.11037569935E+02 -0.51237634193E+02  0.71424706758E+02  0.88592391565E+02  0.00000000000E+00 0. -1.
         13    1    4    4    0    0  0.38863059864E+02 -0.51063208918E+02 -0.84640612030E+01  0.64725799022E+02  0.00000000000E+00 0.  1.
         -2    1    1    2    0  502  0.17664434393E+02  0.75207440807E+02  0.79985938708E+01  0.77667038691E+02  0.00000000000E+00 0.  1.
<scales pt_clust_5="13000.00000" pt_clust_6="13000.00000" pt_clust_7="13000.00000" pt_clust_8="13000.00000" pt_clust_9="77.25407"></scales>
<clustering>
<clus scale="   77.254">  1  9  2 -1</clus>
<clus scale="   81.338">  5  6 -1 -1</clus>
<clus scale="   91.119">  7  8 -1 -1</clus>
<clus scale="   99.713">  2  5  1 -1</clus>
<clus scale="   77.254">  1  5  2 -1</clus>
</clustering>
</event>
<event>
 9    2  0.6175212E-005  0.1874801E+03  0.7546771E-02  0.1195292E+00
         21   -1    0    0  501  502  0.00000000000E+00  0.00000000000E+00  0.89513165435E+02  0.89513165435E+02  0.00000000000E+00 0. -1.
          2   -1    0    0  502    0 -0.00000000000E+00 -0.00000000000E+00 -0.11529823865E+04  0.11529823865E+04  0.00000000000E+00 0. -1.
         24    2    1    2    0    0  0.11062471168E+02 -0.25649093897E+02 -0.28780680741E+02  0.90697398889E+02  0.81347626242E+02 0.  0.
         23    2    1    2    0    0 -0.16352664711E+03  0.79971021875E+02 -0.94530405974E+03  0.96690417756E+03  0.90374745220E+02 0.  0.
        -11    1    3    3    0    0 -0.40796733894E+01 -0.29897455523E+02  0.22125608912E+02  0.37417163861E+02  0.00000000000E+00 0.  1.
         12    1    3    3    0    0  0.15142144557E+02  0.42483616252E+01 -0.50906289654E+02  0.53280235027E+02  0.00000000000E+00 0. -1.
        -11    1    4    4    0    0  0.28205848441E+01  0.29160075699E+02 -0.13438545983E+03  0.13754169378E+03  0.00000000000E+00 0.  1.
         11    1    4    4    0    0 -0.16634723196E+03  0.50810946177E+02 -0.81091859991E+03  0.82936248379E+03  0.00000000000E+00 0. -1.
          1    1    1    2  501    0  0.15246417595E+03 -0.54321927978E+02 -0.89384480614E+02  0.18489397551E+03  0.00000000000E+00 0. -1.
<scales pt_clust_5="13000.00000" pt_clust_6="13000.00000" pt_clust_7="13000.00000" pt_clust_8="13000.00000" pt_clust_9="164.25951"></scales>
<clustering>
<clus scale="   81.348">  5  6 -1 -1</clus>
<clus scale="   86.010">  2  5  1 -1</clus>
<clus scale="   90.375">  7  8 -1 -1</clus>
<clus scale="  164.260">  1  9  2 -1</clus>
<clus scale="  164.260">  1  5  2 -1</clus>
</clustering>
</event>
<event>
 9    2  0.6175212E-005  0.9939060E+02  0.7546771E-02  0.1292310E+00
         21   -1    0    0  501  502  0.00000000000E+00  0.00000000000E+00  0.22678047768E+03  0.22678047768E+03  0.00000000000E+00 0. -1.
          2   -1    0    0  502    0 -0.00000000000E+00 -0.00000000000E+00 -0.59180216829E+03  0.59180216829E+03  0.00000000000E+00 0. -1.
         24    2    1    2    0    0 -0.34505603732E+01  0.27753422089E+02 -0.53916397949E+03  0.54523970936E+03  0.76199639587E+02 0.  0.
         23    2    1    2    0    0  0.60262370401E+02 -0.22073974799E+02  0.30695625194E+02  0.11895128139E+03  0.95332954890E+02 0.  0.
        -13    1    3    3    0    0 -0.19319274370E+02  0.23856372187E+02 -0.78541682774E+02  0.84327675108E+02  0.00000000000E+00 0.  1.
         14    1    3    3    0    0  0.15868713997E+02  0.38970499027E+01 -0.46062229672E+03  0.46091203425E+03  0.00000000000E+00 0. -1.
        -13    1    4    4    0    0  0.75984663839E+02 -0.35886076861E+02  0.43288397879E+02  0.94527059841E+02  0.00000000000E+00 0. -1.
         13    1    4    4    0    0 -0.15722293438E+02  0.13812102062E+02 -0.12592772684E+02  0.24424221547E+02  0.00000000000E+00 0.  1.
          1    1    1    2  501    0 -0.56811810028E+02 -0.56794472899E+01  0.14344666368E+03  0.15439165522E+03  0.00000000000E+00 0. -1.
<scales pt_clust_5="13000.00000" pt_clust_6="13000.00000" pt_clust_7="13000.00000" pt_clust_8="13000.00000" pt_clust_9="57.09499"></scales>
<clustering>
<clus scale="   57.095">  1  9  2 -1</clus>
<clus scale="   76.200">  5  6 -1 -1</clus>
<clus scale="   81.219">  2  5  1 -1</clus>
<clus scale="   95.333">  7  8 -1 -1</clus>
<clus scale="   57.095">  1  5  2 -1</clus>
</clustering>
</event>
<event>
 9    2  0.6175212E-005  0.2481016E+03  0.7546771E-02  0.1114510E+00
          2   -1    0    0  502    0 -0.00000000000E+00  0.00000000000E+00  0.64979856224E+03  0.64979856224E+03  0.00000000000E+00 0. -1.
         21   -1    0    0  501  502  0.00000000000E+00 -0.00000000000E+00 -0.96371036122E+02  0.96371036122E+02  0.00000000000E+00 0.  1.
         24    2    1    2    0    0  0.38209591665E+02 -0.11216959493E+03  0.34746394100E+03  0.37569125482E+03  0.79816901270E+02 0.  0.
         23    2    1    2    0    0 -0.15488994843E+02 -0.46241183675E+02  0.18152760194E+03  0.20859160051E+03  0.90443515564E+02 0.  0.
        -13    1    3    3    0    0  0.27614976725E+02 -0.12380520993E+03  0.30105952958E+03  0.32669122623E+03  0.00000000000E+00 0.  1.
         14    1    3    3    0    0  0.10594614940E+02  0.11635615000E+02  0.46404411419E+02  0.49000028585E+02  0.00000000000E+00 0. -1.
        -11    1    4    4    0    0  0.31609773361E+02  0.57984087350E+01  0.66119635773E+02  0.73516022407E+02  0.00000000000E+00 0.  1.
         11    1    4    4    0    0 -0.47098768204E+02 -0.52039592410E+02  0.11540796616E+03  0.13507557810E+03  0.00000000000E+00 0. -1.
          1    1    1    2  501    0 -0.22720596822E+02  0.15841077861E+03  0.24435983182E+02  0.16188674304E+03  0.00000000000E+00 0. -1.
<scales pt_clust_5="13000.00000" pt_clust_6="13000.00000" pt_clust_7="13000.00000" pt_clust_8="13000.00000" pt_clust_9="160.03187"></scales>
<clustering>
<clus scale="   79.817">  5  6 -1 -1</clus>
<clus scale="   90.444">  7  8 -1 -1</clus>
<clus scale="   95.694">  5  7 -1 -1</clus>
<clus scale="  160.032">  2  9  1 -1</clus>
<clus scale="  160.032">  2  5  1 -1</clus>
</clustering>
</event>
<event>
 9    2  0.6175212E-005  0.9184648E+02  0.7546771E-02  0.1306141E+00
          4   -1    0    0  502    0 -0.00000000000E+00  0.00000000000E+00  0.22244177023E+03  0.22244177023E+03  0.00000000000E+00 0. -1.
         21   -1    0    0  501  502  0.00000000000E+00 -0.00000000000E+00 -0.10102620072E+03  0.10102620072E+03  0.00000000000E+00 0. -1.
         23    2    1    2    0    0 -0.30727258260E+02  0.10600472587E+02  0.13251709614E+03  0.16358351389E+03  0.90234421528E+02 0.  0.
         24    2    1    2    0    0 -0.30336801296E+01  0.10141162377E+02  0.45488618098E+02  0.90801457237E+02  0.77869402659E+02 0.  0.
        -13    1    4    4    0    0  0.36959064027E+02  0.62840054188E+01  0.15060937063E+02  0.40401645549E+02  0.00000000000E+00 0.  1.
         14    1    4    4    0    0 -0.39992744157E+02  0.38571569578E+01  0.30427681035E+02  0.50399811688E+02  0.00000000000E+00 0. -1.
        -13    1    3    3    0    0 -0.22372855118E+02 -0.30056504747E+02  0.11033061733E+03  0.11651945436E+03  0.00000000000E+00 0. -1.
         13    1    3    3    0    0 -0.83544031416E+01  0.40656977334E+02  0.22186478814E+02  0.47064059535E+02  0.00000000000E+00 0.  1.
          3    1    1    2  501    0  0.33760938389E+02 -0.20741634963E+02 -0.56590144733E+02  0.69082999810E+02  0.00000000000E+00 0. -1.
<scales pt_clust_5="13000.00000" pt_clust_6="13000.00000" pt_clust_7="13000.00000" pt_clust_8="13000.00000" pt_clust_9="39.62343"></scales>
<clustering>
<clus scale="   39.623">  2  9  1 -1</clus>
<clus scale="   77.869">  5  6 -1 -1</clus>
<clus scale="   79.732">  2  5  1 -1</clus>
<clus scale="   90.234">  7  8 -1 -1</clus>
<clus scale="   39.623">  2  5  1 -1</clus>
</clustering>
</event>
<event>
 9    2  0.6175212E-005  0.2531592E+03  0.7546771E-02  0.1118896E+00
         21   -1    0    0  501  502  0.00000000000E+00  0.00000000000E+00  0.43612352624E+03  0.43612352624E+03  0.00000000000E+00 0. -1.
         -1   -1    0    0    0  501 -0.00000000000E+00 -0.00000000000E+00 -0.47519213504E+03  0.47519213504E+03  0.00000000000E+00 0.  1.
         24    2    1    2    0    0 -0.26562011085E+02  0.19045352069E+03 -0.11114823488E+03  0.23683175050E+03  0.82202578739E+02 0.  0.
         23    2    1    2    0    0  0.10823899954E+03  0.17710947699E+03  0.17257813561E+03  0.28477422637E+03  0.90717689847E+02 0.  0.
        -13    1    3    3    0    0 -0.18560981746E+02  0.15963564198E+02  0.75794695050E+01  0.25627988280E+02  0.00000000000E+00 0.  1.
         14    1    3    3    0    0 -0.80010293389E+01  0.17448995649E+03 -0.11872770439E+03  0.21120376222E+03  0.00000000000E+00 0. -1.
        -11    1    4    4    0    0  0.81344480562E+02  0.15157597263E+03  0.89763262835E+02  0.19403516009E+03  0.00000000000E+00 0.  1.
         11    1    4    4    0    0  0.26894518981E+02  0.25533504363E+02  0.82814872780E+02  0.90739066282E+02  0.00000000000E+00 0. -1.
         -2    1    1    2    0  502 -0.81676988457E+02 -0.36756299768E+03 -0.10049850953E+03  0.38970968441E+03  0.00000000000E+00 0.  1.
<scales pt_clust_5="13000.00000" pt_clust_6="13000.00000" pt_clust_7="13000.00000" pt_clust_8="13000.00000" pt_clust_9="236.34702"></scales>
<clustering>
<clus scale="   82.203">  5  6 -1 -1</clus>
<clus scale="   90.718">  7  8 -1 -1</clus>
<clus scale="  209.130">  2  5  1 -1</clus>
<clus scale="  236.347">  1  9  2 -1</clus>
<clus scale="  236.347">  1  5  2 -1</clus>
</clustering>
</event>
<event>
 9    2  0.6175212E-005  0.1051158E+03  0.7546771E-02  0.1274394E+00
         21   -1    0    0  501  502  0.00000000000E+00  0.00000000000E+00  0.36345796490E+02  0.36345796490E+02  0.00000000000E+00 0.  1.
          4   -1    0    0  502    0 -0.00000000000E+00 -0.00000000000E+00 -0.72930831272E+03  0.72930831272E+03  0.00000000000E+00 0. -1.
         24    2    1    2    0    0 -0.34987048965E+02 -0.42651724860E+02 -0.54856669647E+03  0.55719210360E+03  0.80587571041E+02 0.  0.
         23    2    1    2    0    0  0.54135049978E+02  0.41191505943E+01 -0.88785770867E+02  0.13814925599E+03  0.90855560001E+02 0.  0.
        -13    1    3    3    0    0  0.24739502623E+02 -0.17885379908E+02 -0.12245912562E+03  0.12620684312E+03  0.00000000000E+00 0.  1.
         14    1    3    3    0    0 -0.59726551588E+02 -0.24766344952E+02 -0.42610757085E+03  0.43098526047E+03  0.00000000000E+00 0. -1.
        -11    1    4    4    0    0 -0.61932916409E+01  0.35866301462E+02 -0.41410402675E+02  0.55132294453E+02  0.00000000000E+00 0. -1.
         11    1    4    4    0    0  0.60328341619E+02 -0.31747150868E+02 -0.47375368192E+02  0.83016961533E+02  0.00000000000E+00 0.  1.
          3    1    1    2  501    0 -0.19148001013E+02  0.38532574266E+02 -0.55610048889E+02  0.70312749625E+02  0.00000000000E+00 0. -1.
<scales pt_clust_5="13000.00000" pt_clust_6="13000.00000" pt_clust_7="13000.00000" pt_clust_8="13000.00000" pt_clust_9="43.02796"></scales>
<clustering>
<clus scale="   43.028">  1  9  2 -1</clus>
<clus scale="   80.588">  5  6 -1 -1</clus>
<clus scale="   90.856">  7  8 -1 -1</clus>
<clus scale="   96.379">  2  5  1 -1</clus>
<clus scale="   43.028">  1  5  2 -1</clus>
</clustering>
</event>
<event>
 9    2  0.6175212E-005  0.2834881E+03  0.7546771E-02  0.1093799E+00
          2   -1    0    0  502    0 -0.00000000000E+00  0.00000000000E+00  0.64966139615E+03  0.64966139615E+03  0.00000000000E+00 0. -1.
         21   -1    0    0  501  502  0.00000000000E+00 -0.00000000000E+00 -0.99473860942E+02  0.99473860942E+02  0.00000000000E+00 0. -1.
         24    2    1    2    0    0 -0.10515613054E+03  0.23557646456E+02  0.17664163969E+03  0.22330417118E+03  0.83962548163E+02 0.  0.
         23    2    1    2    0    0 -0.11602891696E+03 -0.93416972420E+00  0.16892073416E+03  0.22366208751E+03  0.89593151051E+02 0.  0.
        -13    1    3    3    0    0 -0.23029874736E+02 -0.42068339654E+01  0.11392193891E+03  0.11630253973E+03  0.00000000000E+00 0.  1.
         14    1    3    3    0    0 -0.82126255809E+02  0.27764480422E+02  0.62719700781E+02  0.10700163145E+03  0.00000000000E+00 0. -1.
        -13    1    4    4    0    0 -0.51760946468E+02  0.30672765915E+02  0.12736123923E+03  0.14085772754E+03  0.00000000000E+00 0.  1.
         13    1    4    4    0    0 -0.64267970492E+02 -0.31606935639E+02  0.41559494930E+02  0.82804359972E+02  0.00000000000E+00 0. -1.
          1    1    1    2  501    0  0.22118504751E+03 -0.22623476732E+02  0.20462516136E+03  0.30216899841E+03  0.00000000000E+00 0. -1.
<scales pt_clust_5="13000.00000" pt_clust_6="13000.00000" pt_clust_7="13000.00000" pt_clust_8="13000.00000" pt_clust_9="222.33904"></scales>
<clustering>
<clus scale="   83.963">  5  6 -1 -1</clus>
<clus scale="   89.593">  7  8 -1 -1</clus>
<clus scale="   93.693">  5  7 -1 -1</clus>
<clus scale="  222.339">  2  9  1 -1</clus>
<clus scale="  222.339">  2  5  1 -1</clus>
</clustering>
</event>
<event>
 9    2  0.6175212E-005  0.1211305E+03  0.7546771E-02  0.1244552E+00
         21   -1    0    0  501  502  0.00000000000E+00  0.00000000000E+00  0.86019867466E+02  0.86019867466E+02  0.00000000000E+00 0.  1.
          2   -1    0    0  502    0 -0.00000000000E+00 -0.00000000000E+00 -0.58448492515E+03  0.58448492515E+03  0.00000000000E+00 0. -1.
         24    2    1    2    0    0 -0.84480294831E+02  0.14244369970E+02 -0.49695815915E+03  0.51063132932E+03  0.80231666135E+02 0.  0.
         23    2    1    2    0    0  0.37064125028E+02 -0.35303508167E+02 -0.16950264385E+02  0.10574142095E+03  0.90960703539E+02 0.  0.
        -13    1    3    3    0    0 -0.46626952127E+02 -0.12512880046E+02 -0.10073551257E+03  0.11170625911E+03  0.00000000000E+00 0.  1.
         14    1    3    3    0    0 -0.37853342704E+02  0.26757250016E+02 -0.39622264658E+03  0.39892507021E+03  0.00000000000E+00 0. -1.
        -13    1    4    4    0    0 -0.23211911159E+02  0.19028928390E+00  0.16227009110E+02  0.28322161893E+02  0.00000000000E+00 0.  1.
         13    1    4    4    0    0  0.60276036187E+02 -0.35493797451E+02 -0.33177273495E+02  0.77419259054E+02  0.00000000000E+00 0. -1.
          1    1    1    2  501    0  0.47416169803E+02  0.21059138197E+02  0.15443365845E+02  0.54132042350E+02  0.00000000000E+00 0. -1.
<scales pt_clust_5="13000.00000" pt_clust_6="13000.00000" pt_clust_7="13000.00000" pt_clust_8="13000.00000" pt_clust_9="51.88237"></scales>
<clustering>
<clus scale="   51.882">  1  9  2 -1</clus>
<clus scale="   80.232">  5  6 -1 -1</clus>
<clus scale="   90.961">  7  8 -1 -1</clus>
<clus scale="  113.295">  2  5  1 -1</clus>
<clus scale="   51.882">  1  5  2 -1</clus>
</clustering>
</event>
<event>
 9    2  0.6175212E-005  0.1897906E+03  0.7546771E-02  0.1186418E+00
          2   -1    0    0  502    0 -0.00000000000E+00  0.00000000000E+00  0.16685214136E+03  0.16685214136E+03  0.00000000000E+00 0. -1.
         21   -1    0    0  501  502  0.00000000000E+00 -0.00000000000E+00 -0.44193215743E+03  0.44193215743E+03  0.00000000000E+00 0. -1.
         24    2    1    2    0    0  0.65083232756E+02  0.17627677562E+02 -0.88255702259E+02  0.13400261268E+03  0.74973788894E+02 0.  0.
         23    2    1    2    0    0  0.40365833875E+02 -0.15285191803E+03  0.43798999834E+02  0.18739307524E+03  0.90579814930E+02 0.  0.
        -11    1    3    3    0    0 -0.14118612843E+02  0.16154138839E+02 -0.15753566059E+02  0.26617029771E+02  0.00000000000E+00 0.  1.
         12    1    3    3    0    0  0.79201845599E+02  0.14735387232E+01 -0.72502136201E+02  0.10738558291E+03  0.00000000000E+00 0. -1.
        -11    1    4    4    0    0  0.41357868491E+00 -0.68473565177E+02 -0.23401881272E+02  0.72363307155E+02  0.00000000000E+00 0.  1.
         11    1    4    4    0    0  0.39952255190E+02 -0.84378352853E+02  0.67200881106E+02  0.11502976809E+03  0.00000000000E+00 0. -1.
          1    1    1    2  501    0 -0.10544906663E+03  0.13522424047E+03 -0.23062331365E+03  0.28738861088E+03  0.00000000000E+00 0. -1.
<scales pt_clust_5="13000.00000" pt_clust_6="13000.00000" pt_clust_7="13000.00000" pt_clust_8="13000.00000" pt_clust_9="166.78062"></scales>
<clustering>
<clus scale="   74.974">  5  6 -1 -1</clus>
<clus scale="   90.580">  7  8 -1 -1</clus>
<clus scale="  100.835">  1  5  2 -1</clus>
<clus scale="  166.781">  2  9  1 -1</clus>
<clus scale="  166.781">  2  5  1 -1</clus>
</clustering>
</event>
<event>
 9    2  0.6175212E-005  0.9517283E+02  0.7546771E-02  0.1296346E+00
         21   -1    0    0  501  502  0.00000000000E+00  0.00000000000E+00  0.39876362892E+02  0.39876362892E+02  0.00000000000E+00 0. -1.
          2   -1    0    0  502    0 -0.00000000000E+00 -0.00000000000E+00 -0.42650040347E+03  0.42650040347E+03  0.00000000000E+00 0. -1.
         23    2    1    2    0    0  0.21104603198E+02 -0.17885640782E+02 -0.25768029350E+03  0.27411839101E+03  0.89311019545E+02 0.  0.
         24    2    1    2    0    0 -0.39930898008E+02  0.33161536382E+02 -0.45007920000E+02  0.10489130243E+03  0.79261014072E+02 0.  0.
        -11    1    4    4    0    0 -0.56958089283E+02 -0.52716003675E+00 -0.28490945785E+02  0.63688584724E+02  0.00000000000E+00 0.  1.
         12    1    4    4    0    0  0.17027191275E+02  0.33688696419E+02 -0.16516974215E+02  0.41202717706E+02  0.00000000000E+00 0. -1.
        -13    1    3    3    0    0  0.46454559677E+02  0.17752359746E+02 -0.14068411070E+03  0.14921525188E+03  0.00000000000E+00 0. -1.
         13    1    3    3    0    0 -0.25349956479E+02 -0.35638000527E+02 -0.11699618280E+03  0.12490313913E+03  0.00000000000E+00 0.  1.
          1    1    1    2  501    0  0.18826294810E+02 -0.15275895600E+02 -0.83935827077E+02  0.87367072916E+02  0.00000000000E+00 0. -1.
<scales pt_clust_5="13000.00000" pt_clust_6="13000.00000" pt_clust_7="13000.00000" pt_clust_8="13000.00000" pt_clust_9="24.24424"></scales>
<clustering>
<clus scale="   24.244">  1  9  2 -1</clus>
<clus scale="   79.261">  5  6 -1 -1</clus>
<clus scale="   85.812">  1  5  2 -1</clus>
<clus scale="   89.311">  7  8 -1 -1</clus>
<clus scale="   24.244">  1  5  2 -1</clus>
</clustering>
</event>
<event>
 9    2  0.6175212E-005  0.1302974E+03  0.7546771E-02  0.1249710E+00
          2   -1    0    0  502    0 -0.00000000000E+00  0.00000000000E+00  0.14655641401E+04  0.14655641401E+04  0.00000000000E+00 0. -1.
         21   -1    0    0  501  502  0.00000000000E+00 -0.00000000000E+00 -0.17349128486E+02  0.17349128486E+02  0.00000000000E+00 0. -1.
         24    2    1    2    0    0  0.96609756532E+01  0.49654975532E+01  0.49739558121E+03  0.50412144853E+03  0.81351582934E+02 0.  0.
         23    2    1    2    0    0  0.55630121896E+02  0.68139967195E+02  0.41432300125E+03  0.43341511090E+03  0.91909430413E+02 0.  0.
        -13    1    3    3    0    0  0.36753812307E+02 -0.21845519724E+02  0.21965054617E+03  0.22377317061E+03  0.00000000000E+00 0.  1.
         14    1    3    3    0    0 -0.27092836654E+02  0.26811017277E+02  0.27774503503E+03  0.28034827792E+03  0.00000000000E+00 0. -1.
        -11    1    4    4    0    0  0.52953289615E+02  0.89891271713E+02  0.36074619125E+03  0.37552936784E+03  0.00000000000E+00 0. -1.
         11    1    4    4    0    0  0.26768322811E+01 -0.21751304518E+02  0.53576810004E+02  0.57885743059E+02  0.00000000000E+00 0.  1.
          1    1    1    2  501    0 -0.65291097549E+02 -0.73105464748E+02  0.53649642912E+03  0.54537670912E+03  0.00000000000E+00 0. -1.
<scales pt_clust_5="13000.00000" pt_clust_6="13000.00000" pt_clust_7="13000.00000" pt_clust_8="13000.00000" pt_clust_9="92.35838"></scales>
<clustering>
<clus scale="   81.352">  5  6 -1 -1</clus>
<clus scale="   82.074">  1  5  2 -1</clus>
<clus scale="   91.909">  7  8 -1 -1</clus>
<clus scale="   92.358">  2  9  1 -1</clus>
<clus scale="   92.358">  2  5  1 -1</clus>
</clustering>
</event>
<event>
 9    2  0.6175212E-005  0.1465131E+03  0.7546771E-02  0.1207653E+00
         -3   -1    0    0    0  501 -0.00000000000E+00  0.00000000000E+00  0.85982276216E+03  0.85982276216E+03  0.00000000000E+00 0.  1.
         21   -1    0    0  501  502  0.00000000000E+00 -0.00000000000E+00 -0.61051663528E+02  0.61051663528E+02  0.00000000000E+00 0.  1.
         24    2    1    2    0    0  0.11367149202E+03 -0.47753266581E+02  0.23245032294E+03  0.27705745243E+03  0.86753079177E+02 0.  0.
         23    2    1    2    0    0 -0.50256388475E+02  0.77091842188E+02  0.91265895228E+02  0.16365099484E+03  0.99916604051E+02 0.  0.
        -11    1    3    3    0    0  0.81940871922E+02 -0.67322767785E+02  0.12841594514E+03  0.16654523866E+03  0.00000000000E+00 0.  1.
         12    1    3    3    0    0  0.31730620101E+02  0.19569501204E+02  0.10403437780E+03  0.11051221378E+03  0.00000000000E+00 0. -1.
        -13    1    4    4    0    0 -0.49377085837E+02  0.97084186369E+02  0.54504386735E+02  0.12179558293E+03  0.00000000000E+00 0.  1.
         13    1    4    4    0    0 -0.87930263796E+00 -0.19992344181E+02  0.36761508493E+02  0.41855411904E+02  0.00000000000E+00 0. -1.
         -4    1    1    2    0  502 -0.63415103548E+02 -0.29338575607E+02  0.47505488046E+03  0.48016597841E+03  0.00000000000E+00 0.  1.
<scales pt_clust_5="13000.00000" pt_clust_6="13000.00000" pt_clust_7="13000.00000" pt_clust_8="13000.00000" pt_clust_9="69.87297"></scales>
<clustering>
<clus scale="   69.873">  2  9  1 -1</clus>
<clus scale="   86.753">  5  6 -1 -1</clus>
<clus scale="   99.917">  7  8 -1 -1</clus>
<clus scale="  137.873">  1  5  2 -1</clus>
<clus scale="   69.873">  2  5  1 -1</clus>
</clustering>
</event>
<event>
 9    2  0.6175212E-005  0.1225392E+03  0.7546771E-02  0.1242863E+00
         21   -1    0    0  501  502  0.00000000000E+00  0.00000000000E+00  0.40753947453E+03  0.40753947453E+03  0.00000000000E+00 0. -1.
         -3   -1    0    0    0  501 -0.00000000000E+00 -0.00000000000E+00 -0.60170722606E+02  0.60170722606E+02  0.00000000000E+00 0.  1.
         23    2    1    2    0    0  0.77562334782E+02 -0.39535658928E+02  0.55000905058E+02  0.14132028677E+03  0.96785018432E+02 0.  0.
         24    2    1    2    0    0 -0.48126135338E+02  0.61175373767E+01  0.22906881299E+03  0.24899463676E+03  0.84689189901E+02 0.  0.
        -11    1    4    4    0    0  0.18040989055E+02 -0.17962073060E+02  0.42002983147E+02  0.49115821768E+02  0.00000000000E+00 0.  1.
         12    1    4    4    0    0 -0.66167124393E+02  0.24079610437E+02  0.18706582984E+03  0.19987881500E+03  0.00000000000E+00 0. -1.
        -11    1    3    3    0    0  0.85170467201E+02 -0.19467622736E+02  0.57026496074E+01  0.87552938448E+02  0.00000000000E+00 0.  1.
         11    1    3    3    0    0 -0.76081324196E+01 -0.20068036192E+02  0.49298255451E+02  0.53767348326E+02  0.00000000000E+00 0. -1.
         -4    1    1    2    0  502 -0.29436199444E+02  0.33418121551E+02  0.63299033872E+02  0.77395273595E+02  0.00000000000E+00 0.  1.
<scales pt_clust_5="13000.00000" pt_clust_6="13000.00000" pt_clust_7="13000.00000" pt_clust_8="13000.00000" pt_clust_9="44.53382"></scales>
<clustering>
<clus scale="   44.534">  1  9  2 -1</clus>
<clus scale="   84.689">  5  6 -1 -1</clus>
<clus scale="   96.785">  7  8 -1 -1</clus>
<clus scale="  113.229">  1  5  2 -1</clus>
<clus scale="   44.534">  1  5  2 -1</clus>
</clustering>
</event>
<event>
 9    2  0.6175212E-005  0.9727155E+02  0.7546771E-02  0.1292884E+00
         21   -1    0    0  501  502  0.00000000000E+00  0.00000000000E+00  0.17013417003E+03  0.17013417003E+03  0.00000000000E+00 0.  1.
          2   -1    0    0  502    0 -0.00000000000E+00 -0.00000000000E+00 -0.11656864688E+03  0.11656864688E+03  0.00000000000E+00 0. -1.
         24    2    1    2    0    0  0.19095115693E+01  0.26996568113E+02 -0.40138881908E+02  0.92563216489E+02  0.78894602361E+02 0.  0.
         23    2    1    2    0    0 -0.12255031966E+02 -0.45691925481E+02  0.50672118080E+01  0.10296340721E+03  0.91311821399E+02 0.  0.
        -11    1    3    3    0    0  0.38534060282E+02  0.23017515629E+01 -0.24415687210E+02  0.45676007313E+02  0.00000000000E+00 0.  1.
         12    1    3    3    0    0 -0.36624548713E+02  0.24694816550E+02 -0.15723194698E+02  0.46887209176E+02  0.00000000000E+00 0. -1.
        -13    1    4    4    0    0  0.16016139562E+02 -0.32147427616E+02 -0.36296523080E+02  0.51062818337E+02  0.00000000000E+00 0. -1.
         13    1    4    4    0    0 -0.28271171527E+02 -0.13544497865E+02  0.41363734888E+02  0.51900588878E+02  0.00000000000E+00 0.  1.
          1    1    1    2  501    0  0.10345520396E+02  0.18695357368E+02  0.88637193254E+02  0.91176193204E+02  0.00000000000E+00 0. -1.
<scales pt_clust_5="13000.00000" pt_clust_6="13000.00000" pt_clust_7="13000.00000" pt_clust_8="13000.00000" pt_clust_9="21.36694"></scales>
<clustering>
<clus scale="   21.367">  1  9  2 -1</clus>
<clus scale="   78.895">  5  6 -1 -1</clus>
<clus scale="   85.722">  2  5  1 -1</clus>
<clus scale="   91.312">  7  8 -1 -1</clus>
<clus scale="   21.367">  1  5  2 -1</clus>
</clustering>
</event>
<event>
 9    2  0.6175212E-005  0.2462053E+03  0.7546771E-02  0.1116433E+00
         21   -1    0    0  501  502  0.00000000000E+00  0.00000000000E+00  0.74548269783E+02  0.74548269783E+02  0.00000000000E+00 0. -1.
          2   -1    0    0  502    0 -0.00000000000E+00 -0.00000000000E+00 -0.15694046820E+04  0.15694046820E+04  0.00000000000E+00 0. -1.
         23    2    1    2    0    0  0.77249128514E+02 -0.17295191286E+03 -0.60497874117E+03  0.64048239369E+03  0.91316084836E+02 0.  0.
         24    2    1    2    0    0 -0.99379524833E+02  0.30467152172E+03 -0.62149528770E+03  0.70368911522E+03  0.78873012707E+02 0.  0.
        -11    1    4    4    0    0 -0.73938114124E+02  0.10523437477E+03 -0.22641682798E+03  0.26039527328E+03  0.00000000000E+00 0.  1.
         12    1    4    4    0    0 -0.25441410709E+02  0.19943714695E+03 -0.39507845972E+03  0.44329384194E+03  0.00000000000E+00 0. -1.
        -11    1    3    3    0    0  0.19391866694E+02 -0.11711402216E+03 -0.25341646734E+03  0.27984217802E+03  0.00000000000E+00 0.  1.
         11    1    3    3    0    0  0.57857261821E+02 -0.55837890707E+02 -0.35156227383E+03  0.36064021568E+03  0.00000000000E+00 0. -1.
          1    1    1    2  501    0  0.22130396319E+02 -0.13171960886E+03 -0.26838238336E+03  0.29978144289E+03  0.00000000000E+00 0. -1.
<scales pt_clust_5="13000.00000" pt_clust_6="13000.00000" pt_clust_7="13000.00000" pt_clust_8="13000.00000" pt_clust_9="133.56575"></scales>
<clustering>
<clus scale="   78.873">  5  6 -1 -1</clus>
<clus scale="   91.316">  7  8 -1 -1</clus>
<clus scale="  133.566">  1  9  2 -1</clus>
<clus scale="  241.866">  1  5  2 -1</clus>
<clus scale="  133.566">  1  5  2 -1</clus>
</clustering>
</event>
<event>
 9    2  0.6175212E-005  0.1258213E+03  0.7546771E-02  0.1250512E+00
          2   -1    0    0  502    0 -0.00000000000E+00  0.00000000000E+00  0.10131242627E+04  0.10131242627E+04  0.00000000000E+00 0. -1.
         21   -1    0    0  501  502  0.00000000000E+00 -0.00000000000E+00 -0.26032065360E+02  0.26032065360E+02  0.00000000000E+00 0. -1.
         24    2    1    2    0    0  0.15165424018E+02  0.30056688558E+02  0.47575782910E+03  0.48413999064E+03  0.83142191252E+02 0.  0.
         23    2    1    2    0    0  0.73715777339E+02 -0.45868768661E+02  0.29342783930E+03  0.31914954200E+03  0.90656348458E+02 0.  0.
        -11    1    3    3    0    0 -0.11187935008E+02  0.47237145231E+02  0.17082108753E+03  0.17758480150E+03  0.00000000000E+00 0.  1.
         12    1    3    3    0    0  0.26353359026E+02 -0.17180456673E+02  0.30493674157E+03  0.30655518913E+03  0.00000000000E+00 0. -1.
        -13    1    4    4    0    0  0.51803992111E+02 -0.28519300288E+02  0.28332550163E+03  0.28943106945E+03  0.00000000000E+00 0.  1.
         13    1    4    4    0    0  0.21911785228E+02 -0.17349468373E+02  0.10102337676E+02  0.29718472559E+02  0.00000000000E+00 0. -1.
          1    1    1    2  501    0 -0.88881201357E+02  0.15812080103E+02  0.21790652898E+03  0.23586679547E+03  0.00000000000E+00 0. -1.
<scales pt_clust_5="13000.00000" pt_clust_6="13000.00000" pt_clust_7="13000.00000" pt_clust_8="13000.00000" pt_clust_9="87.24926"></scales>
<clustering>
<clus scale="   83.142">  5  6 -1 -1</clus>
<clus scale="   89.700">  1  5  2 -1</clus>
<clus scale="   87.249">  2  9  1 -1</clus>
<clus scale="   90.656">  7  8 -1 -1</clus>
<clus scale="   87.249">  2  5  1 -1</clus>
</clustering>
</event>
<event>
 9    2  0.6175212E-005  0.9575660E+02  0.7546771E-02  0.1290569E+00
          2   -1    0    0  502    0 -0.00000000000E+00  0.00000000000E+00  0.93624697653E+03  0.93624697653E+03  0.00000000000E+00 0. -1.
         21   -1    0    0  501  502  0.00000000000E+00 -0.00000000000E+00 -0.37185421320E+02  0.37185421320E+02  0.00000000000E+00 0. -1.
         24    2    1    2    0    0  0.42407130252E+02 -0.31332235754E+02  0.64473833166E+03  0.65179316255E+03  0.79791833836E+02 0.  0.
         23    2    1    2    0    0 -0.77801042007E+01  0.51741846928E+02  0.26307954404E+03  0.28050219225E+03  0.82054156643E+02 0.  0.
        -11    1    3    3    0    0 -0.18008206869E+02 -0.19399133070E+02  0.95074590415E+02  0.98690423148E+02  0.00000000000E+00 0.  1.
         12    1    3    3    0    0  0.60415337122E+02 -0.11933102684E+02  0.54966374125E+03  0.55310273941E+03  0.00000000000E+00 0. -1.
        -11    1    4    4    0    0  0.85492828216E+01  0.66065044830E+02  0.13441322551E+03  0.15001531781E+03  0.00000000000E+00 0. -1.
         11    1    4    4    0    0 -0.16329387022E+02 -0.14323197902E+02  0.12866631853E+03  0.13048687445E+03  0.00000000000E+00 0.  1.
          1    1    1    2  501    0 -0.34627026052E+02 -0.20409611174E+02 -0.87563204922E+01  0.41137043039E+02  0.00000000000E+00 0. -1.
<scales pt_clust_5="13000.00000" pt_clust_6="13000.00000" pt_clust_7="13000.00000" pt_clust_8="13000.00000" pt_clust_9="40.19432"></scales>
<clustering>
<clus scale="   40.194">  2  9  1 -1</clus>
<clus scale="   79.792">  5  6 -1 -1</clus>
<clus scale="   82.054">  7  8 -1 -1</clus>
<clus scale="   93.825">  1  5  2 -1</clus>
<clus scale="   40.194">  2  5  1 -1</clus>
</clustering>
</event>
<event>
 9    2  0.6175212E-005  0.8226080E+02  0.7546771E-02  0.1326887E+00
         21   -1    0    0  501  502  0.00000000000E+00  0.00000000000E+00  0.13365969667E+03  0.13365969667E+03  0.00000000000E+00 0.  1.
         -1   -1    0    0    0  501 -0.00000000000E+00 -0.00000000000E+00 -0.74971936578E+02  0.74971936578E+02  0.00000000000E+00 0.  1.
         24    2    1    2    0    0  0.13862313554E+02 -0.34015060289E+02  0.16168373493E+02  0.89461378001E+02  0.79954573283E+02 0.  0.
         23    2    1    2    0    0  0.77920839005E+00  0.46148072448E+00  0.34852146874E+02  0.81767000960E+02  0.73961815649E+02 0.  0.
        -13    1    3    3    0    0  0.15555735031E+02 -0.58827644773E+02  0.20957380572E+01  0.60885669906E+02  0.00000000000E+00 0.  1.
         14    1    3    3    0    0 -0.16934214770E+01  0.24812584483E+02  0.14072635436E+02  0.28575708095E+02  0.00000000000E+00 0. -1.
        -13    1    4    4    0    0  0.24207858073E+02 -0.27124622757E+02  0.94947768638E+01  0.37575475245E+02  0.00000000000E+00 0. -1.
         13    1    4    4    0    0 -0.23428649683E+02  0.27586103481E+02  0.25357370010E+02  0.44191525715E+02  0.00000000000E+00 0.  1.
         -2    1    1    2    0  502 -0.14641521944E+02  0.33553579565E+02  0.76672397275E+01  0.37403254290E+02  0.00000000000E+00 0.  1.
<scales pt_clust_5="13000.00000" pt_clust_6="13000.00000" pt_clust_7="13000.00000" pt_clust_8="13000.00000" pt_clust_9="36.60899"></scales>
<clustering>
<clus scale="   36.609">  1  9  2 -1</clus>
<clus scale="   73.962">  7  8 -1 -1</clus>
<clus scale="   76.449">  1  7  2 -1</clus>
<clus scale="   79.955">  5  6 -1 -1</clus>
<clus scale="   36.609">  1  5  2 -1</clus>
</clustering>
</event>
<event>
 9    2  0.6175212E-005  0.1208067E+03  0.7546771E-02  0.1245320E+00
         21   -1    0    0  501  502  0.00000000000E+00  0.00000000000E+00  0.41742796330E+03  0.41742796330E+03  0.00000000000E+00 0. -1.
         -1   -1    0    0    0  501 -0.00000000000E+00 -0.00000000000E+00 -0.90308414219E+02  0.90308414219E+02  0.00000000000E+00 0.  1.
         23    2    1    2    0    0  0.58043736908E+02  0.63368553332E+02  0.24008056507E+02  0.12833152004E+03  0.92238513173E+02 0.  0.
         24    2    1    2    0    0  0.37446497240E+02 -0.92300819147E+02  0.17383892710E+03  0.21610495850E+03  0.80991969616E+02 0.  0.
        -11    1    4    4    0    0 -0.24643443710E+02 -0.31844536617E+02  0.40750456323E+02  0.57288511246E+02  0.00000000000E+00 0.  1.
         12    1    4    4    0    0  0.62089940950E+02 -0.60456282530E+02  0.13308847078E+03  0.15881644725E+03  0.00000000000E+00 0. -1.
        -11    1    3    3    0    0  0.61067778990E+02  0.84573894860E+02  0.23367340804E+02  0.10690205769E+03  0.00000000000E+00 0.  1.
         11    1    3    3    0    0 -0.30240420817E+01 -0.21205341528E+02  0.64071570259E+00  0.21429462346E+02  0.00000000000E+00 0. -1.
         -2    1    1    2    0  502 -0.95490234148E+02  0.28932265815E+02  0.12927256548E+03  0.16329989898E+03  0.00000000000E+00 0.  1.
<scales pt_clust_5="13000.00000" pt_clust_6="13000.00000" pt_clust_7="13000.00000" pt_clust_8="13000.00000" pt_clust_9="99.77706"></scales>
<clustering>
<clus scale="   80.992">  5  6 -1 -1</clus>
<clus scale="   92.239">  7  8 -1 -1</clus>
<clus scale="   99.777">  1  9  2 -1</clus>
<clus scale="  112.454">  1  5  2 -1</clus>
<clus scale="   99.777">  1  5  2 -1</clus>
</clustering>
</event>
<event>
 9    2  0.6175212E-005  0.2320533E+03  0.7546771E-02  0.1125895E+00
         -3   -1    0    0    0  501 -0.00000000000E+00  0.00000000000E+00  0.65451269061E+03  0.65451269061E+03  0.00000000000E+00 0.  1.
         21   -1    0    0  501  502  0.00000000000E+00 -0.00000000000E+00 -0.98182067633E+02  0.98182067633E+02  0.00000000000E+00 0.  1.
         23    2    1    2    0    0  0.21456156113E+03 -0.59035692502E+02  0.33518199805E+03  0.41248953104E+03  0.90987718393E+02 0.  0.
         24    2    1    2    0    0 -0.20188989887E+03  0.21313969201E+02  0.18020847756E+03  0.28311236337E+03  0.80397129061E+02 0.  0.
        -11    1    4    4    0    0 -0.93977640961E+02  0.57285391979E+01  0.32672713634E+02  0.99660018955E+02  0.00000000000E+00 0.  1.
         12    1    4    4    0    0 -0.10791225791E+03  0.15585430003E+02  0.14753576392E+03  0.18345234442E+03  0.00000000000E+00 0. -1.
        -11    1    3    3    0    0  0.19351594184E+03 -0.22570603893E+02  0.24547710773E+03  0.31339569609E+03  0.00000000000E+00 0.  1.
         11    1    3    3    0    0  0.21045619288E+02 -0.36465088609E+02  0.89704890317E+02  0.99093834951E+02  0.00000000000E+00 0. -1.
         -4    1    1    2    0  502 -0.12671662259E+02  0.37721723302E+02  0.40940147371E+02  0.57092863827E+02  0.00000000000E+00 0.  1.
<scales pt_clust_5="13000.00000" pt_clust_6="13000.00000" pt_clust_7="13000.00000" pt_clust_8="13000.00000" pt_clust_9="39.79321"></scales>
<clustering>
<clus scale="   39.793">  2  9  1 -1</clus>
<clus scale="   80.397">  5  6 -1 -1</clus>
<clus scale="   90.988">  7  8 -1 -1</clus>
<clus scale="  228.109">  2  5  1 -1</clus>
<clus scale="   39.793">  2  5  1 -1</clus>
</clustering>
</event>
<event>
 9    2  0.6175212E-005  0.1689951E+03  0.7546771E-02  0.1180588E+00
          2   -1    0    0  502    0 -0.00000000000E+00  0.00000000000E+00  0.23736607458E+03  0.23736607458E+03  0.00000000000E+00 0. -1.
         21   -1    0    0  501  502  0.00000000000E+00 -0.00000000000E+00 -0.46846176242E+03  0.46846176242E+03  0.00000000000E+00 0. -1.
         24    2    1    2    0    0  0.68929090738E+02 -0.14317280653E+03  0.14271075880E+03  0.22828004240E+03  0.80596184779E+02 0.  0.
         23    2    1    2    0    0 -0.11764931176E+03  0.74528245258E+01 -0.15635585687E+03  0.21662954601E+03  0.92651503370E+02 0.  0.
        -13    1    3    3    0    0  0.25036378328E+02 -0.19196594229E+02 -0.33589753534E+01  0.31727152176E+02  0.00000000000E+00 0.  1.
         14    1    3    3    0    0  0.43892712410E+02 -0.12397621230E+03  0.14606973416E+03  0.19655289023E+03  0.00000000000E+00 0. -1.
        -13    1    4    4    0    0 -0.75797955340E+02 -0.21902859940E+02 -0.37727448825E+02  0.87455278297E+02  0.00000000000E+00 0.  1.
         13    1    4    4    0    0 -0.41851356425E+02  0.29355684465E+02 -0.11862840804E+03  0.12917426772E+03  0.00000000000E+00 0. -1.
          1    1    1    2  501    0  0.48720221027E+02  0.13571998201E+03 -0.21745058977E+03  0.26091824859E+03  0.00000000000E+00 0. -1.
<scales pt_clust_5="13000.00000" pt_clust_6="13000.00000" pt_clust_7="13000.00000" pt_clust_8="13000.00000" pt_clust_9="144.19977"></scales>
<clustering>
<clus scale="   80.596">  5  6 -1 -1</clus>
<clus scale="   92.652">  7  8 -1 -1</clus>
<clus scale="  144.200">  2  9  1 -1</clus>
<clus scale="  162.698">  1  5  2 -1</clus>
<clus scale="  144.200">  2  5  1 -1</clus>
</clustering>
</event>
<event>
 9    2  0.6175212E-005  0.1410393E+03  0.7546771E-02  0.1229268E+00
         21   -1    0    0  501  502  0.00000000000E+00  0.00000000000E+00  0.58228242511E+02  0.58228242511E+02  0.00000000000E+00 0. -1.
          2   -1    0    0  502    0 -0.00000000000E+00 -0.00000000000E+00 -0.67101172017E+03  0.67101172017E+03  0.00000000000E+00 0. -1.
         24    2    1    2    0    0  0.43422746173E+02  0.27236486509E+02 -0.34110199322E+03  0.35491496752E+03  0.83586501962E+02 0.  0.
         23    2    1    2    0    0 -0.11892912562E+03  0.37911323997E+02 -0.18822048976E+03  0.24428197080E+03  0.93087717160E+02 0.  0.
        -11    1    3    3    0    0  0.28670586931E+02 -0.26102799421E+02 -0.93827062977E+02  0.10152278778E+03  0.00000000000E+00 0.  1.
         12    1    3    3    0    0  0.14752159242E+02  0.53339285930E+02 -0.24727493024E+03  0.25339217974E+03  0.00000000000E+00 0. -1.
        -13    1    4    4    0    0 -0.98743139521E+02  0.63799782761E+02 -0.11700241978E+03  0.16586194897E+03  0.00000000000E+00 0. -1.
         13    1    4    4    0    0 -0.20185986098E+02 -0.25888458765E+02 -0.71218069982E+02  0.78420021831E+02  0.00000000000E+00 0.  1.
          1    1    1    2  501    0  0.75506379446E+02 -0.65147810506E+02 -0.83460994678E+02  0.13004302435E+03  0.00000000000E+00 0. -1.
<scales pt_clust_5="13000.00000" pt_clust_6="13000.00000" pt_clust_7="13000.00000" pt_clust_8="13000.00000" pt_clust_9="105.95645"></scales>
<clustering>
<clus scale="   83.587">  5  6 -1 -1</clus>
<clus scale="   93.088">  7  8 -1 -1</clus>
<clus scale="   98.051">  2  5  1 -1</clus>
<clus scale="  105.956">  1  9  2 -1</clus>
<clus scale="  105.956">  1  5  2 -1</clus>
</clustering>
</event>
<event>
 9    2  0.6175212E-005  0.1327626E+03  0.7546771E-02  0.1236262E+00
          4   -1    0    0  502    0 -0.00000000000E+00  0.00000000000E+00  0.26806747109E+03  0.26806747109E+03  0.00000000000E+00 0. -1.
         21   -1    0    0  501  502  0.00000000000E+00 -0.00000000000E+00 -0.17701982173E+03  0.17701982173E+03  0.00000000000E+00 0. -1.
         23    2    1    2    0    0 -0.35257589509E+02  0.26579790789E+02 -0.78038024614E+02  0.12828292894E+03  0.91744175161E+02 0.  0.
         24    2    1    2    0    0 -0.46574117142E+02 -0.88180021221E+02  0.16863278714E+03  0.21437769884E+03  0.87039739967E+02 0.  0.
        -13    1    4    4    0    0 -0.19674730609E+02 -0.36900969877E+02  0.66347632994E+01  0.42341429905E+02  0.00000000000E+00 0.  1.
         14    1    4    4    0    0 -0.26899386533E+02 -0.51279051344E+02  0.16199802384E+03  0.17203626894E+03  0.00000000000E+00 0. -1.
        -13    1    3    3    0    0 -0.61006370031E+02  0.54449942708E+01 -0.26095390622E+02  0.66576231184E+02  0.00000000000E+00 0. -1.
         13    1    3    3    0    0  0.25748780521E+02  0.21134796519E+02 -0.51942633992E+02  0.61706697758E+02  0.00000000000E+00 0.  1.
          3    1    1    2  501    0  0.81831706652E+02  0.61600230432E+02  0.45288684015E+00  0.10242666503E+03  0.00000000000E+00 0. -1.
<scales pt_clust_5="13000.00000" pt_clust_6="13000.00000" pt_clust_7="13000.00000" pt_clust_8="13000.00000" pt_clust_9="100.24962"></scales>
<clustering>
<clus scale="   87.040">  5  6 -1 -1</clus>
<clus scale="   91.744">  7  8 -1 -1</clus>
<clus scale="  101.816">  1  7  2 -1</clus>
<clus scale="  100.250">  2  9  1 -1</clus>
<clus scale="  100.250">  2  5  1 -1</clus>
</clustering>
</event>
<event>
 9    2  0.6175212E-005  0.1046722E+03  0.7546771E-02  0.1271627E+00
          2   -1    0    0  502    0 -0.00000000000E+00  0.00000000000E+00  0.20072097802E+03  0.20072097802E+03  0.00000000000E+00 0. -1.
         21   -1    0    0  501  502  0.00000000000E+00 -0.00000000000E+00 -0.13016364435E+03  0.13016364435E+03  0.00000000000E+00 0. -1.
         24    2    1    2    0    0 -0.52939017683E+02  0.44762277891E+02  0.11894692644E+03  0.16121460575E+03  0.83878344551E+02 0.  0.
         23    2    1    2    0    0  0.35041744857E+02 -0.22924323462E+02  0.18186953297E+02  0.97353731352E+02  0.85985668859E+02 0.  0.
        -11    1    3    3    0    0 -0.55009292074E+02  0.52474262508E+02  0.48193742212E+02  0.90012261546E+02  0.00000000000E+00 0.  1.
         12    1    3    3    0    0  0.20702743912E+01 -0.77119846175E+01  0.70753184225E+02  0.71202344208E+02  0.00000000000E+00 0. -1.
        -11    1    4    4    0    0 -0.23091152603E+02 -0.17512925981E+02  0.25386061764E+02  0.38527341419E+02  0.00000000000E+00 0. -1.
         11    1    4    4    0    0  0.58132897460E+02 -0.54113974803E+01 -0.71991084669E+01  0.58826389933E+02  0.00000000000E+00 0.  1.
          1    1    1    2  501    0  0.17897272826E+02 -0.21837954429E+02 -0.66576546064E+02  0.72316285261E+02  0.00000000000E+00 0. -1.
<scales pt_clust_5="13000.00000" pt_clust_6="13000.00000" pt_clust_7="13000.00000" pt_clust_8="13000.00000" pt_clust_9="28.23488"></scales>
<clustering>
<clus scale="   28.235">  2  9  1 -1</clus>
<clus scale="   83.878">  5  6 -1 -1</clus>
<clus scale="   85.986">  7  8 -1 -1</clus>
<clus scale="  102.948">  1  5  2 -1</clus>
<clus scale="   28.235">  2  5  1 -1</clus>
</clustering>
</event>
<event>
 9    2  0.6175212E-005  0.9091110E+02  0.7546771E-02  0.1309443E+00
          2   -1    0    0  502    0 -0.00000000000E+00  0.00000000000E+00  0.32682533366E+03  0.32682533366E+03  0.00000000000E+00 0. -1.
         21   -1    0    0  501  502  0.00000000000E+00 -0.00000000000E+00 -0.12762189997E+03  0.12762189997E+03  0.00000000000E+00 0.  1.
         24    2    1    2    0    0 -0.93237541921E+01 -0.71511860589E+01  0.28915289956E+03  0.29930612181E+03  0.76398189626E+02 0.  0.
         23    2    1    2    0    0  0.44919456639E+01  0.33515068797E+02 -0.54015537138E+02  0.11031201501E+03  0.90042351100E+02 0.  0.
        -11    1    3    3    0    0  0.92072589171E+01 -0.34364358741E+02  0.79678977519E+02  0.87260656810E+02  0.00000000000E+00 0.  1.
         12    1    3    3    0    0 -0.18531013109E+02  0.27213172682E+02  0.20947392204E+03  0.21204546500E+03  0.00000000000E+00 0. -1.
        -11    1    4    4    0    0  0.12584411990E+02 -0.25113279425E+02 -0.41022931995E+02  0.49718459128E+02  0.00000000000E+00 0. -1.
         11    1    4    4    0    0 -0.80924663262E+01  0.58628348222E+02 -0.12992605143E+02  0.60593555885E+02  0.00000000000E+00 0.  1.
          1    1    1    2  501    0  0.48318085282E+01 -0.26363882738E+02 -0.35933928733E+02  0.44829096811E+02  0.00000000000E+00 0. -1.
<scales pt_clust_5="13000.00000" pt_clust_6="13000.00000" pt_clust_7="13000.00000" pt_clust_8="13000.00000" pt_clust_9="26.80300"></scales>
<clustering>
<clus scale="   26.803">  2  9  1 -1</clus>
<clus scale="   76.398">  5  6 -1 -1</clus>
<clus scale="   77.420">  1  5  2 -1</clus>
<clus scale="   90.042">  7  8 -1 -1</clus>
<clus scale="   26.803">  2  5  1 -1</clus>
</clustering>
</event>
<event>
 9    2  0.6175212E-005  0.9999663E+02  0.7546771E-02  0.1281751E+00
          2   -1    0    0  502    0 -0.00000000000E+00  0.00000000000E+00  0.11709442728E+04  0.11709442728E+04  0.00000000000E+00 0. -1.
         21   -1    0    0  501  502  0.00000000000E+00 -0.00000000000E+00 -0.13768304025E+02  0.13768304025E+02  0.00000000000E+00 0. -1.
         24    2    1    2    0    0 -0.31024329824E+02  0.45968557693E+02  0.67049890282E+03  0.67848191561E+03  0.87711537370E+02 0.  0.
         23    2    1    2    0    0  0.36537715163E+00 -0.27719344605E+02  0.42032004976E+03  0.43088971116E+03  0.90711098484E+02 0.  0.
        -11    1    3    3    0    0  0.20211595205E+01  0.62274475571E+02  0.31683188580E+03  0.32290035499E+03  0.00000000000E+00 0.  1.
         12    1    3    3    0    0 -0.33045489345E+02 -0.16305917878E+02  0.35366701702E+03  0.35558156062E+03  0.00000000000E+00 0. -1.
        -11    1    4    4    0    0  0.23772530000E+02 -0.52887146648E+02  0.21353140665E+03  0.22126419748E+03  0.00000000000E+00 0.  1.
         11    1    4    4    0    0 -0.23407152848E+02  0.25167802043E+02  0.20678864312E+03  0.20962551368E+03  0.00000000000E+00 0. -1.
          1    1    1    2  501    0  0.30658952672E+02 -0.18249213088E+02  0.66357016216E+02  0.75340950076E+02  0.00000000000E+00 0. -1.
<scales pt_clust_5="13000.00000" pt_clust_6="13000.00000" pt_clust_7="13000.00000" pt_clust_8="13000.00000" pt_clust_9="35.67920"></scales>
<clustering>
<clus scale="   35.679">  2  9  1 -1</clus>
<clus scale="   87.712">  5  6 -1 -1</clus>
<clus scale="   90.711">  7  8 -1 -1</clus>
<clus scale="   97.284">  1  5  2 -1</clus>
<clus scale="   35.679">  2  5  1 -1</clus>
</clustering>
</event>
<event>
 9    2  0.6175212E-005  0.2537944E+03  0.7546771E-02  0.1111470E+00
         -1   -1    0    0    0  501 -0.00000000000E+00  0.00000000000E+00  0.16569303980E+03  0.16569303980E+03  0.00000000000E+00 0.  1.
         21   -1    0    0  501  502  0.00000000000E+00 -0.00000000000E+00 -0.80707242882E+03  0.80707242882E+03  0.00000000000E+00 0.  1.
         24    2    1    2    0    0 -0.15139827567E+03 -0.27741980551E+03 -0.13180492548E+03  0.35181663840E+03  0.80741701154E+02 0.  0.
         23    2    1    2    0    0  0.10998354021E+03  0.11315505410E+03 -0.22143810233E+03  0.28670243681E+03  0.90901093056E+02 0.  0.
        -13    1    3    3    0    0 -0.11379848092E+03 -0.26168368518E+03 -0.11783994122E+03  0.30873078417E+03  0.00000000000E+00 0.  1.
         14    1    3    3    0    0 -0.37599794757E+02 -0.15736120329E+02 -0.13964984260E+02  0.43085854224E+02  0.00000000000E+00 0. -1.
        -13    1    4    4    0    0  0.57096894655E+02  0.22472055393E+02 -0.29842516005E+02  0.68232136229E+02  0.00000000000E+00 0. -1.
         13    1    4    4    0    0  0.52886645554E+02  0.90682998708E+02 -0.19159558633E+03  0.21847030058E+03  0.00000000000E+00 0.  1.
         -2    1    1    2    0  502  0.41414735465E+02  0.16426475141E+03 -0.28813636120E+03  0.33424639342E+03  0.00000000000E+00 0.  1.
<scales pt_clust_5="13000.00000" pt_clust_6="13000.00000" pt_clust_7="13000.00000" pt_clust_8="13000.00000" pt_clust_9="169.40510"></scales>
<clustering>
<clus scale="   80.742">  5  6 -1 -1</clus>
<clus scale="   90.901">  7  8 -1 -1</clus>
<clus scale="  169.405">  2  9  1 -1</clus>
<clus scale="  250.335">  1  5  2 -1</clus>
<clus scale="  169.405">  2  5  1 -1</clus>
</clustering>
</event>
<event>
 9    2  0.6175212E-005  0.1124363E+03  0.7546771E-02  0.1261118E+00
          4   -1    0    0  502    0 -0.00000000000E+00  0.00000000000E+00  0.23941714065E+03  0.23941714065E+03  0.00000000000E+00 0. -1.
         21   -1    0    0  501  502  0.00000000000E+00 -0.00000000000E+00 -0.16687440169E+03  0.16687440169E+03  0.00000000000E+00 0.  1.
         23    2    1    2    0    0  0.45877566355E+02  0.41147168008E+02  0.18967575980E+03  0.22004061269E+03  0.92968472317E+02 0.  0.
         24    2    1    2    0    0 -0.42154481093E+02 -0.68345238724E+02 -0.10996796071E+03  0.15787956202E+03  0.79905768196E+02 0.  0.
        -11    1    4    4    0    0 -0.27193059855E+02 -0.16504674464E+02 -0.97422124072E+02  0.10248383796E+03  0.00000000000E+00 0.  1.
         12    1    4    4    0    0 -0.14961421238E+02 -0.51840564260E+02 -0.12545836633E+02  0.55395724069E+02  0.00000000000E+00 0. -1.
        -11    1    3    3    0    0 -0.48094502661E+01  0.57106785101E+02  0.11368024310E+03  0.12730873256E+03  0.00000000000E+00 0. -1.
         11    1    3    3    0    0  0.50687016622E+02 -0.15959617093E+02  0.75995516706E+02  0.92731880123E+02  0.00000000000E+00 0.  1.
          3    1    1    2  501    0 -0.37230852628E+01  0.27198070717E+02 -0.71650601349E+01  0.28371367632E+02  0.00000000000E+00 0. -1.
<scales pt_clust_5="13000.00000" pt_clust_6="13000.00000" pt_clust_7="13000.00000" pt_clust_8="13000.00000" pt_clust_9="27.45171"></scales>
<clustering>
<clus scale="   27.452">  2  9  1 -1</clus>
<clus scale="   79.906">  5  6 -1 -1</clus>
<clus scale="   92.968">  7  8 -1 -1</clus>
<clus scale="  101.900">  2  5  1 -1</clus>
<clus scale="   27.452">  2  5  1 -1</clus>
</clustering>
</event>
<event>
 9    2  0.6175212E-005  0.1152937E+03  0.7546771E-02  0.1256668E+00
         21   -1    0    0  501  502  0.00000000000E+00  0.00000000000E+00  0.15868856267E+03  0.15868856267E+03  0.00000000000E+00 0.  1.
          2   -1    0    0  502    0 -0.00000000000E+00 -0.00000000000E+00 -0.22231239787E+03  0.22231239787E+03  0.00000000000E+00 0. -1.
         23    2    1    2    0    0 -0.61679159993E+02  0.13191093343E+02 -0.61616943494E+02  0.12587460135E+03  0.89830083037E+02 0.  0.
         24    2    1    2    0    0  0.10472014210E+03 -0.22111333247E+02  0.86663181160E+02  0.15615930081E+03  0.73620656353E+02 0.  0.
        -13    1    4    4    0    0  0.52938966456E+02 -0.44538005622E+02  0.67256560793E+02  0.96486336255E+02  0.00000000000E+00 0.  1.
         14    1    4    4    0    0  0.51781175647E+02  0.22426672374E+02  0.19406620367E+02  0.59672964559E+02  0.00000000000E+00 0. -1.
        -13    1    3    3    0    0  0.13993421319E+01  0.38167924673E+02 -0.71153980110E+01  0.38850708116E+02  0.00000000000E+00 0.  1.
         13    1    3    3    0    0 -0.63078502125E+02 -0.24976831330E+02 -0.54501545483E+02  0.87023893234E+02  0.00000000000E+00 0. -1.
          1    1    1    2  501    0 -0.43040982110E+02  0.89202399044E+01 -0.88670072868E+02  0.98967058375E+02  0.00000000000E+00 0. -1.
<scales pt_clust_5="13000.00000" pt_clust_6="13000.00000" pt_clust_7="13000.00000" pt_clust_8="13000.00000" pt_clust_9="43.95565"></scales>
<clustering>
<clus scale="   43.956">  1  9  2 -1</clus>
<clus scale="   73.621">  5  6 -1 -1</clus>
<clus scale="   89.830">  7  8 -1 -1</clus>
<clus scale="  103.166">  1  5  2 -1</clus>
<clus scale="   43.956">  1  5  2 -1</clus>
</clustering>
</event>
<event>
 9    2  0.6175212E-005  0.9915521E+02  0.7546771E-02  0.1290962E+00
         21   -1    0    0  501  502  0.00000000000E+00  0.00000000000E+00  0.69696410090E+02  0.69696410090E+02  0.00000000000E+00 0. -1.
          2   -1    0    0  502    0 -0.00000000000E+00 -0.00000000000E+00 -0.15302553266E+03  0.15302553266E+03  0.00000000000E+00 0. -1.
         24    2    1    2    0    0  0.48259880751E+01 -0.29133505680E+02 -0.48485605910E+02  0.98799339246E+02  0.80860399089E+02 0.  0.
         23    2    1    2    0    0 -0.84200905061E+01  0.94374050360E+01 -0.21253526753E+02  0.99724632959E+02  0.96609148021E+02 0.  0.
        -13    1    3    3    0    0  0.23538547070E+02  0.96104967064E+01  0.90213799498E+01  0.26977956582E+02  0.00000000000E+00 0.  1.
         14    1    3    3    0    0 -0.18712558995E+02 -0.38744002386E+02 -0.57506985860E+02  0.71821382664E+02  0.00000000000E+00 0. -1.
        -13    1    4    4    0    0 -0.43309218937E+01 -0.40383273216E+02 -0.27931500366E+02  0.49292335639E+02  0.00000000000E+00 0. -1.
         13    1    4    4    0    0 -0.40891686124E+01  0.49820678252E+02  0.66779736127E+01  0.50432297320E+02  0.00000000000E+00 0.  1.
          1    1    1    2  501    0  0.35941024310E+01  0.19696100644E+02 -0.13589989905E+02  0.24197970545E+02  0.00000000000E+00 0. -1.
<scales pt_clust_5="13000.00000" pt_clust_6="13000.00000" pt_clust_7="13000.00000" pt_clust_8="13000.00000" pt_clust_9="20.02135"></scales>
<clustering>
<clus scale="   20.021">  1  9  2 -1</clus>
<clus scale="   80.860">  5  6 -1 -1</clus>
<clus scale="   83.886">  2  5  1 -1</clus>
<clus scale="   96.609">  7  8 -1 -1</clus>
<clus scale="   20.021">  1  5  2 -1</clus>
</clustering>
</event>
<event>
 9    2  0.6175212E-005  0.1013188E+03  0.7546771E-02  0.1282738E+00
         -1   -1    0    0    0  501 -0.00000000000E+00  0.00000000000E+00  0.93646737933E+02  0.93646737933E+02  0.00000000000E+00 0.  1.
         21   -1    0    0  501  502  0.00000000000E+00 -0.00000000000E+00 -0.32141922540E+03  0.32141922540E+03  0.00000000000E+00 0.  1.
         23    2    1    2    0    0 -0.27618037536E+02 -0.11862576742E+02 -0.93440639688E+01  0.96477495083E+02  0.91198239027E+02 0.  0.
         24    2    1    2    0    0  0.52697707455E+02  0.22598382930E+02 -0.35752373414E+00  0.98817758871E+02  0.80480347681E+02 0.  0.
        -13    1    4    4    0    0  0.38047953701E+02  0.38462937099E+02  0.29769070850E+02  0.61751452536E+02  0.00000000000E+00 0.  1.
         14    1    4    4    0    0  0.14649753754E+02 -0.15864554169E+02 -0.30126594584E+02  0.37066306334E+02  0.00000000000E+00 0. -1.
        -11    1    3    3    0    0  0.19803011296E+02  0.63322985557E+01  0.26959734505E+02  0.34045330751E+02  0.00000000000E+00 0.  1.
         11    1    3    3    0    0 -0.47421048832E+02 -0.18194875298E+02 -0.36303798474E+02  0.62432164331E+02  0.00000000000E+00 0. -1.
         -2    1    1    2    0  502 -0.25079669919E+02 -0.10735806188E+02 -0.21807089976E+03  0.21977070938E+03  0.00000000000E+00 0.  1.
<scales pt_clust_5="13000.00000" pt_clust_6="13000.00000" pt_clust_7="13000.00000" pt_clust_8="13000.00000" pt_clust_9="27.28090"></scales>
<clustering>
<clus scale="   27.281">  2  9  1 -1</clus>
<clus scale="   80.480">  5  6 -1 -1</clus>
<clus scale="   91.198">  7  8 -1 -1</clus>
<clus scale="   91.790">  2  5  1 -1</clus>
<clus scale="   27.281">  2  5  1 -1</clus>
</clustering>
</event>
<event>
 9    2  0.6175212E-005  0.1034569E+03  0.7546771E-02  0.1278725E+00
         21   -1    0    0  501  502  0.00000000000E+00  0.00000000000E+00  0.77990181502E+02  0.77990181502E+02  0.00000000000E+00 0.  1.
          2   -1    0    0  502    0 -0.00000000000E+00 -0.00000000000E+00 -0.25589260314E+03  0.25589260314E+03  0.00000000000E+00 0. -1.
         24    2    1    2    0    0  0.57502553649E+01 -0.50716070004E+02 -0.17737993593E+03  0.20136495704E+03  0.80492354057E+02 0.  0.
         23    2    1    2    0    0  0.94926482167E+01  0.26457899659E+02  0.18311188519E+02  0.98232083871E+02  0.92326116848E+02 0.  0.
        -11    1    3    3    0    0 -0.36858366900E+02 -0.29262451285E+02 -0.98839283580E+02  0.10947161387E+03  0.00000000000E+00 0.  1.
         12    1    3    3    0    0  0.42608622264E+02 -0.21453618718E+02 -0.78540652348E+02  0.91893343169E+02  0.00000000000E+00 0. -1.
        -11    1    4    4    0    0  0.22621128340E+02  0.56732329015E+02  0.22243068657E+02  0.65000205432E+02  0.00000000000E+00 0.  1.
         11    1    4    4    0    0 -0.13128480123E+02 -0.30274429357E+02 -0.39318801380E+01  0.33231878440E+02  0.00000000000E+00 0. -1.
          1    1    1    2  501    0 -0.15242903582E+02  0.24258170345E+02 -0.18833674234E+02  0.34285743731E+02  0.00000000000E+00 0. -1.
<scales pt_clust_5="13000.00000" pt_clust_6="13000.00000" pt_clust_7="13000.00000" pt_clust_8="13000.00000" pt_clust_9="28.64971"></scales>
<clustering>
<clus scale="   28.650">  1  9  2 -1</clus>
<clus scale="   80.492">  5  6 -1 -1</clus>
<clus scale="   92.326">  7  8 -1 -1</clus>
<clus scale="   93.050">  2  5  1 -1</clus>
<clus scale="   28.650">  1  5  2 -1</clus>
</clustering>
</event>
<event>
 9    2  0.6175212E-005  0.1013010E+03  0.7546771E-02  0.1282964E+00
         21   -1    0    0  501  502  0.00000000000E+00  0.00000000000E+00  0.10463628146E+03  0.10463628146E+03  0.00000000000E+00 0. -1.
          2   -1    0    0  502    0 -0.00000000000E+00 -0.00000000000E+00 -0.22141577824E+03  0.22141577824E+03  0.00000000000E+00 0. -1.
         23    2    1    2    0    0  0.54011215417E+02  0.28094155244E+02 -0.14175977320E+03  0.17955592133E+03  0.91858601316E+02 0.  0.
         24    2    1    2    0    0  0.36421647035E+01 -0.19201998005E+01  0.11792922050E+02  0.81820837850E+02  0.80861758360E+02 0.  0.
        -11    1    4    4    0    0 -0.14262976973E+02  0.22878300791E+02 -0.23040540085E+02  0.35464286918E+02  0.00000000000E+00 0.  1.
         12    1    4    4    0    0  0.17905141676E+02 -0.24798500591E+02  0.34833462135E+02  0.46356550932E+02  0.00000000000E+00 0. -1.
        -13    1    3    3    0    0  0.42397263398E+02  0.49785217080E+02 -0.44169111265E+02  0.78911381773E+02  0.00000000000E+00 0. -1.
         13    1    3    3    0    0  0.11613952019E+02 -0.21691061835E+02 -0.97590661934E+02  0.10064453955E+03  0.00000000000E+00 0.  1.
          1    1    1    2  501    0 -0.57653380121E+02 -0.26173955444E+02  0.13187354372E+02  0.64675300527E+02  0.00000000000E+00 0. -1.
<scales pt_clust_5="13000.00000" pt_clust_6="13000.00000" pt_clust_7="13000.00000" pt_clust_8="13000.00000" pt_clust_9="63.31657"></scales>
<clustering>
<clus scale="   63.317">  1  9  2 -1</clus>
<clus scale="   80.862">  5  6 -1 -1</clus>
<clus scale="   91.447">  1  5  2 -1</clus>
<clus scale="   91.859">  7  8 -1 -1</clus>
<clus scale="   63.317">  1  5  2 -1</clus>
</clustering>
</event>
<event>
 9    2  0.6175212E-005  0.9726843E+02  0.7546771E-02  0.1290672E+00
         21   -1    0    0  501  502  0.00000000000E+00  0.00000000000E+00  0.38493151690E+02  0.38493151690E+02  0.00000000000E+00 0. -1.
          2   -1    0    0  502    0 -0.00000000000E+00 -0.00000000000E+00 -0.51953416001E+03  0.51953416001E+03  0.00000000000E+00 0. -1.
         24    2    1    2    0    0  0.39863113573E+02 -0.57919006258E+01 -0.25478045457E+03  0.27179138487E+03  0.85643814251E+02 0.  0.
         23    2    1    2    0    0  0.22872092679E+02  0.27831152739E+02 -0.91454569556E+02  0.13592262698E+03  0.93879265802E+02 0.  0.
        -11    1    3    3    0    0  0.91946364563E+01  0.37215654302E+02 -0.72491618372E+02  0.82003542599E+02  0.00000000000E+00 0.  1.
         12    1    3    3    0    0  0.30668477117E+02 -0.43007554927E+02 -0.18228883620E+03  0.18978784227E+03  0.00000000000E+00 0. -1.
        -11    1    4    4    0    0  0.57824894612E+02  0.28445782020E+02 -0.68791083118E+02  0.94260776934E+02  0.00000000000E+00 0. -1.
         11    1    4    4    0    0 -0.34952801933E+02 -0.61462928092E+00 -0.22663486438E+02  0.41661850051E+02  0.00000000000E+00 0.  1.
          1    1    1    2  501    0 -0.62735206252E+02 -0.22039252113E+02 -0.13480598419E+03  0.15031329985E+03  0.00000000000E+00 0. -1.
<scales pt_clust_5="13000.00000" pt_clust_6="13000.00000" pt_clust_7="13000.00000" pt_clust_8="13000.00000" pt_clust_9="66.49390"></scales>
<clustering>
<clus scale="   66.494">  1  9  2 -1</clus>
<clus scale="   85.644">  5  6 -1 -1</clus>
<clus scale="   89.346">  2  5  1 -1</clus>
<clus scale="   93.879">  7  8 -1 -1</clus>
<clus scale="   66.494">  1  5  2 -1</clus>
</clustering>
</event>
<event>
 9    2  0.1719327E-004  0.1047420E+03  0.7546771E-02  0.1275159E+00
         21   -1    0    0  501  502  0.00000000000E+00  0.00000000000E+00  0.15622892053E+03  0.15622892053E+03  0.00000000000E+00 0. -1.
          2   -1    0    0  502    0 -0.00000000000E+00 -0.00000000000E+00 -0.11435432632E+04  0.11435432632E+04  0.00000000000E+00 0. -1.
         24    2    1    2    0    0 -0.44038038424E+01 -0.55507120938E+02 -0.92830065814E+03  0.93344602371E+03  0.80491821458E+02 0.  0.
         23    2    1    2    0    0 -0.28231201273E+02  0.36864329404E+02 -0.19781086886E+03  0.22253027827E+03  0.90744726560E+02 0.  0.
        -13    1    3    3    0    0 -0.51447209626E+01 -0.44776112051E+02 -0.19795099857E+03  0.20301715740E+03  0.00000000000E+00 0.  1.
         14    1    3    3    0    0  0.74091712026E+00 -0.10731008886E+02 -0.73034965957E+03  0.73042886631E+03  0.00000000000E+00 0. -1.
        -13    1    4    4    0    0  0.83363448311E+01  0.34174173337E+02 -0.18962016661E+02  0.39961567090E+02  0.00000000000E+00 0.  1.
         13    1    4    4    0    0 -0.36567546105E+02  0.26901560667E+01 -0.17884885220E+03  0.18256871118E+03  0.00000000000E+00 0. -1.
          1    1    1    2  501    0  0.32635005116E+02  0.18642791534E+02  0.13879718432E+03  0.14379588176E+03  0.00000000000E+00 0. -1.
<scales pt_clust_5="13000.00000" pt_clust_6="13000.00000" pt_clust_7="13000.00000" pt_clust_8="13000.00000" pt_clust_9="37.58453"></scales>
<clustering>
<clus scale="   37.585">  1  9  2 -1</clus>
<clus scale="   80.492">  5  6 -1 -1</clus>
<clus scale="   90.745">  7  8 -1 -1</clus>
<clus scale="   95.996">  2  5  1 -1</clus>
<clus scale="   37.585">  1  5  2 -1</clus>
</clustering>
</event>
<event>
 9    2  0.6175212E-005  0.1401215E+03  0.7546771E-02  0.1215001E+00
          2   -1    0    0  502    0 -0.00000000000E+00  0.00000000000E+00  0.72751035850E+03  0.72751035850E+03  0.00000000000E+00 0. -1.
         21   -1    0    0  501  502  0.00000000000E+00 -0.00000000000E+00 -0.54020976914E+02  0.54020976914E+02  0.00000000000E+00 0. -1.
         23    2    1    2    0    0 -0.27673510820E+02  0.11050233450E+03  0.38911156533E+03  0.41501368501E+03  0.88611282247E+02 0.  0.
         24    2    1    2    0    0 -0.11678984121E+02 -0.96665056884E+02  0.62217520878E+02  0.14047498640E+03  0.79885355392E+02 0.  0.
        -11    1    4    4    0    0  0.18687544495E+02 -0.96160557005E+01 -0.10085422110E+02  0.23311125790E+02  0.00000000000E+00 0.  1.
         12    1    4    4    0    0 -0.30366528616E+02 -0.87049001183E+02  0.72302942987E+02  0.11716386060E+03  0.00000000000E+00 0. -1.
        -13    1    3    3    0    0 -0.50913660351E+02  0.10710426673E+03  0.34818462628E+03  0.36782612569E+03  0.00000000000E+00 0. -1.
         13    1    3    3    0    0  0.23240149530E+02  0.33980677720E+01  0.40926939056E+02  0.47187559327E+02  0.00000000000E+00 0.  1.
          1    1    1    2  501    0  0.39352494941E+02 -0.13837277615E+02  0.22216029537E+03  0.22604266400E+03  0.00000000000E+00 0. -1.
<scales pt_clust_5="13000.00000" pt_clust_6="13000.00000" pt_clust_7="13000.00000" pt_clust_8="13000.00000" pt_clust_9="41.71440"></scales>
<clustering>
<clus scale="   41.714">  2  9  1 -1</clus>
<clus scale="   79.885">  5  6 -1 -1</clus>
<clus scale="   88.611">  7  8 -1 -1</clus>
<clus scale="  134.773">  2  5  1 -1</clus>
<clus scale="   41.714">  2  5  1 -1</clus>
</clustering>
</event>
<event>
 9    2  0.6175212E-005  0.2128695E+03  0.7546771E-02  0.1151529E+00
         -3   -1    0    0    0  501 -0.00000000000E+00  0.00000000000E+00  0.67134699456E+03  0.67134699456E+03  0.00000000000E+00 0.  1.
         21   -1    0    0  501  502  0.00000000000E+00 -0.00000000000E+00 -0.25899463811E+03  0.25899463811E+03  0.00000000000E+00 0. -1.
         23    2    1    2    0    0  0.12638016348E+03  0.12567439785E+02  0.39471447670E+03  0.42553382986E+03  0.95653729574E+02 0.  0.
         24    2    1    2    0    0  0.52340139377E+02 -0.18251719817E+03 -0.10334905290E+03  0.23010486344E+03  0.78836562743E+02 0.  0.
        -11    1    4    4    0    0  0.43644043404E+02 -0.10519484995E+03 -0.19202393060E+02  0.11549671372E+03  0.00000000000E+00 0.  1.
         12    1    4    4    0    0  0.86960959726E+01 -0.77322348211E+02 -0.84146659843E+02  0.11460814971E+03  0.00000000000E+00 0. -1.
        -11    1    3    3    0    0  0.12813508710E+03  0.36895881172E+02  0.31203159408E+03  0.33932819261E+03  0.00000000000E+00 0.  1.
         11    1    3    3    0    0 -0.17549236212E+01 -0.24328441387E+02  0.82682882613E+02  0.86205637254E+02  0.00000000000E+00 0. -1.
         -4    1    1    2    0  502 -0.17872030285E+03  0.16994975838E+03  0.12098693265E+03  0.27470293937E+03  0.00000000000E+00 0.  1.
<scales pt_clust_5="13000.00000" pt_clust_6="13000.00000" pt_clust_7="13000.00000" pt_clust_8="13000.00000" pt_clust_9="197.73277"></scales>
<clustering>
<clus scale="   78.837">  5  6 -1 -1</clus>
<clus scale="   95.654">  7  8 -1 -1</clus>
<clus scale="  158.995">  1  7  2 -1</clus>
<clus scale="  197.733">  2  9  1 -1</clus>
<clus scale="  197.733">  2  5  1 -1</clus>
</clustering>
</event>
<event>
 9    2  0.6175212E-005  0.2042144E+03  0.7546771E-02  0.1173548E+00
          2   -1    0    0  502    0 -0.00000000000E+00  0.00000000000E+00  0.17065595687E+03  0.17065595687E+03  0.00000000000E+00 0. -1.
         21   -1    0    0  501  502  0.00000000000E+00 -0.00000000000E+00 -0.52683384809E+03  0.52683384809E+03  0.00000000000E+00 0. -1.
         23    2    1    2    0    0  0.44442905675E+02  0.35986407362E+02 -0.26378274843E+03  0.28507363990E+03  0.91735753208E+02 0.  0.
         24    2    1    2    0    0 -0.74173995864E+02 -0.20333861882E+03 -0.39852534194E+02  0.23450768825E+03  0.80976884362E+02 0.  0.
        -11    1    4    4    0    0 -0.84284338383E+02 -0.13759344315E+03 -0.45783520753E+02  0.16772577640E+03  0.00000000000E+00 0.  1.
         12    1    4    4    0    0  0.10110342519E+02 -0.65745175668E+02  0.59309865589E+01  0.66781911855E+02  0.00000000000E+00 0. -1.
        -11    1    3    3    0    0 -0.24345715599E+02  0.30087840770E+02 -0.83917851337E+02  0.92413190635E+02  0.00000000000E+00 0.  1.
         11    1    3    3    0    0  0.68788621274E+02  0.58985665918E+01 -0.17986489709E+03  0.19266044926E+03  0.00000000000E+00 0. -1.
          1    1    1    2  501    0  0.29731090189E+02  0.16735221146E+03 -0.52542608601E+02  0.17790847682E+03  0.00000000000E+00 0. -1.
<scales pt_clust_5="13000.00000" pt_clust_6="13000.00000" pt_clust_7="13000.00000" pt_clust_8="13000.00000" pt_clust_9="187.47337"></scales>
<clustering>
<clus scale="   80.977">  5  6 -1 -1</clus>
<clus scale="   91.736">  7  8 -1 -1</clus>
<clus scale="  108.100">  1  7  2 -1</clus>
<clus scale="  187.473">  2  9  1 -1</clus>
<clus scale="  187.473">  2  5  1 -1</clus>
</clustering>
</event>
<event>
 9    2  0.6175212E-005  0.9488587E+02  0.7546771E-02  0.1309265E+00
         21   -1    0    0  501  502  0.00000000000E+00  0.00000000000E+00  0.13908298375E+02  0.13908298375E+02  0.00000000000E+00 0. -1.
          2   -1    0    0  502    0 -0.00000000000E+00 -0.00000000000E+00 -0.85882900637E+03  0.85882900637E+03  0.00000000000E+00 0. -1.
         24    2    1    2    0    0 -0.15087531582E+02  0.25378335085E+01 -0.25316406007E+03  0.26089929639E+03  0.61174564458E+02 0.  0.
         23    2    1    2    0    0  0.39984656730E+02 -0.41022361703E+02 -0.46468964456E+03  0.47675673988E+03  0.89882792125E+02 0.  0.
        -13    1    3    3    0    0 -0.23445784751E+02  0.27716767147E+02 -0.13524070186E+03  0.14002846654E+03  0.00000000000E+00 0.  1.
         14    1    3    3    0    0  0.83582531690E+01 -0.25178933639E+02 -0.11792335821E+03  0.12087082984E+03  0.00000000000E+00 0. -1.
        -13    1    4    4    0    0 -0.23125861222E+02 -0.13272742885E+02 -0.52944799468E+02  0.59280038392E+02  0.00000000000E+00 0. -1.
         13    1    4    4    0    0  0.63110517952E+02 -0.27749618818E+02 -0.41174484510E+03  0.41747670149E+03  0.00000000000E+00 0.  1.
          1    1    1    2  501    0 -0.24897125148E+02  0.38484528194E+02 -0.12706700336E+03  0.13508126848E+03  0.00000000000E+00 0. -1.
<scales pt_clust_5="13000.00000" pt_clust_6="13000.00000" pt_clust_7="13000.00000" pt_clust_8="13000.00000" pt_clust_9="45.83586"></scales>
<clustering>
<clus scale="   45.836">  1  9  2 -1</clus>
<clus scale="   61.175">  5  6 -1 -1</clus>
<clus scale="   68.314">  2  5  1 -1</clus>
<clus scale="   89.883">  7  8 -1 -1</clus>
<clus scale="   45.836">  1  5  2 -1</clus>
</clustering>
</event>
<event>
 9    2  0.6175212E-005  0.1214267E+03  0.7546771E-02  0.1245512E+00
          2   -1    0    0  502    0 -0.00000000000E+00  0.00000000000E+00  0.21890111507E+03  0.21890111507E+03  0.00000000000E+00 0. -1.
         21   -1    0    0  501  502  0.00000000000E+00 -0.00000000000E+00 -0.22360340703E+03  0.22360340703E+03  0.00000000000E+00 0.  1.
         23    2    1    2    0    0  0.82352782432E+02 -0.52195054436E+01  0.17541668590E+03  0.21394743340E+03  0.90516664507E+02 0.  0.
         24    2    1    2    0    0 -0.68948504955E+02  0.25801233833E+02 -0.10108298764E+03  0.14579254347E+03  0.74953954786E+02 0.  0.
        -13    1    4    4    0    0 -0.42093970284E+02  0.51961227696E+02 -0.56526806696E+02  0.87562271517E+02  0.00000000000E+00 0.  1.
         14    1    4    4    0    0 -0.26854534671E+02 -0.26159993863E+02 -0.44556180945E+02  0.58230271953E+02  0.00000000000E+00 0. -1.
        -11    1    3    3    0    0  0.41308773438E+02  0.12061839481E+02  0.16173081875E+03  0.16735818017E+03  0.00000000000E+00 0. -1.
         11    1    3    3    0    0  0.41044008994E+02 -0.17281344925E+02  0.13685867145E+02  0.46589253227E+02  0.00000000000E+00 0.  1.
          1    1    1    2  501    0 -0.13404277477E+02 -0.20581728389E+02 -0.79035990218E+02  0.82764545235E+02  0.00000000000E+00 0. -1.
<scales pt_clust_5="13000.00000" pt_clust_6="13000.00000" pt_clust_7="13000.00000" pt_clust_8="13000.00000" pt_clust_9="24.56180"></scales>
<clustering>
<clus scale="   24.562">  2  9  1 -1</clus>
<clus scale="   74.954">  5  6 -1 -1</clus>
<clus scale="   90.517">  7  8 -1 -1</clus>
<clus scale="  110.314">  2  5  1 -1</clus>
<clus scale="   24.562">  2  5  1 -1</clus>
</clustering>
</event>
<event>
 9    2  0.1379435E-004  0.9716432E+02  0.7546771E-02  0.1293210E+00
         -1   -1    0    0    0  501 -0.00000000000E+00  0.00000000000E+00  0.40654999900E+03  0.40654999900E+03  0.00000000000E+00 0.  1.
         21   -1    0    0  501  502  0.00000000000E+00 -0.00000000000E+00 -0.18278675807E+03  0.18278675807E+03  0.00000000000E+00 0.  1.
         24    2    1    2    0    0 -0.34759346512E+02  0.21192093477E+02  0.28736233321E+03  0.30038246559E+03  0.77428664491E+02 0.  0.
         23    2    1    2    0    0 -0.22957827014E+02 -0.53641378895E+02  0.77939937354E+02  0.13269321137E+03  0.90157612872E+02 0.  0.
        -13    1    3    3    0    0 -0.47272921379E+02  0.36928195304E+02  0.25741613552E+03  0.26431323752E+03  0.00000000000E+00 0.  1.
         14    1    3    3    0    0  0.12513574867E+02 -0.15736101827E+02  0.29946197698E+02  0.36069228065E+02  0.00000000000E+00 0. -1.
        -11    1    4    4    0    0 -0.54234007834E+02 -0.41342351690E+02  0.30868775129E+02  0.74855854327E+02  0.00000000000E+00 0.  1.
         11    1    4    4    0    0  0.31276180820E+02 -0.12299027205E+02  0.47071162225E+02  0.57837357046E+02  0.00000000000E+00 0. -1.
         -2    1    1    2    0  502  0.57717173526E+02  0.32449285419E+02 -0.14153902964E+03  0.15626108011E+03  0.00000000000E+00 0.  1.
<scales pt_clust_5="13000.00000" pt_clust_6="13000.00000" pt_clust_7="13000.00000" pt_clust_8="13000.00000" pt_clust_9="66.21350"></scales>
<clustering>
<clus scale="   66.214">  2  9  1 -1</clus>
<clus scale="   77.429">  5  6 -1 -1</clus>
<clus scale="   85.485">  1  5  2 -1</clus>
<clus scale="   90.158">  7  8 -1 -1</clus>
<clus scale="   66.214">  2  5  1 -1</clus>
</clustering>
</event>
<event>
 9    2  0.6175212E-005  0.1507437E+03  0.7546771E-02  0.1201962E+00
          4   -1    0    0  502    0 -0.00000000000E+00  0.00000000000E+00  0.43905769100E+03  0.43905769100E+03  0.00000000000E+00 0. -1.
         21   -1    0    0  501  502  0.00000000000E+00 -0.00000000000E+00 -0.15692898512E+03  0.15692898512E+03  0.00000000000E+00 0.  1.
         24    2    1    2    0    0  0.34685195791E+02  0.96363548555E+02  0.22766481959E+03  0.26143403978E+03  0.77636916343E+02 0.  0.
         23    2    1    2    0    0 -0.77531332898E+02 -0.17405084505E+03  0.10135334039E+03  0.23420459995E+03  0.90964228038E+02 0.  0.
        -13    1    3    3    0    0  0.18651922809E+00  0.48002751987E+02  0.33897558522E+02  0.58765155164E+02  0.00000000000E+00 0.  1.
         14    1    3    3    0    0  0.34498676563E+02  0.48360796568E+02  0.19376726107E+03  0.20266888461E+03  0.00000000000E+00 0. -1.
        -11    1    4    4    0    0 -0.95031529236E+02 -0.14514678104E+03  0.66882284404E+02  0.18593498747E+03  0.00000000000E+00 0.  1.
         11    1    4    4    0    0  0.17500196338E+02 -0.28904064009E+02  0.34471055991E+02  0.48269612482E+02  0.00000000000E+00 0. -1.
          3    1    1    2  501    0  0.42846137107E+02  0.77687296499E+02 -0.46889454106E+02  0.10034803640E+03  0.00000000000E+00 0. -1.
<scales pt_clust_5="13000.00000" pt_clust_6="13000.00000" pt_clust_7="13000.00000" pt_clust_8="13000.00000" pt_clust_9="88.71926"></scales>
<clustering>
<clus scale="   77.637">  5  6 -1 -1</clus>
<clus scale="   88.719">  2  9  1 -1</clus>
<clus scale="   90.964">  7  8 -1 -1</clus>
<clus scale="  143.097">  1  5  2 -1</clus>
<clus scale="   88.719">  2  5  1 -1</clus>
</clustering>
</event>
<event>
 9    2  0.6175212E-005  0.1554440E+03  0.7546771E-02  0.1213613E+00
          2   -1    0    0  502    0 -0.00000000000E+00  0.00000000000E+00  0.47006506985E+03  0.47006506985E+03  0.00000000000E+00 0. -1.
         21   -1    0    0  501  502  0.00000000000E+00 -0.00000000000E+00 -0.93878939873E+02  0.93878939873E+02  0.00000000000E+00 0. -1.
         23    2    1    2    0    0 -0.52676632594E+02 -0.34541455635E+02  0.25362489302E+02  0.10478068218E+03  0.79798469384E+02 0.  0.
         24    2    1    2    0    0  0.17332911877E+02  0.14956534391E+03  0.16330794937E+03  0.23635891117E+03  0.80782588640E+02 0.  0.
        -13    1    4    4    0    0  0.37687248560E+02  0.56276770084E+02  0.10349763881E+03  0.12368979260E+03  0.00000000000E+00 0.  1.
         14    1    4    4    0    0 -0.20354336683E+02  0.93288573831E+02  0.59810310562E+02  0.11266911857E+03  0.00000000000E+00 0. -1.
        -13    1    3    3    0    0 -0.58978242175E+02 -0.13220123789E+02 -0.11697416308E+02  0.61563254230E+02  0.00000000000E+00 0. -1.
         13    1    3    3    0    0  0.63016095810E+01 -0.21321331846E+02  0.37059905609E+02  0.43217427952E+02  0.00000000000E+00 0.  1.
          1    1    1    2  501    0  0.35343720717E+02 -0.11502388828E+03  0.18751569130E+03  0.22280441637E+03  0.00000000000E+00 0. -1.
<scales pt_clust_5="13000.00000" pt_clust_6="13000.00000" pt_clust_7="13000.00000" pt_clust_8="13000.00000" pt_clust_9="132.80442"></scales>
<clustering>
<clus scale="   79.798">  7  8 -1 -1</clus>
<clus scale="   80.783">  5  6 -1 -1</clus>
<clus scale="  101.665">  1  7  2 -1</clus>
<clus scale="  132.804">  2  9  1 -1</clus>
<clus scale="  132.804">  2  5  1 -1</clus>
</clustering>
</event>
<event>
 9    2  0.6175212E-005  0.9849358E+02  0.7546771E-02  0.1288719E+00
          2   -1    0    0  502    0 -0.00000000000E+00  0.00000000000E+00  0.51543130180E+03  0.51543130180E+03  0.00000000000E+00 0. -1.
         21   -1    0    0  501  502  0.00000000000E+00 -0.00000000000E+00 -0.24656090408E+02  0.24656090408E+02  0.00000000000E+00 0. -1.
         24    2    1    2    0    0  0.29868554265E+02 -0.31191593894E+02  0.31146463768E+03  0.32474151112E+03  0.81128185322E+02 0.  0.
         23    2    1    2    0    0 -0.21859611930E+02  0.10495149598E+02  0.12452409846E+03  0.15623544348E+03  0.91188112734E+02 0.  0.
        -13    1    3    3    0    0  0.14846846182E+02  0.23856902822E+02  0.16820779613E+03  0.17053868573E+03  0.00000000000E+00 0.  1.
         14    1    3    3    0    0  0.15021708083E+02 -0.55048496716E+02  0.14325684155E+03  0.15420282538E+03  0.00000000000E+00 0. -1.
        -11    1    4    4    0    0 -0.20000929227E+02 -0.18306897414E+02 -0.12982484950E+01  0.27145259477E+02  0.00000000000E+00 0. -1.
         11    1    4    4    0    0 -0.18586827023E+01  0.28802047012E+02  0.12582234695E+03  0.12909018400E+03  0.00000000000E+00 0.  1.
          1    1    1    2  501    0 -0.80089423354E+01  0.20696444297E+02  0.54786475258E+02  0.59110437615E+02  0.00000000000E+00 0. -1.
<scales pt_clust_5="13000.00000" pt_clust_6="13000.00000" pt_clust_7="13000.00000" pt_clust_8="13000.00000" pt_clust_9="22.19204"></scales>
<clustering>
<clus scale="   22.192">  2  9  1 -1</clus>
<clus scale="   81.128">  5  6 -1 -1</clus>
<clus scale="   89.261">  1  5  2 -1</clus>
<clus scale="   91.188">  7  8 -1 -1</clus>
<clus scale="   22.192">  2  5  1 -1</clus>
</clustering>
</event>
<event>
 9    2  0.6175212E-005  0.9680561E+02  0.7546771E-02  0.1293606E+00
         21   -1    0    0  501  502  0.00000000000E+00  0.00000000000E+00  0.53249734777E+03  0.53249734777E+03  0.00000000000E+00 0.  1.
         -1   -1    0    0    0  501 -0.00000000000E+00 -0.00000000000E+00 -0.31741949660E+02  0.31741949660E+02  0.00000000000E+00 0.  1.
         23    2    1    2    0    0  0.28119311371E+02 -0.23280874138E+02  0.16955840408E+03  0.19630269249E+03  0.91934758988E+02 0.  0.
         24    2    1    2    0    0  0.62276667772E+01  0.30572381406E+02  0.31953779970E+03  0.33093906721E+03  0.80267094302E+02 0.  0.
        -11    1    4    4    0    0 -0.27130189140E+02 -0.37426014440E+01  0.48409195963E+02  0.55619281568E+02  0.00000000000E+00 0.  1.
         12    1    4    4    0    0  0.33357855917E+02  0.34314982850E+02  0.27112860374E+03  0.27531978564E+03  0.00000000000E+00 0. -1.
        -11    1    3    3    0    0 -0.93965946872E+01  0.25936994593E+02  0.18930233561E+02  0.33457098244E+02  0.00000000000E+00 0. -1.
         11    1    3    3    0    0  0.37515906058E+02 -0.49217868731E+02  0.15062817052E+03  0.16284559424E+03  0.00000000000E+00 0.  1.
         -2    1    1    2    0  502 -0.34346978149E+02 -0.72915072684E+01  0.11659194327E+02  0.36997537736E+02  0.00000000000E+00 0.  1.
<scales pt_clust_5="13000.00000" pt_clust_6="13000.00000" pt_clust_7="13000.00000" pt_clust_8="13000.00000" pt_clust_9="35.11242"></scales>
<clustering>
<clus scale="   35.112">  1  9  2 -1</clus>
<clus scale="   80.267">  5  6 -1 -1</clus>
<clus scale="   85.803">  1  5  2 -1</clus>
<clus scale="   91.935">  7  8 -1 -1</clus>
<clus scale="   35.112">  1  5  2 -1</clus>
</clustering>
</event>
<event>
 9    2  0.6175212E-005  0.9121865E+02  0.7546771E-02  0.1304078E+00
         21   -1    0    0  501  502  0.00000000000E+00  0.00000000000E+00  0.56989532858E+02  0.56989532858E+02  0.00000000000E+00 0.  1.
          2   -1    0    0  502    0 -0.00000000000E+00 -0.00000000000E+00 -0.32800083524E+03  0.32800083524E+03  0.00000000000E+00 0. -1.
         24    2    1    2    0    0 -0.57538620696E-02 -0.30704677919E+02 -0.20693395877E+03  0.22394625439E+03  0.79921738484E+02 0.  0.
         23    2    1    2    0    0  0.44231735705E+02  0.76655357381E+01 -0.42059798693E+02  0.10653253855E+03  0.86976710799E+02 0.  0.
        -11    1    3    3    0    0  0.30214130658E+02 -0.20699377228E+02 -0.40955843341E+02  0.54943052453E+02  0.00000000000E+00 0.  1.
         12    1    3    3    0    0 -0.30219884520E+02 -0.10005300691E+02 -0.16597811543E+03  0.16900320194E+03  0.00000000000E+00 0. -1.
        -11    1    4    4    0    0  0.46738189903E+02 -0.32845602669E+02 -0.27618874681E+02  0.63451511005E+02  0.00000000000E+00 0.  1.
         11    1    4    4    0    0 -0.25064541981E+01  0.40511138407E+02 -0.14440924012E+02  0.43081027542E+02  0.00000000000E+00 0. -1.
          1    1    1    2  501    0 -0.44225981843E+02  0.23039142181E+02 -0.22017544915E+02  0.54511575160E+02  0.00000000000E+00 0. -1.
<scales pt_clust_5="13000.00000" pt_clust_6="13000.00000" pt_clust_7="13000.00000" pt_clust_8="13000.00000" pt_clust_9="49.86722"></scales>
<clustering>
<clus scale="   49.867">  1  9  2 -1</clus>
<clus scale="   79.922">  5  6 -1 -1</clus>
<clus scale="   84.519">  2  5  1 -1</clus>
<clus scale="   86.977">  7  8 -1 -1</clus>
<clus scale="   49.867">  1  5  2 -1</clus>
</clustering>
</event>
<event>
 9    2  0.6175212E-005  0.1879456E+03  0.7546771E-02  0.1162201E+00
         21   -1    0    0  501  502  0.00000000000E+00  0.00000000000E+00  0.10258784334E+03  0.10258784334E+03  0.00000000000E+00 0.  1.
          2   -1    0    0  502    0 -0.00000000000E+00 -0.00000000000E+00 -0.84355804230E+03  0.84355804230E+03  0.00000000000E+00 0. -1.
         24    2    1    2    0    0  0.55741150029E+01 -0.15515193869E+03 -0.61020470879E+03  0.63457365433E+03  0.78935044841E+02 0.  0.
         23    2    1    2    0    0 -0.29314721612E+02  0.18967419012E+03 -0.15362917044E+03  0.26384226042E+03  0.95787081978E+02 0.  0.
        -11    1    3    3    0    0  0.35056576391E+02 -0.77290096096E+02 -0.22499319346E+03  0.24046758536E+03  0.00000000000E+00 0.  1.
         12    1    3    3    0    0 -0.29482461388E+02 -0.77861842598E+02 -0.38521151532E+03  0.39410606897E+03  0.00000000000E+00 0. -1.
        -11    1    4    4    0    0  0.22728012555E+02  0.54635708410E+02 -0.10123503579E+02  0.60034227844E+02  0.00000000000E+00 0. -1.
         11    1    4    4    0    0 -0.52042734167E+02  0.13503848171E+03 -0.14350566686E+03  0.20380803258E+03  0.00000000000E+00 0.  1.
          1    1    1    2  501    0  0.23740606609E+02 -0.34522251424E+02  0.22863680268E+02  0.47729970888E+02  0.00000000000E+00 0. -1.
<scales pt_clust_5="13000.00000" pt_clust_6="13000.00000" pt_clust_7="13000.00000" pt_clust_8="13000.00000" pt_clust_9="41.89752"></scales>
<clustering>
<clus scale="   41.898">  1  9  2 -1</clus>
<clus scale="   78.935">  5  6 -1 -1</clus>
<clus scale="   95.787">  7  8 -1 -1</clus>
<clus scale="  179.942">  2  5  1 -1</clus>
<clus scale="   41.898">  1  5  2 -1</clus>
</clustering>
</event>
<event>
 9    2  0.6175212E-005  0.1470623E+03  0.7546771E-02  0.1221950E+00
         21   -1    0    0  501  502  0.00000000000E+00  0.00000000000E+00  0.87927958146E+02  0.87927958146E+02  0.00000000000E+00 0.  1.
          2   -1    0    0  502    0 -0.00000000000E+00 -0.00000000000E+00 -0.60543260465E+03  0.60543260465E+03  0.00000000000E+00 0. -1.
         23    2    1    2    0    0  0.11204401024E+01  0.46300949864E+02 -0.11611860042E+01  0.10071943468E+03  0.89431665678E+02 0.  0.
         24    2    1    2    0    0 -0.91363448677E+01  0.10591581529E+03 -0.18443443841E+03  0.22740449623E+03  0.79969432331E+02 0.  0.
        -13    1    4    4    0    0  0.21355669796E+02  0.88263046017E+02 -0.95683742727E+02  0.13191591468E+03  0.00000000000E+00 0.  1.
         14    1    4    4    0    0 -0.30492014664E+02  0.17652769275E+02 -0.88750695683E+02  0.95488581546E+02  0.00000000000E+00 0. -1.
        -11    1    3    3    0    0  0.24672799173E+02  0.22654291721E+02  0.37075724789E+02  0.49965721460E+02  0.00000000000E+00 0.  1.
         11    1    3    3    0    0 -0.23552359070E+02  0.23646658143E+02 -0.38236910793E+02  0.50753713225E+02  0.00000000000E+00 0. -1.
          1    1    1    2  501    0  0.80159047653E+01 -0.15221676516E+03 -0.33190902209E+03  0.36523663188E+03  0.00000000000E+00 0. -1.
<scales pt_clust_5="13000.00000" pt_clust_6="13000.00000" pt_clust_7="13000.00000" pt_clust_8="13000.00000" pt_clust_9="123.41892"></scales>
<clustering>
<clus scale="   79.969">  5  6 -1 -1</clus>
<clus scale="   89.432">  7  8 -1 -1</clus>
<clus scale="  100.713">  2  7  1 -1</clus>
<clus scale="  123.419">  1  9  2 -1</clus>
<clus scale="  123.419">  1  5  2 -1</clus>
</clustering>
</event>
<event>
 9    2  0.6175212E-005  0.2369101E+03  0.7546771E-02  0.1144320E+00
          2   -1    0    0  502    0 -0.00000000000E+00  0.00000000000E+00  0.17774261860E+04  0.17774261860E+04  0.00000000000E+00 0. -1.
         21   -1    0    0  501  502  0.00000000000E+00 -0.00000000000E+00 -0.66326661301E+02  0.66326661301E+02  0.00000000000E+00 0. -1.
         24    2    1    2    0    0 -0.47518316920E+02 -0.99843174070E+02  0.39142643220E+03  0.41467831201E+03  0.80726704266E+02 0.  0.
         23    2    1    2    0    0  0.12776749513E+03 -0.11925957393E+03  0.10661346064E+04  0.10845056616E+04  0.94668644597E+02 0.  0.
        -11    1    3    3    0    0  0.26868269055E+01 -0.48707305741E+02  0.69746593095E+02  0.85112912768E+02  0.00000000000E+00 0.  1.
         12    1    3    3    0    0 -0.50205143826E+02 -0.51135868328E+02  0.32167983910E+03  0.32956539925E+03  0.00000000000E+00 0. -1.
        -11    1    4    4    0    0 -0.87500829304E+01 -0.38340067901E+02  0.17659761184E+03  0.18092330216E+03  0.00000000000E+00 0.  1.
         11    1    4    4    0    0  0.13651757806E+03 -0.80919506026E+02  0.88953699456E+03  0.90358235942E+03  0.00000000000E+00 0. -1.
          1    1    1    2  501    0 -0.80249178214E+02  0.21910274800E+03  0.25353848609E+03  0.34456887369E+03  0.00000000000E+00 0. -1.
<scales pt_clust_5="13000.00000" pt_clust_6="13000.00000" pt_clust_7="13000.00000" pt_clust_8="13000.00000" pt_clust_9="217.17332"></scales>
<clustering>
<clus scale="   80.727">  5  6 -1 -1</clus>
<clus scale="   94.669">  7  8 -1 -1</clus>
<clus scale="  136.907">  1  5  2 -1</clus>
<clus scale="  217.173">  2  9  1 -1</clus>
<clus scale="  217.173">  2  5  1 -1</clus>
</clustering>
</event>
<event>
 9    2  0.6175212E-005  0.1044293E+03  0.7546771E-02  0.1277032E+00
         21   -1    0    0  501  502  0.00000000000E+00  0.00000000000E+00  0.40237807240E+02  0.40237807240E+02  0.00000000000E+00 0. -1.
          2   -1    0    0  502    0 -0.00000000000E+00 -0.00000000000E+00 -0.41028398356E+03  0.41028398356E+03  0.00000000000E+00 0. -1.
         24    2    1    2    0    0  0.49874513563E+02  0.24001256032E+02 -0.27768936648E+03  0.29378520365E+03  0.78325182618E+02 0.  0.
         23    2    1    2    0    0 -0.25801221649E+02 -0.27334012653E+02 -0.57162952507E+02  0.11396699229E+03  0.91148345608E+02 0.  0.
        -11    1    3    3    0    0 -0.97206734636E+01  0.27850253767E+02 -0.14930319099E+03  0.15218926035E+03  0.00000000000E+00 0.  1.
         12    1    3    3    0    0  0.59595187026E+02 -0.38489977355E+01 -0.12838617550E+03  0.14159594330E+03  0.00000000000E+00 0. -1.
        -11    1    4    4    0    0 -0.35647326574E+02  0.33373222418E+01 -0.70524997454E+02  0.79092634787E+02  0.00000000000E+00 0.  1.
         11    1    4    4    0    0  0.98461049253E+01 -0.30671334895E+02  0.13362044947E+02  0.34874357508E+02  0.00000000000E+00 0. -1.
          1    1    1    2  501    0 -0.24073291914E+02  0.33327566210E+01 -0.35193857325E+02  0.42769594850E+02  0.00000000000E+00 0. -1.
<scales pt_clust_5="13000.00000" pt_clust_6="13000.00000" pt_clust_7="13000.00000" pt_clust_8="13000.00000" pt_clust_9="24.30291"></scales>
<clustering>
<clus scale="   24.303">  1  9  2 -1</clus>
<clus scale="   78.325">  5  6 -1 -1</clus>
<clus scale="   91.148">  7  8 -1 -1</clus>
<clus scale="   93.447">  2  5  1 -1</clus>
<clus scale="   24.303">  1  5  2 -1</clus>
</clustering>
</event>
<event>
 9    2  0.6175212E-005  0.1202311E+03  0.7546771E-02  0.1244042E+00
         -1   -1    0    0    0  501 -0.00000000000E+00  0.00000000000E+00  0.96020953623E+02  0.96020953623E+02  0.00000000000E+00 0.  1.
         21   -1    0    0  501  502  0.00000000000E+00 -0.00000000000E+00 -0.26300694357E+03  0.26300694357E+03  0.00000000000E+00 0.  1.
         24    2    1    2    0    0 -0.74014913965E+02 -0.20814350043E+02 -0.37351164982E+02  0.12204976233E+03  0.87118254697E+02 0.  0.
         23    2    1    2    0    0  0.53812685669E+02  0.76672691581E+02 -0.11854461000E+03  0.17655233561E+03  0.91342191111E+02 0.  0.
        -11    1    3    3    0    0 -0.88329004828E+02 -0.30592789921E+02 -0.16480352741E+02  0.94918564651E+02  0.00000000000E+00 0.  1.
         12    1    3    3    0    0  0.14314090863E+02  0.97784398782E+01 -0.20870812241E+02  0.27131197675E+02  0.00000000000E+00 0. -1.
        -13    1    4    4    0    0  0.56526338819E+02  0.10322587391E+02 -0.27076921309E+02  0.63521196921E+02  0.00000000000E+00 0. -1.
         13    1    4    4    0    0 -0.27136531501E+01  0.66350104191E+02 -0.91467688686E+02  0.11303113869E+03  0.00000000000E+00 0.  1.
         -2    1    1    2    0  502  0.20202228296E+02 -0.55858341538E+02 -0.11090214968E+02  0.60425799255E+02  0.00000000000E+00 0.  1.
<scales pt_clust_5="13000.00000" pt_clust_6="13000.00000" pt_clust_7="13000.00000" pt_clust_8="13000.00000" pt_clust_9="59.39939"></scales>
<clustering>
<clus scale="   59.399">  2  9  1 -1</clus>
<clus scale="   87.118">  5  6 -1 -1</clus>
<clus scale="   91.342">  7  8 -1 -1</clus>
<clus scale="  117.054">  1  5  2 -1</clus>
<clus scale="   59.399">  2  5  1 -1</clus>
</clustering>
</event>
<event>
 9    2  0.6175212E-005  0.1751183E+03  0.7546771E-02  0.1188591E+00
         21   -1    0    0  501  502  0.00000000000E+00  0.00000000000E+00  0.15138807573E+03  0.15138807573E+03  0.00000000000E+00 0. -1.
          2   -1    0    0  502    0 -0.00000000000E+00 -0.00000000000E+00 -0.49967858110E+03  0.49967858110E+03  0.00000000000E+00 0. -1.
         23    2    1    2    0    0 -0.72460955520E+02  0.39474654160E+02 -0.53043071584E+01  0.12243618373E+03  0.90297536049E+02 0.  0.
         24    2    1    2    0    0 -0.98887103924E+02 -0.32162496619E+02 -0.33194567364E+03  0.35677146605E+03  0.79277129279E+02 0.  0.
        -13    1    4    4    0    0 -0.46559067054E+02 -0.19734016781E+02 -0.55254721424E+02  0.74901684780E+02  0.00000000000E+00 0.  1.
         14    1    4    4    0    0 -0.52328036870E+02 -0.12428479838E+02 -0.27669095222E+03  0.28186978127E+03  0.00000000000E+00 0. -1.
        -13    1    3    3    0    0 -0.15314026568E+02 -0.20873786650E+02 -0.26099385815E+02  0.36761560341E+02  0.00000000000E+00 0.  1.
         13    1    3    3    0    0 -0.57146928952E+02  0.60348440810E+02  0.20795078656E+02  0.85674623391E+02  0.00000000000E+00 0. -1.
          1    1    1    2  501    0  0.17134805944E+03 -0.73121575416E+01 -0.11040524567E+02  0.17185900705E+03  0.00000000000E+00 0. -1.
<scales pt_clust_5="13000.00000" pt_clust_6="13000.00000" pt_clust_7="13000.00000" pt_clust_8="13000.00000" pt_clust_9="156.14592"></scales>
<clustering>
<clus scale="   79.277">  5  6 -1 -1</clus>
<clus scale="   90.298">  7  8 -1 -1</clus>
<clus scale="  122.321">  2  7  1 -1</clus>
<clus scale="  156.146">  1  9  2 -1</clus>
<clus scale="  156.146">  1  5  2 -1</clus>
</clustering>
</event>
<event>
 9    2  0.6175212E-005  0.3558185E+03  0.7546771E-02  0.1060252E+00
          2   -1    0    0  502    0 -0.00000000000E+00  0.00000000000E+00  0.22651757265E+04  0.22651757265E+04  0.00000000000E+00 0. -1.
         21   -1    0    0  501  502  0.00000000000E+00 -0.00000000000E+00 -0.48194928712E+02  0.48194928712E+02  0.00000000000E+00 0. -1.
         24    2    1    2    0    0  0.21664162334E+02 -0.10740618636E+03  0.38656895401E+03  0.41025942667E+03  0.82896418334E+02 0.  0.
         23    2    1    2    0    0 -0.55373074618E+02 -0.17524459192E+03  0.55446890762E+03  0.59580172825E+03  0.11733322406E+03 0.  0.
        -11    1    3    3    0    0  0.36788515241E+02 -0.28086969274E+02  0.22410854463E+03  0.22883817967E+03  0.00000000000E+00 0.  1.
         12    1    3    3    0    0 -0.15124352907E+02 -0.79319217086E+02  0.16246040937E+03  0.18142124700E+03  0.00000000000E+00 0. -1.
        -13    1    4    4    0    0 -0.44715302207E+02 -0.56255328645E+02  0.84686416292E+02  0.11106713896E+03  0.00000000000E+00 0.  1.
         13    1    4    4    0    0 -0.10657772411E+02 -0.11898926328E+03  0.46978249133E+03  0.48473458929E+03  0.00000000000E+00 0. -1.
          1    1    1    2  501    0  0.33708912284E+02  0.28265077828E+03  0.12759429362E+04  0.13073095003E+04  0.00000000000E+00 0. -1.
<scales pt_clust_5="13000.00000" pt_clust_6="13000.00000" pt_clust_7="13000.00000" pt_clust_8="13000.00000" pt_clust_9="284.65389"></scales>
<clustering>
<clus scale="   82.896">  5  6 -1 -1</clus>
<clus scale="  117.333">  7  8 -1 -1</clus>
<clus scale="  129.946">  5  7 -1 -1</clus>
<clus scale="  284.654">  2  9  1 -1</clus>
<clus scale="  284.654">  2  5  1 -1</clus>
</clustering>
</event>
<event>
 9    2  0.6175212E-005  0.9431464E+02  0.7546771E-02  0.1293077E+00
         21   -1    0    0  501  502  0.00000000000E+00  0.00000000000E+00  0.64141287645E+02  0.64141287645E+02  0.00000000000E+00 0. -1.
          2   -1    0    0  502    0 -0.00000000000E+00 -0.00000000000E+00 -0.43296878697E+03  0.43296878697E+03  0.00000000000E+00 0. -1.
         23    2    1    2    0    0  0.28715669964E+02  0.10049169128E+02 -0.21576371462E+03  0.23652121911E+03  0.91993103234E+02 0.  0.
         24    2    1    2    0    0  0.60213839979E+02 -0.42374529464E+02 -0.51074369780E+02  0.12146578978E+03  0.82000241255E+02 0.  0.
        -13    1    4    4    0    0  0.19561409647E+02  0.23911341014E+02 -0.56330116317E+01  0.31402735494E+02  0.00000000000E+00 0.  1.
         14    1    4    4    0    0  0.40652430332E+02 -0.66285870477E+02 -0.45441358148E+02  0.90063054285E+02  0.00000000000E+00 0. -1.
        -13    1    3    3    0    0  0.57086372138E+02 -0.10894121099E+02 -0.10173817221E+03  0.11716736509E+03  0.00000000000E+00 0. -1.
         13    1    3    3    0    0 -0.28370702174E+02  0.20943290228E+02 -0.11402554241E+03  0.11935385402E+03  0.00000000000E+00 0.  1.
          1    1    1    2  501    0 -0.88929509942E+02  0.32325360335E+02 -0.10198941493E+03  0.13912306572E+03  0.00000000000E+00 0. -1.
<scales pt_clust_5="13000.00000" pt_clust_6="13000.00000" pt_clust_7="13000.00000" pt_clust_8="13000.00000" pt_clust_9="94.62234"></scales>
<clustering>
<clus scale="   82.000">  5  6 -1 -1</clus>
<clus scale="   91.993">  7  8 -1 -1</clus>
<clus scale="   94.622">  1  9  2 -1</clus>
<clus scale="   94.622">  1  5  2 -1</clus>
<clus scale="   94.315">  1  5  2 -1</clus>
</clustering>
</event>
<event>
 9    2  0.6175212E-005  0.1445877E+03  0.7546771E-02  0.1210068E+00
         21   -1    0    0  501  502  0.00000000000E+00  0.00000000000E+00  0.18684811195E+03  0.18684811195E+03  0.00000000000E+00 0.  1.
          2   -1    0    0  502    0 -0.00000000000E+00 -0.00000000000E+00 -0.62135721617E+03  0.62135721617E+03  0.00000000000E+00 0. -1.
         24    2    1    2    0    0 -0.10521866939E+03  0.28433966733E+02 -0.10246427439E+03  0.17055220660E+03  0.81912568018E+02 0.  0.
         23    2    1    2    0    0  0.12381116226E+03  0.10237979642E+03  0.81332293173E+02  0.20367320580E+03  0.95168304758E+02 0.  0.
        -11    1    3    3    0    0 -0.10671694190E+03  0.47784936931E+02 -0.87308500970E+02  0.14592696882E+03  0.00000000000E+00 0.  1.
         12    1    3    3    0    0  0.14982725142E+01 -0.19350970197E+02 -0.15155773422E+02  0.24625237788E+02  0.00000000000E+00 0. -1.
        -13    1    4    4    0    0  0.12697378082E+03  0.53703809214E+02  0.57329044205E+02  0.14930860474E+03  0.00000000000E+00 0.  1.
         13    1    4    4    0    0 -0.31626185608E+01  0.48675987208E+02  0.24003248968E+02  0.54364601055E+02  0.00000000000E+00 0. -1.
          1    1    1    2  501    0 -0.18592492872E+02 -0.13081376316E+03 -0.41337712300E+03  0.43397991572E+03  0.00000000000E+00 0. -1.
<scales pt_clust_5="13000.00000" pt_clust_6="13000.00000" pt_clust_7="13000.00000" pt_clust_8="13000.00000" pt_clust_9="132.12849"></scales>
<clustering>
<clus scale="   81.913">  5  6 -1 -1</clus>
<clus scale="   95.168">  7  8 -1 -1</clus>
<clus scale="  132.128">  1  9  2 -1</clus>
<clus scale="  136.229">  2  5  1 -1</clus>
<clus scale="  132.128">  1  5  2 -1</clus>
</clustering>
</event>
<event>
 9    2  0.6175212E-005  0.9884218E+02  0.7546771E-02  0.1287282E+00
         -1   -1    0    0    0  501 -0.00000000000E+00  0.00000000000E+00  0.13784504635E+03  0.13784504635E+03  0.00000000000E+00 0.  1.
         21   -1    0    0  501  502  0.00000000000E+00 -0.00000000000E+00 -0.42666447990E+03  0.42666447990E+03  0.00000000000E+00 0.  1.
         24    2    1    2    0    0  0.33208053415E+02  0.31534833573E+02  0.10907640523E+03  0.14248388332E+03  0.79415201870E+02 0.  0.
         23    2    1    2    0    0  0.12102557233E+02 -0.31989490219E+02 -0.25394217206E+03  0.27110872436E+03  0.88563617229E+02 0.  0.
        -11    1    3    3    0    0  0.19598146009E+02  0.31825879471E+02  0.11958295650E+03  0.12528789813E+03  0.00000000000E+00 0.  1.
         12    1    3    3    0    0  0.13609907406E+02 -0.29104589810E+00 -0.10506551269E+02  0.17195985197E+02  0.00000000000E+00 0. -1.
        -11    1    4    4    0    0 -0.17896575281E+02  0.93214921143E+01 -0.11246330901E+02  0.23101029863E+02  0.00000000000E+00 0. -1.
         11    1    4    4    0    0  0.29999132514E+02 -0.41310982333E+02 -0.24269584116E+03  0.24800769450E+03  0.00000000000E+00 0.  1.
         -2    1    1    2    0  502 -0.45310610648E+02  0.45465664527E+00 -0.14395366671E+03  0.15091691857E+03  0.00000000000E+00 0.  1.
<scales pt_clust_5="13000.00000" pt_clust_6="13000.00000" pt_clust_7="13000.00000" pt_clust_8="13000.00000" pt_clust_9="45.31289"></scales>
<clustering>
<clus scale="   45.313">  2  9  1 -1</clus>
<clus scale="   79.415">  5  6 -1 -1</clus>
<clus scale="   88.564">  7  8 -1 -1</clus>
<clus scale="   90.736">  1  5  2 -1</clus>
<clus scale="   45.313">  2  5  1 -1</clus>
</clustering>
</event>
<event>
 9    2  0.6175212E-005  0.1005376E+03  0.7546771E-02  0.1285648E+00
          2   -1    0    0  502    0 -0.00000000000E+00  0.00000000000E+00  0.71310477042E+03  0.71310477042E+03  0.00000000000E+00 0. -1.
         21   -1    0    0  501  502  0.00000000000E+00 -0.00000000000E+00 -0.47482427356E+02  0.47482427356E+02  0.00000000000E+00 0.  1.
         24    2    1    2    0    0  0.48773762378E+02 -0.15390407788E+02  0.49666398132E+03  0.50569498863E+03  0.80228215921E+02 0.  0.
         23    2    1    2    0    0 -0.91654988873E+01 -0.12844667959E+02  0.18162054371E+03  0.20462925171E+03  0.92941470256E+02 0.  0.
        -11    1    3    3    0    0  0.19486571862E+02 -0.23329854763E+02  0.53807402149E+02  0.61800041522E+02  0.00000000000E+00 0.  1.
         12    1    3    3    0    0  0.29287190516E+02  0.79394469748E+01  0.44285657917E+03  0.44389494710E+03  0.00000000000E+00 0. -1.
        -11    1    4    4    0    0 -0.41896212161E+02 -0.49493366159E+01  0.36914256696E+02  0.56057567499E+02  0.00000000000E+00 0. -1.
         11    1    4    4    0    0  0.32730713274E+02 -0.78953313430E+01  0.14470628701E+03  0.14857168421E+03  0.00000000000E+00 0.  1.
          1    1    1    2  501    0 -0.39608263491E+02  0.28235075747E+02 -0.12662181961E+02  0.50262957446E+02  0.00000000000E+00 0. -1.
<scales pt_clust_5="13000.00000" pt_clust_6="13000.00000" pt_clust_7="13000.00000" pt_clust_8="13000.00000" pt_clust_9="48.64190"></scales>
<clustering>
<clus scale="   48.642">  2  9  1 -1</clus>
<clus scale="   80.228">  5  6 -1 -1</clus>
<clus scale="   88.917">  1  5  2 -1</clus>
<clus scale="   92.941">  7  8 -1 -1</clus>
<clus scale="   48.642">  2  5  1 -1</clus>
</clustering>
</event>
<event>
 9    2  0.6175212E-005  0.1239129E+03  0.7546771E-02  0.1246680E+00
         21   -1    0    0  501  502  0.00000000000E+00  0.00000000000E+00  0.18678353780E+03  0.18678353780E+03  0.00000000000E+00 0. -1.
          4   -1    0    0  502    0 -0.00000000000E+00 -0.00000000000E+00 -0.17135331494E+03  0.17135331494E+03  0.00000000000E+00 0. -1.
         23    2    1    2    0    0  0.24059019684E+01  0.38381245134E+02 -0.67636468854E+02  0.12188589234E+03  0.93822014948E+02 0.  0.
         24    2    1    2    0    0 -0.10676779106E+02  0.71918092556E+02  0.26281198762E+02  0.11191696058E+03  0.80922796594E+02 0.  0.
        -11    1    4    4    0    0  0.26948309187E+02 -0.24550892780E+00  0.11018316875E+02  0.29114857881E+02  0.00000000000E+00 0.  1.
         12    1    4    4    0    0 -0.37625088293E+02  0.72163601484E+02  0.15262881887E+02  0.82802102701E+02  0.00000000000E+00 0. -1.
        -11    1    3    3    0    0  0.38325862796E+02  0.12811168639E+02 -0.66456703246E+02  0.77778475218E+02  0.00000000000E+00 0. -1.
         11    1    3    3    0    0 -0.35919960828E+02  0.25570076496E+02 -0.11797656083E+01  0.44107417117E+02  0.00000000000E+00 0.  1.
          3    1    1    2  501    0  0.82708771374E+01 -0.11029933769E+03  0.56785492955E+02  0.12433399983E+03  0.00000000000E+00 0. -1.
<scales pt_clust_5="13000.00000" pt_clust_6="13000.00000" pt_clust_7="13000.00000" pt_clust_8="13000.00000" pt_clust_9="93.83984"></scales>
<clustering>
<clus scale="   80.923">  5  6 -1 -1</clus>
<clus scale="   93.822">  7  8 -1 -1</clus>
<clus scale="  101.398">  2  7  1 -1</clus>
<clus scale="   93.840">  1  9  2 -1</clus>
<clus scale="   93.840">  1  5  2 -1</clus>
</clustering>
</event>
<event>
 9    2  0.6175212E-005  0.9318510E+02  0.7546771E-02  0.1303445E+00
          4   -1    0    0  502    0 -0.00000000000E+00  0.00000000000E+00  0.37069840401E+03  0.37069840401E+03  0.00000000000E+00 0. -1.
         21   -1    0    0  501  502  0.00000000000E+00 -0.00000000000E+00 -0.36211958121E+02  0.36211958121E+02  0.00000000000E+00 0.  1.
         24    2    1    2    0    0  0.77146166842E+01 -0.81213019396E+01  0.94232039819E+02  0.12222913466E+03  0.77037738644E+02 0.  0.
         23    2    1    2    0    0 -0.34354799278E+02 -0.32220733838E+02  0.13829480125E+03  0.17184089694E+03  0.90473277195E+02 0.  0.
        -13    1    3    3    0    0 -0.15769725312E+02 -0.24670539956E+02  0.88119164334E+02  0.92856377815E+02  0.00000000000E+00 0.  1.
         14    1    3    3    0    0  0.23484341996E+02  0.16549238017E+02  0.61128754852E+01  0.29372756844E+02  0.00000000000E+00 0. -1.
        -13    1    4    4    0    0 -0.90305066148E+01 -0.24741134411E+02 -0.44180836924E+01  0.26705678145E+02  0.00000000000E+00 0.  1.
         13    1    4    4    0    0 -0.25324292664E+02 -0.74795994264E+01  0.14271288494E+03  0.14513521879E+03  0.00000000000E+00 0. -1.
          3    1    1    2  501    0  0.26640182594E+02  0.40342035777E+02  0.10195960482E+03  0.11284033053E+03  0.00000000000E+00 0. -1.
<scales pt_clust_5="13000.00000" pt_clust_6="13000.00000" pt_clust_7="13000.00000" pt_clust_8="13000.00000" pt_clust_9="48.34441"></scales>
<clustering>
<clus scale="   48.344">  2  9  1 -1</clus>
<clus scale="   77.038">  5  6 -1 -1</clus>
<clus scale="   80.205">  1  5  2 -1</clus>
<clus scale="   90.473">  7  8 -1 -1</clus>
<clus scale="   48.344">  2  5  1 -1</clus>
</clustering>
</event>
<event>
 9    2  0.6175212E-005  0.9566630E+02  0.7546771E-02  0.1294749E+00
         -1   -1    0    0    0  501 -0.00000000000E+00  0.00000000000E+00  0.50430245103E+02  0.50430245103E+02  0.00000000000E+00 0.  1.
         21   -1    0    0  501  502  0.00000000000E+00 -0.00000000000E+00 -0.34765455334E+03  0.34765455334E+03  0.00000000000E+00 0. -1.
         24    2    1    2    0    0  0.26827853581E+02  0.28642910092E+02 -0.34281141805E+02  0.96506183693E+02  0.81228669700E+02 0.  0.
         23    2    1    2    0    0 -0.19559392013E+02 -0.38247750090E+01 -0.98769182936E+02  0.13538033793E+03  0.90417286396E+02 0.  0.
        -13    1    3    3    0    0  0.96631221469E+01 -0.28033644125E+02 -0.37747886314E+01  0.29891640333E+02  0.00000000000E+00 0.  1.
         14    1    3    3    0    0  0.17164731434E+02  0.56676554218E+02 -0.30506353173E+02  0.66614543360E+02  0.00000000000E+00 0. -1.
        -11    1    4    4    0    0 -0.47646313693E+02 -0.35008015410E+01 -0.95905278301E+02  0.10714592492E+03  0.00000000000E+00 0. -1.
         11    1    4    4    0    0  0.28086921680E+02 -0.32397346806E+00 -0.28639046349E+01  0.28234413010E+02  0.00000000000E+00 0.  1.
         -2    1    1    2    0  502 -0.72684615682E+01 -0.24818135083E+02 -0.16417398350E+03  0.16619827683E+03  0.00000000000E+00 0.  1.
<scales pt_clust_5="13000.00000" pt_clust_6="13000.00000" pt_clust_7="13000.00000" pt_clust_8="13000.00000" pt_clust_9="25.86059"></scales>
<clustering>
<clus scale="   25.861">  2  9  1 -1</clus>
<clus scale="   81.229">  5  6 -1 -1</clus>
<clus scale="   87.034">  1  5  2 -1</clus>
<clus scale="   90.417">  7  8 -1 -1</clus>
<clus scale="   25.861">  2  5  1 -1</clus>
</clustering>
</event>
<event>
 9    2  0.6175212E-005  0.1461226E+03  0.7546771E-02  0.1207475E+00
          2   -1    0    0  502    0 -0.00000000000E+00  0.00000000000E+00  0.92166961012E+03  0.92166961012E+03  0.00000000000E+00 0. -1.
         21   -1    0    0  501  502  0.00000000000E+00 -0.00000000000E+00 -0.60556307635E+02  0.60556307635E+02  0.00000000000E+00 0. -1.
         24    2    1    2    0    0 -0.60836709020E+02 -0.10117884611E+03  0.67615174018E+03  0.69116275527E+03  0.81157343903E+02 0.  0.
         23    2    1    2    0    0  0.10120151044E+03  0.38782695709E+02  0.82205222894E+02  0.16425045780E+03  0.92057976383E+02 0.  0.
        -13    1    3    3    0    0 -0.51668765759E+02 -0.12095566533E+02  0.22067712869E+03  0.22696774928E+03  0.00000000000E+00 0.  1.
         14    1    3    3    0    0 -0.91679432607E+01 -0.89083279577E+02  0.45547461149E+03  0.46419500600E+03  0.00000000000E+00 0. -1.
        -13    1    4    4    0    0  0.78741477066E+02  0.50550715532E+02  0.97095923575E+02  0.13484514610E+03  0.00000000000E+00 0.  1.
         13    1    4    4    0    0  0.22460033372E+02 -0.11768019824E+02 -0.14890700681E+02  0.29405311704E+02  0.00000000000E+00 0. -1.
          1    1    1    2  501    0 -0.40364801418E+02  0.62396150402E+02  0.10275633942E+03  0.12681270468E+03  0.00000000000E+00 0. -1.
<scales pt_clust_5="13000.00000" pt_clust_6="13000.00000" pt_clust_7="13000.00000" pt_clust_8="13000.00000" pt_clust_9="74.31418"></scales>
<clustering>
<clus scale="   74.314">  2  9  1 -1</clus>
<clus scale="   81.157">  5  6 -1 -1</clus>
<clus scale="   92.058">  7  8 -1 -1</clus>
<clus scale="  139.512">  1  5  2 -1</clus>
<clus scale="   74.314">  2  5  1 -1</clus>
</clustering>
</event>
<event>
 9    2  0.6175212E-005  0.1209210E+03  0.7546771E-02  0.1244559E+00
         21   -1    0    0  501  502  0.00000000000E+00  0.00000000000E+00  0.66322339011E+02  0.66322339011E+02  0.00000000000E+00 0. -1.
         -3   -1    0    0    0  501 -0.00000000000E+00 -0.00000000000E+00 -0.39267397911E+03  0.39267397911E+03  0.00000000000E+00 0.  1.
         23    2    1    2    0    0 -0.71209504605E+02 -0.33390618848E+02 -0.26874322234E+03  0.29428509806E+03  0.90526639256E+02 0.  0.
         24    2    1    2    0    0  0.89741896858E+02  0.60045515952E+01 -0.41028448423E+02  0.12772011808E+03  0.80866756409E+02 0.  0.
        -11    1    4    4    0    0  0.51863338272E+02 -0.11841412046E+00 -0.64480851272E+02  0.82750226945E+02  0.00000000000E+00 0.  1.
         12    1    4    4    0    0  0.37878558586E+02  0.61229657157E+01  0.23452402850E+02  0.44969891140E+02  0.00000000000E+00 0. -1.
        -13    1    3    3    0    0  0.17589786049E+01 -0.45277325243E+02 -0.87310313041E+02  0.98367784107E+02  0.00000000000E+00 0. -1.
         13    1    3    3    0    0 -0.72968483209E+02  0.11886706395E+02 -0.18143290930E+03  0.19591731395E+03  0.00000000000E+00 0.  1.
         -4    1    1    2    0  502 -0.18532392253E+02  0.27386067253E+02 -0.16579969340E+02  0.36991101978E+02  0.00000000000E+00 0.  1.
<scales pt_clust_5="13000.00000" pt_clust_6="13000.00000" pt_clust_7="13000.00000" pt_clust_8="13000.00000" pt_clust_9="33.06730"></scales>
<clustering>
<clus scale="   33.067">  1  9  2 -1</clus>
<clus scale="   80.867">  5  6 -1 -1</clus>
<clus scale="   90.527">  7  8 -1 -1</clus>
<clus scale="  113.869">  1  5  2 -1</clus>
<clus scale="   33.067">  1  5  2 -1</clus>
</clustering>
</event>
<event>
 9    2  0.6175212E-005  0.3345772E+03  0.7546771E-02  0.1109854E+00
         -1   -1    0    0    0  501 -0.00000000000E+00  0.00000000000E+00  0.36525925816E+03  0.36525925816E+03  0.00000000000E+00 0.  1.
         21   -1    0    0  501  502  0.00000000000E+00 -0.00000000000E+00 -0.57059801750E+03  0.57059801750E+03  0.00000000000E+00 0.  1.
         24    2    1    2    0    0  0.43062925889E+02 -0.70319330645E+02  0.96181911520E+02  0.14903993232E+03  0.78502977490E+02 0.  0.
         23    2    1    2    0    0  0.19026319478E+02 -0.26719821250E+03  0.58541355948E+02  0.28940621613E+03  0.92584998700E+02 0.  0.
        -11    1    3    3    0    0 -0.22930645020E+02 -0.13417372653E+02  0.19353473694E+02  0.32869397834E+02  0.00000000000E+00 0.  1.
         12    1    3    3    0    0  0.65993570909E+02 -0.56901957993E+02  0.76828437827E+02  0.11617053449E+03  0.00000000000E+00 0. -1.
        -13    1    4    4    0    0 -0.10410105333E+02 -0.75590572097E+02 -0.22110028279E+02  0.79442798500E+02  0.00000000000E+00 0. -1.
         13    1    4    4    0    0  0.29436424811E+02 -0.19160764040E+03  0.80651384227E+02  0.20996341763E+03  0.00000000000E+00 0.  1.
         -2    1    1    2    0  502 -0.62089245367E+02  0.33751754314E+03 -0.36006202681E+03  0.49741112720E+03  0.00000000000E+00 0.  1.
<scales pt_clust_5="13000.00000" pt_clust_6="13000.00000" pt_clust_7="13000.00000" pt_clust_8="13000.00000" pt_clust_9="321.51189"></scales>
<clustering>
<clus scale="   78.503">  5  6 -1 -1</clus>
<clus scale="   92.585">  7  8 -1 -1</clus>
<clus scale="  113.851">  1  5  2 -1</clus>
<clus scale="  321.512">  2  9  1 -1</clus>
<clus scale="  321.512">  2  5  1 -1</clus>
</clustering>
</event>
<event>
 9    2  0.6175212E-005  0.1086666E+03  0.7546771E-02  0.1272385E+00
          2   -1    0    0  502    0 -0.00000000000E+00  0.00000000000E+00  0.28242189997E+03  0.28242189997E+03  0.00000000000E+00 0. -1.
         21   -1    0    0  501  502  0.00000000000E+00 -0.00000000000E+00 -0.18225626536E+03  0.18225626536E+03  0.00000000000E+00 0. -1.
         24    2    1    2    0    0 -0.26564239905E+02  0.28709972043E+02  0.21201380246E+03  0.23014997797E+03  0.80555810402E+02 0.  0.
         23    2    1    2    0    0  0.58614877495E+02 -0.23313521928E+02 -0.52314222215E+00  0.11855566313E+03  0.10037901879E+03 0.  0.
        -11    1    3    3    0    0 -0.26827289166E+02 -0.24178244405E+02  0.73808740722E+02  0.82170683053E+02  0.00000000000E+00 0.  1.
         12    1    3    3    0    0  0.26304926056E+00  0.52888216448E+02  0.13820506174E+03  0.14797929492E+03  0.00000000000E+00 0. -1.
        -11    1    4    4    0    0  0.18401851033E+02 -0.53399093661E+02 -0.26072825089E+02  0.62208387967E+02  0.00000000000E+00 0.  1.
         11    1    4    4    0    0  0.40213026462E+02  0.30085571733E+02  0.25549682867E+02  0.56347275163E+02  0.00000000000E+00 0. -1.
          1    1    1    2  501    0 -0.32050637589E+02 -0.53964501141E+01 -0.11132502563E+03  0.11597252422E+03  0.00000000000E+00 0. -1.
<scales pt_clust_5="13000.00000" pt_clust_6="13000.00000" pt_clust_7="13000.00000" pt_clust_8="13000.00000" pt_clust_9="32.50177"></scales>
<clustering>
<clus scale="   32.502">  2  9  1 -1</clus>
<clus scale="   80.556">  5  6 -1 -1</clus>
<clus scale="   90.674">  1  5  2 -1</clus>
<clus scale="  100.379">  7  8 -1 -1</clus>
<clus scale="   32.502">  2  5  1 -1</clus>
</clustering>
</event>
<event>
 9    2  0.6175212E-005  0.9343185E+02  0.7546771E-02  0.1301856E+00
         21   -1    0    0  501  502  0.00000000000E+00  0.00000000000E+00  0.16415064067E+03  0.16415064067E+03  0.00000000000E+00 0. -1.
          2   -1    0    0  502    0 -0.00000000000E+00 -0.00000000000E+00 -0.94900287939E+03  0.94900287939E+03  0.00000000000E+00 0. -1.
         24    2    1    2    0    0 -0.15677899489E+02 -0.61217985287E+01 -0.65015922732E+03  0.65499744305E+03  0.77661809069E+02 0.  0.
         23    2    1    2    0    0  0.58015622100E+02  0.36412563209E+02 -0.28102201676E+03  0.30284287413E+03  0.89714800020E+02 0.  0.
        -11    1    3    3    0    0  0.24225864073E+02 -0.91893089740E+01 -0.97274697638E+02  0.10066629371E+03  0.00000000000E+00 0.  1.
         12    1    3    3    0    0 -0.39903763562E+02  0.30675104453E+01 -0.55288452968E+03  0.55433114934E+03  0.00000000000E+00 0. -1.
        -11    1    4    4    0    0  0.77824605117E+02  0.96891640743E+01 -0.17609730604E+03  0.19277139377E+03  0.00000000000E+00 0.  1.
         11    1    4    4    0    0 -0.19808983017E+02  0.26723399135E+02 -0.10492471071E+03  0.11007148036E+03  0.00000000000E+00 0. -1.
          1    1    1    2  501    0 -0.42337722611E+02 -0.30290764680E+02  0.14632900535E+03  0.15531320288E+03  0.00000000000E+00 0. -1.
<scales pt_clust_5="13000.00000" pt_clust_6="13000.00000" pt_clust_7="13000.00000" pt_clust_8="13000.00000" pt_clust_9="52.05779"></scales>
<clustering>
<clus scale="   52.058">  1  9  2 -1</clus>
<clus scale="   77.662">  5  6 -1 -1</clus>
<clus scale="   81.928">  2  5  1 -1</clus>
<clus scale="   89.715">  7  8 -1 -1</clus>
<clus scale="   52.058">  1  5  2 -1</clus>
</clustering>
</event>
<event>
 9    2  0.6175212E-005  0.2056809E+03  0.7546771E-02  0.1170832E+00
         21   -1    0    0  501  502  0.00000000000E+00  0.00000000000E+00  0.20751621298E+03  0.20751621298E+03  0.00000000000E+00 0.  1.
         -1   -1    0    0    0  501 -0.00000000000E+00 -0.00000000000E+00 -0.42153339767E+03  0.42153339767E+03  0.00000000000E+00 0.  1.
         24    2    1    2    0    0  0.61584220578E+02 -0.50138341534E+02 -0.17838233270E+03  0.21092681522E+03  0.79770892214E+02 0.  0.
         23    2    1    2    0    0 -0.17200141957E+03 -0.89886047119E+02  0.50184939531E+02  0.22022427632E+03  0.91193277855E+02 0.  0.
        -13    1    3    3    0    0  0.62218254598E+01 -0.36612377524E+02 -0.13296069744E+03  0.13804971700E+03  0.00000000000E+00 0.  1.
         14    1    3    3    0    0  0.55362395118E+02 -0.13525964010E+02 -0.45421635257E+02  0.72877098221E+02  0.00000000000E+00 0. -1.
        -13    1    4    4    0    0 -0.78611525129E+02 -0.87787007206E+02  0.91495030354E+01  0.11819494034E+03  0.00000000000E+00 0.  1.
         13    1    4    4    0    0 -0.93389894436E+02 -0.20990399138E+01  0.41035436495E+02  0.10202933598E+03  0.00000000000E+00 0. -1.
         -2    1    1    2    0  502  0.11041719899E+03  0.14002438865E+03 -0.85819791519E+02  0.19789851911E+03  0.00000000000E+00 0.  1.
<scales pt_clust_5="13000.00000" pt_clust_6="13000.00000" pt_clust_7="13000.00000" pt_clust_8="13000.00000" pt_clust_9="184.35959"></scales>
<clustering>
<clus scale="   79.771">  5  6 -1 -1</clus>
<clus scale="   91.193">  7  8 -1 -1</clus>
<clus scale="  112.560">  2  5  1 -1</clus>
<clus scale="  184.360">  1  9  2 -1</clus>
<clus scale="  184.360">  1  5  2 -1</clus>
</clustering>
</event>
<event>
 9    2  0.6175212E-005  0.1466318E+03  0.7546771E-02  0.1222135E+00
         -1   -1    0    0    0  501 -0.00000000000E+00  0.00000000000E+00  0.26420299231E+03  0.26420299231E+03  0.00000000000E+00 0.  1.
         21   -1    0    0  501  502  0.00000000000E+00 -0.00000000000E+00 -0.16245512293E+03  0.16245512293E+03  0.00000000000E+00 0. -1.
         23    2    1    2    0    0  0.30314068964E+02 -0.33636764608E+02  0.11418552718E+03  0.15258374906E+03  0.90515695595E+02 0.  0.
         24    2    1    2    0    0  0.74826656047E+02 -0.65803005166E+02  0.85515309267E+01  0.12784377461E+03  0.79635658356E+02 0.  0.
        -11    1    4    4    0    0  0.44799480270E+02  0.10087809090E+02  0.19659473138E+01  0.45963270919E+02  0.00000000000E+00 0.  1.
         12    1    4    4    0    0  0.30027175777E+02 -0.75890814256E+02  0.65855836128E+01  0.81880503693E+02  0.00000000000E+00 0. -1.
        -11    1    3    3    0    0  0.49517269680E+01 -0.40464389707E+02  0.59394010326E+01  0.41196637229E+02  0.00000000000E+00 0.  1.
         11    1    3    3    0    0  0.25362341996E+02  0.68276250994E+01  0.10824612614E+03  0.11138711183E+03  0.00000000000E+00 0. -1.
         -2    1    1    2    0  502 -0.10514072501E+03  0.99439769773E+02 -0.20989188728E+02  0.14623059157E+03  0.00000000000E+00 0.  1.
<scales pt_clust_5="13000.00000" pt_clust_6="13000.00000" pt_clust_7="13000.00000" pt_clust_8="13000.00000" pt_clust_9="123.12218"></scales>
<clustering>
<clus scale="   79.636">  5  6 -1 -1</clus>
<clus scale="   90.516">  7  8 -1 -1</clus>
<clus scale="  101.210">  1  7  2 -1</clus>
<clus scale="  123.122">  2  9  1 -1</clus>
<clus scale="  123.122">  2  5  1 -1</clus>
</clustering>
</event>
<event>
 9    2  0.6175212E-005  0.1352103E+03  0.7546771E-02  0.1235368E+00
         21   -1    0    0  501  502  0.00000000000E+00  0.00000000000E+00  0.21002827174E+03  0.21002827174E+03  0.00000000000E+00 0. -1.
         -1   -1    0    0    0  501 -0.00000000000E+00 -0.00000000000E+00 -0.12005573094E+03  0.12005573094E+03  0.00000000000E+00 0.  1.
         24    2    1    2    0    0  0.59542122591E+02  0.13060510527E+02 -0.20284477595E+02  0.10316568647E+03  0.80720861834E+02 0.  0.
         23    2    1    2    0    0 -0.28954546925E+02 -0.50949189416E+02  0.41264913193E+02  0.14247269849E+03  0.12313200666E+03 0.  0.
        -13    1    3    3    0    0  0.65635371569E+02  0.33442842247E+02 -0.30299831550E+02  0.79652404173E+02  0.00000000000E+00 0.  1.
         14    1    3    3    0    0 -0.60932489778E+01 -0.20382331720E+02  0.10015353956E+02  0.23513282295E+02  0.00000000000E+00 0. -1.
        -11    1    4    4    0    0 -0.35794797196E+02  0.22716468014E+02 -0.19566706790E+02  0.46692198920E+02  0.00000000000E+00 0.  1.
         11    1    4    4    0    0  0.68402502715E+01 -0.73665657430E+02  0.60831619984E+02  0.95780499572E+02  0.00000000000E+00 0. -1.
         -2    1    1    2    0  502 -0.30587575666E+02  0.37888678889E+02  0.68992105196E+02  0.84445617722E+02  0.00000000000E+00 0.  1.
<scales pt_clust_5="13000.00000" pt_clust_6="13000.00000" pt_clust_7="13000.00000" pt_clust_8="13000.00000" pt_clust_9="48.69447"></scales>
<clustering>
<clus scale="   48.694">  1  9  2 -1</clus>
<clus scale="   80.721">  5  6 -1 -1</clus>
<clus scale="   98.164">  2  5  1 -1</clus>
<clus scale="  123.132">  7  8 -1 -1</clus>
<clus scale="   48.694">  1  5  2 -1</clus>
</clustering>
</event>
<event>
 9    2  0.6175212E-005  0.1321141E+03  0.7546771E-02  0.1242610E+00
         21   -1    0    0  501  502  0.00000000000E+00  0.00000000000E+00  0.32534985651E+02  0.32534985651E+02  0.00000000000E+00 0. -1.
          2   -1    0    0  502    0 -0.00000000000E+00 -0.00000000000E+00 -0.78690848936E+03  0.78690848936E+03  0.00000000000E+00 0. -1.
         24    2    1    2    0    0  0.34143334774E+02  0.57672508298E+01 -0.20035149996E+03  0.21997244686E+03  0.83953114015E+02 0.  0.
         23    2    1    2    0    0 -0.62891850904E+02  0.80551499030E+02 -0.32866725550E+03  0.35644393847E+03  0.92661683169E+02 0.  0.
        -13    1    3    3    0    0  0.56714951303E+02  0.15469976872E+02 -0.94388326775E+02  0.11119830087E+03  0.00000000000E+00 0.  1.
         14    1    3    3    0    0 -0.22571616529E+02 -0.97027260418E+01 -0.10596317318E+03  0.10877414599E+03  0.00000000000E+00 0. -1.
        -13    1    4    4    0    0  0.20037604381E+02 -0.74973706022E-01 -0.75376832821E+02  0.77994731467E+02  0.00000000000E+00 0.  1.
         13    1    4    4    0    0 -0.82929455285E+02  0.80626472736E+02 -0.25329042268E+03  0.27844920701E+03  0.00000000000E+00 0. -1.
          1    1    1    2  501    0  0.28748516130E+02 -0.86318749860E+02 -0.22535474825E+03  0.24302708968E+03  0.00000000000E+00 0. -1.
<scales pt_clust_5="13000.00000" pt_clust_6="13000.00000" pt_clust_7="13000.00000" pt_clust_8="13000.00000" pt_clust_9="94.16983"></scales>
<clustering>
<clus scale="   83.953">  5  6 -1 -1</clus>
<clus scale="   90.814">  2  5  1 -1</clus>
<clus scale="   92.662">  7  8 -1 -1</clus>
<clus scale="   94.170">  1  9  2 -1</clus>
<clus scale="   94.170">  1  5  2 -1</clus>
</clustering>
</event>
<event>
 9    2  0.6175212E-005  0.1392138E+03  0.7546771E-02  0.1215787E+00
         21   -1    0    0  501  502  0.00000000000E+00  0.00000000000E+00  0.35063343080E+02  0.35063343080E+02  0.00000000000E+00 0. -1.
          2   -1    0    0  502    0 -0.00000000000E+00 -0.00000000000E+00 -0.12948965612E+04  0.12948965612E+04  0.00000000000E+00 0. -1.
         23    2    1    2    0    0  0.23155775775E+02  0.97177241190E+02 -0.26184180920E+03  0.29466803513E+03  0.91041263882E+02 0.  0.
         24    2    1    2    0    0 -0.11318876068E+03  0.49118572232E+01 -0.46611257485E+03  0.48627163589E+03  0.79770605850E+02 0.  0.
        -11    1    4    4    0    0 -0.10999777770E+02 -0.24417557727E+02 -0.49192905945E+02  0.56010304692E+02  0.00000000000E+00 0.  1.
         12    1    4    4    0    0 -0.10218898291E+03  0.29329414951E+02 -0.41691966890E+03  0.43026133120E+03  0.00000000000E+00 0. -1.
        -11    1    3    3    0    0 -0.13529466891E+01  0.99699607388E+02 -0.24583692417E+03  0.26528783512E+03  0.00000000000E+00 0. -1.
         11    1    3    3    0    0  0.24508722464E+02 -0.25223661979E+01 -0.16004885028E+02  0.29380200013E+02  0.00000000000E+00 0.  1.
          1    1    1    2  501    0  0.90032984902E+02 -0.10208909841E+03 -0.53187883409E+03  0.54902023327E+03  0.00000000000E+00 0. -1.
<scales pt_clust_5="13000.00000" pt_clust_6="13000.00000" pt_clust_7="13000.00000" pt_clust_8="13000.00000" pt_clust_9="114.09276"></scales>
<clustering>
<clus scale="   79.771">  5  6 -1 -1</clus>
<clus scale="   91.041">  7  8 -1 -1</clus>
<clus scale="  135.160">  2  7  1 -1</clus>
<clus scale="  114.093">  1  9  2 -1</clus>
<clus scale="  114.093">  1  5  2 -1</clus>
</clustering>
</event>
<event>
 9    2  0.6175212E-005  0.1090757E+03  0.7546771E-02  0.1265338E+00
          2   -1    0    0  502    0 -0.00000000000E+00  0.00000000000E+00  0.12382143242E+04  0.12382143242E+04  0.00000000000E+00 0. -1.
         21   -1    0    0  501  502  0.00000000000E+00 -0.00000000000E+00 -0.21703100085E+02  0.21703100085E+02  0.00000000000E+00 0.  1.
         24    2    1    2    0    0 -0.40844134209E+02  0.54383369993E+02  0.10089722959E+04  0.10145731632E+04  0.81901253865E+02 0.  0.
         23    2    1    2    0    0  0.16223181313E+02 -0.29603399565E+02  0.15610133399E+03  0.18316657732E+03  0.89681746728E+02 0.  0.
        -13    1    3    3    0    0  0.21076528129E+02  0.42352567827E+01  0.11030871425E+03  0.11238402857E+03  0.00000000000E+00 0.  1.
         14    1    3    3    0    0 -0.61920662338E+02  0.50148113210E+02  0.89866358168E+03  0.90218913468E+03  0.00000000000E+00 0. -1.
        -13    1    4    4    0    0 -0.22895649999E+02 -0.33048995168E+02  0.27518772816E+02  0.48720937263E+02  0.00000000000E+00 0.  1.
         13    1    4    4    0    0  0.39118831312E+02  0.34455956031E+01  0.12858256118E+03  0.13444564006E+03  0.00000000000E+00 0. -1.
          1    1    1    2  501    0  0.24620952896E+02 -0.24779970428E+02  0.51437594164E+02  0.62177683692E+02  0.00000000000E+00 0. -1.
<scales pt_clust_5="13000.00000" pt_clust_6="13000.00000" pt_clust_7="13000.00000" pt_clust_8="13000.00000" pt_clust_9="34.93191"></scales>
<clustering>
<clus scale="   34.932">  2  9  1 -1</clus>
<clus scale="   81.901">  5  6 -1 -1</clus>
<clus scale="   89.682">  7  8 -1 -1</clus>
<clus scale="  102.774">  1  5  2 -1</clus>
<clus scale="   34.932">  2  5  1 -1</clus>
</clustering>
</event>
<event>
 9    2  0.6175212E-005  0.1272201E+03  0.7546771E-02  0.1254277E+00
         21   -1    0    0  501  502  0.00000000000E+00  0.00000000000E+00  0.26512778478E+03  0.26512778478E+03  0.00000000000E+00 0. -1.
          4   -1    0    0  502    0 -0.00000000000E+00 -0.00000000000E+00 -0.10215850762E+03  0.10215850762E+03  0.00000000000E+00 0. -1.
         24    2    1    2    0    0 -0.48320498604E+01  0.26744806369E+02  0.18243921760E+02  0.82550481918E+02  0.75783296379E+02 0.  0.
         23    2    1    2    0    0 -0.48048151793E+02  0.42890991926E+02  0.14520595706E+00  0.11577167303E+03  0.96201856080E+02 0.  0.
        -11    1    3    3    0    0 -0.33807899774E+02 -0.73403060839E+01  0.10145404198E+01  0.34610453231E+02  0.00000000000E+00 0.  1.
         12    1    3    3    0    0  0.28975849914E+02  0.34085112453E+02  0.17229381340E+02  0.47940028688E+02  0.00000000000E+00 0. -1.
        -11    1    4    4    0    0  0.14504492172E+02  0.22738195267E+02 -0.32629927269E+02  0.42333414353E+02  0.00000000000E+00 0.  1.
         11    1    4    4    0    0 -0.62552643965E+02  0.20152796658E+02  0.32775133226E+02  0.73438258681E+02  0.00000000000E+00 0. -1.
          3    1    1    2  501    0  0.52880201654E+02 -0.69635798295E+02  0.14458014945E+03  0.16896413745E+03  0.00000000000E+00 0. -1.
<scales pt_clust_5="13000.00000" pt_clust_6="13000.00000" pt_clust_7="13000.00000" pt_clust_8="13000.00000" pt_clust_9="83.24757"></scales>
<clustering>
<clus scale="   75.783">  5  6 -1 -1</clus>
<clus scale="   80.509">  2  5  1 -1</clus>
<clus scale="   83.248">  1  9  2 -1</clus>
<clus scale="   96.202">  7  8 -1 -1</clus>
<clus scale="   83.248">  1  5  2 -1</clus>
</clustering>
</event>
<event>
 9    2  0.6175212E-005  0.1300174E+03  0.7546771E-02  0.1249913E+00
         21   -1    0    0  501  502  0.00000000000E+00  0.00000000000E+00  0.47099145446E+03  0.47099145446E+03  0.00000000000E+00 0. -1.
          2   -1    0    0  502    0 -0.00000000000E+00 -0.00000000000E+00 -0.54747573539E+03  0.54747573539E+03  0.00000000000E+00 0. -1.
         24    2    1    2    0    0  0.18948570356E+01  0.14916561464E+02 -0.31992948822E+03  0.33033804098E+03  0.80884173965E+02 0.  0.
         23    2    1    2    0    0 -0.26990978751E+02  0.74244716795E+02 -0.20076430991E+03  0.23436528512E+03  0.91542273471E+02 0.  0.
        -11    1    3    3    0    0 -0.24706730919E+02  0.15437808131E+02 -0.41868809536E+02  0.51007310109E+02  0.00000000000E+00 0.  1.
         12    1    3    3    0    0  0.26601587955E+02 -0.52124666708E+00 -0.27806067869E+03  0.27933073088E+03  0.00000000000E+00 0. -1.
        -13    1    4    4    0    0  0.15031583023E+02  0.52279484896E+02 -0.16836942233E+03  0.17693884651E+03  0.00000000000E+00 0. -1.
         13    1    4    4    0    0 -0.42022561774E+02  0.21965231899E+02 -0.32394887577E+02  0.57426438611E+02  0.00000000000E+00 0.  1.
          1    1    1    2  501    0  0.25096121715E+02 -0.89161278259E+02  0.44420951720E+03  0.45376386374E+03  0.00000000000E+00 0. -1.
<scales pt_clust_5="13000.00000" pt_clust_6="13000.00000" pt_clust_7="13000.00000" pt_clust_8="13000.00000" pt_clust_9="92.32847"></scales>
<clustering>
<clus scale="   80.884">  5  6 -1 -1</clus>
<clus scale="   82.270">  2  5  1 -1</clus>
<clus scale="   91.542">  7  8 -1 -1</clus>
<clus scale="   92.328">  1  9  2 -1</clus>
<clus scale="   92.328">  1  5  2 -1</clus>
</clustering>
</event>
<event>
 9    2  0.6175212E-005  0.1128731E+03  0.7546771E-02  0.1259793E+00
          2   -1    0    0  502    0 -0.00000000000E+00  0.00000000000E+00  0.17194674646E+03  0.17194674646E+03  0.00000000000E+00 0. -1.
         21   -1    0    0  501  502  0.00000000000E+00 -0.00000000000E+00 -0.15232691312E+03  0.15232691312E+03  0.00000000000E+00 0.  1.
         23    2    1    2    0    0 -0.59585569247E+02 -0.35173910757E+02  0.11967883114E+03  0.16616099093E+03  0.92188981037E+02 0.  0.
         24    2    1    2    0    0  0.35717055904E+02  0.28212902054E+02 -0.95555520954E+02  0.13284524150E+03  0.80282779464E+02 0.  0.
        -13    1    4    4    0    0 -0.97533128599E+01  0.43081988656E+02 -0.51010186422E+02  0.67477581293E+02  0.00000000000E+00 0.  1.
         14    1    4    4    0    0  0.45470368763E+02 -0.14869086602E+02 -0.44545334531E+02  0.65367660203E+02  0.00000000000E+00 0. -1.
        -13    1    3    3    0    0 -0.18038915529E+02 -0.15498447652E+02 -0.12035943225E+02  0.26654610903E+02  0.00000000000E+00 0.  1.
         13    1    3    3    0    0 -0.41546653718E+02 -0.19675463105E+02  0.13171477436E+03  0.13950638003E+03  0.00000000000E+00 0. -1.
          1    1    1    2  501    0  0.23868513344E+02  0.69610087028E+01 -0.45034768383E+01  0.25267427155E+02  0.00000000000E+00 0. -1.
<scales pt_clust_5="13000.00000" pt_clust_6="13000.00000" pt_clust_7="13000.00000" pt_clust_8="13000.00000" pt_clust_9="24.86286"></scales>
<clustering>
<clus scale="   24.863">  2  9  1 -1</clus>
<clus scale="   80.283">  5  6 -1 -1</clus>
<clus scale="   92.189">  7  8 -1 -1</clus>
<clus scale="  103.377">  2  5  1 -1</clus>
<clus scale="   24.863">  2  5  1 -1</clus>
</clustering>
</event>
<event>
 9    2  0.6175212E-005  0.9701577E+02  0.7546771E-02  0.1292680E+00
         21   -1    0    0  501  502  0.00000000000E+00  0.00000000000E+00  0.28459163947E+02  0.28459163947E+02  0.00000000000E+00 0.  1.
          2   -1    0    0  502    0 -0.00000000000E+00 -0.00000000000E+00 -0.82784180585E+03  0.82784180585E+03  0.00000000000E+00 0. -1.
         24    2    1    2    0    0  0.61361163626E+02  0.20555511921E+02 -0.28386571220E+03  0.30242165259E+03  0.81800928610E+02 0.  0.
         23    2    1    2    0    0  0.17941211647E+02  0.25066614949E+02 -0.16594958450E+03  0.19253796333E+03  0.92635740778E+02 0.  0.
        -13    1    3    3    0    0  0.76216569730E+02  0.13641742295E+01 -0.24514981822E+03  0.25672798805E+03  0.00000000000E+00 0.  1.
         14    1    3    3    0    0 -0.14855406104E+02  0.19191337692E+02 -0.38715893977E+02  0.45693664543E+02  0.00000000000E+00 0. -1.
        -13    1    4    4    0    0  0.10485011361E+02 -0.35260686284E+02 -0.65778550747E+02  0.75366233811E+02  0.00000000000E+00 0. -1.
         13    1    4    4    0    0  0.74562002864E+01  0.60327301233E+02 -0.10017103375E+03  0.11717172952E+03  0.00000000000E+00 0.  1.
          1    1    1    2  501    0 -0.79302375274E+02 -0.45622126870E+02 -0.34956734521E+03  0.36134135388E+03  0.00000000000E+00 0. -1.
<scales pt_clust_5="13000.00000" pt_clust_6="13000.00000" pt_clust_7="13000.00000" pt_clust_8="13000.00000" pt_clust_9="91.48909"></scales>
<clustering>
<clus scale="   81.801">  5  6 -1 -1</clus>
<clus scale="   91.489">  1  9  2 -1</clus>
<clus scale="   86.730">  2  5  1 -1</clus>
<clus scale="   92.636">  7  8 -1 -1</clus>
<clus scale="   91.489">  1  5  2 -1</clus>
</clustering>
</event>
<event>
 9    2  0.6175212E-005  0.1097810E+03  0.7546771E-02  0.1264989E+00
         21   -1    0    0  501  502  0.00000000000E+00  0.00000000000E+00  0.12874640775E+03  0.12874640775E+03  0.00000000000E+00 0. -1.
          2   -1    0    0  502    0 -0.00000000000E+00 -0.00000000000E+00 -0.59926145193E+03  0.59926145193E+03  0.00000000000E+00 0. -1.
         24    2    1    2    0    0 -0.34708163935E+01 -0.63077572061E+02 -0.49637236809E+03  0.50684522937E+03  0.80720084618E+02 0.  0.
         23    2    1    2    0    0 -0.16018052560E+02  0.52803744182E+02 -0.67018342577E+02  0.12570972582E+03  0.90921193984E+02 0.  0.
        -11    1    3    3    0    0 -0.19630878661E+02 -0.53734204231E+02 -0.15937744716E+03  0.16933371420E+03  0.00000000000E+00 0.  1.
         12    1    3    3    0    0  0.16160062267E+02 -0.93433678294E+01 -0.33699492094E+03  0.33751151517E+03  0.00000000000E+00 0. -1.
        -11    1    4    4    0    0 -0.53383429373E+02  0.40436953832E+02 -0.43574667664E+02  0.79897993898E+02  0.00000000000E+00 0. -1.
         11    1    4    4    0    0  0.37365376813E+02  0.12366790350E+02 -0.23443674913E+02  0.45811731918E+02  0.00000000000E+00 0.  1.
          1    1    1    2  501    0  0.19488868954E+02  0.10273827878E+02  0.92875666487E+02  0.95452904501E+02  0.00000000000E+00 0. -1.
<scales pt_clust_5="13000.00000" pt_clust_6="13000.00000" pt_clust_7="13000.00000" pt_clust_8="13000.00000" pt_clust_9="22.03106"></scales>
<clustering>
<clus scale="   22.031">  1  9  2 -1</clus>
<clus scale="   80.720">  5  6 -1 -1</clus>
<clus scale="   90.921">  7  8 -1 -1</clus>
<clus scale="  101.494">  2  5  1 -1</clus>
<clus scale="   22.031">  1  5  2 -1</clus>
</clustering>
</event>
<event>
 9    2  0.6175212E-005  0.2181516E+03  0.7546771E-02  0.1139768E+00
          2   -1    0    0  502    0 -0.00000000000E+00  0.00000000000E+00  0.14336368646E+04  0.14336368646E+04  0.00000000000E+00 0. -1.
         21   -1    0    0  501  502  0.00000000000E+00 -0.00000000000E+00 -0.11669053674E+03  0.11669053674E+03  0.00000000000E+00 0.  1.
         23    2    1    2    0    0  0.17085591074E+03  0.29138423076E+02  0.48266266659E+02  0.20148839909E+03  0.90703652286E+02 0.  0.
         24    2    1    2    0    0  0.19732385113E+02 -0.19090216471E+03  0.58174197641E+03  0.61782919454E+03  0.80350376415E+02 0.  0.
        -11    1    4    4    0    0  0.28007452595E+02 -0.86559865166E+02  0.16799741333E+03  0.19105014667E+03  0.00000000000E+00 0.  1.
         12    1    4    4    0    0 -0.82750674824E+01 -0.10434229955E+03  0.41374456308E+03  0.42677904787E+03  0.00000000000E+00 0. -1.
        -11    1    3    3    0    0  0.15984031257E+03  0.52577756451E+02  0.33147126143E+02  0.17149949844E+03  0.00000000000E+00 0.  1.
         11    1    3    3    0    0  0.11015598170E+02 -0.23439333375E+02  0.15119140516E+02  0.29988900648E+02  0.00000000000E+00 0. -1.
          1    1    1    2  501    0 -0.19058829585E+03  0.16176374164E+03  0.68693808481E+03  0.73100980772E+03  0.00000000000E+00 0. -1.
<scales pt_clust_5="13000.00000" pt_clust_6="13000.00000" pt_clust_7="13000.00000" pt_clust_8="13000.00000" pt_clust_9="202.81518"></scales>
<clustering>
<clus scale="   80.350">  5  6 -1 -1</clus>
<clus scale="   90.704">  7  8 -1 -1</clus>
<clus scale="  195.622">  1  7  2 -1</clus>
<clus scale="  202.815">  2  9  1 -1</clus>
<clus scale="  202.815">  2  5  1 -1</clus>
</clustering>
</event>
<event>
 9    2  0.6175212E-005  0.1206883E+03  0.7546771E-02  0.1245815E+00
         21   -1    0    0  501  502  0.00000000000E+00  0.00000000000E+00  0.43243275571E+02  0.43243275571E+02  0.00000000000E+00 0. -1.
          2   -1    0    0  502    0 -0.00000000000E+00 -0.00000000000E+00 -0.97711637416E+03  0.97711637416E+03  0.00000000000E+00 0. -1.
         24    2    1    2    0    0 -0.77966495838E+02 -0.15003713340E+02 -0.73972823310E+03  0.74805693316E+03  0.78021987333E+02 0.  0.
         23    2    1    2    0    0  0.70499409772E+02  0.57893318213E+02 -0.18890853685E+03  0.22845417363E+03  0.90460328789E+02 0.  0.
        -13    1    3    3    0    0 -0.44129756399E+02 -0.71960546952E+00 -0.13126665992E+03  0.13848786675E+03  0.00000000000E+00 0.  1.
         14    1    3    3    0    0 -0.33836739439E+02 -0.14284107871E+02 -0.60846157318E+03  0.60956906640E+03  0.00000000000E+00 0. -1.
        -13    1    4    4    0    0  0.85775309670E+02  0.38607607091E+02 -0.10480626184E+03  0.14082721184E+03  0.00000000000E+00 0.  1.
         13    1    4    4    0    0 -0.15275899898E+02  0.19285711123E+02 -0.84102275011E+02  0.87626961794E+02  0.00000000000E+00 0. -1.
          1    1    1    2  501    0  0.74670860661E+01 -0.42889604873E+02 -0.52363286400E+01  0.43848542942E+02  0.00000000000E+00 0. -1.
<scales pt_clust_5="13000.00000" pt_clust_6="13000.00000" pt_clust_7="13000.00000" pt_clust_8="13000.00000" pt_clust_9="43.53476"></scales>
<clustering>
<clus scale="   43.535">  1  9  2 -1</clus>
<clus scale="   78.022">  5  6 -1 -1</clus>
<clus scale="   90.460">  7  8 -1 -1</clus>
<clus scale="  111.669">  2  5  1 -1</clus>
<clus scale="   43.535">  1  5  2 -1</clus>
</clustering>
</event>
<event>
 9    2  0.7608629E-005  0.9908140E+02  0.7546771E-02  0.1288957E+00
          2   -1    0    0  502    0 -0.00000000000E+00  0.00000000000E+00  0.50004978754E+03  0.50004978754E+03  0.00000000000E+00 0. -1.
         21   -1    0    0  501  502  0.00000000000E+00 -0.00000000000E+00 -0.13291730199E+03  0.13291730199E+03  0.00000000000E+00 0. -1.
         24    2    1    2    0    0  0.31832440952E+02  0.27195681127E+02  0.42542598850E+03  0.43479154329E+03  0.79394616043E+02 0.  0.
         23    2    1    2    0    0 -0.29785549532E+01  0.93452853035E+01  0.30755764061E+02  0.97688925637E+02  0.92200884064E+02 0.  0.
        -13    1    3    3    0    0  0.11320999866E+02 -0.26459403385E+02  0.90208851279E+02  0.94688446574E+02  0.00000000000E+00 0.  1.
         14    1    3    3    0    0  0.20511441086E+02  0.53655084512E+02  0.33521713723E+03  0.34010309672E+03  0.00000000000E+00 0. -1.
        -11    1    4    4    0    0 -0.39189559402E+02 -0.11774508125E+02 -0.67097428483E+01  0.41466628231E+02  0.00000000000E+00 0.  1.
         11    1    4    4    0    0  0.36211004449E+02  0.21119793429E+02  0.37465506910E+02  0.56222297407E+02  0.00000000000E+00 0. -1.
          1    1    1    2  501    0 -0.28853885999E+02 -0.36540966431E+02 -0.89049267016E+02  0.10048662061E+03  0.00000000000E+00 0. -1.
<scales pt_clust_5="13000.00000" pt_clust_6="13000.00000" pt_clust_7="13000.00000" pt_clust_8="13000.00000" pt_clust_9="46.55952"></scales>
<clustering>
<clus scale="   46.560">  2  9  1 -1</clus>
<clus scale="   79.395">  5  6 -1 -1</clus>
<clus scale="   87.290">  1  5  2 -1</clus>
<clus scale="   92.201">  7  8 -1 -1</clus>
<clus scale="   46.560">  2  5  1 -1</clus>
</clustering>
</event>
<event>
 9    2  0.6175212E-005  0.1364036E+03  0.7546771E-02  0.1225533E+00
          2   -1    0    0  502    0 -0.00000000000E+00  0.00000000000E+00  0.13495910431E+04  0.13495910431E+04  0.00000000000E+00 0. -1.
         21   -1    0    0  501  502  0.00000000000E+00 -0.00000000000E+00 -0.30056426971E+02  0.30056426971E+02  0.00000000000E+00 0. -1.
         23    2    1    2    0    0  0.76814240955E+02  0.43279349177E+02  0.46758063257E+03  0.48501880784E+03  0.94010990484E+02 0.  0.
         24    2    1    2    0    0 -0.12806892007E+03  0.61971953651E+02  0.51004285341E+03  0.53323123584E+03  0.62846378047E+02 0.  0.
        -11    1    4    4    0    0 -0.37270229306E+02  0.28250584561E+02  0.27605701640E+03  0.27999043166E+03  0.00000000000E+00 0.  1.
         12    1    4    4    0    0 -0.90798690764E+02  0.33721369091E+02  0.23398583701E+03  0.25324080418E+03  0.00000000000E+00 0. -1.
        -13    1    3    3    0    0 -0.22263013164E+02  0.82417598573E+01  0.91847483728E+02  0.94865845423E+02  0.00000000000E+00 0.  1.
         13    1    3    3    0    0  0.99077254119E+02  0.35037589319E+02  0.37573314884E+03  0.39015296242E+03  0.00000000000E+00 0. -1.
          1    1    1    2  501    0  0.51254679116E+02 -0.10525130283E+03  0.34191113016E+03  0.36139742639E+03  0.00000000000E+00 0. -1.
<scales pt_clust_5="13000.00000" pt_clust_6="13000.00000" pt_clust_7="13000.00000" pt_clust_8="13000.00000" pt_clust_9="117.06784"></scales>
<clustering>
<clus scale="   62.846">  5  6 -1 -1</clus>
<clus scale="   94.011">  7  8 -1 -1</clus>
<clus scale="  117.068">  2  9  1 -1</clus>
<clus scale="  117.122">  2  5  1 -1</clus>
<clus scale="  117.068">  2  5  1 -1</clus>
</clustering>
</event>
<event>
 9    2  0.6175212E-005  0.1006450E+03  0.7546771E-02  0.1284185E+00
          2   -1    0    0  502    0 -0.00000000000E+00  0.00000000000E+00  0.87834021286E+03  0.87834021286E+03  0.00000000000E+00 0. -1.
         21   -1    0    0  501  502  0.00000000000E+00 -0.00000000000E+00 -0.29219426995E+02  0.29219426995E+02  0.00000000000E+00 0. -1.
         24    2    1    2    0    0  0.10823948778E+02  0.50209244351E+02  0.67463257872E+03  0.68136993333E+03  0.80608583218E+02 0.  0.
         23    2    1    2    0    0 -0.13429856659E+01 -0.91625183823E+01  0.15424724615E+03  0.17945193940E+03  0.91241603744E+02 0.  0.
        -13    1    3    3    0    0  0.28329238919E+02  0.38528491914E+02  0.17861776290E+03  0.18490888484E+03  0.00000000000E+00 0.  1.
         14    1    3    3    0    0 -0.17505290141E+02  0.11680752438E+02  0.49601481582E+03  0.49646104849E+03  0.00000000000E+00 0. -1.
        -11    1    4    4    0    0 -0.93821610875E+01 -0.34248142427E+02  0.14823943169E+03  0.15243322903E+03  0.00000000000E+00 0.  1.
         11    1    4    4    0    0  0.80391754216E+01  0.25085624045E+02  0.60078144688E+01  0.27018710367E+02  0.00000000000E+00 0. -1.
          1    1    1    2  501    0 -0.94809631122E+01 -0.41046725969E+02  0.20240960988E+02  0.46737767127E+02  0.00000000000E+00 0. -1.
<scales pt_clust_5="13000.00000" pt_clust_6="13000.00000" pt_clust_7="13000.00000" pt_clust_8="13000.00000" pt_clust_9="42.12745"></scales>
<clustering>
<clus scale="   42.127">  2  9  1 -1</clus>
<clus scale="   80.609">  5  6 -1 -1</clus>
<clus scale="   91.116">  1  5  2 -1</clus>
<clus scale="   91.242">  7  8 -1 -1</clus>
<clus scale="   42.127">  2  5  1 -1</clus>
</clustering>
</event>
<event>
 9    2  0.6175212E-005  0.9533069E+02  0.7546771E-02  0.1296849E+00
         21   -1    0    0  501  502  0.00000000000E+00  0.00000000000E+00  0.40215294598E+03  0.40215294598E+03  0.00000000000E+00 0. -1.
          2   -1    0    0  502    0 -0.00000000000E+00 -0.00000000000E+00 -0.58719898057E+03  0.58719898057E+03  0.00000000000E+00 0. -1.
         24    2    1    2    0    0 -0.27092648684E+02  0.24026773530E+01 -0.57304023852E+03  0.57925002958E+03  0.80098048242E+02 0.  0.
         23    2    1    2    0    0  0.25954500011E+02 -0.27682639808E+02  0.23417273056E+03  0.25421277755E+03  0.91363580898E+02 0.  0.
        -11    1    3    3    0    0 -0.23938445697E+02 -0.32410264321E+01 -0.44202364471E+02  0.50372636019E+02  0.00000000000E+00 0.  1.
         12    1    3    3    0    0 -0.31542029868E+01  0.56437037851E+01 -0.52883787405E+03  0.52887739356E+03  0.00000000000E+00 0. -1.
        -11    1    4    4    0    0  0.22348812580E+02  0.17202301245E+02  0.18130400744E+02  0.33527600913E+02  0.00000000000E+00 0.  1.
         11    1    4    4    0    0  0.36056874316E+01 -0.44884941053E+02  0.21604232982E+03  0.22068517664E+03  0.00000000000E+00 0. -1.
          1    1    1    2  501    0  0.11381486723E+01  0.25279962455E+02  0.15382147336E+03  0.15588911941E+03  0.00000000000E+00 0. -1.
<scales pt_clust_5="13000.00000" pt_clust_6="13000.00000" pt_clust_7="13000.00000" pt_clust_8="13000.00000" pt_clust_9="25.30557"></scales>
<clustering>
<clus scale="   25.306">  1  9  2 -1</clus>
<clus scale="   80.098">  5  6 -1 -1</clus>
<clus scale="   84.595">  2  5  1 -1</clus>
<clus scale="   91.364">  7  8 -1 -1</clus>
<clus scale="   25.306">  1  5  2 -1</clus>
</clustering>
</event>
<event>
 9    2  0.6175212E-005  0.1741280E+03  0.7546771E-02  0.1174945E+00
         21   -1    0    0  501  502  0.00000000000E+00  0.00000000000E+00  0.30380332353E+02  0.30380332353E+02  0.00000000000E+00 0. -1.
          2   -1    0    0  502    0 -0.00000000000E+00 -0.00000000000E+00 -0.13800168031E+04  0.13800168031E+04  0.00000000000E+00 0. -1.
         23    2    1    2    0    0  0.11259385493E+03 -0.91546842942E+02 -0.58589936663E+03  0.61040189111E+03  0.90852629222E+02 0.  0.
         24    2    1    2    0    0 -0.15113863623E+03  0.45819634001E+02 -0.60230217274E+03  0.62783858640E+03  0.80442880761E+02 0.  0.
        -11    1    4    4    0    0 -0.94814591228E+02 -0.16330985977E+01 -0.43213499171E+03  0.44241736492E+03  0.00000000000E+00 0.  1.
         12    1    4    4    0    0 -0.56324045004E+02  0.47452732599E+02 -0.17016718103E+03  0.18542122149E+03  0.00000000000E+00 0. -1.
        -13    1    3    3    0    0  0.10731227535E+02  0.18414540364E+02 -0.71610901720E+02  0.74715298208E+02  0.00000000000E+00 0.  1.
         13    1    3    3    0    0  0.10186262740E+03 -0.10996138331E+03 -0.51428846491E+03  0.53568659290E+03  0.00000000000E+00 0. -1.
          1    1    1    2  501    0  0.38544781298E+02  0.45727208941E+02 -0.16143493134E+03  0.17215665790E+03  0.00000000000E+00 0. -1.
<scales pt_clust_5="13000.00000" pt_clust_6="13000.00000" pt_clust_7="13000.00000" pt_clust_8="13000.00000" pt_clust_9="59.80533"></scales>
<clustering>
<clus scale="   59.805">  1  9  2 -1</clus>
<clus scale="   80.443">  5  6 -1 -1</clus>
<clus scale="   90.853">  7  8 -1 -1</clus>
<clus scale="  168.930">  1  5  2 -1</clus>
<clus scale="   59.805">  1  5  2 -1</clus>
</clustering>
</event>
<event>
 9    2  0.6175212E-005  0.1154199E+03  0.7546771E-02  0.1255178E+00
         -1   -1    0    0    0  501 -0.00000000000E+00  0.00000000000E+00  0.71651565656E+02  0.71651565656E+02  0.00000000000E+00 0.  1.
         21   -1    0    0  501  502  0.00000000000E+00 -0.00000000000E+00 -0.45573288647E+03  0.45573288647E+03  0.00000000000E+00 0.  1.
         24    2    1    2    0    0  0.64034208448E+02 -0.26192675322E+02  0.11277794644E+02  0.10722363336E+03  0.81137431601E+02 0.  0.
         23    2    1    2    0    0 -0.45186724274E+02  0.46365134004E+02 -0.33708147724E+03  0.35567486010E+03  0.93215439211E+02 0.  0.
        -13    1    3    3    0    0  0.75924051633E+02 -0.50773651414E+01  0.24085481363E+02  0.79814482806E+02  0.00000000000E+00 0.  1.
         14    1    3    3    0    0 -0.11889843185E+02 -0.21115310180E+02 -0.12807686719E+02  0.27409150553E+02  0.00000000000E+00 0. -1.
        -13    1    4    4    0    0 -0.47906003095E+02 -0.13940911359E+02 -0.11146761621E+03  0.12212437761E+03  0.00000000000E+00 0. -1.
         13    1    4    4    0    0  0.27192788206E+01  0.60306045364E+02 -0.22561386102E+03  0.23355048249E+03  0.00000000000E+00 0.  1.
         -2    1    1    2    0  502 -0.18847484174E+02 -0.20172458682E+02 -0.58277638225E+02  0.64485958674E+02  0.00000000000E+00 0.  1.
<scales pt_clust_5="13000.00000" pt_clust_6="13000.00000" pt_clust_7="13000.00000" pt_clust_8="13000.00000" pt_clust_9="27.60717"></scales>
<clustering>
<clus scale="   27.607">  2  9  1 -1</clus>
<clus scale="   81.137">  5  6 -1 -1</clus>
<clus scale="   93.215">  7  8 -1 -1</clus>
<clus scale="  105.905">  1  5  2 -1</clus>
<clus scale="   27.607">  2  5  1 -1</clus>
</clustering>
</event>
<event>
 9    2  0.6175212E-005  0.9553523E+02  0.7546771E-02  0.1297398E+00
         21   -1    0    0  501  502  0.00000000000E+00  0.00000000000E+00  0.60727502568E+02  0.60727502568E+02  0.00000000000E+00 0.  1.
          2   -1    0    0  502    0 -0.00000000000E+00 -0.00000000000E+00 -0.25261522726E+03  0.25261522726E+03  0.00000000000E+00 0. -1.
         23    2    1    2    0    0 -0.91995290932E+01  0.14500001649E+02 -0.13842166680E+03  0.16741068566E+03  0.92579146962E+02 0.  0.
         24    2    1    2    0    0  0.44135874677E+02 -0.14649108175E+02 -0.14308509994E+02  0.93454582019E+02  0.79790059770E+02 0.  0.
        -11    1    4    4    0    0  0.83287252123E+01  0.31216417384E+02  0.37593583873E+01  0.32526376272E+02  0.00000000000E+00 0.  1.
         12    1    4    4    0    0  0.35807149465E+02 -0.45865525559E+02 -0.18067868381E+02  0.60928205746E+02  0.00000000000E+00 0. -1.
        -13    1    3    3    0    0  0.47713922600E+01 -0.32866298201E+02 -0.98376412034E+02  0.10383100783E+03  0.00000000000E+00 0. -1.
         13    1    3    3    0    0 -0.13970921353E+02  0.47366299850E+02 -0.40045254764E+02  0.63579677838E+02  0.00000000000E+00 0.  1.
          1    1    1    2  501    0 -0.34936345584E+02  0.14910652615E+00 -0.39157547896E+02  0.52477462141E+02  0.00000000000E+00 0. -1.
<scales pt_clust_5="13000.00000" pt_clust_6="13000.00000" pt_clust_7="13000.00000" pt_clust_8="13000.00000" pt_clust_9="34.93668"></scales>
<clustering>
<clus scale="   34.937">  1  9  2 -1</clus>
<clus scale="   79.790">  5  6 -1 -1</clus>
<clus scale="   83.202">  1  5  2 -1</clus>
<clus scale="   92.579">  7  8 -1 -1</clus>
<clus scale="   34.937">  1  5  2 -1</clus>
</clustering>
</event>
<event>
 9    2  0.6175212E-005  0.1469241E+03  0.7546771E-02  0.1206436E+00
          2   -1    0    0  502    0 -0.00000000000E+00  0.00000000000E+00  0.19407304093E+04  0.19407304093E+04  0.00000000000E+00 0. -1.
         21   -1    0    0  501  502  0.00000000000E+00 -0.00000000000E+00 -0.22311339658E+02  0.22311339658E+02  0.00000000000E+00 0. -1.
         24    2    1    2    0    0  0.40350918554E+02 -0.68732421707E+02  0.42153884086E+03  0.43628568414E+03  0.79359066324E+02 0.  0.
         23    2    1    2    0    0 -0.13895602100E+03  0.10216183255E+03  0.89639414704E+03  0.91731039365E+03  0.90499036766E+02 0.  0.
        -13    1    3    3    0    0  0.15619875380E+02  0.16172267750E+02  0.11818563301E+03  0.12030530579E+03  0.00000000000E+00 0.  1.
         14    1    3    3    0    0  0.24731043174E+02 -0.84904689457E+02  0.30335320786E+03  0.31598037835E+03  0.00000000000E+00 0. -1.
        -13    1    4    4    0    0 -0.14243270250E+03  0.64258464193E+02  0.74436932736E+03  0.76059313727E+03  0.00000000000E+00 0. -1.
         13    1    4    4    0    0  0.34766814971E+01  0.37903368355E+02  0.15202481968E+03  0.15671725638E+03  0.00000000000E+00 0.  1.
          1    1    1    2  501    0  0.98605102449E+02 -0.33429410842E+02  0.60048608172E+03  0.60944567115E+03  0.00000000000E+00 0. -1.
<scales pt_clust_5="13000.00000" pt_clust_6="13000.00000" pt_clust_7="13000.00000" pt_clust_8="13000.00000" pt_clust_9="104.11773"></scales>
<clustering>
<clus scale="   79.359">  5  6 -1 -1</clus>
<clus scale="   90.499">  7  8 -1 -1</clus>
<clus scale="  104.118">  2  9  1 -1</clus>
<clus scale="  140.337">  1  5  2 -1</clus>
<clus scale="  104.118">  2  5  1 -1</clus>
</clustering>
</event>
<event>
 9    2  0.6175212E-005  0.9146641E+02  0.7546771E-02  0.1305950E+00
         21   -1    0    0  501  502  0.00000000000E+00  0.00000000000E+00  0.11358068576E+03  0.11358068576E+03  0.00000000000E+00 0.  1.
          4   -1    0    0  502    0 -0.00000000000E+00 -0.00000000000E+00 -0.16776311299E+03  0.16776311299E+03  0.00000000000E+00 0. -1.
         24    2    1    2    0    0 -0.12123536178E+02  0.36888748169E+02 -0.31093980924E+02  0.94431263261E+02  0.80266231757E+02 0.  0.
         23    2    1    2    0    0 -0.12180994266E+02  0.37511828047E+02  0.14547382175E+02  0.10006432579E+03  0.90805997068E+02 0.  0.
        -13    1    3    3    0    0  0.77324821021E+01  0.52259036050E+02 -0.41571157582E+02  0.67223204856E+02  0.00000000000E+00 0.  1.
         14    1    3    3    0    0 -0.19856018280E+02 -0.15370287881E+02  0.10477176658E+02  0.27208058405E+02  0.00000000000E+00 0. -1.
        -11    1    4    4    0    0 -0.25698589757E+01 -0.23709362254E+02 -0.18175155058E+02  0.29984567614E+02  0.00000000000E+00 0. -1.
         11    1    4    4    0    0 -0.96111352901E+01  0.61221190301E+02  0.32722537232E+02  0.70079758179E+02  0.00000000000E+00 0.  1.
          3    1    1    2  501    0  0.24304530443E+02 -0.74400576216E+02 -0.37635828477E+02  0.86848209691E+02  0.00000000000E+00 0. -1.
<scales pt_clust_5="13000.00000" pt_clust_6="13000.00000" pt_clust_7="13000.00000" pt_clust_8="13000.00000" pt_clust_9="78.26980"></scales>
<clustering>
<clus scale="   78.270">  1  9  2 -1</clus>
<clus scale="   80.266">  5  6 -1 -1</clus>
<clus scale="   81.013">  2  5  1 -1</clus>
<clus scale="   90.806">  7  8 -1 -1</clus>
<clus scale="   78.270">  1  5  2 -1</clus>
</clustering>
</event>
<event>
 9    2  0.6175212E-005  0.2123018E+03  0.7546771E-02  0.1139756E+00
         21   -1    0    0  501  502  0.00000000000E+00  0.00000000000E+00  0.11312170217E+03  0.11312170217E+03  0.00000000000E+00 0.  1.
          2   -1    0    0  502    0 -0.00000000000E+00 -0.00000000000E+00 -0.25117072445E+03  0.25117072445E+03  0.00000000000E+00 0. -1.
         24    2    1    2    0    0 -0.52103383634E+02 -0.28296101637E+02 -0.16320072349E+02  0.10142379199E+03  0.80653635175E+02 0.  0.
         23    2    1    2    0    0 -0.52483349773E+02 -0.31237967697E+02 -0.42819972071E+02  0.11896131375E+03  0.92671093286E+02 0.  0.
        -11    1    3    3    0    0 -0.49147326962E+02 -0.43999449936E+02  0.13739600407E+02  0.67380916894E+02  0.00000000000E+00 0.  1.
         12    1    3    3    0    0 -0.29560566717E+01  0.15703348299E+02 -0.30059672756E+02  0.34042875099E+02  0.00000000000E+00 0. -1.
        -13    1    4    4    0    0  0.21170916516E+02 -0.30702455176E+02 -0.15854621815E+02  0.40524282756E+02  0.00000000000E+00 0.  1.
         13    1    4    4    0    0 -0.73654266289E+02 -0.53551252058E+00 -0.26965350256E+02  0.78437030991E+02  0.00000000000E+00 0. -1.
          1    1    1    2  501    0  0.10458673341E+03  0.59534069334E+02 -0.78908977857E+02  0.14390732088E+03  0.00000000000E+00 0. -1.
<scales pt_clust_5="13000.00000" pt_clust_6="13000.00000" pt_clust_7="13000.00000" pt_clust_8="13000.00000" pt_clust_9="120.34411"></scales>
<clustering>
<clus scale="   80.654">  5  6 -1 -1</clus>
<clus scale="   92.671">  7  8 -1 -1</clus>
<clus scale="   95.056">  5  7 -1 -1</clus>
<clus scale="  120.344">  1  9  2 -1</clus>
<clus scale="  120.344">  1  5  2 -1</clus>
</clustering>
</event>
<event>
 9    2  0.6175212E-005  0.1511951E+03  0.7546771E-02  0.1200498E+00
          2   -1    0    0  502    0 -0.00000000000E+00  0.00000000000E+00  0.51290161797E+03  0.51290161797E+03  0.00000000000E+00 0. -1.
         21   -1    0    0  501  502  0.00000000000E+00 -0.00000000000E+00 -0.20449681697E+03  0.20449681697E+03  0.00000000000E+00 0. -1.
         24    2    1    2    0    0 -0.63042466329E+02 -0.10359285082E+03  0.42439727553E+03  0.44893191184E+03  0.81981599720E+02 0.  0.
         23    2    1    2    0    0  0.44865279609E+02  0.11449080712E+03 -0.20435009779E+01  0.15256335599E+03  0.90279363457E+02 0.  0.
        -13    1    3    3    0    0 -0.58616939882E+02 -0.36080556726E+02  0.13267877102E+03  0.14947042682E+03  0.00000000000E+00 0.  1.
         14    1    3    3    0    0 -0.44255264470E+01 -0.67512294095E+02  0.29171850451E+03  0.29946148503E+03  0.00000000000E+00 0. -1.
        -11    1    4    4    0    0  0.14036185325E+02  0.15217575170E+02  0.36282298253E+02  0.41773128433E+02  0.00000000000E+00 0. -1.
         11    1    4    4    0    0  0.30829094283E+02  0.99273231951E+02 -0.38325799231E+02  0.11079022756E+03  0.00000000000E+00 0.  1.
          1    1    1    2  501    0  0.18177186720E+02 -0.10897956300E+02 -0.11394897356E+03  0.11590316710E+03  0.00000000000E+00 0. -1.
<scales pt_clust_5="13000.00000" pt_clust_6="13000.00000" pt_clust_7="13000.00000" pt_clust_8="13000.00000" pt_clust_9="21.19376"></scales>
<clustering>
<clus scale="   21.194">  2  9  1 -1</clus>
<clus scale="   81.982">  5  6 -1 -1</clus>
<clus scale="   90.279">  7  8 -1 -1</clus>
<clus scale="  146.392">  1  5  2 -1</clus>
<clus scale="   21.194">  2  5  1 -1</clus>
</clustering>
</event>
<event>
 9    2  0.6175212E-005  0.1495768E+03  0.7546771E-02  0.1202826E+00
         21   -1    0    0  501  502  0.00000000000E+00  0.00000000000E+00  0.71667383220E+02  0.71667383220E+02  0.00000000000E+00 0.  1.
         -1   -1    0    0    0  501 -0.00000000000E+00 -0.00000000000E+00 -0.61508467826E+03  0.61508467826E+03  0.00000000000E+00 0.  1.
         23    2    1    2    0    0 -0.94587441540E+02 -0.75668019294E+02 -0.32176274712E+03  0.35511270917E+03  0.88889468070E+02 0.  0.
         24    2    1    2    0    0  0.75577671056E+02  0.94393543903E+02 -0.25252335852E+03  0.29083616477E+03  0.78711515327E+02 0.  0.
        -13    1    4    4    0    0  0.20374293873E+02  0.47883256478E+02 -0.37837378671E+02  0.64339609312E+02  0.00000000000E+00 0.  1.
         14    1    4    4    0    0  0.55203377182E+02  0.46510287425E+02 -0.21468597985E+03  0.22649655546E+03  0.00000000000E+00 0. -1.
        -11    1    3    3    0    0 -0.80033563071E+02 -0.32616780464E+02 -0.11753194850E+03  0.14588688942E+03  0.00000000000E+00 0. -1.
         11    1    3    3    0    0 -0.14553878469E+02 -0.43051238830E+02 -0.20423079862E+03  0.20922581975E+03  0.00000000000E+00 0.  1.
         -2    1    1    2    0  502  0.19009770484E+02 -0.18725524608E+02  0.30868810606E+02  0.40803187546E+02  0.00000000000E+00 0.  1.
<scales pt_clust_5="13000.00000" pt_clust_6="13000.00000" pt_clust_7="13000.00000" pt_clust_8="13000.00000" pt_clust_9="26.68364"></scales>
<clustering>
<clus scale="   26.684">  1  9  2 -1</clus>
<clus scale="   78.712">  5  6 -1 -1</clus>
<clus scale="   88.889">  7  8 -1 -1</clus>
<clus scale="  143.762">  1  5  2 -1</clus>
<clus scale="   26.684">  1  5  2 -1</clus>
</clustering>
</event>
<event>
 9    2  0.6175212E-005  0.1494049E+03  0.7546771E-02  0.1222325E+00
          2   -1    0    0  502    0 -0.00000000000E+00  0.00000000000E+00  0.86543736773E+03  0.86543736773E+03  0.00000000000E+00 0. -1.
         21   -1    0    0  501  502  0.00000000000E+00 -0.00000000000E+00 -0.40364252115E+02  0.40364252115E+02  0.00000000000E+00 0.  1.
         24    2    1    2    0    0 -0.29372981343E+02  0.39472651425E+02  0.14843615966E+03  0.17639465355E+03  0.81614447629E+02 0.  0.
         23    2    1    2    0    0 -0.74467247082E+02 -0.85445779451E+02  0.46934018006E+03  0.49304225904E+03  0.99820401068E+02 0.  0.
        -11    1    3    3    0    0 -0.38996393616E+02 -0.13169752367E+02  0.74645904152E+02  0.85241844766E+02  0.00000000000E+00 0.  1.
         12    1    3    3    0    0  0.96234122721E+01  0.52642403792E+02  0.73790255509E+02  0.91152808781E+02  0.00000000000E+00 0. -1.
        -13    1    4    4    0    0 -0.60731864502E+02  0.31718990093E+01  0.16952615535E+03  0.18010424109E+03  0.00000000000E+00 0.  1.
         13    1    4    4    0    0 -0.13735382580E+02 -0.88617678461E+02  0.29981402471E+03  0.31293801796E+03  0.00000000000E+00 0. -1.
          1    1    1    2  501    0  0.10384022843E+03  0.45973128027E+02  0.20729677590E+03  0.23636470726E+03  0.00000000000E+00 0. -1.
<scales pt_clust_5="13000.00000" pt_clust_6="13000.00000" pt_clust_7="13000.00000" pt_clust_8="13000.00000" pt_clust_9="111.16524"></scales>
<clustering>
<clus scale="   81.614">  5  6 -1 -1</clus>
<clus scale="   95.298">  1  5  2 -1</clus>
<clus scale="   99.820">  7  8 -1 -1</clus>
<clus scale="  111.165">  2  9  1 -1</clus>
<clus scale="  111.165">  2  5  1 -1</clus>
</clustering>
</event>
<event>
 9    2  0.6175212E-005  0.3933154E+03  0.7546771E-02  0.1046292E+00
         21   -1    0    0  501  502  0.00000000000E+00  0.00000000000E+00  0.39803499920E+03  0.39803499920E+03  0.00000000000E+00 0. -1.
          2   -1    0    0  502    0 -0.00000000000E+00 -0.00000000000E+00 -0.11692605490E+04  0.11692605490E+04  0.00000000000E+00 0. -1.
         23    2    1    2    0    0  0.34290270066E+03  0.17360005956E+03 -0.10214685940E+04  0.10952275071E+04  0.91684027334E+02 0.  0.
         24    2    1    2    0    0 -0.33285394706E+03 -0.15087049622E+03  0.24104921267E+03  0.44557017264E+03  0.82911996183E+02 0.  0.
        -11    1    4    4    0    0 -0.83527825451E+02 -0.11372280325E+01  0.45682037553E+02  0.95210500824E+02  0.00000000000E+00 0.  1.
         12    1    4    4    0    0 -0.24932612161E+03 -0.14973326819E+03  0.19536717512E+03  0.35035967181E+03  0.00000000000E+00 0. -1.
        -11    1    3    3    0    0  0.14943542342E+03  0.40664614260E+02 -0.49827734448E+03  0.52179006185E+03  0.00000000000E+00 0.  1.
         11    1    3    3    0    0  0.19346727724E+03  0.13293544530E+03 -0.52319124953E+03  0.57343744521E+03  0.00000000000E+00 0. -1.
          1    1    1    2  501    0 -0.10048753604E+02 -0.22729563334E+02  0.91938315224E+01  0.26497868526E+02  0.00000000000E+00 0. -1.
<scales pt_clust_5="13000.00000" pt_clust_6="13000.00000" pt_clust_7="13000.00000" pt_clust_8="13000.00000" pt_clust_9="24.85177"></scales>
<clustering>
<clus scale="   24.852">  1  9  2 -1</clus>
<clus scale="   82.912">  5  6 -1 -1</clus>
<clus scale="   91.684">  7  8 -1 -1</clus>
<clus scale="  391.364">  1  5  2 -1</clus>
<clus scale="   24.852">  1  5  2 -1</clus>
</clustering>
</event>
<event>
 9    2  0.6175212E-005  0.1260282E+03  0.7546771E-02  0.1236492E+00
         21   -1    0    0  501  502  0.00000000000E+00  0.00000000000E+00  0.31450587384E+03  0.31450587384E+03  0.00000000000E+00 0. -1.
          2   -1    0    0  502    0 -0.00000000000E+00 -0.00000000000E+00 -0.89196205672E+03  0.89196205672E+03  0.00000000000E+00 0. -1.
         24    2    1    2    0    0 -0.91354934309E+02  0.20117468398E+02 -0.70641495482E+03  0.71712420919E+03  0.80589121241E+02 0.  0.
         23    2    1    2    0    0  0.67769557111E+02  0.40630693681E+02 -0.15585326466E+03  0.19717167375E+03  0.91339272394E+02 0.  0.
        -13    1    3    3    0    0 -0.27705350379E+02  0.45767453075E+02 -0.25798861428E+03  0.26347745881E+03  0.00000000000E+00 0.  1.
         14    1    3    3    0    0 -0.63649583931E+02 -0.25649984677E+02 -0.44842634054E+03  0.45364675039E+03  0.00000000000E+00 0. -1.
        -13    1    4    4    0    0  0.36846010612E+02  0.26558485172E+02 -0.15673691467E+03  0.16318529975E+03  0.00000000000E+00 0. -1.
         13    1    4    4    0    0  0.30923546499E+02  0.14072208508E+02  0.88365000682E+00  0.33986374000E+02  0.00000000000E+00 0.  1.
          1    1    1    2  501    0  0.23585377198E+02 -0.60748162079E+02  0.28481203660E+03  0.29217204762E+03  0.00000000000E+00 0. -1.
<scales pt_clust_5="13000.00000" pt_clust_6="13000.00000" pt_clust_7="13000.00000" pt_clust_8="13000.00000" pt_clust_9="65.16601"></scales>
<clustering>
<clus scale="   65.166">  1  9  2 -1</clus>
<clus scale="   80.589">  5  6 -1 -1</clus>
<clus scale="   91.339">  7  8 -1 -1</clus>
<clus scale="  118.469">  2  5  1 -1</clus>
<clus scale="   65.166">  1  5  2 -1</clus>
</clustering>
</event>
<event>
 9    2  0.6175212E-005  0.1027006E+03  0.7546771E-02  0.1278207E+00
          2   -1    0    0  502    0 -0.00000000000E+00  0.00000000000E+00  0.13153794298E+03  0.13153794298E+03  0.00000000000E+00 0. -1.
         21   -1    0    0  501  502  0.00000000000E+00 -0.00000000000E+00 -0.12381544658E+03  0.12381544658E+03  0.00000000000E+00 0.  1.
         24    2    1    2    0    0  0.11508616985E+02  0.48347758473E+02  0.39826849750E+02  0.10273435001E+03  0.80611504745E+02 0.  0.
         23    2    1    2    0    0 -0.45759688126E+02 -0.46199996499E+02 -0.41012345927E+02  0.11716341816E+03  0.88413038087E+02 0.  0.
        -11    1    3    3    0    0  0.36136382662E+02  0.24344017609E+01 -0.14748563119E+01  0.36248305684E+02  0.00000000000E+00 0.  1.
         12    1    3    3    0    0 -0.24627765677E+02  0.45913356712E+02  0.41301706062E+02  0.66486044329E+02  0.00000000000E+00 0. -1.
        -13    1    4    4    0    0 -0.17463378716E+02 -0.24330866610E+02 -0.66710922810E+02  0.73125288980E+02  0.00000000000E+00 0.  1.
         13    1    4    4    0    0 -0.28296309409E+02 -0.21869129889E+02  0.25698576883E+02  0.44038129185E+02  0.00000000000E+00 0. -1.
          1    1    1    2  501    0  0.34251071141E+02 -0.21477619746E+01  0.89079925724E+01  0.35455621380E+02  0.00000000000E+00 0. -1.
<scales pt_clust_5="13000.00000" pt_clust_6="13000.00000" pt_clust_7="13000.00000" pt_clust_8="13000.00000" pt_clust_9="34.31836"></scales>
<clustering>
<clus scale="   34.318">  2  9  1 -1</clus>
<clus scale="   80.612">  5  6 -1 -1</clus>
<clus scale="   88.413">  7  8 -1 -1</clus>
<clus scale="   96.066">  1  5  2 -1</clus>
<clus scale="   34.318">  2  5  1 -1</clus>
</clustering>
</event>
<event>
 9    2  0.6175212E-005  0.1108197E+03  0.7546771E-02  0.1265848E+00
         21   -1    0    0  501  502  0.00000000000E+00  0.00000000000E+00  0.21073369475E+02  0.21073369475E+02  0.00000000000E+00 0.  1.
          2   -1    0    0  502    0 -0.00000000000E+00 -0.00000000000E+00 -0.84676366732E+03  0.84676366732E+03  0.00000000000E+00 0. -1.
         24    2    1    2    0    0  0.26282446208E+02  0.74018113748E+02 -0.50087812264E+03  0.51245139712E+03  0.74552615845E+02 0.  0.
         23    2    1    2    0    0 -0.17021201538E+02 -0.31862432736E+02 -0.25369515815E+03  0.27219608378E+03  0.91785286608E+02 0.  0.
        -13    1    3    3    0    0  0.49290110388E+02  0.59594611687E+02 -0.30278252392E+03  0.31250326321E+03  0.00000000000E+00 0.  1.
         14    1    3    3    0    0 -0.23007664180E+02  0.14423502061E+02 -0.19809559871E+03  0.19994813391E+03  0.00000000000E+00 0. -1.
        -11    1    4    4    0    0 -0.15823442897E+02  0.16169963263E+02 -0.11686861398E+02  0.25464323795E+02  0.00000000000E+00 0.  1.
         11    1    4    4    0    0 -0.11977586415E+01 -0.48032395999E+02 -0.24200829675E+03  0.24673175999E+03  0.00000000000E+00 0. -1.
          1    1    1    2  501    0 -0.92612446694E+01 -0.42155681012E+02 -0.71117017062E+02  0.83189555896E+02  0.00000000000E+00 0. -1.
<scales pt_clust_5="13000.00000" pt_clust_6="13000.00000" pt_clust_7="13000.00000" pt_clust_8="13000.00000" pt_clust_9="43.16100"></scales>
<clustering>
<clus scale="   43.161">  1  9  2 -1</clus>
<clus scale="   74.553">  5  6 -1 -1</clus>
<clus scale="   91.785">  7  8 -1 -1</clus>
<clus scale="   97.029">  2  5  1 -1</clus>
<clus scale="   43.161">  1  5  2 -1</clus>
</clustering>
</event>
<event>
 9    2  0.6175212E-005  0.1780335E+03  0.7546771E-02  0.1202072E+00
         21   -1    0    0  501  502  0.00000000000E+00  0.00000000000E+00  0.10062768413E+03  0.10062768413E+03  0.00000000000E+00 0. -1.
          2   -1    0    0  502    0 -0.00000000000E+00 -0.00000000000E+00 -0.54076324069E+03  0.54076324069E+03  0.00000000000E+00 0. -1.
         24    2    1    2    0    0  0.58104486025E+01  0.12917761667E+02 -0.28746702632E+02  0.91301917825E+02  0.85492908518E+02 0.  0.
         23    2    1    2    0    0 -0.56797842477E+02 -0.15257163221E+03 -0.33313228048E+03  0.38208005135E+03  0.92216871985E+02 0.  0.
        -11    1    3    3    0    0  0.36712711341E+02 -0.43196304010E+00 -0.41404339152E+02  0.55338314636E+02  0.00000000000E+00 0.  1.
         12    1    3    3    0    0 -0.30902262738E+02  0.13349724707E+02  0.12657636520E+02  0.35963603190E+02  0.00000000000E+00 0. -1.
        -13    1    4    4    0    0 -0.85061329666E+01 -0.69492465655E+02 -0.58877662331E+02  0.91477517469E+02  0.00000000000E+00 0.  1.
         13    1    4    4    0    0 -0.48291709510E+02 -0.83079166551E+02 -0.27425461815E+03  0.29060253388E+03  0.00000000000E+00 0. -1.
          1    1    1    2  501    0  0.50987393874E+02  0.13965387054E+03 -0.78256573449E+02  0.16800895565E+03  0.00000000000E+00 0. -1.
<scales pt_clust_5="13000.00000" pt_clust_6="13000.00000" pt_clust_7="13000.00000" pt_clust_8="13000.00000" pt_clust_9="152.28912"></scales>
<clustering>
<clus scale="   85.493">  5  6 -1 -1</clus>
<clus scale="   86.658">  2  5  1 -1</clus>
<clus scale="   92.217">  7  8 -1 -1</clus>
<clus scale="  152.289">  1  9  2 -1</clus>
<clus scale="  152.289">  1  5  2 -1</clus>
</clustering>
</event>
<event>
 9    2  0.6175212E-005  0.9930475E+02  0.7546771E-02  0.1286684E+00
          2   -1    0    0  502    0 -0.00000000000E+00  0.00000000000E+00  0.72708362689E+03  0.72708362689E+03  0.00000000000E+00 0. -1.
         21   -1    0    0  501  502  0.00000000000E+00 -0.00000000000E+00 -0.45504353167E+02  0.45504353167E+02  0.00000000000E+00 0. -1.
         24    2    1    2    0    0 -0.24751773651E+02  0.34235215048E+02  0.44596807949E+03  0.45508576689E+03  0.80192437622E+02 0.  0.
         23    2    1    2    0    0  0.49745412600E+01 -0.44879493208E+02  0.26326776690E+03  0.28187461727E+03  0.90024817689E+02 0.  0.
        -11    1    3    3    0    0 -0.22052165852E+02  0.21333993312E+02  0.48444678995E+02  0.57343911729E+02  0.00000000000E+00 0.  1.
         12    1    3    3    0    0 -0.26996077983E+01  0.12901221736E+02  0.39752340049E+03  0.39774185516E+03  0.00000000000E+00 0. -1.
        -11    1    4    4    0    0  0.40301456022E+02 -0.24904877148E+02  0.70893841878E+02  0.85266623479E+02  0.00000000000E+00 0.  1.
         11    1    4    4    0    0 -0.35326914762E+02 -0.19974616060E+02  0.19237392502E+03  0.19660799379E+03  0.00000000000E+00 0. -1.
          1    1    1    2  501    0  0.19777232391E+02  0.10644278160E+02 -0.27656572662E+02  0.35627595906E+02  0.00000000000E+00 0. -1.
<scales pt_clust_5="13000.00000" pt_clust_6="13000.00000" pt_clust_7="13000.00000" pt_clust_8="13000.00000" pt_clust_9="22.45973"></scales>
<clustering>
<clus scale="   22.460">  2  9  1 -1</clus>
<clus scale="   80.192">  5  6 -1 -1</clus>
<clus scale="   90.025">  7  8 -1 -1</clus>
<clus scale="   90.486">  1  5  2 -1</clus>
<clus scale="   22.460">  2  5  1 -1</clus>
</clustering>
</event>
<event>
 9    2  0.6175212E-005  0.1293425E+03  0.7546771E-02  0.1230776E+00
         21   -1    0    0  501  502  0.00000000000E+00  0.00000000000E+00  0.53591346118E+02  0.53591346118E+02  0.00000000000E+00 0. -1.
          2   -1    0    0  502    0 -0.00000000000E+00 -0.00000000000E+00 -0.56080118870E+03  0.56080118870E+03  0.00000000000E+00 0. -1.
         24    2    1    2    0    0 -0.90698800476E+02 -0.51056190615E+01 -0.38162715359E+03  0.40086630033E+03  0.82475248572E+02 0.  0.
         23    2    1    2    0    0  0.90514171864E+02  0.36605761760E+02 -0.12340123196E+03  0.18195010691E+03  0.91351958125E+02 0.  0.
        -13    1    3    3    0    0 -0.85699218993E+02 -0.24731659383E+02 -0.21151887443E+03  0.22955662777E+03  0.00000000000E+00 0.  1.
         14    1    3    3    0    0 -0.49995814831E+01  0.19626040321E+02 -0.17010827916E+03  0.17130967256E+03  0.00000000000E+00 0. -1.
        -11    1    4    4    0    0  0.19709100469E+02 -0.26159159578E+02 -0.99713159718E+01  0.34237076588E+02  0.00000000000E+00 0.  1.
         11    1    4    4    0    0  0.70805071395E+02  0.62764921338E+02 -0.11342991599E+03  0.14771303032E+03  0.00000000000E+00 0. -1.
          1    1    1    2  501    0  0.18462861126E+00 -0.31500142698E+02 -0.21814570232E+01  0.31576127573E+02  0.00000000000E+00 0. -1.
<scales pt_clust_5="13000.00000" pt_clust_6="13000.00000" pt_clust_7="13000.00000" pt_clust_8="13000.00000" pt_clust_9="31.50068"></scales>
<clustering>
<clus scale="   31.501">  1  9  2 -1</clus>
<clus scale="   82.475">  5  6 -1 -1</clus>
<clus scale="   91.352">  7  8 -1 -1</clus>
<clus scale="  123.233">  2  5  1 -1</clus>
<clus scale="   31.501">  1  5  2 -1</clus>
</clustering>
</event>
<event>
 9    2  0.6175212E-005  0.1033252E+03  0.7546771E-02  0.1279685E+00
          2   -1    0    0  502    0 -0.00000000000E+00  0.00000000000E+00  0.50312726017E+03  0.50312726017E+03  0.00000000000E+00 0. -1.
         21   -1    0    0  501  502  0.00000000000E+00 -0.00000000000E+00 -0.29479164873E+02  0.29479164873E+02  0.00000000000E+00 0. -1.
         23    2    1    2    0    0 -0.41566800815E+00 -0.30292729828E+02  0.27629977808E+03  0.29399765290E+03  0.95787422369E+02 0.  0.
         24    2    1    2    0    0  0.18490831041E+02  0.48207646749E+02  0.18715289840E+03  0.21119340543E+03  0.83129772521E+02 0.  0.
        -13    1    4    4    0    0  0.29393698860E+02  0.97973015539E+01  0.14912131530E+02  0.34385292163E+02  0.00000000000E+00 0.  1.
         14    1    4    4    0    0 -0.10902867818E+02  0.38410345196E+02  0.17224076687E+03  0.17680811326E+03  0.00000000000E+00 0. -1.
        -11    1    3    3    0    0 -0.33399858935E+02 -0.40313891960E+02  0.23216986044E+03  0.23799916924E+03  0.00000000000E+00 0. -1.
         11    1    3    3    0    0  0.32984190927E+02  0.10021162132E+02  0.44129917642E+02  0.55998483664E+02  0.00000000000E+00 0.  1.
          1    1    1    2  501    0 -0.18075163033E+02 -0.17914916922E+02  0.10195418814E+02  0.27415366709E+02  0.00000000000E+00 0. -1.
<scales pt_clust_5="13000.00000" pt_clust_6="13000.00000" pt_clust_7="13000.00000" pt_clust_8="13000.00000" pt_clust_9="25.44908"></scales>
<clustering>
<clus scale="   25.449">  2  9  1 -1</clus>
<clus scale="   83.130">  5  6 -1 -1</clus>
<clus scale="   91.714">  2  5  1 -1</clus>
<clus scale="   95.787">  7  8 -1 -1</clus>
<clus scale="   25.449">  2  5  1 -1</clus>
</clustering>
</event>
<event>
 9    2  0.6175212E-005  0.1022034E+03  0.7546771E-02  0.1280933E+00
         21   -1    0    0  501  502  0.00000000000E+00  0.00000000000E+00  0.65995320927E+02  0.65995320927E+02  0.00000000000E+00 0. -1.
         -3   -1    0    0    0  501 -0.00000000000E+00 -0.00000000000E+00 -0.33348148327E+03  0.33348148327E+03  0.00000000000E+00 0.  1.
         23    2    1    2    0    0  0.77948730318E+01 -0.39324414410E+02 -0.22830759336E+03  0.24927184274E+03  0.91678376834E+02 0.  0.
         24    2    1    2    0    0 -0.36605574496E+02  0.52514080226E+02 -0.52702887149E+02  0.11575309671E+03  0.80768114853E+02 0.  0.
        -13    1    4    4    0    0 -0.26929823186E+02  0.22898527248E+01 -0.58339345723E+02  0.64295707958E+02  0.00000000000E+00 0.  1.
         14    1    4    4    0    0 -0.96757513099E+01  0.50224227501E+02  0.56364585746E+01  0.51457388748E+02  0.00000000000E+00 0. -1.
        -13    1    3    3    0    0 -0.40837404526E+02 -0.18656728938E+02 -0.78693697012E+02  0.90600579979E+02  0.00000000000E+00 0.  1.
         13    1    3    3    0    0  0.48632277558E+02 -0.20667685472E+02 -0.14961389635E+03  0.15867126276E+03  0.00000000000E+00 0. -1.
         -4    1    1    2    0  502  0.28810701464E+02 -0.13189665815E+02  0.13524318171E+02  0.34451864756E+02  0.00000000000E+00 0.  1.
<scales pt_clust_5="13000.00000" pt_clust_6="13000.00000" pt_clust_7="13000.00000" pt_clust_8="13000.00000" pt_clust_9="31.68633"></scales>
<clustering>
<clus scale="   31.686">  1  9  2 -1</clus>
<clus scale="   80.768">  5  6 -1 -1</clus>
<clus scale="   91.678">  7  8 -1 -1</clus>
<clus scale="   92.542">  1  5  2 -1</clus>
<clus scale="   31.686">  1  5  2 -1</clus>
</clustering>
</event>
<event>
 9    2  0.6175212E-005  0.8579416E+02  0.7546771E-02  0.1316371E+00
         21   -1    0    0  501  502  0.00000000000E+00  0.00000000000E+00  0.84955338282E+02  0.84955338282E+02  0.00000000000E+00 0.  1.
          2   -1    0    0  502    0 -0.00000000000E+00 -0.00000000000E+00 -0.51422036349E+03  0.51422036349E+03  0.00000000000E+00 0. -1.
         24    2    1    2    0    0  0.68849251530E+01  0.91636810871E+01 -0.34502756327E+03  0.35439369916E+03  0.80121778204E+02 0.  0.
         23    2    1    2    0    0  0.24771996299E+02 -0.67203439534E+02  0.28106895735E+02  0.11442852572E+03  0.84699089872E+02 0.  0.
        -11    1    3    3    0    0  0.42249816064E+02  0.10086911623E+02 -0.22936407385E+03  0.23344093711E+03  0.00000000000E+00 0.  1.
         12    1    3    3    0    0 -0.35364890911E+02 -0.92323053552E+00 -0.11566348942E+03  0.12095276205E+03  0.00000000000E+00 0. -1.
        -13    1    4    4    0    0  0.46833390714E+02 -0.31782484568E+02  0.41963388643E+02  0.70458631817E+02  0.00000000000E+00 0.  1.
         13    1    4    4    0    0 -0.22061394416E+02 -0.35420954966E+02 -0.13856492908E+02  0.43969893905E+02  0.00000000000E+00 0. -1.
          1    1    1    2  501    0 -0.31656921452E+02  0.58039758447E+02 -0.11234435767E+03  0.13035347689E+03  0.00000000000E+00 0. -1.
<scales pt_clust_5="13000.00000" pt_clust_6="13000.00000" pt_clust_7="13000.00000" pt_clust_8="13000.00000" pt_clust_9="66.11186"></scales>
<clustering>
<clus scale="   66.112">  1  9  2 -1</clus>
<clus scale="   80.122">  5  6 -1 -1</clus>
<clus scale="   81.279">  2  5  1 -1</clus>
<clus scale="   84.699">  7  8 -1 -1</clus>
<clus scale="   66.112">  1  5  2 -1</clus>
</clustering>
</event>
<event>
 9    2  0.6175212E-005  0.9757295E+02  0.7546771E-02  0.1291813E+00
         21   -1    0    0  501  502  0.00000000000E+00  0.00000000000E+00  0.79201189805E+02  0.79201189805E+02  0.00000000000E+00 0.  1.
          2   -1    0    0  502    0 -0.00000000000E+00 -0.00000000000E+00 -0.20364480418E+03  0.20364480418E+03  0.00000000000E+00 0. -1.
         24    2    1    2    0    0  0.22901407645E+02 -0.37250064887E+02 -0.10262496152E+03  0.13709094911E+03  0.79686911071E+02 0.  0.
         23    2    1    2    0    0 -0.22020691489E+02  0.54665743187E+01 -0.46906481379E+02  0.10525362423E+03  0.91451151606E+02 0.  0.
        -11    1    3    3    0    0 -0.45674442061E+01 -0.27138781828E+02 -0.10420479178E+03  0.10777761203E+03  0.00000000000E+00 0.  1.
         12    1    3    3    0    0  0.27468851851E+02 -0.10111283059E+02  0.15798302621E+01  0.29313337080E+02  0.00000000000E+00 0. -1.
        -13    1    4    4    0    0 -0.47551219313E+02  0.19796489959E+02 -0.54519667636E+02  0.75002757496E+02  0.00000000000E+00 0. -1.
         13    1    4    4    0    0  0.25530527825E+02 -0.14329915640E+02  0.76131862572E+01  0.30250866735E+02  0.00000000000E+00 0.  1.
          1    1    1    2  501    0 -0.88071615604E+00  0.31783490568E+02  0.25087828524E+02  0.40501420638E+02  0.00000000000E+00 0. -1.
<scales pt_clust_5="13000.00000" pt_clust_6="13000.00000" pt_clust_7="13000.00000" pt_clust_8="13000.00000" pt_clust_9="31.79569"></scales>
<clustering>
<clus scale="   31.796">  1  9  2 -1</clus>
<clus scale="   79.687">  5  6 -1 -1</clus>
<clus scale="   86.644">  2  5  1 -1</clus>
<clus scale="   91.451">  7  8 -1 -1</clus>
<clus scale="   31.796">  1  5  2 -1</clus>
</clustering>
</event>
<event>
 9    2  0.6175212E-005  0.1855551E+03  0.7546771E-02  0.1163445E+00
         21   -1    0    0  501  502  0.00000000000E+00  0.00000000000E+00  0.88050115798E+02  0.88050115798E+02  0.00000000000E+00 0. -1.
          2   -1    0    0  502    0 -0.00000000000E+00 -0.00000000000E+00 -0.97567786431E+03  0.97567786431E+03  0.00000000000E+00 0. -1.
         23    2    1    2    0    0 -0.59379257685E+02 -0.13776859654E+03 -0.22922789917E+03  0.28297959356E+03  0.70893851448E+02 0.  0.
         24    2    1    2    0    0  0.20619006168E+03  0.98640968054E+02 -0.26512829943E+03  0.35914798873E+03  0.80311148249E+02 0.  0.
        -13    1    4    4    0    0  0.16968686727E+02  0.37340044145E+02 -0.65937399189E+02  0.77652790277E+02  0.00000000000E+00 0.  1.
         14    1    4    4    0    0  0.18922137495E+03  0.61300923910E+02 -0.19919090024E+03  0.28149519845E+03  0.00000000000E+00 0. -1.
        -13    1    3    3    0    0 -0.29813346664E+02 -0.12860383944E+03 -0.20427662672E+03  0.24322155205E+03  0.00000000000E+00 0. -1.
         13    1    3    3    0    0 -0.29565911021E+02 -0.91647570989E+01 -0.24951272458E+02  0.39758041507E+02  0.00000000000E+00 0.  1.
          1    1    1    2  501    0 -0.14681080399E+03  0.39127628488E+02 -0.39327154990E+03  0.42160039782E+03  0.00000000000E+00 0. -1.
<scales pt_clust_5="13000.00000" pt_clust_6="13000.00000" pt_clust_7="13000.00000" pt_clust_8="13000.00000" pt_clust_9="151.93553"></scales>
<clustering>
<clus scale="   70.894">  7  8 -1 -1</clus>
<clus scale="   80.311">  5  6 -1 -1</clus>
<clus scale="  151.936">  1  9  2 -1</clus>
<clus scale="  181.678">  2  7  1 -1</clus>
<clus scale="  151.936">  1  5  2 -1</clus>
</clustering>
</event>
<event>
 9    2  0.6175212E-005  0.9936416E+02  0.7546771E-02  0.1287769E+00
          2   -1    0    0  502    0 -0.00000000000E+00  0.00000000000E+00  0.84024578192E+03  0.84024578192E+03  0.00000000000E+00 0. -1.
         21   -1    0    0  501  502  0.00000000000E+00 -0.00000000000E+00 -0.20652450818E+02  0.20652450818E+02  0.00000000000E+00 0. -1.
         24    2    1    2    0    0 -0.26584084430E+02 -0.34600287580E+02  0.60052483030E+03  0.60749043031E+03  0.80688646412E+02 0.  0.
         23    2    1    2    0    0  0.68605718472E+00  0.12612688501E+02  0.16423686551E+03  0.18890454238E+03  0.92475010429E+02 0.  0.
        -11    1    3    3    0    0 -0.20443270478E+02 -0.91171315594E+01  0.36229998753E+02  0.42587113137E+02  0.00000000000E+00 0.  1.
         12    1    3    3    0    0 -0.61408139521E+01 -0.25483156021E+02  0.56429483155E+03  0.56490331717E+03  0.00000000000E+00 0. -1.
        -11    1    4    4    0    0 -0.87784837403E+01  0.46641896271E+02  0.13484687423E+03  0.14295526487E+03  0.00000000000E+00 0.  1.
         11    1    4    4    0    0  0.94645409250E+01 -0.34029207770E+02  0.29389991285E+02  0.45949277515E+02  0.00000000000E+00 0. -1.
          1    1    1    2  501    0  0.25898027245E+02  0.21987599079E+02  0.54831635286E+02  0.64503260046E+02  0.00000000000E+00 0. -1.
<scales pt_clust_5="13000.00000" pt_clust_6="13000.00000" pt_clust_7="13000.00000" pt_clust_8="13000.00000" pt_clust_9="33.97296"></scales>
<clustering>
<clus scale="   33.973">  2  9  1 -1</clus>
<clus scale="   80.689">  5  6 -1 -1</clus>
<clus scale="   88.500">  1  5  2 -1</clus>
<clus scale="   92.475">  7  8 -1 -1</clus>
<clus scale="   33.973">  2  5  1 -1</clus>
</clustering>
</event>
<event>
 9    2  0.6175212E-005  0.1364190E+03  0.7546771E-02  0.1220929E+00
          2   -1    0    0  502    0 -0.00000000000E+00  0.00000000000E+00  0.67345453816E+03  0.67345453816E+03  0.00000000000E+00 0. -1.
         21   -1    0    0  501  502  0.00000000000E+00 -0.00000000000E+00 -0.24127221537E+03  0.24127221537E+03  0.00000000000E+00 0.  1.
         24    2    1    2    0    0 -0.68774716046E+02  0.69969239611E+02  0.56404179303E+03  0.57823972472E+03  0.81193465883E+02 0.  0.
         23    2    1    2    0    0  0.91466575777E+02 -0.71817305894E+02  0.47181242503E+02  0.15600458461E+03  0.92668769624E+02 0.  0.
        -13    1    3    3    0    0 -0.54694772198E+02 -0.10614276043E+01  0.22559398304E+03  0.23213205276E+03  0.00000000000E+00 0.  1.
         14    1    3    3    0    0 -0.14079943848E+02  0.71030667215E+02  0.33844781000E+03  0.34610767197E+03  0.00000000000E+00 0. -1.
        -13    1    4    4    0    0  0.19411858856E+02 -0.39877665459E+02 -0.23451367265E+02  0.50169862400E+02  0.00000000000E+00 0.  1.
         13    1    4    4    0    0  0.72054716921E+02 -0.31939640435E+02  0.70632609768E+02  0.10583472221E+03  0.00000000000E+00 0. -1.
          1    1    1    2  501    0 -0.22691859731E+02  0.18480662824E+01 -0.17904071274E+03  0.18048244421E+03  0.00000000000E+00 0. -1.
<scales pt_clust_5="13000.00000" pt_clust_6="13000.00000" pt_clust_7="13000.00000" pt_clust_8="13000.00000" pt_clust_9="22.76699"></scales>
<clustering>
<clus scale="   22.767">  2  9  1 -1</clus>
<clus scale="   81.193">  5  6 -1 -1</clus>
<clus scale="   92.669">  7  8 -1 -1</clus>
<clus scale="  128.899">  1  5  2 -1</clus>
<clus scale="   22.767">  2  5  1 -1</clus>
</clustering>
</event>
<event>
 9    2  0.6175212E-005  0.1150478E+03  0.7546771E-02  0.1267110E+00
         21   -1    0    0  501  502  0.00000000000E+00  0.00000000000E+00  0.57294543557E+03  0.57294543557E+03  0.00000000000E+00 0. -1.
          2   -1    0    0  502    0 -0.00000000000E+00 -0.00000000000E+00 -0.10239244505E+03  0.10239244505E+03  0.00000000000E+00 0. -1.
         24    2    1    2    0    0 -0.96148740617E+01  0.46383101609E+02 -0.47843368801E+02  0.10250109484E+03  0.77289382108E+02 0.  0.
         23    2    1    2    0    0 -0.20742036836E+02  0.33933354697E+02  0.12858799576E+03  0.17368413892E+03  0.10977068281E+03 0.  0.
        -11    1    3    3    0    0 -0.30533735833E+02  0.11070102124E+02  0.77573908922E+01  0.33392114315E+02  0.00000000000E+00 0.  1.
         12    1    3    3    0    0  0.20918861772E+02  0.35312999485E+02 -0.55600759694E+02  0.69108980523E+02  0.00000000000E+00 0. -1.
        -11    1    4    4    0    0 -0.25058799549E+02 -0.19839127225E+02  0.11314370392E+03  0.11757139168E+03  0.00000000000E+00 0.  1.
         11    1    4    4    0    0  0.43167627133E+01  0.53772481923E+02  0.15444291842E+02  0.56112747241E+02  0.00000000000E+00 0. -1.
          1    1    1    2  501    0  0.30356910898E+02 -0.80316456306E+02  0.38980836356E+03  0.39915264686E+03  0.00000000000E+00 0. -1.
<scales pt_clust_5="13000.00000" pt_clust_6="13000.00000" pt_clust_7="13000.00000" pt_clust_8="13000.00000" pt_clust_9="85.86195"></scales>
<clustering>
<clus scale="   77.289">  5  6 -1 -1</clus>
<clus scale="   85.862">  1  9  2 -1</clus>
<clus scale="   84.617">  2  5  1 -1</clus>
<clus scale="  109.771">  7  8 -1 -1</clus>
<clus scale="   85.862">  1  5  2 -1</clus>
</clustering>
</event>
<event>
 9    2  0.6175212E-005  0.1409301E+03  0.7546771E-02  0.1223010E+00
         21   -1    0    0  501  502  0.00000000000E+00  0.00000000000E+00  0.40601389952E+03  0.40601389952E+03  0.00000000000E+00 0.  1.
         -1   -1    0    0    0  501 -0.00000000000E+00 -0.00000000000E+00 -0.22304890736E+03  0.22304890736E+03  0.00000000000E+00 0.  1.
         23    2    1    2    0    0 -0.60276506342E+02 -0.11264986948E+01 -0.10777686562E+03  0.15538505777E+03  0.94308733427E+02 0.  0.
         24    2    1    2    0    0 -0.32739645172E+01  0.10522372667E+03 -0.27390128875E+02  0.13296840649E+03  0.76469774870E+02 0.  0.
        -13    1    4    4    0    0 -0.21515707108E+02  0.10752301668E+03 -0.31579053298E+02  0.11411117989E+03  0.00000000000E+00 0.  1.
         14    1    4    4    0    0  0.18241742591E+02 -0.22992900171E+01  0.41889244231E+01  0.18857226603E+02  0.00000000000E+00 0. -1.
        -13    1    3    3    0    0  0.25577094924E+02  0.32038007116E+01 -0.21129000653E+02  0.33329968382E+02  0.00000000000E+00 0. -1.
         13    1    3    3    0    0 -0.85853601266E+02 -0.43302994064E+01 -0.86647864963E+02  0.12205508939E+03  0.00000000000E+00 0.  1.
         -2    1    1    2    0  502  0.63550470859E+02 -0.10409722797E+03  0.31813198665E+03  0.34070934262E+03  0.00000000000E+00 0.  1.
<scales pt_clust_5="13000.00000" pt_clust_6="13000.00000" pt_clust_7="13000.00000" pt_clust_8="13000.00000" pt_clust_9="118.37939"></scales>
<clustering>
<clus scale="   76.470">  5  6 -1 -1</clus>
<clus scale="   94.309">  7  8 -1 -1</clus>
<clus scale="  111.932">  2  7  1 -1</clus>
<clus scale="  118.379">  1  9  2 -1</clus>
<clus scale="  118.379">  1  5  2 -1</clus>
</clustering>
</event>
<event>
 9    2  0.6175212E-005  0.9078436E+02  0.7546771E-02  0.1313873E+00
         21   -1    0    0  501  502  0.00000000000E+00  0.00000000000E+00  0.30309637671E+03  0.30309637671E+03  0.00000000000E+00 0.  1.
          2   -1    0    0  502    0 -0.00000000000E+00 -0.00000000000E+00 -0.12851835076E+03  0.12851835076E+03  0.00000000000E+00 0. -1.
         24    2    1    2    0    0 -0.46922903366E+01  0.12950016267E+02 -0.10067720708E+03  0.12381912657E+03  0.70749951017E+02 0.  0.
         23    2    1    2    0    0  0.13330774643E+02  0.17985352338E+02  0.13416400485E+03  0.16309468482E+03  0.89992852881E+02 0.  0.
        -13    1    3    3    0    0  0.27525574854E+02 -0.25063798640E+01 -0.16060963001E+02  0.31967072803E+02  0.00000000000E+00 0.  1.
         14    1    3    3    0    0 -0.32217865191E+02  0.15456396131E+02 -0.84616244082E+02  0.91852053768E+02  0.00000000000E+00 0. -1.
        -11    1    4    4    0    0  0.40134646530E+02  0.24808633768E+02  0.12555365056E+03  0.13412672116E+03  0.00000000000E+00 0.  1.
         11    1    4    4    0    0 -0.26803871887E+02 -0.68232814297E+01  0.86103542882E+01  0.28967963659E+02  0.00000000000E+00 0. -1.
          1    1    1    2  501    0 -0.86384843069E+01 -0.30935368606E+02  0.14109122819E+03  0.14470091607E+03  0.00000000000E+00 0. -1.
<scales pt_clust_5="13000.00000" pt_clust_6="13000.00000" pt_clust_7="13000.00000" pt_clust_8="13000.00000" pt_clust_9="32.11885"></scales>
<clustering>
<clus scale="   32.119">  1  9  2 -1</clus>
<clus scale="   70.750">  5  6 -1 -1</clus>
<clus scale="   71.754">  2  5  1 -1</clus>
<clus scale="   89.993">  7  8 -1 -1</clus>
<clus scale="   32.119">  1  5  2 -1</clus>
</clustering>
</event>
<event>
 9    2  0.6175212E-005  0.1463981E+03  0.7546771E-02  0.1209762E+00
         21   -1    0    0  501  502  0.00000000000E+00  0.00000000000E+00  0.10828106986E+03  0.10828106986E+03  0.00000000000E+00 0. -1.
          2   -1    0    0  502    0 -0.00000000000E+00 -0.00000000000E+00 -0.34338788634E+03  0.34338788634E+03  0.00000000000E+00 0. -1.
         23    2    1    2    0    0  0.66764909040E+02 -0.80729651829E+02 -0.20848889739E+03  0.25036720127E+03  0.90781525510E+02 0.  0.
         24    2    1    2    0    0 -0.12593834339E+02  0.82531151389E+02 -0.42338599570E+02  0.14486692057E+03  0.11056162105E+03 0.  0.
        -13    1    4    4    0    0 -0.28366124910E+02  0.38709889711E+02 -0.74250559397E+02  0.88409491429E+02  0.00000000000E+00 0.  1.
         14    1    4    4    0    0  0.15772290571E+02  0.43821261678E+02  0.31911959828E+02  0.56457429139E+02  0.00000000000E+00 0. -1.
        -11    1    3    3    0    0  0.36890428473E+02 -0.95112428781E+01 -0.14639341297E+03  0.15126929237E+03  0.00000000000E+00 0. -1.
         11    1    3    3    0    0  0.29874480568E+02 -0.71218408951E+02 -0.62095484419E+02  0.99097908898E+02  0.00000000000E+00 0.  1.
          1    1    1    2  501    0 -0.54171074701E+02 -0.18014995605E+01  0.15720680484E+02  0.56434834365E+02  0.00000000000E+00 0. -1.
<scales pt_clust_5="13000.00000" pt_clust_6="13000.00000" pt_clust_7="13000.00000" pt_clust_8="13000.00000" pt_clust_9="54.20102"></scales>
<clustering>
<clus scale="   54.201">  1  9  2 -1</clus>
<clus scale="   90.782">  7  8 -1 -1</clus>
<clus scale="  110.562">  5  6 -1 -1</clus>
<clus scale="  132.098">  2  7  1 -1</clus>
<clus scale="   54.201">  1  5  2 -1</clus>
</clustering>
</event>
<event>
 9    2  0.6175212E-005  0.1998148E+03  0.7546771E-02  0.1150836E+00
         21   -1    0    0  501  502  0.00000000000E+00  0.00000000000E+00  0.12555715673E+03  0.12555715673E+03  0.00000000000E+00 0.  1.
          2   -1    0    0  502    0 -0.00000000000E+00 -0.00000000000E+00 -0.52591549889E+03  0.52591549889E+03  0.00000000000E+00 0. -1.
         24    2    1    2    0    0  0.14330447589E+03 -0.12301415609E+03 -0.32620625507E+03  0.38534593974E+03  0.80076944363E+02 0.  0.
         23    2    1    2    0    0 -0.12590738043E+03  0.77368652460E+02  0.48475639916E+01  0.17324444738E+03  0.90286005781E+02 0.  0.
        -11    1    3    3    0    0  0.31315840541E+02  0.78989294891E+01 -0.62526508185E+02  0.70374989746E+02  0.00000000000E+00 0.  1.
         12    1    3    3    0    0  0.11198863535E+03 -0.13091308558E+03 -0.26367974689E+03  0.31497095000E+03  0.00000000000E+00 0. -1.
        -11    1    4    4    0    0 -0.11150655268E+03  0.49924913788E+02  0.37917434155E+02  0.12792161709E+03  0.00000000000E+00 0.  1.
         11    1    4    4    0    0 -0.14400827752E+02  0.27443738673E+02 -0.33069870164E+02  0.45322830284E+02  0.00000000000E+00 0. -1.
          1    1    1    2  501    0 -0.17397095465E+02  0.45645503627E+02 -0.78999651076E+02  0.92882268502E+02  0.00000000000E+00 0. -1.
<scales pt_clust_5="13000.00000" pt_clust_6="13000.00000" pt_clust_7="13000.00000" pt_clust_8="13000.00000" pt_clust_9="48.84847"></scales>
<clustering>
<clus scale="   48.848">  1  9  2 -1</clus>
<clus scale="   80.077">  5  6 -1 -1</clus>
<clus scale="   90.286">  7  8 -1 -1</clus>
<clus scale="  195.414">  2  5  1 -1</clus>
<clus scale="   48.848">  1  5  2 -1</clus>
</clustering>
</event>
<event>
 9    2  0.6175212E-005  0.2170508E+03  0.7546771E-02  0.1148071E+00
          2   -1    0    0  502    0 -0.00000000000E+00  0.00000000000E+00  0.35410677083E+03  0.35410677083E+03  0.00000000000E+00 0. -1.
         21   -1    0    0  501  502  0.00000000000E+00 -0.00000000000E+00 -0.27531726629E+03  0.27531726629E+03  0.00000000000E+00 0. -1.
         24    2    1    2    0    0 -0.66841653199E+02 -0.12434536077E+03  0.12128810053E+02  0.16324271575E+03  0.81064794222E+02 0.  0.
         23    2    1    2    0    0 -0.29671653896E+02  0.26744670923E+03  0.73386833717E+02  0.29344436724E+03  0.91191117889E+02 0.  0.
        -13    1    3    3    0    0 -0.30477755022E+02 -0.61532301143E+01  0.23624854364E+02  0.39049834004E+02  0.00000000000E+00 0.  1.
         14    1    3    3    0    0 -0.36363898177E+02 -0.11819213066E+03 -0.11496044311E+02  0.12419288174E+03  0.00000000000E+00 0. -1.
        -11    1    4    4    0    0  0.38142358863E+01  0.11056276891E+03 -0.12754584993E+02  0.11136136540E+03  0.00000000000E+00 0.  1.
         11    1    4    4    0    0 -0.33485889782E+02  0.15688394031E+03  0.86141418710E+02  0.18208300184E+03  0.00000000000E+00 0. -1.
          1    1    1    2  501    0  0.96513307095E+02 -0.14310134845E+03 -0.67261392340E+01  0.17273695414E+03  0.00000000000E+00 0. -1.
<scales pt_clust_5="13000.00000" pt_clust_6="13000.00000" pt_clust_7="13000.00000" pt_clust_8="13000.00000" pt_clust_9="196.96510"></scales>
<clustering>
<clus scale="   81.065">  5  6 -1 -1</clus>
<clus scale="   91.191">  7  8 -1 -1</clus>
<clus scale="  162.792">  1  5  2 -1</clus>
<clus scale="  196.965">  2  9  1 -1</clus>
<clus scale="  196.965">  2  5  1 -1</clus>
</clustering>
</event>
<event>
 9    2  0.6175212E-005  0.9237260E+02  0.7546771E-02  0.1303950E+00
         21   -1    0    0  501  502  0.00000000000E+00  0.00000000000E+00  0.78713232294E+02  0.78713232294E+02  0.00000000000E+00 0. -1.
          2   -1    0    0  502    0 -0.00000000000E+00 -0.00000000000E+00 -0.22853609380E+03  0.22853609380E+03  0.00000000000E+00 0. -1.
         24    2    1    2    0    0  0.23221010488E+02 -0.28439914685E+02 -0.45779407334E+02  0.99975429936E+02  0.80940029527E+02 0.  0.
         23    2    1    2    0    0  0.68099847610E+01 -0.39840879947E+02 -0.36805008835E+02  0.10684911773E+03  0.91806610200E+02 0.  0.
        -11    1    3    3    0    0  0.22414863452E+02  0.85523094257E+01  0.15377665357E+02  0.28496327691E+02  0.00000000000E+00 0.  1.
         12    1    3    3    0    0  0.80614703599E+00 -0.36992224111E+02 -0.61157072691E+02  0.71479102245E+02  0.00000000000E+00 0. -1.
        -11    1    4    4    0    0 -0.38628961503E+01 -0.65168839351E+02 -0.59896142463E+01  0.65557418099E+02  0.00000000000E+00 0. -1.
         11    1    4    4    0    0  0.10672880911E+02  0.25327959404E+02 -0.30815394588E+02  0.41291699628E+02  0.00000000000E+00 0.  1.
          1    1    1    2  501    0 -0.30030995249E+02  0.68280794632E+02 -0.67238445334E+02  0.10042477843E+03  0.00000000000E+00 0. -1.
<scales pt_clust_5="13000.00000" pt_clust_6="13000.00000" pt_clust_7="13000.00000" pt_clust_8="13000.00000" pt_clust_9="74.59312"></scales>
<clustering>
<clus scale="   74.593">  1  9  2 -1</clus>
<clus scale="   80.940">  5  6 -1 -1</clus>
<clus scale="   81.581">  2  5  1 -1</clus>
<clus scale="   91.807">  7  8 -1 -1</clus>
<clus scale="   74.593">  1  5  2 -1</clus>
</clustering>
</event>
<event>
 9    2  0.6175212E-005  0.9465182E+02  0.7546771E-02  0.1302142E+00
         -3   -1    0    0    0  501 -0.00000000000E+00  0.00000000000E+00  0.29449920372E+03  0.29449920372E+03  0.00000000000E+00 0.  1.
         21   -1    0    0  501  502  0.00000000000E+00 -0.00000000000E+00 -0.59099234636E+02  0.59099234636E+02  0.00000000000E+00 0. -1.
         23    2    1    2    0    0 -0.13597483611E+02 -0.42964449291E+02  0.87929508085E+02  0.13626856057E+03  0.93843948901E+02 0.  0.
         24    2    1    2    0    0 -0.25231053926E+01 -0.22571121024E+02  0.39066001803E+02  0.89633710494E+02  0.77409482591E+02 0.  0.
        -13    1    4    4    0    0 -0.22362551980E+02  0.44748741652E+01  0.49504133200E+02  0.54504746892E+02  0.00000000000E+00 0.  1.
         14    1    4    4    0    0  0.19839446588E+02 -0.27045995190E+02 -0.10438131397E+02  0.35128963602E+02  0.00000000000E+00 0. -1.
        -13    1    3    3    0    0 -0.20646362178E+02  0.26763806718E+02  0.32803322006E+02  0.47102351915E+02  0.00000000000E+00 0. -1.
         13    1    3    3    0    0  0.70488785662E+01 -0.69728256009E+02  0.55126186078E+02  0.89166208659E+02  0.00000000000E+00 0.  1.
         -4    1    1    2    0  502  0.16120589004E+02  0.65535570315E+02  0.10840445919E+03  0.12769616728E+03  0.00000000000E+00 0.  1.
<scales pt_clust_5="13000.00000" pt_clust_6="13000.00000" pt_clust_7="13000.00000" pt_clust_8="13000.00000" pt_clust_9="67.48918"></scales>
<clustering>
<clus scale="   67.489">  2  9  1 -1</clus>
<clus scale="   77.409">  5  6 -1 -1</clus>
<clus scale="   78.387">  2  5  1 -1</clus>
<clus scale="   93.844">  7  8 -1 -1</clus>
<clus scale="   67.489">  2  5  1 -1</clus>
</clustering>
</event>
<event>
 9    2  0.6175212E-005  0.9087468E+02  0.7546771E-02  0.1306487E+00
         21   -1    0    0  501  502  0.00000000000E+00  0.00000000000E+00  0.98954868185E+02  0.98954868185E+02  0.00000000000E+00 0. -1.
         -1   -1    0    0    0  501 -0.00000000000E+00 -0.00000000000E+00 -0.12991438160E+03  0.12991438160E+03  0.00000000000E+00 0.  1.
         23    2    1    2    0    0  0.10632625174E+02 -0.98681612227E+01 -0.43985160293E+02  0.10100567565E+03  0.89760898303E+02 0.  0.
         24    2    1    2    0    0  0.22769687254E+02  0.22852376167E+02  0.24608725186E+02  0.90200966462E+02  0.80560134318E+02 0.  0.
        -13    1    4    4    0    0  0.35912414583E+01  0.51753006393E+02  0.11614755016E+02  0.53161764643E+02  0.00000000000E+00 0.  1.
         14    1    4    4    0    0  0.19178445796E+02 -0.28900630226E+02  0.12993970171E+02  0.37039201819E+02  0.00000000000E+00 0. -1.
        -13    1    3    3    0    0 -0.32238390686E+02 -0.39677907283E+01 -0.47548578122E+02  0.57584064451E+02  0.00000000000E+00 0.  1.
         13    1    3    3    0    0  0.42871015859E+02 -0.59003704944E+01  0.35634178289E+01  0.43421611202E+02  0.00000000000E+00 0. -1.
         -2    1    1    2    0  502 -0.33402312428E+02 -0.12984214944E+02 -0.11583078304E+02  0.37662607666E+02  0.00000000000E+00 0.  1.
<scales pt_clust_5="13000.00000" pt_clust_6="13000.00000" pt_clust_7="13000.00000" pt_clust_8="13000.00000" pt_clust_9="35.83721"></scales>
<clustering>
<clus scale="   35.837">  1  9  2 -1</clus>
<clus scale="   80.560">  5  6 -1 -1</clus>
<clus scale="   81.799">  1  5  2 -1</clus>
<clus scale="   89.761">  7  8 -1 -1</clus>
<clus scale="   35.837">  1  5  2 -1</clus>
</clustering>
</event>
<event>
 9    2  0.6175212E-005  0.8237066E+02  0.7546771E-02  0.1324002E+00
          2   -1    0    0  502    0 -0.00000000000E+00  0.00000000000E+00  0.29346780006E+03  0.29346780006E+03  0.00000000000E+00 0. -1.
         21   -1    0    0  501  502  0.00000000000E+00 -0.00000000000E+00 -0.50813718943E+02  0.50813718943E+02  0.00000000000E+00 0. -1.
         24    2    1    2    0    0 -0.73027318413E+01  0.17256486361E+02  0.12544853389E+03  0.14979848811E+03  0.79694015901E+02 0.  0.
         23    2    1    2    0    0  0.73964318773E+01  0.44422200676E+02  0.72109756055E+02  0.11807688196E+03  0.81940795802E+02 0.  0.
        -13    1    3    3    0    0  0.35204145100E+02  0.10821357733E+02  0.74715668025E+02  0.83299847922E+02  0.00000000000E+00 0.  1.
         14    1    3    3    0    0 -0.42506876941E+02  0.64351286283E+01  0.50732865867E+02  0.66498640188E+02  0.00000000000E+00 0. -1.
        -11    1    4    4    0    0  0.83581718401E+01  0.68678564074E+02  0.51855829113E+02  0.86461732650E+02  0.00000000000E+00 0. -1.
         11    1    4    4    0    0 -0.96173996282E+00 -0.24256363398E+02  0.20253926942E+02  0.31615149306E+02  0.00000000000E+00 0.  1.
          1    1    1    2  501    0 -0.93700035906E-01 -0.61678687037E+02  0.45095791172E+02  0.76406148939E+02  0.00000000000E+00 0. -1.
<scales pt_clust_5="13000.00000" pt_clust_6="13000.00000" pt_clust_7="13000.00000" pt_clust_8="13000.00000" pt_clust_9="61.67876"></scales>
<clustering>
<clus scale="   61.679">  2  9  1 -1</clus>
<clus scale="   79.694">  5  6 -1 -1</clus>
<clus scale="   80.136">  1  5  2 -1</clus>
<clus scale="   81.941">  7  8 -1 -1</clus>
<clus scale="   61.679">  2  5  1 -1</clus>
</clustering>
</event>
<event>
 9    2  0.6175212E-005  0.8853545E+02  0.7546771E-02  0.1308610E+00
          2   -1    0    0  502    0 -0.00000000000E+00  0.00000000000E+00  0.55685800973E+03  0.55685800973E+03  0.00000000000E+00 0. -1.
         21   -1    0    0  501  502  0.00000000000E+00 -0.00000000000E+00 -0.31117199643E+02  0.31117199643E+02  0.00000000000E+00 0. -1.
         24    2    1    2    0    0  0.29449094429E+02  0.30270079858E+01  0.31042288898E+03  0.32236204875E+03  0.81722142232E+02 0.  0.
         23    2    1    2    0    0  0.10063687724E+02 -0.45349929529E+02  0.12439294485E+03  0.15781779454E+03  0.85293362147E+02 0.  0.
        -11    1    3    3    0    0  0.31174905194E+02 -0.31729893980E+02  0.23663761766E+03  0.24078210684E+03  0.00000000000E+00 0.  1.
         12    1    3    3    0    0 -0.17258107651E+01  0.34756901966E+02  0.73785271325E+02  0.81579941907E+02  0.00000000000E+00 0. -1.
        -13    1    4    4    0    0  0.40274077373E+02 -0.10769936793E+02  0.25722098094E+02  0.48985907945E+02  0.00000000000E+00 0. -1.
         13    1    4    4    0    0 -0.30210389649E+02 -0.34579992736E+02  0.98670846760E+02  0.10883188660E+03  0.00000000000E+00 0.  1.
          1    1    1    2  501    0 -0.39512782153E+02  0.42322921543E+02  0.90924976248E+02  0.10779536607E+03  0.00000000000E+00 0. -1.
<scales pt_clust_5="13000.00000" pt_clust_6="13000.00000" pt_clust_7="13000.00000" pt_clust_8="13000.00000" pt_clust_9="57.90069"></scales>
<clustering>
<clus scale="   57.901">  2  9  1 -1</clus>
<clus scale="   81.722">  5  6 -1 -1</clus>
<clus scale="   85.100">  1  5  2 -1</clus>
<clus scale="   85.293">  7  8 -1 -1</clus>
<clus scale="   57.901">  2  5  1 -1</clus>
</clustering>
</event>
<event>
 9    2  0.6175212E-005  0.9940480E+02  0.7546771E-02  0.1287906E+00
          2   -1    0    0  502    0 -0.00000000000E+00  0.00000000000E+00  0.12861665791E+03  0.12861665791E+03  0.00000000000E+00 0. -1.
         21   -1    0    0  501  502  0.00000000000E+00 -0.00000000000E+00 -0.35706836971E+03  0.35706836971E+03  0.00000000000E+00 0.  1.
         24    2    1    2    0    0  0.31487328245E+02 -0.29835537189E+02  0.82042669490E+02  0.12139928374E+03  0.78263499512E+02 0.  0.
         23    2    1    2    0    0  0.41844101446E+02  0.53502879257E+02 -0.19108335431E+03  0.22217087829E+03  0.90738988036E+02 0.  0.
        -11    1    3    3    0    0  0.32457458669E+02 -0.15648742476E+02 -0.20707455654E+01  0.36092350318E+02  0.00000000000E+00 0.  1.
         12    1    3    3    0    0 -0.97013042392E+00 -0.14186794713E+02  0.84113415055E+02  0.85306933420E+02  0.00000000000E+00 0. -1.
        -11    1    4    4    0    0 -0.25788117357E+02  0.14315265434E+01 -0.27947145753E+02  0.38054161675E+02  0.00000000000E+00 0.  1.
         11    1    4    4    0    0  0.67632218802E+02  0.52071352713E+02 -0.16313620856E+03  0.18411671661E+03  0.00000000000E+00 0. -1.
          1    1    1    2  501    0 -0.73331429691E+02 -0.23667342068E+02 -0.11941102698E+03  0.14211486560E+03  0.00000000000E+00 0. -1.
<scales pt_clust_5="13000.00000" pt_clust_6="13000.00000" pt_clust_7="13000.00000" pt_clust_8="13000.00000" pt_clust_9="77.05609"></scales>
<clustering>
<clus scale="   77.056">  2  9  1 -1</clus>
<clus scale="   78.263">  5  6 -1 -1</clus>
<clus scale="   88.164">  1  5  2 -1</clus>
<clus scale="   90.739">  7  8 -1 -1</clus>
<clus scale="   77.056">  2  5  1 -1</clus>
</clustering>
</event>
<event>
 9    2  0.6175212E-005  0.9751427E+02  0.7546771E-02  0.1291464E+00
         21   -1    0    0  501  502  0.00000000000E+00  0.00000000000E+00  0.75183462072E+02  0.75183462072E+02  0.00000000000E+00 0. -1.
          2   -1    0    0  502    0 -0.00000000000E+00 -0.00000000000E+00 -0.54271603570E+03  0.54271603570E+03  0.00000000000E+00 0. -1.
         23    2    1    2    0    0 -0.43219105194E+02  0.41560100101E+02 -0.75450006440E+02  0.13310575495E+03  0.91811249615E+02 0.  0.
         24    2    1    2    0    0 -0.36173599555E+02 -0.15693088506E+02 -0.65079732020E+01  0.90281295127E+02  0.80954037596E+02 0.  0.
        -13    1    4    4    0    0 -0.34444461254E+02 -0.34354638556E+02 -0.32303187394E+02  0.58396558265E+02  0.00000000000E+00 0.  1.
         14    1    4    4    0    0 -0.17291383009E+01  0.18661550050E+02  0.25795214192E+02  0.31884736862E+02  0.00000000000E+00 0. -1.
        -13    1    3    3    0    0 -0.67352879074E+02  0.47016535234E+02 -0.69644559470E+02  0.10769089826E+03  0.00000000000E+00 0. -1.
         13    1    3    3    0    0  0.24133773881E+02 -0.54564351322E+01 -0.58054469696E+01  0.25414856690E+02  0.00000000000E+00 0.  1.
          1    1    1    2  501    0  0.79392704749E+02 -0.25867011595E+02 -0.38557459399E+03  0.39451244769E+03  0.00000000000E+00 0. -1.
<scales pt_clust_5="13000.00000" pt_clust_6="13000.00000" pt_clust_7="13000.00000" pt_clust_8="13000.00000" pt_clust_9="83.50036"></scales>
<clustering>
<clus scale="   80.954">  5  6 -1 -1</clus>
<clus scale="   83.500">  1  9  2 -1</clus>
<clus scale="   87.369">  1  5  2 -1</clus>
<clus scale="   91.811">  7  8 -1 -1</clus>
<clus scale="   83.500">  1  5  2 -1</clus>
</clustering>
</event>
<event>
 9    2  0.6175212E-005  0.2083196E+03  0.7546771E-02  0.1143821E+00
         21   -1    0    0  501  502  0.00000000000E+00  0.00000000000E+00  0.89605481825E+03  0.89605481825E+03  0.00000000000E+00 0. -1.
          2   -1    0    0  502    0 -0.00000000000E+00 -0.00000000000E+00 -0.33805480755E+03  0.33805480755E+03  0.00000000000E+00 0. -1.
         24    2    1    2    0    0  0.15124357608E+03 -0.10953966831E+03 -0.21206309715E+03  0.29384748652E+03  0.80635165539E+02 0.  0.
         23    2    1    2    0    0 -0.21614039442E+03  0.11518518857E+02  0.92435944068E+02  0.25251340909E+03  0.91483723329E+02 0.  0.
        -13    1    3    3    0    0  0.49184927003E+02 -0.66654710334E+02 -0.47426008129E+02  0.95452782573E+02  0.00000000000E+00 0.  1.
         14    1    3    3    0    0  0.10205864907E+03 -0.42884957979E+02 -0.16463708903E+03  0.19839470395E+03  0.00000000000E+00 0. -1.
        -13    1    4    4    0    0 -0.66461900766E+02  0.36783255158E+02  0.61174259463E+02  0.97531954426E+02  0.00000000000E+00 0.  1.
         13    1    4    4    0    0 -0.14967849366E+03 -0.25264736300E+02  0.31261684605E+02  0.15498145466E+03  0.00000000000E+00 0. -1.
          1    1    1    2  501    0  0.64896818346E+02  0.98021149456E+02  0.67762716379E+03  0.68774873019E+03  0.00000000000E+00 0. -1.
<scales pt_clust_5="13000.00000" pt_clust_6="13000.00000" pt_clust_7="13000.00000" pt_clust_8="13000.00000" pt_clust_9="117.55740"></scales>
<clustering>
<clus scale="   80.635">  5  6 -1 -1</clus>
<clus scale="   91.484">  7  8 -1 -1</clus>
<clus scale="  117.557">  1  9  2 -1</clus>
<clus scale="  203.789">  2  5  1 -1</clus>
<clus scale="  117.557">  1  5  2 -1</clus>
</clustering>
</event>
<event>
 9    2  0.6175212E-005  0.1206827E+03  0.7546771E-02  0.1244693E+00
          4   -1    0    0  502    0 -0.00000000000E+00  0.00000000000E+00  0.43011910122E+02  0.43011910122E+02  0.00000000000E+00 0. -1.
         21   -1    0    0  501  502  0.00000000000E+00 -0.00000000000E+00 -0.55364795893E+03  0.55364795893E+03  0.00000000000E+00 0. -1.
         23    2    1    2    0    0 -0.43202873444E+02  0.50299453598E+02 -0.16730713704E+03  0.20165400787E+03  0.90973278939E+02 0.  0.
         24    2    1    2    0    0  0.67371116130E+02 -0.78495948141E+02 -0.33012580911E+03  0.35559180051E+03  0.82231366191E+02 0.  0.
        -13    1    4    4    0    0 -0.13402034070E+02 -0.38102795084E+02 -0.79116182399E+02  0.88830219114E+02  0.00000000000E+00 0.  1.
         14    1    4    4    0    0  0.80773150199E+02 -0.40393153057E+02 -0.25100962671E+03  0.26676158139E+03  0.00000000000E+00 0. -1.
        -13    1    3    3    0    0 -0.39811900905E+01  0.47841923830E+02 -0.15213250128E+03  0.15952741926E+03  0.00000000000E+00 0. -1.
         13    1    3    3    0    0 -0.39221683353E+02  0.24575297682E+01 -0.15174635757E+02  0.42126588611E+02  0.00000000000E+00 0.  1.
          3    1    1    2  501    0 -0.24168242686E+02  0.28196494543E+02 -0.13203102667E+02  0.39414060677E+02  0.00000000000E+00 0. -1.
<scales pt_clust_5="13000.00000" pt_clust_6="13000.00000" pt_clust_7="13000.00000" pt_clust_8="13000.00000" pt_clust_9="37.13688"></scales>
<clustering>
<clus scale="   37.137">  2  9  1 -1</clus>
<clus scale="   82.231">  5  6 -1 -1</clus>
<clus scale="   90.973">  7  8 -1 -1</clus>
<clus scale="  114.237">  2  5  1 -1</clus>
<clus scale="   37.137">  2  5  1 -1</clus>
</clustering>
</event>
<event>
 9    2  0.6175212E-005  0.9394388E+02  0.7546771E-02  0.1300713E+00
          2   -1    0    0  502    0 -0.00000000000E+00  0.00000000000E+00  0.42490552616E+02  0.42490552616E+02  0.00000000000E+00 0. -1.
         21   -1    0    0  501  502  0.00000000000E+00 -0.00000000000E+00 -0.50149687720E+03  0.50149687720E+03  0.00000000000E+00 0. -1.
         24    2    1    2    0    0  0.23135417125E+01  0.33272040850E+02 -0.48310143453E+02  0.97339848165E+02  0.77645314751E+02 0.  0.
         23    2    1    2    0    0  0.54406161090E+02  0.13807023421E+01 -0.20314341102E+03  0.22871160556E+03  0.89887798785E+02 0.  0.
        -13    1    3    3    0    0  0.24474444822E+02 -0.99425957570E+01  0.31231925263E+01  0.26600902077E+02  0.00000000000E+00 0.  1.
         14    1    3    3    0    0 -0.22160903110E+02  0.43214636607E+02 -0.51433335979E+02  0.70738946088E+02  0.00000000000E+00 0. -1.
        -11    1    4    4    0    0  0.79628701695E+01  0.32681029088E+02 -0.14142350658E+03  0.14536872146E+03  0.00000000000E+00 0.  1.
         11    1    4    4    0    0  0.46443290921E+02 -0.31300326746E+02 -0.61719904440E+02  0.83342884100E+02  0.00000000000E+00 0. -1.
          1    1    1    2  501    0 -0.56719702803E+02 -0.34652743192E+02 -0.20755277011E+03  0.21793597609E+03  0.00000000000E+00 0. -1.
<scales pt_clust_5="13000.00000" pt_clust_6="13000.00000" pt_clust_7="13000.00000" pt_clust_8="13000.00000" pt_clust_9="66.46757"></scales>
<clustering>
<clus scale="   66.468">  2  9  1 -1</clus>
<clus scale="   77.645">  5  6 -1 -1</clus>
<clus scale="   82.307">  1  5  2 -1</clus>
<clus scale="   89.888">  7  8 -1 -1</clus>
<clus scale="   66.468">  2  5  1 -1</clus>
</clustering>
</event>
<event>
 9    2  0.6175212E-005  0.1084793E+03  0.7546771E-02  0.1271014E+00
          2   -1    0    0  502    0 -0.00000000000E+00  0.00000000000E+00  0.13141157478E+03  0.13141157478E+03  0.00000000000E+00 0. -1.
         21   -1    0    0  501  502  0.00000000000E+00 -0.00000000000E+00 -0.14074903368E+03  0.14074903368E+03  0.00000000000E+00 0.  1.
         24    2    1    2    0    0  0.23877356215E+02 -0.41213457407E+02  0.60755778196E+02  0.11001978901E+03  0.78386300957E+02 0.  0.
         23    2    1    2    0    0 -0.52344279428E+02  0.43277205788E+02 -0.60632199701E+02  0.13207196508E+03  0.95676016795E+02 0.  0.
        -13    1    3    3    0    0 -0.85445096087E+01 -0.40622621389E+02  0.41028025296E+00  0.41513544090E+02  0.00000000000E+00 0.  1.
         14    1    3    3    0    0  0.32421865824E+02 -0.59083601775E+00  0.60345497943E+02  0.68506244918E+02  0.00000000000E+00 0. -1.
        -11    1    4    4    0    0  0.29667966358E+01 -0.27165908874E+02 -0.19146479534E+02  0.33367291855E+02  0.00000000000E+00 0.  1.
         11    1    4    4    0    0 -0.55311076063E+02  0.70443114662E+02 -0.41485720167E+02  0.98704673224E+02  0.00000000000E+00 0. -1.
          1    1    1    2  501    0  0.28466923212E+02 -0.20637483807E+01 -0.94610374007E+01  0.30068854372E+02  0.00000000000E+00 0. -1.
<scales pt_clust_5="13000.00000" pt_clust_6="13000.00000" pt_clust_7="13000.00000" pt_clust_8="13000.00000" pt_clust_9="28.54163"></scales>
<clustering>
<clus scale="   28.542">  2  9  1 -1</clus>
<clus scale="   78.386">  5  6 -1 -1</clus>
<clus scale="   93.586">  1  5  2 -1</clus>
<clus scale="   95.676">  7  8 -1 -1</clus>
<clus scale="   28.542">  2  5  1 -1</clus>
</clustering>
</event>
<event>
 9    2  0.6175212E-005  0.1122039E+03  0.7546771E-02  0.1260186E+00
         21   -1    0    0  501  502  0.00000000000E+00  0.00000000000E+00  0.12478458110E+03  0.12478458110E+03  0.00000000000E+00 0. -1.
          2   -1    0    0  502    0 -0.00000000000E+00 -0.00000000000E+00 -0.42219413498E+03  0.42219413498E+03  0.00000000000E+00 0. -1.
         24    2    1    2    0    0 -0.36308257221E+02 -0.44457641348E+02 -0.23455004475E+03  0.25401601338E+03  0.78839331220E+02 0.  0.
         23    2    1    2    0    0  0.46653263705E+02  0.86956444001E+02 -0.14701496232E+03  0.19811910677E+03  0.88880994321E+02 0.  0.
        -13    1    3    3    0    0  0.18622815593E+02 -0.36325388475E+02 -0.11919512144E+03  0.12599134924E+03  0.00000000000E+00 0.  1.
         14    1    3    3    0    0 -0.54931072815E+02 -0.81322528734E+01 -0.11535492331E+03  0.12802466414E+03  0.00000000000E+00 0. -1.
        -11    1    4    4    0    0  0.36470766828E+02  0.10550477272E+03 -0.12474628602E+03  0.16740074604E+03  0.00000000000E+00 0. -1.
         11    1    4    4    0    0  0.10182496876E+02 -0.18548328724E+02 -0.22268676306E+02  0.30718360723E+02  0.00000000000E+00 0.  1.
          1    1    1    2  501    0 -0.10345006483E+02 -0.42498802653E+02  0.84155453192E+02  0.94843595925E+02  0.00000000000E+00 0. -1.
<scales pt_clust_5="13000.00000" pt_clust_6="13000.00000" pt_clust_7="13000.00000" pt_clust_8="13000.00000" pt_clust_9="43.73977"></scales>
<clustering>
<clus scale="   43.740">  1  9  2 -1</clus>
<clus scale="   78.839">  5  6 -1 -1</clus>
<clus scale="   88.881">  7  8 -1 -1</clus>
<clus scale="  104.430">  2  5  1 -1</clus>
<clus scale="   43.740">  1  5  2 -1</clus>
</clustering>
</event>
<event>
 9    2  0.6175212E-005  0.1459838E+03  0.7546771E-02  0.1214636E+00
          2   -1    0    0  502    0 -0.00000000000E+00  0.00000000000E+00  0.20345644735E+04  0.20345644735E+04  0.00000000000E+00 0. -1.
         21   -1    0    0  501  502  0.00000000000E+00 -0.00000000000E+00 -0.32310229271E+02  0.32310229271E+02  0.00000000000E+00 0. -1.
         24    2    1    2    0    0 -0.84952589209E+02  0.20063324116E+02  0.10413603914E+04  0.10482636937E+04  0.82497439010E+02 0.  0.
         23    2    1    2    0    0 -0.31380203896E+02  0.97737646371E+02  0.21637477236E+03  0.25590592280E+03  0.90180011594E+02 0.  0.
        -11    1    3    3    0    0 -0.42866232450E+02  0.23897749582E+02  0.20335538746E+03  0.20919376169E+03  0.00000000000E+00 0.  1.
         12    1    3    3    0    0 -0.42086356759E+02 -0.38344254657E+01  0.83800500390E+03  0.83906993201E+03  0.00000000000E+00 0. -1.
        -13    1    4    4    0    0  0.76933604643E+01  0.97256853872E+02  0.15473072659E+03  0.18291987637E+03  0.00000000000E+00 0. -1.
         13    1    4    4    0    0 -0.39073564360E+02  0.48079249922E+00  0.61644045776E+02  0.72986046426E+02  0.00000000000E+00 0.  1.
          1    1    1    2  501    0  0.11633279310E+03 -0.11780097049E+03  0.74451908052E+03  0.76270508629E+03  0.00000000000E+00 0. -1.
<scales pt_clust_5="13000.00000" pt_clust_6="13000.00000" pt_clust_7="13000.00000" pt_clust_8="13000.00000" pt_clust_9="114.79922"></scales>
<clustering>
<clus scale="   82.497">  5  6 -1 -1</clus>
<clus scale="   90.180">  7  8 -1 -1</clus>
<clus scale="  120.105">  1  5  2 -1</clus>
<clus scale="  114.799">  2  9  1 -1</clus>
<clus scale="  114.799">  2  5  1 -1</clus>
</clustering>
</event>
<event>
 9    2  0.6175212E-005  0.9755785E+02  0.7546771E-02  0.1287913E+00
         -1   -1    0    0    0  501 -0.00000000000E+00  0.00000000000E+00  0.24409440786E+03  0.24409440786E+03  0.00000000000E+00 0.  1.
         21   -1    0    0  501  502  0.00000000000E+00 -0.00000000000E+00 -0.80978591039E+02  0.80978591039E+02  0.00000000000E+00 0.  1.
         24    2    1    2    0    0  0.49218578801E+02  0.25421407312E+02  0.16063127237E+03  0.18798015351E+03  0.80407810563E+02 0.  0.
         23    2    1    2    0    0 -0.30779958287E+02  0.14558758507E+02  0.99422586863E+01  0.92438462766E+02  0.85361921307E+02 0.  0.
        -11    1    3    3    0    0  0.34076180897E+02 -0.24209790079E+01  0.15105717201E+03  0.15487193568E+03  0.00000000000E+00 0.  1.
         12    1    3    3    0    0  0.15142397904E+02  0.27842386320E+02  0.95741003628E+01  0.33108217832E+02  0.00000000000E+00 0. -1.
        -11    1    4    4    0    0 -0.77905267011E+00 -0.25261224031E+02 -0.21765035395E+02  0.33353457517E+02  0.00000000000E+00 0. -1.
         11    1    4    4    0    0 -0.30000905617E+02  0.39819982539E+02  0.31707294081E+02  0.59085005248E+02  0.00000000000E+00 0.  1.
         -2    1    1    2    0  502 -0.18438620513E+02 -0.39980165820E+02 -0.74577142438E+01  0.44654382620E+02  0.00000000000E+00 0.  1.
<scales pt_clust_5="13000.00000" pt_clust_6="13000.00000" pt_clust_7="13000.00000" pt_clust_8="13000.00000" pt_clust_9="44.02722"></scales>
<clustering>
<clus scale="   44.027">  2  9  1 -1</clus>
<clus scale="   80.408">  5  6 -1 -1</clus>
<clus scale="   85.362">  7  8 -1 -1</clus>
<clus scale="   93.254">  1  5  2 -1</clus>
<clus scale="   44.027">  2  5  1 -1</clus>
</clustering>
</event>
<event>
 9    2  0.6175212E-005  0.9957141E+02  0.7546771E-02  0.1288828E+00
         21   -1    0    0  501  502  0.00000000000E+00  0.00000000000E+00  0.21085388197E+02  0.21085388197E+02  0.00000000000E+00 0.  1.
          2   -1    0    0  502    0 -0.00000000000E+00 -0.00000000000E+00 -0.62809629937E+03  0.62809629937E+03  0.00000000000E+00 0. -1.
         23    2    1    2    0    0 -0.28651023449E+02 -0.14408045549E+01 -0.33582790864E+03  0.34915422786E+03  0.91133602741E+02 0.  0.
         24    2    1    2    0    0  0.54587414365E+02  0.79944524491E+01 -0.24550769581E+03  0.26294824654E+03  0.76315493676E+02 0.  0.
        -13    1    4    4    0    0  0.26106081606E+02 -0.53149952663E+01 -0.15542012836E+02  0.30843651446E+02  0.00000000000E+00 0.  1.
         14    1    4    4    0    0  0.28481332759E+02  0.13309447715E+02 -0.22996568298E+03  0.23210459509E+03  0.00000000000E+00 0. -1.
        -13    1    3    3    0    0 -0.39863552239E+02 -0.39339014686E+02 -0.19392520096E+03  0.20185054976E+03  0.00000000000E+00 0. -1.
         13    1    3    3    0    0  0.11212528791E+02  0.37898210131E+02 -0.14190270768E+03  0.14730367809E+03  0.00000000000E+00 0.  1.
          1    1    1    2  501    0 -0.25936390916E+02 -0.65536478941E+01 -0.25675306727E+02  0.37079213179E+02  0.00000000000E+00 0. -1.
<scales pt_clust_5="13000.00000" pt_clust_6="13000.00000" pt_clust_7="13000.00000" pt_clust_8="13000.00000" pt_clust_9="26.75157"></scales>
<clustering>
<clus scale="   26.752">  1  9  2 -1</clus>
<clus scale="   76.315">  5  6 -1 -1</clus>
<clus scale="   86.216">  1  5  2 -1</clus>
<clus scale="   91.134">  7  8 -1 -1</clus>
<clus scale="   26.752">  1  5  2 -1</clus>
</clustering>
</event>
<event>
 9    2  0.6175212E-005  0.9517983E+02  0.7546771E-02  0.1295903E+00
         21   -1    0    0  501  502  0.00000000000E+00  0.00000000000E+00  0.40107150818E+02  0.40107150818E+02  0.00000000000E+00 0.  1.
          2   -1    0    0  502    0 -0.00000000000E+00 -0.00000000000E+00 -0.37892033976E+03  0.37892033976E+03  0.00000000000E+00 0. -1.
         24    2    1    2    0    0 -0.80585538016E+01  0.33020562571E+02 -0.18258472584E+03  0.20261313171E+03  0.80991364898E+02 0.  0.
         23    2    1    2    0    0 -0.13423164449E+02 -0.26977132395E+02 -0.16657969181E+03  0.19181486288E+03  0.90200891798E+02 0.  0.
        -11    1    3    3    0    0 -0.88828620080E+00  0.52233330669E+02 -0.65675266938E+02  0.83918714078E+02  0.00000000000E+00 0.  1.
         12    1    3    3    0    0 -0.71702676008E+01 -0.19212768098E+02 -0.11690945890E+03  0.11869441763E+03  0.00000000000E+00 0. -1.
        -11    1    4    4    0    0  0.19912413440E+02 -0.48459947903E+02 -0.11796531012E+03  0.12907627648E+03  0.00000000000E+00 0. -1.
         11    1    4    4    0    0 -0.33335577889E+02  0.21482815508E+02 -0.48614381694E+02  0.62738586396E+02  0.00000000000E+00 0.  1.
          1    1    1    2  501    0  0.21481718251E+02 -0.60434301755E+01  0.10351228709E+02  0.24599495993E+02  0.00000000000E+00 0. -1.
<scales pt_clust_5="13000.00000" pt_clust_6="13000.00000" pt_clust_7="13000.00000" pt_clust_8="13000.00000" pt_clust_9="22.31563"></scales>
<clustering>
<clus scale="   22.316">  1  9  2 -1</clus>
<clus scale="   80.991">  5  6 -1 -1</clus>
<clus scale="   86.502">  2  5  1 -1</clus>
<clus scale="   90.201">  7  8 -1 -1</clus>
<clus scale="   22.316">  1  5  2 -1</clus>
</clustering>
</event>
<event>
 9    2  0.6175212E-005  0.2933852E+03  0.7546771E-02  0.1088827E+00
         21   -1    0    0  501  502  0.00000000000E+00  0.00000000000E+00  0.56165388108E+03  0.56165388108E+03  0.00000000000E+00 0. -1.
          2   -1    0    0  502    0 -0.00000000000E+00 -0.00000000000E+00 -0.20789309367E+03  0.20789309367E+03  0.00000000000E+00 0. -1.
         24    2    1    2    0    0 -0.28294304111E+03  0.46754716722E+02  0.10262545974E+03  0.31516366269E+03  0.80952956988E+02 0.  0.
         23    2    1    2    0    0  0.26016077743E+03 -0.72673200769E+02  0.28766614238E+03  0.40413095113E+03  0.87206605074E+02 0.  0.
        -11    1    3    3    0    0 -0.92619598841E+02  0.90888965134E+01 -0.51813982621E+01  0.93208610209E+02  0.00000000000E+00 0.  1.
         12    1    3    3    0    0 -0.19032344227E+03  0.37665820209E+02  0.10780685801E+03  0.22195505249E+03  0.00000000000E+00 0. -1.
        -11    1    4    4    0    0  0.15276682679E+03 -0.75377560508E+02  0.21556489222E+03  0.27475025524E+03  0.00000000000E+00 0. -1.
         11    1    4    4    0    0  0.10739395064E+03  0.27043597386E+01  0.72101250162E+02  0.12938069590E+03  0.00000000000E+00 0.  1.
          1    1    1    2  501    0  0.22782263682E+02  0.25918484047E+02 -0.36530814724E+02  0.50252360921E+02  0.00000000000E+00 0. -1.
<scales pt_clust_5="13000.00000" pt_clust_6="13000.00000" pt_clust_7="13000.00000" pt_clust_8="13000.00000" pt_clust_9="34.50798"></scales>
<clustering>
<clus scale="   34.508">  1  9  2 -1</clus>
<clus scale="   80.953">  5  6 -1 -1</clus>
<clus scale="   87.207">  7  8 -1 -1</clus>
<clus scale="  291.588">  2  5  1 -1</clus>
<clus scale="   34.508">  1  5  2 -1</clus>
</clustering>
</event>
<event>
 9    2  0.6175212E-005  0.1090788E+03  0.7546771E-02  0.1263819E+00
         21   -1    0    0  501  502  0.00000000000E+00  0.00000000000E+00  0.15745425374E+03  0.15745425374E+03  0.00000000000E+00 0.  1.
         -3   -1    0    0    0  501 -0.00000000000E+00 -0.00000000000E+00 -0.20664087485E+03  0.20664087485E+03  0.00000000000E+00 0.  1.
         24    2    1    2    0    0 -0.60677655742E+02  0.61188706195E+02 -0.13650714987E+03  0.18052532254E+03  0.80804420920E+02 0.  0.
         23    2    1    2    0    0  0.19910512539E+02 -0.24024642663E+00  0.37990199622E+02  0.95194718579E+02  0.84984074686E+02 0.  0.
        -11    1    3    3    0    0  0.78367665168E+01  0.38233864924E+02 -0.79225588232E+02  0.88317252941E+02  0.00000000000E+00 0.  1.
         12    1    3    3    0    0 -0.68514422259E+02  0.22954841270E+02 -0.57281561635E+02  0.92208069595E+02  0.00000000000E+00 0. -1.
        -11    1    4    4    0    0  0.19028085645E+02 -0.34664511611E+02 -0.52799030447E+01  0.39894533268E+02  0.00000000000E+00 0. -1.
         11    1    4    4    0    0  0.88242689388E+00  0.34424265184E+02  0.43270102666E+02  0.55300185311E+02  0.00000000000E+00 0.  1.
         -4    1    1    2    0  502  0.40767143203E+02 -0.60948459768E+02  0.49330329138E+02  0.88375087473E+02  0.00000000000E+00 0.  1.
<scales pt_clust_5="13000.00000" pt_clust_6="13000.00000" pt_clust_7="13000.00000" pt_clust_8="13000.00000" pt_clust_9="73.32581"></scales>
<clustering>
<clus scale="   73.326">  1  9  2 -1</clus>
<clus scale="   80.804">  5  6 -1 -1</clus>
<clus scale="   84.984">  7  8 -1 -1</clus>
<clus scale="  105.855">  2  5  1 -1</clus>
<clus scale="   73.326">  1  5  2 -1</clus>
</clustering>
</event>
<event>
 9    2  0.6175212E-005  0.9308854E+02  0.7546771E-02  0.1300773E+00
         21   -1    0    0  501  502  0.00000000000E+00  0.00000000000E+00  0.11414409484E+03  0.11414409484E+03  0.00000000000E+00 0. -1.
         -3   -1    0    0    0  501 -0.00000000000E+00 -0.00000000000E+00 -0.10064784365E+03  0.10064784365E+03  0.00000000000E+00 0.  1.
         24    2    1    2    0    0  0.35665043224E+02 -0.23703433965E+02  0.48203694714E+01  0.90681511491E+02  0.79787545861E+02 0.  0.
         23    2    1    2    0    0 -0.12478466942E+02  0.87137088960E+00  0.15025270680E+02  0.90955711437E+02  0.88829675557E+02 0.  0.
        -11    1    3    3    0    0  0.24225256887E+02 -0.49423727180E+02 -0.14032158728E+02  0.56802018962E+02  0.00000000000E+00 0.  1.
         12    1    3    3    0    0  0.11439786337E+02  0.25720293215E+02  0.18852528200E+02  0.33879492529E+02  0.00000000000E+00 0. -1.
        -11    1    4    4    0    0  0.10835389206E+02 -0.36396710769E+02  0.25528975549E+02  0.45758658270E+02  0.00000000000E+00 0. -1.
         11    1    4    4    0    0 -0.23313856148E+02  0.37268081659E+02 -0.10503704870E+02  0.45197053167E+02  0.00000000000E+00 0.  1.
         -4    1    1    2    0  502 -0.23186576282E+02  0.22832063075E+02 -0.63493889642E+01  0.33154715565E+02  0.00000000000E+00 0.  1.
<scales pt_clust_5="13000.00000" pt_clust_6="13000.00000" pt_clust_7="13000.00000" pt_clust_8="13000.00000" pt_clust_9="32.54107"></scales>
<clustering>
<clus scale="   32.541">  1  9  2 -1</clus>
<clus scale="   79.788">  5  6 -1 -1</clus>
<clus scale="   84.503">  2  5  1 -1</clus>
<clus scale="   88.830">  7  8 -1 -1</clus>
<clus scale="   32.541">  1  5  2 -1</clus>
</clustering>
</event>
<event>
 9    2  0.6175212E-005  0.1052864E+03  0.7546771E-02  0.1274092E+00
         21   -1    0    0  501  502  0.00000000000E+00  0.00000000000E+00  0.78499933951E+02  0.78499933951E+02  0.00000000000E+00 0.  1.
         -1   -1    0    0    0  501 -0.00000000000E+00 -0.00000000000E+00 -0.36782359077E+03  0.36782359077E+03  0.00000000000E+00 0.  1.
         24    2    1    2    0    0 -0.64618004179E+02  0.14123777879E+02 -0.26625070342E+03  0.28564753778E+03  0.79561995990E+02 0.  0.
         23    2    1    2    0    0  0.78911422001E+01 -0.28283031049E+02 -0.35051371317E+02  0.10099429950E+03  0.90050263349E+02 0.  0.
        -11    1    3    3    0    0 -0.71106578601E+02 -0.15751459757E+02 -0.18290522855E+03  0.19687198032E+03  0.00000000000E+00 0.  1.
         12    1    3    3    0    0  0.64885744222E+01  0.29875237636E+02 -0.83345474867E+02  0.88775557462E+02  0.00000000000E+00 0. -1.
        -13    1    4    4    0    0 -0.34138113233E+02  0.11940259541E+02 -0.17837388574E+02  0.40325587462E+02  0.00000000000E+00 0.  1.
         13    1    4    4    0    0  0.42029255433E+02 -0.40223290590E+02 -0.17213982743E+02  0.60668712035E+02  0.00000000000E+00 0. -1.
         -2    1    1    2    0  502  0.56726861979E+02  0.14159253170E+02  0.11978417913E+02  0.59681687443E+02  0.00000000000E+00 0.  1.
<scales pt_clust_5="13000.00000" pt_clust_6="13000.00000" pt_clust_7="13000.00000" pt_clust_8="13000.00000" pt_clust_9="58.46727"></scales>
<clustering>
<clus scale="   58.467">  1  9  2 -1</clus>
<clus scale="   79.562">  5  6 -1 -1</clus>
<clus scale="   90.050">  7  8 -1 -1</clus>
<clus scale="   96.469">  2  5  1 -1</clus>
<clus scale="   58.467">  1  5  2 -1</clus>
</clustering>
</event>
<event>
 9    2  0.6175212E-005  0.1033049E+03  0.7546771E-02  0.1279740E+00
         21   -1    0    0  501  502  0.00000000000E+00  0.00000000000E+00  0.16631427627E+03  0.16631427627E+03  0.00000000000E+00 0. -1.
         -1   -1    0    0    0  501 -0.00000000000E+00 -0.00000000000E+00 -0.15464516647E+03  0.15464516647E+03  0.00000000000E+00 0.  1.
         23    2    1    2    0    0  0.38469962318E+02 -0.25437763857E+02 -0.11202420841E+03  0.15252773531E+03  0.92672913723E+02 0.  0.
         24    2    1    2    0    0 -0.46443046657E+02  0.66609796872E+01  0.89250479108E+02  0.12840113334E+03  0.79497659019E+02 0.  0.
        -13    1    4    4    0    0 -0.45950809161E+02  0.36408994084E+02  0.40382778615E+02  0.71188907292E+02  0.00000000000E+00 0.  1.
         14    1    4    4    0    0 -0.49223749663E+00 -0.29748014396E+02  0.48867700493E+02  0.57212226051E+02  0.00000000000E+00 0. -1.
        -13    1    3    3    0    0  0.54700090342E+02 -0.40613811075E+02 -0.44334361273E+02  0.81284175108E+02  0.00000000000E+00 0.  1.
         13    1    3    3    0    0 -0.16230128024E+02  0.15176047218E+02 -0.67689847133E+02  0.71243560199E+02  0.00000000000E+00 0. -1.
         -2    1    1    2    0  502  0.79730843388E+01  0.18776784170E+02  0.34442839097E+02  0.40030574099E+02  0.00000000000E+00 0.  1.
<scales pt_clust_5="13000.00000" pt_clust_6="13000.00000" pt_clust_7="13000.00000" pt_clust_8="13000.00000" pt_clust_9="20.39945"></scales>
<clustering>
<clus scale="   20.399">  1  9  2 -1</clus>
<clus scale="   79.498">  5  6 -1 -1</clus>
<clus scale="   91.671">  1  5  2 -1</clus>
<clus scale="   92.673">  7  8 -1 -1</clus>
<clus scale="   20.399">  1  5  2 -1</clus>
</clustering>
</event>
<event>
 9    2  0.6175212E-005  0.9567928E+02  0.7546771E-02  0.1296270E+00
         21   -1    0    0  501  502  0.00000000000E+00  0.00000000000E+00  0.69826364086E+02  0.69826364086E+02  0.00000000000E+00 0.  1.
          2   -1    0    0  502    0 -0.00000000000E+00 -0.00000000000E+00 -0.38835897352E+03  0.38835897352E+03  0.00000000000E+00 0. -1.
         23    2    1    2    0    0 -0.81988583514E+01  0.22604521827E+02 -0.33142583246E+03  0.34481656163E+03  0.92071673525E+02 0.  0.
         24    2    1    2    0    0  0.26797989188E+02 -0.33272246888E+02  0.87268011539E+01  0.91526452459E+02  0.80472105751E+02 0.  0.
        -13    1    4    4    0    0  0.38218632576E+02 -0.26547901790E+02 -0.26735945328E+02  0.53668107271E+02  0.00000000000E+00 0.  1.
         14    1    4    4    0    0 -0.11420643389E+02 -0.67243450972E+01  0.35462746481E+02  0.37858345188E+02  0.00000000000E+00 0. -1.
        -11    1    3    3    0    0  0.38055747678E+02 -0.72129835338E+01 -0.10877713372E+03  0.11546744945E+03  0.00000000000E+00 0.  1.
         11    1    3    3    0    0 -0.46254606029E+02  0.29817505361E+02 -0.22264869874E+03  0.22934911217E+03  0.00000000000E+00 0. -1.
          1    1    1    2  501    0 -0.18599130836E+02  0.10667725060E+02  0.41664218660E+01  0.21842323526E+02  0.00000000000E+00 0. -1.
<scales pt_clust_5="13000.00000" pt_clust_6="13000.00000" pt_clust_7="13000.00000" pt_clust_8="13000.00000" pt_clust_9="21.44127"></scales>
<clustering>
<clus scale="   21.441">  1  9  2 -1</clus>
<clus scale="   80.472">  5  6 -1 -1</clus>
<clus scale="   84.576">  1  5  2 -1</clus>
<clus scale="   92.072">  7  8 -1 -1</clus>
<clus scale="   21.441">  1  5  2 -1</clus>
</clustering>
</event>
<event>
 9    2  0.6175212E-005  0.1028940E+03  0.7546771E-02  0.1279851E+00
         21   -1    0    0  501  502  0.00000000000E+00  0.00000000000E+00  0.20638181301E+03  0.20638181301E+03  0.00000000000E+00 0. -1.
         -3   -1    0    0    0  501 -0.00000000000E+00 -0.00000000000E+00 -0.97209726979E+02  0.97209726979E+02  0.00000000000E+00 0.  1.
         24    2    1    2    0    0 -0.32803928739E+02  0.28354928476E+02 -0.14703533045E+02  0.93703350561E+02  0.81755882435E+02 0.  0.
         23    2    1    2    0    0  0.23253006225E+01 -0.57514236008E+02  0.12679883769E+03  0.16760631158E+03  0.93277200187E+02 0.  0.
        -11    1    3    3    0    0 -0.49109597048E+02  0.32657810072E+02 -0.34000610566E+02  0.68075888535E+02  0.00000000000E+00 0.  1.
         12    1    3    3    0    0  0.16305668309E+02 -0.43028815957E+01  0.19297077521E+02  0.25627462026E+02  0.00000000000E+00 0. -1.
        -11    1    4    4    0    0 -0.40743528528E+02 -0.67219999879E+01  0.34607944975E+02  0.53878847947E+02  0.00000000000E+00 0.  1.
         11    1    4    4    0    0  0.43068829150E+02 -0.50792236020E+02  0.92190892714E+02  0.11372746363E+03  0.00000000000E+00 0. -1.
         -4    1    1    2    0  502  0.30478628116E+02  0.29159307532E+02 -0.29232186126E+01  0.42281877852E+02  0.00000000000E+00 0.  1.
<scales pt_clust_5="13000.00000" pt_clust_6="13000.00000" pt_clust_7="13000.00000" pt_clust_8="13000.00000" pt_clust_9="42.18073"></scales>
<clustering>
<clus scale="   42.181">  1  9  2 -1</clus>
<clus scale="   81.756">  5  6 -1 -1</clus>
<clus scale="   92.577">  2  5  1 -1</clus>
<clus scale="   93.277">  7  8 -1 -1</clus>
<clus scale="   42.181">  1  5  2 -1</clus>
</clustering>
</event>
<event>
 9    2  0.6175212E-005  0.9881605E+02  0.7546771E-02  0.1282974E+00
         21   -1    0    0  501  502  0.00000000000E+00  0.00000000000E+00  0.25273600692E+03  0.25273600692E+03  0.00000000000E+00 0. -1.
          2   -1    0    0  502    0 -0.00000000000E+00 -0.00000000000E+00 -0.43241474805E+03  0.43241474805E+03  0.00000000000E+00 0. -1.
         23    2    1    2    0    0 -0.31589244413E+02 -0.15907021603E+02 -0.25347197887E+03  0.26992074690E+03  0.85780253168E+02 0.  0.
         24    2    1    2    0    0  0.87392648301E+02  0.15564760381E+02 -0.14451871686E+03  0.18989859315E+03  0.85417090893E+02 0.  0.
        -13    1    4    4    0    0  0.40125592216E+02 -0.10402939219E+00 -0.34206999766E+01  0.40271269674E+02  0.00000000000E+00 0.  1.
         14    1    4    4    0    0  0.47267056085E+02  0.15668789773E+02 -0.14109801688E+03  0.14962732348E+03  0.00000000000E+00 0. -1.
        -13    1    3    3    0    0 -0.28352623454E+02 -0.50392027659E+02 -0.14730651873E+03  0.15824802738E+03  0.00000000000E+00 0.  1.
         13    1    3    3    0    0 -0.32366209595E+01  0.34485006057E+02 -0.10616546015E+03  0.11167271952E+03  0.00000000000E+00 0. -1.
          1    1    1    2  501    0 -0.55803403888E+02  0.34226122193E+00  0.21831195460E+03  0.22533141492E+03  0.00000000000E+00 0. -1.
<scales pt_clust_5="13000.00000" pt_clust_6="13000.00000" pt_clust_7="13000.00000" pt_clust_8="13000.00000" pt_clust_9="55.80445"></scales>
<clustering>
<clus scale="   55.804">  1  9  2 -1</clus>
<clus scale="   85.417">  5  6 -1 -1</clus>
<clus scale="   85.780">  7  8 -1 -1</clus>
<clus scale="   98.501">  1  5  2 -1</clus>
<clus scale="   55.804">  1  5  2 -1</clus>
</clustering>
</event>
<event>
 9    2  0.6175212E-005  0.9456073E+02  0.7546771E-02  0.1298293E+00
          2   -1    0    0  502    0 -0.00000000000E+00  0.00000000000E+00  0.48227621316E+03  0.48227621316E+03  0.00000000000E+00 0. -1.
         21   -1    0    0  501  502  0.00000000000E+00 -0.00000000000E+00 -0.47021289563E+02  0.47021289563E+02  0.00000000000E+00 0.  1.
         24    2    1    2    0    0 -0.23865801452E+02  0.34912240466E+01  0.38555842508E+03  0.39487895931E+03  0.81806651510E+02 0.  0.
         23    2    1    2    0    0  0.83120247132E+00  0.15955851664E+02  0.45083714368E+02  0.10392167010E+03  0.92259916087E+02 0.  0.
        -13    1    3    3    0    0 -0.10010717554E+01 -0.30432377736E+02  0.65674927215E+02  0.72390108606E+02  0.00000000000E+00 0.  1.
         14    1    3    3    0    0 -0.22864729696E+02  0.33923601782E+02  0.31988349786E+03  0.32248885070E+03  0.00000000000E+00 0. -1.
        -13    1    4    4    0    0  0.25689122271E+02  0.42917905514E+02  0.60829385222E+01  0.50387297584E+02  0.00000000000E+00 0.  1.
         13    1    4    4    0    0 -0.24857919800E+02 -0.26962053851E+02  0.39000775845E+02  0.53534372520E+02  0.00000000000E+00 0. -1.
          1    1    1    2  501    0  0.23034598980E+02 -0.19447075710E+02  0.46127841473E+01  0.30496873306E+02  0.00000000000E+00 0. -1.
<scales pt_clust_5="13000.00000" pt_clust_6="13000.00000" pt_clust_7="13000.00000" pt_clust_8="13000.00000" pt_clust_9="30.14600"></scales>
<clustering>
<clus scale="   30.146">  2  9  1 -1</clus>
<clus scale="   81.807">  5  6 -1 -1</clus>
<clus scale="   84.393">  1  5  2 -1</clus>
<clus scale="   92.260">  7  8 -1 -1</clus>
<clus scale="   30.146">  2  5  1 -1</clus>
</clustering>
</event>
<event>
 9    2  0.6175212E-005  0.9955735E+02  0.7546771E-02  0.1286573E+00
         21   -1    0    0  501  502  0.00000000000E+00  0.00000000000E+00  0.16553950069E+03  0.16553950069E+03  0.00000000000E+00 0. -1.
          4   -1    0    0  502    0 -0.00000000000E+00 -0.00000000000E+00 -0.34722438280E+03  0.34722438280E+03  0.00000000000E+00 0. -1.
         24    2    1    2    0    0  0.10337579117E+02 -0.26089371785E+02 -0.20604789758E+03  0.22325746152E+03  0.81244305429E+02 0.  0.
         23    2    1    2    0    0 -0.31565854539E+02  0.63652396819E+02 -0.10292744804E+03  0.15510224559E+03  0.91731217333E+02 0.  0.
        -13    1    3    3    0    0 -0.21982485316E+02  0.86524965396E+01 -0.13972486002E+03  0.14170791038E+03  0.00000000000E+00 0.  1.
         14    1    3    3    0    0  0.32320064433E+02 -0.34741868325E+02 -0.66323037562E+02  0.81549551140E+02  0.00000000000E+00 0. -1.
        -11    1    4    4    0    0  0.13513682764E+02  0.60921553802E+02 -0.87306446781E+02  0.10731482185E+03  0.00000000000E+00 0. -1.
         11    1    4    4    0    0 -0.45079537303E+02  0.27308430166E+01 -0.15621001255E+02  0.47787423735E+02  0.00000000000E+00 0.  1.
          3    1    1    2  501    0  0.21228275421E+02 -0.37563025034E+02  0.12729046351E+03  0.13440417638E+03  0.00000000000E+00 0. -1.
<scales pt_clust_5="13000.00000" pt_clust_6="13000.00000" pt_clust_7="13000.00000" pt_clust_8="13000.00000" pt_clust_9="43.14650"></scales>
<clustering>
<clus scale="   43.147">  1  9  2 -1</clus>
<clus scale="   81.244">  5  6 -1 -1</clus>
<clus scale="   89.987">  2  5  1 -1</clus>
<clus scale="   91.731">  7  8 -1 -1</clus>
<clus scale="   43.147">  1  5  2 -1</clus>
</clustering>
</event>
<event>
 9    2  0.6175212E-005  0.1038448E+03  0.7546771E-02  0.1277240E+00
         -1   -1    0    0    0  501 -0.00000000000E+00  0.00000000000E+00  0.74322186304E+03  0.74322186304E+03  0.00000000000E+00 0.  1.
         21   -1    0    0  501  502  0.00000000000E+00 -0.00000000000E+00 -0.39589282544E+02  0.39589282544E+02  0.00000000000E+00 0. -1.
         23    2    1    2    0    0 -0.17856756186E+02 -0.60853137091E+02  0.17538730132E+03  0.20764415998E+03  0.91287587741E+02 0.  0.
         24    2    1    2    0    0  0.65453252354E+02 -0.73497181602E+01  0.12161576606E+03  0.16011925720E+03  0.80682311392E+02 0.  0.
        -11    1    4    4    0    0  0.49276596743E+02  0.30372455452E+02  0.94852606334E+02  0.11112014203E+03  0.00000000000E+00 0.  1.
         12    1    4    4    0    0  0.16176655611E+02 -0.37722173613E+02  0.26763159724E+02  0.48999115168E+02  0.00000000000E+00 0. -1.
        -13    1    3    3    0    0  0.12862202790E+02 -0.45450215404E+02  0.25123348679E+02  0.53500850364E+02  0.00000000000E+00 0. -1.
         13    1    3    3    0    0 -0.30718958975E+02 -0.15402921687E+02  0.15026395264E+03  0.15414330962E+03  0.00000000000E+00 0.  1.
         -2    1    1    2    0  502 -0.47596496168E+02  0.68202855251E+02  0.40662951312E+03  0.41504772840E+03  0.00000000000E+00 0.  1.
<scales pt_clust_5="13000.00000" pt_clust_6="13000.00000" pt_clust_7="13000.00000" pt_clust_8="13000.00000" pt_clust_9="83.16888"></scales>
<clustering>
<clus scale="   80.682">  5  6 -1 -1</clus>
<clus scale="   83.169">  2  9  1 -1</clus>
<clus scale="   91.288">  7  8 -1 -1</clus>
<clus scale="   94.657">  2  5  1 -1</clus>
<clus scale="   83.169">  2  5  1 -1</clus>
</clustering>
</event>
<event>
 9    2  0.6175212E-005  0.1044578E+03  0.7546771E-02  0.1279016E+00
         21   -1    0    0  501  502  0.00000000000E+00  0.00000000000E+00  0.68743805469E+02  0.68743805469E+02  0.00000000000E+00 0. -1.
          2   -1    0    0  502    0 -0.00000000000E+00 -0.00000000000E+00 -0.64656088843E+03  0.64656088843E+03  0.00000000000E+00 0. -1.
         24    2    1    2    0    0 -0.20543931643E+02 -0.30972472680E+02 -0.49129791261E+03  0.49937416669E+03  0.81360753622E+02 0.  0.
         23    2    1    2    0    0  0.53951853012E+00  0.50099222677E+02 -0.12655559910E+03  0.16725892629E+03  0.97205995532E+02 0.  0.
        -13    1    3    3    0    0 -0.14422604347E+02  0.27172750441E+02 -0.15318121328E+03  0.15623973241E+03  0.00000000000E+00 0.  1.
         14    1    3    3    0    0 -0.61213272962E+01 -0.58145223121E+02 -0.33811669933E+03  0.34313443428E+03  0.00000000000E+00 0. -1.
        -11    1    4    4    0    0 -0.26557088895E+02 -0.19302736351E+02 -0.54414578329E+02  0.63551718591E+02  0.00000000000E+00 0. -1.
         11    1    4    4    0    0  0.27096607425E+02  0.69401959028E+02 -0.72141020774E+02  0.10370720770E+03  0.00000000000E+00 0.  1.
          1    1    1    2  501    0  0.20004413113E+02 -0.19126749997E+02  0.40036428747E+02  0.48671600922E+02  0.00000000000E+00 0. -1.
<scales pt_clust_5="13000.00000" pt_clust_6="13000.00000" pt_clust_7="13000.00000" pt_clust_8="13000.00000" pt_clust_9="27.67687"></scales>
<clustering>
<clus scale="   27.677">  1  9  2 -1</clus>
<clus scale="   81.361">  5  6 -1 -1</clus>
<clus scale="   89.900">  2  5  1 -1</clus>
<clus scale="   97.206">  7  8 -1 -1</clus>
<clus scale="   27.677">  1  5  2 -1</clus>
</clustering>
</event>
<event>
 9    2  0.6175212E-005  0.9146524E+02  0.7546771E-02  0.1304337E+00
         21   -1    0    0  501  502  0.00000000000E+00  0.00000000000E+00  0.68542442212E+02  0.68542442212E+02  0.00000000000E+00 0. -1.
          2   -1    0    0  502    0 -0.00000000000E+00 -0.00000000000E+00 -0.20697370757E+03  0.20697370757E+03  0.00000000000E+00 0. -1.
         24    2    1    2    0    0 -0.20090202286E+02 -0.41824698367E+01 -0.13773525042E+03  0.16159214179E+03  0.81975068151E+02 0.  0.
         23    2    1    2    0    0 -0.34883584361E+01  0.29691027710E+01 -0.21196060486E+01  0.90271367614E+02  0.90130144043E+02 0.  0.
        -13    1    3    3    0    0  0.53064821826E+01  0.35256884061E+02 -0.76972611831E+02  0.84829178936E+02  0.00000000000E+00 0.  1.
         14    1    3    3    0    0 -0.25396684468E+02 -0.39439353898E+02 -0.60762638587E+02  0.76762962853E+02  0.00000000000E+00 0. -1.
        -13    1    4    4    0    0  0.40783227987E+02 -0.12399583916E+02 -0.68364842711E+01  0.43171273823E+02  0.00000000000E+00 0.  1.
         13    1    4    4    0    0 -0.44271586423E+02  0.15368686687E+02  0.47168782224E+01  0.47100093790E+02  0.00000000000E+00 0. -1.
          1    1    1    2  501    0  0.23578560722E+02  0.12133670658E+01  0.14235911078E+01  0.23652640381E+02  0.00000000000E+00 0. -1.
<scales pt_clust_5="13000.00000" pt_clust_6="13000.00000" pt_clust_7="13000.00000" pt_clust_8="13000.00000" pt_clust_9="23.60976"></scales>
<clustering>
<clus scale="   23.610">  1  9  2 -1</clus>
<clus scale="   81.975">  5  6 -1 -1</clus>
<clus scale="   83.441">  2  5  1 -1</clus>
<clus scale="   90.130">  7  8 -1 -1</clus>
<clus scale="   23.610">  1  5  2 -1</clus>
</clustering>
</event>
<event>
 9    2  0.6175212E-005  0.9129003E+02  0.7546771E-02  0.1305934E+00
         21   -1    0    0  501  502  0.00000000000E+00  0.00000000000E+00  0.14198539210E+03  0.14198539210E+03  0.00000000000E+00 0.  1.
         -1   -1    0    0    0  501 -0.00000000000E+00 -0.00000000000E+00 -0.12704410992E+03  0.12704410992E+03  0.00000000000E+00 0.  1.
         23    2    1    2    0    0  0.40612671345E+01  0.39231628571E+02 -0.63789668187E+02  0.11546387154E+03  0.87790485201E+02 0.  0.
         24    2    1    2    0    0 -0.11741562924E+02  0.92696919421E+01  0.30335257142E+02  0.84619940571E+02  0.77566197713E+02 0.  0.
        -11    1    4    4    0    0 -0.43523613050E+02  0.23856036764E+01  0.28438522612E+02  0.52045610441E+02  0.00000000000E+00 0.  1.
         12    1    4    4    0    0  0.31782050127E+02  0.68840882657E+01  0.18967345303E+01  0.32574330129E+02  0.00000000000E+00 0. -1.
        -13    1    3    3    0    0 -0.15610726820E+02 -0.20030681851E+02 -0.42468058250E+02  0.49481905569E+02  0.00000000000E+00 0. -1.
         13    1    3    3    0    0  0.19671993955E+02  0.59262310422E+02 -0.21321609937E+02  0.65981965968E+02  0.00000000000E+00 0.  1.
         -2    1    1    2    0  502  0.76802957894E+01 -0.48501320513E+02  0.48395693222E+02  0.68945689911E+02  0.00000000000E+00 0.  1.
<scales pt_clust_5="13000.00000" pt_clust_6="13000.00000" pt_clust_7="13000.00000" pt_clust_8="13000.00000" pt_clust_9="49.10565"></scales>
<clustering>
<clus scale="   49.106">  1  9  2 -1</clus>
<clus scale="   77.566">  5  6 -1 -1</clus>
<clus scale="   81.506">  1  5  2 -1</clus>
<clus scale="   87.790">  7  8 -1 -1</clus>
<clus scale="   49.106">  1  5  2 -1</clus>
</clustering>
</event>
<event>
 9    2  0.6175212E-005  0.2466031E+03  0.7546771E-02  0.1116417E+00
          2   -1    0    0  502    0 -0.00000000000E+00  0.00000000000E+00  0.13994124823E+04  0.13994124823E+04  0.00000000000E+00 0. -1.
         21   -1    0    0  501  502  0.00000000000E+00 -0.00000000000E+00 -0.32046234209E+03  0.32046234209E+03  0.00000000000E+00 0.  1.
         24    2    1    2    0    0 -0.40018999510E+02  0.22618063211E+03  0.13338866697E+04  0.13555341110E+04  0.73891000138E+02 0.  0.
         23    2    1    2    0    0  0.58213624832E+02 -0.20876200243E+03 -0.23172899356E+03  0.33009100139E+03  0.91056811774E+02 0.  0.
        -13    1    3    3    0    0 -0.36112794062E+02  0.80799828120E+02  0.35304710855E+03  0.36397116228E+03  0.00000000000E+00 0.  1.
         14    1    3    3    0    0 -0.39062054473E+01  0.14538080399E+03  0.98083956114E+03  0.99156294873E+03  0.00000000000E+00 0. -1.
        -11    1    4    4    0    0  0.27754921910E+02 -0.18982449012E+03 -0.15965593152E+03  0.24958703734E+03  0.00000000000E+00 0.  1.
         11    1    4    4    0    0  0.30458702922E+02 -0.18937512308E+02 -0.72073062039E+02  0.80503964050E+02  0.00000000000E+00 0. -1.
          1    1    1    2  501    0 -0.18194625323E+02 -0.17418629681E+02 -0.23207535890E+02  0.34249712009E+02  0.00000000000E+00 0. -1.
<scales pt_clust_5="13000.00000" pt_clust_6="13000.00000" pt_clust_7="13000.00000" pt_clust_8="13000.00000" pt_clust_9="25.18835"></scales>
<clustering>
<clus scale="   25.188">  2  9  1 -1</clus>
<clus scale="   73.891">  5  6 -1 -1</clus>
<clus scale="   91.057">  7  8 -1 -1</clus>
<clus scale="  240.794">  1  5  2 -1</clus>
<clus scale="   25.188">  2  5  1 -1</clus>
</clustering>
</event>
<event>
 9    2  0.6175212E-005  0.1324390E+03  0.7546771E-02  0.1229824E+00
         21   -1    0    0  501  502  0.00000000000E+00  0.00000000000E+00  0.49912574324E+03  0.49912574324E+03  0.00000000000E+00 0.  1.
          2   -1    0    0  502    0 -0.00000000000E+00 -0.00000000000E+00 -0.81460613377E+02  0.81460613377E+02  0.00000000000E+00 0. -1.
         23    2    1    2    0    0 -0.72935549548E+02  0.62059022481E+01  0.36746009975E+02  0.12270113492E+03  0.91362966523E+02 0.  0.
         24    2    1    2    0    0  0.17498329628E+02  0.97822013908E+02  0.13626051966E+03  0.18631032713E+03  0.79178727145E+02 0.  0.
        -11    1    4    4    0    0  0.26233441502E+02  0.10858875539E+03  0.12904043238E+03  0.17067848265E+03  0.00000000000E+00 0.  1.
         12    1    4    4    0    0 -0.87351118734E+01 -0.10766741481E+02  0.72200872779E+01  0.15631844481E+02  0.00000000000E+00 0. -1.
        -11    1    3    3    0    0  0.92258229487E+00 -0.28283637533E+02  0.29479336301E+02  0.40863756300E+02  0.00000000000E+00 0.  1.
         11    1    3    3    0    0 -0.73858131843E+02  0.34489539781E+02  0.72666736738E+01  0.81837378623E+02  0.00000000000E+00 0. -1.
          1    1    1    2  501    0  0.55437219920E+02 -0.10402791616E+03  0.24465860023E+03  0.27157489457E+03  0.00000000000E+00 0. -1.
<scales pt_clust_5="13000.00000" pt_clust_6="13000.00000" pt_clust_7="13000.00000" pt_clust_8="13000.00000" pt_clust_9="106.16405"></scales>
<clustering>
<clus scale="   79.179">  5  6 -1 -1</clus>
<clus scale="   91.363">  7  8 -1 -1</clus>
<clus scale="  117.070">  2  7  1 -1</clus>
<clus scale="  106.164">  1  9  2 -1</clus>
<clus scale="  106.164">  1  5  2 -1</clus>
</clustering>
</event>
<event>
 9    2  0.6175212E-005  0.1057453E+03  0.7546771E-02  0.1273845E+00
         21   -1    0    0  501  502  0.00000000000E+00  0.00000000000E+00  0.52007423608E+02  0.52007423608E+02  0.00000000000E+00 0. -1.
          2   -1    0    0  502    0 -0.00000000000E+00 -0.00000000000E+00 -0.32166410060E+03  0.32166410060E+03  0.00000000000E+00 0. -1.
         23    2    1    2    0    0 -0.42040171720E+02  0.36915901783E+01 -0.93502006647E+02  0.13798236414E+03  0.92279486828E+02 0.  0.
         24    2    1    2    0    0  0.61178930822E+02  0.25831794858E+02 -0.74850863030E+02  0.12844931794E+03  0.80538390726E+02 0.  0.
        -13    1    4    4    0    0  0.89309758099E+00 -0.25302519035E+02 -0.19161668128E+02  0.31751923064E+02  0.00000000000E+00 0.  1.
         14    1    4    4    0    0  0.60285833241E+02  0.51134313893E+02 -0.55689194902E+02  0.96697394876E+02  0.00000000000E+00 0. -1.
        -11    1    3    3    0    0  0.12282848604E+02 -0.19740608625E+02 -0.70960314940E+02  0.74672125289E+02  0.00000000000E+00 0.  1.
         11    1    3    3    0    0 -0.54323020324E+02  0.23432198803E+02 -0.22541691707E+02  0.63310238847E+02  0.00000000000E+00 0. -1.
          1    1    1    2  501    0 -0.19138759102E+02 -0.29523385036E+02 -0.10130380732E+03  0.10723984213E+03  0.00000000000E+00 0. -1.
<scales pt_clust_5="13000.00000" pt_clust_6="13000.00000" pt_clust_7="13000.00000" pt_clust_8="13000.00000" pt_clust_9="35.18414"></scales>
<clustering>
<clus scale="   35.184">  1  9  2 -1</clus>
<clus scale="   80.538">  5  6 -1 -1</clus>
<clus scale="   92.279">  7  8 -1 -1</clus>
<clus scale="   95.671">  1  5  2 -1</clus>
<clus scale="   35.184">  1  5  2 -1</clus>
</clustering>
</event>
<event>
 9    2  0.6175212E-005  0.9339954E+02  0.7546771E-02  0.1301630E+00
          2   -1    0    0  502    0 -0.00000000000E+00  0.00000000000E+00  0.39849669769E+03  0.39849669769E+03  0.00000000000E+00 0. -1.
         21   -1    0    0  501  502  0.00000000000E+00 -0.00000000000E+00 -0.40339067032E+02  0.40339067032E+02  0.00000000000E+00 0.  1.
         24    2    1    2    0    0 -0.25983408461E+02 -0.41001943537E+01  0.14574323065E+03  0.16885162393E+03  0.81103837846E+02 0.  0.
         23    2    1    2    0    0 -0.18121852307E+02 -0.35052205776E+02  0.93184496388E+02  0.13696551661E+03  0.92299207536E+02 0.  0.
        -13    1    3    3    0    0 -0.35893031737E+02 -0.11511939634E+02  0.15083255257E+03  0.15547119796E+03  0.00000000000E+00 0.  1.
         14    1    3    3    0    0  0.99096232754E+01  0.74117452805E+01 -0.50893219139E+01  0.13380425969E+02  0.00000000000E+00 0. -1.
        -11    1    4    4    0    0 -0.41377426344E+02 -0.46999854898E+02  0.31768852041E+02  0.70216363700E+02  0.00000000000E+00 0.  1.
         11    1    4    4    0    0  0.23255574037E+02  0.11947649122E+02  0.61415644346E+02  0.66749152907E+02  0.00000000000E+00 0. -1.
          1    1    1    2  501    0  0.44105260768E+02  0.39152400130E+02  0.11922990362E+03  0.13301862419E+03  0.00000000000E+00 0. -1.
<scales pt_clust_5="13000.00000" pt_clust_6="13000.00000" pt_clust_7="13000.00000" pt_clust_8="13000.00000" pt_clust_9="58.97616"></scales>
<clustering>
<clus scale="   58.976">  2  9  1 -1</clus>
<clus scale="   81.104">  5  6 -1 -1</clus>
<clus scale="   82.354">  1  5  2 -1</clus>
<clus scale="   92.299">  7  8 -1 -1</clus>
<clus scale="   58.976">  2  5  1 -1</clus>
</clustering>
</event>
<event>
 9    2  0.6175212E-005  0.3378357E+03  0.7546771E-02  0.1067722E+00
          2   -1    0    0  502    0 -0.00000000000E+00  0.00000000000E+00  0.10213403351E+04  0.10213403351E+04  0.00000000000E+00 0. -1.
         21   -1    0    0  501  502  0.00000000000E+00 -0.00000000000E+00 -0.13486639714E+03  0.13486639714E+03  0.00000000000E+00 0.  1.
         24    2    1    2    0    0 -0.72427440462E+02 -0.10873384316E+03  0.38227230737E+03  0.41203022769E+03  0.81043252449E+02 0.  0.
         23    2    1    2    0    0 -0.14101297884E+03 -0.64865223282E+02  0.41676654274E+03  0.45549269301E+03  0.98422989412E+02 0.  0.
        -11    1    3    3    0    0 -0.32935199913E+02 -0.10873708286E+03  0.26652141924E+03  0.28972771269E+03  0.00000000000E+00 0.  1.
         12    1    3    3    0    0 -0.39492240549E+02  0.32397023384E-02  0.11575088813E+03  0.12230251501E+03  0.00000000000E+00 0. -1.
        -11    1    4    4    0    0 -0.26494832583E+02  0.21372451283E+02  0.40882225918E+02  0.53198817876E+02  0.00000000000E+00 0.  1.
         11    1    4    4    0    0 -0.11451814626E+03 -0.86237674565E+02  0.37588431683E+03  0.40229387514E+03  0.00000000000E+00 0. -1.
          1    1    1    2  501    0  0.21344041930E+03  0.17359906644E+03  0.87435087863E+02  0.28868381155E+03  0.00000000000E+00 0. -1.
<scales pt_clust_5="13000.00000" pt_clust_6="13000.00000" pt_clust_7="13000.00000" pt_clust_8="13000.00000" pt_clust_9="275.12442"></scales>
<clustering>
<clus scale="   81.043">  5  6 -1 -1</clus>
<clus scale="   98.423">  7  8 -1 -1</clus>
<clus scale="  122.070">  5  7 -1 -1</clus>
<clus scale="  275.124">  2  9  1 -1</clus>
<clus scale="  275.124">  2  5  1 -1</clus>
</clustering>
</event>
<event>
 9    2  0.6175212E-005  0.9861579E+02  0.7546771E-02  0.1287776E+00
          2   -1    0    0  502    0 -0.00000000000E+00  0.00000000000E+00  0.54675887290E+03  0.54675887290E+03  0.00000000000E+00 0. -1.
         21   -1    0    0  501  502  0.00000000000E+00 -0.00000000000E+00 -0.21610185216E+03  0.21610185216E+03  0.00000000000E+00 0.  1.
         24    2    1    2    0    0  0.38658668124E+02  0.77353802463E+01  0.51142597054E+03  0.51934032349E+03  0.81262042374E+02 0.  0.
         23    2    1    2    0    0 -0.52536986033E+02  0.81724136120E+01 -0.59495466871E+02  0.12042319091E+03  0.90194850657E+02 0.  0.
        -13    1    3    3    0    0  0.37778048348E+02  0.25005015100E+02  0.13270890525E+03  0.14022868911E+03  0.00000000000E+00 0.  1.
         14    1    3    3    0    0  0.88061977562E+00 -0.17269634854E+02  0.37871706529E+03  0.37911163438E+03  0.00000000000E+00 0. -1.
        -13    1    4    4    0    0 -0.27010479719E+02 -0.38370510798E+02 -0.45868878961E+02  0.65618718142E+02  0.00000000000E+00 0.  1.
         13    1    4    4    0    0 -0.25526506314E+02  0.46542924410E+02 -0.13626587910E+02  0.54804472767E+02  0.00000000000E+00 0. -1.
          1    1    1    2  501    0  0.13878317910E+02 -0.15907793858E+02 -0.12127348292E+03  0.12309721066E+03  0.00000000000E+00 0. -1.
<scales pt_clust_5="13000.00000" pt_clust_6="13000.00000" pt_clust_7="13000.00000" pt_clust_8="13000.00000" pt_clust_9="21.11079"></scales>
<clustering>
<clus scale="   21.111">  2  9  1 -1</clus>
<clus scale="   81.262">  5  6 -1 -1</clus>
<clus scale="   90.195">  7  8 -1 -1</clus>
<clus scale="   90.518">  1  5  2 -1</clus>
<clus scale="   21.111">  2  5  1 -1</clus>
</clustering>
</event>
<event>
 9    2  0.6175212E-005  0.2220083E+03  0.7546771E-02  0.1133119E+00
         21   -1    0    0  501  502  0.00000000000E+00  0.00000000000E+00  0.14677322223E+03  0.14677322223E+03  0.00000000000E+00 0. -1.
          2   -1    0    0  502    0 -0.00000000000E+00 -0.00000000000E+00 -0.21548279843E+04  0.21548279843E+04  0.00000000000E+00 0. -1.
         24    2    1    2    0    0  0.13012539650E+03 -0.14780762954E+03 -0.13559460391E+04  0.13726160640E+04  0.81887021052E+02 0.  0.
         23    2    1    2    0    0 -0.24989913155E+03  0.15876230143E+03 -0.48769220595E+02  0.31377435943E+03  0.91765284575E+02 0.  0.
        -13    1    3    3    0    0  0.13093678220E+03 -0.10231568010E+03 -0.98946794509E+03  0.10033243512E+04  0.00000000000E+00 0.  1.
         14    1    3    3    0    0 -0.81138570382E+00 -0.45491949441E+02 -0.36647809397E+03  0.36929171283E+03  0.00000000000E+00 0. -1.
        -13    1    4    4    0    0  0.35343746066E+01  0.20977100439E+02 -0.63832772447E+01  0.22209835097E+02  0.00000000000E+00 0.  1.
         13    1    4    4    0    0 -0.25343350616E+03  0.13778520099E+03 -0.42385943350E+02  0.29156452433E+03  0.00000000000E+00 0. -1.
          1    1    1    2  501    0  0.11977373505E+03 -0.10954671884E+02 -0.60333950238E+03  0.61521078304E+03  0.00000000000E+00 0. -1.
<scales pt_clust_5="13000.00000" pt_clust_6="13000.00000" pt_clust_7="13000.00000" pt_clust_8="13000.00000" pt_clust_9="120.27372"></scales>
<clustering>
<clus scale="   81.887">  5  6 -1 -1</clus>
<clus scale="   91.765">  7  8 -1 -1</clus>
<clus scale="  120.274">  1  9  2 -1</clus>
<clus scale="  218.111">  2  5  1 -1</clus>
<clus scale="  120.274">  1  5  2 -1</clus>
</clustering>
</event>
<event>
 9    2  0.6175212E-005  0.9522519E+02  0.7546771E-02  0.1296580E+00
          2   -1    0    0  502    0 -0.00000000000E+00  0.00000000000E+00  0.47781828983E+03  0.47781828983E+03  0.00000000000E+00 0. -1.
         21   -1    0    0  501  502  0.00000000000E+00 -0.00000000000E+00 -0.57184683476E+02  0.57184683476E+02  0.00000000000E+00 0. -1.
         24    2    1    2    0    0  0.33403996879E+02  0.37846058907E+02  0.27418189739E+03  0.28998357808E+03  0.79791049108E+02 0.  0.
         23    2    1    2    0    0  0.75074067523E+01 -0.62307531805E+01  0.16641294811E+03  0.18959628117E+03  0.90323292089E+02 0.  0.
        -11    1    3    3    0    0  0.96198849234E+01  0.59988232618E+02  0.19930611725E+03  0.20836040557E+03  0.00000000000E+00 0.  1.
         12    1    3    3    0    0  0.23784111956E+02 -0.22142173711E+02  0.74875780147E+02  0.81623172511E+02  0.00000000000E+00 0. -1.
        -11    1    4    4    0    0 -0.14414731063E+02 -0.23336043757E+02  0.77327673611E+01  0.28498264875E+02  0.00000000000E+00 0.  1.
         11    1    4    4    0    0  0.21922137815E+02  0.17105290576E+02  0.15868018074E+03  0.16109801629E+03  0.00000000000E+00 0. -1.
          1    1    1    2  501    0 -0.40911403631E+02 -0.31615305727E+02 -0.19961239145E+02  0.55423114055E+02  0.00000000000E+00 0. -1.
<scales pt_clust_5="13000.00000" pt_clust_6="13000.00000" pt_clust_7="13000.00000" pt_clust_8="13000.00000" pt_clust_9="51.70368"></scales>
<clustering>
<clus scale="   51.704">  2  9  1 -1</clus>
<clus scale="   79.791">  5  6 -1 -1</clus>
<clus scale="   85.300">  1  5  2 -1</clus>
<clus scale="   90.323">  7  8 -1 -1</clus>
<clus scale="   51.704">  2  5  1 -1</clus>
</clustering>
</event>
<event>
 9    2  0.6175212E-005  0.1855448E+03  0.7546771E-02  0.1186860E+00
         21   -1    0    0  501  502  0.00000000000E+00  0.00000000000E+00  0.91012026471E+03  0.91012026471E+03  0.00000000000E+00 0.  1.
         -3   -1    0    0    0  501 -0.00000000000E+00 -0.00000000000E+00 -0.60506407047E+02  0.60506407047E+02  0.00000000000E+00 0.  1.
         24    2    1    2    0    0 -0.62877390622E+02 -0.12392899282E+02  0.14351079025E+03  0.17892688844E+03  0.85512187930E+02 0.  0.
         23    2    1    2    0    0  0.19923809894E+03  0.25405321753E+02  0.43047735767E+03  0.48391236027E+03  0.92299331089E+02 0.  0.
        -11    1    3    3    0    0 -0.20359408864E+02  0.31591728282E+02  0.90444491642E+02  0.97942579573E+02  0.00000000000E+00 0.  1.
         12    1    3    3    0    0 -0.42517981757E+02 -0.43984627564E+02  0.53066298611E+02  0.80984308869E+02  0.00000000000E+00 0. -1.
        -11    1    4    4    0    0  0.18807365077E+03  0.64754353079E+01  0.41854569746E+03  0.45890536087E+03  0.00000000000E+00 0.  1.
         11    1    4    4    0    0  0.11164448170E+02  0.18929886445E+02  0.11931660210E+02  0.25006999403E+02  0.00000000000E+00 0. -1.
         -4    1    1    2    0  502 -0.13636070832E+03 -0.13012422471E+02  0.27562570974E+03  0.30778742304E+03  0.00000000000E+00 0.  1.
<scales pt_clust_5="13000.00000" pt_clust_6="13000.00000" pt_clust_7="13000.00000" pt_clust_8="13000.00000" pt_clust_9="160.95869"></scales>
<clustering>
<clus scale="   85.512">  5  6 -1 -1</clus>
<clus scale="   92.299">  7  8 -1 -1</clus>
<clus scale="  106.862">  2  5  1 -1</clus>
<clus scale="  160.959">  1  9  2 -1</clus>
<clus scale="  160.959">  1  5  2 -1</clus>
</clustering>
</event>
<event>
 9    2  0.6175212E-005  0.1644006E+03  0.7546771E-02  0.1213533E+00
         21   -1    0    0  501  502  0.00000000000E+00  0.00000000000E+00  0.68502665820E+02  0.68502665820E+02  0.00000000000E+00 0. -1.
          2   -1    0    0  502    0 -0.00000000000E+00 -0.00000000000E+00 -0.62612681341E+03  0.62612681341E+03  0.00000000000E+00 0. -1.
         24    2    1    2    0    0  0.28996919599E+01 -0.28492775139E+02 -0.44331827146E+02  0.96828325251E+02  0.81179844938E+02 0.  0.
         23    2    1    2    0    0  0.41169042096E+02 -0.11699342204E+03 -0.23730246373E+03  0.28271594662E+03  0.90738615540E+02 0.  0.
        -11    1    3    3    0    0  0.33341797272E+02  0.67505549405E+01 -0.23018609727E+01  0.34096099502E+02  0.00000000000E+00 0.  1.
         12    1    3    3    0    0 -0.30442105312E+02 -0.35243330079E+02 -0.42029966173E+02  0.62732225749E+02  0.00000000000E+00 0. -1.
        -11    1    4    4    0    0  0.60596192955E+02 -0.38544358089E+02 -0.12813343335E+03  0.14688683699E+03  0.00000000000E+00 0. -1.
         11    1    4    4    0    0 -0.19427150859E+02 -0.78449063952E+02 -0.10916903039E+03  0.13582910962E+03  0.00000000000E+00 0.  1.
          1    1    1    2  501    0 -0.44068734056E+02  0.14548619718E+03 -0.27598985671E+03  0.31508520736E+03  0.00000000000E+00 0. -1.
<scales pt_clust_5="13000.00000" pt_clust_6="13000.00000" pt_clust_7="13000.00000" pt_clust_8="13000.00000" pt_clust_9="137.09147"></scales>
<clustering>
<clus scale="   81.180">  5  6 -1 -1</clus>
<clus scale="   86.084">  2  5  1 -1</clus>
<clus scale="   90.739">  7  8 -1 -1</clus>
<clus scale="  137.091">  1  9  2 -1</clus>
<clus scale="  137.091">  1  5  2 -1</clus>
</clustering>
</event>
<event>
 9    2  0.6175212E-005  0.1331791E+03  0.7546771E-02  0.1225151E+00
          2   -1    0    0  502    0 -0.00000000000E+00  0.00000000000E+00  0.47727495618E+03  0.47727495618E+03  0.00000000000E+00 0. -1.
         21   -1    0    0  501  502  0.00000000000E+00 -0.00000000000E+00 -0.49814430345E+02  0.49814430345E+02  0.00000000000E+00 0.  1.
         24    2    1    2    0    0  0.99893854634E+02 -0.15848669766E+02  0.30512519403E+03  0.33117268230E+03  0.79649224389E+02 0.  0.
         23    2    1    2    0    0 -0.88612373319E+02  0.33174511425E+02  0.11582494682E+03  0.17424087153E+03  0.89396655944E+02 0.  0.
        -11    1    3    3    0    0  0.95782819746E+02  0.87057878476E+01  0.18513301347E+03  0.20862495531E+03  0.00000000000E+00 0.  1.
         12    1    3    3    0    0  0.41110348876E+01 -0.24554457613E+02  0.11999218056E+03  0.12254772699E+03  0.00000000000E+00 0. -1.
        -13    1    4    4    0    0 -0.16681291026E+02  0.48559259859E+02  0.24255228571E+02  0.56785414512E+02  0.00000000000E+00 0.  1.
         13    1    4    4    0    0 -0.71931082294E+02 -0.15384748433E+02  0.91569718247E+02  0.11745545702E+03  0.00000000000E+00 0. -1.
          1    1    1    2  501    0 -0.11281481315E+02 -0.17325841660E+02  0.65103849834E+01  0.21675832683E+02  0.00000000000E+00 0. -1.
<scales pt_clust_5="13000.00000" pt_clust_6="13000.00000" pt_clust_7="13000.00000" pt_clust_8="13000.00000" pt_clust_9="20.67502"></scales>
<clustering>
<clus scale="   20.675">  2  9  1 -1</clus>
<clus scale="   79.649">  5  6 -1 -1</clus>
<clus scale="   89.397">  7  8 -1 -1</clus>
<clus scale="  126.842">  1  5  2 -1</clus>
<clus scale="   20.675">  2  5  1 -1</clus>
</clustering>
</event>
<event>
 9    2  0.6175212E-005  0.9701276E+02  0.7546771E-02  0.1292986E+00
         21   -1    0    0  501  502  0.00000000000E+00  0.00000000000E+00  0.10038782670E+03  0.10038782670E+03  0.00000000000E+00 0. -1.
          2   -1    0    0  502    0 -0.00000000000E+00 -0.00000000000E+00 -0.14313109388E+03  0.14313109388E+03  0.00000000000E+00 0. -1.
         23    2    1    2    0    0  0.32883089061E+02 -0.36019969473E+00 -0.80133494936E+02  0.12613231176E+03  0.91687271574E+02 0.  0.
         24    2    1    2    0    0 -0.26720635933E+02  0.20694229480E+02  0.18557831270E+02  0.88994572022E+02  0.80208461084E+02 0.  0.
        -11    1    4    4    0    0  0.18401752066E+02  0.10312799936E+02 -0.19752616938E+02  0.28898861526E+02  0.00000000000E+00 0.  1.
         12    1    4    4    0    0 -0.45122387999E+02  0.10381429544E+02  0.38310448207E+02  0.60095710496E+02  0.00000000000E+00 0. -1.
        -11    1    3    3    0    0  0.19739552644E+02 -0.45921126812E+02 -0.41648419391E+02  0.65061437611E+02  0.00000000000E+00 0.  1.
         11    1    3    3    0    0  0.13143536417E+02  0.45560927117E+02 -0.38485075545E+02  0.61070874146E+02  0.00000000000E+00 0. -1.
          1    1    1    2  501    0 -0.61624531279E+01 -0.20334029786E+02  0.18832396485E+02  0.28392036793E+02  0.00000000000E+00 0. -1.
<scales pt_clust_5="13000.00000" pt_clust_6="13000.00000" pt_clust_7="13000.00000" pt_clust_8="13000.00000" pt_clust_9="21.24732"></scales>
<clustering>
<clus scale="   21.247">  1  9  2 -1</clus>
<clus scale="   80.208">  5  6 -1 -1</clus>
<clus scale="   86.246">  1  5  2 -1</clus>
<clus scale="   91.687">  7  8 -1 -1</clus>
<clus scale="   21.247">  1  5  2 -1</clus>
</clustering>
</event>
<event>
 9    2  0.7023427E-005  0.9086377E+02  0.7546771E-02  0.1303785E+00
         21   -1    0    0  501  502  0.00000000000E+00  0.00000000000E+00  0.11489776534E+03  0.11489776534E+03  0.00000000000E+00 0.  1.
          2   -1    0    0  502    0 -0.00000000000E+00 -0.00000000000E+00 -0.87364898692E+03  0.87364898692E+03  0.00000000000E+00 0. -1.
         24    2    1    2    0    0  0.41720089861E+02 -0.14750192822E+02 -0.78856708380E+03  0.79410374319E+03  0.82489849084E+02 0.  0.
         23    2    1    2    0    0  0.71208206900E+01  0.19019757194E+01 -0.55528565616E+02  0.95275561840E+02  0.77069368011E+02 0.  0.
        -13    1    3    3    0    0 -0.15316069737E+02  0.13856551010E+02 -0.78368146287E+02  0.81044138286E+02  0.00000000000E+00 0.  1.
         14    1    3    3    0    0  0.57036159597E+02 -0.28606743832E+02 -0.71019893752E+03  0.71305960490E+03  0.00000000000E+00 0. -1.
        -11    1    4    4    0    0  0.34198765972E+02 -0.83428080808E+00 -0.87451596257E+00  0.34220116841E+02  0.00000000000E+00 0.  1.
         11    1    4    4    0    0 -0.27077945282E+02  0.27362565275E+01 -0.54654049653E+02  0.61055444998E+02  0.00000000000E+00 0. -1.
          1    1    1    2  501    0 -0.48840910551E+02  0.12848217103E+02  0.85344427843E+02  0.99167447229E+02  0.00000000000E+00 0. -1.
<scales pt_clust_5="13000.00000" pt_clust_6="13000.00000" pt_clust_7="13000.00000" pt_clust_8="13000.00000" pt_clust_9="50.50259"></scales>
<clustering>
<clus scale="   50.503">  1  9  2 -1</clus>
<clus scale="   77.069">  7  8 -1 -1</clus>
<clus scale="   82.490">  5  6 -1 -1</clus>
<clus scale="   85.973">  1  7  2 -1</clus>
<clus scale="   50.503">  1  5  2 -1</clus>
</clustering>
</event>
<event>
 9    2  0.6175212E-005  0.9564701E+02  0.7546771E-02  0.1293508E+00
          2   -1    0    0  502    0 -0.00000000000E+00  0.00000000000E+00  0.13718405962E+03  0.13718405962E+03  0.00000000000E+00 0. -1.
         21   -1    0    0  501  502  0.00000000000E+00 -0.00000000000E+00 -0.36804833050E+03  0.36804833050E+03  0.00000000000E+00 0.  1.
         24    2    1    2    0    0 -0.69389442187E+01  0.38807979200E+02  0.10054481679E+03  0.13597750584E+03  0.82622113950E+02 0.  0.
         23    2    1    2    0    0 -0.19970534203E+02  0.13746496642E+02 -0.13266055802E+03  0.16192164768E+03  0.89621470243E+02 0.  0.
        -11    1    3    3    0    0 -0.35863448513E+02 -0.31651308250E+01  0.63385677766E+02  0.72896839014E+02  0.00000000000E+00 0.  1.
         12    1    3    3    0    0  0.28924504294E+02  0.41973110025E+02  0.37159139028E+02  0.63080666825E+02  0.00000000000E+00 0. -1.
        -13    1    4    4    0    0 -0.55648887446E+02  0.46604424642E+01 -0.84856603728E+02  0.10158327419E+03  0.00000000000E+00 0.  1.
         13    1    4    4    0    0  0.35678353243E+02  0.90860541780E+01 -0.47803954292E+02  0.60338373500E+02  0.00000000000E+00 0. -1.
          1    1    1    2  501    0  0.26909478421E+02 -0.52554475842E+02 -0.19874852966E+03  0.20733323660E+03  0.00000000000E+00 0. -1.
<scales pt_clust_5="13000.00000" pt_clust_6="13000.00000" pt_clust_7="13000.00000" pt_clust_8="13000.00000" pt_clust_9="59.04314"></scales>
<clustering>
<clus scale="   59.043">  2  9  1 -1</clus>
<clus scale="   82.622">  5  6 -1 -1</clus>
<clus scale="   89.122">  1  5  2 -1</clus>
<clus scale="   89.621">  7  8 -1 -1</clus>
<clus scale="   59.043">  2  5  1 -1</clus>
</clustering>
</event>
<event>
 9    2  0.6175212E-005  0.9240795E+02  0.7546771E-02  0.1303962E+00
         21   -1    0    0  501  502  0.00000000000E+00  0.00000000000E+00  0.10537595184E+03  0.10537595184E+03  0.00000000000E+00 0. -1.
          2   -1    0    0  502    0 -0.00000000000E+00 -0.00000000000E+00 -0.20985395770E+03  0.20985395770E+03  0.00000000000E+00 0. -1.
         23    2    1    2    0    0 -0.47116744368E+02 -0.66687728797E+01 -0.73790709582E+02  0.12652980026E+03  0.91105770402E+02 0.  0.
         24    2    1    2    0    0 -0.23333231808E+02 -0.28354435248E+02 -0.58012137475E+02  0.10541462918E+03  0.79990138428E+02 0.  0.
        -13    1    4    4    0    0 -0.93415012425E+01  0.25670464603E+02 -0.37454138226E+01  0.27572894717E+02  0.00000000000E+00 0.  1.
         14    1    4    4    0    0 -0.13991730565E+02 -0.54024899850E+02 -0.54266723652E+02  0.77841734462E+02  0.00000000000E+00 0. -1.
        -11    1    3    3    0    0 -0.56301938873E+02  0.12771501254E+02 -0.84633739551E+02  0.10244944820E+03  0.00000000000E+00 0. -1.
         11    1    3    3    0    0  0.91851945046E+01 -0.19440274133E+02  0.10843029969E+02  0.24080352061E+02  0.00000000000E+00 0.  1.
          1    1    1    2  501    0  0.70449976176E+02  0.35023208127E+02  0.27324841196E+02  0.83285480110E+02  0.00000000000E+00 0. -1.
<scales pt_clust_5="13000.00000" pt_clust_6="13000.00000" pt_clust_7="13000.00000" pt_clust_8="13000.00000" pt_clust_9="78.67544"></scales>
<clustering>
<clus scale="   78.675">  1  9  2 -1</clus>
<clus scale="   79.990">  5  6 -1 -1</clus>
<clus scale="   81.470">  1  5  2 -1</clus>
<clus scale="   91.106">  7  8 -1 -1</clus>
<clus scale="   78.675">  1  5  2 -1</clus>
</clustering>
</event>
<event>
 9    2  0.6175212E-005  0.1633255E+03  0.7546771E-02  0.1187146E+00
         21   -1    0    0  501  502  0.00000000000E+00  0.00000000000E+00  0.81033659168E+02  0.81033659168E+02  0.00000000000E+00 0.  1.
          2   -1    0    0  502    0 -0.00000000000E+00 -0.00000000000E+00 -0.64107130411E+03  0.64107130411E+03  0.00000000000E+00 0. -1.
         24    2    1    2    0    0  0.10356085742E+03 -0.61941859198E+02 -0.32014236141E+03  0.35163814585E+03  0.81219510825E+02 0.  0.
         23    2    1    2    0    0 -0.12954093599E+03  0.83497672779E+02 -0.27009400767E+03  0.32517244116E+03  0.95045399971E+02 0.  0.
        -11    1    3    3    0    0  0.42073123772E+02 -0.71030655262E+02 -0.16478709251E+03  0.18431030245E+03  0.00000000000E+00 0.  1.
         12    1    3    3    0    0  0.61487733646E+02  0.90887960643E+01 -0.15535526890E+03  0.16732784340E+03  0.00000000000E+00 0. -1.
        -13    1    4    4    0    0 -0.10571147944E+03  0.52294908209E+02 -0.25866124564E+03  0.28428034457E+03  0.00000000000E+00 0. -1.
         13    1    4    4    0    0 -0.23829456553E+02  0.31202764570E+02 -0.11432762027E+02  0.40892096596E+02  0.00000000000E+00 0.  1.
          1    1    1    2  501    0  0.25980078575E+02 -0.21555813582E+02  0.30198724135E+02  0.45294376266E+02  0.00000000000E+00 0. -1.
<scales pt_clust_5="13000.00000" pt_clust_6="13000.00000" pt_clust_7="13000.00000" pt_clust_8="13000.00000" pt_clust_9="33.75822"></scales>
<clustering>
<clus scale="   33.758">  1  9  2 -1</clus>
<clus scale="   81.220">  5  6 -1 -1</clus>
<clus scale="   95.045">  7  8 -1 -1</clus>
<clus scale="  155.686">  2  5  1 -1</clus>
<clus scale="   33.758">  1  5  2 -1</clus>
</clustering>
</event>
<event>
 9    2  0.6175212E-005  0.1879827E+03  0.7546771E-02  0.1178728E+00
         21   -1    0    0  501  502  0.00000000000E+00  0.00000000000E+00  0.16303376493E+03  0.16303376493E+03  0.00000000000E+00 0. -1.
          2   -1    0    0  502    0 -0.00000000000E+00 -0.00000000000E+00 -0.89541464907E+03  0.89541464907E+03  0.00000000000E+00 0. -1.
         24    2    1    2    0    0 -0.72596138863E+02 -0.47470094554E+02 -0.39099242497E+03  0.40996101020E+03  0.87574792269E+02 0.  0.
         23    2    1    2    0    0  0.78005158331E+01  0.17055320521E+03  0.76361776516E+02  0.20818843231E+03  0.91444292233E+02 0.  0.
        -13    1    3    3    0    0 -0.60511821358E+02  0.43617814766E+01 -0.28465426547E+03  0.29104768769E+03  0.00000000000E+00 0.  1.
         14    1    3    3    0    0 -0.12084317505E+02 -0.51831876030E+02 -0.10633815951E+03  0.11891332251E+03  0.00000000000E+00 0. -1.
        -11    1    4    4    0    0  0.36032457363E+02  0.38083572860E+02 -0.54835941254E+00  0.52430880247E+02  0.00000000000E+00 0.  1.
         11    1    4    4    0    0 -0.28231941530E+02  0.13246963234E+03  0.76910135929E+02  0.15575755206E+03  0.00000000000E+00 0. -1.
          1    1    1    2  501    0  0.64795623030E+02 -0.12308311065E+03 -0.41775023568E+03  0.44029897149E+03  0.00000000000E+00 0. -1.
<scales pt_clust_5="13000.00000" pt_clust_6="13000.00000" pt_clust_7="13000.00000" pt_clust_8="13000.00000" pt_clust_9="164.24208"></scales>
<clustering>
<clus scale="   87.575">  5  6 -1 -1</clus>
<clus scale="   91.444">  7  8 -1 -1</clus>
<clus scale="  123.260">  2  5  1 -1</clus>
<clus scale="  164.242">  1  9  2 -1</clus>
<clus scale="  164.242">  1  5  2 -1</clus>
</clustering>
</event>
<event>
 9    2  0.6175212E-005  0.9245798E+02  0.7546771E-02  0.1302599E+00
          2   -1    0    0  502    0 -0.00000000000E+00  0.00000000000E+00  0.99743669653E+02  0.99743669653E+02  0.00000000000E+00 0. -1.
         21   -1    0    0  501  502  0.00000000000E+00 -0.00000000000E+00 -0.15443977632E+03  0.15443977632E+03  0.00000000000E+00 0.  1.
         24    2    1    2    0    0  0.12191452397E+02  0.17838772420E+01  0.35498389780E+02  0.89916776337E+02  0.81688905368E+02 0.  0.
         23    2    1    2    0    0 -0.19391293475E+02 -0.37652708128E+02 -0.71546296108E+02  0.12320371655E+03  0.90920484995E+02 0.  0.
        -13    1    3    3    0    0 -0.27361328289E+02  0.24330227746E+02  0.11078724984E+02  0.38253632706E+02  0.00000000000E+00 0.  1.
         14    1    3    3    0    0  0.39552780686E+02 -0.22546350504E+02  0.24419664796E+02  0.51663143631E+02  0.00000000000E+00 0. -1.
        -13    1    4    4    0    0 -0.29521018680E+00 -0.29683677796E+02 -0.90437668487E+02  0.95184976535E+02  0.00000000000E+00 0.  1.
         13    1    4    4    0    0 -0.19096083288E+02 -0.79690303318E+01  0.18891372379E+02  0.28018740010E+02  0.00000000000E+00 0. -1.
          1    1    1    2  501    0  0.71998410783E+01  0.35868830886E+02 -0.18648200340E+02  0.41062953092E+02  0.00000000000E+00 0. -1.
<scales pt_clust_5="13000.00000" pt_clust_6="13000.00000" pt_clust_7="13000.00000" pt_clust_8="13000.00000" pt_clust_9="36.58430"></scales>
<clustering>
<clus scale="   36.584">  2  9  1 -1</clus>
<clus scale="   81.689">  5  6 -1 -1</clus>
<clus scale="   83.397">  1  5  2 -1</clus>
<clus scale="   90.920">  7  8 -1 -1</clus>
<clus scale="   36.584">  2  5  1 -1</clus>
</clustering>
</event>
<event>
 9    2  0.6175212E-005  0.1492612E+03  0.7546771E-02  0.1220696E+00
          2   -1    0    0  502    0 -0.00000000000E+00  0.00000000000E+00  0.39757466910E+03  0.39757466910E+03  0.00000000000E+00 0. -1.
         21   -1    0    0  501  502  0.00000000000E+00 -0.00000000000E+00 -0.92626895734E+02  0.92626895734E+02  0.00000000000E+00 0. -1.
         24    2    1    2    0    0 -0.37212175834E+02 -0.42737115775E+02  0.35483522363E+02  0.10506393946E+03  0.81044086278E+02 0.  0.
         23    2    1    2    0    0 -0.99431123044E+02  0.29958941571E+02  0.13611347218E+03  0.19378166629E+03  0.90776486335E+02 0.  0.
        -11    1    3    3    0    0 -0.46780947501E+02 -0.61566408208E+02  0.23677870703E+02  0.80867306309E+02  0.00000000000E+00 0.  1.
         12    1    3    3    0    0  0.95687716674E+01  0.18829292433E+02  0.11805651659E+02  0.24196633151E+02  0.00000000000E+00 0. -1.
        -13    1    4    4    0    0 -0.10747813129E+03  0.70492680345E+01  0.12984497026E+03  0.16870375570E+03  0.00000000000E+00 0. -1.
         13    1    4    4    0    0  0.80470082439E+01  0.22909673537E+02  0.62685019174E+01  0.25077910589E+02  0.00000000000E+00 0.  1.
          1    1    1    2  501    0  0.13664329888E+03  0.12778174203E+02  0.13335077882E+03  0.19135595908E+03  0.00000000000E+00 0. -1.
<scales pt_clust_5="13000.00000" pt_clust_6="13000.00000" pt_clust_7="13000.00000" pt_clust_8="13000.00000" pt_clust_9="118.48437"></scales>
<clustering>
<clus scale="   81.044">  5  6 -1 -1</clus>
<clus scale="   90.776">  7  8 -1 -1</clus>
<clus scale="   98.891">  1  5  2 -1</clus>
<clus scale="  118.484">  2  9  1 -1</clus>
<clus scale="  118.484">  2  5  1 -1</clus>
</clustering>
</event>
<event>
 9    2  0.6175212E-005  0.2462925E+03  0.7546771E-02  0.1150070E+00
          2   -1    0    0  502    0 -0.00000000000E+00  0.00000000000E+00  0.10582097787E+04  0.10582097787E+04  0.00000000000E+00 0. -1.
         21   -1    0    0  501  502  0.00000000000E+00 -0.00000000000E+00 -0.10978733171E+03  0.10978733171E+03  0.00000000000E+00 0. -1.
         24    2    1    2    0    0 -0.70185381781E+02  0.94159441253E+01  0.44772838156E+03  0.46016438150E+03  0.79220619373E+02 0.  0.
         23    2    1    2    0    0 -0.13662688066E+03 -0.14953736732E+03  0.35912838091E+03  0.42069832106E+03  0.83579630419E+02 0.  0.
        -13    1    3    3    0    0 -0.27690278326E+02  0.40842092039E+02  0.27971323088E+03  0.28403225085E+03  0.00000000000E+00 0.  1.
         14    1    3    3    0    0 -0.42495103455E+02 -0.31426147914E+02  0.16801515068E+03  0.17613213065E+03  0.00000000000E+00 0. -1.
        -11    1    4    4    0    0 -0.20015055158E+02 -0.63024458168E+02  0.16893142159E+03  0.18141254081E+03  0.00000000000E+00 0.  1.
         11    1    4    4    0    0 -0.11661182550E+03 -0.86512909156E+02  0.19019695932E+03  0.23928578025E+03  0.00000000000E+00 0. -1.
          1    1    1    2  501    0  0.20681226244E+03  0.14012142320E+03  0.14156568450E+03  0.28713440783E+03  0.00000000000E+00 0. -1.
<scales pt_clust_5="13000.00000" pt_clust_6="13000.00000" pt_clust_7="13000.00000" pt_clust_8="13000.00000" pt_clust_9="231.67745"></scales>
<clustering>
<clus scale="   79.221">  5  6 -1 -1</clus>
<clus scale="   83.580">  7  8 -1 -1</clus>
<clus scale="  106.257">  1  5  2 -1</clus>
<clus scale="  231.677">  2  9  1 -1</clus>
<clus scale="  231.677">  2  5  1 -1</clus>
</clustering>
</event>
<event>
 9    2  0.6175212E-005  0.9141037E+02  0.7546771E-02  0.1304383E+00
         21   -1    0    0  501  502  0.00000000000E+00  0.00000000000E+00  0.63491659369E+02  0.63491659369E+02  0.00000000000E+00 0. -1.
          2   -1    0    0  502    0 -0.00000000000E+00 -0.00000000000E+00 -0.69100672335E+03  0.69100672335E+03  0.00000000000E+00 0. -1.
         24    2    1    2    0    0  0.76956982097E+01 -0.18059243557E+02 -0.55293846958E+03  0.55924649075E+03  0.81426815163E+02 0.  0.
         23    2    1    2    0    0 -0.30678695272E+02 -0.31050211927E+01 -0.11190444282E+03  0.14657425313E+03  0.89501865114E+02 0.  0.
        -13    1    3    3    0    0  0.38809105535E+02 -0.13572465171E+02 -0.16532967571E+03  0.17036507903E+03  0.00000000000E+00 0.  1.
         14    1    3    3    0    0 -0.31113407325E+02 -0.44867783867E+01 -0.38760879386E+03  0.38888141171E+03  0.00000000000E+00 0. -1.
        -13    1    4    4    0    0  0.19531420098E+02  0.11540700563E+02  0.39795925700E+00  0.22689700573E+02  0.00000000000E+00 0.  1.
         13    1    4    4    0    0 -0.50210115370E+02 -0.14645721756E+02 -0.11230240208E+03  0.12388455256E+03  0.00000000000E+00 0. -1.
          1    1    1    2  501    0  0.22982997062E+02  0.21164264750E+02  0.37327848409E+02  0.48677638842E+02  0.00000000000E+00 0. -1.
<scales pt_clust_5="13000.00000" pt_clust_6="13000.00000" pt_clust_7="13000.00000" pt_clust_8="13000.00000" pt_clust_9="31.24331"></scales>
<clustering>
<clus scale="   31.243">  1  9  2 -1</clus>
<clus scale="   81.427">  5  6 -1 -1</clus>
<clus scale="   83.520">  2  5  1 -1</clus>
<clus scale="   89.502">  7  8 -1 -1</clus>
<clus scale="   31.243">  1  5  2 -1</clus>
</clustering>
</event>
<event>
 9    2  0.6175212E-005  0.1132298E+03  0.7546771E-02  0.1256230E+00
         21   -1    0    0  501  502  0.00000000000E+00  0.00000000000E+00  0.12956751219E+03  0.12956751219E+03  0.00000000000E+00 0.  1.
         -1   -1    0    0    0  501 -0.00000000000E+00 -0.00000000000E+00 -0.37886429514E+03  0.37886429514E+03  0.00000000000E+00 0.  1.
         23    2    1    2    0    0  0.42855362177E+02  0.66941253185E+02 -0.19561350744E+03  0.22696534367E+03  0.83252083998E+02 0.  0.
         24    2    1    2    0    0 -0.56395894696E+02 -0.49781918978E+02 -0.14854010768E+03  0.18412373213E+03  0.78604381224E+02 0.  0.
        -11    1    4    4    0    0 -0.56880164268E+02 -0.30632077884E+02 -0.15153813285E+03  0.16473458347E+03  0.00000000000E+00 0.  1.
         12    1    4    4    0    0  0.48426957146E+00 -0.19149841094E+02  0.29980251680E+01  0.19389148662E+02  0.00000000000E+00 0. -1.
        -11    1    3    3    0    0  0.60699357117E+02  0.57061673911E+02 -0.18720205434E+03  0.20490255180E+03  0.00000000000E+00 0.  1.
         11    1    3    3    0    0 -0.17843994940E+02  0.98795792741E+01 -0.84114530998E+01  0.22062791875E+02  0.00000000000E+00 0. -1.
         -2    1    1    2    0  502  0.13540532519E+02 -0.17159334207E+02  0.94856832170E+02  0.97342731524E+02  0.00000000000E+00 0.  1.
<scales pt_clust_5="13000.00000" pt_clust_6="13000.00000" pt_clust_7="13000.00000" pt_clust_8="13000.00000" pt_clust_9="21.85838"></scales>
<clustering>
<clus scale="   21.858">  1  9  2 -1</clus>
<clus scale="   78.604">  5  6 -1 -1</clus>
<clus scale="   83.252">  7  8 -1 -1</clus>
<clus scale="  109.858">  1  5  2 -1</clus>
<clus scale="   21.858">  1  5  2 -1</clus>
</clustering>
</event>
<event>
 9    2  0.6175212E-005  0.1133680E+03  0.7546771E-02  0.1269860E+00
         21   -1    0    0  501  502  0.00000000000E+00  0.00000000000E+00  0.31063256532E+02  0.31063256532E+02  0.00000000000E+00 0. -1.
          2   -1    0    0  502    0 -0.00000000000E+00 -0.00000000000E+00 -0.81616661723E+03  0.81616661723E+03  0.00000000000E+00 0. -1.
         24    2    1    2    0    0 -0.28435052616E+02 -0.12239048024E+02 -0.33827881304E+03  0.34874992162E+03  0.78965853139E+02 0.  0.
         23    2    1    2    0    0  0.26403918518E+02 -0.62814209791E+02 -0.18198041580E+03  0.22319912972E+03  0.10980978057E+03 0.  0.
        -13    1    3    3    0    0  0.26883053366E+02 -0.33931225723E+01 -0.14526907483E+03  0.14777454429E+03  0.00000000000E+00 0.  1.
         14    1    3    3    0    0 -0.55318105982E+02 -0.88459254519E+01 -0.19300973822E+03  0.20097537733E+03  0.00000000000E+00 0. -1.
        -13    1    4    4    0    0  0.61380911690E+02 -0.28113057247E+02 -0.55284657251E+02  0.87260263780E+02  0.00000000000E+00 0. -1.
         13    1    4    4    0    0 -0.34976993172E+02 -0.34701152544E+02 -0.12669575855E+03  0.13593886594E+03  0.00000000000E+00 0.  1.
          1    1    1    2  501    0  0.20311340983E+01  0.75053257816E+02 -0.26484413186E+03  0.27528082242E+03  0.00000000000E+00 0. -1.
<scales pt_clust_5="13000.00000" pt_clust_6="13000.00000" pt_clust_7="13000.00000" pt_clust_8="13000.00000" pt_clust_9="75.08077"></scales>
<clustering>
<clus scale="   75.081">  1  9  2 -1</clus>
<clus scale="   78.966">  5  6 -1 -1</clus>
<clus scale="   83.843">  2  5  1 -1</clus>
<clus scale="  109.810">  7  8 -1 -1</clus>
<clus scale="   75.081">  1  5  2 -1</clus>
</clustering>
</event>
<event>
 9    2  0.6175212E-005  0.9029791E+02  0.7546771E-02  0.1308118E+00
         21   -1    0    0  501  502  0.00000000000E+00  0.00000000000E+00  0.15958715482E+03  0.15958715482E+03  0.00000000000E+00 0. -1.
          4   -1    0    0  502    0 -0.00000000000E+00 -0.00000000000E+00 -0.11553495093E+03  0.11553495093E+03  0.00000000000E+00 0. -1.
         24    2    1    2    0    0 -0.30381583194E+02 -0.28908571509E+02 -0.14082803231E+02  0.90828708431E+02  0.79327062371E+02 0.  0.
         23    2    1    2    0    0 -0.38066879299E+02 -0.45364193506E+01  0.18916153743E+02  0.98608638508E+02  0.88860431666E+02 0.  0.
        -11    1    3    3    0    0  0.10290925575E+02 -0.43057784876E+02  0.32911444364E+01  0.44392652763E+02  0.00000000000E+00 0.  1.
         12    1    3    3    0    0 -0.40672508769E+02  0.14149213367E+02 -0.17373947667E+02  0.46436055668E+02  0.00000000000E+00 0. -1.
        -11    1    4    4    0    0  0.22870015809E+02  0.18372156972E+02  0.16063019915E+02  0.33445394058E+02  0.00000000000E+00 0.  1.
         11    1    4    4    0    0 -0.60936895109E+02 -0.22908576322E+02  0.28531338274E+01  0.65163244450E+02  0.00000000000E+00 0. -1.
          3    1    1    2  501    0  0.68448462493E+02  0.33444990859E+02  0.39218853379E+02  0.85684758806E+02  0.00000000000E+00 0. -1.
<scales pt_clust_5="13000.00000" pt_clust_6="13000.00000" pt_clust_7="13000.00000" pt_clust_8="13000.00000" pt_clust_9="76.18241"></scales>
<clustering>
<clus scale="   76.182">  1  9  2 -1</clus>
<clus scale="   79.327">  5  6 -1 -1</clus>
<clus scale="   80.934">  2  5  1 -1</clus>
<clus scale="   88.860">  7  8 -1 -1</clus>
<clus scale="   76.182">  1  5  2 -1</clus>
</clustering>
</event>
<event>
 9    2  0.6175212E-005  0.1100289E+03  0.7546771E-02  0.1265881E+00
         -1   -1    0    0    0  501 -0.00000000000E+00  0.00000000000E+00  0.56642308987E+03  0.56642308987E+03  0.00000000000E+00 0.  1.
         21   -1    0    0  501  502  0.00000000000E+00 -0.00000000000E+00 -0.38304303823E+02  0.38304303823E+02  0.00000000000E+00 0.  1.
         24    2    1    2    0    0  0.33896178225E+02 -0.20368934097E+02  0.22698757285E+03  0.24434520709E+03  0.81347265621E+02 0.  0.
         23    2    1    2    0    0 -0.94555814238E+02  0.12696046768E+02  0.23260759364E+03  0.26854564116E+03  0.94384729485E+02 0.  0.
        -11    1    3    3    0    0  0.47495999454E+02 -0.28287002699E+02  0.84406924035E+02  0.10089872799E+03  0.00000000000E+00 0.  1.
         12    1    3    3    0    0 -0.13599821229E+02  0.79180686019E+01  0.14258064881E+03  0.14344647909E+03  0.00000000000E+00 0. -1.
        -13    1    4    4    0    0  0.27796826643E+01  0.30867885403E+02  0.87900759280E+02  0.93204594667E+02  0.00000000000E+00 0. -1.
         13    1    4    4    0    0 -0.97335496902E+02 -0.18171838635E+02  0.14470683436E+03  0.17534104650E+03  0.00000000000E+00 0.  1.
         -2    1    1    2    0  502  0.60659636013E+02  0.76728873289E+01  0.68523619562E+02  0.91836545444E+02  0.00000000000E+00 0.  1.
<scales pt_clust_5="13000.00000" pt_clust_6="13000.00000" pt_clust_7="13000.00000" pt_clust_8="13000.00000" pt_clust_9="61.14299"></scales>
<clustering>
<clus scale="   61.143">  2  9  1 -1</clus>
<clus scale="   81.347">  5  6 -1 -1</clus>
<clus scale="   94.385">  7  8 -1 -1</clus>
<clus scale="   99.072">  1  5  2 -1</clus>
<clus scale="   61.143">  2  5  1 -1</clus>
</clustering>
</event>
<event>
 9    2  0.1070730E-004  0.9690792E+02  0.7546771E-02  0.1293617E+00
         21   -1    0    0  501  502  0.00000000000E+00  0.00000000000E+00  0.74508629686E+02  0.74508629686E+02  0.00000000000E+00 0. -1.
         -3   -1    0    0    0  501 -0.00000000000E+00 -0.00000000000E+00 -0.60439801119E+03  0.60439801119E+03  0.00000000000E+00 0.  1.
         23    2    1    2    0    0  0.16000679350E+02  0.16381725182E+02 -0.29998232894E+03  0.31482105256E+03  0.92728176932E+02 0.  0.
         24    2    1    2    0    0 -0.71423600284E+02 -0.30434063728E+02  0.14617085719E+02  0.11296565166E+03  0.80746618182E+02 0.  0.
        -13    1    4    4    0    0 -0.62960707993E+01 -0.44795902514E+02  0.37186891030E+01  0.45388787582E+02  0.00000000000E+00 0.  1.
         14    1    4    4    0    0 -0.65127529484E+02  0.14361838785E+02  0.10898396616E+02  0.67576864080E+02  0.00000000000E+00 0. -1.
        -13    1    3    3    0    0  0.10165939928E+02 -0.38354835385E+02 -0.10614274533E+03  0.11331691012E+03  0.00000000000E+00 0.  1.
         13    1    3    3    0    0  0.58347394215E+01  0.54736560567E+02 -0.19383958361E+03  0.20150414244E+03  0.00000000000E+00 0. -1.
         -4    1    1    2    0  502  0.55422920934E+02  0.14052338547E+02 -0.24452413828E+03  0.25111993665E+03  0.00000000000E+00 0.  1.
<scales pt_clust_5="13000.00000" pt_clust_6="13000.00000" pt_clust_7="13000.00000" pt_clust_8="13000.00000" pt_clust_9="57.17667"></scales>
<clustering>
<clus scale="   57.177">  1  9  2 -1</clus>
<clus scale="   80.747">  5  6 -1 -1</clus>
<clus scale="   85.514">  1  5  2 -1</clus>
<clus scale="   92.728">  7  8 -1 -1</clus>
<clus scale="   57.177">  1  5  2 -1</clus>
</clustering>
</event>
<event>
 9    2  0.6175212E-005  0.1043794E+03  0.7546771E-02  0.1274919E+00
          2   -1    0    0  502    0 -0.00000000000E+00  0.00000000000E+00  0.62570011562E+03  0.62570011562E+03  0.00000000000E+00 0. -1.
         21   -1    0    0  501  502  0.00000000000E+00 -0.00000000000E+00 -0.15990770835E+03  0.15990770835E+03  0.00000000000E+00 0. -1.
         24    2    1    2    0    0  0.27474616702E+02  0.39116188969E+02  0.44246618459E+03  0.45234699218E+03  0.80972501687E+02 0.  0.
         23    2    1    2    0    0 -0.85103473289E+02 -0.41572557080E+02  0.14729739334E+03  0.19652762438E+03  0.89194766620E+02 0.  0.
        -13    1    3    3    0    0  0.30839533869E+02  0.22410344918E+02  0.71831579747E+02  0.81320823025E+02  0.00000000000E+00 0.  1.
         14    1    3    3    0    0 -0.33649171664E+01  0.16705844050E+02  0.37063460484E+03  0.37102616916E+03  0.00000000000E+00 0. -1.
        -13    1    4    4    0    0 -0.59245299718E+02 -0.49433449022E+02  0.42067699244E+02  0.87882664619E+02  0.00000000000E+00 0.  1.
         13    1    4    4    0    0 -0.25858173571E+02  0.78608919419E+01  0.10522969409E+03  0.10864495976E+03  0.00000000000E+00 0. -1.
          1    1    1    2  501    0  0.57628856587E+02  0.24563681111E+01 -0.12397117065E+03  0.13673320741E+03  0.00000000000E+00 0. -1.
<scales pt_clust_5="13000.00000" pt_clust_6="13000.00000" pt_clust_7="13000.00000" pt_clust_8="13000.00000" pt_clust_9="57.68118"></scales>
<clustering>
<clus scale="   57.681">  2  9  1 -1</clus>
<clus scale="   80.973">  5  6 -1 -1</clus>
<clus scale="   89.195">  7  8 -1 -1</clus>
<clus scale="   97.447">  1  5  2 -1</clus>
<clus scale="   57.681">  2  5  1 -1</clus>
</clustering>
</event>
<event>
 9    2  0.6175212E-005  0.9777666E+02  0.7546771E-02  0.1290222E+00
         21   -1    0    0  501  502  0.00000000000E+00  0.00000000000E+00  0.24783156208E+02  0.24783156208E+02  0.00000000000E+00 0. -1.
          2   -1    0    0  502    0 -0.00000000000E+00 -0.00000000000E+00 -0.84686949973E+03  0.84686949973E+03  0.00000000000E+00 0. -1.
         24    2    1    2    0    0 -0.27513093370E+01  0.29381722051E+02 -0.50456780401E+03  0.51231556965E+03  0.83712118416E+02 0.  0.
         23    2    1    2    0    0  0.56436605252E+02 -0.12638996182E+02 -0.18076475237E+03  0.21147218793E+03  0.93272482187E+02 0.  0.
        -13    1    3    3    0    0 -0.27422040249E+02  0.49719771432E+02 -0.32602871383E+03  0.33093616636E+03  0.00000000000E+00 0.  1.
         14    1    3    3    0    0  0.24670730912E+02 -0.20338049381E+02 -0.17853909018E+03  0.18137940329E+03  0.00000000000E+00 0. -1.
        -13    1    4    4    0    0 -0.23272856821E+02  0.37897341325E+01 -0.71098425594E+02  0.74906435447E+02  0.00000000000E+00 0.  1.
         13    1    4    4    0    0  0.79709462073E+02 -0.16428730314E+02 -0.10966632677E+03  0.13656575248E+03  0.00000000000E+00 0. -1.
          1    1    1    2  501    0 -0.53685295915E+02 -0.16742725869E+02 -0.13675378714E+03  0.14786489835E+03  0.00000000000E+00 0. -1.
<scales pt_clust_5="13000.00000" pt_clust_6="13000.00000" pt_clust_7="13000.00000" pt_clust_8="13000.00000" pt_clust_9="56.23549"></scales>
<clustering>
<clus scale="   56.235">  1  9  2 -1</clus>
<clus scale="   83.712">  5  6 -1 -1</clus>
<clus scale="   88.703">  2  5  1 -1</clus>
<clus scale="   93.272">  7  8 -1 -1</clus>
<clus scale="   56.235">  1  5  2 -1</clus>
</clustering>
</event>
<event>
 9    2  0.6175212E-005  0.1166755E+03  0.7546771E-02  0.1251038E+00
         21   -1    0    0  501  502  0.00000000000E+00  0.00000000000E+00  0.66214929862E+02  0.66214929862E+02  0.00000000000E+00 0.  1.
          2   -1    0    0  502    0 -0.00000000000E+00 -0.00000000000E+00 -0.57674240072E+03  0.57674240072E+03  0.00000000000E+00 0. -1.
         24    2    1    2    0    0  0.61664185197E+02 -0.36929781627E+02 -0.46787756821E+03  0.48079749519E+03  0.84205296959E+02 0.  0.
         23    2    1    2    0    0 -0.52940172263E+02  0.66220728243E+02 -0.25397476899E+02  0.12706405004E+03  0.91172332931E+02 0.  0.
        -11    1    3    3    0    0  0.91349480243E+01  0.19657663333E+02 -0.35611116589E+02  0.41689598557E+02  0.00000000000E+00 0.  1.
         12    1    3    3    0    0  0.52529237173E+02 -0.56587444960E+02 -0.43226645162E+03  0.43910789663E+03  0.00000000000E+00 0. -1.
        -11    1    4    4    0    0  0.25505929376E+02  0.83467208251E+01 -0.83052864370E+01  0.28092667453E+02  0.00000000000E+00 0. -1.
         11    1    4    4    0    0 -0.78446101638E+02  0.57874007418E+02 -0.17092190462E+02  0.98971382589E+02  0.00000000000E+00 0.  1.
          1    1    1    2  501    0 -0.87240129343E+01 -0.29290946616E+02 -0.17252425747E+02  0.35095785352E+02  0.00000000000E+00 0. -1.
<scales pt_clust_5="13000.00000" pt_clust_6="13000.00000" pt_clust_7="13000.00000" pt_clust_8="13000.00000" pt_clust_9="30.56253"></scales>
<clustering>
<clus scale="   30.563">  1  9  2 -1</clus>
<clus scale="   84.205">  5  6 -1 -1</clus>
<clus scale="   91.172">  7  8 -1 -1</clus>
<clus scale="  111.316">  2  5  1 -1</clus>
<clus scale="   30.563">  1  5  2 -1</clus>
</clustering>
</event>
<event>
 9    2  0.6175212E-005  0.1341632E+03  0.7546771E-02  0.1232145E+00
          2   -1    0    0  502    0 -0.00000000000E+00  0.00000000000E+00  0.32702325451E+03  0.32702325451E+03  0.00000000000E+00 0. -1.
         21   -1    0    0  501  502  0.00000000000E+00 -0.00000000000E+00 -0.96653780015E+02  0.96653780015E+02  0.00000000000E+00 0.  1.
         24    2    1    2    0    0  0.88745594476E+02 -0.14629094998E+02  0.17439177011E+03  0.21079370210E+03  0.77017559062E+02 0.  0.
         23    2    1    2    0    0 -0.50886598181E+02 -0.82428002528E+01  0.93966685731E+02  0.15457733019E+03  0.11138681856E+03 0.  0.
        -13    1    3    3    0    0  0.16596438284E+02 -0.38338159956E+02  0.73070139419E+02  0.84169481092E+02  0.00000000000E+00 0.  1.
         14    1    3    3    0    0  0.72149156191E+02  0.23709064957E+02  0.10132163069E+03  0.12662422101E+03  0.00000000000E+00 0. -1.
        -11    1    4    4    0    0 -0.39536864042E+02 -0.58804467691E+02  0.56602784531E+02  0.90691809196E+02  0.00000000000E+00 0. -1.
         11    1    4    4    0    0 -0.11349734139E+02  0.50561667438E+02  0.37363901200E+02  0.63885520989E+02  0.00000000000E+00 0.  1.
          1    1    1    2  501    0 -0.37858996295E+02  0.22871895251E+02 -0.37988981348E+02  0.58306002236E+02  0.00000000000E+00 0. -1.
<scales pt_clust_5="13000.00000" pt_clust_6="13000.00000" pt_clust_7="13000.00000" pt_clust_8="13000.00000" pt_clust_9="44.23152"></scales>
<clustering>
<clus scale="   44.232">  2  9  1 -1</clus>
<clus scale="   77.018">  5  6 -1 -1</clus>
<clus scale="  107.352">  1  5  2 -1</clus>
<clus scale="  111.387">  7  8 -1 -1</clus>
<clus scale="   44.232">  2  5  1 -1</clus>
</clustering>
</event>
<event>
 9    2  0.6175212E-005  0.1098895E+03  0.7546771E-02  0.1264290E+00
          2   -1    0    0  502    0 -0.00000000000E+00  0.00000000000E+00  0.47211351299E+03  0.47211351299E+03  0.00000000000E+00 0. -1.
         21   -1    0    0  501  502  0.00000000000E+00 -0.00000000000E+00 -0.56239803063E+02  0.56239803063E+02  0.00000000000E+00 0.  1.
         23    2    1    2    0    0 -0.66841102829E+02 -0.15525591363E+02  0.36618882561E+03  0.38324909083E+03  0.89871200089E+02 0.  0.
         24    2    1    2    0    0  0.40303392179E+02 -0.93659056470E+01  0.10062155722E+02  0.91310198314E+02  0.80772654584E+02 0.  0.
        -13    1    4    4    0    0  0.22961583095E+02  0.16564304733E+02 -0.29526860567E+02  0.40907774132E+02  0.00000000000E+00 0.  1.
         14    1    4    4    0    0  0.17341809084E+02 -0.25930210380E+02  0.39589016289E+02  0.50402424182E+02  0.00000000000E+00 0. -1.
        -11    1    3    3    0    0 -0.70540890250E+01 -0.37708926146E+02  0.22606400949E+03  0.22929600884E+03  0.00000000000E+00 0. -1.
         11    1    3    3    0    0 -0.59787013804E+02  0.22183334783E+02  0.14012481613E+03  0.15395308200E+03  0.00000000000E+00 0.  1.
          1    1    1    2  501    0  0.26537710649E+02  0.24891497010E+02  0.39622728596E+02  0.53794026911E+02  0.00000000000E+00 0. -1.
<scales pt_clust_5="13000.00000" pt_clust_6="13000.00000" pt_clust_7="13000.00000" pt_clust_8="13000.00000" pt_clust_9="36.38457"></scales>
<clustering>
<clus scale="   36.385">  2  9  1 -1</clus>
<clus scale="   80.773">  5  6 -1 -1</clus>
<clus scale="   89.871">  7  8 -1 -1</clus>
<clus scale="  102.582">  2  5  1 -1</clus>
<clus scale="   36.385">  2  5  1 -1</clus>
</clustering>
</event>
<event>
 9    2  0.6175212E-005  0.1126784E+03  0.7546771E-02  0.1259224E+00
          2   -1    0    0  502    0 -0.00000000000E+00  0.00000000000E+00  0.29590653289E+03  0.29590653289E+03  0.00000000000E+00 0. -1.
         21   -1    0    0  501  502  0.00000000000E+00 -0.00000000000E+00 -0.17438399702E+03  0.17438399702E+03  0.00000000000E+00 0.  1.
         24    2    1    2    0    0  0.49926835727E+02 -0.32908481321E+02  0.21235338023E+03  0.23552706213E+03  0.82482615313E+02 0.  0.
         23    2    1    2    0    0 -0.77978082587E+02  0.51995659643E+02  0.67235212696E+01  0.13147722920E+03  0.91961546710E+02 0.  0.
        -13    1    3    3    0    0 -0.33197915197E+01 -0.28618487734E+02  0.18011750644E+02  0.33977375077E+02  0.00000000000E+00 0.  1.
         14    1    3    3    0    0  0.53246627246E+02 -0.42899935878E+01  0.19434162959E+03  0.20154968705E+03  0.00000000000E+00 0. -1.
        -11    1    4    4    0    0 -0.82862872120E+02  0.23039869002E+02 -0.23681506276E+02  0.89207089848E+02  0.00000000000E+00 0.  1.
         11    1    4    4    0    0  0.48847895338E+01  0.28955790642E+02  0.30405027546E+02  0.42270139348E+02  0.00000000000E+00 0. -1.
          1    1    1    2  501    0  0.28051246860E+02 -0.19087178322E+02 -0.97554365634E+02  0.10328623858E+03  0.00000000000E+00 0. -1.
<scales pt_clust_5="13000.00000" pt_clust_6="13000.00000" pt_clust_7="13000.00000" pt_clust_8="13000.00000" pt_clust_9="33.92923"></scales>
<clustering>
<clus scale="   33.929">  2  9  1 -1</clus>
<clus scale="   82.483">  5  6 -1 -1</clus>
<clus scale="   91.962">  7  8 -1 -1</clus>
<clus scale="  105.085">  1  5  2 -1</clus>
<clus scale="   33.929">  2  5  1 -1</clus>
</clustering>
</event>
<event>
 9    2  0.6175212E-005  0.1313917E+03  0.7546771E-02  0.1228892E+00
         21   -1    0    0  501  502  0.00000000000E+00  0.00000000000E+00  0.63213293822E+02  0.63213293822E+02  0.00000000000E+00 0. -1.
          2   -1    0    0  502    0 -0.00000000000E+00 -0.00000000000E+00 -0.43253057495E+03  0.43253057495E+03  0.00000000000E+00 0. -1.
         23    2    1    2    0    0 -0.93228090854E+02 -0.31981002780E+02 -0.21561143018E+03  0.25481351308E+03  0.93420426890E+02 0.  0.
         24    2    1    2    0    0  0.59183583112E+02  0.64961543824E+02 -0.54016281053E+02  0.13054577823E+03  0.80010892446E+02 0.  0.
        -11    1    4    4    0    0 -0.15799020079E+02  0.26444951695E+02 -0.29751497716E+02  0.42826348455E+02  0.00000000000E+00 0.  1.
         12    1    4    4    0    0  0.74982603190E+02  0.38516592129E+02 -0.24264783337E+02  0.87719429779E+02  0.00000000000E+00 0. -1.
        -13    1    3    3    0    0 -0.46676395563E+02 -0.64063003439E+02 -0.12606451635E+03  0.14891278184E+03  0.00000000000E+00 0.  1.
         13    1    3    3    0    0 -0.46551695291E+02  0.32082000659E+02 -0.89546913834E+02  0.10590073124E+03  0.00000000000E+00 0. -1.
          1    1    1    2  501    0  0.34044507742E+02 -0.32980541044E+02 -0.99689569896E+02  0.11038457746E+03  0.00000000000E+00 0. -1.
<scales pt_clust_5="13000.00000" pt_clust_6="13000.00000" pt_clust_7="13000.00000" pt_clust_8="13000.00000" pt_clust_9="47.39986"></scales>
<clustering>
<clus scale="   47.400">  1  9  2 -1</clus>
<clus scale="   80.011">  5  6 -1 -1</clus>
<clus scale="   93.420">  7  8 -1 -1</clus>
<clus scale="  122.222">  1  5  2 -1</clus>
<clus scale="   47.400">  1  5  2 -1</clus>
</clustering>
</event>
<event>
 9    2  0.9034866E-005  0.1061719E+03  0.7546771E-02  0.1269889E+00
          2   -1    0    0  502    0 -0.00000000000E+00  0.00000000000E+00  0.95837376886E+03  0.95837376886E+03  0.00000000000E+00 0. -1.
         21   -1    0    0  501  502  0.00000000000E+00 -0.00000000000E+00 -0.26501041020E+03  0.26501041020E+03  0.00000000000E+00 0. -1.
         24    2    1    2    0    0  0.25822208465E+02 -0.58967419052E+02  0.87992899580E+03  0.88602156824E+03  0.81334118127E+02 0.  0.
         23    2    1    2    0    0  0.33953887345E+02  0.43456173106E+02  0.34195301617E+02  0.10812654807E+03  0.86491192021E+02 0.  0.
        -11    1    3    3    0    0  0.24752170492E+02 -0.20684713311E+02  0.98349887074E+02  0.10350472258E+03  0.00000000000E+00 0.  1.
         12    1    3    3    0    0  0.10700379725E+01 -0.38282705741E+02  0.78157910873E+03  0.78251684566E+03  0.00000000000E+00 0. -1.
        -11    1    4    4    0    0  0.30422170916E+02 -0.30936830443E+01  0.50196073025E+02  0.58776909626E+02  0.00000000000E+00 0. -1.
         11    1    4    4    0    0  0.35317164289E+01  0.46549856150E+02 -0.16000771408E+02  0.49349638441E+02  0.00000000000E+00 0.  1.
          1    1    1    2  501    0 -0.59776095809E+02  0.15511245946E+02 -0.22076093877E+03  0.22923606275E+03  0.00000000000E+00 0. -1.
<scales pt_clust_5="13000.00000" pt_clust_6="13000.00000" pt_clust_7="13000.00000" pt_clust_8="13000.00000" pt_clust_9="61.75581"></scales>
<clustering>
<clus scale="   61.756">  2  9  1 -1</clus>
<clus scale="   81.334">  5  6 -1 -1</clus>
<clus scale="   86.491">  7  8 -1 -1</clus>
<clus scale="  102.015">  1  5  2 -1</clus>
<clus scale="   61.756">  2  5  1 -1</clus>
</clustering>
</event>
<event>
 9    2  0.6175212E-005  0.9579837E+02  0.7546771E-02  0.1294733E+00
          2   -1    0    0  502    0 -0.00000000000E+00  0.00000000000E+00  0.16011894673E+03  0.16011894673E+03  0.00000000000E+00 0. -1.
         21   -1    0    0  501  502  0.00000000000E+00 -0.00000000000E+00 -0.83309551992E+02  0.83309551992E+02  0.00000000000E+00 0.  1.
         23    2    1    2    0    0 -0.50653349726E+00  0.41509230452E+02  0.83185655328E+02  0.12985976269E+03  0.90666597628E+02 0.  0.
         24    2    1    2    0    0  0.23241555865E+01 -0.10247657508E+02 -0.88763196321E+01  0.82154726605E+02  0.80995023734E+02 0.  0.
        -11    1    4    4    0    0  0.29092266801E+01  0.27425376608E+02 -0.28511635959E+02  0.39667723240E+02  0.00000000000E+00 0.  1.
         12    1    4    4    0    0 -0.58507109367E+00 -0.37673034116E+02  0.19635316327E+02  0.42487003365E+02  0.00000000000E+00 0. -1.
        -13    1    3    3    0    0  0.21628850807E+02 -0.22830089237E+02  0.30454805923E+02  0.43778023775E+02  0.00000000000E+00 0. -1.
         13    1    3    3    0    0 -0.22135384304E+02  0.64339319689E+02  0.52730849405E+02  0.86081738919E+02  0.00000000000E+00 0.  1.
          1    1    1    2  501    0 -0.18176220892E+01 -0.31261572944E+02  0.25000590429E+01  0.31414009425E+02  0.00000000000E+00 0. -1.
<scales pt_clust_5="13000.00000" pt_clust_6="13000.00000" pt_clust_7="13000.00000" pt_clust_8="13000.00000" pt_clust_9="31.31437"></scales>
<clustering>
<clus scale="   31.314">  2  9  1 -1</clus>
<clus scale="   80.995">  5  6 -1 -1</clus>
<clus scale="   86.701">  2  5  1 -1</clus>
<clus scale="   90.667">  7  8 -1 -1</clus>
<clus scale="   31.314">  2  5  1 -1</clus>
</clustering>
</event>
<event>
 9    2  0.6175212E-005  0.1021641E+03  0.7546771E-02  0.1282463E+00
          2   -1    0    0  502    0 -0.00000000000E+00  0.00000000000E+00  0.65077535802E+03  0.65077535802E+03  0.00000000000E+00 0. -1.
         21   -1    0    0  501  502  0.00000000000E+00 -0.00000000000E+00 -0.20575346158E+03  0.20575346158E+03  0.00000000000E+00 0. -1.
         24    2    1    2    0    0 -0.40323947022E+02 -0.43520079202E+01  0.59103820269E+03  0.59777725869E+03  0.79790558930E+02 0.  0.
         23    2    1    2    0    0  0.61884254788E+02 -0.15842666318E+02 -0.34154457826E+01  0.11312300210E+03  0.93297895305E+02 0.  0.
        -11    1    3    3    0    0  0.18850425429E+02  0.18002129684E+02  0.15549453909E+03  0.15766409515E+03  0.00000000000E+00 0.  1.
         12    1    3    3    0    0 -0.59174372451E+02 -0.22354137604E+02  0.43554366359E+03  0.44011316354E+03  0.00000000000E+00 0. -1.
        -13    1    4    4    0    0  0.36983991756E+02 -0.19015366446E+02 -0.47043436884E+02  0.62789208955E+02  0.00000000000E+00 0.  1.
         13    1    4    4    0    0  0.24900263031E+02  0.31727001281E+01  0.43627991102E+02  0.50333793149E+02  0.00000000000E+00 0. -1.
          1    1    1    2  501    0 -0.21560307766E+02  0.20194674238E+02 -0.14260086046E+03  0.14562855882E+03  0.00000000000E+00 0. -1.
<scales pt_clust_5="13000.00000" pt_clust_6="13000.00000" pt_clust_7="13000.00000" pt_clust_8="13000.00000" pt_clust_9="29.54102"></scales>
<clustering>
<clus scale="   29.541">  2  9  1 -1</clus>
<clus scale="   79.791">  5  6 -1 -1</clus>
<clus scale="   89.997">  1  5  2 -1</clus>
<clus scale="   93.298">  7  8 -1 -1</clus>
<clus scale="   29.541">  2  5  1 -1</clus>
</clustering>
</event>
<event>
 9    2  0.6175212E-005  0.1076836E+03  0.7546771E-02  0.1271251E+00
          2   -1    0    0  502    0 -0.00000000000E+00  0.00000000000E+00  0.28492130618E+03  0.28492130618E+03  0.00000000000E+00 0. -1.
         21   -1    0    0  501  502  0.00000000000E+00 -0.00000000000E+00 -0.16873223631E+03  0.16873223631E+03  0.00000000000E+00 0. -1.
         24    2    1    2    0    0 -0.45173016796E+02  0.16480891721E+02  0.17287673746E+03  0.19630785543E+03  0.79612728321E+02 0.  0.
         23    2    1    2    0    0  0.70469118643E+02  0.11878594270E+02  0.61470992430E+02  0.13322630036E+03  0.94146516208E+02 0.  0.
        -11    1    3    3    0    0  0.10529035202E+02 -0.17968661322E+02  0.15855207167E+02  0.26174815497E+02  0.00000000000E+00 0.  1.
         12    1    3    3    0    0 -0.55702051998E+02  0.34449553043E+02  0.15702153029E+03  0.17013303993E+03  0.00000000000E+00 0. -1.
        -13    1    4    4    0    0  0.61010675316E+02  0.42484579969E+02  0.13528405586E+02  0.75566260959E+02  0.00000000000E+00 0. -1.
         13    1    4    4    0    0  0.94584433274E+01 -0.30605985700E+02  0.47942586844E+02  0.57660039404E+02  0.00000000000E+00 0.  1.
          1    1    1    2  501    0 -0.25296101847E+02 -0.28359485990E+02 -0.11815866002E+03  0.12411938669E+03  0.00000000000E+00 0. -1.
<scales pt_clust_5="13000.00000" pt_clust_6="13000.00000" pt_clust_7="13000.00000" pt_clust_8="13000.00000" pt_clust_9="38.00202"></scales>
<clustering>
<clus scale="   38.002">  2  9  1 -1</clus>
<clus scale="   79.613">  5  6 -1 -1</clus>
<clus scale="   94.147">  7  8 -1 -1</clus>
<clus scale="   95.239">  1  5  2 -1</clus>
<clus scale="   38.002">  2  5  1 -1</clus>
</clustering>
</event>
<event>
 9    2  0.6175212E-005  0.1256850E+03  0.7546771E-02  0.1237835E+00
          2   -1    0    0  502    0 -0.00000000000E+00  0.00000000000E+00  0.48254640908E+03  0.48254640908E+03  0.00000000000E+00 0. -1.
         21   -1    0    0  501  502  0.00000000000E+00 -0.00000000000E+00 -0.36361309672E+02  0.36361309672E+02  0.00000000000E+00 0.  1.
         23    2    1    2    0    0 -0.90324972769E+02 -0.91363086073E+00  0.22765383250E+03  0.26125267760E+03  0.90924466869E+02 0.  0.
         24    2    1    2    0    0  0.82236206989E+02 -0.18394979879E+02  0.17094774820E+03  0.20567002568E+03  0.77303672778E+02 0.  0.
        -11    1    4    4    0    0  0.62311071049E+02 -0.35070213062E+02  0.65162039962E+02  0.96740275333E+02  0.00000000000E+00 0.  1.
         12    1    4    4    0    0  0.19925135940E+02  0.16675233183E+02  0.10578570824E+03  0.10892975035E+03  0.00000000000E+00 0. -1.
        -13    1    3    3    0    0 -0.78243389805E+02  0.31640471884E+02  0.19926313299E+03  0.21639996229E+03  0.00000000000E+00 0. -1.
         13    1    3    3    0    0 -0.12081582964E+02 -0.32554102744E+02  0.28390699509E+02  0.44852715314E+02  0.00000000000E+00 0.  1.
          1    1    1    2  501    0  0.80887657793E+01  0.19308610740E+02  0.47583518707E+02  0.51985015466E+02  0.00000000000E+00 0. -1.
<scales pt_clust_5="13000.00000" pt_clust_6="13000.00000" pt_clust_7="13000.00000" pt_clust_8="13000.00000" pt_clust_9="20.93445"></scales>
<clustering>
<clus scale="   20.934">  2  9  1 -1</clus>
<clus scale="   77.304">  5  6 -1 -1</clus>
<clus scale="   90.924">  7  8 -1 -1</clus>
<clus scale="  116.212">  2  5  1 -1</clus>
<clus scale="   20.934">  2  5  1 -1</clus>
</clustering>
</event>
<event>
 9    2  0.6175212E-005  0.2656367E+03  0.7546771E-02  0.1122066E+00
         -1   -1    0    0    0  501 -0.00000000000E+00  0.00000000000E+00  0.64149738111E+03  0.64149738111E+03  0.00000000000E+00 0.  1.
         21   -1    0    0  501  502  0.00000000000E+00 -0.00000000000E+00 -0.20694687541E+03  0.20694687541E+03  0.00000000000E+00 0. -1.
         23    2    1    2    0    0 -0.87036694878E+02 -0.11000538810E+03  0.19800430155E+03  0.25918029697E+03  0.91061249924E+02 0.  0.
         24    2    1    2    0    0 -0.90360770085E+02  0.26734289425E+03  0.77547259930E+02  0.30377207581E+03  0.81403959635E+02 0.  0.
        -11    1    4    4    0    0 -0.10188797940E+00  0.64130480905E+02 -0.98012394448E+01  0.64875212962E+02  0.00000000000E+00 0.  1.
         12    1    4    4    0    0 -0.90258882106E+02  0.20321241335E+03  0.87348499375E+02  0.23889686285E+03  0.00000000000E+00 0. -1.
        -11    1    3    3    0    0 -0.68768911687E+02 -0.22514224277E+02  0.12204937467E+03  0.14188764346E+03  0.00000000000E+00 0.  1.
         11    1    3    3    0    0 -0.18267783191E+02 -0.87491163818E+02  0.75954926879E+02  0.11729265350E+03  0.00000000000E+00 0. -1.
         -2    1    1    2    0  502  0.17739746496E+03 -0.15733750616E+03  0.15899894422E+03  0.28549188374E+03  0.00000000000E+00 0.  1.
<scales pt_clust_5="13000.00000" pt_clust_6="13000.00000" pt_clust_7="13000.00000" pt_clust_8="13000.00000" pt_clust_9="252.85630"></scales>
<clustering>
<clus scale="   81.404">  5  6 -1 -1</clus>
<clus scale="   91.061">  7  8 -1 -1</clus>
<clus scale="  167.239">  1  7  2 -1</clus>
<clus scale="  252.856">  2  9  1 -1</clus>
<clus scale="  252.856">  2  5  1 -1</clus>
</clustering>
</event>
<event>
 9    2  0.6175212E-005  0.2031961E+03  0.7546771E-02  0.1173662E+00
         21   -1    0    0  501  502  0.00000000000E+00  0.00000000000E+00  0.23774098737E+03  0.23774098737E+03  0.00000000000E+00 0.  1.
          2   -1    0    0  502    0 -0.00000000000E+00 -0.00000000000E+00 -0.31560255898E+03  0.31560255898E+03  0.00000000000E+00 0. -1.
         24    2    1    2    0    0 -0.37070335861E+02 -0.64214606159E+02  0.58423556616E+02  0.12406653976E+03  0.80507570293E+02 0.  0.
         23    2    1    2    0    0 -0.14876540265E+03  0.96225526552E+02 -0.13486844421E+03  0.24069909770E+03  0.91411494918E+02 0.  0.
        -13    1    3    3    0    0 -0.27978021388E+02 -0.18743356905E+01  0.54079693393E+02  0.60917124460E+02  0.00000000000E+00 0.  1.
         14    1    3    3    0    0 -0.90923144733E+01 -0.62340270468E+02  0.43438632236E+01  0.63149415296E+02  0.00000000000E+00 0. -1.
        -13    1    4    4    0    0 -0.34837942713E+01  0.31043047123E+02  0.11799029372E+01  0.31260194628E+02  0.00000000000E+00 0. -1.
         13    1    4    4    0    0 -0.14528160838E+03  0.65182479429E+02 -0.13604834715E+03  0.20943890307E+03  0.00000000000E+00 0.  1.
          1    1    1    2  501    0  0.18583573851E+03 -0.32010920393E+02 -0.14166840124E+01  0.18857790890E+03  0.00000000000E+00 0. -1.
<scales pt_clust_5="13000.00000" pt_clust_6="13000.00000" pt_clust_7="13000.00000" pt_clust_8="13000.00000" pt_clust_9="181.47339"></scales>
<clustering>
<clus scale="   80.508">  5  6 -1 -1</clus>
<clus scale="   91.411">  7  8 -1 -1</clus>
<clus scale="  109.450">  2  5  1 -1</clus>
<clus scale="  181.473">  1  9  2 -1</clus>
<clus scale="  181.473">  1  5  2 -1</clus>
</clustering>
</event>
<event>
 9    2  0.6175212E-005  0.9868907E+02  0.7546771E-02  0.1289393E+00
         21   -1    0    0  501  502  0.00000000000E+00  0.00000000000E+00  0.21680737696E+03  0.21680737696E+03  0.00000000000E+00 0. -1.
          2   -1    0    0  502    0 -0.00000000000E+00 -0.00000000000E+00 -0.37175268237E+03  0.37175268237E+03  0.00000000000E+00 0. -1.
         24    2    1    2    0    0 -0.21696231551E+02  0.26097624057E+02 -0.30678151820E+03  0.31917844517E+03  0.81290636043E+02 0.  0.
         23    2    1    2    0    0 -0.28121272147E+01 -0.32436105785E+02 -0.15748060231E+02  0.99896144086E+02  0.93119435051E+02 0.  0.
        -11    1    3    3    0    0  0.25237093314E+02 -0.56940964211E+01 -0.50955537851E+02  0.57147182351E+02  0.00000000000E+00 0.  1.
         12    1    3    3    0    0 -0.46933324865E+02  0.31791720478E+02 -0.25582598035E+03  0.26203126282E+03  0.00000000000E+00 0. -1.
        -13    1    4    4    0    0  0.24797047197E+02  0.19569065792E+02  0.13259826574E+02  0.34258792834E+02  0.00000000000E+00 0.  1.
         13    1    4    4    0    0 -0.27609174411E+02 -0.52005171578E+02 -0.29007886805E+02  0.65637351252E+02  0.00000000000E+00 0. -1.
          1    1    1    2  501    0  0.24508358766E+02  0.63384817285E+01  0.16758427302E+03  0.16948547007E+03  0.00000000000E+00 0. -1.
<scales pt_clust_5="13000.00000" pt_clust_6="13000.00000" pt_clust_7="13000.00000" pt_clust_8="13000.00000" pt_clust_9="25.31474"></scales>
<clustering>
<clus scale="   25.315">  1  9  2 -1</clus>
<clus scale="   81.291">  5  6 -1 -1</clus>
<clus scale="   87.615">  2  5  1 -1</clus>
<clus scale="   93.119">  7  8 -1 -1</clus>
<clus scale="   25.315">  1  5  2 -1</clus>
</clustering>
</event>
<event>
 9    2  0.6175212E-005  0.1553214E+03  0.7546771E-02  0.1195923E+00
          2   -1    0    0  502    0 -0.00000000000E+00  0.00000000000E+00  0.12410314216E+03  0.12410314216E+03  0.00000000000E+00 0. -1.
         21   -1    0    0  501  502  0.00000000000E+00 -0.00000000000E+00 -0.36392297174E+03  0.36392297174E+03  0.00000000000E+00 0. -1.
         24    2    1    2    0    0  0.13974427448E+03  0.61419014231E+02 -0.74884616595E+01  0.17325681133E+03  0.81615489073E+02 0.  0.
         23    2    1    2    0    0 -0.72040040197E+02 -0.27901773896E+01 -0.16660555577E+03  0.20367886089E+03  0.92358619948E+02 0.  0.
        -11    1    3    3    0    0  0.59830491726E+01  0.29554910965E+02 -0.18392505841E+02  0.35321012311E+02  0.00000000000E+00 0.  1.
         12    1    3    3    0    0  0.13376122531E+03  0.31864103266E+02  0.10904044182E+02  0.13793579902E+03  0.00000000000E+00 0. -1.
        -13    1    4    4    0    0 -0.50179242209E+02 -0.27589025507E+02 -0.16003771000E+03  0.16997405478E+03  0.00000000000E+00 0. -1.
         13    1    4    4    0    0 -0.21860797988E+02  0.24798848117E+02 -0.65678457679E+01  0.33704806106E+02  0.00000000000E+00 0.  1.
          1    1    1    2  501    0 -0.67704234282E+02 -0.58628836841E+02 -0.65725812149E+02  0.11109044168E+03  0.00000000000E+00 0. -1.
<scales pt_clust_5="13000.00000" pt_clust_6="13000.00000" pt_clust_7="13000.00000" pt_clust_8="13000.00000" pt_clust_9="89.56117"></scales>
<clustering>
<clus scale="   81.615">  5  6 -1 -1</clus>
<clus scale="   89.561">  2  9  1 -1</clus>
<clus scale="   92.359">  7  8 -1 -1</clus>
<clus scale="  149.183">  1  5  2 -1</clus>
<clus scale="   89.561">  2  5  1 -1</clus>
</clustering>
</event>
<event>
 9    2  0.6175212E-005  0.9859191E+02  0.7546771E-02  0.1289570E+00
          2   -1    0    0  502    0 -0.00000000000E+00  0.00000000000E+00  0.31910456266E+03  0.31910456266E+03  0.00000000000E+00 0. -1.
         21   -1    0    0  501  502  0.00000000000E+00 -0.00000000000E+00 -0.70572482616E+02  0.70572482616E+02  0.00000000000E+00 0. -1.
         24    2    1    2    0    0 -0.14866703896E+02  0.41608880930E+02  0.13623519491E+03  0.16425256966E+03  0.80414926790E+02 0.  0.
         23    2    1    2    0    0  0.12822731552E+02  0.58198693380E+01 -0.10339619561E+02  0.93920192573E+02  0.92281100539E+02 0.  0.
        -13    1    3    3    0    0  0.23944259196E+02 -0.95978677881E+01  0.25789104610E+02  0.36476355782E+02  0.00000000000E+00 0.  1.
         14    1    3    3    0    0 -0.38810963093E+02  0.51206748718E+02  0.11044609030E+03  0.12777621388E+03  0.00000000000E+00 0. -1.
        -11    1    4    4    0    0 -0.31759485594E+02  0.27477080976E+02  0.43613856360E+01  0.42221754924E+02  0.00000000000E+00 0.  1.
         11    1    4    4    0    0  0.44582217146E+02 -0.21657211638E+02 -0.14701005197E+02  0.51698437649E+02  0.00000000000E+00 0. -1.
          1    1    1    2  501    0  0.20439723446E+01 -0.47428750268E+02  0.12263650470E+03  0.13150428304E+03  0.00000000000E+00 0. -1.
<scales pt_clust_5="13000.00000" pt_clust_6="13000.00000" pt_clust_7="13000.00000" pt_clust_8="13000.00000" pt_clust_9="47.47280"></scales>
<clustering>
<clus scale="   47.473">  2  9  1 -1</clus>
<clus scale="   80.415">  5  6 -1 -1</clus>
<clus scale="   87.585">  1  5  2 -1</clus>
<clus scale="   92.281">  7  8 -1 -1</clus>
<clus scale="   47.473">  2  5  1 -1</clus>
</clustering>
</event>
<event>
 9    2  0.6175212E-005  0.1035122E+03  0.7546771E-02  0.1278339E+00
         21   -1    0    0  501  502  0.00000000000E+00  0.00000000000E+00  0.23736034519E+03  0.23736034519E+03  0.00000000000E+00 0.  1.
         -1   -1    0    0    0  501 -0.00000000000E+00 -0.00000000000E+00 -0.11927615326E+03  0.11927615326E+03  0.00000000000E+00 0.  1.
         24    2    1    2    0    0  0.36631975585E+02 -0.19030595453E+02 -0.44867665452E+02  0.10293192283E+03  0.82932551726E+02 0.  0.
         23    2    1    2    0    0 -0.23227778032E+02  0.51170262751E+02  0.26213594702E+02  0.11260183573E+03  0.93989868605E+02 0.  0.
        -11    1    3    3    0    0  0.40546406388E+02 -0.26493734521E+02 -0.65026455725E+02  0.81082482596E+02  0.00000000000E+00 0.  1.
         12    1    3    3    0    0 -0.39144308025E+01  0.74631390679E+01  0.20158790273E+02  0.21849440234E+02  0.00000000000E+00 0. -1.
        -13    1    4    4    0    0 -0.46046670489E+01  0.71460017276E+02  0.39764115413E+02  0.81908008780E+02  0.00000000000E+00 0.  1.
         13    1    4    4    0    0 -0.18623110983E+02 -0.20289754525E+02 -0.13550520711E+02  0.30693826951E+02  0.00000000000E+00 0. -1.
         -2    1    1    2    0  502 -0.13404197553E+02 -0.32139667298E+02  0.13673826268E+03  0.14110273990E+03  0.00000000000E+00 0.  1.
<scales pt_clust_5="13000.00000" pt_clust_6="13000.00000" pt_clust_7="13000.00000" pt_clust_8="13000.00000" pt_clust_9="34.82285"></scales>
<clustering>
<clus scale="   34.823">  1  9  2 -1</clus>
<clus scale="   82.933">  5  6 -1 -1</clus>
<clus scale="   93.587">  2  5  1 -1</clus>
<clus scale="   93.990">  7  8 -1 -1</clus>
<clus scale="   34.823">  1  5  2 -1</clus>
</clustering>
</event>
<event>
 9    2  0.6175212E-005  0.9348962E+02  0.7546771E-02  0.1308758E+00
         21   -1    0    0  501  502  0.00000000000E+00  0.00000000000E+00  0.25552770497E+03  0.25552770497E+03  0.00000000000E+00 0.  1.
         -1   -1    0    0    0  501 -0.00000000000E+00 -0.00000000000E+00 -0.76703203831E+02  0.76703203831E+02  0.00000000000E+00 0.  1.
         23    2    1    2    0    0  0.66781669297E+00 -0.30800358903E+02  0.24773440555E+01  0.98013482364E+02  0.93012888375E+02 0.  0.
         24    2    1    2    0    0 -0.17268371117E+02 -0.32559372670E+02  0.58651280828E+02  0.99523873214E+02  0.71461312659E+02 0.  0.
        -13    1    4    4    0    0  0.20896867592E+02 -0.18296979212E+01 -0.25422821303E+01  0.21130311594E+02  0.00000000000E+00 0.  1.
         14    1    4    4    0    0 -0.38165238709E+02 -0.30729674749E+02  0.61193562958E+02  0.78393561620E+02  0.00000000000E+00 0. -1.
        -11    1    3    3    0    0  0.35077801494E+02 -0.47721258280E+02  0.58793603364E+01  0.59517539662E+02  0.00000000000E+00 0.  1.
         11    1    3    3    0    0 -0.34409984801E+02  0.16920899377E+02 -0.34020162809E+01  0.38495942702E+02  0.00000000000E+00 0. -1.
         -2    1    1    2    0  502  0.16600554425E+02  0.63359731574E+02  0.11769587626E+03  0.13469355322E+03  0.00000000000E+00 0.  1.
<scales pt_clust_5="13000.00000" pt_clust_6="13000.00000" pt_clust_7="13000.00000" pt_clust_8="13000.00000" pt_clust_9="65.49835"></scales>
<clustering>
<clus scale="   65.498">  1  9  2 -1</clus>
<clus scale="   71.461">  5  6 -1 -1</clus>
<clus scale="   72.081">  1  5  2 -1</clus>
<clus scale="   93.013">  7  8 -1 -1</clus>
<clus scale="   65.498">  1  5  2 -1</clus>
</clustering>
</event>
<event>
 9    2  0.6175212E-005  0.9772240E+02  0.7546771E-02  0.1289923E+00
          2   -1    0    0  502    0 -0.00000000000E+00  0.00000000000E+00  0.76447265952E+02  0.76447265952E+02  0.00000000000E+00 0. -1.
         21   -1    0    0  501  502  0.00000000000E+00 -0.00000000000E+00 -0.24234902888E+03  0.24234902888E+03  0.00000000000E+00 0.  1.
         23    2    1    2    0    0 -0.11216080578E+02 -0.31993668205E+02  0.43323803706E+01  0.97684843316E+02  0.91510457464E+02 0.  0.
         24    2    1    2    0    0 -0.20560182573E+02  0.41426337972E+02 -0.16095462903E+03  0.18669030186E+03  0.82510687887E+02 0.  0.
        -13    1    4    4    0    0  0.20478763725E+02  0.30895870101E+02 -0.12728587458E+03  0.13257310595E+03  0.00000000000E+00 0.  1.
         14    1    4    4    0    0 -0.41038946298E+02  0.10530467870E+02 -0.33668754454E+02  0.54117195912E+02  0.00000000000E+00 0. -1.
        -11    1    3    3    0    0  0.13124896845E+02 -0.59453826075E+02  0.33142788158E+01  0.60975444207E+02  0.00000000000E+00 0.  1.
         11    1    3    3    0    0 -0.24340977424E+02  0.27460157870E+02  0.10181015548E+01  0.36709399109E+02  0.00000000000E+00 0. -1.
          1    1    1    2  501    0  0.31776263151E+02 -0.94326697672E+01 -0.92795142653E+01  0.34421149658E+02  0.00000000000E+00 0. -1.
<scales pt_clust_5="13000.00000" pt_clust_6="13000.00000" pt_clust_7="13000.00000" pt_clust_8="13000.00000" pt_clust_9="33.14675"></scales>
<clustering>
<clus scale="   33.147">  2  9  1 -1</clus>
<clus scale="   82.511">  5  6 -1 -1</clus>
<clus scale="   89.351">  2  5  1 -1</clus>
<clus scale="   91.510">  7  8 -1 -1</clus>
<clus scale="   33.147">  2  5  1 -1</clus>
</clustering>
</event>
<event>
 9    2  0.6175212E-005  0.1011970E+03  0.7546771E-02  0.1284669E+00
          2   -1    0    0  502    0 -0.00000000000E+00  0.00000000000E+00  0.89849606409E+03  0.89849606409E+03  0.00000000000E+00 0. -1.
         21   -1    0    0  501  502  0.00000000000E+00 -0.00000000000E+00 -0.24662309371E+02  0.24662309371E+02  0.00000000000E+00 0.  1.
         24    2    1    2    0    0  0.11368535530E+01  0.46478349273E+02  0.73098218395E+03  0.73645749158E+03  0.76636507442E+02 0.  0.
         23    2    1    2    0    0 -0.17550342861E+02 -0.34215038773E+02  0.12737794035E+03  0.16102551131E+03  0.90693947928E+02 0.  0.
        -13    1    3    3    0    0  0.41480141496E+01  0.36186934326E+02  0.12058281200E+03  0.12596394241E+03  0.00000000000E+00 0.  1.
         14    1    3    3    0    0 -0.30111605966E+01  0.10291414947E+02  0.61039937194E+03  0.61049354917E+03  0.00000000000E+00 0. -1.
        -13    1    4    4    0    0  0.28982291192E+02  0.12217735851E+02  0.54137506182E+02  0.62610828518E+02  0.00000000000E+00 0. -1.
         13    1    4    4    0    0 -0.46532634053E+02 -0.46432774624E+02  0.73240434168E+02  0.98414682788E+02  0.00000000000E+00 0.  1.
          1    1    1    2  501    0  0.16413489308E+02 -0.12263310500E+02  0.15473630426E+02  0.25675370577E+02  0.00000000000E+00 0. -1.
<scales pt_clust_5="13000.00000" pt_clust_6="13000.00000" pt_clust_7="13000.00000" pt_clust_8="13000.00000" pt_clust_9="20.48881"></scales>
<clustering>
<clus scale="   20.489">  2  9  1 -1</clus>
<clus scale="   76.637">  5  6 -1 -1</clus>
<clus scale="   88.818">  1  5  2 -1</clus>
<clus scale="   90.694">  7  8 -1 -1</clus>
<clus scale="   20.489">  2  5  1 -1</clus>
</clustering>
</event>
<event>
 9    2  0.6175212E-005  0.1391959E+03  0.7546771E-02  0.1215548E+00
         -1   -1    0    0    0  501 -0.00000000000E+00  0.00000000000E+00  0.85970369300E+02  0.85970369300E+02  0.00000000000E+00 0.  1.
         21   -1    0    0  501  502  0.00000000000E+00 -0.00000000000E+00 -0.30578353530E+03  0.30578353530E+03  0.00000000000E+00 0. -1.
         23    2    1    2    0    0  0.11347672630E+03  0.41548319093E+02 -0.40319008205E+02  0.15340681597E+03  0.85468114130E+02 0.  0.
         24    2    1    2    0    0 -0.88768757735E+02 -0.18373331493E+02 -0.15486799515E+03  0.19646616639E+03  0.79983666795E+02 0.  0.
        -11    1    4    4    0    0 -0.62887117644E+02  0.96697110864E+01 -0.39357253762E+02  0.74815013880E+02  0.00000000000E+00 0.  1.
         12    1    4    4    0    0 -0.25881640091E+02 -0.28043042580E+02 -0.11551074139E+03  0.12165115251E+03  0.00000000000E+00 0. -1.
        -11    1    3    3    0    0  0.64196426485E+02  0.59427039660E+02 -0.34330597057E+00  0.87480695443E+02  0.00000000000E+00 0.  1.
         11    1    3    3    0    0  0.49280299816E+02 -0.17878720567E+02 -0.39975702234E+02  0.65926120530E+02  0.00000000000E+00 0. -1.
         -2    1    1    2    0  502 -0.24707968566E+02 -0.23174987599E+02 -0.24626162644E+02  0.41880922237E+02  0.00000000000E+00 0.  1.
<scales pt_clust_5="13000.00000" pt_clust_6="13000.00000" pt_clust_7="13000.00000" pt_clust_8="13000.00000" pt_clust_9="33.87571"></scales>
<clustering>
<clus scale="   33.876">  2  9  1 -1</clus>
<clus scale="   79.984">  5  6 -1 -1</clus>
<clus scale="   85.468">  7  8 -1 -1</clus>
<clus scale="  135.897">  2  5  1 -1</clus>
<clus scale="   33.876">  2  5  1 -1</clus>
</clustering>
</event>
<event>
 9    2  0.6175212E-005  0.1224882E+03  0.7546771E-02  0.1247570E+00
         21   -1    0    0  501  502  0.00000000000E+00  0.00000000000E+00  0.26389512795E+02  0.26389512795E+02  0.00000000000E+00 0.  1.
          2   -1    0    0  502    0 -0.00000000000E+00 -0.00000000000E+00 -0.96986539391E+03  0.96986539391E+03  0.00000000000E+00 0. -1.
         24    2    1    2    0    0 -0.64390431729E+02  0.40081074104E+01 -0.27147812554E+03  0.29040256583E+03  0.80443054234E+02 0.  0.
         23    2    1    2    0    0 -0.25197255549E+02 -0.58424246902E+02 -0.36343126582E+03  0.37996839136E+03  0.90804180206E+02 0.  0.
        -11    1    3    3    0    0 -0.81994786780E+02 -0.46592245275E+01 -0.23567686502E+03  0.24957651760E+03  0.00000000000E+00 0.  1.
         12    1    3    3    0    0  0.17604355051E+02  0.86673319379E+01 -0.35801260519E+02  0.40826048234E+02  0.00000000000E+00 0. -1.
        -11    1    4    4    0    0  0.15237622493E+02  0.17058926644E+02 -0.48836944809E+02  0.53928093752E+02  0.00000000000E+00 0. -1.
         11    1    4    4    0    0 -0.40434878042E+02 -0.75483173546E+02 -0.31459432101E+03  0.32604029760E+03  0.00000000000E+00 0.  1.
          1    1    1    2  501    0  0.89587687278E+02  0.54416139492E+02 -0.30856648976E+03  0.32588394952E+03  0.00000000000E+00 0. -1.
<scales pt_clust_5="13000.00000" pt_clust_6="13000.00000" pt_clust_7="13000.00000" pt_clust_8="13000.00000" pt_clust_9="82.20692"></scales>
<clustering>
<clus scale="   80.443">  5  6 -1 -1</clus>
<clus scale="   90.804">  7  8 -1 -1</clus>
<clus scale="  103.118">  2  5  1 -1</clus>
<clus scale="   82.207">  1  9  2 -1</clus>
<clus scale="   82.207">  1  5  2 -1</clus>
</clustering>
</event>
<event>
 9    2  0.6175212E-005  0.1210405E+03  0.7546771E-02  0.1244451E+00
         21   -1    0    0  501  502  0.00000000000E+00  0.00000000000E+00  0.11673287368E+03  0.11673287368E+03  0.00000000000E+00 0. -1.
          2   -1    0    0  502    0 -0.00000000000E+00 -0.00000000000E+00 -0.10221683309E+04  0.10221683309E+04  0.00000000000E+00 0. -1.
         24    2    1    2    0    0 -0.71010486285E+02  0.31197439594E+02 -0.91335932216E+03  0.92028377522E+03  0.81738645452E+02 0.  0.
         23    2    1    2    0    0  0.12577117440E+03 -0.15332954621E+02  0.26693433618E+02  0.15859483731E+03  0.91576717646E+02 0.  0.
        -11    1    3    3    0    0 -0.44528429479E+02 -0.21331075879E+02 -0.29188285345E+03  0.29602938363E+03  0.00000000000E+00 0.  1.
         12    1    3    3    0    0 -0.26482056806E+02  0.52528515473E+02 -0.62147646870E+03  0.62425439159E+03  0.00000000000E+00 0. -1.
        -11    1    4    4    0    0  0.88159259999E+02  0.23293117232E+02  0.44966528439E+02  0.10166913550E+03  0.00000000000E+00 0. -1.
         11    1    4    4    0    0  0.37611914405E+02 -0.38626071853E+02 -0.18273094821E+02  0.56925701808E+02  0.00000000000E+00 0.  1.
          1    1    1    2  501    0 -0.54760688119E+02 -0.15864484973E+02 -0.18769568657E+02  0.60022592033E+02  0.00000000000E+00 0. -1.
<scales pt_clust_5="13000.00000" pt_clust_6="13000.00000" pt_clust_7="13000.00000" pt_clust_8="13000.00000" pt_clust_9="57.01241"></scales>
<clustering>
<clus scale="   57.012">  1  9  2 -1</clus>
<clus scale="   81.739">  5  6 -1 -1</clus>
<clus scale="   91.577">  7  8 -1 -1</clus>
<clus scale="  113.779">  2  5  1 -1</clus>
<clus scale="   57.012">  1  5  2 -1</clus>
</clustering>
</event>
<event>
 9    2  0.6175212E-005  0.1117952E+03  0.7546771E-02  0.1260318E+00
         21   -1    0    0  501  502  0.00000000000E+00  0.00000000000E+00  0.17019566220E+03  0.17019566220E+03  0.00000000000E+00 0. -1.
          2   -1    0    0  502    0 -0.00000000000E+00 -0.00000000000E+00 -0.21649057762E+03  0.21649057762E+03  0.00000000000E+00 0. -1.
         24    2    1    2    0    0  0.40930021731E+02 -0.44092479278E+02 -0.13648043535E+03  0.17027340427E+03  0.82138356197E+02 0.  0.
         23    2    1    2    0    0 -0.66272362777E+02  0.58796478242E+02  0.53082563900E+01  0.12662089994E+03  0.90308486828E+02 0.  0.
        -13    1    3    3    0    0  0.26175956209E+02 -0.85541364528E+01  0.95306940967E+00  0.27554714210E+02  0.00000000000E+00 0.  1.
         14    1    3    3    0    0  0.14754065522E+02 -0.35538342825E+02 -0.13743350476E+03  0.14271869006E+03  0.00000000000E+00 0. -1.
        -13    1    4    4    0    0 -0.17208018134E+02  0.65600151645E+02  0.26408990977E+02  0.72780015034E+02  0.00000000000E+00 0.  1.
         13    1    4    4    0    0 -0.49064344643E+02 -0.68036734024E+01 -0.21100734587E+02  0.53840884903E+02  0.00000000000E+00 0. -1.
          1    1    1    2  501    0  0.25342341047E+02 -0.14703998964E+02  0.84877263547E+02  0.89791935621E+02  0.00000000000E+00 0. -1.
<scales pt_clust_5="13000.00000" pt_clust_6="13000.00000" pt_clust_7="13000.00000" pt_clust_8="13000.00000" pt_clust_9="29.29918"></scales>
<clustering>
<clus scale="   29.299">  1  9  2 -1</clus>
<clus scale="   82.138">  5  6 -1 -1</clus>
<clus scale="   90.308">  7  8 -1 -1</clus>
<clus scale="  105.306">  2  5  1 -1</clus>
<clus scale="   29.299">  1  5  2 -1</clus>
</clustering>
</event>
<event>
 9    2  0.6175212E-005  0.1525479E+03  0.7546771E-02  0.1221859E+00
         -1   -1    0    0    0  501 -0.00000000000E+00  0.00000000000E+00  0.73694174558E+02  0.73694174558E+02  0.00000000000E+00 0.  1.
         21   -1    0    0  501  502  0.00000000000E+00 -0.00000000000E+00 -0.63045231670E+03  0.63045231670E+03  0.00000000000E+00 0. -1.
         24    2    1    2    0    0  0.43605540582E+02 -0.11188589846E+02 -0.16249624749E+03  0.18595207811E+03  0.78399726981E+02 0.  0.
         23    2    1    2    0    0 -0.15358519628E+03 -0.13148101639E+02 -0.10827285612E+03  0.21082244082E+03  0.94666810902E+02 0.  0.
        -13    1    3    3    0    0  0.44205213322E+02 -0.38980669826E+02 -0.83480068421E+02  0.10218862622E+03  0.00000000000E+00 0.  1.
         14    1    3    3    0    0 -0.59967273995E+00  0.27792079980E+02 -0.79016179070E+02  0.83763451886E+02  0.00000000000E+00 0. -1.
        -11    1    4    4    0    0 -0.27381402372E+02  0.30074407521E+02 -0.28089715409E+01  0.40768879121E+02  0.00000000000E+00 0.  1.
         11    1    4    4    0    0 -0.12620379391E+03 -0.43222509160E+02 -0.10546388458E+03  0.17005356170E+03  0.00000000000E+00 0. -1.
         -2    1    1    2    0  502  0.10997965570E+03  0.24336691485E+02 -0.28598903853E+03  0.30737197233E+03  0.00000000000E+00 0.  1.
<scales pt_clust_5="13000.00000" pt_clust_6="13000.00000" pt_clust_7="13000.00000" pt_clust_8="13000.00000" pt_clust_9="119.62043"></scales>
<clustering>
<clus scale="   78.400">  5  6 -1 -1</clus>
<clus scale="   90.405">  1  5  2 -1</clus>
<clus scale="   94.667">  7  8 -1 -1</clus>
<clus scale="  119.620">  2  9  1 -1</clus>
<clus scale="  119.620">  2  5  1 -1</clus>
</clustering>
</event>
<event>
 9    2  0.6175212E-005  0.9577812E+02  0.7546771E-02  0.1294566E+00
          4   -1    0    0  502    0 -0.00000000000E+00  0.00000000000E+00  0.89086969880E+02  0.89086969880E+02  0.00000000000E+00 0. -1.
         21   -1    0    0  501  502  0.00000000000E+00 -0.00000000000E+00 -0.21634789232E+03  0.21634789232E+03  0.00000000000E+00 0. -1.
         24    2    1    2    0    0 -0.97519102063E+01 -0.42601507885E+02  0.43613122540E+01  0.92187844517E+02  0.81053003679E+02 0.  0.
         23    2    1    2    0    0  0.41303319401E+02 -0.11318877376E+02 -0.54189095814E+02  0.11375435280E+03  0.90385361077E+02 0.  0.
        -11    1    3    3    0    0 -0.25364054019E+02  0.22950513746E+01 -0.25510688437E+02  0.36047159688E+02  0.00000000000E+00 0.  1.
         12    1    3    3    0    0  0.15612143812E+02 -0.44896559260E+02  0.29872000691E+02  0.56140684829E+02  0.00000000000E+00 0. -1.
        -11    1    4    4    0    0  0.33732521329E+02  0.77442606867E+01  0.17786650210E+02  0.38912999043E+02  0.00000000000E+00 0.  1.
         11    1    4    4    0    0  0.75707980718E+01 -0.19063138063E+02 -0.71975746025E+02  0.74841353756E+02  0.00000000000E+00 0. -1.
          3    1    1    2  501    0 -0.31551409194E+02  0.53920385262E+02 -0.77433138877E+02  0.99492664881E+02  0.00000000000E+00 0. -1.
<scales pt_clust_5="13000.00000" pt_clust_6="13000.00000" pt_clust_7="13000.00000" pt_clust_8="13000.00000" pt_clust_9="62.47319"></scales>
<clustering>
<clus scale="   62.473">  2  9  1 -1</clus>
<clus scale="   81.053">  5  6 -1 -1</clus>
<clus scale="   87.026">  1  5  2 -1</clus>
<clus scale="   90.385">  7  8 -1 -1</clus>
<clus scale="   62.473">  2  5  1 -1</clus>
</clustering>
</event>
<event>
 9    2  0.6175212E-005  0.1241053E+03  0.7546771E-02  0.1240030E+00
          2   -1    0    0  502    0 -0.00000000000E+00  0.00000000000E+00  0.31720253254E+03  0.31720253254E+03  0.00000000000E+00 0. -1.
         21   -1    0    0  501  502  0.00000000000E+00 -0.00000000000E+00 -0.22368637072E+03  0.22368637072E+03  0.00000000000E+00 0. -1.
         24    2    1    2    0    0 -0.57768426910E+02  0.51066862293E+02  0.22184958516E+03  0.24816259987E+03  0.80140014737E+02 0.  0.
         23    2    1    2    0    0  0.77880139261E+02 -0.83583330177E+02  0.11986771348E+02  0.14729054887E+03  0.92191832199E+02 0.  0.
        -11    1    3    3    0    0 -0.56609857772E+02  0.42101992681E+02  0.82633454627E+02  0.10865330924E+03  0.00000000000E+00 0.  1.
         12    1    3    3    0    0 -0.11585691381E+01  0.89648696124E+01  0.13921613054E+03  0.13950929063E+03  0.00000000000E+00 0. -1.
        -13    1    4    4    0    0 -0.14397958343E+02 -0.35570107812E+02 -0.12624626964E+02  0.40396967462E+02  0.00000000000E+00 0.  1.
         13    1    4    4    0    0  0.92278097603E+02 -0.48013222366E+02  0.24611398312E+02  0.10689358141E+03  0.00000000000E+00 0. -1.
          1    1    1    2  501    0 -0.20111712351E+02  0.32516467884E+02 -0.14032019468E+03  0.14543575452E+03  0.00000000000E+00 0. -1.
<scales pt_clust_5="13000.00000" pt_clust_6="13000.00000" pt_clust_7="13000.00000" pt_clust_8="13000.00000" pt_clust_9="38.23351"></scales>
<clustering>
<clus scale="   38.234">  2  9  1 -1</clus>
<clus scale="   80.140">  5  6 -1 -1</clus>
<clus scale="   92.192">  7  8 -1 -1</clus>
<clus scale="  115.435">  1  5  2 -1</clus>
<clus scale="   38.234">  2  5  1 -1</clus>
</clustering>
</event>
<event>
 9    2  0.6175212E-005  0.2673573E+03  0.7546771E-02  0.1103319E+00
          2   -1    0    0  502    0 -0.00000000000E+00  0.00000000000E+00  0.28783558161E+03  0.28783558161E+03  0.00000000000E+00 0. -1.
         21   -1    0    0  501  502  0.00000000000E+00 -0.00000000000E+00 -0.26875735213E+03  0.26875735213E+03  0.00000000000E+00 0.  1.
         23    2    1    2    0    0 -0.90453973479E+02  0.24348366524E+03  0.44029740422E+02  0.27860018075E+03  0.90626850965E+02 0.  0.
         24    2    1    2    0    0  0.94171809465E+02 -0.22254408146E+03 -0.29879676266E+02  0.25616214863E+03  0.79574200897E+02 0.  0.
        -11    1    4    4    0    0  0.28911659239E+02 -0.15603740476E+03 -0.36203062818E+02  0.16277044412E+03  0.00000000000E+00 0.  1.
         12    1    4    4    0    0  0.65260150226E+02 -0.66506676700E+02  0.63233865519E+01  0.93391704507E+02  0.00000000000E+00 0. -1.
        -13    1    3    3    0    0 -0.13956266317E+02  0.98302863652E+02 -0.22026503338E+02  0.10170249368E+03  0.00000000000E+00 0.  1.
         13    1    3    3    0    0 -0.76497707162E+02  0.14518080159E+03  0.66056243761E+02  0.17689768707E+03  0.00000000000E+00 0. -1.
          1    1    1    2  501    0 -0.37178359867E+01 -0.20939583785E+02  0.49281653270E+01  0.21830604366E+02  0.00000000000E+00 0. -1.
<scales pt_clust_5="13000.00000" pt_clust_6="13000.00000" pt_clust_7="13000.00000" pt_clust_8="13000.00000" pt_clust_9="21.26709"></scales>
<clustering>
<clus scale="   21.267">  2  9  1 -1</clus>
<clus scale="   79.574">  5  6 -1 -1</clus>
<clus scale="   90.627">  7  8 -1 -1</clus>
<clus scale="  263.816">  2  5  1 -1</clus>
<clus scale="   21.267">  2  5  1 -1</clus>
</clustering>
</event>
<event>
 9    2  0.6175212E-005  0.9734356E+02  0.7546771E-02  0.1289028E+00
          2   -1    0    0  502    0 -0.00000000000E+00  0.00000000000E+00  0.27830878604E+03  0.27830878604E+03  0.00000000000E+00 0. -1.
         21   -1    0    0  501  502  0.00000000000E+00 -0.00000000000E+00 -0.66488358150E+02  0.66488358150E+02  0.00000000000E+00 0.  1.
         24    2    1    2    0    0 -0.27014467744E+02  0.26502490740E+02  0.17066465597E+03  0.19451272691E+03  0.85303063527E+02 0.  0.
         23    2    1    2    0    0  0.30025934311E+02 -0.55790430351E+01  0.66812625184E+02  0.11704086581E+03  0.91115064249E+02 0.  0.
        -11    1    3    3    0    0 -0.18349281550E+02  0.56391332462E+02  0.13323367141E+03  0.14583514565E+03  0.00000000000E+00 0.  1.
         12    1    3    3    0    0 -0.86651861940E+01 -0.29888841722E+02  0.37430984562E+02  0.48677581252E+02  0.00000000000E+00 0. -1.
        -11    1    4    4    0    0 -0.29980652786E+02  0.77265712012E+01  0.80122967848E+01  0.31980249276E+02  0.00000000000E+00 0.  1.
         11    1    4    4    0    0  0.60006587097E+02 -0.13305614236E+02  0.58800328399E+02  0.85060616534E+02  0.00000000000E+00 0. -1.
          1    1    1    2  501    0 -0.30114665668E+01 -0.20923447705E+02 -0.25656853270E+02  0.33243551472E+02  0.00000000000E+00 0. -1.
<scales pt_clust_5="13000.00000" pt_clust_6="13000.00000" pt_clust_7="13000.00000" pt_clust_8="13000.00000" pt_clust_9="21.13905"></scales>
<clustering>
<clus scale="   21.139">  2  9  1 -1</clus>
<clus scale="   85.303">  5  6 -1 -1</clus>
<clus scale="   91.115">  7  8 -1 -1</clus>
<clus scale="   91.926">  1  5  2 -1</clus>
<clus scale="   21.139">  2  5  1 -1</clus>
</clustering>
</event>
<event>
 9    2  0.6175212E-005  0.1038550E+03  0.7546771E-02  0.1276941E+00
         -1   -1    0    0    0  501 -0.00000000000E+00  0.00000000000E+00  0.11197797975E+03  0.11197797975E+03  0.00000000000E+00 0.  1.
         21   -1    0    0  501  502  0.00000000000E+00 -0.00000000000E+00 -0.21698560933E+03  0.21698560933E+03  0.00000000000E+00 0.  1.
         23    2    1    2    0    0 -0.10689827203E+02  0.54749621889E+02  0.99618077927E+01  0.10848821679E+03  0.92513037274E+02 0.  0.
         24    2    1    2    0    0  0.61982563527E+02 -0.64635612338E+01 -0.25505266770E+02  0.10660559458E+03  0.82647555058E+02 0.  0.
        -13    1    4    4    0    0  0.81585798586E+02 -0.99486291979E+01 -0.27321656302E+02  0.86612300841E+02  0.00000000000E+00 0.  1.
         14    1    4    4    0    0 -0.19603235059E+02  0.34850679641E+01  0.18163895322E+01  0.19993293737E+02  0.00000000000E+00 0. -1.
        -11    1    3    3    0    0  0.22543394997E+02  0.48770070304E+01  0.36313761384E+02  0.43019520237E+02  0.00000000000E+00 0.  1.
         11    1    3    3    0    0 -0.33233222200E+02  0.49872614858E+02 -0.26351953591E+02  0.65468696555E+02  0.00000000000E+00 0. -1.
         -2    1    1    2    0  502 -0.51292736324E+02 -0.48286060655E+02 -0.89464170605E+02  0.11386977771E+03  0.00000000000E+00 0.  1.
<scales pt_clust_5="13000.00000" pt_clust_6="13000.00000" pt_clust_7="13000.00000" pt_clust_8="13000.00000" pt_clust_9="70.44493"></scales>
<clustering>
<clus scale="   70.445">  2  9  1 -1</clus>
<clus scale="   82.648">  5  6 -1 -1</clus>
<clus scale="   92.513">  7  8 -1 -1</clus>
<clus scale="   95.173">  2  5  1 -1</clus>
<clus scale="   70.445">  2  5  1 -1</clus>
</clustering>
</event>
<event>
 9    2  0.6175212E-005  0.4201097E+03  0.7546771E-02  0.1037241E+00
         21   -1    0    0  501  502  0.00000000000E+00  0.00000000000E+00  0.21248994732E+03  0.21248994732E+03  0.00000000000E+00 0. -1.
          2   -1    0    0  502    0 -0.00000000000E+00 -0.00000000000E+00 -0.13290788448E+04  0.13290788448E+04  0.00000000000E+00 0. -1.
         23    2    1    2    0    0  0.35029715956E+03 -0.20599329947E+03 -0.66316873356E+03  0.78346212212E+03  0.94227321995E+02 0.  0.
         24    2    1    2    0    0 -0.40395633756E+03  0.12886924636E+03 -0.17800995276E+03  0.46711146152E+03  0.81960776512E+02 0.  0.
        -11    1    4    4    0    0 -0.12425850538E+03  0.75180547316E+02 -0.40052554399E+02  0.15065356938E+03  0.00000000000E+00 0.  1.
         12    1    4    4    0    0 -0.27969783217E+03  0.53688699046E+02 -0.13795739836E+03  0.31645789213E+03  0.00000000000E+00 0. -1.
        -13    1    3    3    0    0  0.25835864583E+03 -0.15592798207E+03 -0.40650319212E+03  0.50626827934E+03  0.00000000000E+00 0. -1.
         13    1    3    3    0    0  0.91938513739E+02 -0.50065317399E+02 -0.25666554143E+03  0.27719384278E+03  0.00000000000E+00 0.  1.
          1    1    1    2  501    0  0.53659177993E+02  0.77124053104E+02 -0.27541021121E+03  0.29099520853E+03  0.00000000000E+00 0. -1.
<scales pt_clust_5="13000.00000" pt_clust_6="13000.00000" pt_clust_7="13000.00000" pt_clust_8="13000.00000" pt_clust_9="93.95443"></scales>
<clustering>
<clus scale="   81.961">  5  6 -1 -1</clus>
<clus scale="   93.954">  1  9  2 -1</clus>
<clus scale="   94.227">  7  8 -1 -1</clus>
<clus scale="  417.530">  1  5  2 -1</clus>
<clus scale="   93.954">  1  5  2 -1</clus>
</clustering>
</event>
<event>
 9    2  0.6175212E-005  0.1968776E+03  0.7546771E-02  0.1185515E+00
          2   -1    0    0  502    0 -0.00000000000E+00  0.00000000000E+00  0.44373504948E+03  0.44373504948E+03  0.00000000000E+00 0. -1.
         21   -1    0    0  501  502  0.00000000000E+00 -0.00000000000E+00 -0.14169412784E+03  0.14169412784E+03  0.00000000000E+00 0.  1.
         23    2    1    2    0    0  0.89545747282E+01 -0.57951337783E+01  0.12887551171E+03  0.15844065828E+03  0.91546582100E+02 0.  0.
         24    2    1    2    0    0  0.33178819355E+02  0.17977027412E+03  0.14359782684E+03  0.24555860330E+03  0.79123361088E+02 0.  0.
        -13    1    4    4    0    0  0.47394225482E+02  0.86245690953E+02  0.42774352110E+02  0.10730413326E+03  0.00000000000E+00 0.  1.
         14    1    4    4    0    0 -0.14215406127E+02  0.93524583163E+02  0.10082347473E+03  0.13825447003E+03  0.00000000000E+00 0. -1.
        -11    1    3    3    0    0 -0.27336502141E+02  0.81505540234E+01  0.11283219744E+03  0.11638221797E+03  0.00000000000E+00 0.  1.
         11    1    3    3    0    0  0.36291076870E+02 -0.13945687802E+02  0.16043314266E+02  0.42058440309E+02  0.00000000000E+00 0. -1.
          1    1    1    2  501    0 -0.42133394084E+02 -0.17397514034E+03  0.29567583088E+02  0.18142991573E+03  0.00000000000E+00 0. -1.
<scales pt_clust_5="13000.00000" pt_clust_6="13000.00000" pt_clust_7="13000.00000" pt_clust_8="13000.00000" pt_clust_9="180.27830"></scales>
<clustering>
<clus scale="   79.123">  5  6 -1 -1</clus>
<clus scale="   91.547">  7  8 -1 -1</clus>
<clus scale="   92.166">  1  7  2 -1</clus>
<clus scale="  180.278">  2  9  1 -1</clus>
<clus scale="  180.278">  2  5  1 -1</clus>
</clustering>
</event>
<event>
 9    2  0.6175212E-005  0.1059496E+03  0.7546771E-02  0.1273216E+00
          2   -1    0    0  502    0 -0.00000000000E+00  0.00000000000E+00  0.29990726645E+03  0.29990726645E+03  0.00000000000E+00 0. -1.
         21   -1    0    0  501  502  0.00000000000E+00 -0.00000000000E+00 -0.43762461514E+02  0.43762461514E+02  0.00000000000E+00 0.  1.
         23    2    1    2    0    0  0.29859189524E+02  0.42863502264E+02  0.13283568131E+03  0.16955735203E+03  0.91517901933E+02 0.  0.
         24    2    1    2    0    0 -0.49582509053E+02 -0.28764111176E+02  0.10243249927E+03  0.14211807008E+03  0.80120719174E+02 0.  0.
        -11    1    4    4    0    0 -0.22037689892E+02 -0.40078633061E+02  0.12545970044E+02  0.47427396810E+02  0.00000000000E+00 0.  1.
         12    1    4    4    0    0 -0.27544819161E+02  0.11314521885E+02  0.89886529225E+02  0.94690673270E+02  0.00000000000E+00 0. -1.
        -13    1    3    3    0    0 -0.10860274495E+02 -0.24111209407E+02  0.41390276818E+02  0.49116707914E+02  0.00000000000E+00 0.  1.
         13    1    3    3    0    0  0.40719464018E+02  0.66974711671E+02  0.91445404493E+02  0.12044064412E+03  0.00000000000E+00 0. -1.
          1    1    1    2  501    0  0.19723319529E+02 -0.14099391087E+02  0.20876624351E+02  0.31994305846E+02  0.00000000000E+00 0. -1.
<scales pt_clust_5="13000.00000" pt_clust_6="13000.00000" pt_clust_7="13000.00000" pt_clust_8="13000.00000" pt_clust_9="24.24463"></scales>
<clustering>
<clus scale="   24.245">  2  9  1 -1</clus>
<clus scale="   80.121">  5  6 -1 -1</clus>
<clus scale="   91.518">  7  8 -1 -1</clus>
<clus scale="   96.276">  2  5  1 -1</clus>
<clus scale="   24.245">  2  5  1 -1</clus>
</clustering>
</event>
<event>
 9    2  0.6175212E-005  0.1190710E+03  0.7546771E-02  0.1258039E+00
         -1   -1    0    0    0  501 -0.00000000000E+00  0.00000000000E+00  0.91732026992E+03  0.91732026992E+03  0.00000000000E+00 0.  1.
         21   -1    0    0  501  502  0.00000000000E+00 -0.00000000000E+00 -0.32333457837E+02  0.32333457837E+02  0.00000000000E+00 0.  1.
         24    2    1    2    0    0  0.30625551719E+02  0.33705063558E+02  0.47521755331E+03  0.48388116851E+03  0.78963957195E+02 0.  0.
         23    2    1    2    0    0  0.57174355020E+02  0.20729038827E+02  0.14695834267E+03  0.18338723252E+03  0.91299083509E+02 0.  0.
        -13    1    3    3    0    0 -0.60765400781E+01  0.44135591370E+02  0.15126882668E+03  0.15769315994E+03  0.00000000000E+00 0.  1.
         14    1    3    3    0    0  0.36702091797E+02 -0.10430527812E+02  0.32394872663E+03  0.32618800857E+03  0.00000000000E+00 0. -1.
        -11    1    4    4    0    0  0.36412932361E+02  0.39914255406E+02  0.27489452171E+02  0.60619463940E+02  0.00000000000E+00 0.  1.
         11    1    4    4    0    0  0.20761422659E+02 -0.19185216578E+02  0.11946889049E+03  0.12276776858E+03  0.00000000000E+00 0. -1.
         -2    1    1    2    0  502 -0.87799906739E+02 -0.54434102385E+02  0.26281091611E+03  0.28238532673E+03  0.00000000000E+00 0.  1.
<scales pt_clust_5="13000.00000" pt_clust_6="13000.00000" pt_clust_7="13000.00000" pt_clust_8="13000.00000" pt_clust_9="76.43554"></scales>
<clustering>
<clus scale="   78.964">  5  6 -1 -1</clus>
<clus scale="   91.155">  1  5  2 -1</clus>
<clus scale="   76.436">  2  9  1 -1</clus>
<clus scale="   91.299">  7  8 -1 -1</clus>
<clus scale="   76.436">  2  5  1 -1</clus>
</clustering>
</event>
<event>
 9    2  0.6175212E-005  0.1040473E+03  0.7546771E-02  0.1281462E+00
         21   -1    0    0  501  502  0.00000000000E+00  0.00000000000E+00  0.27828797717E+02  0.27828797717E+02  0.00000000000E+00 0.  1.
         -3   -1    0    0    0  501 -0.00000000000E+00 -0.00000000000E+00 -0.60094804340E+03  0.60094804340E+03  0.00000000000E+00 0.  1.
         24    2    1    2    0    0  0.13996343227E+02  0.29877062740E+02 -0.28648848684E+03  0.29984304015E+03  0.82107607030E+02 0.  0.
         23    2    1    2    0    0 -0.25301713014E+02 -0.13421015778E+01 -0.11499478740E+03  0.15457508427E+03  0.10013829253E+03 0.  0.
        -13    1    3    3    0    0  0.42947125459E+02  0.37414686564E+02 -0.15908666130E+03  0.16897597510E+03  0.00000000000E+00 0.  1.
         14    1    3    3    0    0 -0.28950782232E+02 -0.75376238241E+01 -0.12740182554E+03  0.13086706506E+03  0.00000000000E+00 0. -1.
        -13    1    4    4    0    0 -0.23602339677E+02  0.42216973142E+02 -0.24700879981E+02  0.54309085164E+02  0.00000000000E+00 0.  1.
         13    1    4    4    0    0 -0.16993733377E+01 -0.43559074720E+02 -0.90293907418E+02  0.10026599911E+03  0.00000000000E+00 0. -1.
         -4    1    1    2    0  502  0.11305369788E+02 -0.28534961162E+02 -0.17163597144E+03  0.17435871669E+03  0.00000000000E+00 0.  1.
<scales pt_clust_5="13000.00000" pt_clust_6="13000.00000" pt_clust_7="13000.00000" pt_clust_8="13000.00000" pt_clust_9="30.69294"></scales>
<clustering>
<clus scale="   30.693">  1  9  2 -1</clus>
<clus scale="   82.108">  5  6 -1 -1</clus>
<clus scale="   86.832">  2  5  1 -1</clus>
<clus scale="  100.138">  7  8 -1 -1</clus>
<clus scale="   30.693">  1  5  2 -1</clus>
</clustering>
</event>
<event>
 9    2  0.6175212E-005  0.8271651E+02  0.7546771E-02  0.1328071E+00
         21   -1    0    0  501  502  0.00000000000E+00  0.00000000000E+00  0.62534799694E+02  0.62534799694E+02  0.00000000000E+00 0.  1.
          2   -1    0    0  502    0 -0.00000000000E+00 -0.00000000000E+00 -0.28832925447E+03  0.28832925447E+03  0.00000000000E+00 0. -1.
         24    2    1    2    0    0 -0.12489397509E+02 -0.20648323462E+02 -0.16465241330E+03  0.18486741365E+03  0.80518352645E+02 0.  0.
         23    2    1    2    0    0 -0.41781158361E+02  0.11348636541E+02  0.56386445843E+00  0.83295998204E+02  0.71157913322E+02 0.  0.
        -11    1    3    3    0    0 -0.46148625300E+02 -0.16506481684E+02 -0.11178682286E+03  0.12205922055E+03  0.00000000000E+00 0.  1.
         12    1    3    3    0    0  0.33659227791E+02 -0.41418417783E+01 -0.52865590432E+02  0.62808193100E+02  0.00000000000E+00 0. -1.
        -13    1    4    4    0    0  0.38433977193E+01 -0.20399080329E+02 -0.14958149927E+02  0.25585942108E+02  0.00000000000E+00 0. -1.
         13    1    4    4    0    0 -0.45624556081E+02  0.31747716870E+02  0.15522014386E+02  0.57710056096E+02  0.00000000000E+00 0.  1.
          1    1    1    2  501    0  0.54270555870E+02  0.92996869211E+01 -0.61705905942E+02  0.82700642316E+02  0.00000000000E+00 0. -1.
<scales pt_clust_5="13000.00000" pt_clust_6="13000.00000" pt_clust_7="13000.00000" pt_clust_8="13000.00000" pt_clust_9="55.06161"></scales>
<clustering>
<clus scale="   55.062">  1  9  2 -1</clus>
<clus scale="   71.158">  7  8 -1 -1</clus>
<clus scale="   73.636">  1  7  2 -1</clus>
<clus scale="   80.518">  5  6 -1 -1</clus>
<clus scale="   55.062">  1  5  2 -1</clus>
</clustering>
</event>
<event>
 9    2  0.6175212E-005  0.1005740E+03  0.7546771E-02  0.1285787E+00
          2   -1    0    0  502    0 -0.00000000000E+00  0.00000000000E+00  0.68628248802E+03  0.68628248802E+03  0.00000000000E+00 0. -1.
         21   -1    0    0  501  502  0.00000000000E+00 -0.00000000000E+00 -0.25175707679E+02  0.25175707679E+02  0.00000000000E+00 0. -1.
         24    2    1    2    0    0  0.13683754571E+02 -0.12785365230E+02  0.40162173510E+03  0.41098954678E+03  0.85215484268E+02 0.  0.
         23    2    1    2    0    0 -0.36039271653E+02  0.12075923832E+02  0.25752562428E+03  0.27801621516E+03  0.97616144643E+02 0.  0.
        -13    1    3    3    0    0  0.49382381100E+02 -0.12052170749E+02  0.20955520753E+03  0.21563223179E+03  0.00000000000E+00 0.  1.
         14    1    3    3    0    0 -0.35698626530E+02 -0.73319448126E+00  0.19206652757E+03  0.19535731500E+03  0.00000000000E+00 0. -1.
        -13    1    4    4    0    0  0.24473861282E+02  0.32009072272E+02  0.84000698546E+02  0.93164735550E+02  0.00000000000E+00 0.  1.
         13    1    4    4    0    0 -0.60513132935E+02 -0.19933148441E+02  0.17352492573E+03  0.18485147961E+03  0.00000000000E+00 0. -1.
          1    1    1    2  501    0  0.22355517082E+02  0.70944139816E+00  0.19594209673E+01  0.22452433758E+02  0.00000000000E+00 0. -1.
<scales pt_clust_5="13000.00000" pt_clust_6="13000.00000" pt_clust_7="13000.00000" pt_clust_8="13000.00000" pt_clust_9="22.36677"></scales>
<clustering>
<clus scale="   22.367">  2  9  1 -1</clus>
<clus scale="   85.215">  5  6 -1 -1</clus>
<clus scale="   88.588">  1  5  2 -1</clus>
<clus scale="   97.616">  7  8 -1 -1</clus>
<clus scale="   22.367">  2  5  1 -1</clus>
</clustering>
</event>
<event>
 9    2  0.6175212E-005  0.1198717E+03  0.7546771E-02  0.1249522E+00
         21   -1    0    0  501  502  0.00000000000E+00  0.00000000000E+00  0.19061483570E+02  0.19061483570E+02  0.00000000000E+00 0. -1.
          2   -1    0    0  502    0 -0.00000000000E+00 -0.00000000000E+00 -0.13868314170E+04  0.13868314170E+04  0.00000000000E+00 0. -1.
         23    2    1    2    0    0 -0.57577160178E+02  0.36721047497E+02 -0.44546299762E+03  0.46109091933E+03  0.97488404107E+02 0.  0.
         24    2    1    2    0    0  0.81493316809E+02  0.40884331699E+02 -0.47408575678E+03  0.48928381173E+03  0.79552840129E+02 0.  0.
        -11    1    4    4    0    0  0.13969095803E+02  0.15344603766E+02 -0.17850483875E+02  0.27372107644E+02  0.00000000000E+00 0.  1.
         12    1    4    4    0    0  0.67524221006E+02  0.25539727933E+02 -0.45623527291E+03  0.46191170408E+03  0.00000000000E+00 0. -1.
        -13    1    3    3    0    0  0.27289305744E+02  0.14532829990E+02 -0.13319212570E+03  0.13673350615E+03  0.00000000000E+00 0.  1.
         13    1    3    3    0    0 -0.84866465923E+02  0.22188217506E+02 -0.31227087192E+03  0.32435741318E+03  0.00000000000E+00 0. -1.
          1    1    1    2  501    0 -0.23916156631E+02 -0.77605379195E+02 -0.44822117902E+03  0.45551816951E+03  0.00000000000E+00 0. -1.
<scales pt_clust_5="13000.00000" pt_clust_6="13000.00000" pt_clust_7="13000.00000" pt_clust_8="13000.00000" pt_clust_9="81.20704"></scales>
<clustering>
<clus scale="   79.553">  5  6 -1 -1</clus>
<clus scale="   81.207">  1  9  2 -1</clus>
<clus scale="   97.488">  7  8 -1 -1</clus>
<clus scale="  105.801">  1  5  2 -1</clus>
<clus scale="   81.207">  1  5  2 -1</clus>
</clustering>
</event>
<event>
 9    2  0.6175212E-005  0.1313582E+03  0.7546771E-02  0.1228446E+00
          2   -1    0    0  502    0 -0.00000000000E+00  0.00000000000E+00  0.70006200480E+03  0.70006200480E+03  0.00000000000E+00 0. -1.
         21   -1    0    0  501  502  0.00000000000E+00 -0.00000000000E+00 -0.11686610032E+03  0.11686610032E+03  0.00000000000E+00 0. -1.
         24    2    1    2    0    0  0.78289753433E+02 -0.53862686530E+02  0.64482966809E+03  0.65684055174E+03  0.81263368531E+02 0.  0.
         23    2    1    2    0    0 -0.59966788319E+02  0.24619593692E+02 -0.46512599229E+02  0.12241078147E+03  0.92837694058E+02 0.  0.
        -13    1    3    3    0    0  0.22233906490E+02  0.33910384212E+01  0.33922625303E+02  0.40701231515E+02  0.00000000000E+00 0.  1.
         14    1    3    3    0    0  0.56055846942E+02 -0.57253724951E+02  0.61090704279E+03  0.61613932022E+03  0.00000000000E+00 0. -1.
        -13    1    4    4    0    0 -0.32294928116E+02  0.60082236230E+02 -0.26503171436E+02  0.73179611836E+02  0.00000000000E+00 0.  1.
         13    1    4    4    0    0 -0.27671860203E+02 -0.35462642537E+02 -0.20009427793E+02  0.49231169633E+02  0.00000000000E+00 0. -1.
          1    1    1    2  501    0 -0.18322965113E+02  0.29243092838E+02 -0.15121164379E+02  0.37676771908E+02  0.00000000000E+00 0. -1.
<scales pt_clust_5="13000.00000" pt_clust_6="13000.00000" pt_clust_7="13000.00000" pt_clust_8="13000.00000" pt_clust_9="34.50927"></scales>
<clustering>
<clus scale="   34.509">  2  9  1 -1</clus>
<clus scale="   81.263">  5  6 -1 -1</clus>
<clus scale="   92.838">  7  8 -1 -1</clus>
<clus scale="  123.450">  1  5  2 -1</clus>
<clus scale="   34.509">  2  5  1 -1</clus>
</clustering>
</event>
<event>
 9    2  0.6175212E-005  0.9159806E+02  0.7546771E-02  0.1309145E+00
         21   -1    0    0  501  502  0.00000000000E+00  0.00000000000E+00  0.32161755183E+03  0.32161755183E+03  0.00000000000E+00 0. -1.
          2   -1    0    0  502    0 -0.00000000000E+00 -0.00000000000E+00 -0.69465804168E+02  0.69465804168E+02  0.00000000000E+00 0. -1.
         24    2    1    2    0    0 -0.80982881044E+01 -0.62345797132E+01  0.11345437962E+01  0.75931136962E+02  0.75231629760E+02 0.  0.
         23    2    1    2    0    0 -0.63763433896E+02  0.16418431999E+02  0.11324297706E+03  0.15942953120E+03  0.90876086804E+02 0.  0.
        -11    1    3    3    0    0  0.30936349385E+02  0.95730636046E+01 -0.67649812187E+01  0.33082718010E+02  0.00000000000E+00 0.  1.
         12    1    3    3    0    0 -0.39034637490E+02 -0.15807643318E+02  0.78995250149E+01  0.42848418952E+02  0.00000000000E+00 0. -1.
        -11    1    4    4    0    0 -0.12057880231E+02  0.45832895090E+02  0.26647813804E+02  0.54370513411E+02  0.00000000000E+00 0.  1.
         11    1    4    4    0    0 -0.51705553665E+02 -0.29414463092E+02  0.86595163260E+02  0.10505901779E+03  0.00000000000E+00 0. -1.
          1    1    1    2  501    0  0.71861722000E+02 -0.10183852285E+02  0.13777422681E+03  0.15572268784E+03  0.00000000000E+00 0. -1.
<scales pt_clust_5="13000.00000" pt_clust_6="13000.00000" pt_clust_7="13000.00000" pt_clust_8="13000.00000" pt_clust_9="72.57974"></scales>
<clustering>
<clus scale="   72.580">  1  9  2 -1</clus>
<clus scale="   75.232">  5  6 -1 -1</clus>
<clus scale="   76.102">  2  5  1 -1</clus>
<clus scale="   90.876">  7  8 -1 -1</clus>
<clus scale="   72.580">  1  5  2 -1</clus>
</clustering>
</event>
<event>
 9    2  0.6175212E-005  0.1573656E+03  0.7546771E-02  0.1205917E+00
         21   -1    0    0  501  502  0.00000000000E+00  0.00000000000E+00  0.79420667569E+03  0.79420667569E+03  0.00000000000E+00 0. -1.
         -3   -1    0    0    0  501 -0.00000000000E+00 -0.00000000000E+00 -0.31699298576E+03  0.31699298576E+03  0.00000000000E+00 0.  1.
         24    2    1    2    0    0 -0.29408686193E+02 -0.78133985877E+02 -0.25799341905E+03  0.28266537098E+03  0.79808001523E+02 0.  0.
         23    2    1    2    0    0 -0.26526275321E+02 -0.99322183336E+02  0.53906971299E+03  0.55818398066E+03  0.10200324215E+03 0.  0.
        -13    1    3    3    0    0 -0.38569111035E+02 -0.75303405644E+02 -0.25951440140E+03  0.27295769592E+03  0.00000000000E+00 0.  1.
         14    1    3    3    0    0  0.91604248420E+01 -0.28305802331E+01  0.15209823542E+01  0.97076750596E+01  0.00000000000E+00 0. -1.
        -11    1    4    4    0    0 -0.33280718782E+02 -0.11882954186E+03  0.43943387928E+03  0.45643203275E+03  0.00000000000E+00 0. -1.
         11    1    4    4    0    0  0.67544434610E+01  0.19507358522E+02  0.99635833711E+02  0.10175194790E+03  0.00000000000E+00 0.  1.
         -4    1    1    2    0  502  0.55934961514E+02  0.17745616921E+03  0.19613739599E+03  0.27035030981E+03  0.00000000000E+00 0.  1.
<scales pt_clust_5="13000.00000" pt_clust_6="13000.00000" pt_clust_7="13000.00000" pt_clust_8="13000.00000" pt_clust_9="119.83020"></scales>
<clustering>
<clus scale="   79.808">  5  6 -1 -1</clus>
<clus scale="  102.003">  7  8 -1 -1</clus>
<clus scale="  115.495">  2  5  1 -1</clus>
<clus scale="  119.830">  1  9  2 -1</clus>
<clus scale="  119.830">  1  5  2 -1</clus>
</clustering>
</event>
<event>
 9    2  0.6175212E-005  0.9588670E+02  0.7546771E-02  0.1297546E+00
         21   -1    0    0  501  502  0.00000000000E+00  0.00000000000E+00  0.92971339809E+02  0.92971339809E+02  0.00000000000E+00 0.  1.
          4   -1    0    0  502    0 -0.00000000000E+00 -0.00000000000E+00 -0.34630321484E+03  0.34630321484E+03  0.00000000000E+00 0. -1.
         24    2    1    2    0    0 -0.11068429480E+02 -0.18498154885E+02 -0.25072747822E+03  0.26352282059E+03  0.78200490865E+02 0.  0.
         23    2    1    2    0    0  0.22747544561E+01  0.44550454054E+02 -0.55003224867E+02  0.11657667010E+03  0.92600474094E+02 0.  0.
        -11    1    3    3    0    0 -0.54253318113E+01  0.21931917182E+02 -0.23278885876E+02  0.32439940570E+02  0.00000000000E+00 0.  1.
         12    1    3    3    0    0 -0.56430976688E+01 -0.40430072068E+02 -0.22744859235E+03  0.23108288002E+03  0.00000000000E+00 0. -1.
        -11    1    4    4    0    0 -0.35666268245E+02  0.20698596950E+02 -0.58557406343E+02  0.71620419182E+02  0.00000000000E+00 0. -1.
         11    1    4    4    0    0  0.37941022701E+02  0.23851857104E+02  0.35541814756E+01  0.44956250921E+02  0.00000000000E+00 0.  1.
          3    1    1    2  501    0  0.87936750241E+01 -0.26052299169E+02  0.52398828057E+02  0.59175063956E+02  0.00000000000E+00 0. -1.
<scales pt_clust_5="13000.00000" pt_clust_6="13000.00000" pt_clust_7="13000.00000" pt_clust_8="13000.00000" pt_clust_9="27.49638"></scales>
<clustering>
<clus scale="   27.496">  1  9  2 -1</clus>
<clus scale="   78.200">  5  6 -1 -1</clus>
<clus scale="   82.065">  2  5  1 -1</clus>
<clus scale="   92.600">  7  8 -1 -1</clus>
<clus scale="   27.496">  1  5  2 -1</clus>
</clustering>
</event>
<event>
 9    2  0.6175212E-005  0.1442848E+03  0.7546771E-02  0.1227985E+00
          2   -1    0    0  502    0 -0.00000000000E+00  0.00000000000E+00  0.93061992925E+03  0.93061992925E+03  0.00000000000E+00 0. -1.
         21   -1    0    0  501  502  0.00000000000E+00 -0.00000000000E+00 -0.36306563715E+02  0.36306563715E+02  0.00000000000E+00 0. -1.
         23    2    1    2    0    0  0.32556310435E+02 -0.12058265194E+02  0.32056644272E+03  0.33407741468E+03  0.87404574794E+02 0.  0.
         24    2    1    2    0    0 -0.15393748854E+02  0.12671459271E+03  0.30134680719E+03  0.33680440268E+03  0.79584872620E+02 0.  0.
        -13    1    4    4    0    0  0.24041297382E+02  0.71272083045E+02  0.20883473885E+03  0.22196765969E+03  0.00000000000E+00 0.  1.
         14    1    4    4    0    0 -0.39435046236E+02  0.55442509668E+02  0.92512068344E+02  0.11483674298E+03  0.00000000000E+00 0. -1.
        -13    1    3    3    0    0 -0.99597808730E+01 -0.32531434522E+02  0.57492626148E+02  0.66804891502E+02  0.00000000000E+00 0.  1.
         13    1    3    3    0    0  0.42516091308E+02  0.20473169328E+02  0.26307381657E+03  0.26727252318E+03  0.00000000000E+00 0. -1.
          1    1    1    2  501    0 -0.17162561581E+02 -0.11465632752E+03  0.27240011563E+03  0.29604467561E+03  0.00000000000E+00 0. -1.
<scales pt_clust_5="13000.00000" pt_clust_6="13000.00000" pt_clust_7="13000.00000" pt_clust_8="13000.00000" pt_clust_9="120.35105"></scales>
<clustering>
<clus scale="   79.585">  5  6 -1 -1</clus>
<clus scale="   87.405">  7  8 -1 -1</clus>
<clus scale="   94.047">  1  7  2 -1</clus>
<clus scale="  120.351">  2  9  1 -1</clus>
<clus scale="  120.351">  2  5  1 -1</clus>
</clustering>
</event>
<event>
 9    2  0.6175212E-005  0.1521765E+03  0.7546771E-02  0.1200563E+00
          2   -1    0    0  502    0 -0.00000000000E+00  0.00000000000E+00  0.75006837817E+02  0.75006837817E+02  0.00000000000E+00 0. -1.
         21   -1    0    0  501  502  0.00000000000E+00 -0.00000000000E+00 -0.62021632937E+03  0.62021632937E+03  0.00000000000E+00 0. -1.
         23    2    1    2    0    0  0.10250933080E+03 -0.10324659627E+03 -0.18031464559E+03  0.25092604264E+03  0.96345653334E+02 0.  0.
         24    2    1    2    0    0 -0.14204130526E+02  0.85348945542E+02 -0.32433774108E+03  0.34548916408E+03  0.81741007919E+02 0.  0.
        -13    1    4    4    0    0 -0.29077180241E+02 -0.31876448910E+01 -0.79653325719E+02  0.84854556677E+02  0.00000000000E+00 0.  1.
         14    1    4    4    0    0  0.14873049715E+02  0.88536590433E+02 -0.24468441537E+03  0.26063460740E+03  0.00000000000E+00 0. -1.
        -13    1    3    3    0    0  0.54766118359E+02 -0.94722142239E+01 -0.11322288819E+03  0.12612879518E+03  0.00000000000E+00 0.  1.
         13    1    3    3    0    0  0.47743212438E+02 -0.93774382049E+02 -0.67091757399E+02  0.12479724746E+03  0.00000000000E+00 0. -1.
          1    1    1    2  501    0 -0.88305200272E+02  0.17897650731E+02 -0.40557104881E+02  0.98807960474E+02  0.00000000000E+00 0. -1.
<scales pt_clust_5="13000.00000" pt_clust_6="13000.00000" pt_clust_7="13000.00000" pt_clust_8="13000.00000" pt_clust_9="90.10073"></scales>
<clustering>
<clus scale="   81.741">  5  6 -1 -1</clus>
<clus scale="   90.101">  2  9  1 -1</clus>
<clus scale="   96.346">  7  8 -1 -1</clus>
<clus scale="  143.376">  2  5  1 -1</clus>
<clus scale="   90.101">  2  5  1 -1</clus>
</clustering>
</event>
<event>
 9    2  0.6175212E-005  0.9460648E+02  0.7546771E-02  0.1297742E+00
         21   -1    0    0  501  502  0.00000000000E+00  0.00000000000E+00  0.12579538965E+03  0.12579538965E+03  0.00000000000E+00 0.  1.
          4   -1    0    0  502    0 -0.00000000000E+00 -0.00000000000E+00 -0.36915764662E+03  0.36915764662E+03  0.00000000000E+00 0. -1.
         24    2    1    2    0    0  0.25086989250E+02 -0.17598802794E+02 -0.23048631515E+03  0.24611726523E+03  0.80688858467E+02 0.  0.
         23    2    1    2    0    0  0.37343181621E+02  0.13404351050E+02  0.86491718269E+02  0.13140897883E+03  0.90627327815E+02 0.  0.
        -11    1    3    3    0    0 -0.80472871518E+01  0.28458198604E+02 -0.78552185532E+02  0.83934937602E+02  0.00000000000E+00 0.  1.
         12    1    3    3    0    0  0.33134276402E+02 -0.46057001398E+02 -0.15193412962E+03  0.16218232762E+03  0.00000000000E+00 0. -1.
        -11    1    4    4    0    0  0.56545918397E+02  0.53655224607E+01  0.93536539588E+02  0.10943177764E+03  0.00000000000E+00 0.  1.
         11    1    4    4    0    0 -0.19202736776E+02  0.80388285896E+01 -0.70448213189E+01  0.21977201191E+02  0.00000000000E+00 0. -1.
          3    1    1    2  501    0 -0.62430170871E+02  0.41944517439E+01 -0.99367660080E+02  0.11742679222E+03  0.00000000000E+00 0. -1.
<scales pt_clust_5="13000.00000" pt_clust_6="13000.00000" pt_clust_7="13000.00000" pt_clust_8="13000.00000" pt_clust_9="62.57095"></scales>
<clustering>
<clus scale="   62.571">  1  9  2 -1</clus>
<clus scale="   80.689">  5  6 -1 -1</clus>
<clus scale="   85.134">  2  5  1 -1</clus>
<clus scale="   90.627">  7  8 -1 -1</clus>
<clus scale="   62.571">  1  5  2 -1</clus>
</clustering>
</event>
<event>
 9    2  0.6175212E-005  0.1180539E+03  0.7546771E-02  0.1249676E+00
          2   -1    0    0  502    0 -0.00000000000E+00  0.00000000000E+00  0.42323514047E+03  0.42323514047E+03  0.00000000000E+00 0. -1.
         21   -1    0    0  501  502  0.00000000000E+00 -0.00000000000E+00 -0.71128903866E+02  0.71128903866E+02  0.00000000000E+00 0.  1.
         23    2    1    2    0    0  0.72852060759E+02 -0.37403439013E+02  0.33332339616E+03  0.35527162175E+03  0.91689687476E+02 0.  0.
         24    2    1    2    0    0 -0.46958694066E+02  0.35164253736E+01  0.54019841677E+01  0.94395180537E+02  0.81632006467E+02 0.  0.
        -11    1    4    4    0    0 -0.15510341591E+02  0.21313468933E+02 -0.32621406847E+02  0.41940324735E+02  0.00000000000E+00 0.  1.
         12    1    4    4    0    0 -0.31448352476E+02 -0.17797043560E+02  0.38023391015E+02  0.52454855801E+02  0.00000000000E+00 0. -1.
        -11    1    3    3    0    0  0.66204492305E+02 -0.13493615883E+02  0.32009739971E+03  0.32715051241E+03  0.00000000000E+00 0. -1.
         11    1    3    3    0    0  0.66475684539E+01 -0.23909823130E+02  0.13225996448E+02  0.28121109339E+02  0.00000000000E+00 0.  1.
          1    1    1    2  501    0 -0.25893366692E+02  0.33887013639E+02  0.13380856280E+02  0.44697242050E+02  0.00000000000E+00 0. -1.
<scales pt_clust_5="13000.00000" pt_clust_6="13000.00000" pt_clust_7="13000.00000" pt_clust_8="13000.00000" pt_clust_9="42.64735"></scales>
<clustering>
<clus scale="   42.647">  2  9  1 -1</clus>
<clus scale="   81.632">  5  6 -1 -1</clus>
<clus scale="   91.690">  7  8 -1 -1</clus>
<clus scale="  110.424">  2  5  1 -1</clus>
<clus scale="   42.647">  2  5  1 -1</clus>
</clustering>
</event>
<event>
 9    2  0.6175212E-005  0.9553362E+02  0.7546771E-02  0.1297060E+00
         21   -1    0    0  501  502  0.00000000000E+00  0.00000000000E+00  0.14951023681E+03  0.14951023681E+03  0.00000000000E+00 0. -1.
         -3   -1    0    0    0  501 -0.00000000000E+00 -0.00000000000E+00 -0.31073446754E+03  0.31073446754E+03  0.00000000000E+00 0.  1.
         24    2    1    2    0    0 -0.28803784123E+02 -0.92643796841E+01 -0.27241302652E+03  0.28485637550E+03  0.77580995962E+02 0.  0.
         23    2    1    2    0    0  0.43322339868E+02  0.25306644944E+02  0.58979876044E+02  0.11887360477E+03  0.90194549301E+02 0.  0.
        -11    1    3    3    0    0 -0.45059953684E+02  0.18783739604E+02 -0.13168911729E+03  0.14044661588E+03  0.00000000000E+00 0.  1.
         12    1    3    3    0    0  0.16256169562E+02 -0.28048119288E+02 -0.14072390924E+03  0.14440975963E+03  0.00000000000E+00 0. -1.
        -11    1    4    4    0    0  0.19185851501E+02  0.41935152966E+02 -0.70306281053E+01  0.46648512127E+02  0.00000000000E+00 0.  1.
         11    1    4    4    0    0  0.24136488367E+02 -0.16628508022E+02  0.66010504149E+02  0.72225092646E+02  0.00000000000E+00 0. -1.
         -4    1    1    2    0  502 -0.14518555745E+02 -0.16042265260E+02  0.52208919755E+02  0.56514724078E+02  0.00000000000E+00 0.  1.
<scales pt_clust_5="13000.00000" pt_clust_6="13000.00000" pt_clust_7="13000.00000" pt_clust_8="13000.00000" pt_clust_9="21.63661"></scales>
<clustering>
<clus scale="   21.637">  1  9  2 -1</clus>
<clus scale="   77.581">  5  6 -1 -1</clus>
<clus scale="   83.728">  2  5  1 -1</clus>
<clus scale="   90.195">  7  8 -1 -1</clus>
<clus scale="   21.637">  1  5  2 -1</clus>
</clustering>
</event>
<event>
 9    2  0.6175212E-005  0.1295352E+03  0.7546771E-02  0.1230663E+00
         21   -1    0    0  501  502  0.00000000000E+00  0.00000000000E+00  0.61460514945E+03  0.61460514945E+03  0.00000000000E+00 0.  1.
          4   -1    0    0  502    0 -0.00000000000E+00 -0.00000000000E+00 -0.32182428394E+02  0.32182428394E+02  0.00000000000E+00 0. -1.
         23    2    1    2    0    0 -0.27010447880E+02  0.90451625069E+02  0.24248314927E+03  0.27526023772E+03  0.89772267543E+02 0.  0.
         24    2    1    2    0    0  0.49285427557E+02 -0.79950489983E+02  0.30272865738E+03  0.32690558860E+03  0.80009309714E+02 0.  0.
        -11    1    4    4    0    0  0.60724855706E+02 -0.69126046375E+02  0.29565427943E+03  0.30964071330E+03  0.00000000000E+00 0.  1.
         12    1    4    4    0    0 -0.11439428149E+02 -0.10824443609E+02  0.70743779539E+01  0.17264875304E+02  0.00000000000E+00 0. -1.
        -11    1    3    3    0    0 -0.54880522124E+02  0.38831373788E+02  0.16424577892E+03  0.17747231669E+03  0.00000000000E+00 0.  1.
         11    1    3    3    0    0  0.27870074244E+02  0.51620251281E+02  0.78237370353E+02  0.97787921035E+02  0.00000000000E+00 0. -1.
          3    1    1    2  501    0 -0.22274979677E+02 -0.10501135085E+02  0.37210914406E+02  0.44621751519E+02  0.00000000000E+00 0. -1.
<scales pt_clust_5="13000.00000" pt_clust_6="13000.00000" pt_clust_7="13000.00000" pt_clust_8="13000.00000" pt_clust_9="24.62619"></scales>
<clustering>
<clus scale="   24.626">  1  9  2 -1</clus>
<clus scale="   80.009">  5  6 -1 -1</clus>
<clus scale="   89.772">  7  8 -1 -1</clus>
<clus scale="  122.971">  1  5  2 -1</clus>
<clus scale="   24.626">  1  5  2 -1</clus>
</clustering>
</event>
<event>
 9    2  0.6175212E-005  0.1455069E+03  0.7546771E-02  0.1230851E+00
          2   -1    0    0  502    0 -0.00000000000E+00  0.00000000000E+00  0.14815278757E+03  0.14815278757E+03  0.00000000000E+00 0. -1.
         21   -1    0    0  501  502  0.00000000000E+00 -0.00000000000E+00 -0.21492632612E+03  0.21492632612E+03  0.00000000000E+00 0.  1.
         24    2    1    2    0    0  0.11490991700E+02  0.33214445246E+02  0.21829531246E+02  0.89137282574E+02  0.78953685455E+02 0.  0.
         23    2    1    2    0    0 -0.60225597516E+02  0.76203559543E+02 -0.24297371697E+02  0.13799116218E+03  0.94958377642E+02 0.  0.
        -13    1    3    3    0    0  0.66507340518E+01  0.59203369164E+02  0.19091650540E+02  0.62560069566E+02  0.00000000000E+00 0.  1.
         14    1    3    3    0    0  0.48402576478E+01 -0.25988923918E+02  0.27378807061E+01  0.26577213008E+02  0.00000000000E+00 0. -1.
        -13    1    4    4    0    0 -0.16067927759E+02  0.34306060669E+02 -0.57344694976E+02  0.68727710154E+02  0.00000000000E+00 0.  1.
         13    1    4    4    0    0 -0.44157669757E+02  0.41897498874E+02  0.33047323279E+02  0.69263452023E+02  0.00000000000E+00 0. -1.
          1    1    1    2  501    0  0.48734605817E+02 -0.10941800479E+03 -0.64305698096E+02  0.13595066893E+03  0.00000000000E+00 0. -1.
<scales pt_clust_5="13000.00000" pt_clust_6="13000.00000" pt_clust_7="13000.00000" pt_clust_8="13000.00000" pt_clust_9="110.25047"></scales>
<clustering>
<clus scale="   78.954">  5  6 -1 -1</clus>
<clus scale="   86.423">  1  5  2 -1</clus>
<clus scale="   94.958">  7  8 -1 -1</clus>
<clus scale="  110.250">  2  9  1 -1</clus>
<clus scale="  110.250">  2  5  1 -1</clus>
</clustering>
</event>
<event>
 9    2  0.6175212E-005  0.1139915E+03  0.7546771E-02  0.1257463E+00
          2   -1    0    0  502    0 -0.00000000000E+00  0.00000000000E+00  0.32466203446E+03  0.32466203446E+03  0.00000000000E+00 0. -1.
         21   -1    0    0  501  502  0.00000000000E+00 -0.00000000000E+00 -0.81019093397E+02  0.81019093397E+02  0.00000000000E+00 0. -1.
         24    2    1    2    0    0 -0.21509114506E+01  0.58581782049E+02  0.13970309196E+03  0.17179771322E+03  0.81000300966E+02 0.  0.
         23    2    1    2    0    0  0.38741562063E+02 -0.93440662966E+02  0.23545967001E+02  0.13892451000E+03  0.92268850590E+02 0.  0.
        -13    1    3    3    0    0  0.21293286826E+02  0.56829579139E+02  0.13473082562E+03  0.14776806320E+03  0.00000000000E+00 0.  1.
         14    1    3    3    0    0 -0.23444198277E+02  0.17522029100E+01  0.49722663469E+01  0.24029650029E+02  0.00000000000E+00 0. -1.
        -13    1    4    4    0    0 -0.38067512383E+01 -0.84696593175E+02 -0.81198641454E+01  0.85170044289E+02  0.00000000000E+00 0.  1.
         13    1    4    4    0    0  0.42548313301E+02 -0.87440697910E+01  0.31665831147E+02  0.53754465707E+02  0.00000000000E+00 0. -1.
          1    1    1    2  501    0 -0.36590650612E+02  0.34858880917E+02  0.80393882101E+02  0.94958904639E+02  0.00000000000E+00 0. -1.
<scales pt_clust_5="13000.00000" pt_clust_6="13000.00000" pt_clust_7="13000.00000" pt_clust_8="13000.00000" pt_clust_9="50.53731"></scales>
<clustering>
<clus scale="   50.537">  2  9  1 -1</clus>
<clus scale="   81.000">  5  6 -1 -1</clus>
<clus scale="   92.269">  7  8 -1 -1</clus>
<clus scale="  105.079">  1  5  2 -1</clus>
<clus scale="   50.537">  2  5  1 -1</clus>
</clustering>
</event>
<event>
 9    2  0.6175212E-005  0.1188081E+03  0.7546771E-02  0.1248789E+00
         21   -1    0    0  501  502  0.00000000000E+00  0.00000000000E+00  0.22249201613E+02  0.22249201613E+02  0.00000000000E+00 0.  1.
          2   -1    0    0  502    0 -0.00000000000E+00 -0.00000000000E+00 -0.93262143249E+03  0.93262143249E+03  0.00000000000E+00 0. -1.
         24    2    1    2    0    0 -0.55783313617E+02 -0.66006544726E+02 -0.62123666566E+03  0.63226958884E+03  0.79757107426E+02 0.  0.
         23    2    1    2    0    0  0.45198046289E+02  0.32803152386E+02 -0.23544871787E+03  0.25859486802E+03  0.91193732378E+02 0.  0.
        -13    1    3    3    0    0 -0.46342526799E+02 -0.82436905441E+02 -0.56664996342E+03  0.57448729683E+03  0.00000000000E+00 0.  1.
         14    1    3    3    0    0 -0.94407868178E+01  0.16430360715E+02 -0.54586702240E+02  0.57782292014E+02  0.00000000000E+00 0. -1.
        -11    1    4    4    0    0  0.60741084787E+02  0.11061486301E+02 -0.21824620600E+03  0.22681102772E+03  0.00000000000E+00 0. -1.
         11    1    4    4    0    0 -0.15543038498E+02  0.21741666084E+02 -0.17202511870E+02  0.31783840305E+02  0.00000000000E+00 0.  1.
          1    1    1    2  501    0  0.10585267328E+02  0.33203392340E+02 -0.53686847340E+02  0.64006177238E+02  0.00000000000E+00 0. -1.
<scales pt_clust_5="13000.00000" pt_clust_6="13000.00000" pt_clust_7="13000.00000" pt_clust_8="13000.00000" pt_clust_9="34.84987"></scales>
<clustering>
<clus scale="   34.850">  1  9  2 -1</clus>
<clus scale="   79.757">  5  6 -1 -1</clus>
<clus scale="   91.194">  7  8 -1 -1</clus>
<clus scale="  110.274">  2  5  1 -1</clus>
<clus scale="   34.850">  1  5  2 -1</clus>
</clustering>
</event>
<event>
 9    2  0.6175212E-005  0.9992610E+02  0.7546771E-02  0.1286488E+00
          2   -1    0    0  502    0 -0.00000000000E+00  0.00000000000E+00  0.17239445300E+03  0.17239445300E+03  0.00000000000E+00 0. -1.
         21   -1    0    0  501  502  0.00000000000E+00 -0.00000000000E+00 -0.25284918523E+03  0.25284918523E+03  0.00000000000E+00 0.  1.
         24    2    1    2    0    0  0.31946164310E+02 -0.14835420888E+02  0.12134984793E+03  0.14955543314E+03  0.80002467846E+02 0.  0.
         23    2    1    2    0    0 -0.82068512663E+02 -0.30131590271E+01 -0.92359720862E+02  0.15399597512E+03  0.91870138870E+02 0.  0.
        -11    1    3    3    0    0 -0.29169706876E+01 -0.41708347912E+02  0.73339921208E+02  0.84420607948E+02  0.00000000000E+00 0.  1.
         12    1    3    3    0    0  0.34863134998E+02  0.26872927024E+02  0.48009926723E+02  0.65134825191E+02  0.00000000000E+00 0. -1.
        -11    1    4    4    0    0 -0.15933439508E+02 -0.42771553506E+02 -0.28292869230E+02  0.53700714456E+02  0.00000000000E+00 0.  1.
         11    1    4    4    0    0 -0.66135073154E+02  0.39758394479E+02 -0.64066851632E+02  0.10029526066E+03  0.00000000000E+00 0. -1.
          1    1    1    2  501    0  0.50122348352E+02  0.17848579915E+02 -0.10944485930E+03  0.12169222998E+03  0.00000000000E+00 0. -1.
<scales pt_clust_5="13000.00000" pt_clust_6="13000.00000" pt_clust_7="13000.00000" pt_clust_8="13000.00000" pt_clust_9="53.20547"></scales>
<clustering>
<clus scale="   53.205">  2  9  1 -1</clus>
<clus scale="   80.002">  5  6 -1 -1</clus>
<clus scale="   89.138">  1  5  2 -1</clus>
<clus scale="   91.870">  7  8 -1 -1</clus>
<clus scale="   53.205">  2  5  1 -1</clus>
</clustering>
</event>
<event>
 9    2  0.6175212E-005  0.9431527E+02  0.7546771E-02  0.1294302E+00
         21   -1    0    0  501  502  0.00000000000E+00  0.00000000000E+00  0.16361260865E+02  0.16361260865E+02  0.00000000000E+00 0.  1.
         -1   -1    0    0    0  501 -0.00000000000E+00 -0.00000000000E+00 -0.74029148550E+03  0.74029148550E+03  0.00000000000E+00 0.  1.
         24    2    1    2    0    0 -0.12458457671E+02  0.79111886833E+01 -0.27587064353E+03  0.29003166991E+03  0.88294719618E+02 0.  0.
         23    2    1    2    0    0  0.36909062629E+02 -0.29258776623E+01 -0.28118299948E+03  0.29788910290E+03  0.91121889589E+02 0.  0.
        -11    1    3    3    0    0 -0.54077506814E+01  0.47578486213E+02 -0.12450335425E+03  0.13339430774E+03  0.00000000000E+00 0.  1.
         12    1    3    3    0    0 -0.70507069900E+01 -0.39667297530E+02 -0.15136728928E+03  0.15663736216E+03  0.00000000000E+00 0. -1.
        -11    1    4    4    0    0  0.48643588528E+02  0.31301532741E+02 -0.12756216585E+03  0.14006459515E+03  0.00000000000E+00 0.  1.
         11    1    4    4    0    0 -0.11734525899E+02 -0.34227410404E+02 -0.15362083363E+03  0.15782450775E+03  0.00000000000E+00 0. -1.
         -2    1    1    2    0  502 -0.24450604957E+02 -0.49853110210E+01 -0.16687658162E+03  0.16873197357E+03  0.00000000000E+00 0.  1.
<scales pt_clust_5="13000.00000" pt_clust_6="13000.00000" pt_clust_7="13000.00000" pt_clust_8="13000.00000" pt_clust_9="24.95368"></scales>
<clustering>
<clus scale="   24.954">  1  9  2 -1</clus>
<clus scale="   88.295">  5  6 -1 -1</clus>
<clus scale="   91.122">  7  8 -1 -1</clus>
<clus scale="   91.587">  2  5  1 -1</clus>
<clus scale="   24.954">  1  5  2 -1</clus>
</clustering>
</event>
<event>
 9    2  0.6175212E-005  0.1422662E+03  0.7546771E-02  0.1226951E+00
         -1   -1    0    0    0  501 -0.00000000000E+00  0.00000000000E+00  0.13326882097E+03  0.13326882097E+03  0.00000000000E+00 0.  1.
         21   -1    0    0  501  502  0.00000000000E+00 -0.00000000000E+00 -0.47984662364E+03  0.47984662364E+03  0.00000000000E+00 0.  1.
         24    2    1    2    0    0 -0.52362891543E+02 -0.29949073742E+02 -0.21069007153E+02  0.10242461816E+03  0.80050483528E+02 0.  0.
         23    2    1    2    0    0 -0.36557828250E+02 -0.42884704458E+02  0.49932058851E+02  0.11804914657E+03  0.90922042551E+02 0.  0.
        -13    1    3    3    0    0 -0.27986900279E+02  0.18749957362E+02 -0.32466525195E+02  0.46785710922E+02  0.00000000000E+00 0.  1.
         14    1    3    3    0    0 -0.24375991265E+02 -0.48699031104E+02  0.11397518042E+02  0.55638907233E+02  0.00000000000E+00 0. -1.
        -11    1    4    4    0    0  0.84906641868E+01 -0.40077382257E+02 -0.10813859248E+02  0.42370125073E+02  0.00000000000E+00 0. -1.
         11    1    4    4    0    0 -0.45048492436E+02 -0.28073222015E+01  0.60745918099E+02  0.75679021495E+02  0.00000000000E+00 0.  1.
         -2    1    1    2    0  502  0.88920719793E+02  0.72833778201E+02 -0.37544085437E+03  0.39264167989E+03  0.00000000000E+00 0.  1.
<scales pt_clust_5="13000.00000" pt_clust_6="13000.00000" pt_clust_7="13000.00000" pt_clust_8="13000.00000" pt_clust_9="109.42048"></scales>
<clustering>
<clus scale="   80.050">  5  6 -1 -1</clus>
<clus scale="   90.922">  7  8 -1 -1</clus>
<clus scale="  100.234">  1  5  2 -1</clus>
<clus scale="  109.420">  2  9  1 -1</clus>
<clus scale="  109.420">  2  5  1 -1</clus>
</clustering>
</event>
<event>
 9    2  0.6175212E-005  0.1107380E+03  0.7546771E-02  0.1262476E+00
         21   -1    0    0  501  502  0.00000000000E+00  0.00000000000E+00  0.71113817171E+02  0.71113817171E+02  0.00000000000E+00 0. -1.
          2   -1    0    0  502    0 -0.00000000000E+00 -0.00000000000E+00 -0.58476268301E+03  0.58476268301E+03  0.00000000000E+00 0. -1.
         24    2    1    2    0    0 -0.68294409738E+02 -0.31389400032E+02 -0.44457082746E+03  0.45859519375E+03  0.83766999871E+02 0.  0.
         23    2    1    2    0    0 -0.16302855095E+02  0.42067640649E+01 -0.20079357096E+02  0.95809814458E+02  0.92156714443E+02 0.  0.
        -13    1    3    3    0    0  0.41409294408E+01 -0.39420535461E+02 -0.16154746234E+03  0.16633913701E+03  0.00000000000E+00 0.  1.
         14    1    3    3    0    0 -0.72435339179E+02  0.80311354286E+01 -0.28302336512E+03  0.29225605674E+03  0.00000000000E+00 0. -1.
        -13    1    4    4    0    0 -0.43148508282E+02  0.13483672613E+02  0.17696944674E+02  0.48546730527E+02  0.00000000000E+00 0. -1.
         13    1    4    4    0    0  0.26845653187E+02 -0.92769085477E+01 -0.37776301770E+02  0.47263083931E+02  0.00000000000E+00 0.  1.
          1    1    1    2  501    0  0.84597264833E+02  0.27182635968E+02 -0.48998681283E+02  0.10147149197E+03  0.00000000000E+00 0. -1.
<scales pt_clust_5="13000.00000" pt_clust_6="13000.00000" pt_clust_7="13000.00000" pt_clust_8="13000.00000" pt_clust_9="88.85715"></scales>
<clustering>
<clus scale="   83.767">  5  6 -1 -1</clus>
<clus scale="   88.857">  1  9  2 -1</clus>
<clus scale="   92.157">  7  8 -1 -1</clus>
<clus scale="  103.860">  2  5  1 -1</clus>
<clus scale="   88.857">  1  5  2 -1</clus>
</clustering>
</event>
<event>
 9    2  0.6175212E-005  0.9344450E+02  0.7546771E-02  0.1301646E+00
          2   -1    0    0  502    0 -0.00000000000E+00  0.00000000000E+00  0.12627911064E+04  0.12627911064E+04  0.00000000000E+00 0. -1.
         21   -1    0    0  501  502  0.00000000000E+00 -0.00000000000E+00 -0.11459920888E+02  0.11459920888E+02  0.00000000000E+00 0.  1.
         24    2    1    2    0    0  0.13536032833E+02 -0.46595865678E+01  0.81272431228E+03  0.81685145733E+03  0.80749982270E+02 0.  0.
         23    2    1    2    0    0 -0.20303098737E+02 -0.22302763098E+02  0.38486622792E+03  0.39689487229E+03  0.92162341564E+02 0.  0.
        -11    1    3    3    0    0 -0.50077571636E+01 -0.29845902750E+02  0.13265168685E+03  0.13606000723E+03  0.00000000000E+00 0.  1.
         12    1    3    3    0    0  0.18543789997E+02  0.25186316182E+02  0.68007262543E+03  0.68079145010E+03  0.00000000000E+00 0. -1.
        -11    1    4    4    0    0 -0.43505764659E+02  0.14875858891E+02  0.27125308246E+03  0.27512229550E+03  0.00000000000E+00 0.  1.
         11    1    4    4    0    0  0.23202665922E+02 -0.37178621990E+02  0.11361314546E+03  0.12177257680E+03  0.00000000000E+00 0. -1.
          1    1    1    2  501    0  0.67670659042E+01  0.26962349666E+02  0.53740645300E+02  0.60504697650E+02  0.00000000000E+00 0. -1.
<scales pt_clust_5="13000.00000" pt_clust_6="13000.00000" pt_clust_7="13000.00000" pt_clust_8="13000.00000" pt_clust_9="27.79859"></scales>
<clustering>
<clus scale="   27.799">  2  9  1 -1</clus>
<clus scale="   80.750">  5  6 -1 -1</clus>
<clus scale="   82.210">  1  5  2 -1</clus>
<clus scale="   92.162">  7  8 -1 -1</clus>
<clus scale="   27.799">  2  5  1 -1</clus>
</clustering>
</event>
<event>
 9    2  0.6175212E-005  0.1312761E+03  0.7546771E-02  0.1227953E+00
          2   -1    0    0  502    0 -0.00000000000E+00  0.00000000000E+00  0.55035920125E+03  0.55035920125E+03  0.00000000000E+00 0. -1.
         21   -1    0    0  501  502  0.00000000000E+00 -0.00000000000E+00 -0.34381767917E+03  0.34381767917E+03  0.00000000000E+00 0.  1.
         24    2    1    2    0    0 -0.50307815921E+02  0.77732502034E+02  0.50866979778E+03  0.52384770559E+03  0.84251037127E+02 0.  0.
         23    2    1    2    0    0  0.14512680350E+02 -0.93180012010E+02 -0.10456450972E+03  0.16895549500E+03  0.93376067969E+02 0.  0.
        -13    1    3    3    0    0 -0.39703396615E+02  0.49708933474E+01  0.86296492191E+02  0.95121785348E+02  0.00000000000E+00 0.  1.
         14    1    3    3    0    0 -0.10604419306E+02  0.72761608686E+02  0.42237330559E+03  0.42872592024E+03  0.00000000000E+00 0. -1.
        -11    1    4    4    0    0  0.45238256892E+01 -0.62338280024E+02 -0.32567244771E+01  0.62586998726E+02  0.00000000000E+00 0. -1.
         11    1    4    4    0    0  0.99888546605E+01 -0.30841731986E+02 -0.10130778524E+03  0.10636849627E+03  0.00000000000E+00 0.  1.
          1    1    1    2  501    0  0.35795135571E+02  0.15447509976E+02 -0.19756376599E+03  0.20137367982E+03  0.00000000000E+00 0. -1.
<scales pt_clust_5="13000.00000" pt_clust_6="13000.00000" pt_clust_7="13000.00000" pt_clust_8="13000.00000" pt_clust_9="38.98612"></scales>
<clustering>
<clus scale="   38.986">  2  9  1 -1</clus>
<clus scale="   84.251">  5  6 -1 -1</clus>
<clus scale="   93.376">  7  8 -1 -1</clus>
<clus scale="  124.950">  1  5  2 -1</clus>
<clus scale="   38.986">  2  5  1 -1</clus>
</clustering>
</event>
<event>
 9    2  0.6175212E-005  0.9084725E+02  0.7546771E-02  0.1306931E+00
         -1   -1    0    0    0  501 -0.00000000000E+00  0.00000000000E+00  0.53430573063E+02  0.53430573063E+02  0.00000000000E+00 0.  1.
         21   -1    0    0  501  502  0.00000000000E+00 -0.00000000000E+00 -0.36408073844E+03  0.36408073844E+03  0.00000000000E+00 0.  1.
         24    2    1    2    0    0 -0.37677723931E+02  0.24677680464E+02 -0.90752494406E+02  0.12962429865E+03  0.80856940122E+02 0.  0.
         23    2    1    2    0    0 -0.39355731200E+02  0.13514253054E+02 -0.11152806507E+03  0.14955137580E+03  0.90529531603E+02 0.  0.
        -13    1    3    3    0    0 -0.29488015961E+02 -0.21921722056E+02 -0.67620577023E+02  0.76958738427E+02  0.00000000000E+00 0.  1.
         14    1    3    3    0    0 -0.81897079698E+01  0.46599402520E+02 -0.23131917383E+02  0.52665560223E+02  0.00000000000E+00 0. -1.
        -11    1    4    4    0    0  0.40950345780E+00 -0.32514290562E+02 -0.65991953963E+02  0.73568232082E+02  0.00000000000E+00 0.  1.
         11    1    4    4    0    0 -0.39765234658E+02  0.46028543616E+02 -0.45536111105E+02  0.75983143719E+02  0.00000000000E+00 0. -1.
         -2    1    1    2    0  502  0.77033455131E+02 -0.38191933518E+02 -0.10836960590E+03  0.13833563705E+03  0.00000000000E+00 0.  1.
<scales pt_clust_5="13000.00000" pt_clust_6="13000.00000" pt_clust_7="13000.00000" pt_clust_8="13000.00000" pt_clust_9="85.98126"></scales>
<clustering>
<clus scale="   80.857">  5  6 -1 -1</clus>
<clus scale="   85.981">  2  9  1 -1</clus>
<clus scale="   81.213">  1  5  2 -1</clus>
<clus scale="   90.530">  7  8 -1 -1</clus>
<clus scale="   85.981">  2  5  1 -1</clus>
</clustering>
</event>
<event>
 9    2  0.6175212E-005  0.1941261E+03  0.7546771E-02  0.1180856E+00
         21   -1    0    0  501  502  0.00000000000E+00  0.00000000000E+00  0.25027090932E+03  0.25027090932E+03  0.00000000000E+00 0.  1.
          2   -1    0    0  502    0 -0.00000000000E+00 -0.00000000000E+00 -0.42963207550E+03  0.42963207550E+03  0.00000000000E+00 0. -1.
         24    2    1    2    0    0  0.48045261263E+02  0.51342202647E+02 -0.84603039817E+02  0.13616799328E+03  0.80247611457E+02 0.  0.
         23    2    1    2    0    0 -0.28066540551E+02 -0.17795585344E+03  0.16061156267E+03  0.25800112248E+03  0.91172850511E+02 0.  0.
        -13    1    3    3    0    0  0.55724430394E+02  0.10628900508E+01 -0.47162606820E+02  0.73011323506E+02  0.00000000000E+00 0.  1.
         14    1    3    3    0    0 -0.76791691311E+01  0.50279312596E+02 -0.37440432997E+02  0.63156669772E+02  0.00000000000E+00 0. -1.
        -13    1    4    4    0    0 -0.37114682138E+02 -0.15309450391E+03  0.16822866645E+03  0.23046976152E+03  0.00000000000E+00 0.  1.
         13    1    4    4    0    0  0.90481415869E+01 -0.24861349524E+02 -0.76171037892E+01  0.27531360963E+02  0.00000000000E+00 0. -1.
          1    1    1    2  501    0 -0.19978720712E+02  0.12661365079E+03 -0.25536968903E+03  0.28573386905E+03  0.00000000000E+00 0. -1.
<scales pt_clust_5="13000.00000" pt_clust_6="13000.00000" pt_clust_7="13000.00000" pt_clust_8="13000.00000" pt_clust_9="171.38403"></scales>
<clustering>
<clus scale="   80.248">  5  6 -1 -1</clus>
<clus scale="   91.173">  7  8 -1 -1</clus>
<clus scale="  106.696">  2  5  1 -1</clus>
<clus scale="  171.384">  1  9  2 -1</clus>
<clus scale="  171.384">  1  5  2 -1</clus>
</clustering>
</event>
<event>
 9    2  0.6175212E-005  0.9325094E+02  0.7546771E-02  0.1299160E+00
         21   -1    0    0  501  502  0.00000000000E+00  0.00000000000E+00  0.94246003745E+02  0.94246003745E+02  0.00000000000E+00 0. -1.
         -1   -1    0    0    0  501 -0.00000000000E+00 -0.00000000000E+00 -0.14174320702E+03  0.14174320702E+03  0.00000000000E+00 0.  1.
         23    2    1    2    0    0 -0.18877756663E+02  0.33853059706E+02 -0.78157368074E+02  0.12345646436E+03  0.87352876654E+02 0.  0.
         24    2    1    2    0    0  0.19764965148E+02 -0.95637962381E+01  0.17858636704E+02  0.85062133378E+02  0.80215432331E+02 0.  0.
        -11    1    4    4    0    0  0.30011484260E+02 -0.29226547033E+02 -0.15787325900E+02  0.44767397713E+02  0.00000000000E+00 0.  1.
         12    1    4    4    0    0 -0.10246519112E+02  0.19662750795E+02  0.33645962604E+02  0.40294735665E+02  0.00000000000E+00 0. -1.
        -13    1    3    3    0    0 -0.42239849475E+02 -0.11932509196E+02 -0.40656500822E+02  0.59829263062E+02  0.00000000000E+00 0.  1.
         13    1    3    3    0    0  0.23362092813E+02  0.45785568902E+02 -0.37500867251E+02  0.63627201297E+02  0.00000000000E+00 0. -1.
         -2    1    1    2    0  502 -0.88720848515E+00 -0.24289263468E+02  0.12801528093E+02  0.27470613030E+02  0.00000000000E+00 0.  1.
<scales pt_clust_5="13000.00000" pt_clust_6="13000.00000" pt_clust_7="13000.00000" pt_clust_8="13000.00000" pt_clust_9="24.30546"></scales>
<clustering>
<clus scale="   24.305">  1  9  2 -1</clus>
<clus scale="   80.215">  5  6 -1 -1</clus>
<clus scale="   86.601">  1  5  2 -1</clus>
<clus scale="   87.353">  7  8 -1 -1</clus>
<clus scale="   24.305">  1  5  2 -1</clus>
</clustering>
</event>
<event>
 9    2  0.6175212E-005  0.1355934E+03  0.7546771E-02  0.1223812E+00
         21   -1    0    0  501  502  0.00000000000E+00  0.00000000000E+00  0.91124607586E+02  0.91124607586E+02  0.00000000000E+00 0.  1.
          2   -1    0    0  502    0 -0.00000000000E+00 -0.00000000000E+00 -0.51451372779E+03  0.51451372779E+03  0.00000000000E+00 0. -1.
         23    2    1    2    0    0  0.90667633531E+02  0.33264650223E+02 -0.44308520939E+03  0.46400496560E+03  0.98229061887E+02 0.  0.
         24    2    1    2    0    0 -0.76379192369E+02 -0.12739795000E+02  0.38319860182E+01  0.11201751250E+03  0.80852678293E+02 0.  0.
        -13    1    4    4    0    0 -0.79603043457E+02 -0.36766723587E+02  0.39955014004E+01  0.87774714596E+02  0.00000000000E+00 0.  1.
         14    1    4    4    0    0  0.32238510885E+01  0.24026928586E+02 -0.16351538216E+00  0.24242797908E+02  0.00000000000E+00 0. -1.
        -11    1    3    3    0    0  0.24598645588E+02  0.66991510008E+01 -0.14068614149E+02  0.29118686319E+02  0.00000000000E+00 0.  1.
         11    1    3    3    0    0  0.66068987944E+02  0.26565499222E+02 -0.42901659524E+03  0.43488627928E+03  0.00000000000E+00 0. -1.
          1    1    1    2  501    0 -0.14288441163E+02 -0.20524855223E+02  0.15864103165E+02  0.29615857273E+02  0.00000000000E+00 0. -1.
<scales pt_clust_5="13000.00000" pt_clust_6="13000.00000" pt_clust_7="13000.00000" pt_clust_8="13000.00000" pt_clust_9="25.00858"></scales>
<clustering>
<clus scale="   25.009">  1  9  2 -1</clus>
<clus scale="   80.853">  5  6 -1 -1</clus>
<clus scale="   98.229">  7  8 -1 -1</clus>
<clus scale="  123.587">  1  5  2 -1</clus>
<clus scale="   25.009">  1  5  2 -1</clus>
</clustering>
</event>
<event>
 9    2  0.6175212E-005  0.1646324E+03  0.7546771E-02  0.1183879E+00
         21   -1    0    0  501  502  0.00000000000E+00  0.00000000000E+00  0.44731751401E+02  0.44731751401E+02  0.00000000000E+00 0.  1.
          2   -1    0    0  502    0 -0.00000000000E+00 -0.00000000000E+00 -0.70009868945E+03  0.70009868945E+03  0.00000000000E+00 0. -1.
         24    2    1    2    0    0  0.80773403032E+02 -0.10509332590E+03 -0.28114251680E+03  0.32080641635E+03  0.79414685251E+02 0.  0.
         23    2    1    2    0    0 -0.99588798692E+02  0.11854888783E+03 -0.31414586645E+03  0.35964620218E+03  0.81767950323E+02 0.  0.
        -13    1    3    3    0    0  0.53086306770E+02 -0.10390720980E+03 -0.16952347165E+03  0.20579861918E+03  0.00000000000E+00 0.  1.
         14    1    3    3    0    0  0.27687096261E+02 -0.11861161001E+01 -0.11161904515E+03  0.11500779717E+03  0.00000000000E+00 0. -1.
        -13    1    4    4    0    0 -0.10379846019E+03  0.68346699952E+02 -0.23469682969E+03  0.26557107071E+03  0.00000000000E+00 0. -1.
         13    1    4    4    0    0  0.42096614987E+01  0.50202187878E+02 -0.79449036760E+02  0.94075131463E+02  0.00000000000E+00 0.  1.
          1    1    1    2  501    0  0.18815395660E+02 -0.13455561930E+02 -0.60078554794E+02  0.64377822321E+02  0.00000000000E+00 0. -1.
<scales pt_clust_5="13000.00000" pt_clust_6="13000.00000" pt_clust_7="13000.00000" pt_clust_8="13000.00000" pt_clust_9="23.13162"></scales>
<clustering>
<clus scale="   23.132">  1  9  2 -1</clus>
<clus scale="   79.415">  5  6 -1 -1</clus>
<clus scale="   81.768">  7  8 -1 -1</clus>
<clus scale="  163.476">  2  5  1 -1</clus>
<clus scale="   23.132">  1  5  2 -1</clus>
</clustering>
</event>
<event>
 9    2  0.6175212E-005  0.9225936E+02  0.7546771E-02  0.1301828E+00
         21   -1    0    0  501  502  0.00000000000E+00  0.00000000000E+00  0.11550595336E+03  0.11550595336E+03  0.00000000000E+00 0. -1.
          2   -1    0    0  502    0 -0.00000000000E+00 -0.00000000000E+00 -0.37329240604E+03  0.37329240604E+03  0.00000000000E+00 0. -1.
         24    2    1    2    0    0  0.40135342968E+02  0.74694020549E+01 -0.17651586483E+03  0.19952038394E+03  0.83569703527E+02 0.  0.
         23    2    1    2    0    0  0.23444298212E+02 -0.18121758528E+02 -0.16071806874E+03  0.18696597376E+03  0.90818194612E+02 0.  0.
        -13    1    3    3    0    0  0.25572877584E+02  0.45442594458E+02 -0.92725309842E+02  0.10638131671E+03  0.00000000000E+00 0.  1.
         14    1    3    3    0    0  0.14562465384E+02 -0.37973192403E+02 -0.83790554990E+02  0.93139067232E+02  0.00000000000E+00 0. -1.
        -11    1    4    4    0    0 -0.24125889324E+02  0.16501244381E+02 -0.22957049334E+02  0.37166863143E+02  0.00000000000E+00 0.  1.
         11    1    4    4    0    0  0.47570187536E+02 -0.34623002909E+02 -0.13776101941E+03  0.14979911062E+03  0.00000000000E+00 0. -1.
          1    1    1    2  501    0 -0.63579641180E+02  0.10652356473E+02  0.79447480899E+02  0.10231200170E+03  0.00000000000E+00 0. -1.
<scales pt_clust_5="13000.00000" pt_clust_6="13000.00000" pt_clust_7="13000.00000" pt_clust_8="13000.00000" pt_clust_9="64.46583"></scales>
<clustering>
<clus scale="   64.466">  1  9  2 -1</clus>
<clus scale="   83.570">  5  6 -1 -1</clus>
<clus scale="   85.134">  2  5  1 -1</clus>
<clus scale="   90.818">  7  8 -1 -1</clus>
<clus scale="   64.466">  1  5  2 -1</clus>
</clustering>
</event>
<event>
 9    2  0.1535726E-004  0.1128930E+03  0.7546771E-02  0.1258148E+00
         -1   -1    0    0    0  501 -0.00000000000E+00  0.00000000000E+00  0.51851525223E+03  0.51851525223E+03  0.00000000000E+00 0.  1.
         21   -1    0    0  501  502  0.00000000000E+00 -0.00000000000E+00 -0.14216958912E+03  0.14216958912E+03  0.00000000000E+00 0.  1.
         23    2    1    2    0    0 -0.21793310929E+02  0.59593547507E+02  0.47311466747E+03  0.48661161362E+03  0.94482985903E+02 0.  0.
         24    2    1    2    0    0  0.63602991701E+01 -0.46161096833E+02 -0.28408834985E+02  0.10271692920E+03  0.87019568904E+02 0.  0.
        -13    1    4    4    0    0 -0.24242612638E+02  0.75866144112E+01 -0.31888919723E+02  0.40769647862E+02  0.00000000000E+00 0.  1.
         14    1    4    4    0    0  0.30602911808E+02 -0.53747711244E+02  0.34800847378E+01  0.61947281336E+02  0.00000000000E+00 0. -1.
        -11    1    3    3    0    0  0.25123370993E+02  0.56256003563E+02  0.19359930332E+03  0.20316646366E+03  0.00000000000E+00 0. -1.
         11    1    3    3    0    0 -0.46916681922E+02  0.33375439433E+01  0.27951536415E+03  0.28344514996E+03  0.00000000000E+00 0.  1.
         -2    1    1    2    0  502  0.15433011759E+02 -0.13432450674E+02 -0.68360169377E+02  0.71356298533E+02  0.00000000000E+00 0.  1.
<scales pt_clust_5="13000.00000" pt_clust_6="13000.00000" pt_clust_7="13000.00000" pt_clust_8="13000.00000" pt_clust_9="20.45993"></scales>
<clustering>
<clus scale="   20.460">  2  9  1 -1</clus>
<clus scale="   87.020">  5  6 -1 -1</clus>
<clus scale="   94.483">  7  8 -1 -1</clus>
<clus scale="  106.725">  2  5  1 -1</clus>
<clus scale="   20.460">  2  5  1 -1</clus>
</clustering>
</event>
<event>
 9    2  0.6175212E-005  0.1951986E+03  0.7546771E-02  0.1154786E+00
         -1   -1    0    0    0  501 -0.00000000000E+00  0.00000000000E+00  0.43255064311E+03  0.43255064311E+03  0.00000000000E+00 0.  1.
         21   -1    0    0  501  502  0.00000000000E+00 -0.00000000000E+00 -0.25581951638E+03  0.25581951638E+03  0.00000000000E+00 0.  1.
         23    2    1    2    0    0 -0.19477824656E+03 -0.87838506647E+01 -0.16632098064E+01  0.21443456125E+03  0.89239528376E+02 0.  0.
         24    2    1    2    0    0  0.14082986491E+03  0.49314769245E+02 -0.93888791961E+02  0.19341592815E+03  0.79558900754E+02 0.  0.
        -11    1    4    4    0    0  0.12168506525E+03  0.70339132239E+01 -0.76195655082E+02  0.14374459605E+03  0.00000000000E+00 0.  1.
         12    1    4    4    0    0  0.19144799662E+02  0.42280856021E+02 -0.17693136879E+02  0.49671332100E+02  0.00000000000E+00 0. -1.
        -11    1    3    3    0    0 -0.16953539918E+03 -0.30806632207E+02  0.21585322672E+02  0.17365836092E+03  0.00000000000E+00 0.  1.
         11    1    3    3    0    0 -0.25242847385E+02  0.22022781543E+02 -0.23248532478E+02  0.40776200330E+02  0.00000000000E+00 0. -1.
         -2    1    1    2    0  502  0.53948381649E+02 -0.40530918580E+02  0.27228312850E+03  0.28051967009E+03  0.00000000000E+00 0.  1.
<scales pt_clust_5="13000.00000" pt_clust_6="13000.00000" pt_clust_7="13000.00000" pt_clust_8="13000.00000" pt_clust_9="67.47731"></scales>
<clustering>
<clus scale="   67.477">  2  9  1 -1</clus>
<clus scale="   79.559">  5  6 -1 -1</clus>
<clus scale="   89.240">  7  8 -1 -1</clus>
<clus scale="  190.967">  2  5  1 -1</clus>
<clus scale="   67.477">  2  5  1 -1</clus>
</clustering>
</event>
<event>
 9    2  0.6175212E-005  0.1475634E+03  0.7546771E-02  0.1205505E+00
          2   -1    0    0  502    0 -0.00000000000E+00  0.00000000000E+00  0.27371172282E+03  0.27371172282E+03  0.00000000000E+00 0. -1.
         21   -1    0    0  501  502  0.00000000000E+00 -0.00000000000E+00 -0.16008814582E+03  0.16008814582E+03  0.00000000000E+00 0.  1.
         24    2    1    2    0    0 -0.12548963256E+03  0.20034286433E+02  0.16162090815E+03  0.22009143734E+03  0.78548725820E+02 0.  0.
         23    2    1    2    0    0  0.95052917490E+02 -0.30242517893E+02  0.22956537959E+02  0.13582998014E+03  0.89292294506E+02 0.  0.
        -11    1    3    3    0    0 -0.31949068234E+02 -0.15404319967E+02  0.73389023406E+01  0.36220098319E+02  0.00000000000E+00 0.  1.
         12    1    3    3    0    0 -0.93540564322E+02  0.35438606400E+02  0.15428200581E+03  0.18387133903E+03  0.00000000000E+00 0. -1.
        -13    1    4    4    0    0  0.54660224808E+02  0.20910648310E+02  0.36888657715E+02  0.69179248745E+02  0.00000000000E+00 0. -1.
         13    1    4    4    0    0  0.40392692681E+02 -0.51153166203E+02 -0.13932119757E+02  0.66650731395E+02  0.00000000000E+00 0.  1.
          1    1    1    2  501    0  0.30436715067E+02  0.10208231460E+02 -0.70953869110E+02  0.77878451161E+02  0.00000000000E+00 0. -1.
<scales pt_clust_5="13000.00000" pt_clust_6="13000.00000" pt_clust_7="13000.00000" pt_clust_8="13000.00000" pt_clust_9="32.10298"></scales>
<clustering>
<clus scale="   32.103">  2  9  1 -1</clus>
<clus scale="   78.549">  5  6 -1 -1</clus>
<clus scale="   89.292">  7  8 -1 -1</clus>
<clus scale="  141.321">  1  5  2 -1</clus>
<clus scale="   32.103">  2  5  1 -1</clus>
</clustering>
</event>
<event>
 9    2  0.6175212E-005  0.1030275E+03  0.7546771E-02  0.1275852E+00
         21   -1    0    0  501  502  0.00000000000E+00  0.00000000000E+00  0.15782222762E+03  0.15782222762E+03  0.00000000000E+00 0.  1.
          2   -1    0    0  502    0 -0.00000000000E+00 -0.00000000000E+00 -0.18833481785E+03  0.18833481785E+03  0.00000000000E+00 0. -1.
         24    2    1    2    0    0  0.24824991070E+02  0.30947433030E+02 -0.74930570258E+02  0.12066337613E+03  0.85854738874E+02 0.  0.
         23    2    1    2    0    0 -0.11295363534E+02 -0.10666631172E+03  0.49424895416E+02  0.14841274684E+03  0.89879006686E+02 0.  0.
        -11    1    3    3    0    0  0.25955923123E+02 -0.25982719097E+02 -0.21374981812E+02  0.42493546385E+02  0.00000000000E+00 0.  1.
         12    1    3    3    0    0 -0.11309320534E+01  0.56930152128E+02 -0.53555588446E+02  0.78169829745E+02  0.00000000000E+00 0. -1.
        -13    1    4    4    0    0  0.38469751084E+02 -0.31141133755E+02  0.17496681588E+02  0.52495960098E+02  0.00000000000E+00 0.  1.
         13    1    4    4    0    0 -0.49765114618E+02 -0.75525177969E+02  0.31928213828E+02  0.95916786739E+02  0.00000000000E+00 0. -1.
          1    1    1    2  501    0 -0.13529627536E+02  0.75718878693E+02 -0.50069153804E+01  0.77080922500E+02  0.00000000000E+00 0. -1.
<scales pt_clust_5="13000.00000" pt_clust_6="13000.00000" pt_clust_7="13000.00000" pt_clust_8="13000.00000" pt_clust_9="76.91813"></scales>
<clustering>
<clus scale="   76.918">  1  9  2 -1</clus>
<clus scale="   85.855">  5  6 -1 -1</clus>
<clus scale="   89.879">  7  8 -1 -1</clus>
<clus scale="   99.536">  2  5  1 -1</clus>
<clus scale="   76.918">  1  5  2 -1</clus>
</clustering>
</event>
<event>
 9    2  0.6175212E-005  0.1431908E+03  0.7546771E-02  0.1211002E+00
         21   -1    0    0  501  502  0.00000000000E+00  0.00000000000E+00  0.39957528426E+03  0.39957528426E+03  0.00000000000E+00 0. -1.
         -1   -1    0    0    0  501 -0.00000000000E+00 -0.00000000000E+00 -0.16328392947E+03  0.16328392947E+03  0.00000000000E+00 0.  1.
         23    2    1    2    0    0  0.19377540298E+02  0.11155811337E+03 -0.11350219003E+03  0.18397431879E+03  0.90239132894E+02 0.  0.
         24    2    1    2    0    0 -0.73305958077E+01 -0.93166168246E+02  0.29865680465E+03  0.32322199247E+03  0.80888175342E+02 0.  0.
        -13    1    4    4    0    0 -0.33539508546E+02 -0.91364487654E+02  0.23450980524E+03  0.25390395230E+03  0.00000000000E+00 0.  1.
         14    1    4    4    0    0  0.26208912738E+02 -0.18016805922E+01  0.64146999407E+02  0.69318040168E+02  0.00000000000E+00 0. -1.
        -13    1    3    3    0    0  0.51090275220E+02  0.93834809204E+02 -0.96056545327E+02  0.14367340582E+03  0.00000000000E+00 0. -1.
         13    1    3    3    0    0 -0.31712734922E+02  0.17723304163E+02 -0.17445644705E+02  0.40300912966E+02  0.00000000000E+00 0.  1.
         -2    1    1    2    0  502 -0.12046944490E+02 -0.18391945121E+02  0.51136740175E+02  0.55662902481E+02  0.00000000000E+00 0.  1.
<scales pt_clust_5="13000.00000" pt_clust_6="13000.00000" pt_clust_7="13000.00000" pt_clust_8="13000.00000" pt_clust_9="21.98619"></scales>
<clustering>
<clus scale="   21.986">  1  9  2 -1</clus>
<clus scale="   80.888">  5  6 -1 -1</clus>
<clus scale="   90.239">  7  8 -1 -1</clus>
<clus scale="  137.490">  1  5  2 -1</clus>
<clus scale="   21.986">  1  5  2 -1</clus>
</clustering>
</event>
<event>
 9    2  0.6175212E-005  0.1556133E+03  0.7546771E-02  0.1195775E+00
          2   -1    0    0  502    0 -0.00000000000E+00  0.00000000000E+00  0.34810257487E+03  0.34810257487E+03  0.00000000000E+00 0. -1.
         21   -1    0    0  501  502  0.00000000000E+00 -0.00000000000E+00 -0.28072702033E+03  0.28072702033E+03  0.00000000000E+00 0. -1.
         24    2    1    2    0    0  0.75056930174E+02 -0.11509664268E+03  0.28206592261E+03  0.32374030148E+03  0.79786077604E+02 0.  0.
         23    2    1    2    0    0 -0.67826276102E+02  0.13650087205E+02 -0.10957488952E+03  0.15882600440E+03  0.91827635535E+02 0.  0.
        -13    1    3    3    0    0  0.69224552617E+01 -0.37277241591E+02  0.21939500361E+02  0.43804734945E+02  0.00000000000E+00 0.  1.
         14    1    3    3    0    0  0.68134474912E+02 -0.77819401084E+02  0.26012642225E+03  0.27993556653E+03  0.00000000000E+00 0. -1.
        -11    1    4    4    0    0 -0.89760786475E+02  0.20311094368E+02 -0.88907484166E+02  0.12796124446E+03  0.00000000000E+00 0. -1.
         11    1    4    4    0    0  0.21934510373E+02 -0.66610071629E+01 -0.20667405357E+02  0.30864759936E+02  0.00000000000E+00 0.  1.
          1    1    1    2  501    0 -0.72306540724E+01  0.10144655547E+03 -0.10511547854E+03  0.14626328933E+03  0.00000000000E+00 0. -1.
<scales pt_clust_5="13000.00000" pt_clust_6="13000.00000" pt_clust_7="13000.00000" pt_clust_8="13000.00000" pt_clust_9="101.70391"></scales>
<clustering>
<clus scale="   79.786">  5  6 -1 -1</clus>
<clus scale="   91.828">  7  8 -1 -1</clus>
<clus scale="  101.704">  2  9  1 -1</clus>
<clus scale="  148.825">  1  5  2 -1</clus>
<clus scale="  101.704">  2  5  1 -1</clus>
</clustering>
</event>
<event>
 9    2  0.6175212E-005  0.1078304E+03  0.7546771E-02  0.1270949E+00
          2   -1    0    0  502    0 -0.00000000000E+00  0.00000000000E+00  0.52208695643E+03  0.52208695643E+03  0.00000000000E+00 0. -1.
         21   -1    0    0  501  502  0.00000000000E+00 -0.00000000000E+00 -0.11015797086E+03  0.11015797086E+03  0.00000000000E+00 0.  1.
         24    2    1    2    0    0  0.22636412928E+02  0.53659634993E+02  0.48197056142E+03  0.49147266906E+03  0.76537564234E+02 0.  0.
         23    2    1    2    0    0 -0.16216854237E+02 -0.31591152099E+02 -0.49630764215E+02  0.11003417269E+03  0.91560467179E+02 0.  0.
        -13    1    3    3    0    0  0.21979675158E+01  0.50239656760E+02  0.13797527383E+03  0.14685377204E+03  0.00000000000E+00 0.  1.
         14    1    3    3    0    0  0.20438445412E+02  0.34199782329E+01  0.34399528759E+03  0.34461889702E+03  0.00000000000E+00 0. -1.
        -11    1    4    4    0    0 -0.23742120581E+02  0.21884539922E+02  0.56203022085E+01  0.32775130422E+02  0.00000000000E+00 0. -1.
         11    1    4    4    0    0  0.75252663444E+01 -0.53475692021E+02 -0.55251066423E+02  0.77259042264E+02  0.00000000000E+00 0.  1.
          1    1    1    2  501    0 -0.64195586915E+01 -0.22068482894E+02 -0.20410811642E+02  0.30738085544E+02  0.00000000000E+00 0. -1.
<scales pt_clust_5="13000.00000" pt_clust_6="13000.00000" pt_clust_7="13000.00000" pt_clust_8="13000.00000" pt_clust_9="22.98323"></scales>
<clustering>
<clus scale="   22.983">  2  9  1 -1</clus>
<clus scale="   76.538">  5  6 -1 -1</clus>
<clus scale="   91.560">  7  8 -1 -1</clus>
<clus scale="   95.405">  1  5  2 -1</clus>
<clus scale="   22.983">  2  5  1 -1</clus>
</clustering>
</event>
<event>
 9    2  0.6175212E-005  0.9569115E+02  0.7546771E-02  0.1297944E+00
         21   -1    0    0  501  502  0.00000000000E+00  0.00000000000E+00  0.12522639286E+03  0.12522639286E+03  0.00000000000E+00 0. -1.
          4   -1    0    0  502    0 -0.00000000000E+00 -0.00000000000E+00 -0.89232665201E+02  0.89232665201E+02  0.00000000000E+00 0. -1.
         23    2    1    2    0    0 -0.18068450109E+02 -0.43076275194E+01  0.96844479531E+01  0.94264254514E+02  0.91907217359E+02 0.  0.
         24    2    1    2    0    0  0.21576527885E+02  0.33295969033E+02  0.26412979325E+02  0.90994781168E+02  0.77512815803E+02 0.  0.
        -13    1    4    4    0    0 -0.20352280222E+02 -0.41172582732E+01 -0.10987519840E+02  0.23492397029E+02  0.00000000000E+00 0.  1.
         14    1    4    4    0    0  0.41928808107E+02  0.37413227306E+02  0.37400499165E+02  0.67502384140E+02  0.00000000000E+00 0. -1.
        -13    1    3    3    0    0 -0.51258315001E+02  0.16052761811E+02  0.12752525071E+02  0.55206276040E+02  0.00000000000E+00 0. -1.
         13    1    3    3    0    0  0.33189864892E+02 -0.20360389330E+02 -0.30680771182E+01  0.39057978474E+02  0.00000000000E+00 0.  1.
          3    1    1    2  501    0 -0.35080777761E+01 -0.28988341514E+02 -0.10369961777E+00  0.29200022380E+02  0.00000000000E+00 0. -1.
<scales pt_clust_5="13000.00000" pt_clust_6="13000.00000" pt_clust_7="13000.00000" pt_clust_8="13000.00000" pt_clust_9="29.19985"></scales>
<clustering>
<clus scale="   29.200">  1  9  2 -1</clus>
<clus scale="   77.513">  5  6 -1 -1</clus>
<clus scale="   81.964">  1  5  2 -1</clus>
<clus scale="   91.907">  7  8 -1 -1</clus>
<clus scale="   29.200">  1  5  2 -1</clus>
</clustering>
</event>
<event>
 9    2  0.6175212E-005  0.9269354E+02  0.7546771E-02  0.1299670E+00
         21   -1    0    0  501  502  0.00000000000E+00  0.00000000000E+00  0.74913636922E+02  0.74913636922E+02  0.00000000000E+00 0. -1.
          2   -1    0    0  502    0 -0.00000000000E+00 -0.00000000000E+00 -0.54659508209E+03  0.54659508209E+03  0.00000000000E+00 0. -1.
         24    2    1    2    0    0  0.29571346903E+02 -0.24855681690E+02 -0.44475048998E+03  0.45349180460E+03  0.79746780686E+02 0.  0.
         23    2    1    2    0    0  0.16767381330E+01  0.31187946091E+02 -0.69680391705E+02  0.11468723493E+03  0.85570470581E+02 0.  0.
        -11    1    3    3    0    0 -0.17845396340E+02  0.16529003828E+02 -0.91467115692E+02  0.94646180013E+02  0.00000000000E+00 0.  1.
         12    1    3    3    0    0  0.47416743243E+02 -0.41384685518E+02 -0.35328337429E+03  0.35884562459E+03  0.00000000000E+00 0. -1.
        -13    1    4    4    0    0 -0.61442430437E+01  0.59953404999E+02 -0.38313842954E+02  0.71415075828E+02  0.00000000000E+00 0.  1.
         13    1    4    4    0    0  0.78209811767E+01 -0.28765458908E+02 -0.31366548751E+02  0.43272159102E+02  0.00000000000E+00 0. -1.
          1    1    1    2  501    0 -0.31248085036E+02 -0.63322644015E+01  0.42749436521E+02  0.53329679482E+02  0.00000000000E+00 0. -1.
<scales pt_clust_5="13000.00000" pt_clust_6="13000.00000" pt_clust_7="13000.00000" pt_clust_8="13000.00000" pt_clust_9="31.88323"></scales>
<clustering>
<clus scale="   31.883">  1  9  2 -1</clus>
<clus scale="   79.747">  5  6 -1 -1</clus>
<clus scale="   85.570">  7  8 -1 -1</clus>
<clus scale="   87.346">  2  5  1 -1</clus>
<clus scale="   31.883">  1  5  2 -1</clus>
</clustering>
</event>
<event>
 9    2  0.6175212E-005  0.2404410E+03  0.7546771E-02  0.1165360E+00
          2   -1    0    0  502    0 -0.00000000000E+00  0.00000000000E+00  0.56299898552E+03  0.56299898552E+03  0.00000000000E+00 0. -1.
         21   -1    0    0  501  502  0.00000000000E+00 -0.00000000000E+00 -0.14392969222E+03  0.14392969222E+03  0.00000000000E+00 0. -1.
         24    2    1    2    0    0  0.46996234871E+01  0.38381958326E+01  0.11590557945E+03  0.14076956293E+03  0.79656439100E+02 0.  0.
         23    2    1    2    0    0  0.90050531059E+02  0.20131955080E+03  0.88152068380E+02  0.25423396278E+03  0.90694327221E+02 0.  0.
        -11    1    3    3    0    0  0.13012197008E+02  0.21978448007E+02  0.11797518606E+03  0.12070838402E+03  0.00000000000E+00 0.  1.
         12    1    3    3    0    0 -0.83125735208E+01 -0.18140252174E+02 -0.20696066069E+01  0.20061178903E+02  0.00000000000E+00 0. -1.
        -11    1    4    4    0    0  0.61954440814E+02  0.55931766984E+02  0.61738703872E+02  0.10381899080E+03  0.00000000000E+00 0.  1.
         11    1    4    4    0    0  0.28096090245E+02  0.14538778382E+03  0.26413364508E+02  0.15041497198E+03  0.00000000000E+00 0. -1.
          1    1    1    2  501    0 -0.94750154546E+02 -0.20515774663E+03  0.21501164547E+03  0.31192515204E+03  0.00000000000E+00 0. -1.
<scales pt_clust_5="13000.00000" pt_clust_6="13000.00000" pt_clust_7="13000.00000" pt_clust_8="13000.00000" pt_clust_9="222.68014"></scales>
<clustering>
<clus scale="   79.656">  5  6 -1 -1</clus>
<clus scale="   79.887">  1  5  2 -1</clus>
<clus scale="   90.694">  7  8 -1 -1</clus>
<clus scale="  222.680">  2  9  1 -1</clus>
<clus scale="  222.680">  2  5  1 -1</clus>
</clustering>
</event>
<event>
 9    2  0.6175212E-005  0.1078692E+03  0.7546771E-02  0.1269073E+00
         21   -1    0    0  501  502  0.00000000000E+00  0.00000000000E+00  0.69081297709E+02  0.69081297709E+02  0.00000000000E+00 0. -1.
          2   -1    0    0  502    0 -0.00000000000E+00 -0.00000000000E+00 -0.48765775655E+03  0.48765775655E+03  0.00000000000E+00 0. -1.
         23    2    1    2    0    0  0.23834184134E+02  0.52322717949E+02 -0.31671693097E+03  0.33469789035E+03  0.91691484282E+02 0.  0.
         24    2    1    2    0    0  0.22305645677E+02 -0.65010830514E+02  0.36545263446E+01  0.10618311399E+03  0.80855106338E+02 0.  0.
        -11    1    4    4    0    0  0.36074516175E+02  0.34633528884E+01  0.25425600416E+01  0.36329466581E+02  0.00000000000E+00 0.  1.
         12    1    4    4    0    0 -0.13768870498E+02 -0.68474183403E+02  0.11119663030E+01  0.69853647410E+02  0.00000000000E+00 0. -1.
        -13    1    3    3    0    0  0.44909981701E+02  0.39927410989E+02 -0.29774912686E+03  0.30375260847E+03  0.00000000000E+00 0. -1.
         13    1    3    3    0    0 -0.21075797567E+02  0.12395306961E+02 -0.18967804115E+02  0.30945281881E+02  0.00000000000E+00 0.  1.
          1    1    1    2  501    0 -0.46139829812E+02  0.12688112565E+02 -0.10551405421E+03  0.11585804992E+03  0.00000000000E+00 0. -1.
<scales pt_clust_5="13000.00000" pt_clust_6="13000.00000" pt_clust_7="13000.00000" pt_clust_8="13000.00000" pt_clust_9="47.85263"></scales>
<clustering>
<clus scale="   47.853">  1  9  2 -1</clus>
<clus scale="   80.855">  5  6 -1 -1</clus>
<clus scale="   91.691">  7  8 -1 -1</clus>
<clus scale="   98.823">  1  5  2 -1</clus>
<clus scale="   47.853">  1  5  2 -1</clus>
</clustering>
</event>
<event>
 9    2  0.6175212E-005  0.1119997E+03  0.7546771E-02  0.1257389E+00
         21   -1    0    0  501  502  0.00000000000E+00  0.00000000000E+00  0.31167680210E+02  0.31167680210E+02  0.00000000000E+00 0. -1.
          2   -1    0    0  502    0 -0.00000000000E+00 -0.00000000000E+00 -0.14820105693E+04  0.14820105693E+04  0.00000000000E+00 0. -1.
         24    2    1    2    0    0  0.67823542916E+02 -0.25546020594E+02 -0.85549831910E+03  0.86231981673E+03  0.80408085333E+02 0.  0.
         23    2    1    2    0    0 -0.64560468979E+02  0.57877617460E+02 -0.60525214047E+03  0.61688580021E+03  0.81853919881E+02 0.  0.
        -13    1    3    3    0    0  0.46593444191E+02  0.51441348079E+01 -0.18718301745E+03  0.19296345039E+03  0.00000000000E+00 0.  1.
         14    1    3    3    0    0  0.21230098725E+02 -0.30690155402E+02 -0.66831530166E+03  0.66935636634E+03  0.00000000000E+00 0. -1.
        -11    1    4    4    0    0 -0.83729934677E+02  0.39534668606E+02 -0.45895425196E+03  0.46820155636E+03  0.00000000000E+00 0.  1.
         11    1    4    4    0    0  0.19169465698E+02  0.18342948854E+02 -0.14629788851E+03  0.14868424385E+03  0.00000000000E+00 0. -1.
          1    1    1    2  501    0 -0.32630739371E+01 -0.32331596866E+02  0.99075705256E+01  0.33972632532E+02  0.00000000000E+00 0. -1.
<scales pt_clust_5="13000.00000" pt_clust_6="13000.00000" pt_clust_7="13000.00000" pt_clust_8="13000.00000" pt_clust_9="32.49584"></scales>
<clustering>
<clus scale="   32.496">  1  9  2 -1</clus>
<clus scale="   80.408">  5  6 -1 -1</clus>
<clus scale="   81.854">  7  8 -1 -1</clus>
<clus scale="  110.947">  2  5  1 -1</clus>
<clus scale="   32.496">  1  5  2 -1</clus>
</clustering>
</event>
<event>
 9    2  0.6175212E-005  0.9942624E+02  0.7546771E-02  0.1289090E+00
          2   -1    0    0  502    0 -0.00000000000E+00  0.00000000000E+00  0.56113473076E+02  0.56113473076E+02  0.00000000000E+00 0. -1.
         21   -1    0    0  501  502  0.00000000000E+00 -0.00000000000E+00 -0.55266127546E+03  0.55266127546E+03  0.00000000000E+00 0.  1.
         24    2    1    2    0    0 -0.35970749912E+02  0.42254489693E+01  0.35719971806E+01  0.87601214574E+02  0.79683526294E+02 0.  0.
         23    2    1    2    0    0  0.12474306931E+01 -0.33588117833E+02 -0.30746582515E+03  0.32322548755E+03  0.93860345325E+02 0.  0.
        -13    1    3    3    0    0  0.17985685292E+02 -0.11635092137E+02 -0.17381043573E+02  0.27585520118E+02  0.00000000000E+00 0.  1.
         14    1    3    3    0    0 -0.53956435205E+02  0.15860541107E+02  0.20953040754E+02  0.60015694456E+02  0.00000000000E+00 0. -1.
        -11    1    4    4    0    0 -0.44558804804E+02 -0.28425014939E+02 -0.18378035283E+03  0.19122940842E+03  0.00000000000E+00 0.  1.
         11    1    4    4    0    0  0.45806235497E+02 -0.51631028936E+01 -0.12368547232E+03  0.13199607913E+03  0.00000000000E+00 0. -1.
          1    1    1    2  501    0  0.34723319219E+02  0.29362668863E+02 -0.19265397441E+03  0.19794804641E+03  0.00000000000E+00 0. -1.
<scales pt_clust_5="13000.00000" pt_clust_6="13000.00000" pt_clust_7="13000.00000" pt_clust_8="13000.00000" pt_clust_9="45.47390"></scales>
<clustering>
<clus scale="   45.474">  2  9  1 -1</clus>
<clus scale="   79.684">  5  6 -1 -1</clus>
<clus scale="   86.170">  1  5  2 -1</clus>
<clus scale="   93.860">  7  8 -1 -1</clus>
<clus scale="   45.474">  2  5  1 -1</clus>
</clustering>
</event>
<event>
 9    2  0.6175212E-005  0.1389695E+03  0.7546771E-02  0.1217714E+00
         21   -1    0    0  501  502  0.00000000000E+00  0.00000000000E+00  0.33612905052E+03  0.33612905052E+03  0.00000000000E+00 0. -1.
          2   -1    0    0  502    0 -0.00000000000E+00 -0.00000000000E+00 -0.13777518705E+03  0.13777518705E+03  0.00000000000E+00 0. -1.
         23    2    1    2    0    0  0.10122095238E+03  0.60729186812E+02 -0.35882888219E+02  0.15188726710E+03  0.88591449423E+02 0.  0.
         24    2    1    2    0    0 -0.68874598218E+02 -0.61705178623E+02  0.40332306463E+02  0.12543067118E+03  0.74531328850E+02 0.  0.
        -11    1    4    4    0    0 -0.53583710231E+02 -0.18884630512E+01  0.39365847414E+01  0.53761296434E+02  0.00000000000E+00 0.  1.
         12    1    4    4    0    0 -0.15290887986E+02 -0.59816715572E+02  0.36395721722E+02  0.71669374749E+02  0.00000000000E+00 0. -1.
        -13    1    3    3    0    0  0.99123461600E+02  0.20713143543E+02 -0.51634975990E+01  0.10139603869E+03  0.00000000000E+00 0.  1.
         13    1    3    3    0    0  0.20974907751E+01  0.40016043270E+02 -0.30719390620E+02  0.50491228412E+02  0.00000000000E+00 0. -1.
          1    1    1    2  501    0 -0.32346354158E+02  0.97599181089E+00  0.19390444523E+03  0.19658629928E+03  0.00000000000E+00 0. -1.
<scales pt_clust_5="13000.00000" pt_clust_6="13000.00000" pt_clust_7="13000.00000" pt_clust_8="13000.00000" pt_clust_9="32.36108"></scales>
<clustering>
<clus scale="   32.361">  1  9  2 -1</clus>
<clus scale="   74.531">  5  6 -1 -1</clus>
<clus scale="   88.591">  7  8 -1 -1</clus>
<clus scale="  130.457">  1  5  2 -1</clus>
<clus scale="   32.361">  1  5  2 -1</clus>
</clustering>
</event>
<event>
 9    2  0.6175212E-005  0.9576613E+02  0.7546771E-02  0.1295605E+00
         21   -1    0    0  501  502  0.00000000000E+00  0.00000000000E+00  0.83797525986E+02  0.83797525986E+02  0.00000000000E+00 0. -1.
          2   -1    0    0  502    0 -0.00000000000E+00 -0.00000000000E+00 -0.15781846507E+03  0.15781846507E+03  0.00000000000E+00 0. -1.
         23    2    1    2    0    0  0.14127700447E+02 -0.14669723883E+02 -0.77682874694E+02  0.12185826961E+03  0.91651601905E+02 0.  0.
         24    2    1    2    0    0 -0.23787769154E+02  0.33165446273E+02 -0.15058382596E+02  0.91724544898E+02  0.80751671577E+02 0.  0.
        -11    1    4    4    0    0  0.27258296013E+02  0.28137929325E+02 -0.72298763829E+01  0.39837531057E+02  0.00000000000E+00 0.  1.
         12    1    4    4    0    0 -0.51046065167E+02  0.50275169485E+01 -0.78285062135E+01  0.51887013840E+02  0.00000000000E+00 0. -1.
        -11    1    3    3    0    0  0.26669468788E+02 -0.41680990975E+02 -0.13794512021E+02  0.51369778430E+02  0.00000000000E+00 0. -1.
         11    1    3    3    0    0 -0.12541768341E+02  0.27011267092E+02 -0.63888362674E+02  0.70488491175E+02  0.00000000000E+00 0.  1.
          1    1    1    2  501    0  0.96600687067E+01 -0.18495722391E+02  0.18720318204E+02  0.28033176556E+02  0.00000000000E+00 0. -1.
<scales pt_clust_5="13000.00000" pt_clust_6="13000.00000" pt_clust_7="13000.00000" pt_clust_8="13000.00000" pt_clust_9="20.86645"></scales>
<clustering>
<clus scale="   20.866">  1  9  2 -1</clus>
<clus scale="   80.752">  5  6 -1 -1</clus>
<clus scale="   85.393">  1  5  2 -1</clus>
<clus scale="   91.652">  7  8 -1 -1</clus>
<clus scale="   20.866">  1  5  2 -1</clus>
</clustering>
</event>
<event>
 9    2  0.6175212E-005  0.1387528E+03  0.7546771E-02  0.1216470E+00
         21   -1    0    0  501  502  0.00000000000E+00  0.00000000000E+00  0.12031580009E+03  0.12031580009E+03  0.00000000000E+00 0. -1.
          2   -1    0    0  502    0 -0.00000000000E+00 -0.00000000000E+00 -0.13408315412E+04  0.13408315412E+04  0.00000000000E+00 0. -1.
         24    2    1    2    0    0  0.10767513039E+03 -0.24897266614E+02 -0.12635126559E+04  0.12710600024E+04  0.83159427241E+02 0.  0.
         23    2    1    2    0    0 -0.17802460252E+02  0.18274023080E+02  0.34705363155E+02  0.99590300135E+02  0.89793641973E+02 0.  0.
        -13    1    3    3    0    0  0.18874358450E+02  0.90391713668E+01 -0.55529874346E+02  0.59342353937E+02  0.00000000000E+00 0.  1.
         14    1    3    3    0    0  0.88800771945E+02 -0.33936437981E+02 -0.12079827816E+04  0.12117176484E+04  0.00000000000E+00 0. -1.
        -11    1    4    4    0    0 -0.41751397108E+02 -0.19201593049E+02  0.52680218563E+01  0.46256160567E+02  0.00000000000E+00 0.  1.
         11    1    4    4    0    0  0.23948936856E+02  0.37475616129E+02  0.29437341299E+02  0.53334139569E+02  0.00000000000E+00 0. -1.
          1    1    1    2  501    0 -0.89872670143E+02  0.66232435341E+01  0.82915516918E+01  0.90497038752E+02  0.00000000000E+00 0. -1.
<scales pt_clust_5="13000.00000" pt_clust_6="13000.00000" pt_clust_7="13000.00000" pt_clust_8="13000.00000" pt_clust_9="90.11639"></scales>
<clustering>
<clus scale="   83.159">  5  6 -1 -1</clus>
<clus scale="   89.794">  7  8 -1 -1</clus>
<clus scale="   90.116">  1  9  2 -1</clus>
<clus scale="  134.555">  2  5  1 -1</clus>
<clus scale="   90.116">  1  5  2 -1</clus>
</clustering>
</event>
<event>
 9    2  0.6175212E-005  0.1206427E+03  0.7546771E-02  0.1247647E+00
         21   -1    0    0  501  502  0.00000000000E+00  0.00000000000E+00  0.88111817621E+02  0.88111817621E+02  0.00000000000E+00 0.  1.
         -1   -1    0    0    0  501 -0.00000000000E+00 -0.00000000000E+00 -0.45033761947E+03  0.45033761947E+03  0.00000000000E+00 0.  1.
         24    2    1    2    0    0 -0.88360128249E+01 -0.63201534256E+02 -0.27529953747E+03  0.29388099410E+03  0.80645485354E+02 0.  0.
         23    2    1    2    0    0 -0.55924348532E+01  0.97080329857E+02 -0.12908744759E+03  0.18859060573E+03  0.97195584619E+02 0.  0.
        -11    1    3    3    0    0 -0.28753437442E+02 -0.74541167917E+02 -0.21109498538E+03  0.22570830452E+03  0.00000000000E+00 0.  1.
         12    1    3    3    0    0  0.19917424617E+02  0.11339633662E+02 -0.64204552097E+02  0.68172689582E+02  0.00000000000E+00 0. -1.
        -11    1    4    4    0    0  0.15381228156E+02  0.15168991863E+02 -0.94998221872E+02  0.97423522070E+02  0.00000000000E+00 0.  1.
         11    1    4    4    0    0 -0.20973663010E+02  0.81911337994E+02 -0.34089225719E+02  0.91167083655E+02  0.00000000000E+00 0. -1.
         -2    1    1    2    0  502  0.14428447678E+02 -0.33878795601E+02  0.42161183218E+02  0.55977837258E+02  0.00000000000E+00 0.  1.
<scales pt_clust_5="13000.00000" pt_clust_6="13000.00000" pt_clust_7="13000.00000" pt_clust_8="13000.00000" pt_clust_9="36.82327"></scales>
<clustering>
<clus scale="   36.823">  1  9  2 -1</clus>
<clus scale="   80.645">  5  6 -1 -1</clus>
<clus scale="   97.196">  7  8 -1 -1</clus>
<clus scale="  107.756">  2  5  1 -1</clus>
<clus scale="   36.823">  1  5  2 -1</clus>
</clustering>
</event>
<event>
 9    2  0.6175212E-005  0.1724632E+03  0.7546771E-02  0.1190170E+00
          2   -1    0    0  502    0 -0.00000000000E+00  0.00000000000E+00  0.12176455749E+04  0.12176455749E+04  0.00000000000E+00 0. -1.
         21   -1    0    0  501  502  0.00000000000E+00 -0.00000000000E+00 -0.47323127928E+02  0.47323127928E+02  0.00000000000E+00 0.  1.
         23    2    1    2    0    0  0.81719311061E+02 -0.23702533015E+01  0.49671158559E+03  0.51187376960E+03  0.92783041773E+02 0.  0.
         24    2    1    2    0    0 -0.13945351042E+03 -0.11502191941E+03  0.31965469851E+03  0.37573684703E+03  0.79509297713E+02 0.  0.
        -13    1    4    4    0    0 -0.80768822272E+02 -0.98128465327E+02  0.26449374414E+03  0.29344460984E+03  0.00000000000E+00 0.  1.
         14    1    4    4    0    0 -0.58684688144E+02 -0.16893454085E+02  0.55160954371E+02  0.82292237183E+02  0.00000000000E+00 0. -1.
        -13    1    3    3    0    0 -0.52065816840E+01  0.24009757252E+02  0.46522045287E+02  0.52610622823E+02  0.00000000000E+00 0.  1.
         13    1    3    3    0    0  0.86925892745E+02 -0.26380010553E+02  0.45018954030E+03  0.45926314677E+03  0.00000000000E+00 0. -1.
          1    1    1    2  501    0  0.57734199355E+02  0.11739217271E+03  0.35395616291E+03  0.37735808624E+03  0.00000000000E+00 0. -1.
<scales pt_clust_5="13000.00000" pt_clust_6="13000.00000" pt_clust_7="13000.00000" pt_clust_8="13000.00000" pt_clust_9="153.04195"></scales>
<clustering>
<clus scale="   79.509">  5  6 -1 -1</clus>
<clus scale="   92.783">  7  8 -1 -1</clus>
<clus scale="  123.662">  1  7  2 -1</clus>
<clus scale="  153.042">  2  9  1 -1</clus>
<clus scale="  153.042">  2  5  1 -1</clus>
</clustering>
</event>
<event>
 9    2  0.6175212E-005  0.1281167E+03  0.7546771E-02  0.1242762E+00
          2   -1    0    0  502    0 -0.00000000000E+00  0.00000000000E+00  0.39907048986E+03  0.39907048986E+03  0.00000000000E+00 0. -1.
         21   -1    0    0  501  502  0.00000000000E+00 -0.00000000000E+00 -0.73210378061E+02  0.73210378061E+02  0.00000000000E+00 0. -1.
         24    2    1    2    0    0 -0.45778751814E+02 -0.48597176351E+02  0.19108351188E+03  0.21780947517E+03  0.80440532657E+02 0.  0.
         23    2    1    2    0    0  0.66173345254E+02 -0.28870072074E+02  0.94276268653E+02  0.16470842237E+03  0.11414226598E+03 0.  0.
        -11    1    3    3    0    0  0.14077151190E+02 -0.41380678602E+02  0.69567494183E+02  0.82159375570E+02  0.00000000000E+00 0.  1.
         12    1    3    3    0    0 -0.59855903004E+02 -0.72164977492E+01  0.12151601770E+03  0.13565009960E+03  0.00000000000E+00 0. -1.
        -13    1    4    4    0    0 -0.10841058761E+02 -0.34595814725E+02 -0.74268177459E+01  0.37007520498E+02  0.00000000000E+00 0. -1.
         13    1    4    4    0    0  0.77014404015E+02  0.57257426512E+01  0.10170308640E+03  0.12770090187E+03  0.00000000000E+00 0.  1.
          1    1    1    2  501    0 -0.20394593440E+02  0.77467248425E+02  0.40500331266E+02  0.89762970388E+02  0.00000000000E+00 0. -1.
<scales pt_clust_5="13000.00000" pt_clust_6="13000.00000" pt_clust_7="13000.00000" pt_clust_8="13000.00000" pt_clust_9="80.10689"></scales>
<clustering>
<clus scale="   80.107">  2  9  1 -1</clus>
<clus scale="   80.441">  5  6 -1 -1</clus>
<clus scale="   99.278">  1  5  2 -1</clus>
<clus scale="  114.142">  7  8 -1 -1</clus>
<clus scale="   80.107">  2  5  1 -1</clus>
</clustering>
</event>
<event>
 9    2  0.6175212E-005  0.1055107E+03  0.7546771E-02  0.1271280E+00
         21   -1    0    0  501  502  0.00000000000E+00  0.00000000000E+00  0.22531907257E+03  0.22531907257E+03  0.00000000000E+00 0. -1.
          2   -1    0    0  502    0 -0.00000000000E+00 -0.00000000000E+00 -0.21695829088E+03  0.21695829088E+03  0.00000000000E+00 0. -1.
         23    2    1    2    0    0 -0.10820648585E+02  0.77937113975E+02 -0.16739575179E+03  0.19929960707E+03  0.74213984468E+02 0.  0.
         24    2    1    2    0    0  0.76650233614E+01 -0.29594095257E+02  0.32255905262E+02  0.91520053606E+02  0.80005710612E+02 0.  0.
        -11    1    4    4    0    0  0.30007604236E+02 -0.42537198321E+02  0.38749469337E+02  0.64895230387E+02  0.00000000000E+00 0.  1.
         12    1    4    4    0    0 -0.22342580875E+02  0.12943103064E+02 -0.64935640746E+01  0.26624823220E+02  0.00000000000E+00 0. -1.
        -11    1    3    3    0    0 -0.34047649071E+02  0.54370240337E+02 -0.63508935247E+02  0.90270428701E+02  0.00000000000E+00 0.  1.
         11    1    3    3    0    0  0.23227000486E+02  0.23566873638E+02 -0.10388681654E+03  0.10902917837E+03  0.00000000000E+00 0. -1.
          1    1    1    2  501    0  0.31556252232E+01 -0.48343018718E+02  0.14350062822E+03  0.15145770277E+03  0.00000000000E+00 0. -1.
<scales pt_clust_5="13000.00000" pt_clust_6="13000.00000" pt_clust_7="13000.00000" pt_clust_8="13000.00000" pt_clust_9="48.44590"></scales>
<clustering>
<clus scale="   48.446">  1  9  2 -1</clus>
<clus scale="   74.214">  7  8 -1 -1</clus>
<clus scale="   80.006">  5  6 -1 -1</clus>
<clus scale="  101.189">  2  7  1 -1</clus>
<clus scale="   48.446">  1  5  2 -1</clus>
</clustering>
</event>
<event>
 9    2  0.6175212E-005  0.1417658E+03  0.7546771E-02  0.1234408E+00
          2   -1    0    0  502    0 -0.00000000000E+00  0.00000000000E+00  0.26274113963E+03  0.26274113963E+03  0.00000000000E+00 0. -1.
         21   -1    0    0  501  502  0.00000000000E+00 -0.00000000000E+00 -0.17758157006E+03  0.17758157006E+03  0.00000000000E+00 0. -1.
         24    2    1    2    0    0  0.13478487395E+02  0.29209175128E+02  0.13008319398E+03  0.15641609571E+03  0.80681547504E+02 0.  0.
         23    2    1    2    0    0  0.99709319662E+02 -0.47465698707E+02 -0.81896958721E+02  0.16344164908E+03  0.88380539852E+02 0.  0.
        -11    1    3    3    0    0 -0.27759121135E+02  0.25890398515E+01  0.15816691530E+02  0.32053699701E+02  0.00000000000E+00 0.  1.
         12    1    3    3    0    0  0.41237608531E+02  0.26620135276E+02  0.11426650245E+03  0.12436239601E+03  0.00000000000E+00 0. -1.
        -13    1    4    4    0    0  0.35070239985E+02 -0.63938850492E+02 -0.29698627786E+02  0.78740757091E+02  0.00000000000E+00 0. -1.
         13    1    4    4    0    0  0.64639079676E+02  0.16473151785E+02 -0.52198330935E+02  0.84700891988E+02  0.00000000000E+00 0.  1.
          1    1    1    2  501    0 -0.11318780706E+03  0.18256523579E+02  0.36973334306E+02  0.12046496490E+03  0.00000000000E+00 0. -1.
<scales pt_clust_5="13000.00000" pt_clust_6="13000.00000" pt_clust_7="13000.00000" pt_clust_8="13000.00000" pt_clust_9="110.84418"></scales>
<clustering>
<clus scale="   80.682">  5  6 -1 -1</clus>
<clus scale="   86.858">  1  5  2 -1</clus>
<clus scale="   88.381">  7  8 -1 -1</clus>
<clus scale="  110.844">  2  9  1 -1</clus>
<clus scale="  110.844">  2  5  1 -1</clus>
</clustering>
</event>
<event>
 9    2  0.6175212E-005  0.1680721E+03  0.7546771E-02  0.1181462E+00
         -1   -1    0    0    0  501 -0.00000000000E+00  0.00000000000E+00  0.17889147457E+03  0.17889147457E+03  0.00000000000E+00 0.  1.
         21   -1    0    0  501  502  0.00000000000E+00 -0.00000000000E+00 -0.20189064643E+03  0.20189064643E+03  0.00000000000E+00 0.  1.
         24    2    1    2    0    0  0.59961650837E+02 -0.11489644804E+03 -0.16223495713E+02  0.15337365823E+03  0.80397039018E+02 0.  0.
         23    2    1    2    0    0 -0.39595813795E+02  0.15136368375E+03 -0.22579965789E+02  0.18274973271E+03  0.91699600441E+02 0.  0.
        -13    1    3    3    0    0  0.60567395553E+02 -0.72365467838E+02  0.21199543384E+02  0.96719134504E+02  0.00000000000E+00 0.  1.
         14    1    3    3    0    0 -0.60574471542E+00 -0.42530980200E+02 -0.37423039097E+02  0.56654523727E+02  0.00000000000E+00 0. -1.
        -13    1    4    4    0    0 -0.66068704026E+02  0.13096104575E+03 -0.26636257156E+02  0.14908172038E+03  0.00000000000E+00 0.  1.
         13    1    4    4    0    0  0.26472890231E+02  0.20402638000E+02  0.40562913670E+01  0.33668012329E+02  0.00000000000E+00 0. -1.
         -2    1    1    2    0  502 -0.20365837042E+02 -0.36467235716E+02  0.15804289640E+02  0.44658730056E+02  0.00000000000E+00 0.  1.
<scales pt_clust_5="13000.00000" pt_clust_6="13000.00000" pt_clust_7="13000.00000" pt_clust_8="13000.00000" pt_clust_9="41.76875"></scales>
<clustering>
<clus scale="   41.769">  2  9  1 -1</clus>
<clus scale="   80.397">  5  6 -1 -1</clus>
<clus scale="   91.700">  7  8 -1 -1</clus>
<clus scale="  162.182">  1  5  2 -1</clus>
<clus scale="   41.769">  2  5  1 -1</clus>
</clustering>
</event>
<event>
 9    2  0.6175212E-005  0.1747691E+03  0.7546771E-02  0.1173245E+00
         21   -1    0    0  501  502  0.00000000000E+00  0.00000000000E+00  0.65244179662E+03  0.65244179662E+03  0.00000000000E+00 0. -1.
         -1   -1    0    0    0  501 -0.00000000000E+00 -0.00000000000E+00 -0.25596133298E+03  0.25596133298E+03  0.00000000000E+00 0.  1.
         24    2    1    2    0    0  0.12618649895E+03  0.92721222869E+02 -0.19588186263E+03  0.26353207893E+03  0.80988856223E+02 0.  0.
         23    2    1    2    0    0 -0.15226350133E+03 -0.20679002657E+02  0.34242625217E+03  0.38345541862E+03  0.78552688719E+02 0.  0.
        -13    1    3    3    0    0  0.78080888218E+02  0.67731371412E+02 -0.17909537012E+03  0.20678325700E+03  0.00000000000E+00 0.  1.
         14    1    3    3    0    0  0.48105610732E+02  0.24989851457E+02 -0.16786492509E+02  0.56748821931E+02  0.00000000000E+00 0. -1.
        -11    1    4    4    0    0 -0.16093722828E+02  0.22972246077E+02  0.39175867561E+02  0.48181745541E+02  0.00000000000E+00 0.  1.
         11    1    4    4    0    0 -0.13616977850E+03 -0.43651248734E+02  0.30325038461E+03  0.33527367308E+03  0.00000000000E+00 0. -1.
         -2    1    1    2    0  502  0.26077002377E+02 -0.72042220212E+02  0.24993607410E+03  0.26141563205E+03  0.00000000000E+00 0.  1.
<scales pt_clust_5="13000.00000" pt_clust_6="13000.00000" pt_clust_7="13000.00000" pt_clust_8="13000.00000" pt_clust_9="76.61652"></scales>
<clustering>
<clus scale="   76.617">  1  9  2 -1</clus>
<clus scale="   78.553">  7  8 -1 -1</clus>
<clus scale="   80.989">  5  6 -1 -1</clus>
<clus scale="  173.654">  1  7  2 -1</clus>
<clus scale="   76.617">  1  5  2 -1</clus>
</clustering>
</event>
<event>
 9    2  0.6175212E-005  0.1022889E+03  0.7546771E-02  0.1285903E+00
         21   -1    0    0  501  502  0.00000000000E+00  0.00000000000E+00  0.17018872130E+02  0.17018872130E+02  0.00000000000E+00 0. -1.
          2   -1    0    0  502    0 -0.00000000000E+00 -0.00000000000E+00 -0.12397811414E+04  0.12397811414E+04  0.00000000000E+00 0. -1.
         24    2    1    2    0    0 -0.12346418246E+02 -0.11518917710E+02 -0.60441781793E+03  0.60997973575E+03  0.80431709452E+02 0.  0.
         23    2    1    2    0    0  0.66489665611E+02 -0.26174022634E+02 -0.36226419120E+03  0.38237869894E+03  0.99358794685E+02 0.  0.
        -11    1    3    3    0    0  0.10352778656E+02  0.29602147360E+02 -0.15687286153E+03  0.15997675406E+03  0.00000000000E+00 0.  1.
         12    1    3    3    0    0 -0.22699196902E+02 -0.41121065071E+02 -0.44754495640E+03  0.45000298169E+03  0.00000000000E+00 0. -1.
        -11    1    4    4    0    0  0.32778144377E+02 -0.51241237944E+02 -0.30695553186E+03  0.31292454323E+03  0.00000000000E+00 0. -1.
         11    1    4    4    0    0  0.33711521234E+02  0.25067215310E+02 -0.55308659340E+02  0.69454155709E+02  0.00000000000E+00 0.  1.
          1    1    1    2  501    0 -0.54143247365E+02  0.37692940344E+02 -0.25608026011E+03  0.26444157881E+03  0.00000000000E+00 0. -1.
<scales pt_clust_5="13000.00000" pt_clust_6="13000.00000" pt_clust_7="13000.00000" pt_clust_8="13000.00000" pt_clust_9="65.97158"></scales>
<clustering>
<clus scale="   65.972">  1  9  2 -1</clus>
<clus scale="   80.432">  5  6 -1 -1</clus>
<clus scale="   84.024">  2  5  1 -1</clus>
<clus scale="   99.359">  7  8 -1 -1</clus>
<clus scale="   65.972">  1  5  2 -1</clus>
</clustering>
</event>
<event>
 9    2  0.6175212E-005  0.9156425E+02  0.7546771E-02  0.1304419E+00
         21   -1    0    0  501  502  0.00000000000E+00  0.00000000000E+00  0.93015991504E+02  0.93015991504E+02  0.00000000000E+00 0. -1.
          2   -1    0    0  502    0 -0.00000000000E+00 -0.00000000000E+00 -0.47402282872E+03  0.47402282872E+03  0.00000000000E+00 0. -1.
         24    2    1    2    0    0  0.10276212343E+01  0.15636828141E+01 -0.36787893765E+03  0.37710848299E+03  0.82899903882E+02 0.  0.
         23    2    1    2    0    0 -0.22684813207E+02  0.46998572328E+00 -0.77496423463E+02  0.12198567856E+03  0.91432972655E+02 0.  0.
        -13    1    3    3    0    0 -0.32276227573E+02 -0.25917778706E+01 -0.67546891771E+02  0.74906974087E+02  0.00000000000E+00 0.  1.
         14    1    3    3    0    0  0.33303848807E+02  0.41554606847E+01 -0.30033204588E+03  0.30220150890E+03  0.00000000000E+00 0. -1.
        -11    1    4    4    0    0 -0.28916057247E+02  0.38946250849E+02 -0.19878834053E+02  0.52422484348E+02  0.00000000000E+00 0. -1.
         11    1    4    4    0    0  0.62312440401E+01 -0.38476265125E+02 -0.57617589409E+02  0.69563194217E+02  0.00000000000E+00 0.  1.
          1    1    1    2  501    0  0.21657191973E+02 -0.20336685374E+01  0.64368523904E+02  0.67944658667E+02  0.00000000000E+00 0. -1.
<scales pt_clust_5="13000.00000" pt_clust_6="13000.00000" pt_clust_7="13000.00000" pt_clust_8="13000.00000" pt_clust_9="21.75247"></scales>
<clustering>
<clus scale="   21.752">  1  9  2 -1</clus>
<clus scale="   82.900">  5  6 -1 -1</clus>
<clus scale="   83.045">  2  5  1 -1</clus>
<clus scale="   91.433">  7  8 -1 -1</clus>
<clus scale="   21.752">  1  5  2 -1</clus>
</clustering>
</event>
<event>
 9    2  0.6175212E-005  0.1195713E+03  0.7546771E-02  0.1250790E+00
         21   -1    0    0  501  502  0.00000000000E+00  0.00000000000E+00  0.48855561002E+02  0.48855561002E+02  0.00000000000E+00 0.  1.
         -3   -1    0    0    0  501 -0.00000000000E+00 -0.00000000000E+00 -0.47819861801E+03  0.47819861801E+03  0.00000000000E+00 0.  1.
         23    2    1    2    0    0  0.61255482310E+02  0.67676957807E+01 -0.17783163508E+03  0.21714546662E+03  0.10830525111E+03 0.  0.
         24    2    1    2    0    0 -0.30145328841E+02 -0.27587588342E+02 -0.63160323714E+02  0.11787370055E+03  0.90747820402E+02 0.  0.
        -11    1    4    4    0    0 -0.46426936834E+02 -0.11554684552E+02  0.29417210703E+01  0.47933546935E+02  0.00000000000E+00 0.  1.
         12    1    4    4    0    0  0.16281607993E+02 -0.16032903789E+02 -0.66102044784E+02  0.69940153613E+02  0.00000000000E+00 0. -1.
        -13    1    3    3    0    0  0.28329581967E+02  0.48460883454E+02 -0.38606506452E+02  0.68128443252E+02  0.00000000000E+00 0.  1.
         13    1    3    3    0    0  0.32925900344E+02 -0.41693187674E+02 -0.13922512862E+03  0.14901702336E+03  0.00000000000E+00 0. -1.
         -4    1    1    2    0  502 -0.31110153469E+02  0.20819892561E+02 -0.18835109821E+03  0.19203501184E+03  0.00000000000E+00 0.  1.
<scales pt_clust_5="13000.00000" pt_clust_6="13000.00000" pt_clust_7="13000.00000" pt_clust_8="13000.00000" pt_clust_9="37.43409"></scales>
<clustering>
<clus scale="   37.434">  1  9  2 -1</clus>
<clus scale="   90.748">  5  6 -1 -1</clus>
<clus scale="  103.935">  1  5  2 -1</clus>
<clus scale="  108.305">  7  8 -1 -1</clus>
<clus scale="   37.434">  1  5  2 -1</clus>
</clustering>
</event>
<event>
 9    2  0.6175212E-005  0.1170021E+03  0.7546771E-02  0.1252057E+00
         21   -1    0    0  501  502  0.00000000000E+00  0.00000000000E+00  0.30967508273E+02  0.30967508273E+02  0.00000000000E+00 0.  1.
         -1   -1    0    0    0  501 -0.00000000000E+00 -0.00000000000E+00 -0.59271116830E+03  0.59271116830E+03  0.00000000000E+00 0.  1.
         23    2    1    2    0    0  0.41391489171E+02 -0.43503296278E+02 -0.24244462162E+03  0.26586774161E+03  0.91106911455E+02 0.  0.
         24    2    1    2    0    0 -0.46975466288E+02  0.80067986241E+02 -0.21704083976E+03  0.24906859481E+03  0.79440933656E+02 0.  0.
        -13    1    4    4    0    0 -0.62297534716E+02  0.37926440170E+02 -0.10031485498E+03  0.12402607720E+03  0.00000000000E+00 0.  1.
         14    1    4    4    0    0  0.15322068427E+02  0.42141546070E+02 -0.11672598478E+03  0.12504251761E+03  0.00000000000E+00 0. -1.
        -13    1    3    3    0    0  0.44787506575E+02  0.14863516782E+02 -0.76055945197E+02  0.89506154404E+02  0.00000000000E+00 0.  1.
         13    1    3    3    0    0 -0.33960174037E+01 -0.58366813061E+02 -0.16638867642E+03  0.17636158721E+03  0.00000000000E+00 0. -1.
         -2    1    1    2    0  502  0.55839771170E+01 -0.36564689962E+02 -0.10225819864E+03  0.10874234016E+03  0.00000000000E+00 0.  1.
<scales pt_clust_5="13000.00000" pt_clust_6="13000.00000" pt_clust_7="13000.00000" pt_clust_8="13000.00000" pt_clust_9="36.98863"></scales>
<clustering>
<clus scale="   36.989">  1  9  2 -1</clus>
<clus scale="   79.441">  5  6 -1 -1</clus>
<clus scale="   91.107">  7  8 -1 -1</clus>
<clus scale="  108.166">  1  5  2 -1</clus>
<clus scale="   36.989">  1  5  2 -1</clus>
</clustering>
</event>
<event>
 9    2  0.6175212E-005  0.1015236E+03  0.7546771E-02  0.1281988E+00
         21   -1    0    0  501  502  0.00000000000E+00  0.00000000000E+00  0.36984949442E+03  0.36984949442E+03  0.00000000000E+00 0. -1.
          2   -1    0    0  502    0 -0.00000000000E+00 -0.00000000000E+00 -0.57095412659E+02  0.57095412659E+02  0.00000000000E+00 0. -1.
         24    2    1    2    0    0  0.50439231993E+02  0.50714833326E+02  0.10177471285E+03  0.14786654476E+03  0.79939429827E+02 0.  0.
         23    2    1    2    0    0 -0.33800481094E+02  0.25980172380E+02  0.14787330110E+03  0.17837410359E+03  0.90185174905E+02 0.  0.
        -11    1    3    3    0    0 -0.16630430478E+02  0.31958566998E+02  0.47252717506E+02  0.59420034788E+02  0.00000000000E+00 0.  1.
         12    1    3    3    0    0  0.67069662471E+02  0.18756266328E+02  0.54521995344E+02  0.88446509975E+02  0.00000000000E+00 0. -1.
        -11    1    4    4    0    0  0.70092724113E+01  0.24486906942E+02  0.52944896869E+00  0.25475847925E+02  0.00000000000E+00 0. -1.
         11    1    4    4    0    0 -0.40809753505E+02  0.14932654380E+01  0.14734385214E+03  0.15289825566E+03  0.00000000000E+00 0.  1.
          1    1    1    2  501    0 -0.16638750899E+02 -0.76695005705E+02  0.63106067801E+02  0.10070425872E+03  0.00000000000E+00 0. -1.
<scales pt_clust_5="13000.00000" pt_clust_6="13000.00000" pt_clust_7="13000.00000" pt_clust_8="13000.00000" pt_clust_9="78.47916"></scales>
<clustering>
<clus scale="   78.479">  1  9  2 -1</clus>
<clus scale="   79.939">  5  6 -1 -1</clus>
<clus scale="   90.185">  7  8 -1 -1</clus>
<clus scale="   92.542">  2  5  1 -1</clus>
<clus scale="   78.479">  1  5  2 -1</clus>
</clustering>
</event>
<event>
 9    2  0.6175212E-005  0.1042782E+03  0.7546771E-02  0.1276394E+00
          2   -1    0    0  502    0 -0.00000000000E+00  0.00000000000E+00  0.12520855336E+03  0.12520855336E+03  0.00000000000E+00 0. -1.
         21   -1    0    0  501  502  0.00000000000E+00 -0.00000000000E+00 -0.14190067364E+03  0.14190067364E+03  0.00000000000E+00 0.  1.
         24    2    1    2    0    0 -0.26410086089E+02 -0.32334130182E+02 -0.15464209672E+02  0.93050654728E+02  0.81708591609E+02 0.  0.
         23    2    1    2    0    0  0.49809137629E+02  0.33981835268E+02 -0.49130721769E+02  0.12072087583E+03  0.92325439181E+02 0.  0.
        -11    1    3    3    0    0  0.14625071389E+02 -0.18873969174E+02  0.24499674506E+02  0.34210429352E+02  0.00000000000E+00 0.  1.
         12    1    3    3    0    0 -0.41035157479E+02 -0.13460161008E+02 -0.39963884179E+02  0.58840225376E+02  0.00000000000E+00 0. -1.
        -13    1    4    4    0    0  0.55788243536E+02  0.54494993431E+02 -0.58400193602E+02  0.97430052030E+02  0.00000000000E+00 0.  1.
         13    1    4    4    0    0 -0.59791059062E+01 -0.20513158162E+02  0.92694718327E+01  0.23290823800E+02  0.00000000000E+00 0. -1.
          1    1    1    2  501    0 -0.23399051540E+02 -0.16477050865E+01  0.47902811157E+02  0.53337696442E+02  0.00000000000E+00 0. -1.
<scales pt_clust_5="13000.00000" pt_clust_6="13000.00000" pt_clust_7="13000.00000" pt_clust_8="13000.00000" pt_clust_9="23.45701"></scales>
<clustering>
<clus scale="   23.457">  2  9  1 -1</clus>
<clus scale="   81.709">  5  6 -1 -1</clus>
<clus scale="   92.325">  7  8 -1 -1</clus>
<clus scale="   95.007">  1  5  2 -1</clus>
<clus scale="   23.457">  2  5  1 -1</clus>
</clustering>
</event>
<event>
 9    2  0.6175212E-005  0.1036737E+03  0.7546771E-02  0.1281509E+00
          2   -1    0    0  502    0 -0.00000000000E+00  0.00000000000E+00  0.39699413175E+03  0.39699413175E+03  0.00000000000E+00 0. -1.
         21   -1    0    0  501  502  0.00000000000E+00 -0.00000000000E+00 -0.49010554341E+02  0.49010554341E+02  0.00000000000E+00 0. -1.
         24    2    1    2    0    0 -0.46828211339E+02 -0.12324096995E+02  0.28800780220E+03  0.30145329879E+03  0.74704969569E+02 0.  0.
         23    2    1    2    0    0  0.28560188869E+02  0.28181704038E+02  0.64369066931E+02  0.11996510336E+03  0.92942758818E+02 0.  0.
        -13    1    3    3    0    0  0.14175883098E+00  0.27349888691E+02  0.79768334298E+02  0.84326885770E+02  0.00000000000E+00 0.  1.
         14    1    3    3    0    0 -0.46969970170E+02 -0.39673985686E+02  0.20823946790E+03  0.21712641302E+03  0.00000000000E+00 0. -1.
        -13    1    4    4    0    0  0.58920506933E+02 -0.10771324919E+01  0.34408908219E+02  0.68240452200E+02  0.00000000000E+00 0.  1.
         13    1    4    4    0    0 -0.30360318063E+02  0.29258836530E+02  0.29960158712E+02  0.51724651164E+02  0.00000000000E+00 0. -1.
          1    1    1    2  501    0  0.18268022470E+02 -0.15857607043E+02 -0.43932917173E+01  0.24586283944E+02  0.00000000000E+00 0. -1.
<scales pt_clust_5="13000.00000" pt_clust_6="13000.00000" pt_clust_7="13000.00000" pt_clust_8="13000.00000" pt_clust_9="24.19058"></scales>
<clustering>
<clus scale="   24.191">  2  9  1 -1</clus>
<clus scale="   74.705">  5  6 -1 -1</clus>
<clus scale="   87.697">  1  5  2 -1</clus>
<clus scale="   92.943">  7  8 -1 -1</clus>
<clus scale="   24.191">  2  5  1 -1</clus>
</clustering>
</event>
<event>
 9    2  0.6175212E-005  0.1151725E+03  0.7546771E-02  0.1253254E+00
         -3   -1    0    0    0  501 -0.00000000000E+00  0.00000000000E+00  0.18136793025E+03  0.18136793025E+03  0.00000000000E+00 0.  1.
         21   -1    0    0  501  502  0.00000000000E+00 -0.00000000000E+00 -0.92514423173E+02  0.92514423173E+02  0.00000000000E+00 0. -1.
         24    2    1    2    0    0 -0.48619239113E+02 -0.62917931261E+02  0.79433781694E+02  0.14001686983E+03  0.83501507031E+02 0.  0.
         23    2    1    2    0    0  0.28061452302E+02  0.56542329248E+02  0.17742570934E+02  0.11078864114E+03  0.89301982507E+02 0.  0.
        -11    1    3    3    0    0 -0.36555267123E+02 -0.49292662714E+02  0.96961514465E+02  0.11475011738E+03  0.00000000000E+00 0.  1.
         12    1    3    3    0    0 -0.12063971990E+02 -0.13625268547E+02 -0.17527732770E+02  0.25266752448E+02  0.00000000000E+00 0. -1.
        -11    1    4    4    0    0 -0.26902831085E+02  0.27489019562E+02 -0.14064854857E+02  0.40953982211E+02  0.00000000000E+00 0. -1.
         11    1    4    4    0    0  0.54964283387E+02  0.29053309687E+02  0.31807425791E+02  0.69834658927E+02  0.00000000000E+00 0.  1.
         -4    1    1    2    0  502  0.20557786811E+02  0.63756020128E+01 -0.83228455518E+01  0.23076842454E+02  0.00000000000E+00 0.  1.
<scales pt_clust_5="13000.00000" pt_clust_6="13000.00000" pt_clust_7="13000.00000" pt_clust_8="13000.00000" pt_clust_9="21.52373"></scales>
<clustering>
<clus scale="   21.524">  2  9  1 -1</clus>
<clus scale="   83.502">  5  6 -1 -1</clus>
<clus scale="   89.302">  7  8 -1 -1</clus>
<clus scale="  110.736">  1  5  2 -1</clus>
<clus scale="   21.524">  2  5  1 -1</clus>
</clustering>
</event>
<event>
 9    2  0.6175212E-005  0.9597317E+02  0.7546771E-02  0.1292202E+00
         -1   -1    0    0    0  501 -0.00000000000E+00  0.00000000000E+00  0.35857583188E+02  0.35857583188E+02  0.00000000000E+00 0.  1.
         21   -1    0    0  501  502  0.00000000000E+00 -0.00000000000E+00 -0.44559528134E+03  0.44559528134E+03  0.00000000000E+00 0.  1.
         23    2    1    2    0    0 -0.28310608910E+02 -0.28679669507E+02 -0.86755507975E+02  0.13095286425E+03  0.89432211605E+02 0.  0.
         24    2    1    2    0    0  0.36929615199E+02 -0.86953493072E+01 -0.17394704586E+03  0.19660830608E+03  0.83413701974E+02 0.  0.
        -13    1    4    4    0    0  0.61463390019E+02 -0.65284473309E+01 -0.90428615338E+02  0.10953402854E+03  0.00000000000E+00 0.  1.
         14    1    4    4    0    0 -0.24533774820E+02 -0.21669019763E+01 -0.83518430524E+02  0.87074277535E+02  0.00000000000E+00 0. -1.
        -11    1    3    3    0    0 -0.58587049497E+02 -0.36828509605E+01 -0.48688521683E+02  0.76266492667E+02  0.00000000000E+00 0.  1.
         11    1    3    3    0    0  0.30276440587E+02 -0.24996818547E+02 -0.38066986292E+02  0.54686371588E+02  0.00000000000E+00 0. -1.
         -2    1    1    2    0  502 -0.86190062883E+01  0.37375018814E+02 -0.14903514432E+03  0.15389169420E+03  0.00000000000E+00 0.  1.
<scales pt_clust_5="13000.00000" pt_clust_6="13000.00000" pt_clust_7="13000.00000" pt_clust_8="13000.00000" pt_clust_9="38.35596"></scales>
<clustering>
<clus scale="   38.356">  2  9  1 -1</clus>
<clus scale="   83.414">  5  6 -1 -1</clus>
<clus scale="   89.432">  7  8 -1 -1</clus>
<clus scale="   90.391">  2  5  1 -1</clus>
<clus scale="   38.356">  2  5  1 -1</clus>
</clustering>
</event>
<event>
 9    2  0.6175212E-005  0.1641959E+03  0.7546771E-02  0.1185600E+00
         -3   -1    0    0    0  501 -0.00000000000E+00  0.00000000000E+00  0.28379294064E+03  0.28379294064E+03  0.00000000000E+00 0.  1.
         21   -1    0    0  501  502  0.00000000000E+00 -0.00000000000E+00 -0.44930268133E+03  0.44930268133E+03  0.00000000000E+00 0. -1.
         23    2    1    2    0    0  0.83282070843E+02 -0.10910421067E+03  0.24200595238E+03  0.29308095709E+03  0.92140839559E+02 0.  0.
         24    2    1    2    0    0 -0.64444201824E+02  0.98459605444E+02 -0.33522716789E+03  0.36455736701E+03  0.81715792208E+02 0.  0.
        -11    1    4    4    0    0 -0.26504837240E+02  0.10144256977E+03 -0.25699139423E+03  0.27755662137E+03  0.00000000000E+00 0.  1.
         12    1    4    4    0    0 -0.37939364583E+02 -0.29829643289E+01 -0.78235773656E+02  0.87000745634E+02  0.00000000000E+00 0. -1.
        -11    1    3    3    0    0  0.57247438822E+02 -0.12284875210E+03  0.19124984931E+03  0.23440475679E+03  0.00000000000E+00 0.  1.
         11    1    3    3    0    0  0.26034632021E+02  0.13744541429E+02  0.50756103067E+02  0.58676200304E+02  0.00000000000E+00 0. -1.
         -4    1    1    2    0  502 -0.18837869019E+02  0.10644605229E+02 -0.72288525174E+02  0.75457297867E+02  0.00000000000E+00 0.  1.
<scales pt_clust_5="13000.00000" pt_clust_6="13000.00000" pt_clust_7="13000.00000" pt_clust_8="13000.00000" pt_clust_9="21.63730"></scales>
<clustering>
<clus scale="   21.637">  2  9  1 -1</clus>
<clus scale="   81.716">  5  6 -1 -1</clus>
<clus scale="   92.141">  7  8 -1 -1</clus>
<clus scale="  158.581">  2  5  1 -1</clus>
<clus scale="   21.637">  2  5  1 -1</clus>
</clustering>
</event>
<event>
 9    2  0.6175212E-005  0.1157468E+03  0.7546771E-02  0.1261446E+00
          2   -1    0    0  502    0 -0.00000000000E+00  0.00000000000E+00  0.14373571375E+03  0.14373571375E+03  0.00000000000E+00 0. -1.
         21   -1    0    0  501  502  0.00000000000E+00 -0.00000000000E+00 -0.39573094150E+03  0.39573094150E+03  0.00000000000E+00 0.  1.
         24    2    1    2    0    0 -0.14322063205E+02 -0.49247724205E+02 -0.61249945664E+01  0.93008054585E+02  0.77346769975E+02 0.  0.
         23    2    1    2    0    0 -0.34643995893E+02 -0.61162119308E+02 -0.29527531847E+03  0.31596388453E+03  0.87776143325E+02 0.  0.
        -11    1    3    3    0    0  0.23101327881E+02 -0.48631562288E+02  0.47035536493E+01  0.54044644669E+02  0.00000000000E+00 0.  1.
         12    1    3    3    0    0 -0.37423391086E+02 -0.61616191646E+00 -0.10828548216E+02  0.38963409916E+02  0.00000000000E+00 0. -1.
        -13    1    4    4    0    0  0.11262946631E+02 -0.65342659755E+02 -0.17878286404E+03  0.19068253623E+03  0.00000000000E+00 0. -1.
         13    1    4    4    0    0 -0.45906942524E+02  0.41805404466E+01 -0.11649245443E+03  0.12528134829E+03  0.00000000000E+00 0.  1.
          1    1    1    2  501    0  0.48966059098E+02  0.11040984351E+03  0.49405085284E+02  0.13049471614E+03  0.00000000000E+00 0. -1.
<scales pt_clust_5="13000.00000" pt_clust_6="13000.00000" pt_clust_7="13000.00000" pt_clust_8="13000.00000" pt_clust_9="75.44986"></scales>
<clustering>
<clus scale="   77.347">  5  6 -1 -1</clus>
<clus scale="   87.776">  7  8 -1 -1</clus>
<clus scale="   92.806">  1  5  2 -1</clus>
<clus scale="   75.450">  2  9  1 -1</clus>
<clus scale="   75.450">  2  5  1 -1</clus>
</clustering>
</event>
<event>
 9    2  0.6175212E-005  0.1225398E+03  0.7546771E-02  0.1242905E+00
          2   -1    0    0  502    0 -0.00000000000E+00  0.00000000000E+00  0.10190079771E+04  0.10190079771E+04  0.00000000000E+00 0. -1.
         21   -1    0    0  501  502  0.00000000000E+00 -0.00000000000E+00 -0.18577146107E+02  0.18577146107E+02  0.00000000000E+00 0.  1.
         24    2    1    2    0    0  0.46348613500E+02  0.75634817260E+02  0.58488367859E+03  0.59661980750E+03  0.77443254538E+02 0.  0.
         23    2    1    2    0    0 -0.26514189645E+02 -0.69304617719E+02  0.39382640139E+03  0.41087766341E+03  0.90637120286E+02 0.  0.
        -11    1    3    3    0    0  0.48504408627E+02  0.11202944943E+02  0.18536883226E+03  0.19193693653E+03  0.00000000000E+00 0.  1.
         12    1    3    3    0    0 -0.21557951272E+01  0.64431872317E+02  0.39951484633E+03  0.40468287097E+03  0.00000000000E+00 0. -1.
        -11    1    4    4    0    0 -0.49603893362E+02 -0.48046907374E+02  0.35130298102E+03  0.35802630632E+03  0.00000000000E+00 0. -1.
         11    1    4    4    0    0  0.23089703717E+02 -0.21257710345E+02  0.42523420367E+02  0.52851357093E+02  0.00000000000E+00 0.  1.
          1    1    1    2  501    0 -0.19834423855E+02 -0.63301995412E+01  0.21720751044E+02  0.30087652315E+02  0.00000000000E+00 0. -1.
<scales pt_clust_5="13000.00000" pt_clust_6="13000.00000" pt_clust_7="13000.00000" pt_clust_8="13000.00000" pt_clust_9="20.82008"></scales>
<clustering>
<clus scale="   20.820">  2  9  1 -1</clus>
<clus scale="   77.443">  5  6 -1 -1</clus>
<clus scale="   90.637">  7  8 -1 -1</clus>
<clus scale="  113.130">  1  5  2 -1</clus>
<clus scale="   20.820">  2  5  1 -1</clus>
</clustering>
</event>
<event>
 9    2  0.6175212E-005  0.1639978E+03  0.7546771E-02  0.1209590E+00
         21   -1    0    0  501  502  0.00000000000E+00  0.00000000000E+00  0.11672981103E+03  0.11672981103E+03  0.00000000000E+00 0. -1.
          2   -1    0    0  502    0 -0.00000000000E+00 -0.00000000000E+00 -0.73329386811E+03  0.73329386811E+03  0.00000000000E+00 0. -1.
         23    2    1    2    0    0  0.39934278848E+01 -0.50354439523E+01 -0.62971702877E+02  0.11340625424E+03  0.94096971127E+02 0.  0.
         24    2    1    2    0    0 -0.14533522840E+03  0.13237956906E+02 -0.57001093712E+03  0.59408898685E+03  0.82046838686E+02 0.  0.
        -11    1    4    4    0    0 -0.82085584625E+02  0.37708858046E+02 -0.41778773842E+03  0.42744192068E+03  0.00000000000E+00 0.  1.
         12    1    4    4    0    0 -0.63249643774E+02 -0.24470901139E+02 -0.15222319870E+03  0.16664706617E+03  0.00000000000E+00 0. -1.
        -11    1    3    3    0    0 -0.19722477913E+02  0.57489738293E+01  0.18638510722E+02  0.27738437538E+02  0.00000000000E+00 0. -1.
         11    1    3    3    0    0  0.23715905798E+02 -0.10784417782E+02 -0.81610213598E+02  0.85667816701E+02  0.00000000000E+00 0.  1.
          1    1    1    2  501    0  0.14134180051E+03 -0.82025129541E+01  0.16418582919E+02  0.14252843806E+03  0.00000000000E+00 0. -1.
<scales pt_clust_5="13000.00000" pt_clust_6="13000.00000" pt_clust_7="13000.00000" pt_clust_8="13000.00000" pt_clust_9="141.99857"></scales>
<clustering>
<clus scale="   82.047">  5  6 -1 -1</clus>
<clus scale="   94.097">  7  8 -1 -1</clus>
<clus scale="   94.316">  2  7  1 -1</clus>
<clus scale="  141.999">  1  9  2 -1</clus>
<clus scale="  141.999">  1  5  2 -1</clus>
</clustering>
</event>
<event>
 9    2  0.6175212E-005  0.9227936E+02  0.7546771E-02  0.1305673E+00
         21   -1    0    0  501  502  0.00000000000E+00  0.00000000000E+00  0.36603902423E+03  0.36603902423E+03  0.00000000000E+00 0. -1.
         -1   -1    0    0    0  501 -0.00000000000E+00 -0.00000000000E+00 -0.80821226255E+02  0.80821226255E+02  0.00000000000E+00 0.  1.
         24    2    1    2    0    0 -0.68214516364E+00 -0.62707057496E+01 -0.46326855781E+02  0.91658097275E+02  0.78836807121E+02 0.  0.
         23    2    1    2    0    0  0.85320355909E+01  0.27998012290E+02  0.20481641564E+03  0.22638545024E+03  0.91890824563E+02 0.  0.
        -13    1    3    3    0    0 -0.29781458461E+02  0.63929595133E+01 -0.51175406703E+02  0.59554407483E+02  0.00000000000E+00 0.  1.
         14    1    3    3    0    0  0.29099313297E+02 -0.12663665263E+02  0.48485509223E+01  0.32103689793E+02  0.00000000000E+00 0. -1.
        -13    1    4    4    0    0 -0.36456772908E+02  0.12462131653E+02  0.14451950315E+03  0.14956700107E+03  0.00000000000E+00 0.  1.
         13    1    4    4    0    0  0.44988808499E+02  0.15535880637E+02  0.60296912488E+02  0.76818449170E+02  0.00000000000E+00 0. -1.
         -2    1    1    2    0  502 -0.78498904273E+01 -0.21727306540E+02  0.12672823812E+03  0.12881670298E+03  0.00000000000E+00 0.  1.
<scales pt_clust_5="13000.00000" pt_clust_6="13000.00000" pt_clust_7="13000.00000" pt_clust_8="13000.00000" pt_clust_9="23.10188"></scales>
<clustering>
<clus scale="   23.102">  1  9  2 -1</clus>
<clus scale="   78.837">  5  6 -1 -1</clus>
<clus scale="   79.289">  2  5  1 -1</clus>
<clus scale="   91.891">  7  8 -1 -1</clus>
<clus scale="   23.102">  1  5  2 -1</clus>
</clustering>
</event>
<event>
 9    2  0.6175212E-005  0.1362289E+03  0.7546771E-02  0.1243415E+00
         21   -1    0    0  501  502  0.00000000000E+00  0.00000000000E+00  0.74718331513E+02  0.74718331513E+02  0.00000000000E+00 0.  1.
          2   -1    0    0  502    0 -0.00000000000E+00 -0.00000000000E+00 -0.68484089787E+03  0.68484089787E+03  0.00000000000E+00 0. -1.
         24    2    1    2    0    0 -0.11833294018E+02  0.59093054839E+01 -0.16163687479E+03  0.18101899232E+03  0.80414237246E+02 0.  0.
         23    2    1    2    0    0  0.82134193151E+02  0.59784148845E+02 -0.18773259179E+02  0.13818740022E+03  0.91777732497E+02 0.  0.
        -11    1    3    3    0    0 -0.43907506941E+02 -0.10667819257E+02 -0.96177972162E+02  0.10626322912E+03  0.00000000000E+00 0.  1.
         12    1    3    3    0    0  0.32074212923E+02  0.16577124741E+02 -0.65458902625E+02  0.74755763204E+02  0.00000000000E+00 0. -1.
        -13    1    4    4    0    0  0.20772176459E+02 -0.53807031704E+01 -0.40719936427E+02  0.46027692796E+02  0.00000000000E+00 0. -1.
         13    1    4    4    0    0  0.61362016692E+02  0.65164852015E+02  0.21946677249E+02  0.92159707426E+02  0.00000000000E+00 0.  1.
          1    1    1    2  501    0 -0.70300899133E+02 -0.65693454328E+02 -0.42971243239E+03  0.44035283683E+03  0.00000000000E+00 0. -1.
<scales pt_clust_5="13000.00000" pt_clust_6="13000.00000" pt_clust_7="13000.00000" pt_clust_8="13000.00000" pt_clust_9="100.67360"></scales>
<clustering>
<clus scale="   80.414">  5  6 -1 -1</clus>
<clus scale="   81.495">  2  5  1 -1</clus>
<clus scale="   91.778">  7  8 -1 -1</clus>
<clus scale="  100.674">  1  9  2 -1</clus>
<clus scale="  100.674">  1  5  2 -1</clus>
</clustering>
</event>
<event>
 9    2  0.6175212E-005  0.9817438E+02  0.7546771E-02  0.1290639E+00
         21   -1    0    0  501  502  0.00000000000E+00  0.00000000000E+00  0.33187960502E+02  0.33187960502E+02  0.00000000000E+00 0. -1.
          2   -1    0    0  502    0 -0.00000000000E+00 -0.00000000000E+00 -0.56387959747E+03  0.56387959747E+03  0.00000000000E+00 0. -1.
         24    2    1    2    0    0  0.42829291023E+02  0.14956145872E+02 -0.20945147338E+03  0.22863142522E+03  0.79651581457E+02 0.  0.
         23    2    1    2    0    0 -0.17957455192E+02  0.49787947257E+02 -0.14961118842E+03  0.18332289463E+03  0.91773994704E+02 0.  0.
        -13    1    3    3    0    0  0.16225708236E+02 -0.13281483289E+02 -0.64237357234E+01  0.21930248215E+02  0.00000000000E+00 0.  1.
         14    1    3    3    0    0  0.26603582787E+02  0.28237629162E+02 -0.20302773765E+03  0.20670117700E+03  0.00000000000E+00 0. -1.
        -11    1    4    4    0    0 -0.33001710925E+02  0.28513098762E+02 -0.14859544734E+02  0.46075110360E+02  0.00000000000E+00 0. -1.
         11    1    4    4    0    0  0.15044255733E+02  0.21274848495E+02 -0.13475164369E+03  0.13724778427E+03  0.00000000000E+00 0.  1.
          1    1    1    2  501    0 -0.24871835831E+02 -0.64744093129E+02 -0.17162897516E+03  0.18511323812E+03  0.00000000000E+00 0. -1.
<scales pt_clust_5="13000.00000" pt_clust_6="13000.00000" pt_clust_7="13000.00000" pt_clust_8="13000.00000" pt_clust_9="69.35712"></scales>
<clustering>
<clus scale="   69.357">  1  9  2 -1</clus>
<clus scale="   79.652">  5  6 -1 -1</clus>
<clus scale="   86.949">  2  5  1 -1</clus>
<clus scale="   91.774">  7  8 -1 -1</clus>
<clus scale="   69.357">  1  5  2 -1</clus>
</clustering>
</event>
<event>
 9    2  0.6175212E-005  0.1225205E+03  0.7546771E-02  0.1241352E+00
         -1   -1    0    0    0  501 -0.00000000000E+00  0.00000000000E+00  0.68155025746E+03  0.68155025746E+03  0.00000000000E+00 0.  1.
         21   -1    0    0  501  502  0.00000000000E+00 -0.00000000000E+00 -0.47878018072E+02  0.47878018072E+02  0.00000000000E+00 0.  1.
         23    2    1    2    0    0  0.79263268662E+02 -0.36165716561E+02  0.45309429516E+03  0.46981228312E+03  0.88535395470E+02 0.  0.
         24    2    1    2    0    0 -0.40875524944E+02  0.82844134872E+02  0.95800150099E+02  0.15550178598E+03  0.80431197068E+02 0.  0.
        -13    1    4    4    0    0 -0.48526369215E+02  0.71917650727E+02  0.35493581866E+02  0.93737673051E+02  0.00000000000E+00 0.  1.
         14    1    4    4    0    0  0.76508442709E+01  0.10926484145E+02  0.60306568233E+02  0.61764112929E+02  0.00000000000E+00 0. -1.
        -13    1    3    3    0    0  0.61031877881E+02  0.20388357666E+02  0.21561285622E+03  0.22500995314E+03  0.00000000000E+00 0.  1.
         13    1    3    3    0    0  0.18231390781E+02 -0.56554074227E+02  0.23748143894E+03  0.24480232997E+03  0.00000000000E+00 0. -1.
         -2    1    1    2    0  502 -0.38387743718E+02 -0.46678418311E+02  0.84777794135E+02  0.10411420644E+03  0.00000000000E+00 0.  1.
<scales pt_clust_5="13000.00000" pt_clust_6="13000.00000" pt_clust_7="13000.00000" pt_clust_8="13000.00000" pt_clust_9="60.43586"></scales>
<clustering>
<clus scale="   60.436">  2  9  1 -1</clus>
<clus scale="   80.431">  5  6 -1 -1</clus>
<clus scale="   88.535">  7  8 -1 -1</clus>
<clus scale="  116.799">  2  5  1 -1</clus>
<clus scale="   60.436">  2  5  1 -1</clus>
</clustering>
</event>
<event>
 9    2  0.6175212E-005  0.1029428E+03  0.7546771E-02  0.1279342E+00
          2   -1    0    0  502    0 -0.00000000000E+00  0.00000000000E+00  0.14432920792E+04  0.14432920792E+04  0.00000000000E+00 0. -1.
         21   -1    0    0  501  502  0.00000000000E+00 -0.00000000000E+00 -0.21935857218E+02  0.21935857218E+02  0.00000000000E+00 0. -1.
         24    2    1    2    0    0  0.53449757543E+02 -0.15411753155E+02  0.93219839970E+03  0.93701951607E+03  0.76924107911E+02 0.  0.
         23    2    1    2    0    0 -0.82261829328E+01  0.80684425307E+02  0.29535306323E+03  0.31876635661E+03  0.88322769299E+02 0.  0.
        -11    1    3    3    0    0  0.48476217746E+01 -0.20794711877E+02  0.64460403665E+02  0.67904809252E+02  0.00000000000E+00 0.  1.
         12    1    3    3    0    0  0.48602135769E+02  0.53829587221E+01  0.86773799604E+03  0.86911470682E+03  0.00000000000E+00 0. -1.
        -13    1    4    4    0    0  0.15727456663E+02  0.91926066675E+02  0.23723544975E+03  0.25490863705E+03  0.00000000000E+00 0. -1.
         13    1    4    4    0    0 -0.23953639596E+02 -0.11241641368E+02  0.58117613480E+02  0.63857719558E+02  0.00000000000E+00 0.  1.
          1    1    1    2  501    0 -0.45223574610E+02 -0.65272672152E+02  0.19380475908E+03  0.20944206376E+03  0.00000000000E+00 0. -1.
<scales pt_clust_5="13000.00000" pt_clust_6="13000.00000" pt_clust_7="13000.00000" pt_clust_8="13000.00000" pt_clust_9="79.40840"></scales>
<clustering>
<clus scale="   76.924">  5  6 -1 -1</clus>
<clus scale="   79.408">  2  9  1 -1</clus>
<clus scale="   88.323">  7  8 -1 -1</clus>
<clus scale="   93.347">  1  5  2 -1</clus>
<clus scale="   79.408">  2  5  1 -1</clus>
</clustering>
</event>
<event>
 9    2  0.6175212E-005  0.9291458E+02  0.7546771E-02  0.1301661E+00
         21   -1    0    0  501  502  0.00000000000E+00  0.00000000000E+00  0.64368617448E+02  0.64368617448E+02  0.00000000000E+00 0.  1.
         -1   -1    0    0    0  501 -0.00000000000E+00 -0.00000000000E+00 -0.22864060027E+03  0.22864060027E+03  0.00000000000E+00 0.  1.
         23    2    1    2    0    0 -0.12643476958E+02 -0.31905350221E+02 -0.98329382472E+02  0.13772316219E+03  0.90117662333E+02 0.  0.
         24    2    1    2    0    0  0.25716770587E+02 -0.76835392402E+01 -0.74287688575E+02  0.11276745168E+03  0.80482597007E+02 0.  0.
        -11    1    4    4    0    0  0.40567307228E+02  0.12053646529E+02 -0.94194686026E+01  0.43355774692E+02  0.00000000000E+00 0.  1.
         12    1    4    4    0    0 -0.14850536641E+02 -0.19737185769E+02 -0.64868219972E+02  0.69411676993E+02  0.00000000000E+00 0. -1.
        -13    1    3    3    0    0  0.22731551005E+02 -0.14268236518E+02 -0.94236577680E+02  0.97983868863E+02  0.00000000000E+00 0.  1.
         13    1    3    3    0    0 -0.35375027963E+02 -0.17637113704E+02 -0.40928047921E+01  0.39739293329E+02  0.00000000000E+00 0. -1.
         -2    1    1    2    0  502 -0.13073293629E+02  0.39588889462E+02  0.83450882250E+01  0.42518603841E+02  0.00000000000E+00 0.  1.
<scales pt_clust_5="13000.00000" pt_clust_6="13000.00000" pt_clust_7="13000.00000" pt_clust_8="13000.00000" pt_clust_9="41.69162"></scales>
<clustering>
<clus scale="   41.692">  1  9  2 -1</clus>
<clus scale="   80.483">  5  6 -1 -1</clus>
<clus scale="   83.602">  1  5  2 -1</clus>
<clus scale="   90.118">  7  8 -1 -1</clus>
<clus scale="   41.692">  1  5  2 -1</clus>
</clustering>
</event>
<event>
 9    2  0.6175212E-005  0.1344560E+03  0.7546771E-02  0.1232101E+00
          2   -1    0    0  502    0 -0.00000000000E+00  0.00000000000E+00  0.70477720305E+03  0.70477720305E+03  0.00000000000E+00 0. -1.
         21   -1    0    0  501  502  0.00000000000E+00 -0.00000000000E+00 -0.46136056139E+02  0.46136056139E+02  0.00000000000E+00 0. -1.
         24    2    1    2    0    0 -0.67372326276E+02 -0.41627372469E+02  0.37416058579E+03  0.39056146469E+03  0.79184880190E+02 0.  0.
         23    2    1    2    0    0  0.36734234991E+02  0.13125532698E+02  0.64666180214E+02  0.13658984608E+03  0.11381294988E+03 0.  0.
        -11    1    3    3    0    0 -0.10952589846E+02  0.22631920862E+02  0.11276522430E+03  0.11553423249E+03  0.00000000000E+00 0.  1.
         12    1    3    3    0    0 -0.56419736430E+02 -0.64259293331E+02  0.26139536150E+03  0.27502723220E+03  0.00000000000E+00 0. -1.
        -11    1    4    4    0    0  0.55544599821E+02 -0.22526203024E+02  0.73984240543E+02  0.95217121574E+02  0.00000000000E+00 0.  1.
         11    1    4    4    0    0 -0.18810364830E+02  0.35651735722E+02 -0.93180603295E+01  0.41372724509E+02  0.00000000000E+00 0. -1.
          1    1    1    2  501    0  0.30638091285E+02  0.28501839771E+02  0.21981438090E+03  0.22376194841E+03  0.00000000000E+00 0. -1.
<scales pt_clust_5="13000.00000" pt_clust_6="13000.00000" pt_clust_7="13000.00000" pt_clust_8="13000.00000" pt_clust_9="41.84554"></scales>
<clustering>
<clus scale="   41.846">  2  9  1 -1</clus>
<clus scale="   79.185">  5  6 -1 -1</clus>
<clus scale="  106.749">  1  5  2 -1</clus>
<clus scale="  113.813">  7  8 -1 -1</clus>
<clus scale="   41.846">  2  5  1 -1</clus>
</clustering>
</event>
<event>
 9    2  0.6175212E-005  0.1042044E+03  0.7546771E-02  0.1273931E+00
         21   -1    0    0  501  502  0.00000000000E+00  0.00000000000E+00  0.62458127272E+02  0.62458127272E+02  0.00000000000E+00 0. -1.
          2   -1    0    0  502    0 -0.00000000000E+00 -0.00000000000E+00 -0.47293010275E+03  0.47293010275E+03  0.00000000000E+00 0. -1.
         23    2    1    2    0    0  0.47385182518E+01 -0.63334554714E+02 -0.10334126327E+03  0.15174013588E+03  0.91169801830E+02 0.  0.
         24    2    1    2    0    0  0.64578664136E+02 -0.84170729923E+01 -0.97581906774E+02  0.15156218395E+03  0.95956323887E+02 0.  0.
        -11    1    4    4    0    0  0.27965929775E+02  0.20629228367E+02 -0.98880015135E+02  0.10480894849E+03  0.00000000000E+00 0.  1.
         12    1    4    4    0    0  0.36612734362E+02 -0.29046301359E+02  0.12981083614E+01  0.46753235454E+02  0.00000000000E+00 0. -1.
        -13    1    3    3    0    0 -0.22252914501E+02 -0.25223870545E+02  0.47700324612E+01  0.33973358073E+02  0.00000000000E+00 0.  1.
         13    1    3    3    0    0  0.26991432753E+02 -0.38110684168E+02 -0.10811129573E+03  0.11776677780E+03  0.00000000000E+00 0. -1.
          1    1    1    2  501    0 -0.69317182388E+02  0.71751627706E+02 -0.20954880544E+03  0.23208591020E+03  0.00000000000E+00 0. -1.
<scales pt_clust_5="13000.00000" pt_clust_6="13000.00000" pt_clust_7="13000.00000" pt_clust_8="13000.00000" pt_clust_9="99.76561"></scales>
<clustering>
<clus scale="   91.170">  7  8 -1 -1</clus>
<clus scale="   95.956">  5  6 -1 -1</clus>
<clus scale="   99.766">  1  9  2 -1</clus>
<clus scale="   99.814">  2  7  1 -1</clus>
<clus scale="   99.766">  1  5  2 -1</clus>
</clustering>
</event>
<event>
 9    2  0.6175212E-005  0.9314915E+02  0.7546771E-02  0.1302600E+00
         21   -1    0    0  501  502  0.00000000000E+00  0.00000000000E+00  0.22590180548E+03  0.22590180548E+03  0.00000000000E+00 0.  1.
          4   -1    0    0  502    0 -0.00000000000E+00 -0.00000000000E+00 -0.78439695482E+02  0.78439695482E+02  0.00000000000E+00 0. -1.
         24    2    1    2    0    0 -0.17954804322E+02  0.16379144043E+02 -0.31948994398E+02  0.88706923028E+02  0.79104542171E+02 0.  0.
         23    2    1    2    0    0  0.22168386665E+01  0.60865750870E+01  0.12570623611E+03  0.15533030796E+03  0.91013658344E+02 0.  0.
        -13    1    3    3    0    0  0.21278489749E+02 -0.11483727404E+00  0.14468385894E+02  0.25731721745E+02  0.00000000000E+00 0.  1.
         14    1    3    3    0    0 -0.39233294071E+02  0.16493981317E+02 -0.46417380292E+02  0.62975201282E+02  0.00000000000E+00 0. -1.
        -11    1    4    4    0    0  0.23568896260E+02 -0.18127648030E+02  0.11860433135E+03  0.12227465767E+03  0.00000000000E+00 0.  1.
         11    1    4    4    0    0 -0.21352057594E+02  0.24214223117E+02  0.71019047540E+01  0.33055650285E+02  0.00000000000E+00 0. -1.
          3    1    1    2  501    0  0.15737965656E+02 -0.22465719130E+02  0.53704868292E+02  0.60304269975E+02  0.00000000000E+00 0. -1.
<scales pt_clust_5="13000.00000" pt_clust_6="13000.00000" pt_clust_7="13000.00000" pt_clust_8="13000.00000" pt_clust_9="27.42977"></scales>
<clustering>
<clus scale="   27.430">  1  9  2 -1</clus>
<clus scale="   79.105">  5  6 -1 -1</clus>
<clus scale="   81.552">  2  5  1 -1</clus>
<clus scale="   91.014">  7  8 -1 -1</clus>
<clus scale="   27.430">  1  5  2 -1</clus>
</clustering>
</event>
<event>
 9    2  0.6175212E-005  0.1568383E+03  0.7546771E-02  0.1203224E+00
          2   -1    0    0  502    0 -0.00000000000E+00  0.00000000000E+00  0.46063820112E+03  0.46063820112E+03  0.00000000000E+00 0. -1.
         21   -1    0    0  501  502  0.00000000000E+00 -0.00000000000E+00 -0.49659839491E+02  0.49659839491E+02  0.00000000000E+00 0.  1.
         23    2    1    2    0    0 -0.46947666940E+02  0.80994117992E+02  0.22732195719E+03  0.27565463624E+03  0.12468390304E+03 0.  0.
         24    2    1    2    0    0  0.30186733291E+02 -0.92705763440E+02  0.16134009032E+03  0.20437610499E+03  0.78951694766E+02 0.  0.
        -11    1    4    4    0    0 -0.16989858477E+02 -0.54828235089E+02  0.43883184244E+02  0.72253197254E+02  0.00000000000E+00 0.  1.
         12    1    4    4    0    0  0.47176591768E+02 -0.37877528351E+02  0.11745690607E+03  0.13212290774E+03  0.00000000000E+00 0. -1.
        -11    1    3    3    0    0  0.14744431546E+02  0.53392759044E+02  0.22181060159E+02  0.59667280897E+02  0.00000000000E+00 0.  1.
         11    1    3    3    0    0 -0.61692098487E+02  0.27601358948E+02  0.20514089703E+03  0.21598735534E+03  0.00000000000E+00 0. -1.
          1    1    1    2  501    0  0.16760933649E+02  0.11711645448E+02  0.22316314119E+02  0.30267299380E+02  0.00000000000E+00 0. -1.
<scales pt_clust_5="13000.00000" pt_clust_6="13000.00000" pt_clust_7="13000.00000" pt_clust_8="13000.00000" pt_clust_9="20.44729"></scales>
<clustering>
<clus scale="   20.447">  2  9  1 -1</clus>
<clus scale="   78.952">  5  6 -1 -1</clus>
<clus scale="  123.635">  2  5  1 -1</clus>
<clus scale="  124.684">  7  8 -1 -1</clus>
<clus scale="   20.447">  2  5  1 -1</clus>
</clustering>
</event>
<event>
 9    2  0.6175212E-005  0.9767094E+02  0.7546771E-02  0.1290692E+00
         21   -1    0    0  501  502  0.00000000000E+00  0.00000000000E+00  0.21392229922E+03  0.21392229922E+03  0.00000000000E+00 0.  1.
         -3   -1    0    0    0  501 -0.00000000000E+00 -0.00000000000E+00 -0.81182961452E+02  0.81182961452E+02  0.00000000000E+00 0.  1.
         24    2    1    2    0    0  0.46725775205E+02 -0.20430008437E+02  0.47862687845E+02  0.10776347455E+03  0.81984426855E+02 0.  0.
         23    2    1    2    0    0  0.13853171033E+02  0.31772371189E+02  0.77542951683E+02  0.12527536162E+03  0.92084813918E+02 0.  0.
        -13    1    3    3    0    0  0.57608122300E+02  0.14817059742E+02  0.26330223795E+02  0.65050147574E+02  0.00000000000E+00 0.  1.
         14    1    3    3    0    0 -0.10882347095E+02 -0.35247068180E+02  0.21532464050E+02  0.42713326979E+02  0.00000000000E+00 0. -1.
        -13    1    4    4    0    0 -0.26080826234E+02 -0.15826406237E+01  0.67368914316E+02  0.72258458775E+02  0.00000000000E+00 0.  1.
         13    1    4    4    0    0  0.39933997268E+02  0.33355011813E+02  0.10174037367E+02  0.53016902844E+02  0.00000000000E+00 0. -1.
         -4    1    1    2    0  502 -0.60578946239E+02 -0.11342362752E+02  0.73336982391E+01  0.62066424499E+02  0.00000000000E+00 0.  1.
<scales pt_clust_5="13000.00000" pt_clust_6="13000.00000" pt_clust_7="13000.00000" pt_clust_8="13000.00000" pt_clust_9="61.63166"></scales>
<clustering>
<clus scale="   61.632">  1  9  2 -1</clus>
<clus scale="   81.984">  5  6 -1 -1</clus>
<clus scale="   88.212">  2  5  1 -1</clus>
<clus scale="   92.085">  7  8 -1 -1</clus>
<clus scale="   61.632">  1  5  2 -1</clus>
</clustering>
</event>
<event>
 9    2  0.6175212E-005  0.1136903E+03  0.7546771E-02  0.1260090E+00
          2   -1    0    0  502    0 -0.00000000000E+00  0.00000000000E+00  0.11883700956E+03  0.11883700956E+03  0.00000000000E+00 0. -1.
         21   -1    0    0  501  502  0.00000000000E+00 -0.00000000000E+00 -0.63144908125E+03  0.63144908125E+03  0.00000000000E+00 0.  1.
         24    2    1    2    0    0 -0.62111364580E+02  0.86251020803E+01  0.82740815082E+02  0.13013953722E+03  0.78473197146E+02 0.  0.
         23    2    1    2    0    0  0.71144190143E+02  0.22379270631E+02 -0.55753398587E+03  0.57041595606E+03  0.94698943937E+02 0.  0.
        -11    1    3    3    0    0  0.14035594695E+02  0.18483163705E+02  0.24665877344E+02  0.33867842626E+02  0.00000000000E+00 0.  1.
         12    1    3    3    0    0 -0.76146959275E+02 -0.98580616250E+01  0.58074937739E+02  0.96271694590E+02  0.00000000000E+00 0. -1.
        -11    1    4    4    0    0 -0.88753295473E+01 -0.23515520435E+02 -0.73739461237E+02  0.77905451154E+02  0.00000000000E+00 0. -1.
         11    1    4    4    0    0  0.80019519691E+02  0.45894791066E+02 -0.48379452463E+03  0.49251050490E+03  0.00000000000E+00 0.  1.
          1    1    1    2  501    0 -0.90328255631E+01 -0.31004372711E+02 -0.37818900906E+02  0.49730597530E+02  0.00000000000E+00 0. -1.
<scales pt_clust_5="13000.00000" pt_clust_6="13000.00000" pt_clust_7="13000.00000" pt_clust_8="13000.00000" pt_clust_9="32.29339"></scales>
<clustering>
<clus scale="   32.293">  2  9  1 -1</clus>
<clus scale="   78.473">  5  6 -1 -1</clus>
<clus scale="   94.699">  7  8 -1 -1</clus>
<clus scale="  100.577">  1  5  2 -1</clus>
<clus scale="   32.293">  2  5  1 -1</clus>
</clustering>
</event>
<event>
 9    2  0.6175212E-005  0.2271879E+03  0.7546771E-02  0.1131551E+00
          2   -1    0    0  502    0 -0.00000000000E+00  0.00000000000E+00  0.10125778903E+04  0.10125778903E+04  0.00000000000E+00 0. -1.
         21   -1    0    0  501  502  0.00000000000E+00 -0.00000000000E+00 -0.65415032801E+02  0.65415032801E+02  0.00000000000E+00 0. -1.
         23    2    1    2    0    0 -0.10220938298E+03  0.15034958420E+03  0.42617124834E+03  0.47773840768E+03  0.11644869177E+03 0.  0.
         24    2    1    2    0    0  0.12598449010E+03 -0.17404423538E+03  0.30631992331E+03  0.38297445440E+03  0.81694857197E+02 0.  0.
        -11    1    4    4    0    0  0.69643635358E+02 -0.31707714394E+02  0.11080036081E+03  0.13465635913E+03  0.00000000000E+00 0.  1.
         12    1    4    4    0    0  0.56340854741E+02 -0.14233652099E+03  0.19551956249E+03  0.24831809527E+03  0.00000000000E+00 0. -1.
        -13    1    3    3    0    0 -0.72203996759E+02  0.52941473779E+02  0.92026875524E+02  0.12839455834E+03  0.00000000000E+00 0. -1.
         13    1    3    3    0    0 -0.30005386219E+02  0.97408110423E+02  0.33414437282E+03  0.34934384933E+03  0.00000000000E+00 0.  1.
          1    1    1    2  501    0 -0.23775107122E+02  0.23694651182E+02  0.21467168581E+03  0.21728006099E+03  0.00000000000E+00 0. -1.
<scales pt_clust_5="13000.00000" pt_clust_6="13000.00000" pt_clust_7="13000.00000" pt_clust_8="13000.00000" pt_clust_9="33.56625"></scales>
<clustering>
<clus scale="   33.566">  2  9  1 -1</clus>
<clus scale="   81.695">  5  6 -1 -1</clus>
<clus scale="  116.449">  7  8 -1 -1</clus>
<clus scale="  211.490">  2  5  1 -1</clus>
<clus scale="   33.566">  2  5  1 -1</clus>
</clustering>
</event>
<event>
 9    2  0.6175212E-005  0.9556490E+02  0.7546771E-02  0.1296593E+00
         -3   -1    0    0    0  501 -0.00000000000E+00  0.00000000000E+00  0.50833824712E+03  0.50833824712E+03  0.00000000000E+00 0.  1.
         21   -1    0    0  501  502  0.00000000000E+00 -0.00000000000E+00 -0.53136563793E+02  0.53136563793E+02  0.00000000000E+00 0.  1.
         23    2    1    2    0    0  0.27518364150E+02 -0.16485385260E+02  0.37313416053E+03  0.38560407842E+03  0.91827965469E+02 0.  0.
         24    2    1    2    0    0  0.50178196407E+01  0.26597781287E+02  0.10498566826E+03  0.13480852116E+03  0.80116954218E+02 0.  0.
        -11    1    4    4    0    0 -0.22956473059E+02 -0.25460280232E+01  0.88008760081E+02  0.90989140918E+02  0.00000000000E+00 0.  1.
         12    1    4    4    0    0  0.27974292700E+02  0.29143809310E+02  0.16976908178E+02  0.43819380238E+02  0.00000000000E+00 0. -1.
        -11    1    3    3    0    0  0.30806461879E+02 -0.46768951235E+02  0.31533207419E+03  0.32026659193E+03  0.00000000000E+00 0.  1.
         11    1    3    3    0    0 -0.32880977286E+01  0.30283565975E+02  0.57802086343E+02  0.65337486487E+02  0.00000000000E+00 0. -1.
         -4    1    1    2    0  502 -0.32536183791E+02 -0.10112396027E+02 -0.22918145462E+02  0.41062211344E+02  0.00000000000E+00 0.  1.
<scales pt_clust_5="13000.00000" pt_clust_6="13000.00000" pt_clust_7="13000.00000" pt_clust_8="13000.00000" pt_clust_9="34.07145"></scales>
<clustering>
<clus scale="   34.071">  2  9  1 -1</clus>
<clus scale="   80.117">  5  6 -1 -1</clus>
<clus scale="   84.374">  2  5  1 -1</clus>
<clus scale="   91.828">  7  8 -1 -1</clus>
<clus scale="   34.071">  2  5  1 -1</clus>
</clustering>
</event>
<event>
 9    2  0.6175212E-005  0.1638058E+03  0.7546771E-02  0.1185995E+00
         21   -1    0    0  501  502  0.00000000000E+00  0.00000000000E+00  0.21099331461E+03  0.21099331461E+03  0.00000000000E+00 0. -1.
          2   -1    0    0  502    0 -0.00000000000E+00 -0.00000000000E+00 -0.31821022989E+03  0.31821022989E+03  0.00000000000E+00 0. -1.
         24    2    1    2    0    0 -0.74245574313E+02  0.73544259082E+02 -0.53586954460E+02  0.14226440496E+03  0.80289699721E+02 0.  0.
         23    2    1    2    0    0  0.19640214638E+03 -0.38006883717E+02 -0.11250146776E+03  0.24675715968E+03  0.90632164782E+02 0.  0.
        -11    1    3    3    0    0 -0.17272029887E+02  0.33411220025E+02 -0.61538858248E+02  0.72122560371E+02  0.00000000000E+00 0.  1.
         12    1    3    3    0    0 -0.56973544427E+02  0.40133039057E+02  0.79519037885E+01  0.70141844589E+02  0.00000000000E+00 0. -1.
        -13    1    4    4    0    0  0.37798756612E+02 -0.13259720386E+02  0.13943879788E+02  0.42414596187E+02  0.00000000000E+00 0.  1.
         13    1    4    4    0    0  0.15860338977E+03 -0.24747163331E+02 -0.12644534755E+03  0.20434256350E+03  0.00000000000E+00 0. -1.
          1    1    1    2  501    0 -0.12215657207E+03 -0.35537375365E+02  0.58871506936E+02  0.14018197986E+03  0.00000000000E+00 0. -1.
<scales pt_clust_5="13000.00000" pt_clust_6="13000.00000" pt_clust_7="13000.00000" pt_clust_8="13000.00000" pt_clust_9="127.22080"></scales>
<clustering>
<clus scale="   80.290">  5  6 -1 -1</clus>
<clus scale="   90.632">  7  8 -1 -1</clus>
<clus scale="  127.221">  1  9  2 -1</clus>
<clus scale="  158.318">  2  5  1 -1</clus>
<clus scale="  127.221">  1  5  2 -1</clus>
</clustering>
</event>
<event>
 9    2  0.6175212E-005  0.1872571E+03  0.7546771E-02  0.1162406E+00
         -1   -1    0    0    0  501 -0.00000000000E+00  0.00000000000E+00  0.20248625050E+03  0.20248625050E+03  0.00000000000E+00 0.  1.
         21   -1    0    0  501  502  0.00000000000E+00 -0.00000000000E+00 -0.28199015083E+03  0.28199015083E+03  0.00000000000E+00 0.  1.
         23    2    1    2    0    0 -0.11309253094E+03 -0.13992295557E+03  0.36760853274E+02  0.20539949715E+03  0.92028468663E+02 0.  0.
         24    2    1    2    0    0  0.85071480122E+02  0.93795346582E+02 -0.15312949950E+03  0.21371678569E+03  0.78686066750E+02 0.  0.
        -11    1    4    4    0    0  0.10035970350E+03  0.78048153901E+02 -0.13082910371E+03  0.18242762617E+03  0.00000000000E+00 0.  1.
         12    1    4    4    0    0 -0.15288223375E+02  0.15747192680E+02 -0.22300395784E+02  0.31289159519E+02  0.00000000000E+00 0. -1.
        -13    1    3    3    0    0 -0.20914717192E+02 -0.81180591935E+02 -0.13813726636E+02  0.84961949988E+02  0.00000000000E+00 0. -1.
         13    1    3    3    0    0 -0.92177813744E+02 -0.58742363638E+02  0.50574579910E+02  0.12043754716E+03  0.00000000000E+00 0.  1.
         -2    1    1    2    0  502  0.28021050814E+02  0.46127608991E+02  0.36864745888E+02  0.65360118493E+02  0.00000000000E+00 0.  1.
<scales pt_clust_5="13000.00000" pt_clust_6="13000.00000" pt_clust_7="13000.00000" pt_clust_8="13000.00000" pt_clust_9="53.97165"></scales>
<clustering>
<clus scale="   53.972">  2  9  1 -1</clus>
<clus scale="   78.686">  5  6 -1 -1</clus>
<clus scale="   92.028">  7  8 -1 -1</clus>
<clus scale="  181.073">  2  5  1 -1</clus>
<clus scale="   53.972">  2  5  1 -1</clus>
</clustering>
</event>
<event>
 9    2  0.6175212E-005  0.8844291E+02  0.7546771E-02  0.1311159E+00
         21   -1    0    0  501  502  0.00000000000E+00  0.00000000000E+00  0.56602389784E+02  0.56602389784E+02  0.00000000000E+00 0. -1.
          2   -1    0    0  502    0 -0.00000000000E+00 -0.00000000000E+00 -0.43663834991E+03  0.43663834991E+03  0.00000000000E+00 0. -1.
         23    2    1    2    0    0 -0.14333571074E+02  0.36115847142E+02 -0.23816388013E+03  0.25196916663E+03  0.72502561754E+02 0.  0.
         24    2    1    2    0    0 -0.14065106479E+02 -0.38635159174E+02 -0.17543207581E+03  0.19723630154E+03  0.80219964325E+02 0.  0.
        -13    1    4    4    0    0  0.54030611616E+01 -0.37600370532E+02 -0.17354023545E+03  0.17764907614E+03  0.00000000000E+00 0.  1.
         14    1    4    4    0    0 -0.19468167641E+02 -0.10347886423E+01 -0.18918403628E+01  0.19587225398E+02  0.00000000000E+00 0. -1.
        -13    1    3    3    0    0  0.17792014462E+02  0.44379465976E+02 -0.16168272483E+03  0.16860425940E+03  0.00000000000E+00 0. -1.
         13    1    3    3    0    0 -0.32125585535E+02 -0.82636188342E+01 -0.76481155294E+02  0.83364907229E+02  0.00000000000E+00 0.  1.
          1    1    1    2  501    0  0.28398677553E+02  0.25193120326E+01  0.33559995809E+02  0.44035271528E+02  0.00000000000E+00 0. -1.
<scales pt_clust_5="13000.00000" pt_clust_6="13000.00000" pt_clust_7="13000.00000" pt_clust_8="13000.00000" pt_clust_9="28.51021"></scales>
<clustering>
<clus scale="   28.510">  1  9  2 -1</clus>
<clus scale="   72.503">  7  8 -1 -1</clus>
<clus scale="   80.220">  5  6 -1 -1</clus>
<clus scale="   81.508">  2  7  1 -1</clus>
<clus scale="   28.510">  1  5  2 -1</clus>
</clustering>
</event>
<event>
 9    2  0.6175212E-005  0.1176847E+03  0.7546771E-02  0.1250777E+00
          2   -1    0    0  502    0 -0.00000000000E+00  0.00000000000E+00  0.64079038726E+03  0.64079038726E+03  0.00000000000E+00 0. -1.
         21   -1    0    0  501  502  0.00000000000E+00 -0.00000000000E+00 -0.66756455003E+02  0.66756455003E+02  0.00000000000E+00 0.  1.
         24    2    1    2    0    0 -0.22622044025E+01  0.51683276470E+02  0.82701528505E+02  0.12647619796E+03  0.80500976381E+02 0.  0.
         23    2    1    2    0    0 -0.46716353272E+02 -0.11041032352E+03  0.97255473419E+02  0.17964270284E+03  0.91869561713E+02 0.  0.
        -11    1    3    3    0    0 -0.14881912059E+02  0.69713671165E+02  0.74171015986E+02  0.10287277029E+03  0.00000000000E+00 0.  1.
         12    1    3    3    0    0  0.12619707657E+02 -0.18030394695E+02  0.85305125190E+01  0.23603427676E+02  0.00000000000E+00 0. -1.
        -11    1    4    4    0    0 -0.53478984352E+02 -0.32454425219E+02  0.11592875434E+02  0.63621429129E+02  0.00000000000E+00 0. -1.
         11    1    4    4    0    0  0.67626310799E+01 -0.77955898304E+02  0.85662597985E+02  0.11602127371E+03  0.00000000000E+00 0.  1.
          1    1    1    2  501    0  0.48978557674E+02  0.58727047052E+02  0.39407693033E+03  0.40142794146E+03  0.00000000000E+00 0. -1.
<scales pt_clust_5="13000.00000" pt_clust_6="13000.00000" pt_clust_7="13000.00000" pt_clust_8="13000.00000" pt_clust_9="76.47072"></scales>
<clustering>
<clus scale="   76.471">  2  9  1 -1</clus>
<clus scale="   80.501">  5  6 -1 -1</clus>
<clus scale="   91.870">  7  8 -1 -1</clus>
<clus scale="  109.042">  1  5  2 -1</clus>
<clus scale="   76.471">  2  5  1 -1</clus>
</clustering>
</event>
<event>
 9    2  0.6175212E-005  0.2016860E+03  0.7546771E-02  0.1148324E+00
         21   -1    0    0  501  502  0.00000000000E+00  0.00000000000E+00  0.69041243663E+02  0.69041243663E+02  0.00000000000E+00 0. -1.
          2   -1    0    0  502    0 -0.00000000000E+00 -0.00000000000E+00 -0.47551197815E+03  0.47551197815E+03  0.00000000000E+00 0. -1.
         24    2    1    2    0    0  0.37483373725E+02 -0.22853052051E+02 -0.20582559211E+03  0.22586573356E+03  0.81999328885E+02 0.  0.
         23    2    1    2    0    0  0.53238332636E+02 -0.32302876558E+02 -0.18146917375E+03  0.21079716320E+03  0.87330333198E+02 0.  0.
        -13    1    3    3    0    0 -0.18743395218E+02 -0.29287371217E+02 -0.58631890367E+02  0.68167173515E+02  0.00000000000E+00 0.  1.
         14    1    3    3    0    0  0.56226768943E+02  0.64343191658E+01 -0.14719370174E+03  0.15769856005E+03  0.00000000000E+00 0. -1.
        -11    1    4    4    0    0  0.12647580411E+02  0.24741167266E+02 -0.97950770062E+02  0.10181571590E+03  0.00000000000E+00 0.  1.
         11    1    4    4    0    0  0.40590752225E+02 -0.57044043824E+02 -0.83518403690E+02  0.10898144731E+03  0.00000000000E+00 0. -1.
          1    1    1    2  501    0 -0.90721706361E+02  0.55155928609E+02 -0.19175968626E+02  0.10789032505E+03  0.00000000000E+00 0. -1.
<scales pt_clust_5="13000.00000" pt_clust_6="13000.00000" pt_clust_7="13000.00000" pt_clust_8="13000.00000" pt_clust_9="106.17252"></scales>
<clustering>
<clus scale="   81.999">  5  6 -1 -1</clus>
<clus scale="   87.330">  7  8 -1 -1</clus>
<clus scale="   90.208">  5  7 -1 -1</clus>
<clus scale="  106.173">  1  9  2 -1</clus>
<clus scale="  106.173">  1  5  2 -1</clus>
</clustering>
</event>
<event>
 9    2  0.8327423E-005  0.6992313E+03  0.7546771E-02  0.9718548E-01
          2   -1    0    0  502    0 -0.00000000000E+00  0.00000000000E+00  0.16533244897E+04  0.16533244897E+04  0.00000000000E+00 0. -1.
         21   -1    0    0  501  502  0.00000000000E+00 -0.00000000000E+00 -0.39427938099E+03  0.39427938099E+03  0.00000000000E+00 0. -1.
         24    2    1    2    0    0 -0.20140972749E+03 -0.25987970098E+03 -0.32769889055E+01  0.33846906381E+03  0.80294652326E+02 0.  0.
         23    2    1    2    0    0 -0.15895729601E+03 -0.30252684034E+03  0.98450147565E+02  0.36720953867E+03  0.91435784302E+02 0.  0.
        -11    1    3    3    0    0 -0.51673149621E+02 -0.19763003028E+02  0.32005760373E+01  0.55416011832E+02  0.00000000000E+00 0.  1.
         12    1    3    3    0    0 -0.14973657787E+03 -0.24011669795E+03 -0.64775649428E+01  0.28305305198E+03  0.00000000000E+00 0. -1.
        -13    1    4    4    0    0 -0.29872577567E+02 -0.11094427713E+03 -0.29243781642E+01  0.11493283041E+03  0.00000000000E+00 0. -1.
         13    1    4    4    0    0 -0.12908471844E+03 -0.19158256321E+03  0.10137452573E+03  0.25227670826E+03  0.00000000000E+00 0.  1.
          1    1    1    2  501    0  0.36036702350E+03  0.56240654132E+03  0.11638719500E+04  0.13419252682E+04  0.00000000000E+00 0. -1.
<scales pt_clust_5="13000.00000" pt_clust_6="13000.00000" pt_clust_7="13000.00000" pt_clust_8="13000.00000" pt_clust_9="667.95655"></scales>
<clustering>
<clus scale="   80.295">  5  6 -1 -1</clus>
<clus scale="   91.436">  7  8 -1 -1</clus>
<clus scale="  143.933">  5  7 -1 -1</clus>
<clus scale="  667.957">  2  9  1 -1</clus>
<clus scale="  667.957">  2  5  1 -1</clus>
</clustering>
</event>
<event>
 9    2  0.6175212E-005  0.1273971E+03  0.7546771E-02  0.1240716E+00
          2   -1    0    0  502    0 -0.00000000000E+00  0.00000000000E+00  0.83046500604E+03  0.83046500604E+03  0.00000000000E+00 0. -1.
         21   -1    0    0  501  502  0.00000000000E+00 -0.00000000000E+00 -0.35377606959E+02  0.35377606959E+02  0.00000000000E+00 0. -1.
         24    2    1    2    0    0 -0.65794390573E+02  0.25238368632E+01  0.21655654598E+03  0.24077459641E+03  0.82099921360E+02 0.  0.
         23    2    1    2    0    0 -0.50143709977E+01  0.83977582934E+02  0.25338702921E+03  0.28124410445E+03  0.88407473465E+02 0.  0.
        -11    1    3    3    0    0  0.22757553713E+00  0.28066918589E+02  0.29256752352E+02  0.40543325812E+02  0.00000000000E+00 0.  1.
         12    1    3    3    0    0 -0.66021966110E+02 -0.25543081726E+02  0.18729979362E+03  0.20023127060E+03  0.00000000000E+00 0. -1.
        -13    1    4    4    0    0 -0.35276672559E+02  0.62780999095E+01  0.10615780187E+03  0.11204167556E+03  0.00000000000E+00 0.  1.
         13    1    4    4    0    0  0.30262301562E+02  0.77699483025E+02  0.14722922734E+03  0.16920242889E+03  0.00000000000E+00 0. -1.
          1    1    1    2  501    0  0.70808761571E+02 -0.86501419797E+02  0.32514382390E+03  0.34382391214E+03  0.00000000000E+00 0. -1.
<scales pt_clust_5="13000.00000" pt_clust_6="13000.00000" pt_clust_7="13000.00000" pt_clust_8="13000.00000" pt_clust_9="91.72871"></scales>
<clustering>
<clus scale="   82.100">  5  6 -1 -1</clus>
<clus scale="   88.407">  7  8 -1 -1</clus>
<clus scale="  105.241">  1  5  2 -1</clus>
<clus scale="   91.729">  2  9  1 -1</clus>
<clus scale="   91.729">  2  5  1 -1</clus>
</clustering>
</event>
<event>
 9    2  0.6175212E-005  0.9608667E+02  0.7546771E-02  0.1294196E+00
         21   -1    0    0  501  502  0.00000000000E+00  0.00000000000E+00  0.32320572349E+02  0.32320572349E+02  0.00000000000E+00 0.  1.
          2   -1    0    0  502    0 -0.00000000000E+00 -0.00000000000E+00 -0.39547843751E+03  0.39547843751E+03  0.00000000000E+00 0. -1.
         24    2    1    2    0    0 -0.37027357224E+02 -0.17368639022E+02 -0.22045864136E+03  0.23834227918E+03  0.80822859944E+02 0.  0.
         23    2    1    2    0    0  0.16762030633E+02  0.36555069824E+01 -0.13545385959E+03  0.16393754663E+03  0.90738319988E+02 0.  0.
        -13    1    3    3    0    0 -0.17383676011E+02  0.26006831087E+02 -0.35331899069E+02  0.47189941160E+02  0.00000000000E+00 0.  1.
         14    1    3    3    0    0 -0.19643681212E+02 -0.43375470109E+02 -0.18512674229E+03  0.19115233802E+03  0.00000000000E+00 0. -1.
        -11    1    4    4    0    0  0.51458646181E+02 -0.13968666571E+02 -0.74347956190E+02  0.91491718216E+02  0.00000000000E+00 0. -1.
         11    1    4    4    0    0 -0.34696615547E+02  0.17624173553E+02 -0.61105903399E+02  0.72445828410E+02  0.00000000000E+00 0.  1.
          1    1    1    2  501    0  0.20265326590E+02  0.13713132039E+02 -0.72453642095E+01  0.25519184052E+02  0.00000000000E+00 0. -1.
<scales pt_clust_5="13000.00000" pt_clust_6="13000.00000" pt_clust_7="13000.00000" pt_clust_8="13000.00000" pt_clust_9="24.46903"></scales>
<clustering>
<clus scale="   24.469">  1  9  2 -1</clus>
<clus scale="   80.823">  5  6 -1 -1</clus>
<clus scale="   86.784">  2  5  1 -1</clus>
<clus scale="   90.738">  7  8 -1 -1</clus>
<clus scale="   24.469">  1  5  2 -1</clus>
</clustering>
</event>
<event>
 9    2  0.6175212E-005  0.9785723E+02  0.7546771E-02  0.1290930E+00
         -1   -1    0    0    0  501 -0.00000000000E+00  0.00000000000E+00  0.28590501373E+02  0.28590501373E+02  0.00000000000E+00 0.  1.
         21   -1    0    0  501  502  0.00000000000E+00 -0.00000000000E+00 -0.64207511378E+03  0.64207511378E+03  0.00000000000E+00 0. -1.
         24    2    1    2    0    0 -0.15171520767E+02  0.18400856094E+02 -0.12867547747E+03  0.15295226390E+03  0.79172280390E+02 0.  0.
         23    2    1    2    0    0  0.27006262975E+02 -0.71371650407E+02 -0.39858827606E+03  0.41583105310E+03  0.90662010692E+02 0.  0.
        -13    1    3    3    0    0  0.26773178834E+02  0.22604562027E+02 -0.86473803517E+02  0.93303204790E+02  0.00000000000E+00 0.  1.
         14    1    3    3    0    0 -0.41944699600E+02 -0.42037059330E+01 -0.42201673953E+02  0.59649059109E+02  0.00000000000E+00 0. -1.
        -11    1    4    4    0    0 -0.31229378378E+02 -0.86170325274E+01 -0.93233822165E+02  0.98701939793E+02  0.00000000000E+00 0. -1.
         11    1    4    4    0    0  0.58235641353E+02 -0.62754617880E+02 -0.30535445390E+03  0.31712911330E+03  0.00000000000E+00 0.  1.
         -2    1    1    2    0  502 -0.11834742208E+02  0.52970794313E+02 -0.86220858877E+02  0.10188229816E+03  0.00000000000E+00 0.  1.
<scales pt_clust_5="13000.00000" pt_clust_6="13000.00000" pt_clust_7="13000.00000" pt_clust_8="13000.00000" pt_clust_9="54.27678"></scales>
<clustering>
<clus scale="   54.277">  2  9  1 -1</clus>
<clus scale="   79.172">  5  6 -1 -1</clus>
<clus scale="   87.319">  1  5  2 -1</clus>
<clus scale="   90.662">  7  8 -1 -1</clus>
<clus scale="   54.277">  2  5  1 -1</clus>
</clustering>
</event>
<event>
 9    2  0.6175212E-005  0.1027185E+03  0.7546771E-02  0.1281099E+00
         21   -1    0    0  501  502  0.00000000000E+00  0.00000000000E+00  0.11471582100E+03  0.11471582100E+03  0.00000000000E+00 0. -1.
          4   -1    0    0  502    0 -0.00000000000E+00 -0.00000000000E+00 -0.12957179774E+03  0.12957179774E+03  0.00000000000E+00 0. -1.
         24    2    1    2    0    0  0.94738382882E+01  0.30161563233E+02 -0.27145019378E+02  0.90182814171E+02  0.79978837115E+02 0.  0.
         23    2    1    2    0    0 -0.37092146766E+02 -0.56659507925E+02  0.11824995466E+02  0.11582782224E+03  0.93220849047E+02 0.  0.
        -11    1    3    3    0    0  0.46749563532E+01  0.33702426616E+02 -0.53367129213E+02  0.63291067751E+02  0.00000000000E+00 0.  1.
         12    1    3    3    0    0  0.47988819350E+01 -0.35408633833E+01  0.26222109835E+02  0.26891746420E+02  0.00000000000E+00 0. -1.
        -11    1    4    4    0    0  0.24760287451E+02  0.57990619059E+01  0.11537470449E+02  0.27925153142E+02  0.00000000000E+00 0.  1.
         11    1    4    4    0    0 -0.61852434217E+02 -0.62458569831E+02  0.28752501656E+00  0.87902669098E+02  0.00000000000E+00 0. -1.
          3    1    1    2  501    0  0.27618308478E+02  0.26497944693E+02  0.46404717066E+00  0.38276982325E+02  0.00000000000E+00 0. -1.
<scales pt_clust_5="13000.00000" pt_clust_6="13000.00000" pt_clust_7="13000.00000" pt_clust_8="13000.00000" pt_clust_9="38.27417"></scales>
<clustering>
<clus scale="   38.274">  1  9  2 -1</clus>
<clus scale="   79.979">  5  6 -1 -1</clus>
<clus scale="   90.871">  2  5  1 -1</clus>
<clus scale="   93.221">  7  8 -1 -1</clus>
<clus scale="   38.274">  1  5  2 -1</clus>
</clustering>
</event>
<event>
 9    2  0.6175212E-005  0.9620958E+02  0.7546771E-02  0.1295286E+00
          2   -1    0    0  502    0 -0.00000000000E+00  0.00000000000E+00  0.51862167858E+02  0.51862167858E+02  0.00000000000E+00 0. -1.
         21   -1    0    0  501  502  0.00000000000E+00 -0.00000000000E+00 -0.41001259385E+03  0.41001259385E+03  0.00000000000E+00 0. -1.
         23    2    1    2    0    0 -0.28736630239E+02 -0.13751444401E+02 -0.11894067369E+03  0.15351286411E+03  0.91675620795E+02 0.  0.
         24    2    1    2    0    0 -0.31811294665E+02  0.52516369544E+02 -0.20593946803E+03  0.22914269256E+03  0.79532267188E+02 0.  0.
        -13    1    4    4    0    0 -0.27030306509E+02  0.20954975138E+02 -0.18265663953E+02  0.38773482339E+02  0.00000000000E+00 0.  1.
         14    1    4    4    0    0 -0.47809881561E+01  0.31561394405E+02 -0.18767380408E+03  0.19036921022E+03  0.00000000000E+00 0. -1.
        -11    1    3    3    0    0  0.69548961458E+00  0.35852319353E+02 -0.66533071274E+02  0.75581228370E+02  0.00000000000E+00 0.  1.
         11    1    3    3    0    0 -0.29432119854E+02 -0.49603763754E+02 -0.52407602416E+02  0.77931635737E+02  0.00000000000E+00 0. -1.
          1    1    1    2  501    0  0.60547924905E+02 -0.38764925143E+02 -0.33270284278E+02  0.79219205042E+02  0.00000000000E+00 0. -1.
<scales pt_clust_5="13000.00000" pt_clust_6="13000.00000" pt_clust_7="13000.00000" pt_clust_8="13000.00000" pt_clust_9="71.89420"></scales>
<clustering>
<clus scale="   71.894">  2  9  1 -1</clus>
<clus scale="   79.532">  5  6 -1 -1</clus>
<clus scale="   84.719">  2  5  1 -1</clus>
<clus scale="   91.676">  7  8 -1 -1</clus>
<clus scale="   71.894">  2  5  1 -1</clus>
</clustering>
</event>
<event>
 9    2  0.6175212E-005  0.1138387E+03  0.7546771E-02  0.1257363E+00
         21   -1    0    0  501  502  0.00000000000E+00  0.00000000000E+00  0.24798073263E+02  0.24798073263E+02  0.00000000000E+00 0. -1.
          4   -1    0    0  502    0 -0.00000000000E+00 -0.00000000000E+00 -0.75805282864E+03  0.75805282864E+03  0.00000000000E+00 0. -1.
         24    2    1    2    0    0  0.35255523355E+02  0.73715284111E+02 -0.33124970821E+03  0.35075286109E+03  0.81389835554E+02 0.  0.
         23    2    1    2    0    0  0.40561898700E+01 -0.53839535850E+02 -0.21394788859E+03  0.23895055557E+03  0.91697986225E+02 0.  0.
        -13    1    3    3    0    0  0.53264413991E+02  0.17998123415E+02 -0.14514927038E+03  0.15565776864E+03  0.00000000000E+00 0.  1.
         14    1    3    3    0    0 -0.18008890636E+02  0.55717160696E+02 -0.18610043783E+03  0.19509509245E+03  0.00000000000E+00 0. -1.
        -13    1    4    4    0    0 -0.10427950554E+02  0.24277541682E+02 -0.64379514673E+02  0.69590682512E+02  0.00000000000E+00 0.  1.
         13    1    4    4    0    0  0.14484140424E+02 -0.78117077531E+02 -0.14956837391E+03  0.16935987305E+03  0.00000000000E+00 0. -1.
          3    1    1    2  501    0 -0.39311713225E+02 -0.19875748261E+02 -0.18805715858E+03  0.19314748525E+03  0.00000000000E+00 0. -1.
<scales pt_clust_5="13000.00000" pt_clust_6="13000.00000" pt_clust_7="13000.00000" pt_clust_8="13000.00000" pt_clust_9="44.05063"></scales>
<clustering>
<clus scale="   44.051">  1  9  2 -1</clus>
<clus scale="   81.390">  5  6 -1 -1</clus>
<clus scale="   91.698">  7  8 -1 -1</clus>
<clus scale="  105.712">  2  5  1 -1</clus>
<clus scale="   44.051">  1  5  2 -1</clus>
</clustering>
</event>
<event>
 9    2  0.6175212E-005  0.1312386E+03  0.7546771E-02  0.1244253E+00
          2   -1    0    0  502    0 -0.00000000000E+00  0.00000000000E+00  0.10432708090E+04  0.10432708090E+04  0.00000000000E+00 0. -1.
         21   -1    0    0  501  502  0.00000000000E+00 -0.00000000000E+00 -0.47783424021E+02  0.47783424021E+02  0.00000000000E+00 0. -1.
         24    2    1    2    0    0  0.15010140097E+02  0.33441429259E+02  0.74966330811E+03  0.75500117500E+03  0.81780592058E+02 0.  0.
         23    2    1    2    0    0  0.75586115042E+02  0.25153573075E+02  0.13562754980E+03  0.18183136588E+03  0.91224176225E+02 0.  0.
        -13    1    3    3    0    0 -0.27345741624E+02  0.44280521857E+01  0.11601763834E+03  0.11927904106E+03  0.00000000000E+00 0.  1.
         14    1    3    3    0    0  0.42355881721E+02  0.29013377074E+02  0.63364566977E+03  0.63572213394E+03  0.00000000000E+00 0. -1.
        -13    1    4    4    0    0  0.13714591216E+02 -0.26289732354E+02  0.75877876647E+01  0.30607426567E+02  0.00000000000E+00 0.  1.
         13    1    4    4    0    0  0.61871523826E+02  0.51443305429E+02  0.12803976214E+03  0.15122393931E+03  0.00000000000E+00 0. -1.
          1    1    1    2  501    0 -0.90596255139E+02 -0.58595002335E+02  0.11019652704E+03  0.15422169210E+03  0.00000000000E+00 0. -1.
<scales pt_clust_5="13000.00000" pt_clust_6="13000.00000" pt_clust_7="13000.00000" pt_clust_8="13000.00000" pt_clust_9="94.34902"></scales>
<clustering>
<clus scale="   81.781">  5  6 -1 -1</clus>
<clus scale="   89.620">  1  5  2 -1</clus>
<clus scale="   91.224">  7  8 -1 -1</clus>
<clus scale="   94.349">  2  9  1 -1</clus>
<clus scale="   94.349">  2  5  1 -1</clus>
</clustering>
</event>
<event>
 9    2  0.6175212E-005  0.1698754E+03  0.7546771E-02  0.1179911E+00
          2   -1    0    0  502    0 -0.00000000000E+00  0.00000000000E+00  0.67090433676E+03  0.67090433676E+03  0.00000000000E+00 0. -1.
         21   -1    0    0  501  502  0.00000000000E+00 -0.00000000000E+00 -0.56961417298E+02  0.56961417298E+02  0.00000000000E+00 0.  1.
         24    2    1    2    0    0  0.14918010194E+03 -0.14264582428E+02  0.39875244748E+03  0.43393166140E+03  0.82674006031E+02 0.  0.
         23    2    1    2    0    0 -0.11818231271E+03  0.19590634131E+02  0.12377992951E+03  0.19726394711E+03  0.96128777667E+02 0.  0.
        -13    1    3    3    0    0  0.83680293176E+01 -0.25503922798E+02  0.38135140623E+02  0.46634353680E+02  0.00000000000E+00 0.  1.
         14    1    3    3    0    0  0.14081207262E+03  0.11239340370E+02  0.36061730685E+03  0.38729730772E+03  0.00000000000E+00 0. -1.
        -11    1    4    4    0    0 -0.51302591613E+02 -0.37280968917E+02  0.69321757271E+02  0.93953885395E+02  0.00000000000E+00 0. -1.
         11    1    4    4    0    0 -0.66879721100E+02  0.56871603049E+02  0.54458172235E+02  0.10331006171E+03  0.00000000000E+00 0.  1.
          1    1    1    2  501    0 -0.30997789228E+02 -0.53260517030E+01  0.91410542483E+02  0.96670145551E+02  0.00000000000E+00 0. -1.
<scales pt_clust_5="13000.00000" pt_clust_6="13000.00000" pt_clust_7="13000.00000" pt_clust_8="13000.00000" pt_clust_9="31.45204"></scales>
<clustering>
<clus scale="   31.452">  2  9  1 -1</clus>
<clus scale="   82.674">  5  6 -1 -1</clus>
<clus scale="   96.129">  7  8 -1 -1</clus>
<clus scale="  162.640">  1  5  2 -1</clus>
<clus scale="   31.452">  2  5  1 -1</clus>
</clustering>
</event>
<event>
 9    2  0.6175212E-005  0.2703956E+03  0.7546771E-02  0.1101053E+00
          2   -1    0    0  502    0 -0.00000000000E+00  0.00000000000E+00  0.76728664748E+03  0.76728664748E+03  0.00000000000E+00 0. -1.
         21   -1    0    0  501  502  0.00000000000E+00 -0.00000000000E+00 -0.68833470831E+02  0.68833470831E+02  0.00000000000E+00 0. -1.
         24    2    1    2    0    0 -0.10160018502E+03  0.15967875820E+02  0.14082540837E+03  0.19183212353E+03  0.79938709763E+02 0.  0.
         23    2    1    2    0    0 -0.68033864046E+02  0.67426069717E+02  0.25775494246E+03  0.28981095404E+03  0.91530853718E+02 0.  0.
        -13    1    3    3    0    0 -0.78496209708E+02 -0.16567200342E+02  0.12577819886E+03  0.14918539598E+03  0.00000000000E+00 0.  1.
         14    1    3    3    0    0 -0.23103975313E+02  0.32535076162E+02  0.15047209514E+02  0.42646727545E+02  0.00000000000E+00 0. -1.
        -13    1    4    4    0    0 -0.82036109738E+02  0.32122943205E+02  0.13406771513E+03  0.16042430932E+03  0.00000000000E+00 0. -1.
         13    1    4    4    0    0  0.14002245692E+02  0.35303126511E+02  0.12368722733E+03  0.12938664472E+03  0.00000000000E+00 0.  1.
          1    1    1    2  501    0  0.16963404907E+03 -0.83393945537E+02  0.29987282581E+03  0.35447704075E+03  0.00000000000E+00 0. -1.
<scales pt_clust_5="13000.00000" pt_clust_6="13000.00000" pt_clust_7="13000.00000" pt_clust_8="13000.00000" pt_clust_9="189.02459"></scales>
<clustering>
<clus scale="   79.939">  5  6 -1 -1</clus>
<clus scale="   91.531">  7  8 -1 -1</clus>
<clus scale="  124.957">  5  7 -1 -1</clus>
<clus scale="  189.025">  2  9  1 -1</clus>
<clus scale="  189.025">  2  5  1 -1</clus>
</clustering>
</event>
<event>
 9    2  0.6175212E-005  0.1002249E+03  0.7546771E-02  0.1288323E+00
          2   -1    0    0  502    0 -0.00000000000E+00  0.00000000000E+00  0.24572433884E+03  0.24572433884E+03  0.00000000000E+00 0. -1.
         21   -1    0    0  501  502  0.00000000000E+00 -0.00000000000E+00 -0.16517993690E+03  0.16517993690E+03  0.00000000000E+00 0. -1.
         23    2    1    2    0    0 -0.16298512511E+02 -0.13519145604E+02  0.17678824025E+03  0.20216168551E+03  0.95743701584E+02 0.  0.
         24    2    1    2    0    0  0.35816345406E+02  0.60151076688E+02 -0.74839504525E+01  0.10659661386E+03  0.80036653771E+02 0.  0.
        -11    1    4    4    0    0  0.21446818770E+02 -0.15401620364E+02  0.90880810191E+01  0.27924347115E+02  0.00000000000E+00 0.  1.
         12    1    4    4    0    0  0.14369526636E+02  0.75552697052E+02 -0.16572031472E+02  0.78672266744E+02  0.00000000000E+00 0. -1.
        -13    1    3    3    0    0 -0.13722345224E+02 -0.49853279457E+02  0.57004773746E+02  0.76962305455E+02  0.00000000000E+00 0.  1.
         13    1    3    3    0    0 -0.25761672876E+01  0.36334133853E+02  0.11978346650E+03  0.12519938006E+03  0.00000000000E+00 0. -1.
          1    1    1    2  501    0 -0.19517832895E+02 -0.46631931083E+02 -0.88759887846E+02  0.10214597637E+03  0.00000000000E+00 0. -1.
<scales pt_clust_5="13000.00000" pt_clust_6="13000.00000" pt_clust_7="13000.00000" pt_clust_8="13000.00000" pt_clust_9="50.55178"></scales>
<clustering>
<clus scale="   50.552">  2  9  1 -1</clus>
<clus scale="   80.037">  5  6 -1 -1</clus>
<clus scale="   85.347">  2  5  1 -1</clus>
<clus scale="   95.744">  7  8 -1 -1</clus>
<clus scale="   50.552">  2  5  1 -1</clus>
</clustering>
</event>
<event>
 9    2  0.6175212E-005  0.1008419E+03  0.7546771E-02  0.1284991E+00
         21   -1    0    0  501  502  0.00000000000E+00  0.00000000000E+00  0.28636845356E+02  0.28636845356E+02  0.00000000000E+00 0.  1.
          2   -1    0    0  502    0 -0.00000000000E+00 -0.00000000000E+00 -0.84780351892E+03  0.84780351892E+03  0.00000000000E+00 0. -1.
         24    2    1    2    0    0  0.76906076532E+02  0.15343594446E+02 -0.40528245151E+03  0.42017877026E+03  0.78398743454E+02 0.  0.
         23    2    1    2    0    0  0.87731176084E+01  0.27688392541E+02 -0.19573535583E+03  0.21797268524E+03  0.91411964832E+02 0.  0.
        -13    1    3    3    0    0  0.75562181552E+02  0.28618169916E+02 -0.39540973970E+03  0.40358085334E+03  0.00000000000E+00 0.  1.
         14    1    3    3    0    0  0.13438949798E+01 -0.13274575470E+02 -0.98727118104E+01  0.16597916921E+02  0.00000000000E+00 0. -1.
        -13    1    4    4    0    0  0.38053824646E+02  0.28741549919E+01 -0.32012416473E+02  0.49811134755E+02  0.00000000000E+00 0.  1.
         13    1    4    4    0    0 -0.29280707038E+02  0.24814237550E+02 -0.16372293935E+03  0.16816155048E+03  0.00000000000E+00 0. -1.
          1    1    1    2  501    0 -0.85679194140E+02 -0.43031986987E+02 -0.21814886622E+03  0.23828890878E+03  0.00000000000E+00 0. -1.
<scales pt_clust_5="13000.00000" pt_clust_6="13000.00000" pt_clust_7="13000.00000" pt_clust_8="13000.00000" pt_clust_9="95.87844"></scales>
<clustering>
<clus scale="   78.399">  5  6 -1 -1</clus>
<clus scale="   91.412">  7  8 -1 -1</clus>
<clus scale="   95.878">  1  9  2 -1</clus>
<clus scale="   89.215">  2  5  1 -1</clus>
<clus scale="   95.878">  1  5  2 -1</clus>
</clustering>
</event>
<event>
 9    2  0.6175212E-005  0.1161339E+03  0.7546771E-02  0.1251265E+00
          2   -1    0    0  502    0 -0.00000000000E+00  0.00000000000E+00  0.37523986543E+03  0.37523986543E+03  0.00000000000E+00 0. -1.
         21   -1    0    0  501  502  0.00000000000E+00 -0.00000000000E+00 -0.64592630797E+02  0.64592630797E+02  0.00000000000E+00 0. -1.
         23    2    1    2    0    0 -0.94655745101E+02 -0.15788778478E+01  0.11121426026E+03  0.17027502374E+03  0.87537244010E+02 0.  0.
         24    2    1    2    0    0  0.45049626977E+02  0.23031954402E+01  0.54377481558E+02  0.11625258807E+03  0.92319987715E+02 0.  0.
        -13    1    4    4    0    0  0.16433414966E+02  0.42143214270E+02  0.49348782971E+02  0.66943334374E+02  0.00000000000E+00 0.  1.
         14    1    4    4    0    0  0.28616212011E+02 -0.39840018830E+02  0.50286985870E+01  0.49309253692E+02  0.00000000000E+00 0. -1.
        -11    1    3    3    0    0 -0.17626290467E+02  0.13150232086E+02  0.84670509724E+02  0.87479768727E+02  0.00000000000E+00 0. -1.
         11    1    3    3    0    0 -0.77029454634E+02 -0.14729109934E+02  0.26543750540E+02  0.82795255017E+02  0.00000000000E+00 0.  1.
          1    1    1    2  501    0  0.49606118124E+02 -0.72431759234E+00  0.14505549281E+03  0.15330488442E+03  0.00000000000E+00 0. -1.
<scales pt_clust_5="13000.00000" pt_clust_6="13000.00000" pt_clust_7="13000.00000" pt_clust_8="13000.00000" pt_clust_9="49.61143"></scales>
<clustering>
<clus scale="   49.611">  2  9  1 -1</clus>
<clus scale="   87.537">  7  8 -1 -1</clus>
<clus scale="   92.320">  5  6 -1 -1</clus>
<clus scale="  112.369">  1  7  2 -1</clus>
<clus scale="   49.611">  2  5  1 -1</clus>
</clustering>
</event>
<event>
 9    2  0.6175212E-005  0.9876053E+02  0.7546771E-02  0.1288681E+00
         -3   -1    0    0    0  501 -0.00000000000E+00  0.00000000000E+00  0.20095939887E+03  0.20095939887E+03  0.00000000000E+00 0.  1.
         21   -1    0    0  501  502  0.00000000000E+00 -0.00000000000E+00 -0.22400932100E+03  0.22400932100E+03  0.00000000000E+00 0.  1.
         24    2    1    2    0    0 -0.44026893488E+02  0.15052133594E+02  0.15432099564E+03  0.17961465242E+03  0.79256038219E+02 0.  0.
         23    2    1    2    0    0 -0.27614874330E+02 -0.18523073223E+02 -0.85857891663E+02  0.12908186842E+03  0.90470247422E+02 0.  0.
        -13    1    3    3    0    0 -0.13499742755E+02  0.29467186329E+02  0.13866294821E+03  0.14240074203E+03  0.00000000000E+00 0.  1.
         14    1    3    3    0    0 -0.30527150734E+02 -0.14415052735E+02  0.15658047425E+02  0.37213910389E+02  0.00000000000E+00 0. -1.
        -13    1    4    4    0    0 -0.48186535724E+02 -0.74362608045E+01 -0.92692723178E+02  0.10473385857E+03  0.00000000000E+00 0.  1.
         13    1    4    4    0    0  0.20571661394E+02 -0.11086812418E+02  0.68348315154E+01  0.24348009856E+02  0.00000000000E+00 0. -1.
         -4    1    1    2    0  502  0.71641767818E+02  0.34709396284E+01 -0.91513026106E+02  0.11627219902E+03  0.00000000000E+00 0.  1.
<scales pt_clust_5="13000.00000" pt_clust_6="13000.00000" pt_clust_7="13000.00000" pt_clust_8="13000.00000" pt_clust_9="71.72580"></scales>
<clustering>
<clus scale="   71.726">  2  9  1 -1</clus>
<clus scale="   79.256">  5  6 -1 -1</clus>
<clus scale="   88.602">  1  5  2 -1</clus>
<clus scale="   90.470">  7  8 -1 -1</clus>
<clus scale="   71.726">  2  5  1 -1</clus>
</clustering>
</event>
<event>
 9    2  0.6175212E-005  0.1014193E+03  0.7546771E-02  0.1281202E+00
          2   -1    0    0  502    0 -0.00000000000E+00  0.00000000000E+00  0.83029339804E+03  0.83029339804E+03  0.00000000000E+00 0. -1.
         21   -1    0    0  501  502  0.00000000000E+00 -0.00000000000E+00 -0.66768748811E+02  0.66768748811E+02  0.00000000000E+00 0. -1.
         24    2    1    2    0    0  0.53129862715E+02 -0.22130726063E+02  0.69897416540E+03  0.70595280333E+03  0.80572484705E+02 0.  0.
         23    2    1    2    0    0  0.27608531974E+02  0.16216030657E+02  0.55706537537E+02  0.10967294266E+03  0.88880511589E+02 0.  0.
        -13    1    3    3    0    0  0.38912056779E+02 -0.32039767500E+02  0.18666967764E+03  0.19335527770E+03  0.00000000000E+00 0.  1.
         14    1    3    3    0    0  0.14217805936E+02  0.99090414372E+01  0.51230448776E+03  0.51259752563E+03  0.00000000000E+00 0. -1.
        -13    1    4    4    0    0  0.53409704413E+02  0.63635724867E+00  0.58724126960E+02  0.79382142597E+02  0.00000000000E+00 0. -1.
         13    1    4    4    0    0 -0.25801172440E+02  0.15579673409E+02 -0.30175894237E+01  0.30290800067E+02  0.00000000000E+00 0.  1.
          1    1    1    2  501    0 -0.80738394689E+02  0.59146954054E+01  0.88439463004E+01  0.81436400859E+02  0.00000000000E+00 0. -1.
<scales pt_clust_5="13000.00000" pt_clust_6="13000.00000" pt_clust_7="13000.00000" pt_clust_8="13000.00000" pt_clust_9="80.95475"></scales>
<clustering>
<clus scale="   80.572">  5  6 -1 -1</clus>
<clus scale="   80.955">  2  9  1 -1</clus>
<clus scale="   88.881">  7  8 -1 -1</clus>
<clus scale="   94.223">  1  5  2 -1</clus>
<clus scale="   80.955">  2  5  1 -1</clus>
</clustering>
</event>
<event>
 9    2  0.6175212E-005  0.1618139E+03  0.7546771E-02  0.1188239E+00
          2   -1    0    0  502    0 -0.00000000000E+00  0.00000000000E+00  0.78792872350E+03  0.78792872350E+03  0.00000000000E+00 0. -1.
         21   -1    0    0  501  502  0.00000000000E+00 -0.00000000000E+00 -0.16757994752E+03  0.16757994752E+03  0.00000000000E+00 0.  1.
         24    2    1    2    0    0  0.12508125000E+03  0.51690676095E+02  0.72753939618E+03  0.74436479522E+03  0.80300250724E+02 0.  0.
         23    2    1    2    0    0 -0.94987035651E+02 -0.67708093519E+02 -0.89719122457E+02  0.17283627040E+03  0.90641781542E+02 0.  0.
        -11    1    3    3    0    0  0.33641751292E+02 -0.14191227240E+02  0.93301903409E+02  0.10019183370E+03  0.00000000000E+00 0.  1.
         12    1    3    3    0    0  0.91439498710E+02  0.65881903335E+02  0.63423749277E+03  0.64417296152E+03  0.00000000000E+00 0. -1.
        -11    1    4    4    0    0  0.71967688187E+01 -0.34857077299E+02 -0.46833825394E+01  0.35899072289E+02  0.00000000000E+00 0. -1.
         11    1    4    4    0    0 -0.10218380447E+03 -0.32851016220E+02 -0.85035739918E+02  0.13693719811E+03  0.00000000000E+00 0.  1.
          1    1    1    2  501    0 -0.30094214351E+02  0.16017417424E+02 -0.17471497742E+02  0.38307605403E+02  0.00000000000E+00 0. -1.
<scales pt_clust_5="13000.00000" pt_clust_6="13000.00000" pt_clust_7="13000.00000" pt_clust_8="13000.00000" pt_clust_9="34.09134"></scales>
<clustering>
<clus scale="   34.091">  2  9  1 -1</clus>
<clus scale="   80.300">  5  6 -1 -1</clus>
<clus scale="   90.642">  7  8 -1 -1</clus>
<clus scale="  156.256">  1  5  2 -1</clus>
<clus scale="   34.091">  2  5  1 -1</clus>
</clustering>
</event>
<event>
 9    2  0.6175212E-005  0.1879147E+03  0.7546771E-02  0.1161377E+00
         21   -1    0    0  501  502  0.00000000000E+00  0.00000000000E+00  0.52414127039E+03  0.52414127039E+03  0.00000000000E+00 0.  1.
         -3   -1    0    0    0  501 -0.00000000000E+00 -0.00000000000E+00 -0.17100938406E+03  0.17100938406E+03  0.00000000000E+00 0.  1.
         24    2    1    2    0    0  0.12605318630E+03  0.87060387547E+02  0.43594004091E+02  0.17875666882E+03  0.81145502642E+02 0.  0.
         23    2    1    2    0    0 -0.13825270062E+03 -0.15758570253E+03  0.36173524042E+03  0.42780949261E+03  0.90672569892E+02 0.  0.
        -11    1    3    3    0    0  0.82964576773E+02  0.50470360123E+02 -0.13932611469E+02  0.98104515250E+02  0.00000000000E+00 0.  1.
         12    1    3    3    0    0  0.43088609526E+02  0.36590027424E+02  0.57526615560E+02  0.80652153570E+02  0.00000000000E+00 0. -1.
        -13    1    4    4    0    0 -0.14714302241E+03 -0.12864764008E+03  0.28756855730E+03  0.34770240075E+03  0.00000000000E+00 0.  1.
         13    1    4    4    0    0  0.88903217903E+01 -0.28938062455E+02  0.74166683122E+02  0.80107091856E+02  0.00000000000E+00 0. -1.
         -4    1    1    2    0  502  0.12199514320E+02  0.70525314987E+02 -0.52197358177E+02  0.88584493024E+02  0.00000000000E+00 0.  1.
<scales pt_clust_5="13000.00000" pt_clust_6="13000.00000" pt_clust_7="13000.00000" pt_clust_8="13000.00000" pt_clust_9="71.57271"></scales>
<clustering>
<clus scale="   71.573">  1  9  2 -1</clus>
<clus scale="   81.146">  5  6 -1 -1</clus>
<clus scale="   90.673">  7  8 -1 -1</clus>
<clus scale="  183.508">  2  5  1 -1</clus>
<clus scale="   71.573">  1  5  2 -1</clus>
</clustering>
</event>
<event>
 9    2  0.6175212E-005  0.9263866E+02  0.7546771E-02  0.1300954E+00
         21   -1    0    0  501  502  0.00000000000E+00  0.00000000000E+00  0.11963780916E+03  0.11963780916E+03  0.00000000000E+00 0.  1.
         -3   -1    0    0    0  501 -0.00000000000E+00 -0.00000000000E+00 -0.10941149433E+03  0.10941149433E+03  0.00000000000E+00 0.  1.
         23    2    1    2    0    0 -0.37304300286E+02  0.11214065652E+02 -0.31501560354E+02  0.10229084238E+03  0.89183530101E+02 0.  0.
         24    2    1    2    0    0  0.69678792526E+01  0.39054992700E+01  0.14669272159E+02  0.83387183948E+02  0.81697188662E+02 0.  0.
        -13    1    4    4    0    0  0.18259601771E+02 -0.23860185320E+02  0.35782528121E+02  0.46723771456E+02  0.00000000000E+00 0.  1.
         14    1    4    4    0    0 -0.11291722518E+02  0.27765684590E+02 -0.21113255962E+02  0.36663412491E+02  0.00000000000E+00 0. -1.
        -13    1    3    3    0    0 -0.61756208434E+02 -0.11497441345E+02 -0.13054617549E+02  0.64159515873E+02  0.00000000000E+00 0.  1.
         13    1    3    3    0    0  0.24451908148E+02  0.22711506997E+02 -0.18446942805E+02  0.38131326505E+02  0.00000000000E+00 0. -1.
         -4    1    1    2    0  502  0.30336421033E+02 -0.15119564922E+02  0.27058603024E+02  0.43371277156E+02  0.00000000000E+00 0.  1.
<scales pt_clust_5="13000.00000" pt_clust_6="13000.00000" pt_clust_7="13000.00000" pt_clust_8="13000.00000" pt_clust_9="33.89542"></scales>
<clustering>
<clus scale="   33.895">  1  9  2 -1</clus>
<clus scale="   81.697">  5  6 -1 -1</clus>
<clus scale="   85.456">  1  5  2 -1</clus>
<clus scale="   89.184">  7  8 -1 -1</clus>
<clus scale="   33.895">  1  5  2 -1</clus>
</clustering>
</event>
<event>
 9    2  0.6175212E-005  0.1235931E+03  0.7546771E-02  0.1240145E+00
         21   -1    0    0  501  502  0.00000000000E+00  0.00000000000E+00  0.63741993624E+02  0.63741993624E+02  0.00000000000E+00 0. -1.
          2   -1    0    0  502    0 -0.00000000000E+00 -0.00000000000E+00 -0.43482374865E+03  0.43482374865E+03  0.00000000000E+00 0. -1.
         23    2    1    2    0    0  0.12645965915E+02  0.11103950665E+03 -0.16452248623E+03  0.21871513084E+03  0.90988831696E+02 0.  0.
         24    2    1    2    0    0 -0.12212280784E+02 -0.50142905078E+02 -0.43176581747E+02  0.10548752304E+03  0.81240073702E+02 0.  0.
        -11    1    4    4    0    0  0.17971082292E+02 -0.31749974135E+02  0.13325476431E+02  0.38840558421E+02  0.00000000000E+00 0.  1.
         12    1    4    4    0    0 -0.30183363077E+02 -0.18392930944E+02 -0.56502058178E+02  0.66646964624E+02  0.00000000000E+00 0. -1.
        -13    1    3    3    0    0  0.41372014778E+02  0.10475578305E+03 -0.11397291880E+03  0.16023496469E+03  0.00000000000E+00 0. -1.
         13    1    3    3    0    0 -0.28726048863E+02  0.62837235921E+01 -0.50549567430E+02  0.58480166149E+02  0.00000000000E+00 0.  1.
          1    1    1    2  501    0 -0.43368513085E+00 -0.60896601567E+02 -0.16338268705E+03  0.17436308839E+03  0.00000000000E+00 0. -1.
<scales pt_clust_5="13000.00000" pt_clust_6="13000.00000" pt_clust_7="13000.00000" pt_clust_8="13000.00000" pt_clust_9="60.89818"></scales>
<clustering>
<clus scale="   60.898">  1  9  2 -1</clus>
<clus scale="   81.240">  5  6 -1 -1</clus>
<clus scale="   90.989">  7  8 -1 -1</clus>
<clus scale="  116.603">  1  5  2 -1</clus>
<clus scale="   60.898">  1  5  2 -1</clus>
</clustering>
</event>
<event>
 9    2  0.6175212E-005  0.1955894E+03  0.7546771E-02  0.1180837E+00
         21   -1    0    0  501  502  0.00000000000E+00  0.00000000000E+00  0.28495649611E+03  0.28495649611E+03  0.00000000000E+00 0. -1.
          2   -1    0    0  502    0 -0.00000000000E+00 -0.00000000000E+00 -0.56962602534E+03  0.56962602534E+03  0.00000000000E+00 0. -1.
         23    2    1    2    0    0  0.37211097318E+02  0.22950871399E+02 -0.24246769384E+03  0.26397340007E+03  0.94762677930E+02 0.  0.
         24    2    1    2    0    0  0.17016790017E+03 -0.39645281130E+02  0.19595720920E+03  0.27437426809E+03  0.79706640814E+02 0.  0.
        -11    1    4    4    0    0  0.13490279768E+03  0.51636929539E+01  0.13972434670E+03  0.19428927301E+03  0.00000000000E+00 0.  1.
         12    1    4    4    0    0  0.35265102488E+02 -0.44808974084E+02  0.56232862498E+02  0.80084995078E+02  0.00000000000E+00 0. -1.
        -13    1    3    3    0    0  0.68908967314E+02  0.81852753007E+01 -0.16139633637E+03  0.17568216159E+03  0.00000000000E+00 0. -1.
         13    1    3    3    0    0 -0.31697869997E+02  0.14765596099E+02 -0.81071357473E+02  0.88291238484E+02  0.00000000000E+00 0.  1.
          1    1    1    2  501    0 -0.20737899748E+03  0.16694409731E+02 -0.23815904459E+03  0.31623485329E+03  0.00000000000E+00 0. -1.
<scales pt_clust_5="13000.00000" pt_clust_6="13000.00000" pt_clust_7="13000.00000" pt_clust_8="13000.00000" pt_clust_9="178.61153"></scales>
<clustering>
<clus scale="   79.707">  5  6 -1 -1</clus>
<clus scale="   94.763">  7  8 -1 -1</clus>
<clus scale="  104.362">  2  7  1 -1</clus>
<clus scale="  178.612">  1  9  2 -1</clus>
<clus scale="  178.612">  1  5  2 -1</clus>
</clustering>
</event>
<event>
 9    2  0.6175212E-005  0.9996091E+02  0.7546771E-02  0.1287564E+00
          4   -1    0    0  502    0 -0.00000000000E+00  0.00000000000E+00  0.69763453063E+02  0.69763453063E+02  0.00000000000E+00 0. -1.
         21   -1    0    0  501  502  0.00000000000E+00 -0.00000000000E+00 -0.46647034772E+03  0.46647034772E+03  0.00000000000E+00 0. -1.
         24    2    1    2    0    0  0.34899489236E+01  0.51152212575E+02  0.98197299303E+01  0.91771760809E+02  0.75477813900E+02 0.  0.
         23    2    1    2    0    0  0.28011712877E+02 -0.19008791280E+02 -0.11654250753E+03  0.15100617894E+03  0.89859444764E+02 0.  0.
        -11    1    3    3    0    0 -0.32315027429E+02  0.27230952196E+02 -0.11396184751E+02  0.43768239422E+02  0.00000000000E+00 0.  1.
         12    1    3    3    0    0  0.35804976352E+02  0.23921260380E+02  0.21215914682E+02  0.48003521387E+02  0.00000000000E+00 0. -1.
        -13    1    4    4    0    0  0.90373501745E+00 -0.40673381444E+02 -0.10779836340E+03  0.11521991081E+03  0.00000000000E+00 0.  1.
         13    1    4    4    0    0  0.27107977859E+02  0.21664590164E+02 -0.87441441348E+01  0.35786268138E+02  0.00000000000E+00 0. -1.
          3    1    1    2  501    0 -0.31501661800E+02 -0.32143421295E+02 -0.28998411706E+03  0.29345586103E+03  0.00000000000E+00 0. -1.
<scales pt_clust_5="13000.00000" pt_clust_6="13000.00000" pt_clust_7="13000.00000" pt_clust_8="13000.00000" pt_clust_9="45.00616"></scales>
<clustering>
<clus scale="   45.006">  2  9  1 -1</clus>
<clus scale="   75.478">  5  6 -1 -1</clus>
<clus scale="   87.260">  1  5  2 -1</clus>
<clus scale="   89.859">  7  8 -1 -1</clus>
<clus scale="   45.006">  2  5  1 -1</clus>
</clustering>
</event>
<event>
 9    2  0.6175212E-005  0.1052808E+03  0.7546771E-02  0.1275240E+00
         21   -1    0    0  501  502  0.00000000000E+00  0.00000000000E+00  0.86999398198E+02  0.86999398198E+02  0.00000000000E+00 0. -1.
         -1   -1    0    0    0  501 -0.00000000000E+00 -0.00000000000E+00 -0.33591024572E+03  0.33591024572E+03  0.00000000000E+00 0.  1.
         24    2    1    2    0    0  0.54231130779E+02  0.73541688446E+01 -0.27783145715E+03  0.29383367988E+03  0.78439871882E+02 0.  0.
         23    2    1    2    0    0 -0.34757797786E+02 -0.18297413572E+02  0.10102795335E+02  0.99868508859E+02  0.91262000514E+02 0.  0.
        -11    1    3    3    0    0  0.72168248543E+02  0.14093982607E+02 -0.24524229812E+03  0.25602867267E+03  0.00000000000E+00 0.  1.
         12    1    3    3    0    0 -0.17937117763E+02 -0.67398137624E+01 -0.32589159037E+02  0.37805007207E+02  0.00000000000E+00 0. -1.
        -11    1    4    4    0    0 -0.47495742490E+02  0.24949982460E+02  0.11040640166E+02  0.54774473203E+02  0.00000000000E+00 0. -1.
         11    1    4    4    0    0  0.12737944704E+02 -0.43247396032E+02 -0.93784483110E+00  0.45094035656E+02  0.00000000000E+00 0.  1.
         -2    1    1    2    0  502 -0.19473332993E+02  0.10943244727E+02  0.18817814300E+02  0.29207455179E+02  0.00000000000E+00 0.  1.
<scales pt_clust_5="13000.00000" pt_clust_6="13000.00000" pt_clust_7="13000.00000" pt_clust_8="13000.00000" pt_clust_9="22.33753"></scales>
<clustering>
<clus scale="   22.338">  1  9  2 -1</clus>
<clus scale="   78.440">  5  6 -1 -1</clus>
<clus scale="   91.262">  7  8 -1 -1</clus>
<clus scale="   94.383">  2  5  1 -1</clus>
<clus scale="   22.338">  1  5  2 -1</clus>
</clustering>
</event>
<event>
 9    2  0.6175212E-005  0.1010208E+03  0.7546771E-02  0.1282414E+00
         -3   -1    0    0    0  501 -0.00000000000E+00  0.00000000000E+00  0.24381821234E+03  0.24381821234E+03  0.00000000000E+00 0.  1.
         21   -1    0    0  501  502  0.00000000000E+00 -0.00000000000E+00 -0.10665975900E+03  0.10665975900E+03  0.00000000000E+00 0.  1.
         23    2    1    2    0    0  0.15887637649E+02 -0.44705856104E+02  0.31513780234E+01  0.10069062231E+03  0.88756068173E+02 0.  0.
         24    2    1    2    0    0  0.50491698623E+02  0.45647832910E+02  0.52820262572E+01  0.10495212591E+03  0.79711433632E+02 0.  0.
        -13    1    4    4    0    0  0.61535771363E+02  0.60510195921E+02  0.43794859391E+01  0.86413626615E+02  0.00000000000E+00 0.  1.
         14    1    4    4    0    0 -0.11044072740E+02 -0.14862363011E+02  0.90254031811E+00  0.18538499292E+02  0.00000000000E+00 0. -1.
        -13    1    3    3    0    0 -0.20621140304E+02 -0.21560938246E+02  0.35739799863E+02  0.46555759898E+02  0.00000000000E+00 0. -1.
         13    1    3    3    0    0  0.36508777954E+02 -0.23144917858E+02 -0.32588421839E+02  0.54134862411E+02  0.00000000000E+00 0.  1.
         -4    1    1    2    0  502 -0.66379336272E+02 -0.94197680616E+00  0.12872504906E+03  0.14483522313E+03  0.00000000000E+00 0.  1.
<scales pt_clust_5="13000.00000" pt_clust_6="13000.00000" pt_clust_7="13000.00000" pt_clust_8="13000.00000" pt_clust_9="66.38605"></scales>
<clustering>
<clus scale="   66.386">  2  9  1 -1</clus>
<clus scale="   79.711">  5  6 -1 -1</clus>
<clus scale="   88.756">  7  8 -1 -1</clus>
<clus scale="   93.174">  2  5  1 -1</clus>
<clus scale="   66.386">  2  5  1 -1</clus>
</clustering>
</event>
<event>
 9    2  0.6175212E-005  0.1030893E+03  0.7546771E-02  0.1283074E+00
          2   -1    0    0  502    0 -0.00000000000E+00  0.00000000000E+00  0.34884632898E+03  0.34884632898E+03  0.00000000000E+00 0. -1.
         21   -1    0    0  501  502  0.00000000000E+00 -0.00000000000E+00 -0.58449173165E+02  0.58449173165E+02  0.00000000000E+00 0.  1.
         24    2    1    2    0    0 -0.31091441516E+02  0.18098678771E+02  0.27048244728E+03  0.28425029740E+03  0.79644443471E+02 0.  0.
         23    2    1    2    0    0  0.25145753385E+02  0.17203189215E+01  0.13890379501E+02  0.10149441782E+03  0.97328853868E+02 0.  0.
        -13    1    3    3    0    0  0.21525185360E+02  0.20190642672E+02  0.54899407357E+02  0.62329291545E+02  0.00000000000E+00 0.  1.
         14    1    3    3    0    0 -0.52616626876E+02 -0.20919639020E+01  0.21558303992E+03  0.22192100586E+03  0.00000000000E+00 0. -1.
        -13    1    4    4    0    0 -0.27835758926E+02  0.21534147952E+02  0.25865108160E+02  0.43675540330E+02  0.00000000000E+00 0. -1.
         13    1    4    4    0    0  0.52981512311E+02 -0.19813829031E+02 -0.11974728658E+02  0.57818877489E+02  0.00000000000E+00 0.  1.
          1    1    1    2  501    0  0.59456881310E+01 -0.19818997692E+02  0.60243290338E+01  0.21550786927E+02  0.00000000000E+00 0. -1.
<scales pt_clust_5="13000.00000" pt_clust_6="13000.00000" pt_clust_7="13000.00000" pt_clust_8="13000.00000" pt_clust_9="20.69164"></scales>
<clustering>
<clus scale="   20.692">  2  9  1 -1</clus>
<clus scale="   79.644">  5  6 -1 -1</clus>
<clus scale="   86.589">  1  5  2 -1</clus>
<clus scale="   97.329">  7  8 -1 -1</clus>
<clus scale="   20.692">  2  5  1 -1</clus>
</clustering>
</event>
<event>
 9    2  0.6175212E-005  0.1154845E+03  0.7546771E-02  0.1254214E+00
          2   -1    0    0  502    0 -0.00000000000E+00  0.00000000000E+00  0.34416591631E+03  0.34416591631E+03  0.00000000000E+00 0. -1.
         21   -1    0    0  501  502  0.00000000000E+00 -0.00000000000E+00 -0.17383584824E+03  0.17383584824E+03  0.00000000000E+00 0. -1.
         24    2    1    2    0    0  0.26372423570E+02  0.43593034483E+02  0.14886688848E+03  0.17677520972E+03  0.80574604603E+02 0.  0.
         23    2    1    2    0    0 -0.40598592900E+02 -0.11774135858E+03  0.13503846855E+03  0.20484582261E+03  0.90637463478E+02 0.  0.
        -13    1    3    3    0    0  0.21105261803E+02 -0.13257919117E+02  0.10414001313E+02  0.27012143907E+02  0.00000000000E+00 0.  1.
         14    1    3    3    0    0  0.52671617664E+01  0.56850953600E+02  0.13845288716E+03  0.14976306582E+03  0.00000000000E+00 0. -1.
        -13    1    4    4    0    0  0.21251541808E+02 -0.63964644432E+02  0.36410267946E+02  0.76608167832E+02  0.00000000000E+00 0. -1.
         13    1    4    4    0    0 -0.61850134708E+02 -0.53776714143E+02  0.98628200609E+02  0.12823765478E+03  0.00000000000E+00 0.  1.
          1    1    1    2  501    0  0.14226169330E+02  0.74148324092E+02 -0.11357528896E+03  0.13638073222E+03  0.00000000000E+00 0. -1.
<scales pt_clust_5="13000.00000" pt_clust_6="13000.00000" pt_clust_7="13000.00000" pt_clust_8="13000.00000" pt_clust_9="75.50071"></scales>
<clustering>
<clus scale="   75.501">  2  9  1 -1</clus>
<clus scale="   80.575">  5  6 -1 -1</clus>
<clus scale="   90.637">  7  8 -1 -1</clus>
<clus scale="  107.767">  1  5  2 -1</clus>
<clus scale="   75.501">  2  5  1 -1</clus>
</clustering>
</event>
<event>
 9    2  0.6175212E-005  0.9828601E+02  0.7546771E-02  0.1288694E+00
         21   -1    0    0  501  502  0.00000000000E+00  0.00000000000E+00  0.45462181135E+02  0.45462181135E+02  0.00000000000E+00 0. -1.
          2   -1    0    0  502    0 -0.00000000000E+00 -0.00000000000E+00 -0.44492493179E+03  0.44492493179E+03  0.00000000000E+00 0. -1.
         24    2    1    2    0    0 -0.50846878411E+01 -0.34786481276E+02 -0.31733154093E+03  0.32974052835E+03  0.82423029799E+02 0.  0.
         23    2    1    2    0    0 -0.22847426316E+02  0.41513430758E+02 -0.42009017153E+02  0.11129838108E+03  0.91527057677E+02 0.  0.
        -11    1    3    3    0    0  0.28302788736E+01 -0.56047491800E+02 -0.28353735368E+03  0.28903764936E+03  0.00000000000E+00 0.  1.
         12    1    3    3    0    0 -0.79149667146E+01  0.21261010524E+02 -0.33794187245E+02  0.40702878991E+02  0.00000000000E+00 0. -1.
        -11    1    4    4    0    0  0.20900966781E+02 -0.12912267688E+02  0.75138881114E+01  0.25691157697E+02  0.00000000000E+00 0.  1.
         11    1    4    4    0    0 -0.43748393098E+02  0.54425698447E+02 -0.49522905265E+02  0.85607223386E+02  0.00000000000E+00 0. -1.
          1    1    1    2  501    0  0.27932114157E+02 -0.67269494825E+01 -0.40122192572E+02  0.49348203487E+02  0.00000000000E+00 0. -1.
<scales pt_clust_5="13000.00000" pt_clust_6="13000.00000" pt_clust_7="13000.00000" pt_clust_8="13000.00000" pt_clust_9="28.73073"></scales>
<clustering>
<clus scale="   28.731">  1  9  2 -1</clus>
<clus scale="   82.423">  5  6 -1 -1</clus>
<clus scale="   89.869">  2  5  1 -1</clus>
<clus scale="   91.527">  7  8 -1 -1</clus>
<clus scale="   28.731">  1  5  2 -1</clus>
</clustering>
</event>
<event>
 9    2  0.6175212E-005  0.1281830E+03  0.7546771E-02  0.1247030E+00
          2   -1    0    0  502    0 -0.00000000000E+00  0.00000000000E+00  0.10103720309E+03  0.10103720309E+03  0.00000000000E+00 0. -1.
         21   -1    0    0  501  502  0.00000000000E+00 -0.00000000000E+00 -0.35253592305E+03  0.35253592305E+03  0.00000000000E+00 0. -1.
         24    2    1    2    0    0 -0.83764705867E+01 -0.43130268375E+02 -0.11795010147E+02  0.91717154907E+02  0.79639995795E+02 0.  0.
         23    2    1    2    0    0  0.30669740055E+02 -0.50304161657E+02 -0.56638970467E+01  0.10887056348E+03  0.91376026551E+02 0.  0.
        -13    1    3    3    0    0  0.28745521715E+02 -0.45100829355E+02 -0.32981996188E+01  0.53584213607E+02  0.00000000000E+00 0.  1.
         14    1    3    3    0    0 -0.37121992302E+02  0.19705609796E+01 -0.84968105278E+01  0.38132941300E+02  0.00000000000E+00 0. -1.
        -13    1    4    4    0    0  0.37523342645E+02  0.36209312174E+01 -0.31085292402E+02  0.48861107129E+02  0.00000000000E+00 0.  1.
         13    1    4    4    0    0 -0.68536025905E+01 -0.53925092875E+02  0.25421395356E+02  0.60009456354E+02  0.00000000000E+00 0. -1.
          1    1    1    2  501    0 -0.22293269468E+02  0.93434430033E+02 -0.23403981276E+03  0.25298540775E+03  0.00000000000E+00 0. -1.
<scales pt_clust_5="13000.00000" pt_clust_6="13000.00000" pt_clust_7="13000.00000" pt_clust_8="13000.00000" pt_clust_9="89.89605"></scales>
<clustering>
<clus scale="   79.640">  5  6 -1 -1</clus>
<clus scale="   90.956">  1  5  2 -1</clus>
<clus scale="   89.896">  2  9  1 -1</clus>
<clus scale="   91.376">  7  8 -1 -1</clus>
<clus scale="   89.896">  2  5  1 -1</clus>
</clustering>
</event>
<event>
 9    2  0.6175212E-005  0.1272285E+03  0.7546771E-02  0.1242494E+00
          2   -1    0    0  502    0 -0.00000000000E+00  0.00000000000E+00  0.13060974090E+03  0.13060974090E+03  0.00000000000E+00 0. -1.
         21   -1    0    0  501  502  0.00000000000E+00 -0.00000000000E+00 -0.23861615841E+03  0.23861615841E+03  0.00000000000E+00 0. -1.
         24    2    1    2    0    0  0.25330841105E+02 -0.59153150604E+02  0.26242376107E+02  0.10524647238E+03  0.79040564943E+02 0.  0.
         23    2    1    2    0    0 -0.23467469838E+02 -0.57253100059E+02 -0.48351095860E+02  0.11929942892E+03  0.89810275936E+02 0.  0.
        -11    1    3    3    0    0  0.33858812489E+02 -0.21826302820E+01 -0.12128449588E+02  0.36031685327E+02  0.00000000000E+00 0.  1.
         12    1    3    3    0    0 -0.85279713841E+01 -0.56970520322E+02  0.38370825695E+02  0.69214787049E+02  0.00000000000E+00 0. -1.
        -11    1    4    4    0    0  0.24171883852E+02  0.31136376574E+01  0.60388023657E+01  0.25108600965E+02  0.00000000000E+00 0.  1.
         11    1    4    4    0    0 -0.47639353690E+02 -0.60366737716E+02 -0.54389898226E+02  0.94190827958E+02  0.00000000000E+00 0. -1.
          1    1    1    2  501    0 -0.18633712673E+01  0.11640625066E+03 -0.85897697751E+02  0.14467999801E+03  0.00000000000E+00 0. -1.
<scales pt_clust_5="13000.00000" pt_clust_6="13000.00000" pt_clust_7="13000.00000" pt_clust_8="13000.00000" pt_clust_9="90.11771"></scales>
<clustering>
<clus scale="   79.041">  5  6 -1 -1</clus>
<clus scale="   89.810">  7  8 -1 -1</clus>
<clus scale="  101.922">  1  5  2 -1</clus>
<clus scale="   90.118">  2  9  1 -1</clus>
<clus scale="   90.118">  2  5  1 -1</clus>
</clustering>
</event>
<event>
 9    2  0.6175212E-005  0.1133620E+03  0.7546771E-02  0.1259137E+00
         -1   -1    0    0    0  501 -0.00000000000E+00  0.00000000000E+00  0.10836702072E+03  0.10836702072E+03  0.00000000000E+00 0.  1.
         21   -1    0    0  501  502  0.00000000000E+00 -0.00000000000E+00 -0.38150810588E+03  0.38150810588E+03  0.00000000000E+00 0.  1.
         24    2    1    2    0    0 -0.12561349669E+02 -0.54210001880E+02  0.31476454943E+02  0.10278474329E+03  0.80482447951E+02 0.  0.
         23    2    1    2    0    0 -0.39606317366E+01  0.97128613273E+02 -0.77236605697E+02  0.15510531395E+03  0.92965106549E+02 0.  0.
        -11    1    3    3    0    0  0.52339508937E+01 -0.43475793202E+02  0.55710274330E+02  0.70860239221E+02  0.00000000000E+00 0.  1.
         12    1    3    3    0    0 -0.17795300562E+02 -0.10734208678E+02 -0.24233819387E+02  0.31924504070E+02  0.00000000000E+00 0. -1.
        -13    1    4    4    0    0  0.24355206606E+02  0.10778397388E+01 -0.42718335317E+02  0.49185302679E+02  0.00000000000E+00 0. -1.
         13    1    4    4    0    0 -0.28315838343E+02  0.96050773534E+02 -0.34518270380E+02  0.10592001127E+03  0.00000000000E+00 0.  1.
         -2    1    1    2    0  502  0.16521981405E+02 -0.42918611392E+02 -0.22738093440E+03  0.23198506936E+03  0.00000000000E+00 0.  1.
<scales pt_clust_5="13000.00000" pt_clust_6="13000.00000" pt_clust_7="13000.00000" pt_clust_8="13000.00000" pt_clust_9="45.98895"></scales>
<clustering>
<clus scale="   45.989">  2  9  1 -1</clus>
<clus scale="   80.482">  5  6 -1 -1</clus>
<clus scale="   92.965">  7  8 -1 -1</clus>
<clus scale="  103.372">  1  5  2 -1</clus>
<clus scale="   45.989">  2  5  1 -1</clus>
</clustering>
</event>
<event>
 9    2  0.6175212E-005  0.2325296E+03  0.7546771E-02  0.1125709E+00
          2   -1    0    0  502    0 -0.00000000000E+00  0.00000000000E+00  0.75497313795E+03  0.75497313795E+03  0.00000000000E+00 0. -1.
         21   -1    0    0  501  502  0.00000000000E+00 -0.00000000000E+00 -0.21070722504E+03  0.21070722504E+03  0.00000000000E+00 0. -1.
         23    2    1    2    0    0 -0.18514992666E+03  0.91006068746E+02  0.43501924354E+03  0.49002083474E+03  0.91192523474E+02 0.  0.
         24    2    1    2    0    0  0.23585490410E+03 -0.11704079211E+03 -0.73412462599E+02  0.28431387231E+03  0.78223433307E+02 0.  0.
        -13    1    4    4    0    0  0.25921812461E+02  0.93275550046E+00 -0.29935940273E+02  0.39610237492E+02  0.00000000000E+00 0.  1.
         14    1    4    4    0    0  0.20993309164E+03 -0.11797354761E+03 -0.43476522326E+02  0.24470363482E+03  0.00000000000E+00 0. -1.
        -13    1    3    3    0    0 -0.59704798900E+02  0.62957251449E+02  0.25082758860E+03  0.26541054561E+03  0.00000000000E+00 0.  1.
         13    1    3    3    0    0 -0.12544512776E+03  0.28048817297E+02  0.18419165495E+03  0.22461028913E+03  0.00000000000E+00 0. -1.
          1    1    1    2  501    0 -0.50704977441E+02  0.26034723360E+02  0.18265913196E+03  0.19134565594E+03  0.00000000000E+00 0. -1.
<scales pt_clust_5="13000.00000" pt_clust_6="13000.00000" pt_clust_7="13000.00000" pt_clust_8="13000.00000" pt_clust_9="56.99829"></scales>
<clustering>
<clus scale="   56.998">  2  9  1 -1</clus>
<clus scale="   78.223">  5  6 -1 -1</clus>
<clus scale="   91.193">  7  8 -1 -1</clus>
<clus scale="  227.756">  2  5  1 -1</clus>
<clus scale="   56.998">  2  5  1 -1</clus>
</clustering>
</event>
<event>
 9    2  0.6175212E-005  0.2179983E+03  0.7546771E-02  0.1136681E+00
         -1   -1    0    0    0  501 -0.00000000000E+00  0.00000000000E+00  0.18588528776E+03  0.18588528776E+03  0.00000000000E+00 0.  1.
         21   -1    0    0  501  502  0.00000000000E+00 -0.00000000000E+00 -0.95882015312E+03  0.95882015312E+03  0.00000000000E+00 0. -1.
         23    2    1    2    0    0 -0.18996973053E+03 -0.43382338618E+02 -0.47499367496E+03  0.51984668160E+03  0.81554002314E+02 0.  0.
         24    2    1    2    0    0  0.72719226762E+02 -0.19049493438E+03 -0.28938433837E+03  0.36309650231E+03  0.80742607909E+02 0.  0.
        -11    1    4    4    0    0  0.10855267246E+02 -0.48214552561E+02 -0.13695001094E+03  0.14559459263E+03  0.00000000000E+00 0.  1.
         12    1    4    4    0    0  0.61863959516E+02 -0.14228038182E+03 -0.15243432743E+03  0.21750190968E+03  0.00000000000E+00 0. -1.
        -13    1    3    3    0    0 -0.54455867442E+02  0.24267610981E+02 -0.14337983783E+03  0.15528083056E+03  0.00000000000E+00 0.  1.
         13    1    3    3    0    0 -0.13551386309E+03 -0.67649949599E+02 -0.33161383713E+03  0.36456585104E+03  0.00000000000E+00 0. -1.
         -2    1    1    2    0  502  0.11725050377E+03  0.23387727299E+03 -0.85568520244E+01  0.26176225697E+03  0.00000000000E+00 0.  1.
<scales pt_clust_5="13000.00000" pt_clust_6="13000.00000" pt_clust_7="13000.00000" pt_clust_8="13000.00000" pt_clust_9="202.49423"></scales>
<clustering>
<clus scale="   80.743">  5  6 -1 -1</clus>
<clus scale="   81.554">  7  8 -1 -1</clus>
<clus scale="  211.238">  1  7  2 -1</clus>
<clus scale="  202.494">  2  9  1 -1</clus>
<clus scale="  202.494">  2  5  1 -1</clus>
</clustering>
</event>
<event>
 9    2  0.6175212E-005  0.1154398E+03  0.7546771E-02  0.1254496E+00
          2   -1    0    0  502    0 -0.00000000000E+00  0.00000000000E+00  0.86362931124E+03  0.86362931124E+03  0.00000000000E+00 0. -1.
         21   -1    0    0  501  502  0.00000000000E+00 -0.00000000000E+00 -0.29462864383E+02  0.29462864383E+02  0.00000000000E+00 0. -1.
         24    2    1    2    0    0 -0.70459885420E+02 -0.25249879104E+02  0.64187951791E+03  0.65114971004E+03  0.79902925603E+02 0.  0.
         23    2    1    2    0    0  0.54001535429E+02  0.12192988219E+02  0.95089550219E+02  0.14250057242E+03  0.90551398608E+02 0.  0.
        -13    1    3    3    0    0  0.17348380530E+01  0.20204825779E+02  0.67865658469E+02  0.70830729540E+02  0.00000000000E+00 0.  1.
         14    1    3    3    0    0 -0.72194723473E+02 -0.45454704883E+02  0.57401385944E+03  0.58031898050E+03  0.00000000000E+00 0. -1.
        -11    1    4    4    0    0  0.44548936704E+02  0.40702464579E+02  0.94904829486E+02  0.11246432787E+03  0.00000000000E+00 0.  1.
         11    1    4    4    0    0  0.94525987253E+01 -0.28509476360E+02  0.18472073308E+00  0.30036244551E+02  0.00000000000E+00 0. -1.
          1    1    1    2  501    0  0.16458349991E+02  0.13056890885E+02  0.97197378731E+02  0.99441893165E+02  0.00000000000E+00 0. -1.
<scales pt_clust_5="13000.00000" pt_clust_6="13000.00000" pt_clust_7="13000.00000" pt_clust_8="13000.00000" pt_clust_9="21.00857"></scales>
<clustering>
<clus scale="   21.009">  2  9  1 -1</clus>
<clus scale="   79.903">  5  6 -1 -1</clus>
<clus scale="   90.551">  7  8 -1 -1</clus>
<clus scale="  107.291">  1  5  2 -1</clus>
<clus scale="   21.009">  2  5  1 -1</clus>
</clustering>
</event>
<event>
 9    2  0.6595219E-005  0.1316205E+03  0.7546771E-02  0.1225905E+00
         21   -1    0    0  501  502  0.00000000000E+00  0.00000000000E+00  0.15340960692E+03  0.15340960692E+03  0.00000000000E+00 0.  1.
          2   -1    0    0  502    0 -0.00000000000E+00 -0.00000000000E+00 -0.47245920986E+03  0.47245920986E+03  0.00000000000E+00 0. -1.
         24    2    1    2    0    0 -0.25597907062E+02 -0.93277573107E+02  0.11201737825E+02  0.13710925050E+03  0.96527245640E+02 0.  0.
         23    2    1    2    0    0 -0.57756524953E+02  0.82766485448E+02  0.10386510463E+02  0.13791403049E+03  0.93414629038E+02 0.  0.
        -13    1    3    3    0    0  0.23460868469E+02  0.10597875299E+01  0.19401683587E+02  0.30462449424E+02  0.00000000000E+00 0.  1.
         14    1    3    3    0    0 -0.49058775531E+02 -0.94337360637E+02 -0.81999457625E+01  0.10664680107E+03  0.00000000000E+00 0. -1.
        -11    1    4    4    0    0 -0.35680094011E+02 -0.12139273961E+02 -0.85625419724E+01  0.38649038875E+02  0.00000000000E+00 0.  1.
         11    1    4    4    0    0 -0.22076430943E+02  0.94905759409E+02  0.18949052435E+02  0.99264991615E+02  0.00000000000E+00 0. -1.
          1    1    1    2  501    0  0.83354432015E+02  0.10511087659E+02 -0.34063785122E+03  0.35084553579E+03  0.00000000000E+00 0. -1.
<scales pt_clust_5="13000.00000" pt_clust_6="13000.00000" pt_clust_7="13000.00000" pt_clust_8="13000.00000" pt_clust_9="84.01459"></scales>
<clustering>
<clus scale="   84.015">  1  9  2 -1</clus>
<clus scale="   93.415">  7  8 -1 -1</clus>
<clus scale="   96.527">  5  6 -1 -1</clus>
<clus scale="  129.355">  1  7  2 -1</clus>
<clus scale="   84.015">  1  5  2 -1</clus>
</clustering>
</event>
<event>
 9    2  0.6175212E-005  0.1108736E+03  0.7546771E-02  0.1266969E+00
         21   -1    0    0  501  502  0.00000000000E+00  0.00000000000E+00  0.75489573697E+02  0.75489573697E+02  0.00000000000E+00 0. -1.
          4   -1    0    0  502    0 -0.00000000000E+00 -0.00000000000E+00 -0.28053467544E+03  0.28053467544E+03  0.00000000000E+00 0. -1.
         24    2    1    2    0    0  0.36040229069E+02 -0.41622709495E+02 -0.13908557634E+03  0.16971277846E+03  0.80164091533E+02 0.  0.
         23    2    1    2    0    0 -0.62349094571E+01  0.38340263738E+02  0.81771603849E+01  0.10634035272E+03  0.98653711258E+02 0.  0.
        -13    1    3    3    0    0  0.28496530474E+02 -0.21747094533E+02 -0.77592697870E+01  0.36676895142E+02  0.00000000000E+00 0.  1.
         14    1    3    3    0    0  0.75436985949E+01 -0.19875614962E+02 -0.13132630655E+03  0.13303588332E+03  0.00000000000E+00 0. -1.
        -11    1    4    4    0    0 -0.25700547284E+02 -0.18699808227E+02 -0.22276837655E+02  0.38813122193E+02  0.00000000000E+00 0.  1.
         11    1    4    4    0    0  0.19465637827E+02  0.57040071965E+02  0.30453998040E+02  0.67527230525E+02  0.00000000000E+00 0. -1.
          3    1    1    2  501    0 -0.29805319611E+02  0.32824457573E+01 -0.74136685795E+02  0.79971117961E+02  0.00000000000E+00 0. -1.
<scales pt_clust_5="13000.00000" pt_clust_6="13000.00000" pt_clust_7="13000.00000" pt_clust_8="13000.00000" pt_clust_9="29.98554"></scales>
<clustering>
<clus scale="   29.986">  1  9  2 -1</clus>
<clus scale="   80.164">  5  6 -1 -1</clus>
<clus scale="   94.798">  2  5  1 -1</clus>
<clus scale="   98.654">  7  8 -1 -1</clus>
<clus scale="   29.986">  1  5  2 -1</clus>
</clustering>
</event>
<event>
 9    2  0.6175212E-005  0.1340217E+03  0.7546771E-02  0.1245179E+00
         21   -1    0    0  501  502  0.00000000000E+00  0.00000000000E+00  0.21285014220E+02  0.21285014220E+02  0.00000000000E+00 0. -1.
          2   -1    0    0  502    0 -0.00000000000E+00 -0.00000000000E+00 -0.12005565117E+04  0.12005565117E+04  0.00000000000E+00 0. -1.
         24    2    1    2    0    0  0.11691197357E+02 -0.14918889736E+02 -0.28449056531E+03  0.29623809864E+03  0.80391989433E+02 0.  0.
         23    2    1    2    0    0  0.47233376139E+02 -0.74802638162E+02 -0.42655905135E+03  0.44523503989E+03  0.91952106882E+02 0.  0.
        -11    1    3    3    0    0 -0.87472531430E+01 -0.45091018273E+02 -0.16931406792E+03  0.17543365687E+03  0.00000000000E+00 0.  1.
         12    1    3    3    0    0  0.20438450499E+02  0.30172128537E+02 -0.11517649739E+03  0.12080444177E+03  0.00000000000E+00 0. -1.
        -13    1    4    4    0    0  0.14237435340E+02  0.18653953333E+02 -0.14162436318E+03  0.14355533702E+03  0.00000000000E+00 0.  1.
         13    1    4    4    0    0  0.32995940800E+02 -0.93456591494E+02 -0.28493468817E+03  0.30167970287E+03  0.00000000000E+00 0. -1.
          1    1    1    2  501    0 -0.58924573496E+02  0.89721527898E+02 -0.46822188078E+03  0.48036838735E+03  0.00000000000E+00 0. -1.
<scales pt_clust_5="13000.00000" pt_clust_6="13000.00000" pt_clust_7="13000.00000" pt_clust_8="13000.00000" pt_clust_9="97.50202"></scales>
<clustering>
<clus scale="   80.392">  5  6 -1 -1</clus>
<clus scale="   82.596">  2  5  1 -1</clus>
<clus scale="   91.952">  7  8 -1 -1</clus>
<clus scale="   97.502">  1  9  2 -1</clus>
<clus scale="   97.502">  1  5  2 -1</clus>
</clustering>
</event>
<event>
 9    2  0.6175212E-005  0.9947136E+02  0.7546771E-02  0.1286641E+00
         21   -1    0    0  501  502  0.00000000000E+00  0.00000000000E+00  0.65270353335E+02  0.65270353335E+02  0.00000000000E+00 0. -1.
         -1   -1    0    0    0  501 -0.00000000000E+00 -0.00000000000E+00 -0.25189814407E+03  0.25189814407E+03  0.00000000000E+00 0.  1.
         23    2    1    2    0    0 -0.27574445908E+02  0.25293372919E+02 -0.85029581008E+02  0.13006025961E+03  0.91024923529E+02 0.  0.
         24    2    1    2    0    0  0.56474034296E+02  0.15813981283E+02 -0.39641530331E+02  0.10733586851E+03  0.80685433558E+02 0.  0.
        -11    1    4    4    0    0 -0.52080972339E+01 -0.21986019977E+02 -0.24682307968E+02  0.33462302339E+02  0.00000000000E+00 0.  1.
         12    1    4    4    0    0  0.61682131530E+02  0.37800001260E+02 -0.14959222363E+02  0.73873566173E+02  0.00000000000E+00 0. -1.
        -11    1    3    3    0    0  0.10307201657E+02 -0.29604923730E+02 -0.22055870107E+02  0.38329509797E+02  0.00000000000E+00 0. -1.
         11    1    3    3    0    0 -0.37881647565E+02  0.54898296650E+02 -0.62973710901E+02  0.91730749817E+02  0.00000000000E+00 0.  1.
         -2    1    1    2    0  502 -0.28899588388E+02 -0.41107354203E+02 -0.61956679394E+02  0.79772369277E+02  0.00000000000E+00 0.  1.
<scales pt_clust_5="13000.00000" pt_clust_6="13000.00000" pt_clust_7="13000.00000" pt_clust_8="13000.00000" pt_clust_9="50.24941"></scales>
<clustering>
<clus scale="   50.249">  1  9  2 -1</clus>
<clus scale="   80.685">  5  6 -1 -1</clus>
<clus scale="   90.106">  1  5  2 -1</clus>
<clus scale="   91.025">  7  8 -1 -1</clus>
<clus scale="   50.249">  1  5  2 -1</clus>
</clustering>
</event>
<event>
 9    2  0.6175212E-005  0.9485830E+02  0.7546771E-02  0.1299448E+00
          4   -1    0    0  502    0 -0.00000000000E+00  0.00000000000E+00  0.11114571291E+03  0.11114571291E+03  0.00000000000E+00 0. -1.
         21   -1    0    0  501  502  0.00000000000E+00 -0.00000000000E+00 -0.14394180855E+03  0.14394180855E+03  0.00000000000E+00 0. -1.
         24    2    1    2    0    0  0.31309659347E+01 -0.30750966824E+02  0.36287256123E+02  0.91780142731E+02  0.78430891455E+02 0.  0.
         23    2    1    2    0    0 -0.24344241940E+02  0.19155885756E+01 -0.11930408665E+02  0.95868954797E+02  0.91935902931E+02 0.  0.
        -13    1    3    3    0    0  0.18871812895E+02 -0.91705675285E+01  0.55198693793E+02  0.59052014591E+02  0.00000000000E+00 0.  1.
         14    1    3    3    0    0 -0.15740846960E+02 -0.21580399296E+02 -0.18911437671E+02  0.32728128140E+02  0.00000000000E+00 0. -1.
        -11    1    4    4    0    0 -0.79117263527E+01 -0.43999087075E+02  0.31725163321E+01  0.44817183504E+02  0.00000000000E+00 0.  1.
         11    1    4    4    0    0 -0.16432515587E+02  0.45914675651E+02 -0.15102924997E+02  0.51051771293E+02  0.00000000000E+00 0. -1.
          3    1    1    2  501    0  0.21213276005E+02  0.28835378249E+02 -0.57152943098E+02  0.67438423932E+02  0.00000000000E+00 0. -1.
<scales pt_clust_5="13000.00000" pt_clust_6="13000.00000" pt_clust_7="13000.00000" pt_clust_8="13000.00000" pt_clust_9="35.79779"></scales>
<clustering>
<clus scale="   35.798">  2  9  1 -1</clus>
<clus scale="   78.431">  5  6 -1 -1</clus>
<clus scale="   81.837">  1  5  2 -1</clus>
<clus scale="   91.936">  7  8 -1 -1</clus>
<clus scale="   35.798">  2  5  1 -1</clus>
</clustering>
</event>
<event>
 9    2  0.6175212E-005  0.1022748E+03  0.7546771E-02  0.1277106E+00
         21   -1    0    0  501  502  0.00000000000E+00  0.00000000000E+00  0.15942184864E+03  0.15942184864E+03  0.00000000000E+00 0.  1.
         -1   -1    0    0    0  501 -0.00000000000E+00 -0.00000000000E+00 -0.22729145584E+03  0.22729145584E+03  0.00000000000E+00 0.  1.
         24    2    1    2    0    0 -0.28100425575E+02  0.16046313872E+02 -0.10094820089E+03  0.13637781514E+03  0.85797733617E+02 0.  0.
         23    2    1    2    0    0  0.90730221098E+02 -0.24663582909E+02 -0.55942886903E+02  0.14114953502E+03  0.89181384261E+02 0.  0.
        -13    1    3    3    0    0 -0.29653168200E+02 -0.29272675646E+02 -0.70050390529E+02  0.81506178521E+02  0.00000000000E+00 0.  1.
         14    1    3    3    0    0  0.15527426252E+01  0.45318989517E+02 -0.30897810363E+02  0.54871636623E+02  0.00000000000E+00 0. -1.
        -13    1    4    4    0    0  0.47768039145E+02 -0.58026537288E+02 -0.34092814642E+02  0.82529901271E+02  0.00000000000E+00 0.  1.
         13    1    4    4    0    0  0.42962181952E+02  0.33362954380E+02 -0.21850072261E+02  0.58619633749E+02  0.00000000000E+00 0. -1.
         -2    1    1    2    0  502 -0.62629795523E+02  0.86172690373E+01  0.89021480595E+02  0.10918595432E+03  0.00000000000E+00 0.  1.
<scales pt_clust_5="13000.00000" pt_clust_6="13000.00000" pt_clust_7="13000.00000" pt_clust_8="13000.00000" pt_clust_9="63.21984"></scales>
<clustering>
<clus scale="   63.220">  1  9  2 -1</clus>
<clus scale="   85.798">  5  6 -1 -1</clus>
<clus scale="   89.181">  7  8 -1 -1</clus>
<clus scale="   99.338">  2  5  1 -1</clus>
<clus scale="   63.220">  1  5  2 -1</clus>
</clustering>
</event>
<event>
 9    2  0.6175212E-005  0.1621036E+03  0.7546771E-02  0.1187983E+00
          2   -1    0    0  502    0 -0.00000000000E+00  0.00000000000E+00  0.16112362413E+04  0.16112362413E+04  0.00000000000E+00 0. -1.
         21   -1    0    0  501  502  0.00000000000E+00 -0.00000000000E+00 -0.11364024287E+03  0.11364024287E+03  0.00000000000E+00 0.  1.
         24    2    1    2    0    0 -0.83112173297E+02 -0.10139108732E+03  0.14541737294E+04  0.14623378378E+04  0.81381390805E+02 0.  0.
         23    2    1    2    0    0  0.12015759087E+03  0.12423542289E+03  0.74022418596E+02  0.20933530252E+03  0.92030774652E+02 0.  0.
        -13    1    3    3    0    0 -0.50063990840E+02 -0.22838761654E+02  0.29875098250E+03  0.30377649968E+03  0.00000000000E+00 0.  1.
         14    1    3    3    0    0 -0.33048182457E+02 -0.78552325666E+02  0.11554227469E+04  0.11585613382E+04  0.00000000000E+00 0. -1.
        -11    1    4    4    0    0  0.75364558405E+02  0.10274946104E+03  0.93276723240E+01  0.12776648183E+03  0.00000000000E+00 0.  1.
         11    1    4    4    0    0  0.44793032466E+02  0.21485961844E+02  0.64694746272E+02  0.81568820692E+02  0.00000000000E+00 0. -1.
          1    1    1    2  501    0 -0.37045417574E+02 -0.22844335567E+02 -0.30600149616E+02  0.53203343760E+02  0.00000000000E+00 0. -1.
<scales pt_clust_5="13000.00000" pt_clust_6="13000.00000" pt_clust_7="13000.00000" pt_clust_8="13000.00000" pt_clust_9="43.52271"></scales>
<clustering>
<clus scale="   43.523">  2  9  1 -1</clus>
<clus scale="   81.381">  5  6 -1 -1</clus>
<clus scale="   92.031">  7  8 -1 -1</clus>
<clus scale="  156.304">  1  5  2 -1</clus>
<clus scale="   43.523">  2  5  1 -1</clus>
</clustering>
</event>
<event>
 9    2  0.6175212E-005  0.9336096E+02  0.7546771E-02  0.1303962E+00
         21   -1    0    0  501  502  0.00000000000E+00  0.00000000000E+00  0.16273183417E+03  0.16273183417E+03  0.00000000000E+00 0.  1.
         -3   -1    0    0    0  501 -0.00000000000E+00 -0.00000000000E+00 -0.82568535859E+02  0.82568535859E+02  0.00000000000E+00 0.  1.
         24    2    1    2    0    0 -0.15661643987E+02  0.14049611688E+02 -0.40530353906E+01  0.80299529953E+02  0.77388039992E+02 0.  0.
         23    2    1    2    0    0  0.16323369376E+02  0.28215675185E+02  0.45537121482E+02  0.10770447184E+03  0.92000256020E+02 0.  0.
        -13    1    3    3    0    0 -0.42218815483E+02  0.15790860068E+02 -0.19956805617E+02  0.49295575186E+02  0.00000000000E+00 0.  1.
         14    1    3    3    0    0  0.26557171496E+02 -0.17412483800E+01  0.15903770226E+02  0.31003954767E+02  0.00000000000E+00 0. -1.
        -13    1    4    4    0    0  0.12376691294E+02  0.58615693173E+02  0.99404074951E+01  0.60727207039E+02  0.00000000000E+00 0.  1.
         13    1    4    4    0    0  0.39466780825E+01 -0.30400017989E+02  0.35596713987E+02  0.46977264802E+02  0.00000000000E+00 0. -1.
         -4    1    1    2    0  502 -0.66172538911E+00 -0.42265286872E+02  0.38679212220E+02  0.57296368234E+02  0.00000000000E+00 0.  1.
<scales pt_clust_5="13000.00000" pt_clust_6="13000.00000" pt_clust_7="13000.00000" pt_clust_8="13000.00000" pt_clust_9="42.27047"></scales>
<clustering>
<clus scale="   42.270">  1  9  2 -1</clus>
<clus scale="   77.388">  5  6 -1 -1</clus>
<clus scale="   79.001">  2  5  1 -1</clus>
<clus scale="   92.000">  7  8 -1 -1</clus>
<clus scale="   42.270">  1  5  2 -1</clus>
</clustering>
</event>
<event>
 9    2  0.6175212E-005  0.9624298E+02  0.7546771E-02  0.1300346E+00
         -3   -1    0    0    0  501 -0.00000000000E+00  0.00000000000E+00  0.22660690868E+03  0.22660690868E+03  0.00000000000E+00 0.  1.
         21   -1    0    0  501  502  0.00000000000E+00 -0.00000000000E+00 -0.12282484585E+03  0.12282484585E+03  0.00000000000E+00 0.  1.
         24    2    1    2    0    0 -0.63326913106E+01  0.21645351592E+02  0.18078146665E+03  0.19631406978E+03  0.73134472622E+02 0.  0.
         23    2    1    2    0    0 -0.43283823842E+01 -0.44950128487E+02 -0.47014117631E+02  0.11367293217E+03  0.93123355317E+02 0.  0.
        -11    1    3    3    0    0  0.26356570926E+02  0.22786904121E+01  0.13124114139E+03  0.13388091146E+03  0.00000000000E+00 0.  1.
         12    1    3    3    0    0 -0.32689262236E+02  0.19366661180E+02  0.49540325259E+02  0.62433158318E+02  0.00000000000E+00 0. -1.
        -11    1    4    4    0    0  0.17491416125E+02 -0.51590103308E+02 -0.64868590861E+02  0.84707865501E+02  0.00000000000E+00 0.  1.
         11    1    4    4    0    0 -0.21819798509E+02  0.66399748213E+01  0.17854473229E+02  0.28965066665E+02  0.00000000000E+00 0. -1.
         -4    1    1    2    0  502  0.10661073695E+02  0.23304776895E+02 -0.29985286184E+02  0.39444752578E+02  0.00000000000E+00 0.  1.
<scales pt_clust_5="13000.00000" pt_clust_6="13000.00000" pt_clust_7="13000.00000" pt_clust_8="13000.00000" pt_clust_9="25.62755"></scales>
<clustering>
<clus scale="   25.628">  2  9  1 -1</clus>
<clus scale="   73.134">  5  6 -1 -1</clus>
<clus scale="   77.068">  1  5  2 -1</clus>
<clus scale="   93.123">  7  8 -1 -1</clus>
<clus scale="   25.628">  2  5  1 -1</clus>
</clustering>
</event>
<event>
 9    2  0.6175212E-005  0.1816559E+03  0.7546771E-02  0.1167617E+00
          2   -1    0    0  502    0 -0.00000000000E+00  0.00000000000E+00  0.96181268033E+03  0.96181268033E+03  0.00000000000E+00 0. -1.
         21   -1    0    0  501  502  0.00000000000E+00 -0.00000000000E+00 -0.40157345298E+02  0.40157345298E+02  0.00000000000E+00 0.  1.
         23    2    1    2    0    0 -0.65047376496E+02 -0.14644563535E+03  0.51035750512E+03  0.54298908293E+03  0.93246318162E+02 0.  0.
         24    2    1    2    0    0  0.40312047369E+02  0.14652114105E+03  0.38975177837E+03  0.42617736750E+03  0.81407578844E+02 0.  0.
        -11    1    4    4    0    0 -0.10426644839E+01  0.76319216473E+02  0.10378238764E+03  0.12882738038E+03  0.00000000000E+00 0.  1.
         12    1    4    4    0    0  0.41354711853E+02  0.70201924581E+02  0.28596939073E+03  0.29734998712E+03  0.00000000000E+00 0. -1.
        -11    1    3    3    0    0 -0.18314325307E+02 -0.52122436863E+02  0.32640310512E+03  0.33104554063E+03  0.00000000000E+00 0. -1.
         11    1    3    3    0    0 -0.46733051189E+02 -0.94323198490E+02  0.18395439999E+03  0.21194354230E+03  0.00000000000E+00 0.  1.
          1    1    1    2  501    0  0.24735329127E+02 -0.75505700754E-01  0.21546051548E+02  0.32803575193E+02  0.00000000000E+00 0. -1.
<scales pt_clust_5="13000.00000" pt_clust_6="13000.00000" pt_clust_7="13000.00000" pt_clust_8="13000.00000" pt_clust_9="24.73544"></scales>
<clustering>
<clus scale="   24.735">  2  9  1 -1</clus>
<clus scale="   81.408">  5  6 -1 -1</clus>
<clus scale="   93.246">  7  8 -1 -1</clus>
<clus scale="  175.873">  2  5  1 -1</clus>
<clus scale="   24.735">  2  5  1 -1</clus>
</clustering>
</event>
<event>
 9    2  0.6175212E-005  0.9919590E+02  0.7546771E-02  0.1287484E+00
         21   -1    0    0  501  502  0.00000000000E+00  0.00000000000E+00  0.17361390133E+03  0.17361390133E+03  0.00000000000E+00 0. -1.
         -3   -1    0    0    0  501 -0.00000000000E+00 -0.00000000000E+00 -0.22629202763E+03  0.22629202763E+03  0.00000000000E+00 0.  1.
         24    2    1    2    0    0 -0.27138249730E+02  0.17971825953E+02 -0.13492674611E+03  0.16030899866E+03  0.80213945858E+02 0.  0.
         23    2    1    2    0    0  0.71418390318E+02 -0.15604807383E+01 -0.28561100225E+02  0.11914421279E+03  0.90975740828E+02 0.  0.
        -11    1    3    3    0    0 -0.52939061029E+02  0.42195639145E+01 -0.61389187703E+02  0.81172540117E+02  0.00000000000E+00 0.  1.
         12    1    3    3    0    0  0.25800811299E+02  0.13752262039E+02 -0.73537558402E+02  0.79136458542E+02  0.00000000000E+00 0. -1.
        -13    1    4    4    0    0 -0.14829507554E+02  0.16481037742E+02 -0.21277539714E+02  0.30729018787E+02  0.00000000000E+00 0.  1.
         13    1    4    4    0    0  0.86247897873E+02 -0.18041518480E+02 -0.72835605108E+01  0.88415194001E+02  0.00000000000E+00 0. -1.
         -4    1    1    2    0  502 -0.44280140589E+02 -0.16411345215E+02  0.11080972003E+03  0.12045271751E+03  0.00000000000E+00 0.  1.
<scales pt_clust_5="13000.00000" pt_clust_6="13000.00000" pt_clust_7="13000.00000" pt_clust_8="13000.00000" pt_clust_9="47.22354"></scales>
<clustering>
<clus scale="   47.224">  1  9  2 -1</clus>
<clus scale="   80.214">  5  6 -1 -1</clus>
<clus scale="   89.429">  2  5  1 -1</clus>
<clus scale="   90.976">  7  8 -1 -1</clus>
<clus scale="   47.224">  1  5  2 -1</clus>
</clustering>
</event>
<event>
 9    2  0.6175212E-005  0.1022359E+03  0.7546771E-02  0.1281625E+00
          2   -1    0    0  502    0 -0.00000000000E+00  0.00000000000E+00  0.17429408220E+03  0.17429408220E+03  0.00000000000E+00 0. -1.
         21   -1    0    0  501  502  0.00000000000E+00 -0.00000000000E+00 -0.18556364267E+03  0.18556364267E+03  0.00000000000E+00 0. -1.
         24    2    1    2    0    0 -0.74959691868E+01  0.25058348864E+02 -0.47009210209E+02  0.94882827849E+02  0.78158651308E+02 0.  0.
         23    2    1    2    0    0 -0.18152018677E+02 -0.80000269376E+02 -0.71564307240E+02  0.14172485403E+03  0.90746599372E+02 0.  0.
        -11    1    3    3    0    0  0.24191953075E+02 -0.17136236279E+02 -0.16447812164E+02  0.33903269937E+02  0.00000000000E+00 0.  1.
         12    1    3    3    0    0 -0.31687922262E+02  0.42194585143E+02 -0.30561398045E+02  0.60979557913E+02  0.00000000000E+00 0. -1.
        -11    1    4    4    0    0 -0.46104856497E+02 -0.38005055826E+02 -0.68911367620E+02  0.91207558065E+02  0.00000000000E+00 0.  1.
         11    1    4    4    0    0  0.27952837820E+02 -0.41995213550E+02 -0.26529396199E+01  0.50517295968E+02  0.00000000000E+00 0. -1.
          1    1    1    2  501    0  0.25647987864E+02  0.54941920512E+02  0.10730395698E+03  0.12325004298E+03  0.00000000000E+00 0. -1.
<scales pt_clust_5="13000.00000" pt_clust_6="13000.00000" pt_clust_7="13000.00000" pt_clust_8="13000.00000" pt_clust_9="60.63363"></scales>
<clustering>
<clus scale="   60.634">  2  9  1 -1</clus>
<clus scale="   78.159">  5  6 -1 -1</clus>
<clus scale="   90.747">  7  8 -1 -1</clus>
<clus scale="   91.247">  1  5  2 -1</clus>
<clus scale="   60.634">  2  5  1 -1</clus>
</clustering>
</event>
<event>
 9    2  0.6175212E-005  0.1791969E+03  0.7546771E-02  0.1170122E+00
          2   -1    0    0  502    0 -0.00000000000E+00  0.00000000000E+00  0.57420243668E+03  0.57420243668E+03  0.00000000000E+00 0. -1.
         21   -1    0    0  501  502  0.00000000000E+00 -0.00000000000E+00 -0.13571416654E+03  0.13571416654E+03  0.00000000000E+00 0. -1.
         24    2    1    2    0    0 -0.13839799720E+03 -0.84462745277E+02  0.42413734332E+03  0.46097533963E+03  0.79484695234E+02 0.  0.
         23    2    1    2    0    0  0.62356356893E+02  0.10536200113E+03 -0.33233506687E+02  0.15683595286E+03  0.92214877410E+02 0.  0.
        -13    1    3    3    0    0 -0.37636260643E+02 -0.49784767764E+02  0.84738473167E+02  0.10524077181E+03  0.00000000000E+00 0.  1.
         14    1    3    3    0    0 -0.10076173655E+03 -0.34677977514E+02  0.33939887015E+03  0.35573456782E+03  0.00000000000E+00 0. -1.
        -11    1    4    4    0    0  0.20699143838E+02  0.44910379223E+02 -0.60840089138E+02  0.78402252288E+02  0.00000000000E+00 0. -1.
         11    1    4    4    0    0  0.41657213056E+02  0.60451621906E+02  0.27606582451E+02  0.78433700571E+02  0.00000000000E+00 0.  1.
          1    1    1    2  501    0  0.76041640302E+02 -0.20899255852E+02  0.47584433506E+02  0.92105310743E+02  0.00000000000E+00 0. -1.
<scales pt_clust_5="13000.00000" pt_clust_6="13000.00000" pt_clust_7="13000.00000" pt_clust_8="13000.00000" pt_clust_9="78.86133"></scales>
<clustering>
<clus scale="   78.861">  2  9  1 -1</clus>
<clus scale="   79.485">  5  6 -1 -1</clus>
<clus scale="   92.215">  7  8 -1 -1</clus>
<clus scale="  172.991">  1  5  2 -1</clus>
<clus scale="   78.861">  2  5  1 -1</clus>
</clustering>
</event>
<event>
 9    2  0.9815922E-005  0.9515847E+02  0.7546771E-02  0.1297604E+00
         21   -1    0    0  501  502  0.00000000000E+00  0.00000000000E+00  0.18837474524E+03  0.18837474524E+03  0.00000000000E+00 0. -1.
          2   -1    0    0  502    0 -0.00000000000E+00 -0.00000000000E+00 -0.62556480179E+03  0.62556480179E+03  0.00000000000E+00 0. -1.
         24    2    1    2    0    0 -0.10192028464E+02  0.17553042060E+02 -0.44477830805E+03  0.45238887333E+03  0.80099704614E+02 0.  0.
         23    2    1    2    0    0  0.27414951888E+02 -0.32898635243E+02 -0.16162708438E+03  0.19077027021E+03  0.91848145334E+02 0.  0.
        -13    1    3    3    0    0  0.90484340759E+01 -0.21732189621E+02 -0.50797288961E+02  0.55986844800E+02  0.00000000000E+00 0.  1.
         14    1    3    3    0    0 -0.19240462540E+02  0.39285231681E+02 -0.39398101908E+03  0.39640202853E+03  0.00000000000E+00 0. -1.
        -11    1    4    4    0    0  0.51017264670E+02 -0.29751623512E+02 -0.52322644465E+02  0.78902341663E+02  0.00000000000E+00 0.  1.
         11    1    4    4    0    0 -0.23602312782E+02 -0.31470117304E+01 -0.10930443991E+03  0.11186792854E+03  0.00000000000E+00 0. -1.
          1    1    1    2  501    0 -0.17222923424E+02  0.15345593182E+02  0.16921533587E+03  0.17078040349E+03  0.00000000000E+00 0. -1.
<scales pt_clust_5="13000.00000" pt_clust_6="13000.00000" pt_clust_7="13000.00000" pt_clust_8="13000.00000" pt_clust_9="23.06765"></scales>
<clustering>
<clus scale="   23.068">  1  9  2 -1</clus>
<clus scale="   80.100">  5  6 -1 -1</clus>
<clus scale="   83.875">  2  5  1 -1</clus>
<clus scale="   91.848">  7  8 -1 -1</clus>
<clus scale="   23.068">  1  5  2 -1</clus>
</clustering>
</event>
<event>
 9    2  0.6175212E-005  0.1445149E+03  0.7546771E-02  0.1212443E+00
          2   -1    0    0  502    0 -0.00000000000E+00  0.00000000000E+00  0.13484475545E+03  0.13484475545E+03  0.00000000000E+00 0. -1.
         21   -1    0    0  501  502  0.00000000000E+00 -0.00000000000E+00 -0.28164665006E+03  0.28164665006E+03  0.00000000000E+00 0. -1.
         23    2    1    2    0    0 -0.12065510480E+02  0.91905319384E+02  0.16771627351E+02  0.13897336053E+03  0.10217701884E+03 0.  0.
         24    2    1    2    0    0  0.69647585355E+02 -0.10717834437E+03 -0.69043571923E+02  0.16578232064E+03  0.79867260904E+02 0.  0.
        -13    1    4    4    0    0  0.34937488010E+02  0.23559413479E+01 -0.23561643051E+02  0.42205799973E+02  0.00000000000E+00 0.  1.
         14    1    4    4    0    0  0.34710097345E+02 -0.10953428572E+03 -0.45481928872E+02  0.12357652067E+03  0.00000000000E+00 0. -1.
        -11    1    3    3    0    0  0.46761505245E+00  0.11026663176E+03 -0.13752742465E+01  0.11027619926E+03  0.00000000000E+00 0. -1.
         11    1    3    3    0    0 -0.12533125532E+02 -0.18361312373E+02  0.18146901598E+02  0.28697161275E+02  0.00000000000E+00 0.  1.
          1    1    1    2  501    0 -0.57582074874E+02  0.15273024988E+02 -0.94529950042E+02  0.11173572434E+03  0.00000000000E+00 0. -1.
<scales pt_clust_5="13000.00000" pt_clust_6="13000.00000" pt_clust_7="13000.00000" pt_clust_8="13000.00000" pt_clust_9="59.57315"></scales>
<clustering>
<clus scale="   59.573">  2  9  1 -1</clus>
<clus scale="   79.867">  5  6 -1 -1</clus>
<clus scale="  102.177">  7  8 -1 -1</clus>
<clus scale="  129.704">  2  5  1 -1</clus>
<clus scale="   59.573">  2  5  1 -1</clus>
</clustering>
</event>
<event>
 9    2  0.6175212E-005  0.1263027E+03  0.7546771E-02  0.1237569E+00
         -3   -1    0    0    0  501 -0.00000000000E+00  0.00000000000E+00  0.20103535522E+03  0.20103535522E+03  0.00000000000E+00 0.  1.
         21   -1    0    0  501  502  0.00000000000E+00 -0.00000000000E+00 -0.13376282460E+03  0.13376282460E+03  0.00000000000E+00 0. -1.
         24    2    1    2    0    0 -0.44690418658E+02  0.54890525817E+02  0.17674329034E+02  0.10905306690E+03  0.81055451071E+02 0.  0.
         23    2    1    2    0    0 -0.29333813724E+01 -0.10987445605E+03  0.21095335797E+02  0.14761911039E+03  0.96256884130E+02 0.  0.
        -13    1    3    3    0    0 -0.21256734445E+02  0.70036709518E+02  0.29283163631E+02  0.78832056370E+02  0.00000000000E+00 0.  1.
         14    1    3    3    0    0 -0.23433684213E+02 -0.15146183701E+02 -0.11608834597E+02  0.30221010526E+02  0.00000000000E+00 0. -1.
        -11    1    4    4    0    0  0.12836738591E+02 -0.16035017611E+02  0.45035451387E+02  0.49498439663E+02  0.00000000000E+00 0.  1.
         11    1    4    4    0    0 -0.15770119963E+02 -0.93839438437E+02 -0.23940115590E+02  0.98120670729E+02  0.00000000000E+00 0. -1.
         -4    1    1    2    0  502  0.47623800031E+02  0.54983930231E+02  0.28502865783E+02  0.78126002528E+02  0.00000000000E+00 0.  1.
<scales pt_clust_5="13000.00000" pt_clust_6="13000.00000" pt_clust_7="13000.00000" pt_clust_8="13000.00000" pt_clust_9="72.74108"></scales>
<clustering>
<clus scale="   72.741">  2  9  1 -1</clus>
<clus scale="   81.055">  5  6 -1 -1</clus>
<clus scale="   96.257">  7  8 -1 -1</clus>
<clus scale="  115.139">  1  5  2 -1</clus>
<clus scale="   72.741">  2  5  1 -1</clus>
</clustering>
</event>
<event>
 9    2  0.6175212E-005  0.1190885E+03  0.7546771E-02  0.1251161E+00
         -1   -1    0    0    0  501 -0.00000000000E+00  0.00000000000E+00  0.12925676530E+03  0.12925676530E+03  0.00000000000E+00 0.  1.
         21   -1    0    0  501  502  0.00000000000E+00 -0.00000000000E+00 -0.28136850126E+03  0.28136850126E+03  0.00000000000E+00 0.  1.
         24    2    1    2    0    0  0.67536728100E+01 -0.84640052670E+02  0.78015583228E+02  0.13521773485E+03  0.70624740562E+02 0.  0.
         23    2    1    2    0    0  0.60776362567E+00  0.29933393502E+02 -0.15523928337E+03  0.18237405810E+03  0.90910310435E+02 0.  0.
        -13    1    3    3    0    0  0.21577845904E+02 -0.91541821139E+02  0.67721290210E+02  0.11589513190E+03  0.00000000000E+00 0.  1.
         14    1    3    3    0    0 -0.14824173094E+02  0.69017684685E+01  0.10294293018E+02  0.19322602947E+02  0.00000000000E+00 0. -1.
        -13    1    4    4    0    0 -0.42573231983E+01  0.52918425886E+02 -0.44807783860E+02  0.69471016213E+02  0.00000000000E+00 0. -1.
         13    1    4    4    0    0  0.48650868240E+01 -0.22985032385E+02 -0.11043149951E+03  0.11290304188E+03  0.00000000000E+00 0.  1.
         -2    1    1    2    0  502 -0.73614364357E+01  0.54706659168E+02 -0.74888035825E+02  0.93033473618E+02  0.00000000000E+00 0.  1.
<scales pt_clust_5="13000.00000" pt_clust_6="13000.00000" pt_clust_7="13000.00000" pt_clust_8="13000.00000" pt_clust_9="55.19972"></scales>
<clustering>
<clus scale="   55.200">  2  9  1 -1</clus>
<clus scale="   70.625">  5  6 -1 -1</clus>
<clus scale="   90.910">  7  8 -1 -1</clus>
<clus scale="  104.428">  1  5  2 -1</clus>
<clus scale="   55.200">  2  5  1 -1</clus>
</clustering>
</event>
<event>
 9    2  0.6175212E-005  0.2702362E+03  0.7546771E-02  0.1143304E+00
          2   -1    0    0  502    0 -0.00000000000E+00  0.00000000000E+00  0.30237646910E+03  0.30237646910E+03  0.00000000000E+00 0. -1.
         21   -1    0    0  501  502  0.00000000000E+00 -0.00000000000E+00 -0.47316263605E+03  0.47316263605E+03  0.00000000000E+00 0. -1.
         23    2    1    2    0    0 -0.72268024948E+01 -0.34924883140E+02 -0.21371231654E+03  0.23368089010E+03  0.87531880024E+02 0.  0.
         24    2    1    2    0    0  0.73130342765E+02  0.26988880689E+03  0.60163167846E+02  0.29721881331E+03  0.80817084211E+02 0.  0.
        -13    1    4    4    0    0  0.24988129218E+02  0.22482279423E+02  0.26767079248E+02  0.42969012339E+02  0.00000000000E+00 0.  1.
         14    1    4    4    0    0  0.48142213547E+02  0.24740652747E+03  0.33396088598E+02  0.25424980097E+03  0.00000000000E+00 0. -1.
        -13    1    3    3    0    0 -0.34201622276E+02 -0.46189089736E+02 -0.18053507631E+03  0.18946265267E+03  0.00000000000E+00 0. -1.
         13    1    3    3    0    0  0.26974819781E+02  0.11264206595E+02 -0.33177240224E+02  0.44218237429E+02  0.00000000000E+00 0.  1.
          1    1    1    2  501    0 -0.65903540270E+02 -0.23496392375E+03 -0.17237018262E+02  0.24463940174E+03  0.00000000000E+00 0. -1.
<scales pt_clust_5="13000.00000" pt_clust_6="13000.00000" pt_clust_7="13000.00000" pt_clust_8="13000.00000" pt_clust_9="257.86858"></scales>
<clustering>
<clus scale="   80.817">  5  6 -1 -1</clus>
<clus scale="   87.532">  7  8 -1 -1</clus>
<clus scale="   94.519">  1  7  2 -1</clus>
<clus scale="  257.869">  2  9  1 -1</clus>
<clus scale="  257.869">  2  5  1 -1</clus>
</clustering>
</event>
<event>
 9    2  0.6175212E-005  0.1299918E+03  0.7546771E-02  0.1241955E+00
          2   -1    0    0  502    0 -0.00000000000E+00  0.00000000000E+00  0.19765919523E+03  0.19765919523E+03  0.00000000000E+00 0. -1.
         21   -1    0    0  501  502  0.00000000000E+00 -0.00000000000E+00 -0.23895008583E+03  0.23895008583E+03  0.00000000000E+00 0. -1.
         23    2    1    2    0    0 -0.19921466469E+02  0.18357205277E+02 -0.36160703974E+02  0.10315259727E+03  0.92730847083E+02 0.  0.
         24    2    1    2    0    0  0.45742221584E+02  0.82069924386E+02  0.11911301357E+03  0.17162747579E+03  0.80251212586E+02 0.  0.
        -13    1    4    4    0    0  0.40339845278E+02  0.67157425672E+02  0.34605491304E+02  0.85644398348E+02  0.00000000000E+00 0.  1.
         14    1    4    4    0    0  0.54023763062E+01  0.14912498713E+02  0.84507522264E+02  0.85983077445E+02  0.00000000000E+00 0. -1.
        -11    1    3    3    0    0 -0.73580405607E+01 -0.37971550887E+02 -0.17905583269E+02  0.42621465834E+02  0.00000000000E+00 0.  1.
         11    1    3    3    0    0 -0.12563425909E+02  0.56328756164E+02 -0.18255120705E+02  0.60531131440E+02  0.00000000000E+00 0. -1.
          1    1    1    2  501    0 -0.25820755115E+02 -0.10042712966E+03 -0.12424320019E+03  0.16182920800E+03  0.00000000000E+00 0. -1.
<scales pt_clust_5="13000.00000" pt_clust_6="13000.00000" pt_clust_7="13000.00000" pt_clust_8="13000.00000" pt_clust_9="102.26248"></scales>
<clustering>
<clus scale="   80.251">  5  6 -1 -1</clus>
<clus scale="   92.731">  7  8 -1 -1</clus>
<clus scale="   96.607">  1  7  2 -1</clus>
<clus scale="  102.262">  2  9  1 -1</clus>
<clus scale="  102.262">  2  5  1 -1</clus>
</clustering>
</event>
<event>
 9    2  0.6175212E-005  0.1045617E+03  0.7546771E-02  0.1275514E+00
         -1   -1    0    0    0  501 -0.00000000000E+00  0.00000000000E+00  0.35573195774E+03  0.35573195774E+03  0.00000000000E+00 0.  1.
         21   -1    0    0  501  502  0.00000000000E+00 -0.00000000000E+00 -0.10269922228E+03  0.10269922228E+03  0.00000000000E+00 0.  1.
         24    2    1    2    0    0  0.52900393313E+02  0.89312017504E+01  0.27557042096E+03  0.29215097052E+03  0.80838819198E+02 0.  0.
         23    2    1    2    0    0 -0.37917179996E+02  0.42442782202E+02 -0.31838510797E+02  0.11196365347E+03  0.91011354391E+02 0.  0.
        -13    1    3    3    0    0  0.54285889960E+02 -0.13165749544E+02  0.25773947728E+03  0.26372321278E+03  0.00000000000E+00 0.  1.
         14    1    3    3    0    0 -0.13854966474E+01  0.22096951294E+02  0.17830943675E+02  0.28427757734E+02  0.00000000000E+00 0. -1.
        -11    1    4    4    0    0 -0.60024759133E+02  0.54720962103E+02 -0.30077307190E+02  0.86614085519E+02  0.00000000000E+00 0.  1.
         11    1    4    4    0    0  0.22107579137E+02 -0.12278179902E+02 -0.17612036065E+01  0.25349567948E+02  0.00000000000E+00 0. -1.
         -2    1    1    2    0  502 -0.14983213316E+02 -0.51373983952E+02  0.93008252973E+01  0.54316556036E+02  0.00000000000E+00 0.  1.
<scales pt_clust_5="13000.00000" pt_clust_6="13000.00000" pt_clust_7="13000.00000" pt_clust_8="13000.00000" pt_clust_9="53.51432"></scales>
<clustering>
<clus scale="   53.514">  2  9  1 -1</clus>
<clus scale="   80.839">  5  6 -1 -1</clus>
<clus scale="   91.011">  7  8 -1 -1</clus>
<clus scale="   95.838">  1  5  2 -1</clus>
<clus scale="   53.514">  2  5  1 -1</clus>
</clustering>
</event>
<event>
 9    2  0.6175212E-005  0.1521572E+03  0.7546771E-02  0.1201676E+00
          2   -1    0    0  502    0 -0.00000000000E+00  0.00000000000E+00  0.35526550756E+03  0.35526550756E+03  0.00000000000E+00 0. -1.
         21   -1    0    0  501  502  0.00000000000E+00 -0.00000000000E+00 -0.19434517509E+03  0.19434517509E+03  0.00000000000E+00 0. -1.
         24    2    1    2    0    0 -0.51260648357E+02  0.10658330377E+03  0.28900794846E+03  0.32235897095E+03  0.80012856275E+02 0.  0.
         23    2    1    2    0    0  0.62883244720E+02 -0.72917907061E+02 -0.61364642368E+02  0.15161839304E+03  0.99755672211E+02 0.  0.
        -11    1    3    3    0    0 -0.44197666122E+02  0.24847919741E+02  0.57075959364E+02  0.76344730948E+02  0.00000000000E+00 0.  1.
         12    1    3    3    0    0 -0.70629822353E+01  0.81735384024E+02  0.23193198909E+03  0.24601424000E+03  0.00000000000E+00 0. -1.
        -11    1    4    4    0    0 -0.14230377132E+02 -0.16615578359E+02  0.17313003023E+02  0.27898407682E+02  0.00000000000E+00 0.  1.
         11    1    4    4    0    0  0.77113621852E+02 -0.56302328702E+02 -0.78677645391E+02  0.12371998536E+03  0.00000000000E+00 0. -1.
          1    1    1    2  501    0 -0.11622596363E+02 -0.33665396705E+02 -0.66722973623E+02  0.75633318654E+02  0.00000000000E+00 0. -1.
<scales pt_clust_5="13000.00000" pt_clust_6="13000.00000" pt_clust_7="13000.00000" pt_clust_8="13000.00000" pt_clust_9="35.61522"></scales>
<clustering>
<clus scale="   35.615">  2  9  1 -1</clus>
<clus scale="   80.013">  5  6 -1 -1</clus>
<clus scale="   99.756">  7  8 -1 -1</clus>
<clus scale="  140.010">  1  5  2 -1</clus>
<clus scale="   35.615">  2  5  1 -1</clus>
</clustering>
</event>
<event>
 9    2  0.6175212E-005  0.1085078E+03  0.7546771E-02  0.1268996E+00
         21   -1    0    0  501  502  0.00000000000E+00  0.00000000000E+00  0.10940611896E+03  0.10940611896E+03  0.00000000000E+00 0. -1.
          2   -1    0    0  502    0 -0.00000000000E+00 -0.00000000000E+00 -0.25630711905E+03  0.25630711905E+03  0.00000000000E+00 0. -1.
         24    2    1    2    0    0  0.43823732382E+02 -0.44499855057E+02 -0.17767457326E+03  0.20538957295E+03  0.81950387860E+02 0.  0.
         23    2    1    2    0    0 -0.78344338328E+00  0.36556321475E+01  0.33687229369E+02  0.10091654079E+03  0.95054412589E+02 0.  0.
        -13    1    3    3    0    0  0.18578556060E+01 -0.45024141116E+02 -0.36142540749E+02  0.57765977552E+02  0.00000000000E+00 0.  1.
         14    1    3    3    0    0  0.41965876776E+02  0.52428605914E+00 -0.14153203251E+03  0.14762359539E+03  0.00000000000E+00 0. -1.
        -13    1    4    4    0    0  0.65601807154E+01  0.41654774993E+02  0.43918201407E+02  0.60884847586E+02  0.00000000000E+00 0. -1.
         13    1    4    4    0    0 -0.73436240986E+01 -0.37999142846E+02 -0.10230972039E+02  0.40031693204E+02  0.00000000000E+00 0.  1.
          1    1    1    2  501    0 -0.43040288999E+02  0.40844222909E+02 -0.29136561940E+01  0.59407124275E+02  0.00000000000E+00 0. -1.
<scales pt_clust_5="13000.00000" pt_clust_6="13000.00000" pt_clust_7="13000.00000" pt_clust_8="13000.00000" pt_clust_9="59.33563"></scales>
<clustering>
<clus scale="   59.336">  1  9  2 -1</clus>
<clus scale="   81.950">  5  6 -1 -1</clus>
<clus scale="   95.054">  7  8 -1 -1</clus>
<clus scale="   97.234">  2  5  1 -1</clus>
<clus scale="   59.336">  1  5  2 -1</clus>
</clustering>
</event>
<event>
 9    2  0.6175212E-005  0.1279821E+03  0.7546771E-02  0.1240925E+00
          2   -1    0    0  502    0 -0.00000000000E+00  0.00000000000E+00  0.10409385967E+03  0.10409385967E+03  0.00000000000E+00 0. -1.
         21   -1    0    0  501  502  0.00000000000E+00 -0.00000000000E+00 -0.25778183038E+03  0.25778183038E+03  0.00000000000E+00 0.  1.
         24    2    1    2    0    0 -0.35033094225E+02  0.59567305998E+02  0.18406233234E+02  0.10749100738E+03  0.80249271717E+02 0.  0.
         23    2    1    2    0    0  0.12430072316E+02 -0.57301210236E+02 -0.57219025467E+02  0.13728498830E+03  0.11015995527E+03 0.  0.
        -13    1    3    3    0    0 -0.31619396288E+02  0.61252223730E+02  0.43893748964E+02  0.81720758266E+02  0.00000000000E+00 0.  1.
         14    1    3    3    0    0 -0.34136979367E+01 -0.16849177320E+01 -0.25487515730E+02  0.25770249115E+02  0.00000000000E+00 0. -1.
        -13    1    4    4    0    0 -0.43618938748E+02 -0.49565791080E+02 -0.17980354380E+02  0.68430056309E+02  0.00000000000E+00 0.  1.
         13    1    4    4    0    0  0.56049011064E+02 -0.77354191568E+01 -0.39238671087E+02  0.68854931991E+02  0.00000000000E+00 0. -1.
          1    1    1    2  501    0  0.22603021909E+02 -0.22660957618E+01 -0.11487517848E+03  0.11709969436E+03  0.00000000000E+00 0. -1.
<scales pt_clust_5="13000.00000" pt_clust_6="13000.00000" pt_clust_7="13000.00000" pt_clust_8="13000.00000" pt_clust_9="22.71633"></scales>
<clustering>
<clus scale="   22.716">  2  9  1 -1</clus>
<clus scale="   80.249">  5  6 -1 -1</clus>
<clus scale="  103.364">  1  5  2 -1</clus>
<clus scale="  110.160">  7  8 -1 -1</clus>
<clus scale="   22.716">  2  5  1 -1</clus>
</clustering>
</event>
<event>
 9    2  0.9150256E-005  0.3264841E+03  0.7546771E-02  0.1122524E+00
          4   -1    0    0  502    0 -0.00000000000E+00  0.00000000000E+00  0.15235027861E+04  0.15235027861E+04  0.00000000000E+00 0. -1.
         21   -1    0    0  501  502  0.00000000000E+00 -0.00000000000E+00 -0.17656296648E+03  0.17656296648E+03  0.00000000000E+00 0. -1.
         24    2    1    2    0    0 -0.34172515593E+02 -0.21083550241E+02  0.11150796717E+03  0.14270515146E+03  0.79488719945E+02 0.  0.
         23    2    1    2    0    0 -0.17032682533E+03 -0.25735107711E+03  0.53701830807E+02  0.32616944367E+03  0.90894526989E+02 0.  0.
        -11    1    3    3    0    0 -0.59364733551E+01  0.29911578146E+02  0.33137773537E+02  0.45033945620E+02  0.00000000000E+00 0.  1.
         12    1    3    3    0    0 -0.28236042238E+02 -0.50995128387E+02  0.78370193631E+02  0.97671205840E+02  0.00000000000E+00 0. -1.
        -11    1    4    4    0    0 -0.26288862329E+02 -0.54648930754E+02  0.48161323253E+02  0.77441093565E+02  0.00000000000E+00 0.  1.
         11    1    4    4    0    0 -0.14403796300E+03 -0.20270214635E+03  0.55405075541E+01  0.24872835010E+03  0.00000000000E+00 0. -1.
          3    1    1    2  501    0  0.20449934092E+03  0.27843462735E+03  0.11817300216E+04  0.12311911574E+04  0.00000000000E+00 0. -1.
<scales pt_clust_5="13000.00000" pt_clust_6="13000.00000" pt_clust_7="13000.00000" pt_clust_8="13000.00000" pt_clust_9="313.57640"></scales>
<clustering>
<clus scale="   79.489">  5  6 -1 -1</clus>
<clus scale="   89.055">  1  5  2 -1</clus>
<clus scale="   90.895">  7  8 -1 -1</clus>
<clus scale="  313.576">  2  9  1 -1</clus>
<clus scale="  313.576">  2  5  1 -1</clus>
</clustering>
</event>
<event>
 9    2  0.6175212E-005  0.1484319E+03  0.7546771E-02  0.1214629E+00
          2   -1    0    0  502    0 -0.00000000000E+00  0.00000000000E+00  0.75133965692E+03  0.75133965692E+03  0.00000000000E+00 0. -1.
         21   -1    0    0  501  502  0.00000000000E+00 -0.00000000000E+00 -0.12414397790E+03  0.12414397790E+03  0.00000000000E+00 0. -1.
         23    2    1    2    0    0  0.60863197819E+02 -0.40748593824E+02 -0.58985103204E+02  0.12860083663E+03  0.87716338466E+02 0.  0.
         24    2    1    2    0    0  0.63378783417E+01  0.14491305021E+03  0.46683044246E+03  0.49492885366E+03  0.77355978123E+02 0.  0.
        -13    1    4    4    0    0 -0.21945299880E+02  0.30000702583E+02  0.54625347631E+02  0.66072437113E+02  0.00000000000E+00 0.  1.
         14    1    4    4    0    0  0.28283178221E+02  0.11491234763E+03  0.41220509483E+03  0.42885641655E+03  0.00000000000E+00 0. -1.
        -13    1    3    3    0    0 -0.21400149423E+02 -0.19715841250E+02 -0.11279383525E+02  0.31207455587E+02  0.00000000000E+00 0.  1.
         13    1    3    3    0    0  0.82263347242E+02 -0.21032752575E+02 -0.47705719679E+02  0.97393381040E+02  0.00000000000E+00 0. -1.
          1    1    1    2  501    0 -0.67201076160E+02 -0.10416445639E+03  0.21935033976E+03  0.25195394453E+03  0.00000000000E+00 0. -1.
<scales pt_clust_5="13000.00000" pt_clust_6="13000.00000" pt_clust_7="13000.00000" pt_clust_8="13000.00000" pt_clust_9="126.68106"></scales>
<clustering>
<clus scale="   77.356">  5  6 -1 -1</clus>
<clus scale="   87.716">  7  8 -1 -1</clus>
<clus scale="  114.276">  1  7  2 -1</clus>
<clus scale="  126.681">  2  9  1 -1</clus>
<clus scale="  126.681">  2  5  1 -1</clus>
</clustering>
</event>
<event>
 9    2  0.6175212E-005  0.1036042E+03  0.7546771E-02  0.1277269E+00
          2   -1    0    0  502    0 -0.00000000000E+00  0.00000000000E+00  0.40024965089E+03  0.40024965089E+03  0.00000000000E+00 0. -1.
         21   -1    0    0  501  502  0.00000000000E+00 -0.00000000000E+00 -0.12581158137E+03  0.12581158137E+03  0.00000000000E+00 0. -1.
         24    2    1    2    0    0  0.48437532656E+02  0.20808659793E+02  0.27745365361E+03  0.29348941135E+03  0.79851798873E+02 0.  0.
         23    2    1    2    0    0 -0.18939754799E+02 -0.57239141701E+02 -0.85453378181E+02  0.13773886881E+03  0.89636390397E+02 0.  0.
        -13    1    3    3    0    0 -0.38467044747E+01  0.37978810500E+02  0.82245292235E+02  0.90672351228E+02  0.00000000000E+00 0.  1.
         14    1    3    3    0    0  0.52284237131E+02 -0.17170150707E+02  0.19520836137E+03  0.20281706013E+03  0.00000000000E+00 0. -1.
        -11    1    4    4    0    0  0.28196922687E+02  0.60784563433E+01 -0.27068288437E+02  0.39556368886E+02  0.00000000000E+00 0.  1.
         11    1    4    4    0    0 -0.47136677486E+02 -0.63317598045E+02 -0.58385089744E+02  0.98182499922E+02  0.00000000000E+00 0. -1.
          1    1    1    2  501    0 -0.29497777857E+02  0.36430481909E+02  0.82437794084E+02  0.94832952100E+02  0.00000000000E+00 0. -1.
<scales pt_clust_5="13000.00000" pt_clust_6="13000.00000" pt_clust_7="13000.00000" pt_clust_8="13000.00000" pt_clust_9="46.87538"></scales>
<clustering>
<clus scale="   46.875">  2  9  1 -1</clus>
<clus scale="   79.852">  5  6 -1 -1</clus>
<clus scale="   89.636">  7  8 -1 -1</clus>
<clus scale="   95.265">  1  5  2 -1</clus>
<clus scale="   46.875">  2  5  1 -1</clus>
</clustering>
</event>
<event>
 9    2  0.6175212E-005  0.1516961E+03  0.7546771E-02  0.1200231E+00
         -3   -1    0    0    0  501 -0.00000000000E+00  0.00000000000E+00  0.31797787605E+03  0.31797787605E+03  0.00000000000E+00 0.  1.
         21   -1    0    0  501  502  0.00000000000E+00 -0.00000000000E+00 -0.21346590324E+03  0.21346590324E+03  0.00000000000E+00 0.  1.
         24    2    1    2    0    0 -0.60830237210E+01 -0.12413780581E+03  0.18726718721E+03  0.23883002229E+03  0.80768695250E+02 0.  0.
         23    2    1    2    0    0 -0.91395164351E+02  0.10379670562E+03 -0.97223246095E+02  0.19199029329E+03  0.91000444911E+02 0.  0.
        -13    1    3    3    0    0 -0.21139704891E+02 -0.11136696135E+03  0.18748065653E+03  0.21908556268E+03  0.00000000000E+00 0.  1.
         14    1    3    3    0    0  0.15056681170E+02 -0.12770844462E+02 -0.21346931705E+00  0.19744459610E+02  0.00000000000E+00 0. -1.
        -13    1    4    4    0    0 -0.40199580043E+02 -0.67235085828E+01 -0.41090891397E+02  0.57876360970E+02  0.00000000000E+00 0. -1.
         13    1    4    4    0    0 -0.51195584308E+02  0.11052021420E+03 -0.56132354697E+02  0.13411393232E+03  0.00000000000E+00 0.  1.
         -4    1    1    2    0  502  0.97478188072E+02  0.20341100191E+02  0.14468031698E+02  0.10062346370E+03  0.00000000000E+00 0.  1.
<scales pt_clust_5="13000.00000" pt_clust_6="13000.00000" pt_clust_7="13000.00000" pt_clust_8="13000.00000" pt_clust_9="99.57790"></scales>
<clustering>
<clus scale="   80.769">  5  6 -1 -1</clus>
<clus scale="   91.000">  7  8 -1 -1</clus>
<clus scale="   99.578">  2  9  1 -1</clus>
<clus scale="  145.788">  1  5  2 -1</clus>
<clus scale="   99.578">  2  5  1 -1</clus>
</clustering>
</event>
<event>
 9    2  0.6175212E-005  0.1305783E+03  0.7546771E-02  0.1248835E+00
          2   -1    0    0  502    0 -0.00000000000E+00  0.00000000000E+00  0.58955495073E+03  0.58955495073E+03  0.00000000000E+00 0. -1.
         21   -1    0    0  501  502  0.00000000000E+00 -0.00000000000E+00 -0.57599110910E+02  0.57599110910E+02  0.00000000000E+00 0. -1.
         24    2    1    2    0    0 -0.59303236864E+01 -0.18017083418E+02  0.25517949333E+03  0.26833376988E+03  0.80787710744E+02 0.  0.
         23    2    1    2    0    0 -0.61723415873E+02 -0.53928705041E+02  0.24789345821E+03  0.27592497511E+03  0.89248753316E+02 0.  0.
        -13    1    3    3    0    0 -0.97813992033E+01 -0.20856457323E+02  0.13690412108E+02  0.26797294007E+02  0.00000000000E+00 0.  1.
         14    1    3    3    0    0  0.38510755169E+01  0.28393739051E+01  0.24148908122E+03  0.24153647587E+03  0.00000000000E+00 0. -1.
        -13    1    4    4    0    0  0.14444933804E+02 -0.23337540766E+02  0.20754785812E+02  0.34410144663E+02  0.00000000000E+00 0.  1.
         13    1    4    4    0    0 -0.76168349677E+02 -0.30591164275E+02  0.22713867240E+03  0.24151483044E+03  0.00000000000E+00 0. -1.
          1    1    1    2  501    0  0.67653739559E+02  0.71945788459E+02  0.28882888272E+02  0.10289531665E+03  0.00000000000E+00 0. -1.
<scales pt_clust_5="13000.00000" pt_clust_6="13000.00000" pt_clust_7="13000.00000" pt_clust_8="13000.00000" pt_clust_9="95.31718"></scales>
<clustering>
<clus scale="   80.788">  5  6 -1 -1</clus>
<clus scale="   82.985">  1  5  2 -1</clus>
<clus scale="   89.249">  7  8 -1 -1</clus>
<clus scale="   95.317">  2  9  1 -1</clus>
<clus scale="   95.317">  2  5  1 -1</clus>
</clustering>
</event>
<event>
 9    2  0.6175212E-005  0.9222410E+02  0.7546771E-02  0.1305033E+00
          2   -1    0    0  502    0 -0.00000000000E+00  0.00000000000E+00  0.98825216341E+03  0.98825216341E+03  0.00000000000E+00 0. -1.
         21   -1    0    0  501  502  0.00000000000E+00 -0.00000000000E+00 -0.16100354310E+02  0.16100354310E+02  0.00000000000E+00 0. -1.
         24    2    1    2    0    0  0.85179679076E+00  0.21507438019E+01  0.62388162932E+03  0.62900501510E+03  0.80085394198E+02 0.  0.
         23    2    1    2    0    0 -0.20316173380E+02 -0.20673014916E+02  0.17329110280E+03  0.19831752249E+03  0.91977785202E+02 0.  0.
        -13    1    3    3    0    0  0.13954410370E+02  0.29190630666E+02  0.12176662902E+03  0.12599178716E+03  0.00000000000E+00 0.  1.
         14    1    3    3    0    0 -0.13102613579E+02 -0.27039886864E+02  0.50211500030E+03  0.50301322794E+03  0.00000000000E+00 0. -1.
        -11    1    4    4    0    0  0.14836222419E+02  0.16945094657E+02  0.12731365633E+03  0.12929043591E+03  0.00000000000E+00 0.  1.
         11    1    4    4    0    0 -0.35152395799E+02 -0.37618109573E+02  0.45977446463E+02  0.69027086579E+02  0.00000000000E+00 0. -1.
          1    1    1    2  501    0  0.19464376589E+02  0.18522271114E+02  0.17497907699E+03  0.17702998014E+03  0.00000000000E+00 0. -1.
<scales pt_clust_5="13000.00000" pt_clust_6="13000.00000" pt_clust_7="13000.00000" pt_clust_8="13000.00000" pt_clust_9="26.86889"></scales>
<clustering>
<clus scale="   26.869">  2  9  1 -1</clus>
<clus scale="   80.085">  5  6 -1 -1</clus>
<clus scale="   80.368">  1  5  2 -1</clus>
<clus scale="   91.978">  7  8 -1 -1</clus>
<clus scale="   26.869">  2  5  1 -1</clus>
</clustering>
</event>
<event>
 9    2  0.6175212E-005  0.1374878E+03  0.7546771E-02  0.1221725E+00
          2   -1    0    0  502    0 -0.00000000000E+00  0.00000000000E+00  0.91484994075E+02  0.91484994075E+02  0.00000000000E+00 0. -1.
         21   -1    0    0  501  502  0.00000000000E+00 -0.00000000000E+00 -0.35925892420E+03  0.35925892420E+03  0.00000000000E+00 0. -1.
         24    2    1    2    0    0 -0.22400437786E+02 -0.97499621529E+02 -0.48711866266E+01  0.12598958546E+03  0.76430958225E+02 0.  0.
         23    2    1    2    0    0 -0.19921229519E+02  0.92224288093E+02 -0.24198327642E+03  0.27725089326E+03  0.97005036190E+02 0.  0.
        -13    1    3    3    0    0 -0.16507373905E+02 -0.10395671995E+03 -0.21288003199E+02  0.10739027934E+03  0.00000000000E+00 0.  1.
         14    1    3    3    0    0 -0.58930638813E+01  0.64570984233E+01  0.16416816573E+02  0.18599306125E+02  0.00000000000E+00 0. -1.
        -11    1    4    4    0    0 -0.42875547205E+02  0.94800521020E+02 -0.15095771205E+03  0.18334034516E+03  0.00000000000E+00 0.  1.
         11    1    4    4    0    0  0.22954317686E+02 -0.25762329272E+01 -0.91025564372E+02  0.93910548107E+02  0.00000000000E+00 0. -1.
          1    1    1    2  501    0  0.42321667305E+02  0.52753334364E+01 -0.20919467079E+02  0.47503439551E+02  0.00000000000E+00 0. -1.
<scales pt_clust_5="13000.00000" pt_clust_6="13000.00000" pt_clust_7="13000.00000" pt_clust_8="13000.00000" pt_clust_9="42.64920"></scales>
<clustering>
<clus scale="   42.649">  2  9  1 -1</clus>
<clus scale="   76.431">  5  6 -1 -1</clus>
<clus scale="   97.005">  7  8 -1 -1</clus>
<clus scale="  123.833">  1  5  2 -1</clus>
<clus scale="   42.649">  2  5  1 -1</clus>
</clustering>
</event>
<event>
 9    2  0.6175212E-005  0.1020778E+03  0.7546771E-02  0.1277857E+00
          2   -1    0    0  502    0 -0.00000000000E+00  0.00000000000E+00  0.15471901424E+03  0.15471901424E+03  0.00000000000E+00 0. -1.
         21   -1    0    0  501  502  0.00000000000E+00 -0.00000000000E+00 -0.15610598967E+03  0.15610598967E+03  0.00000000000E+00 0. -1.
         24    2    1    2    0    0 -0.44289146379E+02  0.94506974450E+01  0.10208606568E+03  0.14273943940E+03  0.88893973847E+02 0.  0.
         23    2    1    2    0    0  0.32895737257E+02  0.15303946964E+02 -0.58747199629E+02  0.11571187753E+03  0.92852920341E+02 0.  0.
        -11    1    3    3    0    0  0.25114002990E+02 -0.47382302823E+01  0.12271016146E+02  0.28350340556E+02  0.00000000000E+00 0.  1.
         12    1    3    3    0    0 -0.69403149369E+02  0.14188927727E+02  0.89815049534E+02  0.11438909885E+03  0.00000000000E+00 0. -1.
        -11    1    4    4    0    0  0.63732091445E+02  0.35033236297E+01 -0.25143900749E+02  0.68602248515E+02  0.00000000000E+00 0.  1.
         11    1    4    4    0    0 -0.30836354188E+02  0.11800623334E+02 -0.33603298881E+02  0.47109629019E+02  0.00000000000E+00 0. -1.
          1    1    1    2  501    0  0.11393409122E+02 -0.24754644409E+02 -0.44725841480E+02  0.52373686975E+02  0.00000000000E+00 0. -1.
<scales pt_clust_5="13000.00000" pt_clust_6="13000.00000" pt_clust_7="13000.00000" pt_clust_8="13000.00000" pt_clust_9="27.25073"></scales>
<clustering>
<clus scale="   27.251">  2  9  1 -1</clus>
<clus scale="   88.894">  5  6 -1 -1</clus>
<clus scale="   92.853">  7  8 -1 -1</clus>
<clus scale="   98.490">  1  5  2 -1</clus>
<clus scale="   27.251">  2  5  1 -1</clus>
</clustering>
</event>
<event>
 9    2  0.6175212E-005  0.1181869E+03  0.7546771E-02  0.1248703E+00
         21   -1    0    0  501  502  0.00000000000E+00  0.00000000000E+00  0.50665138936E+02  0.50665138936E+02  0.00000000000E+00 0.  1.
          2   -1    0    0  502    0 -0.00000000000E+00 -0.00000000000E+00 -0.68587030921E+03  0.68587030921E+03  0.00000000000E+00 0. -1.
         24    2    1    2    0    0  0.67959488110E+02 -0.47381965798E+02 -0.56148799819E+03  0.57308715526E+03  0.79350946514E+02 0.  0.
         23    2    1    2    0    0 -0.62012018069E+02  0.19625716895E+02 -0.78834690376E+02  0.13460438977E+03  0.87594373051E+02 0.  0.
        -13    1    3    3    0    0  0.52784202514E+02 -0.21439645836E+02 -0.14923656012E+03  0.15974160800E+03  0.00000000000E+00 0.  1.
         14    1    3    3    0    0  0.15175285597E+02 -0.25942319962E+02 -0.41225143806E+03  0.41334554726E+03  0.00000000000E+00 0. -1.
        -13    1    4    4    0    0  0.21769580279E+02  0.11085130347E+02 -0.12756650497E+02  0.27559515094E+02  0.00000000000E+00 0. -1.
         13    1    4    4    0    0 -0.83781598348E+02  0.85405865477E+01 -0.66078039879E+02  0.10704487468E+03  0.00000000000E+00 0.  1.
          1    1    1    2  501    0 -0.59474700416E+01  0.27756248903E+02  0.51175182920E+01  0.28843903109E+02  0.00000000000E+00 0. -1.
<scales pt_clust_5="13000.00000" pt_clust_6="13000.00000" pt_clust_7="13000.00000" pt_clust_8="13000.00000" pt_clust_9="28.38630"></scales>
<clustering>
<clus scale="   28.386">  1  9  2 -1</clus>
<clus scale="   79.351">  5  6 -1 -1</clus>
<clus scale="   87.594">  7  8 -1 -1</clus>
<clus scale="  112.214">  2  5  1 -1</clus>
<clus scale="   28.386">  1  5  2 -1</clus>
</clustering>
</event>
<event>
 9    2  0.6175212E-005  0.1043081E+03  0.7546771E-02  0.1276277E+00
          2   -1    0    0  502    0 -0.00000000000E+00  0.00000000000E+00  0.20651606380E+03  0.20651606380E+03  0.00000000000E+00 0. -1.
         21   -1    0    0  501  502  0.00000000000E+00 -0.00000000000E+00 -0.14282964250E+03  0.14282964250E+03  0.00000000000E+00 0.  1.
         23    2    1    2    0    0 -0.51904029949E+02  0.28368754668E+02  0.95312005697E+02  0.14473993809E+03  0.91468337048E+02 0.  0.
         24    2    1    2    0    0  0.31367465483E+02  0.38107578246E+02 -0.76544581951E+02  0.12178928640E+03  0.80854510355E+02 0.  0.
        -11    1    4    4    0    0  0.27179717852E+02 -0.21648406736E+02 -0.25723657550E+02  0.43233056039E+02  0.00000000000E+00 0.  1.
         12    1    4    4    0    0  0.41877476319E+01  0.59755984982E+02 -0.50820924401E+02  0.78556230360E+02  0.00000000000E+00 0. -1.
        -13    1    3    3    0    0 -0.44571644197E+02  0.60616625801E+02  0.58907103220E+02  0.95556546608E+02  0.00000000000E+00 0.  1.
         13    1    3    3    0    0 -0.73323857526E+01 -0.32247871133E+02  0.36404902477E+02  0.49183391483E+02  0.00000000000E+00 0. -1.
          1    1    1    2  501    0  0.20536564466E+02 -0.66476332914E+02  0.44918997553E+02  0.82816481807E+02  0.00000000000E+00 0. -1.
<scales pt_clust_5="13000.00000" pt_clust_6="13000.00000" pt_clust_7="13000.00000" pt_clust_8="13000.00000" pt_clust_9="69.57628"></scales>
<clustering>
<clus scale="   69.576">  2  9  1 -1</clus>
<clus scale="   80.855">  5  6 -1 -1</clus>
<clus scale="   91.468">  7  8 -1 -1</clus>
<clus scale="   95.138">  2  5  1 -1</clus>
<clus scale="   69.576">  2  5  1 -1</clus>
</clustering>
</event>
<event>
 9    2  0.6175212E-005  0.1123790E+03  0.7546771E-02  0.1263351E+00
          2   -1    0    0  502    0 -0.00000000000E+00  0.00000000000E+00  0.48571875877E+03  0.48571875877E+03  0.00000000000E+00 0. -1.
         21   -1    0    0  501  502  0.00000000000E+00 -0.00000000000E+00 -0.35044134583E+02  0.35044134583E+02  0.00000000000E+00 0. -1.
         23    2    1    2    0    0 -0.56376900544E+02  0.40854183981E+02  0.34383976548E+03  0.36334369981E+03  0.94580339427E+02 0.  0.
         24    2    1    2    0    0  0.39061339286E+02 -0.21103687184E+02  0.90017952389E+02  0.12623074819E+03  0.76549436285E+02 0.  0.
        -13    1    4    4    0    0  0.55200466000E+02 -0.14443784171E+02  0.92412143038E+02  0.10860809605E+03  0.00000000000E+00 0.  1.
         14    1    4    4    0    0 -0.16139126715E+02 -0.66599030138E+01 -0.23941906486E+01  0.17622652131E+02  0.00000000000E+00 0. -1.
        -11    1    3    3    0    0 -0.40226005309E+02 -0.17584241313E+02  0.68153490565E+02  0.81069324173E+02  0.00000000000E+00 0.  1.
         11    1    3    3    0    0 -0.16150895235E+02  0.58438425294E+02  0.27568627491E+03  0.28227437564E+03  0.00000000000E+00 0. -1.
          1    1    1    2  501    0  0.17315561258E+02 -0.19750496797E+02  0.16816906319E+02  0.31188445353E+02  0.00000000000E+00 0. -1.
<scales pt_clust_5="13000.00000" pt_clust_6="13000.00000" pt_clust_7="13000.00000" pt_clust_8="13000.00000" pt_clust_9="26.26615"></scales>
<clustering>
<clus scale="   26.266">  2  9  1 -1</clus>
<clus scale="   76.549">  5  6 -1 -1</clus>
<clus scale="   94.580">  7  8 -1 -1</clus>
<clus scale="   97.690">  2  5  1 -1</clus>
<clus scale="   26.266">  2  5  1 -1</clus>
</clustering>
</event>
<event>
 9    2  0.6175212E-005  0.1098649E+03  0.7546771E-02  0.1265165E+00
          2   -1    0    0  502    0 -0.00000000000E+00  0.00000000000E+00  0.36336844987E+03  0.36336844987E+03  0.00000000000E+00 0. -1.
         21   -1    0    0  501  502  0.00000000000E+00 -0.00000000000E+00 -0.13487504607E+03  0.13487504607E+03  0.00000000000E+00 0.  1.
         24    2    1    2    0    0 -0.33208821216E+02  0.70552263446E+02  0.18386217987E+03  0.21624513143E+03  0.82922903938E+02 0.  0.
         23    2    1    2    0    0  0.71408395518E+02  0.32457891910E+02  0.10190567920E+03  0.15810057273E+03  0.91969288064E+02 0.  0.
        -11    1    3    3    0    0 -0.13601415792E+02  0.68946735319E+02  0.64873552406E+02  0.95641145040E+02  0.00000000000E+00 0.  1.
         12    1    3    3    0    0 -0.19607405423E+02  0.16055281268E+01  0.11898862746E+03  0.12060398639E+03  0.00000000000E+00 0. -1.
        -11    1    4    4    0    0  0.88317967171E+02  0.68185639686E+01  0.63834816570E+02  0.10918534676E+03  0.00000000000E+00 0. -1.
         11    1    4    4    0    0 -0.16909571653E+02  0.25639327941E+02  0.38070862625E+02  0.48915225971E+02  0.00000000000E+00 0.  1.
          1    1    1    2  501    0 -0.38199574302E+02 -0.10301015536E+03 -0.57274455255E+02  0.12389779178E+03  0.00000000000E+00 0. -1.
<scales pt_clust_5="13000.00000" pt_clust_6="13000.00000" pt_clust_7="13000.00000" pt_clust_8="13000.00000" pt_clust_9="109.86492"></scales>
<clustering>
<clus scale="   82.923">  5  6 -1 -1</clus>
<clus scale="   91.969">  7  8 -1 -1</clus>
<clus scale="  109.865">  2  9  1 -1</clus>
<clus scale="  100.914">  1  5  2 -1</clus>
<clus scale="  109.865">  2  5  1 -1</clus>
</clustering>
</event>
<event>
 9    2  0.6175212E-005  0.1338484E+03  0.7546771E-02  0.1226147E+00
         -1   -1    0    0    0  501 -0.00000000000E+00  0.00000000000E+00  0.31492939981E+03  0.31492939981E+03  0.00000000000E+00 0.  1.
         21   -1    0    0  501  502  0.00000000000E+00 -0.00000000000E+00 -0.14419999809E+03  0.14419999809E+03  0.00000000000E+00 0.  1.
         23    2    1    2    0    0 -0.78620681751E+00 -0.94371874019E+02  0.20805676437E+03  0.24500838514E+03  0.88514534739E+02 0.  0.
         24    2    1    2    0    0 -0.30252719770E+02  0.58409013510E+02  0.34841478723E+02  0.12772029537E+03  0.10378682622E+03 0.  0.
        -11    1    4    4    0    0  0.20650776770E+02 -0.19748223771E+02  0.15340854568E+02  0.32431292639E+02  0.00000000000E+00 0.  1.
         12    1    4    4    0    0 -0.50903496540E+02  0.78157237281E+02  0.19500624154E+02  0.95289002733E+02  0.00000000000E+00 0. -1.
        -13    1    3    3    0    0  0.19616906148E+02 -0.90050901957E+02  0.20387351157E+03  0.22373733857E+03  0.00000000000E+00 0.  1.
         13    1    3    3    0    0 -0.20403112965E+02 -0.43209720622E+01  0.41832528052E+01  0.21271046572E+02  0.00000000000E+00 0. -1.
         -2    1    1    2    0  502  0.31038926587E+02  0.35962860509E+02 -0.72168841373E+02  0.86400717386E+02  0.00000000000E+00 0.  1.
<scales pt_clust_5="13000.00000" pt_clust_6="13000.00000" pt_clust_7="13000.00000" pt_clust_8="13000.00000" pt_clust_9="47.50518"></scales>
<clustering>
<clus scale="   47.505">  2  9  1 -1</clus>
<clus scale="   88.515">  7  8 -1 -1</clus>
<clus scale="  103.787">  5  6 -1 -1</clus>
<clus scale="  122.387">  1  7  2 -1</clus>
<clus scale="   47.505">  2  5  1 -1</clus>
</clustering>
</event>
<event>
 9    2  0.6175212E-005  0.1729423E+03  0.7546771E-02  0.1181866E+00
          2   -1    0    0  502    0 -0.00000000000E+00  0.00000000000E+00  0.10911467748E+04  0.10911467748E+04  0.00000000000E+00 0. -1.
         21   -1    0    0  501  502  0.00000000000E+00 -0.00000000000E+00 -0.38146927404E+02  0.38146927404E+02  0.00000000000E+00 0.  1.
         24    2    1    2    0    0  0.11548121751E+03  0.40148196902E+02  0.72412361212E+03  0.73883897636E+03  0.81118666463E+02 0.  0.
         23    2    1    2    0    0 -0.10920010279E+03 -0.69770216588E+02  0.25598992018E+03  0.31152861241E+03  0.12135358070E+03 0.  0.
        -13    1    3    3    0    0  0.12504415825E+01  0.24924764570E+02  0.63293549287E+02  0.68035879316E+02  0.00000000000E+00 0.  1.
         14    1    3    3    0    0  0.11423077592E+03  0.15223432332E+02  0.66083006283E+03  0.67080309704E+03  0.00000000000E+00 0. -1.
        -11    1    4    4    0    0 -0.36193700459E+02 -0.91668916907E+02  0.11670011319E+03  0.15274845564E+03  0.00000000000E+00 0.  1.
         11    1    4    4    0    0 -0.73006402330E+02  0.21898700319E+02  0.13928980698E+03  0.15878015678E+03  0.00000000000E+00 0. -1.
          1    1    1    2  501    0 -0.62811147182E+01  0.29622019686E+02  0.72886315101E+02  0.78926113431E+02  0.00000000000E+00 0. -1.
<scales pt_clust_5="13000.00000" pt_clust_6="13000.00000" pt_clust_7="13000.00000" pt_clust_8="13000.00000" pt_clust_9="30.28063"></scales>
<clustering>
<clus scale="   30.281">  2  9  1 -1</clus>
<clus scale="   81.119">  5  6 -1 -1</clus>
<clus scale="  121.354">  7  8 -1 -1</clus>
<clus scale="  147.522">  1  5  2 -1</clus>
<clus scale="   30.281">  2  5  1 -1</clus>
</clustering>
</event>
<event>
 9    2  0.6175212E-005  0.4030182E+03  0.7546771E-02  0.1097336E+00
          2   -1    0    0  502    0 -0.00000000000E+00  0.00000000000E+00  0.27637947980E+04  0.27637947980E+04  0.00000000000E+00 0. -1.
         21   -1    0    0  501  502  0.00000000000E+00 -0.00000000000E+00 -0.71201895423E+02  0.71201895423E+02  0.00000000000E+00 0. -1.
         24    2    1    2    0    0  0.19399458773E+02 -0.37428570423E+02  0.28722655121E+03  0.30098060943E+03  0.79454380932E+02 0.  0.
         23    2    1    2    0    0 -0.40116868195E+03  0.13068236214E+02  0.11503474525E+04  0.12219895591E+04  0.94085762818E+02 0.  0.
        -13    1    3    3    0    0  0.46440246835E+02 -0.37700089724E+02  0.23054874268E+03  0.23818210689E+03  0.00000000000E+00 0.  1.
         14    1    3    3    0    0 -0.27040788062E+02  0.27151930064E+00  0.56677808533E+02  0.62798502544E+02  0.00000000000E+00 0. -1.
        -11    1    4    4    0    0 -0.30836267148E+03  0.48182578371E+01  0.74977243503E+03  0.81072156570E+03  0.00000000000E+00 0. -1.
         11    1    4    4    0    0 -0.92806010476E+02  0.82499783768E+01  0.40057501751E+03  0.41126799337E+03  0.00000000000E+00 0.  1.
          1    1    1    2  501    0  0.38176922318E+03  0.24360334209E+02  0.12550188988E+04  0.13120265249E+04  0.00000000000E+00 0. -1.
<scales pt_clust_5="13000.00000" pt_clust_6="13000.00000" pt_clust_7="13000.00000" pt_clust_8="13000.00000" pt_clust_9="391.88225"></scales>
<clustering>
<clus scale="   79.454">  5  6 -1 -1</clus>
<clus scale="   89.946">  1  5  2 -1</clus>
<clus scale="   94.086">  7  8 -1 -1</clus>
<clus scale="  391.882">  2  9  1 -1</clus>
<clus scale="  391.882">  2  5  1 -1</clus>
</clustering>
</event>
<event>
 9    2  0.6175212E-005  0.3217312E+03  0.7546771E-02  0.1075177E+00
         -1   -1    0    0    0  501 -0.00000000000E+00  0.00000000000E+00  0.16509054889E+04  0.16509054889E+04  0.00000000000E+00 0.  1.
         21   -1    0    0  501  502  0.00000000000E+00 -0.00000000000E+00 -0.85138942119E+02  0.85138942119E+02  0.00000000000E+00 0.  1.
         23    2    1    2    0    0  0.28519516899E+03  0.15928321965E+03  0.11152547328E+04  0.11655794898E+04  0.89861001754E+02 0.  0.
         24    2    1    2    0    0 -0.22896098678E+03 -0.14526214863E+03  0.31521322653E+03  0.42327601004E+03  0.79239997498E+02 0.  0.
        -13    1    4    4    0    0 -0.20414581657E+03 -0.15129022921E+03  0.30149210162E+03  0.39428636195E+03  0.00000000000E+00 0.  1.
         14    1    4    4    0    0 -0.24815170201E+02  0.60280805748E+01  0.13721124905E+02  0.28989648086E+02  0.00000000000E+00 0. -1.
        -13    1    3    3    0    0  0.20543501546E+03  0.15774401455E+03  0.84892026657E+03  0.88755413283E+03  0.00000000000E+00 0.  1.
         13    1    3    3    0    0  0.79760153536E+02  0.15392051047E+01  0.26633446622E+03  0.27802535701E+03  0.00000000000E+00 0. -1.
         -2    1    1    2    0  502 -0.56234182217E+02 -0.14021071019E+02  0.13529858746E+03  0.14718893114E+03  0.00000000000E+00 0.  1.
<scales pt_clust_5="13000.00000" pt_clust_6="13000.00000" pt_clust_7="13000.00000" pt_clust_8="13000.00000" pt_clust_9="57.95582"></scales>
<clustering>
<clus scale="   57.956">  2  9  1 -1</clus>
<clus scale="   79.240">  5  6 -1 -1</clus>
<clus scale="   89.861">  7  8 -1 -1</clus>
<clus scale="  318.928">  2  5  1 -1</clus>
<clus scale="   57.956">  2  5  1 -1</clus>
</clustering>
</event>
<event>
 9    2  0.6175212E-005  0.9234214E+02  0.7546771E-02  0.1304944E+00
          4   -1    0    0  502    0 -0.00000000000E+00  0.00000000000E+00  0.55232947114E+02  0.55232947114E+02  0.00000000000E+00 0. -1.
         21   -1    0    0  501  502  0.00000000000E+00 -0.00000000000E+00 -0.22058236660E+03  0.22058236660E+03  0.00000000000E+00 0.  1.
         24    2    1    2    0    0  0.13649660471E+02  0.15988514537E+01 -0.34860634635E+02  0.87642843200E+02  0.79228369667E+02 0.  0.
         23    2    1    2    0    0  0.48491668497E+01  0.32089627262E+02 -0.95833314338E+02  0.13642189712E+03  0.91507656943E+02 0.  0.
        -13    1    3    3    0    0  0.21130822341E+02  0.37797524090E+02 -0.21421077992E+02  0.48311769399E+02  0.00000000000E+00 0.  1.
         14    1    3    3    0    0 -0.74811618695E+01 -0.36198672636E+02 -0.13439556643E+02  0.39331073801E+02  0.00000000000E+00 0. -1.
        -13    1    4    4    0    0 -0.42515057822E+02  0.24594979160E+02 -0.49946804445E+02  0.70050884476E+02  0.00000000000E+00 0.  1.
         13    1    4    4    0    0  0.47364224672E+02  0.74946481026E+01 -0.45886509892E+02  0.66371012642E+02  0.00000000000E+00 0. -1.
          3    1    1    2  501    0 -0.18498827321E+02 -0.33688478716E+02 -0.34655470516E+02  0.51750573399E+02  0.00000000000E+00 0. -1.
<scales pt_clust_5="13000.00000" pt_clust_6="13000.00000" pt_clust_7="13000.00000" pt_clust_8="13000.00000" pt_clust_9="38.43332"></scales>
<clustering>
<clus scale="   38.433">  2  9  1 -1</clus>
<clus scale="   79.228">  5  6 -1 -1</clus>
<clus scale="   80.191">  1  5  2 -1</clus>
<clus scale="   91.508">  7  8 -1 -1</clus>
<clus scale="   38.433">  2  5  1 -1</clus>
</clustering>
</event>
<event>
 9    2  0.6175212E-005  0.1908267E+03  0.7546771E-02  0.1187479E+00
         21   -1    0    0  501  502  0.00000000000E+00  0.00000000000E+00  0.15367513892E+03  0.15367513892E+03  0.00000000000E+00 0. -1.
          2   -1    0    0  502    0 -0.00000000000E+00 -0.00000000000E+00 -0.38937951298E+03  0.38937951298E+03  0.00000000000E+00 0. -1.
         24    2    1    2    0    0  0.50344238499E+02 -0.13950519626E+02 -0.13110128004E+03  0.16301969941E+03  0.81600964573E+02 0.  0.
         23    2    1    2    0    0 -0.23525489901E+02 -0.16172130947E+03 -0.75076065431E+02  0.19989144794E+03  0.87252190507E+02 0.  0.
        -13    1    3    3    0    0  0.65574715720E+02 -0.81848317436E+01 -0.13101098936E+03  0.14673416148E+03  0.00000000000E+00 0.  1.
         14    1    3    3    0    0 -0.15230477220E+02 -0.57656878826E+01 -0.90290677788E-01  0.16285537926E+02  0.00000000000E+00 0. -1.
        -13    1    4    4    0    0 -0.54298208933E+01 -0.30243942301E+02 -0.58584699696E+02  0.66153957095E+02  0.00000000000E+00 0.  1.
         13    1    4    4    0    0 -0.18095669007E+02 -0.13147736717E+03 -0.16491365735E+02  0.13373749085E+03  0.00000000000E+00 0. -1.
          1    1    1    2  501    0 -0.26818748599E+02  0.17567182910E+03 -0.29527028579E+02  0.18014350455E+03  0.00000000000E+00 0. -1.
<scales pt_clust_5="13000.00000" pt_clust_6="13000.00000" pt_clust_7="13000.00000" pt_clust_8="13000.00000" pt_clust_9="169.71117"></scales>
<clustering>
<clus scale="   81.601">  5  6 -1 -1</clus>
<clus scale="   87.252">  7  8 -1 -1</clus>
<clus scale="   96.891">  2  5  1 -1</clus>
<clus scale="  169.711">  1  9  2 -1</clus>
<clus scale="  169.711">  1  5  2 -1</clus>
</clustering>
</event>
<event>
 9    2  0.6175212E-005  0.1513791E+03  0.7546771E-02  0.1219797E+00
         21   -1    0    0  501  502  0.00000000000E+00  0.00000000000E+00  0.32656273255E+03  0.32656273255E+03  0.00000000000E+00 0. -1.
          2   -1    0    0  502    0 -0.00000000000E+00 -0.00000000000E+00 -0.38379152613E+03  0.38379152613E+03  0.00000000000E+00 0. -1.
         24    2    1    2    0    0 -0.36324924530E+02  0.40113789767E+02 -0.31083427221E+03  0.32549967195E+03  0.80021718236E+02 0.  0.
         23    2    1    2    0    0 -0.93155223938E+02 -0.42468291311E+02  0.57126578994E+02  0.14953648176E+03  0.92823821482E+02 0.  0.
        -13    1    3    3    0    0 -0.22843606896E+02  0.61568784249E+02 -0.16695188178E+03  0.17940311146E+03  0.00000000000E+00 0.  1.
         14    1    3    3    0    0 -0.13481317634E+02 -0.21454994482E+02 -0.14388239043E+03  0.14609656049E+03  0.00000000000E+00 0. -1.
        -13    1    4    4    0    0 -0.62168617006E+02 -0.16763608524E+02 -0.15741986155E+02  0.66285485887E+02  0.00000000000E+00 0. -1.
         13    1    4    4    0    0 -0.30986606932E+02 -0.25704682786E+02  0.72868565148E+02  0.83250995868E+02  0.00000000000E+00 0.  1.
          1    1    1    2  501    0  0.12948014847E+03  0.23545015436E+01  0.19647889964E+03  0.23531810498E+03  0.00000000000E+00 0. -1.
<scales pt_clust_5="13000.00000" pt_clust_6="13000.00000" pt_clust_7="13000.00000" pt_clust_8="13000.00000" pt_clust_9="119.57998"></scales>
<clustering>
<clus scale="   80.022">  5  6 -1 -1</clus>
<clus scale="   92.824">  7  8 -1 -1</clus>
<clus scale="   96.603">  2  5  1 -1</clus>
<clus scale="  119.580">  1  9  2 -1</clus>
<clus scale="  119.580">  1  5  2 -1</clus>
</clustering>
</event>
<event>
 9    2  0.6175212E-005  0.9343819E+02  0.7546771E-02  0.1295127E+00
          2   -1    0    0  502    0 -0.00000000000E+00  0.00000000000E+00  0.17909646581E+03  0.17909646581E+03  0.00000000000E+00 0. -1.
         21   -1    0    0  501  502  0.00000000000E+00 -0.00000000000E+00 -0.10408743415E+03  0.10408743415E+03  0.00000000000E+00 0. -1.
         24    2    1    2    0    0  0.84532585301E+01  0.15493306621E+02  0.69662076965E+02  0.11684677801E+03  0.92135033699E+02 0.  0.
         23    2    1    2    0    0  0.47705337588E+02 -0.31350041400E+00  0.22744226494E+02  0.10561744227E+03  0.91443134004E+02 0.  0.
        -11    1    3    3    0    0 -0.16689330829E+02 -0.14176292246E+02 -0.13019523875E+02  0.25475655581E+02  0.00000000000E+00 0.  1.
         12    1    3    3    0    0  0.25142589360E+02  0.29669598866E+02  0.82681600840E+02  0.91371122429E+02  0.00000000000E+00 0. -1.
        -13    1    4    4    0    0  0.48425168944E+02  0.35006113456E+02 -0.60277215289E+01  0.60056293537E+02  0.00000000000E+00 0. -1.
         13    1    4    4    0    0 -0.71983135583E+00 -0.35319613870E+02  0.28771948023E+02  0.45561148736E+02  0.00000000000E+00 0.  1.
          1    1    1    2  501    0 -0.56158596118E+02 -0.15179806207E+02 -0.17397271791E+02  0.60719679678E+02  0.00000000000E+00 0. -1.
<scales pt_clust_5="13000.00000" pt_clust_6="13000.00000" pt_clust_7="13000.00000" pt_clust_8="13000.00000" pt_clust_9="58.17400"></scales>
<clustering>
<clus scale="   58.174">  2  9  1 -1</clus>
<clus scale="   91.443">  7  8 -1 -1</clus>
<clus scale="   92.135">  5  6 -1 -1</clus>
<clus scale="   92.756">  2  7  1 -1</clus>
<clus scale="   58.174">  2  5  1 -1</clus>
</clustering>
</event>
<event>
 9    2  0.6175212E-005  0.9310116E+02  0.7546771E-02  0.1296468E+00
          2   -1    0    0  502    0 -0.00000000000E+00  0.00000000000E+00  0.31383093276E+03  0.31383093276E+03  0.00000000000E+00 0. -1.
         21   -1    0    0  501  502  0.00000000000E+00 -0.00000000000E+00 -0.38251049183E+03  0.38251049183E+03  0.00000000000E+00 0.  1.
         24    2    1    2    0    0  0.92327831482E+01  0.14814997035E+00  0.29118735362E+03  0.30570128135E+03  0.92617127332E+02 0.  0.
         23    2    1    2    0    0 -0.12218152368E+02 -0.41468499606E+02 -0.18198373593E+03  0.20799647843E+03  0.90969968610E+02 0.  0.
        -13    1    3    3    0    0  0.10831319950E+02  0.24021813454E+02  0.19053824914E+02  0.32517891342E+02  0.00000000000E+00 0.  1.
         14    1    3    3    0    0 -0.15985368016E+01 -0.23873663484E+02  0.27213352871E+03  0.27318339000E+03  0.00000000000E+00 0. -1.
        -13    1    4    4    0    0  0.11667001771E+02 -0.51930946700E+02 -0.48560709862E+02  0.72049182492E+02  0.00000000000E+00 0. -1.
         13    1    4    4    0    0 -0.23885154140E+02  0.10462447094E+02 -0.13342302607E+03  0.13594729594E+03  0.00000000000E+00 0.  1.
          1    1    1    2  501    0  0.29853692201E+01  0.41320349636E+02 -0.17788317675E+03  0.18264366481E+03  0.00000000000E+00 0. -1.
<scales pt_clust_5="13000.00000" pt_clust_6="13000.00000" pt_clust_7="13000.00000" pt_clust_8="13000.00000" pt_clust_9="41.42805"></scales>
<clustering>
<clus scale="   41.428">  2  9  1 -1</clus>
<clus scale="   90.970">  7  8 -1 -1</clus>
<clus scale="   91.463">  2  7  1 -1</clus>
<clus scale="   92.617">  5  6 -1 -1</clus>
<clus scale="   41.428">  2  5  1 -1</clus>
</clustering>
</event>
<event>
 9    2  0.6175212E-005  0.1485004E+03  0.7546771E-02  0.1202761E+00
          2   -1    0    0  502    0 -0.00000000000E+00  0.00000000000E+00  0.98253556616E+03  0.98253556616E+03  0.00000000000E+00 0. -1.
         21   -1    0    0  501  502  0.00000000000E+00 -0.00000000000E+00 -0.60136645832E+02  0.60136645832E+02  0.00000000000E+00 0.  1.
         23    2    1    2    0    0  0.76183369833E+02  0.10080620093E+03  0.33554504396E+03  0.36997554441E+03  0.91244895439E+02 0.  0.
         24    2    1    2    0    0 -0.12305695362E+03 -0.65669066552E+01  0.12459629226E+03  0.19860780302E+03  0.93459538192E+02 0.  0.
        -11    1    4    4    0    0 -0.72689443067E+02  0.90793169344E+01  0.11945650776E+02  0.74221881557E+02  0.00000000000E+00 0.  1.
         12    1    4    4    0    0 -0.50367510549E+02 -0.15646223590E+02  0.11265064148E+03  0.12438592146E+03  0.00000000000E+00 0. -1.
        -13    1    3    3    0    0  0.55931328495E+02  0.11569077598E+03  0.30075115785E+03  0.32705340252E+03  0.00000000000E+00 0. -1.
         13    1    3    3    0    0  0.20252041339E+02 -0.14884575049E+02  0.34793886116E+02  0.42922141883E+02  0.00000000000E+00 0.  1.
          1    1    1    2  501    0  0.46873583782E+02 -0.94239294280E+02  0.46225758411E+03  0.47408886457E+03  0.00000000000E+00 0. -1.
<scales pt_clust_5="13000.00000" pt_clust_6="13000.00000" pt_clust_7="13000.00000" pt_clust_8="13000.00000" pt_clust_9="105.25297"></scales>
<clustering>
<clus scale="   91.245">  7  8 -1 -1</clus>
<clus scale="   93.460">  5  6 -1 -1</clus>
<clus scale="  105.253">  2  9  1 -1</clus>
<clus scale="  147.117">  1  7  2 -1</clus>
<clus scale="  105.253">  2  5  1 -1</clus>
</clustering>
</event>
<event>
 9    2  0.6175212E-005  0.1072878E+03  0.7546771E-02  0.1269714E+00
         21   -1    0    0  501  502  0.00000000000E+00  0.00000000000E+00  0.35798317747E+02  0.35798317747E+02  0.00000000000E+00 0. -1.
          2   -1    0    0  502    0 -0.00000000000E+00 -0.00000000000E+00 -0.62422498982E+03  0.62422498982E+03  0.00000000000E+00 0. -1.
         24    2    1    2    0    0 -0.39326374526E+02  0.53175665257E+02 -0.46133211564E+03  0.47291864591E+03  0.80315064729E+02 0.  0.
         23    2    1    2    0    0  0.27511081427E+02 -0.13628465995E+02 -0.78846666496E+02  0.12361103202E+03  0.90112683532E+02 0.  0.
        -11    1    3    3    0    0  0.17716453327E+02  0.40321288782E+02 -0.15916831512E+03  0.16514911924E+03  0.00000000000E+00 0.  1.
         12    1    3    3    0    0 -0.57042827853E+02  0.12854376475E+02 -0.30216380052E+03  0.30776952667E+03  0.00000000000E+00 0. -1.
        -11    1    4    4    0    0 -0.71248507993E+01 -0.45363111364E+02 -0.25481709236E+02  0.52515644118E+02  0.00000000000E+00 0.  1.
         11    1    4    4    0    0  0.34635932226E+02  0.31734645369E+02 -0.53364957260E+02  0.71095387904E+02  0.00000000000E+00 0. -1.
          1    1    1    2  501    0  0.11815293100E+02 -0.39547199262E+02 -0.48247889942E+02  0.63493629636E+02  0.00000000000E+00 0. -1.
<scales pt_clust_5="13000.00000" pt_clust_6="13000.00000" pt_clust_7="13000.00000" pt_clust_8="13000.00000" pt_clust_9="41.27447"></scales>
<clustering>
<clus scale="   41.274">  1  9  2 -1</clus>
<clus scale="   80.315">  5  6 -1 -1</clus>
<clus scale="   90.113">  7  8 -1 -1</clus>
<clus scale="   99.201">  2  5  1 -1</clus>
<clus scale="   41.274">  1  5  2 -1</clus>
</clustering>
</event>
<event>
 9    2  0.8685003E-005  0.1001663E+03  0.7546771E-02  0.1281012E+00
         21   -1    0    0  501  502  0.00000000000E+00  0.00000000000E+00  0.89970167705E+02  0.89970167705E+02  0.00000000000E+00 0. -1.
          2   -1    0    0  502    0 -0.00000000000E+00 -0.00000000000E+00 -0.87295204604E+03  0.87295204604E+03  0.00000000000E+00 0. -1.
         24    2    1    2    0    0  0.19816399317E+02 -0.38411304563E+02 -0.68214283607E+03  0.68999631884E+03  0.94381953872E+02 0.  0.
         23    2    1    2    0    0 -0.36767792101E+02 -0.35312668699E+02 -0.14954535278E+03  0.18295435142E+03  0.92247639861E+02 0.  0.
        -13    1    3    3    0    0 -0.19033407586E+02  0.23146405862E+02 -0.15722545997E+03  0.16005584016E+03  0.00000000000E+00 0.  1.
         14    1    3    3    0    0  0.38849806903E+02 -0.61557710425E+02 -0.52491737610E+03  0.52994047868E+03  0.00000000000E+00 0. -1.
        -11    1    4    4    0    0 -0.60225548723E+01  0.31052804981E+02 -0.54634984310E+02  0.63131049215E+02  0.00000000000E+00 0.  1.
         11    1    4    4    0    0 -0.30745237229E+02 -0.66365473680E+02 -0.94910368472E+02  0.11982330221E+03  0.00000000000E+00 0. -1.
          1    1    1    2  501    0  0.16951392784E+02  0.73723973262E+02  0.48706310518E+02  0.89971543475E+02  0.00000000000E+00 0. -1.
<scales pt_clust_5="13000.00000" pt_clust_6="13000.00000" pt_clust_7="13000.00000" pt_clust_8="13000.00000" pt_clust_9="75.64770"></scales>
<clustering>
<clus scale="   75.648">  1  9  2 -1</clus>
<clus scale="   92.248">  7  8 -1 -1</clus>
<clus scale="   94.382">  5  6 -1 -1</clus>
<clus scale="   98.158">  1  7  2 -1</clus>
<clus scale="   75.648">  1  5  2 -1</clus>
</clustering>
</event>
<event>
 9    2  0.6175212E-005  0.9237570E+02  0.7546771E-02  0.1302814E+00
         21   -1    0    0  501  502  0.00000000000E+00  0.00000000000E+00  0.11931672846E+03  0.11931672846E+03  0.00000000000E+00 0. -1.
          2   -1    0    0  502    0 -0.00000000000E+00 -0.00000000000E+00 -0.19703173458E+03  0.19703173458E+03  0.00000000000E+00 0. -1.
         24    2    1    2    0    0  0.14020976516E+02 -0.29333788471E+01 -0.92481577786E+02  0.12466895588E+03  0.82366946267E+02 0.  0.
         23    2    1    2    0    0  0.84273644141E+00  0.19126333602E+02 -0.61748963101E+02  0.11206940223E+03  0.91542829491E+02 0.  0.
        -11    1    3    3    0    0  0.34258146887E+02  0.24528161632E+02 -0.75737348961E+02  0.86668318138E+02  0.00000000000E+00 0.  1.
         12    1    3    3    0    0 -0.20237170371E+02 -0.27461540480E+02 -0.16744228824E+02  0.38000637745E+02  0.00000000000E+00 0. -1.
        -11    1    4    4    0    0  0.21453742276E+02  0.50942100414E+02 -0.31899644074E+02  0.63819651709E+02  0.00000000000E+00 0.  1.
         11    1    4    4    0    0 -0.20611005835E+02 -0.31815766812E+02 -0.29849319027E+02  0.48249750525E+02  0.00000000000E+00 0. -1.
          1    1    1    2  501    0 -0.14863712958E+02 -0.16192954755E+02  0.76515534764E+02  0.79610104929E+02  0.00000000000E+00 0. -1.
<scales pt_clust_5="13000.00000" pt_clust_6="13000.00000" pt_clust_7="13000.00000" pt_clust_8="13000.00000" pt_clust_9="21.98049"></scales>
<clustering>
<clus scale="   21.980">  1  9  2 -1</clus>
<clus scale="   82.367">  5  6 -1 -1</clus>
<clus scale="   83.292">  2  5  1 -1</clus>
<clus scale="   91.543">  7  8 -1 -1</clus>
<clus scale="   21.980">  1  5  2 -1</clus>
</clustering>
</event>
<event>
 9    2  0.6175212E-005  0.1044892E+03  0.7546771E-02  0.1276046E+00
          2   -1    0    0  502    0 -0.00000000000E+00  0.00000000000E+00  0.39035574629E+03  0.39035574629E+03  0.00000000000E+00 0. -1.
         21   -1    0    0  501  502  0.00000000000E+00 -0.00000000000E+00 -0.12544886148E+03  0.12544886148E+03  0.00000000000E+00 0. -1.
         24    2    1    2    0    0  0.15621174135E+02 -0.42348170631E+02  0.21533513618E+03  0.23414503450E+03  0.80107975053E+02 0.  0.
         23    2    1    2    0    0 -0.72527585278E+02  0.34274030198E+02  0.13318403941E+03  0.18019752843E+03  0.91094462640E+02 0.  0.
        -13    1    3    3    0    0  0.35940471941E+02 -0.19073363901E+02  0.43534380902E+02  0.59588195596E+02  0.00000000000E+00 0.  1.
         14    1    3    3    0    0 -0.20319297806E+02 -0.23274806730E+02  0.17180075528E+03  0.17455683890E+03  0.00000000000E+00 0. -1.
        -13    1    4    4    0    0 -0.18653916429E+02 -0.29657062726E+02  0.57996388314E+02  0.67757590167E+02  0.00000000000E+00 0. -1.
         13    1    4    4    0    0 -0.53873668849E+02  0.63931092924E+02  0.75187651099E+02  0.11243993826E+03  0.00000000000E+00 0.  1.
          1    1    1    2  501    0  0.56906411143E+02  0.80741404332E+01 -0.83612290787E+02  0.10146204484E+03  0.00000000000E+00 0. -1.
<scales pt_clust_5="13000.00000" pt_clust_6="13000.00000" pt_clust_7="13000.00000" pt_clust_8="13000.00000" pt_clust_9="57.47635"></scales>
<clustering>
<clus scale="   57.476">  2  9  1 -1</clus>
<clus scale="   80.108">  5  6 -1 -1</clus>
<clus scale="   91.094">  7  8 -1 -1</clus>
<clus scale="   95.064">  1  5  2 -1</clus>
<clus scale="   57.476">  2  5  1 -1</clus>
</clustering>
</event>
<event>
 9    2  0.6175212E-005  0.1159851E+03  0.7546771E-02  0.1253405E+00
         21   -1    0    0  501  502  0.00000000000E+00  0.00000000000E+00  0.31702845798E+03  0.31702845798E+03  0.00000000000E+00 0.  1.
          4   -1    0    0  502    0 -0.00000000000E+00 -0.00000000000E+00 -0.21391979172E+03  0.21391979172E+03  0.00000000000E+00 0. -1.
         23    2    1    2    0    0  0.63951997153E+02  0.45491469133E+02 -0.17463046257E+03  0.21108298691E+03  0.88886991191E+02 0.  0.
         24    2    1    2    0    0 -0.55292288717E+02  0.14742431672E+02  0.15456833493E+03  0.18248201118E+03  0.78318182793E+02 0.  0.
        -13    1    4    4    0    0 -0.53839148848E+02 -0.20973640181E+02  0.70656110315E+02  0.91273399498E+02  0.00000000000E+00 0.  1.
         14    1    4    4    0    0 -0.14531398697E+01  0.35716071853E+02  0.83912224615E+02  0.91208611677E+02  0.00000000000E+00 0. -1.
        -11    1    3    3    0    0  0.42069751532E+02  0.60818937494E+02 -0.16800020773E+03  0.18355619562E+03  0.00000000000E+00 0. -1.
         11    1    3    3    0    0  0.21882245621E+02 -0.15327468360E+02 -0.66302548366E+01  0.27526791294E+02  0.00000000000E+00 0.  1.
          3    1    1    2  501    0 -0.86597084357E+01 -0.60233900806E+02  0.12317079390E+03  0.13738325162E+03  0.00000000000E+00 0. -1.
<scales pt_clust_5="13000.00000" pt_clust_6="13000.00000" pt_clust_7="13000.00000" pt_clust_8="13000.00000" pt_clust_9="60.85321"></scales>
<clustering>
<clus scale="   60.853">  1  9  2 -1</clus>
<clus scale="   78.318">  5  6 -1 -1</clus>
<clus scale="   88.887">  7  8 -1 -1</clus>
<clus scale="  108.099">  1  5  2 -1</clus>
<clus scale="   60.853">  1  5  2 -1</clus>
</clustering>
</event>
<event>
 9    2  0.6175212E-005  0.1114323E+03  0.7546771E-02  0.1262145E+00
         21   -1    0    0  501  502  0.00000000000E+00  0.00000000000E+00  0.62689118454E+02  0.62689118454E+02  0.00000000000E+00 0.  1.
         -3   -1    0    0    0  501 -0.00000000000E+00 -0.00000000000E+00 -0.31030115993E+03  0.31030115993E+03  0.00000000000E+00 0.  1.
         23    2    1    2    0    0 -0.51787050893E+02 -0.19079610871E+02 -0.59309824887E+02  0.12105899465E+03  0.89953847419E+02 0.  0.
         24    2    1    2    0    0  0.65987881772E+02  0.39244477331E+02 -0.68383053974E+02  0.12950215731E+03  0.78740314542E+02 0.  0.
        -13    1    4    4    0    0  0.79077218607E+02  0.12400765784E+02 -0.47776332321E+02  0.93217827827E+02  0.00000000000E+00 0.  1.
         14    1    4    4    0    0 -0.13089336836E+02  0.26843711547E+02 -0.20606721653E+02  0.36284329478E+02  0.00000000000E+00 0. -1.
        -13    1    3    3    0    0 -0.71328553633E+02 -0.11831560505E+02 -0.17573927577E+02  0.74408274525E+02  0.00000000000E+00 0.  1.
         13    1    3    3    0    0  0.19541502741E+02 -0.72480503659E+01 -0.41735897311E+02  0.46650720121E+02  0.00000000000E+00 0. -1.
         -4    1    1    2    0  502 -0.14200830879E+02 -0.20164866460E+02 -0.11991916261E+03  0.12242912643E+03  0.00000000000E+00 0.  1.
<scales pt_clust_5="13000.00000" pt_clust_6="13000.00000" pt_clust_7="13000.00000" pt_clust_8="13000.00000" pt_clust_9="24.66346"></scales>
<clustering>
<clus scale="   24.663">  1  9  2 -1</clus>
<clus scale="   78.740">  5  6 -1 -1</clus>
<clus scale="   89.954">  7  8 -1 -1</clus>
<clus scale="  102.594">  1  5  2 -1</clus>
<clus scale="   24.663">  1  5  2 -1</clus>
</clustering>
</event>
<event>
 9    2  0.6175212E-005  0.8985899E+02  0.7546771E-02  0.1307759E+00
          2   -1    0    0  502    0 -0.00000000000E+00  0.00000000000E+00  0.99356790004E+03  0.99356790004E+03  0.00000000000E+00 0. -1.
         21   -1    0    0  501  502  0.00000000000E+00 -0.00000000000E+00 -0.28335145074E+02  0.28335145074E+02  0.00000000000E+00 0. -1.
         24    2    1    2    0    0  0.28308222736E+02  0.80692784162E+01  0.82274869850E+03  0.82699334426E+03  0.78333274165E+02 0.  0.
         23    2    1    2    0    0 -0.10797012000E+02  0.25591986760E+02  0.12207297659E+03  0.15182448928E+03  0.85891435408E+02 0.  0.
        -11    1    3    3    0    0 -0.10637972624E+02  0.30176465963E+02  0.19119384648E+03  0.19385270824E+03  0.00000000000E+00 0.  1.
         12    1    3    3    0    0  0.38946195360E+02 -0.22107187546E+02  0.63155485202E+03  0.63314063603E+03  0.00000000000E+00 0. -1.
        -11    1    4    4    0    0 -0.37994602351E+02  0.47452958582E+01  0.18104493751E+02  0.42354224519E+02  0.00000000000E+00 0.  1.
         11    1    4    4    0    0  0.27197590351E+02  0.20846690902E+02  0.10396848284E+03  0.10947026476E+03  0.00000000000E+00 0. -1.
          1    1    1    2  501    0 -0.17511210736E+02 -0.33661265176E+02  0.20411079877E+02  0.43085211575E+02  0.00000000000E+00 0. -1.
<scales pt_clust_5="13000.00000" pt_clust_6="13000.00000" pt_clust_7="13000.00000" pt_clust_8="13000.00000" pt_clust_9="37.94369"></scales>
<clustering>
<clus scale="   37.944">  2  9  1 -1</clus>
<clus scale="   78.333">  5  6 -1 -1</clus>
<clus scale="   82.664">  1  5  2 -1</clus>
<clus scale="   85.891">  7  8 -1 -1</clus>
<clus scale="   37.944">  2  5  1 -1</clus>
</clustering>
</event>
<event>
 9    2  0.6175212E-005  0.9232603E+02  0.7546771E-02  0.1303194E+00
          4   -1    0    0  502    0 -0.00000000000E+00  0.00000000000E+00  0.20926694004E+03  0.20926694004E+03  0.00000000000E+00 0. -1.
         21   -1    0    0  501  502  0.00000000000E+00 -0.00000000000E+00 -0.77295299628E+02  0.77295299628E+02  0.00000000000E+00 0. -1.
         24    2    1    2    0    0 -0.18128133231E+02  0.11238929757E+02  0.69938958999E+02  0.11006393595E+03  0.82265845008E+02 0.  0.
         23    2    1    2    0    0 -0.16681828504E+02  0.41211139652E+02  0.43347469173E+02  0.11083339396E+03  0.91806299883E+02 0.  0.
        -11    1    3    3    0    0  0.21487304804E+02  0.26327638298E+02  0.78406841759E+01  0.34875853172E+02  0.00000000000E+00 0.  1.
         12    1    3    3    0    0 -0.39615438035E+02 -0.15088708541E+02  0.62098274823E+02  0.75188082780E+02  0.00000000000E+00 0. -1.
        -11    1    4    4    0    0 -0.43926755747E+02  0.31058272628E+02 -0.54058845415E+01  0.54068472854E+02  0.00000000000E+00 0. -1.
         11    1    4    4    0    0  0.27244927242E+02  0.10152867024E+02  0.48753353714E+02  0.56764921101E+02  0.00000000000E+00 0.  1.
          3    1    1    2  501    0  0.34809961735E+02 -0.52450069409E+02  0.18685212237E+02  0.65664909757E+02  0.00000000000E+00 0. -1.
<scales pt_clust_5="13000.00000" pt_clust_6="13000.00000" pt_clust_7="13000.00000" pt_clust_8="13000.00000" pt_clust_9="62.95032"></scales>
<clustering>
<clus scale="   62.950">  2  9  1 -1</clus>
<clus scale="   82.266">  5  6 -1 -1</clus>
<clus scale="   82.845">  1  5  2 -1</clus>
<clus scale="   91.806">  7  8 -1 -1</clus>
<clus scale="   62.950">  2  5  1 -1</clus>
</clustering>
</event>
<event>
 9    2  0.6175212E-005  0.1840928E+03  0.7546771E-02  0.1196121E+00
         21   -1    0    0  501  502  0.00000000000E+00  0.00000000000E+00  0.72556576553E+03  0.72556576553E+03  0.00000000000E+00 0. -1.
          2   -1    0    0  502    0 -0.00000000000E+00 -0.00000000000E+00 -0.17267603801E+03  0.17267603801E+03  0.00000000000E+00 0. -1.
         24    2    1    2    0    0 -0.31868005193E+02  0.20426095229E+02 -0.43230617287E+02  0.99134900080E+02  0.80783952748E+02 0.  0.
         23    2    1    2    0    0 -0.13261442196E+03 -0.18931044278E+02 -0.19340332194E+02  0.16204446621E+03  0.89103261620E+02 0.  0.
        -11    1    3    3    0    0 -0.15362083236E+02 -0.16765612996E+02  0.15619915551E+02  0.27587336629E+02  0.00000000000E+00 0.  1.
         12    1    3    3    0    0 -0.16505921957E+02  0.37191708225E+02 -0.58850532839E+02  0.71547563451E+02  0.00000000000E+00 0. -1.
        -11    1    4    4    0    0 -0.94988026908E+02  0.20079004273E+02  0.14477292123E+02  0.98160499468E+02  0.00000000000E+00 0. -1.
         11    1    4    4    0    0 -0.37626395053E+02 -0.39010048551E+02 -0.33817624317E+02  0.63883966745E+02  0.00000000000E+00 0.  1.
          1    1    1    2  501    0  0.16448242715E+03 -0.14950509510E+01  0.61546067700E+03  0.63706243725E+03  0.00000000000E+00 0. -1.
<scales pt_clust_5="13000.00000" pt_clust_6="13000.00000" pt_clust_7="13000.00000" pt_clust_8="13000.00000" pt_clust_9="161.09247"></scales>
<clustering>
<clus scale="   80.784">  5  6 -1 -1</clus>
<clus scale="   89.103">  7  8 -1 -1</clus>
<clus scale="   89.212">  2  5  1 -1</clus>
<clus scale="  161.092">  1  9  2 -1</clus>
<clus scale="  161.092">  1  5  2 -1</clus>
</clustering>
</event>
<event>
 9    2  0.6175212E-005  0.2457581E+03  0.7546771E-02  0.1116907E+00
         21   -1    0    0  501  502  0.00000000000E+00  0.00000000000E+00  0.98571586241E+02  0.98571586241E+02  0.00000000000E+00 0.  1.
          2   -1    0    0  502    0 -0.00000000000E+00 -0.00000000000E+00 -0.11318563432E+04  0.11318563432E+04  0.00000000000E+00 0. -1.
         23    2    1    2    0    0 -0.19379792347E+03  0.14132188812E+02 -0.22835744731E+03  0.31478868963E+03  0.95851142293E+02 0.  0.
         24    2    1    2    0    0  0.26420417398E+03 -0.25149693824E+02 -0.31169476569E+03  0.41728518098E+03  0.80851361524E+02 0.  0.
        -11    1    4    4    0    0  0.21170405246E+03 -0.84250045489E+01 -0.19374633920E+03  0.28710142891E+03  0.00000000000E+00 0.  1.
         12    1    4    4    0    0  0.52500121516E+02 -0.16724689275E+02 -0.11794842649E+03  0.13018375207E+03  0.00000000000E+00 0. -1.
        -13    1    3    3    0    0 -0.75603590796E+02  0.49014350750E+02 -0.12415910605E+03  0.15340727863E+03  0.00000000000E+00 0.  1.
         13    1    3    3    0    0 -0.11819433267E+03 -0.34882161937E+02 -0.10419834126E+03  0.16138141100E+03  0.00000000000E+00 0. -1.
          1    1    1    2  501    0 -0.70406250513E+02  0.11017505012E+02 -0.49323254399E+03  0.49835405885E+03  0.00000000000E+00 0. -1.
<scales pt_clust_5="13000.00000" pt_clust_6="13000.00000" pt_clust_7="13000.00000" pt_clust_8="13000.00000" pt_clust_9="71.26311"></scales>
<clustering>
<clus scale="   71.263">  1  9  2 -1</clus>
<clus scale="   80.851">  5  6 -1 -1</clus>
<clus scale="   95.851">  7  8 -1 -1</clus>
<clus scale="  240.305">  1  5  2 -1</clus>
<clus scale="   71.263">  1  5  2 -1</clus>
</clustering>
</event>
<event>
 9    2  0.6175212E-005  0.1369012E+03  0.7546771E-02  0.1221368E+00
          2   -1    0    0  502    0 -0.00000000000E+00  0.00000000000E+00  0.46295260939E+03  0.46295260939E+03  0.00000000000E+00 0. -1.
         21   -1    0    0  501  502  0.00000000000E+00 -0.00000000000E+00 -0.60618932909E+02  0.60618932909E+02  0.00000000000E+00 0.  1.
         23    2    1    2    0    0 -0.73301706168E+02  0.81452592389E+02  0.20527866621E+03  0.25080133074E+03  0.93564479175E+02 0.  0.
         24    2    1    2    0    0  0.38196576064E+02 -0.78258282282E+02  0.59539176012E+02  0.13080832073E+03  0.77347049871E+02 0.  0.
        -13    1    4    4    0    0  0.10860265538E+02 -0.86453121289E+02  0.38021011406E+02  0.95066738961E+02  0.00000000000E+00 0.  1.
         14    1    4    4    0    0  0.27336310525E+02  0.81948390076E+01  0.21518164606E+02  0.35741581771E+02  0.00000000000E+00 0. -1.
        -11    1    3    3    0    0 -0.60251001725E+00  0.40819945744E+02  0.15706706803E+02  0.43741646373E+02  0.00000000000E+00 0.  1.
         11    1    3    3    0    0 -0.72699196151E+02  0.40632646645E+02  0.18957195941E+03  0.20705968436E+03  0.00000000000E+00 0. -1.
          1    1    1    2  501    0  0.35105130104E+02 -0.31943101067E+01  0.13751583426E+03  0.14196189083E+03  0.00000000000E+00 0. -1.
<scales pt_clust_5="13000.00000" pt_clust_6="13000.00000" pt_clust_7="13000.00000" pt_clust_8="13000.00000" pt_clust_9="35.25018"></scales>
<clustering>
<clus scale="   35.250">  2  9  1 -1</clus>
<clus scale="   77.347">  5  6 -1 -1</clus>
<clus scale="   93.564">  7  8 -1 -1</clus>
<clus scale="  126.373">  2  5  1 -1</clus>
<clus scale="   35.250">  2  5  1 -1</clus>
</clustering>
</event>
<event>
 9    2  0.6175212E-005  0.1306087E+03  0.7546771E-02  0.1228757E+00
         21   -1    0    0  501  502  0.00000000000E+00  0.00000000000E+00  0.10852848105E+03  0.10852848105E+03  0.00000000000E+00 0.  1.
         -3   -1    0    0    0  501 -0.00000000000E+00 -0.00000000000E+00 -0.23550488308E+03  0.23550488308E+03  0.00000000000E+00 0.  1.
         24    2    1    2    0    0 -0.10663760216E+03  0.69090732651E+01 -0.13700814572E+03  0.19076525095E+03  0.78745383940E+02 0.  0.
         23    2    1    2    0    0  0.70991997222E+02 -0.20707084689E+01  0.22753593746E+02  0.11511232208E+03  0.87686767324E+02 0.  0.
        -13    1    3    3    0    0 -0.11315077605E+03 -0.10940521375E+02 -0.11530437324E+03  0.16191939852E+03  0.00000000000E+00 0.  1.
         14    1    3    3    0    0  0.65131738936E+01  0.17849594640E+02 -0.21703772479E+02  0.28845852436E+02  0.00000000000E+00 0. -1.
        -13    1    4    4    0    0  0.35638082116E+02 -0.10525118992E+02  0.55096104552E+02  0.66456239462E+02  0.00000000000E+00 0.  1.
         13    1    4    4    0    0  0.35353915107E+02  0.84544105229E+01 -0.32342510806E+02  0.48656082620E+02  0.00000000000E+00 0. -1.
         -4    1    1    2    0  502  0.35645604933E+02 -0.48383647963E+01 -0.12721850062E+02  0.38155791093E+02  0.00000000000E+00 0.  1.
<scales pt_clust_5="13000.00000" pt_clust_6="13000.00000" pt_clust_7="13000.00000" pt_clust_8="13000.00000" pt_clust_9="35.97247"></scales>
<clustering>
<clus scale="   35.972">  1  9  2 -1</clus>
<clus scale="   78.745">  5  6 -1 -1</clus>
<clus scale="   87.687">  7  8 -1 -1</clus>
<clus scale="  124.782">  2  5  1 -1</clus>
<clus scale="   35.972">  1  5  2 -1</clus>
</clustering>
</event>
<event>
 9    2  0.6175212E-005  0.1027808E+03  0.7546771E-02  0.1279713E+00
         21   -1    0    0  501  502  0.00000000000E+00  0.00000000000E+00  0.16201452920E+03  0.16201452920E+03  0.00000000000E+00 0. -1.
          2   -1    0    0  502    0 -0.00000000000E+00 -0.00000000000E+00 -0.31244444305E+03  0.31244444305E+03  0.00000000000E+00 0. -1.
         24    2    1    2    0    0 -0.16477239326E+02  0.44200277655E+02 -0.18762909040E+03  0.20877270792E+03  0.78461481279E+02 0.  0.
         23    2    1    2    0    0 -0.67865943897E+02 -0.78215697584E+02 -0.43866282566E+02  0.14385675227E+03  0.89705254793E+02 0.  0.
        -11    1    3    3    0    0 -0.25429936393E+02 -0.16327257054E+02 -0.56633515029E+02  0.64192024523E+02  0.00000000000E+00 0.  1.
         12    1    3    3    0    0  0.89526970673E+01  0.60527534709E+02 -0.13099557538E+03  0.14458068339E+03  0.00000000000E+00 0. -1.
        -11    1    4    4    0    0 -0.32421480144E+02 -0.83966171767E+02 -0.55937746518E+02  0.10597406221E+03  0.00000000000E+00 0. -1.
         11    1    4    4    0    0 -0.35444463753E+02  0.57504741830E+01  0.12071463952E+02  0.37882690058E+02  0.00000000000E+00 0.  1.
          1    1    1    2  501    0  0.84343183223E+02  0.34015419929E+02  0.81065459121E+02  0.12182951207E+03  0.00000000000E+00 0. -1.
<scales pt_clust_5="13000.00000" pt_clust_6="13000.00000" pt_clust_7="13000.00000" pt_clust_8="13000.00000" pt_clust_9="90.94406"></scales>
<clustering>
<clus scale="   78.461">  5  6 -1 -1</clus>
<clus scale="   89.705">  7  8 -1 -1</clus>
<clus scale="   90.944">  1  9  2 -1</clus>
<clus scale="   93.129">  2  5  1 -1</clus>
<clus scale="   90.944">  1  5  2 -1</clus>
</clustering>
</event>
<event>
 9    2  0.6175212E-005  0.1187972E+03  0.7546771E-02  0.1248942E+00
         21   -1    0    0  501  502  0.00000000000E+00  0.00000000000E+00  0.48310638789E+02  0.48310638789E+02  0.00000000000E+00 0.  1.
          2   -1    0    0  502    0 -0.00000000000E+00 -0.00000000000E+00 -0.73986307894E+03  0.73986307894E+03  0.00000000000E+00 0. -1.
         24    2    1    2    0    0 -0.14373149390E+02 -0.83155190100E+02 -0.32698317243E+03  0.34688636141E+03  0.79314435127E+02 0.  0.
         23    2    1    2    0    0  0.63333897001E+02  0.32719892431E+02 -0.63261797429E+02  0.13188944793E+03  0.91164672938E+02 0.  0.
        -11    1    3    3    0    0 -0.66517374552E+01 -0.95608723482E+02 -0.30989189898E+03  0.32437364669E+03  0.00000000000E+00 0.  1.
         12    1    3    3    0    0 -0.77214119349E+01  0.12453533382E+02 -0.17091273454E+02  0.22512714724E+02  0.00000000000E+00 0. -1.
        -13    1    4    4    0    0  0.50977467755E+02  0.57098402303E+02 -0.17392409465E+02  0.78494749323E+02  0.00000000000E+00 0.  1.
         13    1    4    4    0    0  0.12356429246E+02 -0.24378509872E+02 -0.45869387964E+02  0.53394698609E+02  0.00000000000E+00 0. -1.
          1    1    1    2  501    0 -0.48960747611E+02  0.50435297669E+02 -0.30130747029E+03  0.30939790838E+03  0.00000000000E+00 0. -1.
<scales pt_clust_5="13000.00000" pt_clust_6="13000.00000" pt_clust_7="13000.00000" pt_clust_8="13000.00000" pt_clust_9="70.29139"></scales>
<clustering>
<clus scale="   70.291">  1  9  2 -1</clus>
<clus scale="   79.314">  5  6 -1 -1</clus>
<clus scale="   91.165">  7  8 -1 -1</clus>
<clus scale="  109.966">  2  5  1 -1</clus>
<clus scale="   70.291">  1  5  2 -1</clus>
</clustering>
</event>
<event>
 9    2  0.6175212E-005  0.1311065E+03  0.7546771E-02  0.1230258E+00
         21   -1    0    0  501  502  0.00000000000E+00  0.00000000000E+00  0.30625360287E+02  0.30625360287E+02  0.00000000000E+00 0. -1.
          2   -1    0    0  502    0 -0.00000000000E+00 -0.00000000000E+00 -0.14120167918E+04  0.14120167918E+04  0.00000000000E+00 0. -1.
         23    2    1    2    0    0 -0.29280258858E+02  0.71864090607E+02 -0.25386562551E+03  0.28062700632E+03  0.91005383266E+02 0.  0.
         24    2    1    2    0    0  0.72167275034E+02  0.59739999244E+02 -0.32880924427E+03  0.35139373067E+03  0.81148331732E+02 0.  0.
        -11    1    4    4    0    0  0.52871717875E+02 -0.62651188410E+01 -0.17480773015E+03  0.18273590995E+03  0.00000000000E+00 0.  1.
         12    1    4    4    0    0  0.19295557159E+02  0.66005118085E+02 -0.15400151412E+03  0.16865782072E+03  0.00000000000E+00 0. -1.
        -13    1    3    3    0    0 -0.95646999261E+01  0.82627842565E+02 -0.24052488073E+03  0.25450159548E+03  0.00000000000E+00 0.  1.
         13    1    3    3    0    0 -0.19715558932E+02 -0.10763751958E+02 -0.13340744774E+02  0.26125410835E+02  0.00000000000E+00 0. -1.
          1    1    1    2  501    0 -0.42887016176E+02 -0.13160408985E+03 -0.79871656171E+03  0.81062141508E+03  0.00000000000E+00 0. -1.
<scales pt_clust_5="13000.00000" pt_clust_6="13000.00000" pt_clust_7="13000.00000" pt_clust_8="13000.00000" pt_clust_9="102.97507"></scales>
<clustering>
<clus scale="   81.148">  5  6 -1 -1</clus>
<clus scale="   91.005">  7  8 -1 -1</clus>
<clus scale="  119.598">  2  7  1 -1</clus>
<clus scale="  102.975">  1  9  2 -1</clus>
<clus scale="  102.975">  1  5  2 -1</clus>
</clustering>
</event>
<event>
 9    2  0.6175212E-005  0.1014837E+03  0.7546771E-02  0.1285092E+00
         -3   -1    0    0    0  501 -0.00000000000E+00  0.00000000000E+00  0.50080519115E+03  0.50080519115E+03  0.00000000000E+00 0.  1.
         21   -1    0    0  501  502  0.00000000000E+00 -0.00000000000E+00 -0.35202012320E+02  0.35202012320E+02  0.00000000000E+00 0.  1.
         23    2    1    2    0    0 -0.67348001681E+01  0.31370270455E+02  0.25151545066E+03  0.26985317376E+03  0.92364831319E+02 0.  0.
         24    2    1    2    0    0  0.56328944113E+02 -0.43990884923E+02  0.12199845220E+03  0.16080084385E+03  0.76584209480E+02 0.  0.
        -13    1    4    4    0    0  0.70899576608E+02 -0.49153309396E+02  0.11517672216E+03  0.14390439575E+03  0.00000000000E+00 0.  1.
         14    1    4    4    0    0 -0.14570632495E+02  0.51624244725E+01  0.68217300446E+01  0.16896448104E+02  0.00000000000E+00 0. -1.
        -13    1    3    3    0    0  0.21938725519E+02  0.44019427425E+02  0.21991367998E+03  0.22534649833E+03  0.00000000000E+00 0.  1.
         13    1    3    3    0    0 -0.28673525687E+02 -0.12649156969E+02  0.31601770682E+02  0.44506675428E+02  0.00000000000E+00 0. -1.
         -4    1    1    2    0  502 -0.49594143945E+02  0.12620614468E+02  0.92089275972E+02  0.10535318587E+03  0.00000000000E+00 0.  1.
<scales pt_clust_5="13000.00000" pt_clust_6="13000.00000" pt_clust_7="13000.00000" pt_clust_8="13000.00000" pt_clust_9="51.17481"></scales>
<clustering>
<clus scale="   51.175">  2  9  1 -1</clus>
<clus scale="   76.584">  5  6 -1 -1</clus>
<clus scale="   87.366">  2  5  1 -1</clus>
<clus scale="   92.365">  7  8 -1 -1</clus>
<clus scale="   51.175">  2  5  1 -1</clus>
</clustering>
</event>
<event>
 9    2  0.6175212E-005  0.3889842E+03  0.7546771E-02  0.1047723E+00
          2   -1    0    0  502    0 -0.00000000000E+00  0.00000000000E+00  0.72358626358E+03  0.72358626358E+03  0.00000000000E+00 0. -1.
         21   -1    0    0  501  502  0.00000000000E+00 -0.00000000000E+00 -0.26315635133E+03  0.26315635133E+03  0.00000000000E+00 0. -1.
         24    2    1    2    0    0  0.37387651524E+03  0.10916171908E+03  0.38130268248E+03  0.55235082100E+03  0.89441401084E+02 0.  0.
         23    2    1    2    0    0 -0.35407542501E+03 -0.56222564673E+02  0.62252385341E+02  0.37540537498E+03  0.92322547133E+02 0.  0.
        -11    1    3    3    0    0  0.15754356789E+03  0.91975290304E+02  0.16582351218E+03  0.24652964731E+03  0.00000000000E+00 0.  1.
         12    1    3    3    0    0  0.21633294735E+03  0.17186428781E+02  0.21547917030E+03  0.30582117369E+03  0.00000000000E+00 0. -1.
        -13    1    4    4    0    0 -0.27233401127E+03 -0.62105003895E+02  0.12653167683E+02  0.27961213824E+03  0.00000000000E+00 0. -1.
         13    1    4    4    0    0 -0.81741413743E+02  0.58824392219E+01  0.49599217659E+02  0.95793236735E+02  0.00000000000E+00 0.  1.
          1    1    1    2  501    0 -0.19801090231E+02 -0.52939154411E+02  0.16874844429E+02  0.58986418934E+02  0.00000000000E+00 0. -1.
<scales pt_clust_5="13000.00000" pt_clust_6="13000.00000" pt_clust_7="13000.00000" pt_clust_8="13000.00000" pt_clust_9="56.52112"></scales>
<clustering>
<clus scale="   56.521">  2  9  1 -1</clus>
<clus scale="   89.441">  5  6 -1 -1</clus>
<clus scale="   92.323">  7  8 -1 -1</clus>
<clus scale="  388.310">  1  5  2 -1</clus>
<clus scale="   56.521">  2  5  1 -1</clus>
</clustering>
</event>
<event>
 9    2  0.6175212E-005  0.1611504E+03  0.7546771E-02  0.1188012E+00
          2   -1    0    0  502    0 -0.00000000000E+00  0.00000000000E+00  0.82087510589E+03  0.82087510589E+03  0.00000000000E+00 0. -1.
         21   -1    0    0  501  502  0.00000000000E+00 -0.00000000000E+00 -0.99085142159E+02  0.99085142159E+02  0.00000000000E+00 0.  1.
         24    2    1    2    0    0  0.11588182190E+03  0.60878852297E+02  0.59911756928E+03  0.61902857681E+03  0.84378230508E+02 0.  0.
         23    2    1    2    0    0 -0.14047770432E+03 -0.83061595019E+02  0.16612691661E+03  0.24629352521E+03  0.80181881746E+02 0.  0.
        -13    1    3    3    0    0  0.57964591131E+02 -0.89979311269E+01  0.15491105389E+03  0.16564507601E+03  0.00000000000E+00 0.  1.
         14    1    3    3    0    0  0.57917230773E+02  0.69876783424E+02  0.44420651539E+03  0.45338350080E+03  0.00000000000E+00 0. -1.
        -13    1    4    4    0    0 -0.11452578787E+03 -0.77183512441E+02  0.88002118856E+02  0.16376148388E+03  0.00000000000E+00 0.  1.
         13    1    4    4    0    0 -0.25951916453E+02 -0.58780825782E+01  0.78124797749E+02  0.82532041328E+02  0.00000000000E+00 0. -1.
          1    1    1    2  501    0  0.24595882417E+02  0.22182742722E+02 -0.43454522152E+02  0.54638146033E+02  0.00000000000E+00 0. -1.
<scales pt_clust_5="13000.00000" pt_clust_6="13000.00000" pt_clust_7="13000.00000" pt_clust_8="13000.00000" pt_clust_9="33.12147"></scales>
<clustering>
<clus scale="   33.121">  2  9  1 -1</clus>
<clus scale="   80.182">  7  8 -1 -1</clus>
<clus scale="   84.378">  5  6 -1 -1</clus>
<clus scale="  158.993">  2  7  1 -1</clus>
<clus scale="   33.121">  2  5  1 -1</clus>
</clustering>
</event>
<event>
 9    2  0.6175212E-005  0.1521701E+03  0.7546771E-02  0.1204314E+00
         21   -1    0    0  501  502  0.00000000000E+00  0.00000000000E+00  0.71432182937E+02  0.71432182937E+02  0.00000000000E+00 0. -1.
          2   -1    0    0  502    0 -0.00000000000E+00 -0.00000000000E+00 -0.72119996032E+03  0.72119996032E+03  0.00000000000E+00 0. -1.
         24    2    1    2    0    0  0.34022383162E+02  0.99844510757E+02 -0.34881933078E+03  0.37303676503E+03  0.79718590388E+02 0.  0.
         23    2    1    2    0    0 -0.82344431250E+02  0.45542189245E+02 -0.18501956349E+03  0.22747089044E+03  0.93038007091E+02 0.  0.
        -13    1    3    3    0    0  0.18610170187E+02  0.17176479482E+02 -0.16460636196E+02  0.30204675561E+02  0.00000000000E+00 0.  1.
         14    1    3    3    0    0  0.15412212975E+02  0.82668031276E+02 -0.33235869458E+03  0.34283208946E+03  0.00000000000E+00 0. -1.
        -13    1    4    4    0    0  0.13070967886E+02  0.31475883623E+02 -0.33016647155E+02  0.47451874996E+02  0.00000000000E+00 0.  1.
         13    1    4    4    0    0 -0.95415399136E+02  0.14066305622E+02 -0.15200291633E+03  0.18001901544E+03  0.00000000000E+00 0. -1.
          1    1    1    2  501    0  0.48322048088E+02 -0.14538670000E+03 -0.11592888312E+03  0.19212448779E+03  0.00000000000E+00 0. -1.
<scales pt_clust_5="13000.00000" pt_clust_6="13000.00000" pt_clust_7="13000.00000" pt_clust_8="13000.00000" pt_clust_9="120.41463"></scales>
<clustering>
<clus scale="   79.719">  5  6 -1 -1</clus>
<clus scale="   93.038">  7  8 -1 -1</clus>
<clus scale="  132.218">  2  5  1 -1</clus>
<clus scale="  120.415">  1  9  2 -1</clus>
<clus scale="  120.415">  1  5  2 -1</clus>
</clustering>
</event>
<event>
 9    2  0.6175212E-005  0.1004625E+03  0.7546771E-02  0.1285364E+00
         -3   -1    0    0    0  501 -0.00000000000E+00  0.00000000000E+00  0.46465668904E+02  0.46465668904E+02  0.00000000000E+00 0.  1.
         21   -1    0    0  501  502  0.00000000000E+00 -0.00000000000E+00 -0.69471116137E+03  0.69471116137E+03  0.00000000000E+00 0.  1.
         24    2    1    2    0    0 -0.32967219196E+02 -0.41388240057E+02 -0.40161908903E+02  0.10355841069E+03  0.79445210939E+02 0.  0.
         23    2    1    2    0    0 -0.48926192322E+02  0.21288772118E+02 -0.29790199629E+03  0.31617925498E+03  0.91524520047E+02 0.  0.
        -13    1    3    3    0    0 -0.42021897877E+02 -0.29994188229E+02  0.88942366159E+01  0.52388917470E+02  0.00000000000E+00 0.  1.
         14    1    3    3    0    0  0.90546786806E+01 -0.11394051828E+02 -0.49056145519E+02  0.51169493219E+02  0.00000000000E+00 0. -1.
        -11    1    4    4    0    0 -0.75728554108E+02  0.18591948890E+02 -0.23925795560E+03  0.25164428027E+03  0.00000000000E+00 0.  1.
         11    1    4    4    0    0  0.26802361785E+02  0.26968232271E+01 -0.58644040685E+02  0.64534974709E+02  0.00000000000E+00 0. -1.
         -4    1    1    2    0  502  0.81893411519E+02  0.20099467939E+02 -0.31018158727E+03  0.32143916461E+03  0.00000000000E+00 0.  1.
<scales pt_clust_5="13000.00000" pt_clust_6="13000.00000" pt_clust_7="13000.00000" pt_clust_8="13000.00000" pt_clust_9="84.32390"></scales>
<clustering>
<clus scale="   79.445">  5  6 -1 -1</clus>
<clus scale="   84.324">  2  9  1 -1</clus>
<clus scale="   89.596">  1  5  2 -1</clus>
<clus scale="   91.525">  7  8 -1 -1</clus>
<clus scale="   84.324">  2  5  1 -1</clus>
</clustering>
</event>
<event>
 9    2  0.6175212E-005  0.8717191E+02  0.7546771E-02  0.1315145E+00
          2   -1    0    0  502    0 -0.00000000000E+00  0.00000000000E+00  0.11594185659E+03  0.11594185659E+03  0.00000000000E+00 0. -1.
         21   -1    0    0  501  502  0.00000000000E+00 -0.00000000000E+00 -0.10686564836E+03  0.10686564836E+03  0.00000000000E+00 0. -1.
         24    2    1    2    0    0  0.17076464570E+02 -0.15506108246E+01  0.54510194008E+02  0.96964752998E+02  0.78337679549E+02 0.  0.
         23    2    1    2    0    0  0.16656911155E+01 -0.98064422400E+01 -0.14833881800E+02  0.88204773555E+02  0.86377642896E+02 0.  0.
        -11    1    3    3    0    0 -0.14542226252E+02  0.27962050966E+02  0.40873517477E+02  0.51613923214E+02  0.00000000000E+00 0.  1.
         12    1    3    3    0    0  0.31618690823E+02 -0.29512661790E+02  0.13636676530E+02  0.45350829784E+02  0.00000000000E+00 0. -1.
        -13    1    4    4    0    0 -0.34497847622E+02  0.33132015121E+01  0.16692463282E+02  0.38467091458E+02  0.00000000000E+00 0.  1.
         13    1    4    4    0    0  0.36163538737E+02 -0.13119643752E+02 -0.31526345082E+02  0.49737682097E+02  0.00000000000E+00 0. -1.
          1    1    1    2  501    0 -0.18742155686E+02  0.11357053065E+02 -0.30600103980E+02  0.37637978395E+02  0.00000000000E+00 0. -1.
<scales pt_clust_5="13000.00000" pt_clust_6="13000.00000" pt_clust_7="13000.00000" pt_clust_8="13000.00000" pt_clust_9="21.91463"></scales>
<clustering>
<clus scale="   21.915">  2  9  1 -1</clus>
<clus scale="   78.338">  5  6 -1 -1</clus>
<clus scale="   79.213">  1  5  2 -1</clus>
<clus scale="   86.378">  7  8 -1 -1</clus>
<clus scale="   21.915">  2  5  1 -1</clus>
</clustering>
</event>
<event>
 9    2  0.6175212E-005  0.1096223E+03  0.7546771E-02  0.1267566E+00
          2   -1    0    0  502    0 -0.00000000000E+00  0.00000000000E+00  0.68066740745E+03  0.68066740745E+03  0.00000000000E+00 0. -1.
         21   -1    0    0  501  502  0.00000000000E+00 -0.00000000000E+00 -0.30380811060E+02  0.30380811060E+02  0.00000000000E+00 0.  1.
         24    2    1    2    0    0  0.37476446826E+02 -0.77757560663E+01  0.25599780137E+03  0.27115437385E+03  0.80776690358E+02 0.  0.
         23    2    1    2    0    0 -0.91553804596E+02  0.87211215147E+01  0.21512092188E+03  0.25274048213E+03  0.95616856149E+02 0.  0.
        -13    1    3    3    0    0 -0.20255355319E+02  0.17042816565E+02  0.70927043520E+02  0.75705894870E+02  0.00000000000E+00 0.  1.
         14    1    3    3    0    0  0.57731802145E+02 -0.24818572631E+02  0.18507075785E+03  0.19544847898E+03  0.00000000000E+00 0. -1.
        -13    1    4    4    0    0 -0.88535115852E+02 -0.20479104571E+02  0.10542441276E+03  0.13918393322E+03  0.00000000000E+00 0.  1.
         13    1    4    4    0    0 -0.30186887443E+01  0.29200226086E+02  0.10969650912E+03  0.11355654890E+03  0.00000000000E+00 0. -1.
          1    1    1    2  501    0  0.54077357770E+02 -0.94536544838E+00  0.17916787314E+03  0.18715336253E+03  0.00000000000E+00 0. -1.
<scales pt_clust_5="13000.00000" pt_clust_6="13000.00000" pt_clust_7="13000.00000" pt_clust_8="13000.00000" pt_clust_9="54.08565"></scales>
<clustering>
<clus scale="   54.086">  2  9  1 -1</clus>
<clus scale="   80.777">  5  6 -1 -1</clus>
<clus scale="   95.617">  7  8 -1 -1</clus>
<clus scale="   96.950">  1  5  2 -1</clus>
<clus scale="   54.086">  2  5  1 -1</clus>
</clustering>
</event>
<event>
 9    2  0.6175212E-005  0.1650841E+03  0.7546771E-02  0.1188348E+00
         21   -1    0    0  501  502  0.00000000000E+00  0.00000000000E+00  0.92964301406E+02  0.92964301406E+02  0.00000000000E+00 0. -1.
          4   -1    0    0  502    0 -0.00000000000E+00 -0.00000000000E+00 -0.40165244542E+03  0.40165244542E+03  0.00000000000E+00 0. -1.
         23    2    1    2    0    0  0.12497443177E+03 -0.40184437938E+02 -0.16171717305E+03  0.23519844814E+03  0.10923583797E+03 0.  0.
         24    2    1    2    0    0 -0.12049351768E+03 -0.19191321199E+02 -0.67799717127E+02  0.16035444657E+03  0.78928779783E+02 0.  0.
        -11    1    4    4    0    0 -0.14817169331E+02 -0.33197511192E+02 -0.30380485151E+02  0.47377179468E+02  0.00000000000E+00 0.  1.
         12    1    4    4    0    0 -0.10567634835E+03  0.14006189993E+02 -0.37419231975E+02  0.11297726710E+03  0.00000000000E+00 0. -1.
        -13    1    3    3    0    0  0.48252360767E+02 -0.45368722443E+02 -0.12596878721E+02  0.67418785581E+02  0.00000000000E+00 0. -1.
         13    1    3    3    0    0  0.76722071004E+02  0.51842845055E+01 -0.14912029433E+03  0.16777966256E+03  0.00000000000E+00 0.  1.
          3    1    1    2  501    0 -0.44809140877E+01  0.59375759137E+02 -0.79171253830E+02  0.99063852121E+02  0.00000000000E+00 0. -1.
<scales pt_clust_5="13000.00000" pt_clust_6="13000.00000" pt_clust_7="13000.00000" pt_clust_8="13000.00000" pt_clust_9="59.54463"></scales>
<clustering>
<clus scale="   59.545">  1  9  2 -1</clus>
<clus scale="   78.929">  5  6 -1 -1</clus>
<clus scale="  109.236">  7  8 -1 -1</clus>
<clus scale="  146.799">  1  5  2 -1</clus>
<clus scale="   59.545">  1  5  2 -1</clus>
</clustering>
</event>
<event>
 9    2  0.6175212E-005  0.1489931E+03  0.7546771E-02  0.1221395E+00
          2   -1    0    0  502    0 -0.00000000000E+00  0.00000000000E+00  0.83646907066E+02  0.83646907066E+02  0.00000000000E+00 0. -1.
         21   -1    0    0  501  502  0.00000000000E+00 -0.00000000000E+00 -0.43148730117E+03  0.43148730117E+03  0.00000000000E+00 0. -1.
         24    2    1    2    0    0 -0.43377730909E+02 -0.32187674232E+02 -0.10490203724E+03  0.14354245103E+03  0.81745482572E+02 0.  0.
         23    2    1    2    0    0  0.13216441725E+03  0.85548428231E+02 -0.16308927839E+03  0.24080062190E+03  0.81245676940E+02 0.  0.
        -13    1    3    3    0    0 -0.47484609334E+02  0.21926192185E+01 -0.19483707564E+02  0.51373247542E+02  0.00000000000E+00 0.  1.
         14    1    3    3    0    0  0.41068784244E+01 -0.34380293450E+02 -0.85418329672E+02  0.92169203491E+02  0.00000000000E+00 0. -1.
        -13    1    4    4    0    0  0.65280370752E+02  0.86104226509E+02 -0.11875146257E+03  0.16055333846E+03  0.00000000000E+00 0. -1.
         13    1    4    4    0    0  0.66884046503E+02 -0.55579827726E+00 -0.44337815829E+02  0.80247283448E+02  0.00000000000E+00 0.  1.
          1    1    1    2  501    0 -0.88786686345E+02 -0.53360754000E+02 -0.79849078475E+02  0.13079113530E+03  0.00000000000E+00 0. -1.
<scales pt_clust_5="13000.00000" pt_clust_6="13000.00000" pt_clust_7="13000.00000" pt_clust_8="13000.00000" pt_clust_9="124.89228"></scales>
<clustering>
<clus scale="   81.246">  7  8 -1 -1</clus>
<clus scale="   81.745">  5  6 -1 -1</clus>
<clus scale="   97.980">  1  5  2 -1</clus>
<clus scale="  124.892">  2  9  1 -1</clus>
<clus scale="  124.892">  2  5  1 -1</clus>
</clustering>
</event>
<event>
 9    2  0.6175212E-005  0.8837751E+02  0.7546771E-02  0.1312087E+00
         21   -1    0    0  501  502  0.00000000000E+00  0.00000000000E+00  0.37392259687E+02  0.37392259687E+02  0.00000000000E+00 0.  1.
          2   -1    0    0  502    0 -0.00000000000E+00 -0.00000000000E+00 -0.47247729992E+03  0.47247729992E+03  0.00000000000E+00 0. -1.
         23    2    1    2    0    0 -0.16737415347E+02  0.11461561752E+02 -0.21153114678E+03  0.22955970865E+03  0.86837349744E+02 0.  0.
         24    2    1    2    0    0 -0.52151755026E+02 -0.11869297582E+02 -0.16238981631E+03  0.18818532449E+03  0.78629371954E+02 0.  0.
        -13    1    4    4    0    0 -0.13691541397E+02  0.28107614170E+02 -0.25040796620E+02  0.40056682033E+02  0.00000000000E+00 0.  1.
         14    1    4    4    0    0 -0.38460213629E+02 -0.39976911752E+02 -0.13734901969E+03  0.14812864246E+03  0.00000000000E+00 0. -1.
        -11    1    3    3    0    0 -0.44920403360E+00  0.48071413678E+02 -0.13248984476E+03  0.14094190847E+03  0.00000000000E+00 0. -1.
         11    1    3    3    0    0 -0.16288211314E+02 -0.36609851926E+02 -0.79041302013E+02  0.88617800185E+02  0.00000000000E+00 0.  1.
          1    1    1    2  501    0  0.68889170374E+02  0.40773583015E+00 -0.61164077143E+02  0.92124526463E+02  0.00000000000E+00 0. -1.
<scales pt_clust_5="13000.00000" pt_clust_6="13000.00000" pt_clust_7="13000.00000" pt_clust_8="13000.00000" pt_clust_9="68.89038"></scales>
<clustering>
<clus scale="   68.890">  1  9  2 -1</clus>
<clus scale="   78.629">  5  6 -1 -1</clus>
<clus scale="   80.327">  1  5  2 -1</clus>
<clus scale="   86.837">  7  8 -1 -1</clus>
<clus scale="   68.890">  1  5  2 -1</clus>
</clustering>
</event>
<event>
 9    2  0.6175212E-005  0.1863732E+03  0.7546771E-02  0.1194622E+00
          2   -1    0    0  502    0 -0.00000000000E+00  0.00000000000E+00  0.21549183188E+03  0.21549183188E+03  0.00000000000E+00 0. -1.
         21   -1    0    0  501  502  0.00000000000E+00 -0.00000000000E+00 -0.41535962426E+03  0.41535962426E+03  0.00000000000E+00 0. -1.
         24    2    1    2    0    0 -0.37211500246E+02 -0.94300705227E+01  0.86341025804E+02  0.12388833374E+03  0.80124431481E+02 0.  0.
         23    2    1    2    0    0  0.13205042427E+03  0.13444084252E+03 -0.36511864052E+02  0.21205519857E+03  0.90125669686E+02 0.  0.
        -13    1    3    3    0    0 -0.38007406314E+02 -0.17549744105E+01  0.85781545931E+00  0.38057571090E+02  0.00000000000E+00 0.  1.
         14    1    3    3    0    0  0.79590606798E+00 -0.76750961122E+01  0.85483210344E+02  0.85830762653E+02  0.00000000000E+00 0. -1.
        -13    1    4    4    0    0  0.23378920960E+02  0.87032821414E+02 -0.20456183089E+02  0.92410721105E+02  0.00000000000E+00 0. -1.
         13    1    4    4    0    0  0.10867150331E+03  0.47408021111E+02 -0.16055680963E+02  0.11964447747E+03  0.00000000000E+00 0.  1.
          1    1    1    2  501    0 -0.94838924026E+02 -0.12501077200E+03 -0.24969695413E+03  0.29490792382E+03  0.00000000000E+00 0. -1.
<scales pt_clust_5="13000.00000" pt_clust_6="13000.00000" pt_clust_7="13000.00000" pt_clust_8="13000.00000" pt_clust_9="163.13284"></scales>
<clustering>
<clus scale="   80.124">  5  6 -1 -1</clus>
<clus scale="   88.846">  1  5  2 -1</clus>
<clus scale="   90.126">  7  8 -1 -1</clus>
<clus scale="  163.133">  2  9  1 -1</clus>
<clus scale="  163.133">  2  5  1 -1</clus>
</clustering>
</event>
<event>
 9    2  0.6175212E-005  0.1554102E+03  0.7546771E-02  0.1218138E+00
         21   -1    0    0  501  502  0.00000000000E+00  0.00000000000E+00  0.37865101054E+03  0.37865101054E+03  0.00000000000E+00 0. -1.
          2   -1    0    0  502    0 -0.00000000000E+00 -0.00000000000E+00 -0.17282286237E+03  0.17282286237E+03  0.00000000000E+00 0. -1.
         24    2    1    2    0    0 -0.44706198655E+01 -0.47060934420E+01 -0.49580457462E+02  0.10490457775E+03  0.92220469061E+02 0.  0.
         23    2    1    2    0    0  0.78221342463E+02 -0.99391575443E+02 -0.69635445300E+01  0.15482516252E+03  0.89022897681E+02 0.  0.
        -11    1    3    3    0    0  0.86283254166E+01  0.27369282540E+02  0.14428535774E+02  0.32120215922E+02  0.00000000000E+00 0.  1.
         12    1    3    3    0    0 -0.13098945282E+02 -0.32075375982E+02 -0.64008993236E+02  0.72784361830E+02  0.00000000000E+00 0. -1.
        -13    1    4    4    0    0  0.42700288056E+02 -0.49370497505E+01  0.24048414657E+02  0.49254596819E+02  0.00000000000E+00 0.  1.
         13    1    4    4    0    0  0.35521054407E+02 -0.94454525692E+02 -0.31011959187E+02  0.10557056570E+03  0.00000000000E+00 0. -1.
          1    1    1    2  501    0 -0.73750722598E+02  0.10409766888E+03  0.26237215015E+03  0.29174413264E+03  0.00000000000E+00 0. -1.
<scales pt_clust_5="13000.00000" pt_clust_6="13000.00000" pt_clust_7="13000.00000" pt_clust_8="13000.00000" pt_clust_9="127.38628"></scales>
<clustering>
<clus scale="   89.023">  7  8 -1 -1</clus>
<clus scale="   92.220">  5  6 -1 -1</clus>
<clus scale="   92.449">  2  5  1 -1</clus>
<clus scale="  127.386">  1  9  2 -1</clus>
<clus scale="  127.386">  1  5  2 -1</clus>
</clustering>
</event>
<event>
 9    2  0.6175212E-005  0.8226052E+02  0.7546771E-02  0.1325294E+00
         21   -1    0    0  501  502  0.00000000000E+00  0.00000000000E+00  0.69497281070E+02  0.69497281070E+02  0.00000000000E+00 0. -1.
         -3   -1    0    0    0  501 -0.00000000000E+00 -0.00000000000E+00 -0.28325004007E+03  0.28325004007E+03  0.00000000000E+00 0.  1.
         23    2    1    2    0    0 -0.21077901079E+02 -0.17110862320E+02 -0.12085174469E+03  0.14582863961E+03  0.76966151083E+02 0.  0.
         24    2    1    2    0    0 -0.12664877068E+02 -0.30499844631E+02  0.10895192780E+02  0.87843045484E+02  0.80666323708E+02 0.  0.
        -13    1    4    4    0    0  0.34050658556E+02 -0.12276926227E+02 -0.13651299315E+01  0.36222007749E+02  0.00000000000E+00 0.  1.
         14    1    4    4    0    0 -0.46715535624E+02 -0.18222918404E+02  0.12260322711E+02  0.51621037735E+02  0.00000000000E+00 0. -1.
        -13    1    3    3    0    0 -0.47388933592E+02 -0.18331962613E+02 -0.54864996755E+02  0.74779273526E+02  0.00000000000E+00 0.  1.
         13    1    3    3    0    0  0.26311032512E+02  0.12211002931E+01 -0.65986747935E+02  0.71049366083E+02  0.00000000000E+00 0. -1.
         -4    1    1    2    0  502  0.33742778147E+02  0.47610706951E+02 -0.10379620709E+03  0.11907563604E+03  0.00000000000E+00 0.  1.
<scales pt_clust_5="13000.00000" pt_clust_6="13000.00000" pt_clust_7="13000.00000" pt_clust_8="13000.00000" pt_clust_9="58.35544"></scales>
<clustering>
<clus scale="   58.355">  1  9  2 -1</clus>
<clus scale="   76.966">  7  8 -1 -1</clus>
<clus scale="   78.635">  2  7  1 -1</clus>
<clus scale="   80.666">  5  6 -1 -1</clus>
<clus scale="   58.355">  1  5  2 -1</clus>
</clustering>
</event>
<event>
 9    2  0.6175212E-005  0.1296395E+03  0.7546771E-02  0.1229977E+00
         21   -1    0    0  501  502  0.00000000000E+00  0.00000000000E+00  0.31095325869E+02  0.31095325869E+02  0.00000000000E+00 0. -1.
          2   -1    0    0  502    0 -0.00000000000E+00 -0.00000000000E+00 -0.88890797954E+03  0.88890797954E+03  0.00000000000E+00 0. -1.
         24    2    1    2    0    0  0.40988760552E+02  0.97501949197E+02 -0.51598042032E+03  0.53321332016E+03  0.83029766075E+02 0.  0.
         23    2    1    2    0    0 -0.59095182648E+02 -0.43593116699E+02 -0.17322894675E+03  0.20885439860E+03  0.90660307675E+02 0.  0.
        -13    1    3    3    0    0  0.50908048712E+02  0.58180254584E+02 -0.19635883388E+03  0.21102929439E+03  0.00000000000E+00 0.  1.
         14    1    3    3    0    0 -0.99192881599E+01  0.39321694613E+02 -0.31962158644E+03  0.32218402577E+03  0.00000000000E+00 0. -1.
        -11    1    4    4    0    0 -0.42599813168E+02  0.20611142944E+02 -0.49472752138E+02  0.68462518939E+02  0.00000000000E+00 0. -1.
         11    1    4    4    0    0 -0.16495369480E+02 -0.64204259643E+02 -0.12375619461E+03  0.14039187966E+03  0.00000000000E+00 0.  1.
          1    1    1    2  501    0  0.18106422095E+02 -0.53908832498E+02 -0.16860328660E+03  0.17793558665E+03  0.00000000000E+00 0. -1.
<scales pt_clust_5="13000.00000" pt_clust_6="13000.00000" pt_clust_7="13000.00000" pt_clust_8="13000.00000" pt_clust_9="56.86834"></scales>
<clustering>
<clus scale="   56.868">  1  9  2 -1</clus>
<clus scale="   83.030">  5  6 -1 -1</clus>
<clus scale="   90.660">  7  8 -1 -1</clus>
<clus scale="  124.423">  2  5  1 -1</clus>
<clus scale="   56.868">  1  5  2 -1</clus>
</clustering>
</event>
<event>
 9    2  0.6175212E-005  0.1144354E+03  0.7546771E-02  0.1256422E+00
         21   -1    0    0  501  502  0.00000000000E+00  0.00000000000E+00  0.43644698444E+03  0.43644698444E+03  0.00000000000E+00 0. -1.
          2   -1    0    0  502    0 -0.00000000000E+00 -0.00000000000E+00 -0.97843125975E+02  0.97843125975E+02  0.00000000000E+00 0. -1.
         23    2    1    2    0    0 -0.35997309617E+02 -0.59127767588E+02 -0.47072237431E+02  0.12351713538E+03  0.90822838522E+02 0.  0.
         24    2    1    2    0    0  0.13563834217E+02  0.76636943715E+02  0.32797449200E+03  0.34643552746E+03  0.79956916810E+02 0.  0.
        -11    1    4    4    0    0  0.23529643875E+02 -0.91257182732E+01  0.75396917274E+02  0.79508603366E+02  0.00000000000E+00 0.  1.
         12    1    4    4    0    0 -0.99658096578E+01  0.85762661988E+02  0.25257757472E+03  0.26692692409E+03  0.00000000000E+00 0. -1.
        -11    1    3    3    0    0 -0.20961091358E+02 -0.91871673753E+01  0.25425296285E+02  0.34208435897E+02  0.00000000000E+00 0.  1.
         11    1    3    3    0    0 -0.15036218259E+02 -0.49940600213E+02 -0.72497533717E+02  0.89308699488E+02  0.00000000000E+00 0. -1.
          1    1    1    2  501    0  0.22433475400E+02 -0.17509176127E+02  0.57701603897E+02  0.64337447567E+02  0.00000000000E+00 0. -1.
<scales pt_clust_5="13000.00000" pt_clust_6="13000.00000" pt_clust_7="13000.00000" pt_clust_8="13000.00000" pt_clust_9="28.45755"></scales>
<clustering>
<clus scale="   28.458">  1  9  2 -1</clus>
<clus scale="   79.957">  5  6 -1 -1</clus>
<clus scale="   90.823">  7  8 -1 -1</clus>
<clus scale="  106.018">  1  5  2 -1</clus>
<clus scale="   28.458">  1  5  2 -1</clus>
</clustering>
</event>
<event>
 9    2  0.6175212E-005  0.1735169E+03  0.7546771E-02  0.1191063E+00
         21   -1    0    0  501  502  0.00000000000E+00  0.00000000000E+00  0.69337465382E+02  0.69337465382E+02  0.00000000000E+00 0. -1.
          2   -1    0    0  502    0 -0.00000000000E+00 -0.00000000000E+00 -0.76028209719E+03  0.76028209719E+03  0.00000000000E+00 0. -1.
         24    2    1    2    0    0  0.19720318136E+02 -0.83825827444E+02 -0.24959780239E+03  0.27653700444E+03  0.82207004385E+02 0.  0.
         23    2    1    2    0    0 -0.12793838214E+03  0.13885420094E+03 -0.24716564003E+03  0.32407250251E+03  0.91013265675E+02 0.  0.
        -11    1    3    3    0    0 -0.25202283821E+02 -0.38624770556E+02 -0.16049662484E+03  0.16699160037E+03  0.00000000000E+00 0.  1.
         12    1    3    3    0    0  0.44922601957E+02 -0.45201056888E+02 -0.89101177556E+02  0.10954540407E+03  0.00000000000E+00 0. -1.
        -13    1    4    4    0    0 -0.60869930268E+02  0.60957377988E+02 -0.18466853670E+03  0.20377295892E+03  0.00000000000E+00 0.  1.
         13    1    4    4    0    0 -0.67068451872E+02  0.77896822952E+02 -0.62497103332E+02  0.12029954359E+03  0.00000000000E+00 0. -1.
          1    1    1    2  501    0  0.10821806400E+03 -0.55028373496E+02 -0.19418118939E+03  0.22901005563E+03  0.00000000000E+00 0. -1.
<scales pt_clust_5="13000.00000" pt_clust_6="13000.00000" pt_clust_7="13000.00000" pt_clust_8="13000.00000" pt_clust_9="147.73189"></scales>
<clustering>
<clus scale="   82.207">  5  6 -1 -1</clus>
<clus scale="   91.013">  7  8 -1 -1</clus>
<clus scale="  119.053">  2  5  1 -1</clus>
<clus scale="  147.732">  1  9  2 -1</clus>
<clus scale="  147.732">  1  5  2 -1</clus>
</clustering>
</event>
<event>
 9    2  0.6175212E-005  0.1070556E+03  0.7546771E-02  0.1277012E+00
         21   -1    0    0  501  502  0.00000000000E+00  0.00000000000E+00  0.25188521952E+03  0.25188521952E+03  0.00000000000E+00 0.  1.
          2   -1    0    0  502    0 -0.00000000000E+00 -0.00000000000E+00 -0.10218319007E+04  0.10218319007E+04  0.00000000000E+00 0. -1.
         24    2    1    2    0    0  0.31050046421E+02 -0.90778321129E+01 -0.99846563681E+03  0.10022214652E+04  0.80422166865E+02 0.  0.
         23    2    1    2    0    0 -0.48030661771E+02  0.27889325636E+02  0.15459696625E+03  0.19335044335E+03  0.10197751230E+03 0.  0.
        -13    1    3    3    0    0  0.34957168965E+02  0.15770545578E+02 -0.21778806104E+03  0.22113876481E+03  0.00000000000E+00 0.  1.
         14    1    3    3    0    0 -0.39071225442E+01 -0.24848377691E+02 -0.78067757577E+03  0.78108270035E+03  0.00000000000E+00 0. -1.
        -11    1    4    4    0    0 -0.25706441851E+02 -0.55542254235E+01  0.15067121067E+03  0.15294928669E+03  0.00000000000E+00 0.  1.
         11    1    4    4    0    0 -0.22324219920E+02  0.33443551060E+02  0.39257555751E+01  0.40401156658E+02  0.00000000000E+00 0. -1.
          1    1    1    2  501    0  0.16980615350E+02 -0.18811493523E+02  0.73921989426E+02  0.78145211670E+02  0.00000000000E+00 0. -1.
<scales pt_clust_5="13000.00000" pt_clust_6="13000.00000" pt_clust_7="13000.00000" pt_clust_8="13000.00000" pt_clust_9="25.34193"></scales>
<clustering>
<clus scale="   25.342">  1  9  2 -1</clus>
<clus scale="   80.422">  5  6 -1 -1</clus>
<clus scale="   86.771">  2  5  1 -1</clus>
<clus scale="  101.978">  7  8 -1 -1</clus>
<clus scale="   25.342">  1  5  2 -1</clus>
</clustering>
</event>
<event>
 9    2  0.6175212E-005  0.2097558E+03  0.7546771E-02  0.1182407E+00
         21   -1    0    0  501  502  0.00000000000E+00  0.00000000000E+00  0.53034230276E+03  0.53034230276E+03  0.00000000000E+00 0. -1.
         -3   -1    0    0    0  501 -0.00000000000E+00 -0.00000000000E+00 -0.14056833611E+03  0.14056833611E+03  0.00000000000E+00 0.  1.
         24    2    1    2    0    0  0.12762573065E+02  0.10472916760E+02  0.17223500741E+03  0.19062491850E+03  0.80002478205E+02 0.  0.
         23    2    1    2    0    0  0.23467903685E+02 -0.17903422929E+03  0.22304105467E+03  0.30778691869E+03  0.11127208763E+03 0.  0.
        -13    1    3    3    0    0 -0.28729168506E+02 -0.13283257085E+02  0.91205238913E+02  0.96541212169E+02  0.00000000000E+00 0.  1.
         14    1    3    3    0    0  0.41491741571E+02  0.23756173846E+02  0.81029768500E+02  0.94083706334E+02  0.00000000000E+00 0. -1.
        -13    1    4    4    0    0 -0.64500068896E+01 -0.15833285500E+03  0.22020438499E+03  0.27129479672E+03  0.00000000000E+00 0. -1.
         13    1    4    4    0    0  0.29917910575E+02 -0.20701374286E+02  0.28366696832E+01  0.36492121963E+02  0.00000000000E+00 0.  1.
         -4    1    1    2    0  502 -0.36230476750E+02  0.16856131253E+03 -0.55020954319E+01  0.17249880168E+03  0.00000000000E+00 0.  1.
<scales pt_clust_5="13000.00000" pt_clust_6="13000.00000" pt_clust_7="13000.00000" pt_clust_8="13000.00000" pt_clust_9="177.80907"></scales>
<clustering>
<clus scale="   80.002">  5  6 -1 -1</clus>
<clus scale="   81.688">  2  5  1 -1</clus>
<clus scale="  111.272">  7  8 -1 -1</clus>
<clus scale="  177.809">  1  9  2 -1</clus>
<clus scale="  177.809">  1  5  2 -1</clus>
</clustering>
</event>
<event>
 9    2  0.6175212E-005  0.9966064E+02  0.7546771E-02  0.1288532E+00
          2   -1    0    0  502    0 -0.00000000000E+00  0.00000000000E+00  0.52019741190E+03  0.52019741190E+03  0.00000000000E+00 0. -1.
         21   -1    0    0  501  502  0.00000000000E+00 -0.00000000000E+00 -0.51073752626E+02  0.51073752626E+02  0.00000000000E+00 0.  1.
         24    2    1    2    0    0 -0.24081507152E+02  0.28070630574E+00  0.42389552190E+03  0.43251405583E+03  0.82468158837E+02 0.  0.
         23    2    1    2    0    0  0.41333035910E+02  0.16813923371E+02  0.42729490364E+02  0.11434225982E+03  0.96214422819E+02 0.  0.
        -11    1    3    3    0    0  0.28517565539E+01  0.25072284942E+02  0.42953274119E+02  0.49817022645E+02  0.00000000000E+00 0.  1.
         12    1    3    3    0    0 -0.26933263706E+02 -0.24791578636E+02  0.38094224778E+03  0.38269703319E+03  0.00000000000E+00 0. -1.
        -11    1    4    4    0    0  0.32045381981E+02 -0.34689819124E+02  0.71793219496E+00  0.47231403577E+02  0.00000000000E+00 0.  1.
         11    1    4    4    0    0  0.92876539287E+01  0.51503742495E+02  0.42011558169E+02  0.67110856248E+02  0.00000000000E+00 0. -1.
          1    1    1    2  501    0 -0.17251528758E+02 -0.17094629677E+02  0.24986470048E+01  0.24414848865E+02  0.00000000000E+00 0. -1.
<scales pt_clust_5="13000.00000" pt_clust_6="13000.00000" pt_clust_7="13000.00000" pt_clust_8="13000.00000" pt_clust_9="24.28665"></scales>
<clustering>
<clus scale="   24.287">  2  9  1 -1</clus>
<clus scale="   82.468">  5  6 -1 -1</clus>
<clus scale="   86.464">  1  5  2 -1</clus>
<clus scale="   96.214">  7  8 -1 -1</clus>
<clus scale="   24.287">  2  5  1 -1</clus>
</clustering>
</event>
<event>
 9    2  0.6175212E-005  0.9676253E+02  0.7546771E-02  0.1293626E+00
         21   -1    0    0  501  502  0.00000000000E+00  0.00000000000E+00  0.32016828935E+02  0.32016828935E+02  0.00000000000E+00 0. -1.
          2   -1    0    0  502    0 -0.00000000000E+00 -0.00000000000E+00 -0.46543757315E+03  0.46543757315E+03  0.00000000000E+00 0. -1.
         23    2    1    2    0    0 -0.27719832907E+02 -0.24923345284E+02 -0.28789943472E+03  0.30449128907E+03  0.91865653701E+02 0.  0.
         24    2    1    2    0    0  0.22650595682E+02  0.55051983230E+01 -0.15059391699E+03  0.17226304190E+03  0.80328519706E+02 0.  0.
        -13    1    4    4    0    0  0.51944852930E+02  0.80664115273E-01 -0.77159647743E+02  0.93015512107E+02  0.00000000000E+00 0.  1.
         14    1    4    4    0    0 -0.29294257248E+02  0.54245342077E+01 -0.73434269246E+02  0.79247529796E+02  0.00000000000E+00 0. -1.
        -11    1    3    3    0    0 -0.39264915999E+02  0.24967825116E+02 -0.11178420013E+03  0.12108192812E+03  0.00000000000E+00 0.  1.
         11    1    3    3    0    0  0.11545083092E+02 -0.49891170400E+02 -0.17611523459E+03  0.18340936095E+03  0.00000000000E+00 0. -1.
          1    1    1    2  501    0  0.50692372243E+01  0.19418146961E+02  0.50726074925E+01  0.20700071116E+02  0.00000000000E+00 0. -1.
<scales pt_clust_5="13000.00000" pt_clust_6="13000.00000" pt_clust_7="13000.00000" pt_clust_8="13000.00000" pt_clust_9="20.06892"></scales>
<clustering>
<clus scale="   20.069">  1  9  2 -1</clus>
<clus scale="   80.329">  5  6 -1 -1</clus>
<clus scale="   85.886">  1  5  2 -1</clus>
<clus scale="   91.866">  7  8 -1 -1</clus>
<clus scale="   20.069">  1  5  2 -1</clus>
</clustering>
</event>
<event>
 9    2  0.6175212E-005  0.9124255E+02  0.7546771E-02  0.1312378E+00
         21   -1    0    0  501  502  0.00000000000E+00  0.00000000000E+00  0.13041424914E+02  0.13041424914E+02  0.00000000000E+00 0. -1.
          2   -1    0    0  502    0 -0.00000000000E+00 -0.00000000000E+00 -0.11930924305E+04  0.11930924305E+04  0.00000000000E+00 0. -1.
         24    2    1    2    0    0  0.79690446881E+01  0.17403397112E+00 -0.78811806721E+03  0.79148709756E+03  0.72513459236E+02 0.  0.
         23    2    1    2    0    0  0.25126566805E+02  0.18609554079E+02 -0.30162756865E+03  0.31665082692E+03  0.91164116592E+02 0.  0.
        -11    1    3    3    0    0 -0.27224241130E+02 -0.86083397477E+00 -0.15384640507E+03  0.15623897303E+03  0.00000000000E+00 0.  1.
         12    1    3    3    0    0  0.35193285819E+02  0.10348679459E+01 -0.63427166214E+03  0.63524812452E+03  0.00000000000E+00 0. -1.
        -11    1    4    4    0    0  0.58782065640E+02  0.26290395614E+01 -0.19623465521E+03  0.20486650042E+03  0.00000000000E+00 0. -1.
         11    1    4    4    0    0 -0.33655498836E+02  0.15980514518E+02 -0.10539291345E+03  0.11178432650E+03  0.00000000000E+00 0.  1.
          1    1    1    2  501    0 -0.33095611493E+02 -0.18783588050E+02 -0.90305369698E+02  0.97995930918E+02  0.00000000000E+00 0. -1.
<scales pt_clust_5="13000.00000" pt_clust_6="13000.00000" pt_clust_7="13000.00000" pt_clust_8="13000.00000" pt_clust_9="38.05447"></scales>
<clustering>
<clus scale="   38.054">  1  9  2 -1</clus>
<clus scale="   72.513">  5  6 -1 -1</clus>
<clus scale="   72.612">  2  5  1 -1</clus>
<clus scale="   91.164">  7  8 -1 -1</clus>
<clus scale="   38.054">  1  5  2 -1</clus>
</clustering>
</event>
<event>
 9    2  0.6175212E-005  0.1149374E+03  0.7546771E-02  0.1255553E+00
         21   -1    0    0  501  502  0.00000000000E+00  0.00000000000E+00  0.24500648167E+02  0.24500648167E+02  0.00000000000E+00 0.  1.
          2   -1    0    0  502    0 -0.00000000000E+00 -0.00000000000E+00 -0.13125661740E+04  0.13125661740E+04  0.00000000000E+00 0. -1.
         23    2    1    2    0    0  0.55083314486E+01  0.58586776610E+02 -0.28070373553E+03  0.30127646201E+03  0.92250568086E+02 0.  0.
         24    2    1    2    0    0  0.78255012522E+02 -0.60732369018E+02 -0.34337682206E+03  0.36653933146E+03  0.81432008120E+02 0.  0.
        -11    1    4    4    0    0  0.39442621202E+02 -0.70931762387E+02 -0.28000259792E+03  0.29152785480E+03  0.00000000000E+00 0.  1.
         12    1    4    4    0    0  0.38812391320E+02  0.10199393369E+02 -0.63374224144E+02  0.75011476662E+02  0.00000000000E+00 0. -1.
        -11    1    3    3    0    0  0.47521202039E+02  0.38771478377E+02 -0.13342209047E+03  0.14684327156E+03  0.00000000000E+00 0.  1.
         11    1    3    3    0    0 -0.42012870590E+02  0.19815298233E+02 -0.14728164506E+03  0.15443319044E+03  0.00000000000E+00 0. -1.
          1    1    1    2  501    0 -0.83763343971E+02  0.21455924078E+01 -0.66398496827E+03  0.66925102872E+03  0.00000000000E+00 0. -1.
<scales pt_clust_5="13000.00000" pt_clust_6="13000.00000" pt_clust_7="13000.00000" pt_clust_8="13000.00000" pt_clust_9="83.79086"></scales>
<clustering>
<clus scale="   81.432">  5  6 -1 -1</clus>
<clus scale="   83.791">  1  9  2 -1</clus>
<clus scale="   92.251">  7  8 -1 -1</clus>
<clus scale="  106.450">  1  5  2 -1</clus>
<clus scale="   83.791">  1  5  2 -1</clus>
</clustering>
</event>
<event>
 9    2  0.6175212E-005  0.1237613E+03  0.7546771E-02  0.1240476E+00
          2   -1    0    0  502    0 -0.00000000000E+00  0.00000000000E+00  0.38842107888E+03  0.38842107888E+03  0.00000000000E+00 0. -1.
         21   -1    0    0  501  502  0.00000000000E+00 -0.00000000000E+00 -0.69622258837E+02  0.69622258837E+02  0.00000000000E+00 0. -1.
         24    2    1    2    0    0 -0.79513305579E+02  0.17566248630E+02  0.20876592397E+03  0.23822759707E+03  0.80859372594E+02 0.  0.
         23    2    1    2    0    0  0.85838080127E+02  0.77233056479E+01  0.13413809617E+03  0.18431045934E+03  0.92463458343E+02 0.  0.
        -13    1    3    3    0    0 -0.39728036821E+02 -0.30856029048E+02  0.72512499364E+02  0.88252331427E+02  0.00000000000E+00 0.  1.
         14    1    3    3    0    0 -0.39785268758E+02  0.48422277678E+02  0.13625342461E+03  0.14997526564E+03  0.00000000000E+00 0. -1.
        -13    1    4    4    0    0  0.30131724259E+02  0.31630841375E+02  0.80695699280E+01  0.44424642843E+02  0.00000000000E+00 0.  1.
         13    1    4    4    0    0  0.55706355868E+02 -0.23907535727E+02  0.12606852625E+03  0.13988581650E+03  0.00000000000E+00 0. -1.
          1    1    1    2  501    0 -0.63247745473E+01 -0.25289554278E+02 -0.24105200104E+02  0.35505281307E+02  0.00000000000E+00 0. -1.
<scales pt_clust_5="13000.00000" pt_clust_6="13000.00000" pt_clust_7="13000.00000" pt_clust_8="13000.00000" pt_clust_9="26.06845"></scales>
<clustering>
<clus scale="   26.068">  2  9  1 -1</clus>
<clus scale="   80.859">  5  6 -1 -1</clus>
<clus scale="   92.463">  7  8 -1 -1</clus>
<clus scale="  115.350">  1  5  2 -1</clus>
<clus scale="   26.068">  2  5  1 -1</clus>
</clustering>
</event>
<event>
 9    2  0.6175212E-005  0.1623834E+03  0.7546771E-02  0.1201351E+00
          2   -1    0    0  502    0 -0.00000000000E+00  0.00000000000E+00  0.17552066194E+04  0.17552066194E+04  0.00000000000E+00 0. -1.
         21   -1    0    0  501  502  0.00000000000E+00 -0.00000000000E+00 -0.34656293224E+02  0.34656293224E+02  0.00000000000E+00 0. -1.
         24    2    1    2    0    0  0.16930541668E+02  0.88237307215E+02  0.97116085261E+03  0.97806439382E+03  0.73376366778E+02 0.  0.
         23    2    1    2    0    0 -0.29188920092E+02  0.89246162826E+02  0.34760814067E+03  0.37239108890E+03  0.95009646880E+02 0.  0.
        -13    1    3    3    0    0  0.20173532198E+02 -0.15420871065E+01  0.85612852700E+02  0.87971074686E+02  0.00000000000E+00 0.  1.
         14    1    3    3    0    0 -0.32429905301E+01  0.89779394321E+02  0.88554799991E+03  0.89009331914E+03  0.00000000000E+00 0. -1.
        -11    1    4    4    0    0 -0.46693548378E+02  0.10169413372E+03  0.29876200548E+03  0.31903090793E+03  0.00000000000E+00 0. -1.
         11    1    4    4    0    0  0.17504628287E+02 -0.12447970899E+02  0.48846135188E+02  0.53360180976E+02  0.00000000000E+00 0.  1.
          1    1    1    2  501    0  0.12258378424E+02 -0.17748347004E+03  0.40178133286E+03  0.43940742986E+03  0.00000000000E+00 0. -1.
<scales pt_clust_5="13000.00000" pt_clust_6="13000.00000" pt_clust_7="13000.00000" pt_clust_8="13000.00000" pt_clust_9="131.68739"></scales>
<clustering>
<clus scale="   73.376">  5  6 -1 -1</clus>
<clus scale="   95.010">  7  8 -1 -1</clus>
<clus scale="  116.002">  1  5  2 -1</clus>
<clus scale="  131.687">  2  9  1 -1</clus>
<clus scale="  131.687">  2  5  1 -1</clus>
</clustering>
</event>
<event>
 9    2  0.6175212E-005  0.2024795E+03  0.7546771E-02  0.1164412E+00
         21   -1    0    0  501  502  0.00000000000E+00  0.00000000000E+00  0.14091020547E+03  0.14091020547E+03  0.00000000000E+00 0.  1.
         -1   -1    0    0    0  501 -0.00000000000E+00 -0.00000000000E+00 -0.77661153077E+03  0.77661153077E+03  0.00000000000E+00 0.  1.
         24    2    1    2    0    0 -0.60669144715E+02 -0.92872035097E+02  0.31255128892E+02  0.14025809082E+03  0.79934278857E+02 0.  0.
         23    2    1    2    0    0 -0.10464675302E+03  0.16640724131E+03 -0.38385110551E+03  0.44127940315E+03  0.93506831665E+02 0.  0.
        -13    1    3    3    0    0 -0.45536731691E+02 -0.10286979792E+03  0.10945841532E+02  0.11302920288E+03  0.00000000000E+00 0.  1.
         14    1    3    3    0    0 -0.15132413023E+02  0.99977628257E+01  0.20309287360E+02  0.27228887941E+02  0.00000000000E+00 0. -1.
        -11    1    4    4    0    0 -0.18461297016E+01  0.29839287901E+02 -0.12363819440E+02  0.32352052925E+02  0.00000000000E+00 0. -1.
         11    1    4    4    0    0 -0.10280062332E+03  0.13656795341E+03 -0.37148728607E+03  0.40892735023E+03  0.00000000000E+00 0.  1.
         -2    1    1    2    0  502  0.16531589774E+03 -0.73535206218E+02 -0.28310534868E+03  0.33598424226E+03  0.00000000000E+00 0.  1.
<scales pt_clust_5="13000.00000" pt_clust_6="13000.00000" pt_clust_7="13000.00000" pt_clust_8="13000.00000" pt_clust_9="179.59513"></scales>
<clustering>
<clus scale="   79.934">  5  6 -1 -1</clus>
<clus scale="   93.507">  7  8 -1 -1</clus>
<clus scale="  136.731">  2  5  1 -1</clus>
<clus scale="  179.595">  1  9  2 -1</clus>
<clus scale="  179.595">  1  5  2 -1</clus>
</clustering>
</event>
<event>
 9    2  0.6175212E-005  0.1786934E+03  0.7546771E-02  0.1193364E+00
         21   -1    0    0  501  502  0.00000000000E+00  0.00000000000E+00  0.19928005704E+03  0.19928005704E+03  0.00000000000E+00 0.  1.
         -1   -1    0    0    0  501 -0.00000000000E+00 -0.00000000000E+00 -0.39437380469E+03  0.39437380469E+03  0.00000000000E+00 0.  1.
         23    2    1    2    0    0  0.39006568282E+02  0.14412142087E+02  0.86014667431E+02  0.13467014860E+03  0.94912084071E+02 0.  0.
         24    2    1    2    0    0 -0.18524400460E+01  0.15427192866E+03 -0.72870288746E+02  0.18843267870E+03  0.79959589244E+02 0.  0.
        -11    1    4    4    0    0  0.29602672101E+02  0.10073103178E+03 -0.70161979758E+02  0.12627653132E+03  0.00000000000E+00 0.  1.
         12    1    4    4    0    0 -0.31455112147E+02  0.53540896881E+02 -0.27083089877E+01  0.62156147375E+02  0.00000000000E+00 0. -1.
        -13    1    3    3    0    0  0.43947498537E+02  0.48295545874E+02  0.37535884282E+02  0.75317892879E+02  0.00000000000E+00 0. -1.
         13    1    3    3    0    0 -0.49409302544E+01 -0.33883403786E+02  0.48478783149E+02  0.59352255724E+02  0.00000000000E+00 0.  1.
         -2    1    1    2    0  502 -0.37154128236E+02 -0.16868407075E+03 -0.20823812634E+03  0.27055103443E+03  0.00000000000E+00 0.  1.
<scales pt_clust_5="13000.00000" pt_clust_6="13000.00000" pt_clust_7="13000.00000" pt_clust_8="13000.00000" pt_clust_9="159.80562"></scales>
<clustering>
<clus scale="   79.960">  5  6 -1 -1</clus>
<clus scale="   94.912">  7  8 -1 -1</clus>
<clus scale="  103.622">  2  7  1 -1</clus>
<clus scale="  159.806">  1  9  2 -1</clus>
<clus scale="  159.806">  1  5  2 -1</clus>
</clustering>
</event>
<event>
 9    2  0.6175212E-005  0.9583037E+02  0.7546771E-02  0.1297572E+00
         21   -1    0    0  501  502  0.00000000000E+00  0.00000000000E+00  0.34347751176E+02  0.34347751176E+02  0.00000000000E+00 0. -1.
          2   -1    0    0  502    0 -0.00000000000E+00 -0.00000000000E+00 -0.33700955225E+03  0.33700955225E+03  0.00000000000E+00 0. -1.
         24    2    1    2    0    0  0.88661016030E+01  0.97392522478E+00 -0.15622846995E+03  0.17592658879E+03  0.80394486970E+02 0.  0.
         23    2    1    2    0    0 -0.23659269818E+02 -0.25291025864E+02 -0.12085991020E+03  0.15716638310E+03  0.94312019628E+02 0.  0.
        -13    1    3    3    0    0 -0.12200242904E+02 -0.33073400746E+02 -0.10591151085E+03  0.11162411879E+03  0.00000000000E+00 0.  1.
         14    1    3    3    0    0  0.21066344507E+02  0.34047325971E+02 -0.50316959095E+02  0.64302470009E+02  0.00000000000E+00 0. -1.
        -11    1    4    4    0    0  0.32921981835E+02 -0.61302637858E-01 -0.19184337222E+02  0.38103798244E+02  0.00000000000E+00 0.  1.
         11    1    4    4    0    0 -0.56581251653E+02 -0.25229723226E+02 -0.10167557298E+03  0.11906258486E+03  0.00000000000E+00 0. -1.
          1    1    1    2  501    0  0.14793168215E+02  0.24317100639E+02 -0.25573420923E+02  0.38264331524E+02  0.00000000000E+00 0. -1.
<scales pt_clust_5="13000.00000" pt_clust_6="13000.00000" pt_clust_7="13000.00000" pt_clust_8="13000.00000" pt_clust_9="28.46330"></scales>
<clustering>
<clus scale="   28.463">  1  9  2 -1</clus>
<clus scale="   80.394">  5  6 -1 -1</clus>
<clus scale="   82.170">  2  5  1 -1</clus>
<clus scale="   94.312">  7  8 -1 -1</clus>
<clus scale="   28.463">  1  5  2 -1</clus>
</clustering>
</event>
<event>
 9    2  0.6175212E-005  0.1207830E+03  0.7546771E-02  0.1246905E+00
         21   -1    0    0  501  502  0.00000000000E+00  0.00000000000E+00  0.16342083332E+03  0.16342083332E+03  0.00000000000E+00 0. -1.
          2   -1    0    0  502    0 -0.00000000000E+00 -0.00000000000E+00 -0.53430294652E+03  0.53430294652E+03  0.00000000000E+00 0. -1.
         24    2    1    2    0    0  0.27791746168E+02 -0.73374402869E+02 -0.49929592208E+03  0.51122696483E+03  0.76814110754E+02 0.  0.
         23    2    1    2    0    0 -0.13141967079E+02  0.54439083383E+02  0.88358184195E+02  0.13983188792E+03  0.92787192361E+02 0.  0.
        -13    1    3    3    0    0  0.41842951941E+02 -0.10885587000E+02 -0.25684855071E+03  0.26046210210E+03  0.00000000000E+00 0.  1.
         14    1    3    3    0    0 -0.14051205773E+02 -0.62488815870E+02 -0.24244737137E+03  0.25076486273E+03  0.00000000000E+00 0. -1.
        -13    1    4    4    0    0 -0.50657556911E+02  0.25230480555E+02  0.67019415007E+02  0.87717542197E+02  0.00000000000E+00 0.  1.
         13    1    4    4    0    0  0.37515589831E+02  0.29208602827E+02  0.21338769189E+02  0.52114345722E+02  0.00000000000E+00 0. -1.
          1    1    1    2  501    0 -0.14649779089E+02  0.18935319486E+02  0.40055624684E+02  0.46664927089E+02  0.00000000000E+00 0. -1.
<scales pt_clust_5="13000.00000" pt_clust_6="13000.00000" pt_clust_7="13000.00000" pt_clust_8="13000.00000" pt_clust_9="23.94081"></scales>
<clustering>
<clus scale="   23.941">  1  9  2 -1</clus>
<clus scale="   76.814">  5  6 -1 -1</clus>
<clus scale="   92.787">  7  8 -1 -1</clus>
<clus scale="  108.993">  2  5  1 -1</clus>
<clus scale="   23.941">  1  5  2 -1</clus>
</clustering>
</event>
<event>
 9    2  0.6175212E-005  0.1255931E+03  0.7546771E-02  0.1249676E+00
         -3   -1    0    0    0  501 -0.00000000000E+00  0.00000000000E+00  0.18803156163E+03  0.18803156163E+03  0.00000000000E+00 0.  1.
         21   -1    0    0  501  502  0.00000000000E+00 -0.00000000000E+00 -0.17696650193E+03  0.17696650193E+03  0.00000000000E+00 0.  1.
         24    2    1    2    0    0  0.10518710475E+02 -0.46586860964E+02  0.68006942523E+02  0.11417245081E+03  0.78290647007E+02 0.  0.
         23    2    1    2    0    0  0.39436036622E+02 -0.61155138313E+02 -0.64426119094E+02  0.13183053319E+03  0.89069707162E+02 0.  0.
        -11    1    3    3    0    0  0.36965589223E+02 -0.40868453112E+02  0.67463200328E+02  0.87108946985E+02  0.00000000000E+00 0.  1.
         12    1    3    3    0    0 -0.26446878748E+02 -0.57184078520E+01  0.54374219522E+00  0.27063503828E+02  0.00000000000E+00 0. -1.
        -11    1    4    4    0    0  0.42870118351E+02  0.96393030037E+01 -0.20929037082E+02  0.48670194195E+02  0.00000000000E+00 0. -1.
         11    1    4    4    0    0 -0.34340817290E+01 -0.70794441316E+02 -0.43497082012E+02  0.83160338997E+02  0.00000000000E+00 0.  1.
         -4    1    1    2    0  502 -0.49954747097E+02  0.10774199928E+03  0.74842362664E+01  0.11899507955E+03  0.00000000000E+00 0.  1.
<scales pt_clust_5="13000.00000" pt_clust_6="13000.00000" pt_clust_7="13000.00000" pt_clust_8="13000.00000" pt_clust_9="88.54502"></scales>
<clustering>
<clus scale="   78.291">  5  6 -1 -1</clus>
<clus scale="   89.070">  7  8 -1 -1</clus>
<clus scale="   91.708">  1  5  2 -1</clus>
<clus scale="   88.545">  2  9  1 -1</clus>
<clus scale="   88.545">  2  5  1 -1</clus>
</clustering>
</event>
<event>
 9    2  0.6175212E-005  0.1678548E+03  0.7546771E-02  0.1181733E+00
          2   -1    0    0  502    0 -0.00000000000E+00  0.00000000000E+00  0.14084177758E+04  0.14084177758E+04  0.00000000000E+00 0. -1.
         21   -1    0    0  501  502  0.00000000000E+00 -0.00000000000E+00 -0.27946193207E+02  0.27946193207E+02  0.00000000000E+00 0. -1.
         24    2    1    2    0    0 -0.95741285154E+02  0.12203079148E+03  0.88050515440E+03  0.89820593647E+03  0.86178127371E+02 0.  0.
         23    2    1    2    0    0  0.80624191180E+02 -0.71379477427E+02  0.33746823279E+03  0.36727870185E+03  0.97023433720E+02 0.  0.
        -13    1    3    3    0    0 -0.39869938009E+02  0.65677771373E+02  0.22164494686E+03  0.23458402349E+03  0.00000000000E+00 0.  1.
         14    1    3    3    0    0 -0.55871347145E+02  0.56353020106E+02  0.65886020755E+03  0.66362191299E+03  0.00000000000E+00 0. -1.
        -11    1    4    4    0    0 -0.16717521252E+02 -0.30767652451E+02  0.49753034345E+02  0.60839858487E+02  0.00000000000E+00 0.  1.
         11    1    4    4    0    0  0.97341712432E+02 -0.40611824976E+02  0.28771519844E+03  0.30643884336E+03  0.00000000000E+00 0. -1.
          1    1    1    2  501    0  0.15117093974E+02 -0.50651314052E+02  0.16249819543E+03  0.17087933071E+03  0.00000000000E+00 0. -1.
<scales pt_clust_5="13000.00000" pt_clust_6="13000.00000" pt_clust_7="13000.00000" pt_clust_8="13000.00000" pt_clust_9="52.85908"></scales>
<clustering>
<clus scale="   52.859">  2  9  1 -1</clus>
<clus scale="   86.178">  5  6 -1 -1</clus>
<clus scale="   97.023">  7  8 -1 -1</clus>
<clus scale="  161.828">  1  5  2 -1</clus>
<clus scale="   52.859">  2  5  1 -1</clus>
</clustering>
</event>
<event>
 9    2  0.6175212E-005  0.9656616E+02  0.7546771E-02  0.1295016E+00
         21   -1    0    0  501  502  0.00000000000E+00  0.00000000000E+00  0.40768719525E+03  0.40768719525E+03  0.00000000000E+00 0. -1.
         -1   -1    0    0    0  501 -0.00000000000E+00 -0.00000000000E+00 -0.31099261951E+02  0.31099261951E+02  0.00000000000E+00 0.  1.
         24    2    1    2    0    0  0.20287249133E+02 -0.17182275370E+02  0.12941779514E+03  0.15415976408E+03  0.79432135169E+02 0.  0.
         23    2    1    2    0    0 -0.25727957357E+00  0.37779784801E+02  0.23099734758E+03  0.25165676394E+03  0.92433618964E+02 0.  0.
        -11    1    3    3    0    0  0.37538053388E+02 -0.26987210094E+02  0.35828585972E+02  0.58490191773E+02  0.00000000000E+00 0.  1.
         12    1    3    3    0    0 -0.17250804256E+02  0.98049347244E+01  0.93589209168E+02  0.95669572305E+02  0.00000000000E+00 0. -1.
        -13    1    4    4    0    0 -0.33785748416E+02  0.16377373086E+02  0.33899853419E+02  0.50585523691E+02  0.00000000000E+00 0.  1.
         13    1    4    4    0    0  0.33528468843E+02  0.21402411714E+02  0.19709749416E+03  0.20107124025E+03  0.00000000000E+00 0. -1.
         -2    1    1    2    0  502 -0.20029969559E+02 -0.20597509431E+02  0.16172790580E+02  0.32969929184E+02  0.00000000000E+00 0.  1.
<scales pt_clust_5="13000.00000" pt_clust_6="13000.00000" pt_clust_7="13000.00000" pt_clust_8="13000.00000" pt_clust_9="28.73078"></scales>
<clustering>
<clus scale="   28.731">  1  9  2 -1</clus>
<clus scale="   79.432">  5  6 -1 -1</clus>
<clus scale="   84.205">  2  5  1 -1</clus>
<clus scale="   92.434">  7  8 -1 -1</clus>
<clus scale="   28.731">  1  5  2 -1</clus>
</clustering>
</event>
<event>
 9    2  0.6175212E-005  0.9806108E+02  0.7546771E-02  0.1295033E+00
          4   -1    0    0  502    0 -0.00000000000E+00  0.00000000000E+00  0.48651661057E+03  0.48651661057E+03  0.00000000000E+00 0. -1.
         21   -1    0    0  501  502  0.00000000000E+00 -0.00000000000E+00 -0.32728211052E+02  0.32728211052E+02  0.00000000000E+00 0.  1.
         23    2    1    2    0    0 -0.33800149103E+01  0.16932617166E+02  0.15569956133E+03  0.18466630889E+03  0.97781154710E+02 0.  0.
         24    2    1    2    0    0 -0.19284899467E+02  0.19551667142E+02  0.95995351736E+02  0.12797120741E+03  0.80045907677E+02 0.  0.
        -13    1    4    4    0    0 -0.28601685120E+02  0.26882837280E+02  0.10563461388E+03  0.11269168107E+03  0.00000000000E+00 0.  1.
         14    1    4    4    0    0  0.93167856529E+01 -0.73311701385E+01 -0.96392621472E+01  0.15279526342E+02  0.00000000000E+00 0. -1.
        -11    1    3    3    0    0 -0.41330223153E+02 -0.20364377323E+02  0.73514660361E+02  0.86760016699E+02  0.00000000000E+00 0.  1.
         11    1    3    3    0    0  0.37950208243E+02  0.37296994490E+02  0.82184900969E+02  0.97906292192E+02  0.00000000000E+00 0. -1.
          3    1    1    2  501    0  0.22664914377E+02 -0.36484284308E+02  0.20209348645E+03  0.20660730532E+03  0.00000000000E+00 0. -1.
<scales pt_clust_5="13000.00000" pt_clust_6="13000.00000" pt_clust_7="13000.00000" pt_clust_8="13000.00000" pt_clust_9="42.95117"></scales>
<clustering>
<clus scale="   42.951">  2  9  1 -1</clus>
<clus scale="   80.046">  5  6 -1 -1</clus>
<clus scale="   80.388">  2  5  1 -1</clus>
<clus scale="   97.781">  7  8 -1 -1</clus>
<clus scale="   42.951">  2  5  1 -1</clus>
</clustering>
</event>
<event>
 9    2  0.6175212E-005  0.1456241E+03  0.7546771E-02  0.1208070E+00
         21   -1    0    0  501  502  0.00000000000E+00  0.00000000000E+00  0.17583494885E+03  0.17583494885E+03  0.00000000000E+00 0. -1.
          2   -1    0    0  502    0 -0.00000000000E+00 -0.00000000000E+00 -0.52973336393E+03  0.52973336393E+03  0.00000000000E+00 0. -1.
         23    2    1    2    0    0 -0.71028930710E+02 -0.69850778718E+02 -0.31773261142E+03  0.34528063163E+03  0.91326129533E+02 0.  0.
         24    2    1    2    0    0  0.66388144465E+02  0.16295262986E+03 -0.12590244052E+03  0.23089619928E+03  0.80626825608E+02 0.  0.
        -11    1    4    4    0    0 -0.12398098078E+02  0.72645814165E+02 -0.46811246113E+02  0.87306471205E+02  0.00000000000E+00 0.  1.
         12    1    4    4    0    0  0.78786242542E+02  0.90306815698E+02 -0.79091194407E+02  0.14358972807E+03  0.00000000000E+00 0. -1.
        -11    1    3    3    0    0 -0.34489650765E+02 -0.70433867184E+02 -0.11446461936E+03  0.13875379181E+03  0.00000000000E+00 0.  1.
         11    1    3    3    0    0 -0.36539279945E+02  0.58308846590E+00 -0.20326799206E+03  0.20652683982E+03  0.00000000000E+00 0. -1.
          1    1    1    2  501    0  0.46407862457E+01 -0.93101851145E+02  0.89736636859E+02  0.12939148186E+03  0.00000000000E+00 0. -1.
<scales pt_clust_5="13000.00000" pt_clust_6="13000.00000" pt_clust_7="13000.00000" pt_clust_8="13000.00000" pt_clust_9="93.21744"></scales>
<clustering>
<clus scale="   80.627">  5  6 -1 -1</clus>
<clus scale="   91.326">  7  8 -1 -1</clus>
<clus scale="   93.217">  1  9  2 -1</clus>
<clus scale="  139.164">  1  5  2 -1</clus>
<clus scale="   93.217">  1  5  2 -1</clus>
</clustering>
</event>
<event>
 9    2  0.6175212E-005  0.9700385E+02  0.7546771E-02  0.1292004E+00
         21   -1    0    0  501  502  0.00000000000E+00  0.00000000000E+00  0.35683819718E+03  0.35683819718E+03  0.00000000000E+00 0. -1.
          2   -1    0    0  502    0 -0.00000000000E+00 -0.00000000000E+00 -0.28440082477E+03  0.28440082477E+03  0.00000000000E+00 0. -1.
         24    2    1    2    0    0  0.46072854823E+02 -0.37186573129E+01 -0.24185236002E+03  0.25852142118E+03  0.78766901677E+02 0.  0.
         23    2    1    2    0    0  0.33193433036E+02 -0.17951875288E+02  0.55838423408E+02  0.11151687159E+03  0.88848237442E+02 0.  0.
        -11    1    3    3    0    0 -0.10950756264E+02  0.23674773169E+02 -0.48310650158E+02  0.54902940413E+02  0.00000000000E+00 0.  1.
         12    1    3    3    0    0  0.57023611087E+02 -0.27393430482E+02 -0.19354170986E+03  0.20361848077E+03  0.00000000000E+00 0. -1.
        -11    1    4    4    0    0 -0.13689907425E+02  0.19691623576E+02 -0.65606781617E+01  0.24863951865E+02  0.00000000000E+00 0.  1.
         11    1    4    4    0    0  0.46883340461E+02 -0.37643498864E+02  0.62399101570E+02  0.86652919721E+02  0.00000000000E+00 0. -1.
          1    1    1    2  501    0 -0.79266287859E+02  0.21670532601E+02  0.25845130902E+03  0.27120072918E+03  0.00000000000E+00 0. -1.
<scales pt_clust_5="13000.00000" pt_clust_6="13000.00000" pt_clust_7="13000.00000" pt_clust_8="13000.00000" pt_clust_9="82.17516"></scales>
<clustering>
<clus scale="   78.767">  5  6 -1 -1</clus>
<clus scale="   82.175">  1  9  2 -1</clus>
<clus scale="   87.863">  2  5  1 -1</clus>
<clus scale="   88.848">  7  8 -1 -1</clus>
<clus scale="   82.175">  1  5  2 -1</clus>
</clustering>
</event>
<event>
 9    2  0.6175212E-005  0.2058393E+03  0.7546771E-02  0.1146200E+00
         21   -1    0    0  501  502  0.00000000000E+00  0.00000000000E+00  0.62832580900E+02  0.62832580900E+02  0.00000000000E+00 0. -1.
          2   -1    0    0  502    0 -0.00000000000E+00 -0.00000000000E+00 -0.86762638708E+03  0.86762638708E+03  0.00000000000E+00 0. -1.
         23    2    1    2    0    0  0.50361070525E+02 -0.14637719858E+03 -0.26370071083E+03  0.32037413615E+03  0.95598119916E+02 0.  0.
         24    2    1    2    0    0 -0.69471630118E+02  0.19841126044E+03 -0.41234995674E+03  0.46991510322E+03  0.81205798731E+02 0.  0.
        -13    1    4    4    0    0 -0.41647614138E+02  0.33356714508E+02 -0.63175371707E+02  0.82694145842E+02  0.00000000000E+00 0.  1.
         14    1    4    4    0    0 -0.27824015980E+02  0.16505454593E+03 -0.34917458503E+03  0.38722095737E+03  0.00000000000E+00 0. -1.
        -11    1    3    3    0    0  0.70576240634E+02 -0.62907530696E+02 -0.15866382454E+03  0.18469589161E+03  0.00000000000E+00 0.  1.
         11    1    3    3    0    0 -0.20215170109E+02 -0.83469667882E+02 -0.10503688629E+03  0.13567824454E+03  0.00000000000E+00 0. -1.
          1    1    1    2  501    0  0.19110559593E+02 -0.52034061858E+02 -0.12874313861E+03  0.14016972862E+03  0.00000000000E+00 0. -1.
<scales pt_clust_5="13000.00000" pt_clust_6="13000.00000" pt_clust_7="13000.00000" pt_clust_8="13000.00000" pt_clust_9="55.43248"></scales>
<clustering>
<clus scale="   55.432">  1  9  2 -1</clus>
<clus scale="   81.206">  5  6 -1 -1</clus>
<clus scale="   95.598">  7  8 -1 -1</clus>
<clus scale="  199.563">  1  5  2 -1</clus>
<clus scale="   55.432">  1  5  2 -1</clus>
</clustering>
</event>
<event>
 9    2  0.6175212E-005  0.9547898E+02  0.7546771E-02  0.1299337E+00
         21   -1    0    0  501  502  0.00000000000E+00  0.00000000000E+00  0.53285644553E+02  0.53285644553E+02  0.00000000000E+00 0. -1.
          2   -1    0    0  502    0 -0.00000000000E+00 -0.00000000000E+00 -0.22381728304E+03  0.22381728304E+03  0.00000000000E+00 0. -1.
         24    2    1    2    0    0 -0.10010397312E+01 -0.18244923481E+02 -0.72072886935E+02  0.10948831362E+03  0.80369835605E+02 0.  0.
         23    2    1    2    0    0 -0.25037432794E+01 -0.19260371541E+02 -0.63845369943E+02  0.11645782708E+03  0.95440890515E+02 0.  0.
        -13    1    3    3    0    0 -0.28891856127E+02 -0.16411577472E+02 -0.74357644563E+02  0.81444082232E+02  0.00000000000E+00 0.  1.
         14    1    3    3    0    0  0.27890816396E+02 -0.18333460082E+01  0.22847576288E+01  0.28044231389E+02  0.00000000000E+00 0. -1.
        -13    1    4    4    0    0  0.40155089691E+02 -0.65572058599E+01 -0.59022256383E+02  0.71687201964E+02  0.00000000000E+00 0.  1.
         13    1    4    4    0    0 -0.42658832971E+02 -0.12703165682E+02 -0.48231135602E+01  0.44770625115E+02  0.00000000000E+00 0. -1.
          1    1    1    2  501    0  0.35047830107E+01  0.37505295022E+02 -0.34613381605E+02  0.51156786889E+02  0.00000000000E+00 0. -1.
<scales pt_clust_5="13000.00000" pt_clust_6="13000.00000" pt_clust_7="13000.00000" pt_clust_8="13000.00000" pt_clust_9="37.66871"></scales>
<clustering>
<clus scale="   37.669">  1  9  2 -1</clus>
<clus scale="   80.370">  5  6 -1 -1</clus>
<clus scale="   80.415">  2  5  1 -1</clus>
<clus scale="   95.441">  7  8 -1 -1</clus>
<clus scale="   37.669">  1  5  2 -1</clus>
</clustering>
</event>
<event>
 9    2  0.6175212E-005  0.3256918E+03  0.7546771E-02  0.1116608E+00
         21   -1    0    0  501  502  0.00000000000E+00  0.00000000000E+00  0.12498881652E+03  0.12498881652E+03  0.00000000000E+00 0. -1.
          2   -1    0    0  502    0 -0.00000000000E+00 -0.00000000000E+00 -0.11461404167E+04  0.11461404167E+04  0.00000000000E+00 0. -1.
         24    2    1    2    0    0 -0.31382279264E+01 -0.66210317925E+02 -0.10041932752E+03  0.14458569073E+03  0.80170605274E+02 0.  0.
         23    2    1    2    0    0  0.74069331573E+02  0.33283566739E+03 -0.37479376382E+03  0.51484986599E+03  0.91291684971E+02 0.  0.
        -13    1    3    3    0    0 -0.30612002191E+02 -0.68052854480E+02 -0.60368628676E+02  0.95982587010E+02  0.00000000000E+00 0.  1.
         14    1    3    3    0    0  0.27473774265E+02  0.18425365545E+01 -0.40050698845E+02  0.48603103720E+02  0.00000000000E+00 0. -1.
        -13    1    4    4    0    0  0.16076670312E+02  0.18769248065E+03 -0.14873631064E+03  0.24001961738E+03  0.00000000000E+00 0.  1.
         13    1    4    4    0    0  0.57992661261E+02  0.14514318674E+03 -0.22605745318E+03  0.27483024862E+03  0.00000000000E+00 0. -1.
          1    1    1    2  501    0 -0.70931103646E+02 -0.26662534947E+03 -0.54593850886E+03  0.61169367652E+03  0.00000000000E+00 0. -1.
<scales pt_clust_5="13000.00000" pt_clust_6="13000.00000" pt_clust_7="13000.00000" pt_clust_8="13000.00000" pt_clust_9="312.63574"></scales>
<clustering>
<clus scale="   80.171">  5  6 -1 -1</clus>
<clus scale="   91.292">  7  8 -1 -1</clus>
<clus scale="  104.024">  2  5  1 -1</clus>
<clus scale="  312.636">  1  9  2 -1</clus>
<clus scale="  312.636">  1  5  2 -1</clus>
</clustering>
</event>
<event>
 9    2  0.6175212E-005  0.1410173E+03  0.7546771E-02  0.1214439E+00
          2   -1    0    0  502    0 -0.00000000000E+00  0.00000000000E+00  0.48481721399E+03  0.48481721399E+03  0.00000000000E+00 0. -1.
         21   -1    0    0  501  502  0.00000000000E+00 -0.00000000000E+00 -0.74919869672E+02  0.74919869672E+02  0.00000000000E+00 0.  1.
         24    2    1    2    0    0 -0.82468847893E+02 -0.86998851759E+02  0.26580841269E+03  0.30244735999E+03  0.80314271647E+02 0.  0.
         23    2    1    2    0    0  0.62283437315E+02  0.38135385817E+02  0.15617145114E+02  0.11836496333E+03  0.91830469389E+02 0.  0.
        -13    1    3    3    0    0 -0.70196964296E+02 -0.34957331746E+02  0.93492797934E+02  0.12202676798E+03  0.00000000000E+00 0.  1.
         14    1    3    3    0    0 -0.12271883597E+02 -0.52041520014E+02  0.17231561475E+03  0.18042059201E+03  0.00000000000E+00 0. -1.
        -13    1    4    4    0    0  0.70434621998E+02  0.57874839305E+02 -0.12192174410E+01  0.91170277458E+02  0.00000000000E+00 0.  1.
         13    1    4    4    0    0 -0.81511846835E+01 -0.19739453488E+02  0.16836362555E+02  0.27194685875E+02  0.00000000000E+00 0. -1.
          1    1    1    2  501    0  0.20185410578E+02  0.48863465943E+02  0.12847178651E+03  0.13892476034E+03  0.00000000000E+00 0. -1.
<scales pt_clust_5="13000.00000" pt_clust_6="13000.00000" pt_clust_7="13000.00000" pt_clust_8="13000.00000" pt_clust_9="52.86863"></scales>
<clustering>
<clus scale="   52.869">  2  9  1 -1</clus>
<clus scale="   80.314">  5  6 -1 -1</clus>
<clus scale="   91.830">  7  8 -1 -1</clus>
<clus scale="  133.804">  1  5  2 -1</clus>
<clus scale="   52.869">  2  5  1 -1</clus>
</clustering>
</event>
<event>
 9    2  0.6175212E-005  0.9689626E+02  0.7546771E-02  0.1293849E+00
          2   -1    0    0  502    0 -0.00000000000E+00  0.00000000000E+00  0.62500487015E+03  0.62500487015E+03  0.00000000000E+00 0. -1.
         21   -1    0    0  501  502  0.00000000000E+00 -0.00000000000E+00 -0.22765723584E+03  0.22765723584E+03  0.00000000000E+00 0. -1.
         23    2    1    2    0    0  0.56441194484E+02  0.12738665626E+02  0.37907115143E+03  0.39424553485E+03  0.91579047067E+02 0.  0.
         24    2    1    2    0    0 -0.87071964931E+00  0.36501616399E+02  0.22366224175E+03  0.24002244807E+03  0.79074971036E+02 0.  0.
        -13    1    4    4    0    0 -0.12819263935E+02  0.57123893863E+02  0.11824496769E+03  0.13194447757E+03  0.00000000000E+00 0.  1.
         14    1    4    4    0    0  0.11948544286E+02 -0.20622277464E+02  0.10541727406E+03  0.10807797050E+03  0.00000000000E+00 0. -1.
        -11    1    3    3    0    0  0.64081258657E+02 -0.93196314189E+01  0.35445178183E+03  0.36031837156E+03  0.00000000000E+00 0. -1.
         11    1    3    3    0    0 -0.76400641731E+01  0.22058297045E+02  0.24619369601E+02  0.33927163286E+02  0.00000000000E+00 0.  1.
          1    1    1    2  501    0 -0.55570474835E+02 -0.49240282025E+02 -0.20538575886E+03  0.21839412307E+03  0.00000000000E+00 0. -1.
<scales pt_clust_5="13000.00000" pt_clust_6="13000.00000" pt_clust_7="13000.00000" pt_clust_8="13000.00000" pt_clust_9="74.24744"></scales>
<clustering>
<clus scale="   74.247">  2  9  1 -1</clus>
<clus scale="   79.075">  5  6 -1 -1</clus>
<clus scale="   85.176">  2  5  1 -1</clus>
<clus scale="   91.579">  7  8 -1 -1</clus>
<clus scale="   74.247">  2  5  1 -1</clus>
</clustering>
</event>
<event>
 9    2  0.6175212E-005  0.9586639E+02  0.7546771E-02  0.1294235E+00
         21   -1    0    0  501  502  0.00000000000E+00  0.00000000000E+00  0.47416955552E+02  0.47416955552E+02  0.00000000000E+00 0. -1.
          4   -1    0    0  502    0 -0.00000000000E+00 -0.00000000000E+00 -0.32983106415E+03  0.32983106415E+03  0.00000000000E+00 0. -1.
         23    2    1    2    0    0  0.45538398659E+02 -0.50572601550E+01 -0.16367349729E+03  0.19262972506E+03  0.90652499285E+02 0.  0.
         24    2    1    2    0    0 -0.17874253818E+01  0.94382156256E+01 -0.33481134553E+02  0.88688534875E+02  0.81562215784E+02 0.  0.
        -11    1    4    4    0    0 -0.23752322649E+02  0.15859538070E+02  0.17017995757E+02  0.33246202168E+02  0.00000000000E+00 0.  1.
         12    1    4    4    0    0  0.21964897268E+02 -0.64213224442E+01 -0.50499130310E+02  0.55442332707E+02  0.00000000000E+00 0. -1.
        -11    1    3    3    0    0  0.60380752396E+02  0.22874882462E+02 -0.77726442344E+02  0.10104699574E+03  0.00000000000E+00 0. -1.
         11    1    3    3    0    0 -0.14842353737E+02 -0.27932142617E+02 -0.85947054949E+02  0.91582729322E+02  0.00000000000E+00 0.  1.
          3    1    1    2  501    0 -0.43750973277E+02 -0.43809554706E+01 -0.85259476754E+02  0.95929759772E+02  0.00000000000E+00 0. -1.
<scales pt_clust_5="13000.00000" pt_clust_6="13000.00000" pt_clust_7="13000.00000" pt_clust_8="13000.00000" pt_clust_9="43.96979"></scales>
<clustering>
<clus scale="   43.970">  1  9  2 -1</clus>
<clus scale="   81.562">  5  6 -1 -1</clus>
<clus scale="   87.321">  1  5  2 -1</clus>
<clus scale="   90.652">  7  8 -1 -1</clus>
<clus scale="   43.970">  1  5  2 -1</clus>
</clustering>
</event>
<event>
 9    2  0.6175212E-005  0.1288937E+03  0.7546771E-02  0.1231381E+00
         21   -1    0    0  501  502  0.00000000000E+00  0.00000000000E+00  0.30955574682E+02  0.30955574682E+02  0.00000000000E+00 0.  1.
          2   -1    0    0  502    0 -0.00000000000E+00 -0.00000000000E+00 -0.10609582158E+04  0.10609582158E+04  0.00000000000E+00 0. -1.
         24    2    1    2    0    0 -0.12329719998E+02  0.10090093713E+03 -0.64647383497E+03  0.65962129902E+03  0.82697144512E+02 0.  0.
         23    2    1    2    0    0 -0.35577488427E+02 -0.60418244731E+02 -0.14213060405E+03  0.18287909772E+03  0.91255322013E+02 0.  0.
        -11    1    3    3    0    0 -0.33481131093E+02  0.64904826246E+01 -0.18436235006E+03  0.18749023607E+03  0.00000000000E+00 0.  1.
         12    1    3    3    0    0  0.21151411094E+02  0.94410454504E+02 -0.46211148492E+03  0.47213106295E+03  0.00000000000E+00 0. -1.
        -13    1    4    4    0    0 -0.37300790444E+02 -0.38913605619E+02 -0.17913329436E+02  0.56802333064E+02  0.00000000000E+00 0.  1.
         13    1    4    4    0    0  0.17233020167E+01 -0.21504639111E+02 -0.12421727462E+03  0.12607676466E+03  0.00000000000E+00 0. -1.
          1    1    1    2  501    0  0.47907208425E+02 -0.40482692398E+02 -0.24139820210E+03  0.24941339374E+03  0.00000000000E+00 0. -1.
<scales pt_clust_5="13000.00000" pt_clust_6="13000.00000" pt_clust_7="13000.00000" pt_clust_8="13000.00000" pt_clust_9="62.72123"></scales>
<clustering>
<clus scale="   62.721">  1  9  2 -1</clus>
<clus scale="   82.697">  5  6 -1 -1</clus>
<clus scale="   91.255">  7  8 -1 -1</clus>
<clus scale="  122.983">  2  5  1 -1</clus>
<clus scale="   62.721">  1  5  2 -1</clus>
</clustering>
</event>
<event>
 9    2  0.6175212E-005  0.9449193E+02  0.7546771E-02  0.1297857E+00
         21   -1    0    0  501  502  0.00000000000E+00  0.00000000000E+00  0.18565579447E+03  0.18565579447E+03  0.00000000000E+00 0.  1.
          2   -1    0    0  502    0 -0.00000000000E+00 -0.00000000000E+00 -0.15512637267E+03  0.15512637267E+03  0.00000000000E+00 0. -1.
         24    2    1    2    0    0 -0.13703321910E+02  0.30473796906E+02 -0.90967363431E+02  0.12717830278E+03  0.82357914973E+02 0.  0.
         23    2    1    2    0    0  0.14787765375E+02  0.34849132420E+02  0.35325173255E+02  0.10546595324E+03  0.91880680189E+02 0.  0.
        -11    1    3    3    0    0 -0.43634875492E+02  0.19143258913E+01 -0.65073029506E+02  0.78371973127E+02  0.00000000000E+00 0.  1.
         12    1    3    3    0    0  0.29931553583E+02  0.28559471015E+02 -0.25894333925E+02  0.48806329650E+02  0.00000000000E+00 0. -1.
        -13    1    4    4    0    0  0.17433807044E+02 -0.27418589677E+02  0.27663220520E+02  0.42672830437E+02  0.00000000000E+00 0. -1.
         13    1    4    4    0    0 -0.26460416695E+01  0.62267722097E+02  0.76619527355E+01  0.62793122803E+02  0.00000000000E+00 0.  1.
          1    1    1    2  501    0 -0.10844434649E+01 -0.65322929326E+02  0.86171611971E+02  0.10813791113E+03  0.00000000000E+00 0. -1.
<scales pt_clust_5="13000.00000" pt_clust_6="13000.00000" pt_clust_7="13000.00000" pt_clust_8="13000.00000" pt_clust_9="65.33193"></scales>
<clustering>
<clus scale="   65.332">  1  9  2 -1</clus>
<clus scale="   82.358">  5  6 -1 -1</clus>
<clus scale="   85.261">  2  5  1 -1</clus>
<clus scale="   91.881">  7  8 -1 -1</clus>
<clus scale="   65.332">  1  5  2 -1</clus>
</clustering>
</event>
<event>
 9    2  0.6175212E-005  0.1064242E+03  0.7546771E-02  0.1272125E+00
         21   -1    0    0  501  502  0.00000000000E+00  0.00000000000E+00  0.86040953673E+02  0.86040953673E+02  0.00000000000E+00 0. -1.
          4   -1    0    0  502    0 -0.00000000000E+00 -0.00000000000E+00 -0.25496881916E+03  0.25496881916E+03  0.00000000000E+00 0. -1.
         24    2    1    2    0    0  0.45537765538E+02 -0.34421492307E+02 -0.13363939406E+03  0.16636785356E+03  0.80995356849E+02 0.  0.
         23    2    1    2    0    0 -0.21961512481E+02  0.46012435871E+02 -0.73433962014E+02  0.12832487993E+03  0.92061260833E+02 0.  0.
        -13    1    3    3    0    0 -0.99130765578E+01 -0.32723701584E+02 -0.19257492229E+02  0.39242333508E+02  0.00000000000E+00 0.  1.
         14    1    3    3    0    0  0.55450842096E+02 -0.16977907233E+01 -0.11438190183E+03  0.12712552005E+03  0.00000000000E+00 0. -1.
        -11    1    4    4    0    0  0.35735342036E+02  0.97697602676E+01 -0.27842392058E+02  0.46342870882E+02  0.00000000000E+00 0. -1.
         11    1    4    4    0    0 -0.57696854517E+02  0.36242675603E+02 -0.45591569956E+02  0.81982009045E+02  0.00000000000E+00 0.  1.
          3    1    1    2  501    0 -0.23576253056E+02 -0.11590943564E+02  0.38145490591E+02  0.46317039341E+02  0.00000000000E+00 0. -1.
<scales pt_clust_5="13000.00000" pt_clust_6="13000.00000" pt_clust_7="13000.00000" pt_clust_8="13000.00000" pt_clust_9="26.27146"></scales>
<clustering>
<clus scale="   26.271">  1  9  2 -1</clus>
<clus scale="   80.995">  5  6 -1 -1</clus>
<clus scale="   92.061">  7  8 -1 -1</clus>
<clus scale="   97.011">  2  5  1 -1</clus>
<clus scale="   26.271">  1  5  2 -1</clus>
</clustering>
</event>
<event>
 9    2  0.6175212E-005  0.1857705E+03  0.7546771E-02  0.1198493E+00
          2   -1    0    0  502    0 -0.00000000000E+00  0.00000000000E+00  0.16002221822E+04  0.16002221822E+04  0.00000000000E+00 0. -1.
         21   -1    0    0  501  502  0.00000000000E+00 -0.00000000000E+00 -0.33627078423E+02  0.33627078423E+02  0.00000000000E+00 0.  1.
         24    2    1    2    0    0 -0.13383708027E+02  0.17111890954E+02  0.25043920637E+03  0.26365824998E+03  0.79523180536E+02 0.  0.
         23    2    1    2    0    0  0.13967099988E+03  0.87294277901E+02  0.42415953323E+03  0.46326949151E+03  0.87057641622E+02 0.  0.
        -13    1    3    3    0    0  0.20187797811E+02 -0.21640796332E+02  0.11762476997E+03  0.12129079832E+03  0.00000000000E+00 0.  1.
         14    1    3    3    0    0 -0.33571505837E+02  0.38752687287E+02  0.13281443640E+03  0.14236745166E+03  0.00000000000E+00 0. -1.
        -11    1    4    4    0    0  0.10006830472E+03  0.17462444819E+02  0.18581868622E+03  0.21177154374E+03  0.00000000000E+00 0. -1.
         11    1    4    4    0    0  0.39602695157E+02  0.69831833083E+02  0.23834084702E+03  0.25149794777E+03  0.00000000000E+00 0.  1.
          1    1    1    2  501    0 -0.12628729185E+03 -0.10440616886E+03  0.89199636417E+03  0.90692151914E+03  0.00000000000E+00 0. -1.
<scales pt_clust_5="13000.00000" pt_clust_6="13000.00000" pt_clust_7="13000.00000" pt_clust_8="13000.00000" pt_clust_9="164.10877"></scales>
<clustering>
<clus scale="   79.523">  5  6 -1 -1</clus>
<clus scale="   82.437">  1  5  2 -1</clus>
<clus scale="   87.058">  7  8 -1 -1</clus>
<clus scale="  164.109">  2  9  1 -1</clus>
<clus scale="  164.109">  2  5  1 -1</clus>
</clustering>
</event>
<event>
 9    2  0.6175212E-005  0.2037389E+03  0.7546771E-02  0.1147512E+00
         21   -1    0    0  501  502  0.00000000000E+00  0.00000000000E+00  0.53221333114E+03  0.53221333114E+03  0.00000000000E+00 0.  1.
          2   -1    0    0  502    0 -0.00000000000E+00 -0.00000000000E+00 -0.40421353134E+03  0.40421353134E+03  0.00000000000E+00 0. -1.
         24    2    1    2    0    0  0.14676976296E+03 -0.10772422216E+03 -0.34827434159E+03  0.40101859865E+03  0.79843773039E+02 0.  0.
         23    2    1    2    0    0 -0.14243372704E+03  0.13468399949E+03  0.40093964174E+03  0.45527763522E+03  0.89988790930E+02 0.  0.
        -13    1    3    3    0    0  0.10279772258E+02 -0.45324474688E+02 -0.11006115155E+03  0.11947149787E+03  0.00000000000E+00 0.  1.
         14    1    3    3    0    0  0.13648999070E+03 -0.62399747473E+02 -0.23821319004E+03  0.28154710078E+03  0.00000000000E+00 0. -1.
        -13    1    4    4    0    0 -0.63955304108E+02  0.78557511579E+01  0.15176322384E+03  0.16487592262E+03  0.00000000000E+00 0.  1.
         13    1    4    4    0    0 -0.78478422935E+02  0.12682824834E+03  0.24917641790E+03  0.29040171260E+03  0.00000000000E+00 0. -1.
          1    1    1    2  501    0 -0.43360359202E+01 -0.26959777333E+02  0.75334499660E+02  0.80130628603E+02  0.00000000000E+00 0. -1.
<scales pt_clust_5="13000.00000" pt_clust_6="13000.00000" pt_clust_7="13000.00000" pt_clust_8="13000.00000" pt_clust_9="27.30624"></scales>
<clustering>
<clus scale="   27.306">  1  9  2 -1</clus>
<clus scale="   79.844">  5  6 -1 -1</clus>
<clus scale="   89.989">  7  8 -1 -1</clus>
<clus scale="  199.466">  2  5  1 -1</clus>
<clus scale="   27.306">  1  5  2 -1</clus>
</clustering>
</event>
<event>
 9    2  0.6175212E-005  0.1023221E+03  0.7546771E-02  0.1280673E+00
          4   -1    0    0  502    0 -0.00000000000E+00  0.00000000000E+00  0.67940997370E+03  0.67940997370E+03  0.00000000000E+00 0. -1.
         21   -1    0    0  501  502  0.00000000000E+00 -0.00000000000E+00 -0.24493427427E+02  0.24493427427E+02  0.00000000000E+00 0.  1.
         23    2    1    2    0    0 -0.17613461925E+02  0.47762372249E+02  0.43737757216E+03  0.44990459354E+03  0.92322935487E+02 0.  0.
         24    2    1    2    0    0  0.91929125440E+01 -0.23998932960E+02  0.90466979843E+02  0.12444998117E+03  0.81504999517E+02 0.  0.
        -13    1    4    4    0    0  0.19534930001E+02  0.26948594127E+02  0.31312072224E+02  0.45697768901E+02  0.00000000000E+00 0.  1.
         14    1    4    4    0    0 -0.10342017457E+02 -0.50947527087E+02  0.59154907619E+02  0.78752212266E+02  0.00000000000E+00 0. -1.
        -11    1    3    3    0    0 -0.46242914784E+02  0.57869900684E+02  0.33650148938E+03  0.34455853629E+03  0.00000000000E+00 0. -1.
         11    1    3    3    0    0  0.28629452859E+02 -0.10107528434E+02  0.10087608278E+03  0.10534605725E+03  0.00000000000E+00 0.  1.
          3    1    1    2  501    0  0.84205493811E+01 -0.23763439290E+02  0.12707199427E+03  0.12954882642E+03  0.00000000000E+00 0. -1.
<scales pt_clust_5="13000.00000" pt_clust_6="13000.00000" pt_clust_7="13000.00000" pt_clust_8="13000.00000" pt_clust_9="25.21125"></scales>
<clustering>
<clus scale="   25.211">  2  9  1 -1</clus>
<clus scale="   81.505">  5  6 -1 -1</clus>
<clus scale="   92.323">  7  8 -1 -1</clus>
<clus scale="   92.679">  2  5  1 -1</clus>
<clus scale="   25.211">  2  5  1 -1</clus>
</clustering>
</event>
<event>
 9    2  0.6175212E-005  0.1100108E+03  0.7546771E-02  0.1264948E+00
          2   -1    0    0  502    0 -0.00000000000E+00  0.00000000000E+00  0.74235785741E+03  0.74235785741E+03  0.00000000000E+00 0. -1.
         21   -1    0    0  501  502  0.00000000000E+00 -0.00000000000E+00 -0.18558532484E+03  0.18558532484E+03  0.00000000000E+00 0. -1.
         24    2    1    2    0    0 -0.59780446171E+02 -0.96955161399E+01  0.67045875070E+03  0.67792961180E+03  0.80036975146E+02 0.  0.
         23    2    1    2    0    0  0.84538375804E+02  0.76749019154E+02 -0.10041723345E+03  0.17731423551E+03  0.91211668198E+02 0.  0.
        -11    1    3    3    0    0 -0.13351860442E+02  0.17105528836E+02  0.42809014890E+02  0.47994614801E+02  0.00000000000E+00 0.  1.
         12    1    3    3    0    0 -0.46428585728E+02 -0.26801044976E+02  0.62764973581E+03  0.62993499700E+03  0.00000000000E+00 0. -1.
        -13    1    4    4    0    0  0.17040379879E+02  0.16406382231E+02 -0.81443354692E+02  0.84808985065E+02  0.00000000000E+00 0.  1.
         13    1    4    4    0    0  0.67497995925E+02  0.60342636923E+02 -0.18973878763E+02  0.92505250446E+02  0.00000000000E+00 0. -1.
          1    1    1    2  501    0 -0.24757929634E+02 -0.67053503014E+02 -0.13268984681E+02  0.72699334940E+02  0.00000000000E+00 0. -1.
<scales pt_clust_5="13000.00000" pt_clust_6="13000.00000" pt_clust_7="13000.00000" pt_clust_8="13000.00000" pt_clust_9="71.47816"></scales>
<clustering>
<clus scale="   71.478">  2  9  1 -1</clus>
<clus scale="   80.037">  5  6 -1 -1</clus>
<clus scale="   91.212">  7  8 -1 -1</clus>
<clus scale="  100.939">  1  5  2 -1</clus>
<clus scale="   71.478">  2  5  1 -1</clus>
</clustering>
</event>
<event>
 9    2  0.6175212E-005  0.9845479E+02  0.7546771E-02  0.1293809E+00
         21   -1    0    0  501  502  0.00000000000E+00  0.00000000000E+00  0.36392195131E+02  0.36392195131E+02  0.00000000000E+00 0. -1.
          2   -1    0    0  502    0 -0.00000000000E+00 -0.00000000000E+00 -0.46736673033E+03  0.46736673033E+03  0.00000000000E+00 0. -1.
         24    2    1    2    0    0 -0.23812928789E+02  0.10141634780E+02 -0.25666613109E+03  0.26889837902E+03  0.75887594871E+02 0.  0.
         23    2    1    2    0    0  0.18597451331E+02 -0.50780200494E+02 -0.89439904290E+02  0.14061959733E+03  0.94073804620E+02 0.  0.
        -11    1    3    3    0    0 -0.30824631657E+02 -0.26933876850E+02 -0.15933783110E+03  0.16451181130E+03  0.00000000000E+00 0.  1.
         12    1    3    3    0    0  0.70117028682E+01  0.37075511630E+02 -0.97328299990E+02  0.10438656771E+03  0.00000000000E+00 0. -1.
        -11    1    4    4    0    0  0.54322544067E+02 -0.17483447889E+02 -0.63306045145E+02  0.85230658192E+02  0.00000000000E+00 0.  1.
         11    1    4    4    0    0 -0.35725092736E+02 -0.33296752605E+02 -0.26133859145E+02  0.55388939138E+02  0.00000000000E+00 0. -1.
          1    1    1    2  501    0  0.52154774577E+01  0.40638565714E+02 -0.84868499817E+02  0.94240949112E+02  0.00000000000E+00 0. -1.
<scales pt_clust_5="13000.00000" pt_clust_6="13000.00000" pt_clust_7="13000.00000" pt_clust_8="13000.00000" pt_clust_9="40.97189"></scales>
<clustering>
<clus scale="   40.972">  1  9  2 -1</clus>
<clus scale="   75.888">  5  6 -1 -1</clus>
<clus scale="   81.255">  2  5  1 -1</clus>
<clus scale="   94.074">  7  8 -1 -1</clus>
<clus scale="   40.972">  1  5  2 -1</clus>
</clustering>
</event>
<event>
 9    2  0.6175212E-005  0.9100224E+02  0.7546771E-02  0.1304457E+00
          2   -1    0    0  502    0 -0.00000000000E+00  0.00000000000E+00  0.10175938660E+04  0.10175938660E+04  0.00000000000E+00 0. -1.
         21   -1    0    0  501  502  0.00000000000E+00 -0.00000000000E+00 -0.34687922758E+02  0.34687922758E+02  0.00000000000E+00 0.  1.
         24    2    1    2    0    0 -0.99667755905E+01  0.29735853329E+02  0.88341579434E+03  0.88755590096E+03  0.79677186577E+02 0.  0.
         23    2    1    2    0    0  0.15477786427E+02  0.25766703028E+01  0.98360484888E+02  0.13192731211E+03  0.86509130105E+02 0.  0.
        -11    1    3    3    0    0 -0.20115064115E+02 -0.16618286043E+02  0.12696632943E+03  0.12961956660E+03  0.00000000000E+00 0.  1.
         12    1    3    3    0    0  0.10148288524E+02  0.46354139372E+02  0.75644946490E+03  0.75793633436E+03  0.00000000000E+00 0. -1.
        -11    1    4    4    0    0 -0.32763437024E+02  0.17861316710E+02  0.41657558825E+02  0.55926931326E+02  0.00000000000E+00 0.  1.
         11    1    4    4    0    0  0.48241223450E+02 -0.15284646407E+02  0.56702926063E+02  0.76000380788E+02  0.00000000000E+00 0. -1.
          1    1    1    2  501    0 -0.55110108362E+01 -0.32312523632E+02  0.11296639841E+01  0.32798575649E+02  0.00000000000E+00 0. -1.
<scales pt_clust_5="13000.00000" pt_clust_6="13000.00000" pt_clust_7="13000.00000" pt_clust_8="13000.00000" pt_clust_9="32.77912"></scales>
<clustering>
<clus scale="   32.779">  2  9  1 -1</clus>
<clus scale="   79.677">  5  6 -1 -1</clus>
<clus scale="   84.534">  1  5  2 -1</clus>
<clus scale="   86.509">  7  8 -1 -1</clus>
<clus scale="   32.779">  2  5  1 -1</clus>
</clustering>
</event>
<event>
 9    2  0.6175212E-005  0.9396798E+02  0.7546771E-02  0.1300462E+00
          2   -1    0    0  502    0 -0.00000000000E+00  0.00000000000E+00  0.11848044596E+03  0.11848044596E+03  0.00000000000E+00 0. -1.
         21   -1    0    0  501  502  0.00000000000E+00 -0.00000000000E+00 -0.14438749225E+03  0.14438749225E+03  0.00000000000E+00 0. -1.
         23    2    1    2    0    0 -0.25238494847E+02 -0.62657093071E+01  0.50515808266E+02  0.10896736598E+03  0.92982789955E+02 0.  0.
         24    2    1    2    0    0 -0.10815555445E+02  0.64180730974E+01 -0.16704284394E+02  0.84142236689E+02  0.81502852564E+02 0.  0.
        -13    1    4    4    0    0 -0.12922382578E+02  0.43266133989E+02 -0.13324350452E+02  0.47079556464E+02  0.00000000000E+00 0.  1.
         14    1    4    4    0    0  0.21068271326E+01 -0.36848060891E+02 -0.33799339419E+01  0.37062680225E+02  0.00000000000E+00 0. -1.
        -13    1    3    3    0    0  0.16554719838E+02 -0.36145421697E+02  0.45236286792E+01  0.40012666432E+02  0.00000000000E+00 0.  1.
         13    1    3    3    0    0 -0.41793214685E+02  0.29879712389E+02  0.45992179587E+02  0.68954699545E+02  0.00000000000E+00 0. -1.
          1    1    1    2  501    0  0.36054050292E+02 -0.15236379030E+00 -0.59718570162E+02  0.69758335554E+02  0.00000000000E+00 0. -1.
<scales pt_clust_5="13000.00000" pt_clust_6="13000.00000" pt_clust_7="13000.00000" pt_clust_8="13000.00000" pt_clust_9="36.05437"></scales>
<clustering>
<clus scale="   36.054">  2  9  1 -1</clus>
<clus scale="   81.503">  5  6 -1 -1</clus>
<clus scale="   82.625">  2  5  1 -1</clus>
<clus scale="   92.983">  7  8 -1 -1</clus>
<clus scale="   36.054">  2  5  1 -1</clus>
</clustering>
</event>
<event>
 9    2  0.6175212E-005  0.1552175E+03  0.7546771E-02  0.1211298E+00
          2   -1    0    0  502    0 -0.00000000000E+00  0.00000000000E+00  0.26293420783E+03  0.26293420783E+03  0.00000000000E+00 0. -1.
         21   -1    0    0  501  502  0.00000000000E+00 -0.00000000000E+00 -0.19375060457E+03  0.19375060457E+03  0.00000000000E+00 0. -1.
         23    2    1    2    0    0  0.55764343189E+02 -0.70042353072E+01  0.92544607097E+02  0.14166885748E+03  0.91361039800E+02 0.  0.
         24    2    1    2    0    0  0.87735101097E+02 -0.74844143614E+02 -0.45798211801E+02  0.14829860146E+03  0.81215178347E+02 0.  0.
        -13    1    4    4    0    0  0.34936561387E+02  0.12344766699E+02 -0.23750986472E+02  0.44012111342E+02  0.00000000000E+00 0.  1.
         14    1    4    4    0    0  0.52798539710E+02 -0.87188910313E+02 -0.22047225330E+02  0.10428649012E+03  0.00000000000E+00 0. -1.
        -11    1    3    3    0    0  0.16431139868E+02  0.27839865781E+02 -0.31664325606E+01  0.32481791503E+02  0.00000000000E+00 0. -1.
         11    1    3    3    0    0  0.39333203321E+02 -0.34844101089E+02  0.95711039658E+02  0.10918706598E+03  0.00000000000E+00 0.  1.
          1    1    1    2  501    0 -0.14349944429E+03  0.81848378922E+02  0.22437207964E+02  0.16671735346E+03  0.00000000000E+00 0. -1.
<scales pt_clust_5="13000.00000" pt_clust_6="13000.00000" pt_clust_7="13000.00000" pt_clust_8="13000.00000" pt_clust_9="132.27471"></scales>
<clustering>
<clus scale="   81.215">  5  6 -1 -1</clus>
<clus scale="   91.361">  7  8 -1 -1</clus>
<clus scale="  107.264">  1  7  2 -1</clus>
<clus scale="  132.275">  2  9  1 -1</clus>
<clus scale="  132.275">  2  5  1 -1</clus>
</clustering>
</event>
<event>
 9    2  0.6175212E-005  0.1235176E+03  0.7546771E-02  0.1241093E+00
         21   -1    0    0  501  502  0.00000000000E+00  0.00000000000E+00  0.33668230209E+03  0.33668230209E+03  0.00000000000E+00 0.  1.
          2   -1    0    0  502    0 -0.00000000000E+00 -0.00000000000E+00 -0.97388833805E+03  0.97388833805E+03  0.00000000000E+00 0. -1.
         24    2    1    2    0    0  0.45107093120E+02  0.70381759589E+02 -0.88474295305E+03  0.89217188463E+03  0.78818378733E+02 0.  0.
         23    2    1    2    0    0  0.32933405113E+02 -0.78184952226E+02  0.29944394367E+03  0.32434797886E+03  0.91309583650E+02 0.  0.
        -13    1    3    3    0    0 -0.19653846635E+02  0.70678239269E+01 -0.95975942842E+02  0.98222245072E+02  0.00000000000E+00 0.  1.
         14    1    3    3    0    0  0.64760939755E+02  0.63313935662E+02 -0.78876701021E+03  0.79394963956E+03  0.00000000000E+00 0. -1.
        -11    1    4    4    0    0 -0.22513655469E+02 -0.60569168264E+02  0.12959428491E+03  0.14481079900E+03  0.00000000000E+00 0. -1.
         11    1    4    4    0    0  0.55447060582E+02 -0.17615783962E+02  0.16984965875E+03  0.17953717986E+03  0.00000000000E+00 0.  1.
          1    1    1    2  501    0 -0.78040498233E+02  0.78031926367E+01 -0.51907026581E+02  0.94050776648E+02  0.00000000000E+00 0. -1.
<scales pt_clust_5="13000.00000" pt_clust_6="13000.00000" pt_clust_7="13000.00000" pt_clust_8="13000.00000" pt_clust_9="78.42968"></scales>
<clustering>
<clus scale="   78.430">  1  9  2 -1</clus>
<clus scale="   78.818">  5  6 -1 -1</clus>
<clus scale="   91.310">  7  8 -1 -1</clus>
<clus scale="  114.593">  2  5  1 -1</clus>
<clus scale="   78.430">  1  5  2 -1</clus>
</clustering>
</event>
<event>
 9    2  0.6175212E-005  0.1019243E+03  0.7546771E-02  0.1282869E+00
         21   -1    0    0  501  502  0.00000000000E+00  0.00000000000E+00  0.76296453364E+02  0.76296453364E+02  0.00000000000E+00 0.  1.
         -3   -1    0    0    0  501 -0.00000000000E+00 -0.00000000000E+00 -0.27645463506E+03  0.27645463506E+03  0.00000000000E+00 0.  1.
         23    2    1    2    0    0  0.23766609124E+01  0.68442937748E+02 -0.10277808264E+03  0.15532584705E+03  0.94195011789E+02 0.  0.
         24    2    1    2    0    0  0.39683125305E+02  0.11187839753E+01 -0.46781166881E+02  0.10167498976E+03  0.81076037504E+02 0.  0.
        -11    1    4    4    0    0  0.14968795087E+02  0.19722038423E+02  0.17512583699E+02  0.30326790363E+02  0.00000000000E+00 0.  1.
         12    1    4    4    0    0  0.24714330218E+02 -0.18603254447E+02 -0.64293750580E+02  0.71348199401E+02  0.00000000000E+00 0. -1.
        -11    1    3    3    0    0  0.20589736580E+02 -0.73180331491E+01 -0.65304989782E+02  0.68863869715E+02  0.00000000000E+00 0.  1.
         11    1    3    3    0    0 -0.18213075668E+02  0.75760970897E+02 -0.37473092862E+02  0.86461977338E+02  0.00000000000E+00 0. -1.
         -4    1    1    2    0  502 -0.42059786218E+02 -0.69561721724E+02 -0.50598932171E+02  0.95750251606E+02  0.00000000000E+00 0.  1.
<scales pt_clust_5="13000.00000" pt_clust_6="13000.00000" pt_clust_7="13000.00000" pt_clust_8="13000.00000" pt_clust_9="81.28874"></scales>
<clustering>
<clus scale="   81.076">  5  6 -1 -1</clus>
<clus scale="   81.289">  1  9  2 -1</clus>
<clus scale="   89.940">  1  5  2 -1</clus>
<clus scale="   94.195">  7  8 -1 -1</clus>
<clus scale="   81.289">  1  5  2 -1</clus>
</clustering>
</event>
<event>
 9    2  0.6175212E-005  0.1756494E+03  0.7546771E-02  0.1186851E+00
         21   -1    0    0  501  502  0.00000000000E+00  0.00000000000E+00  0.60106874983E+02  0.60106874983E+02  0.00000000000E+00 0. -1.
          2   -1    0    0  502    0 -0.00000000000E+00 -0.00000000000E+00 -0.14209989928E+04  0.14209989928E+04  0.00000000000E+00 0. -1.
         24    2    1    2    0    0 -0.48913105852E+02 -0.82795632485E+02 -0.44371291269E+03  0.46125197915E+03  0.81391834343E+02 0.  0.
         23    2    1    2    0    0  0.11321185468E+03 -0.95675117086E+02 -0.14586701794E+03  0.22555631993E+03  0.87337360088E+02 0.  0.
        -11    1    3    3    0    0 -0.19299686466E+02  0.54150661967E+01 -0.23627581422E+02  0.30984890567E+02  0.00000000000E+00 0.  1.
         12    1    3    3    0    0 -0.29613419386E+02 -0.88210698682E+02 -0.42008533127E+03  0.43026708858E+03  0.00000000000E+00 0. -1.
        -13    1    4    4    0    0  0.15531468688E+02 -0.19475397198E+02  0.96606712157E+01  0.26717900067E+02  0.00000000000E+00 0.  1.
         13    1    4    4    0    0  0.97680385994E+02 -0.76199719888E+02 -0.15552768916E+03  0.19883841987E+03  0.00000000000E+00 0. -1.
          1    1    1    2  501    0 -0.64298748831E+02  0.17847074957E+03 -0.77131218723E+03  0.79429756875E+03  0.00000000000E+00 0. -1.
<scales pt_clust_5="13000.00000" pt_clust_6="13000.00000" pt_clust_7="13000.00000" pt_clust_8="13000.00000" pt_clust_9="152.39725"></scales>
<clustering>
<clus scale="   81.392">  5  6 -1 -1</clus>
<clus scale="   87.337">  7  8 -1 -1</clus>
<clus scale="  125.985">  2  5  1 -1</clus>
<clus scale="  152.397">  1  9  2 -1</clus>
<clus scale="  152.397">  1  5  2 -1</clus>
</clustering>
</event>
<event>
 9    2  0.6175212E-005  0.9664884E+02  0.7546771E-02  0.1293331E+00
         -3   -1    0    0    0  501 -0.00000000000E+00  0.00000000000E+00  0.70718883251E+02  0.70718883251E+02  0.00000000000E+00 0.  1.
         21   -1    0    0  501  502  0.00000000000E+00 -0.00000000000E+00 -0.47077780335E+03  0.47077780335E+03  0.00000000000E+00 0. -1.
         24    2    1    2    0    0 -0.52133370171E+01 -0.32980222319E+02  0.29530715917E+02  0.92295683722E+02  0.80818043184E+02 0.  0.
         23    2    1    2    0    0  0.24888561158E+02  0.36716972313E+01 -0.33767467353E+03  0.35074053154E+03  0.91442952075E+02 0.  0.
        -11    1    3    3    0    0 -0.38694135783E+02 -0.33900280312E+02  0.28445984648E+02  0.58784685011E+02  0.00000000000E+00 0.  1.
         12    1    3    3    0    0  0.33480798766E+02  0.92005799310E+00  0.10847312686E+01  0.33510998711E+02  0.00000000000E+00 0. -1.
        -13    1    4    4    0    0 -0.30188449997E+02 -0.10966458517E+02 -0.18518508522E+03  0.18794978455E+03  0.00000000000E+00 0.  1.
         13    1    4    4    0    0  0.55077011156E+02  0.14638155748E+02 -0.15248958831E+03  0.16279074698E+03  0.00000000000E+00 0. -1.
         -4    1    1    2    0  502 -0.19675224141E+02  0.29308525088E+02 -0.91914962491E+02  0.98460471345E+02  0.00000000000E+00 0.  1.
<scales pt_clust_5="13000.00000" pt_clust_6="13000.00000" pt_clust_7="13000.00000" pt_clust_8="13000.00000" pt_clust_9="35.30020"></scales>
<clustering>
<clus scale="   35.300">  2  9  1 -1</clus>
<clus scale="   80.818">  5  6 -1 -1</clus>
<clus scale="   86.665">  1  5  2 -1</clus>
<clus scale="   91.443">  7  8 -1 -1</clus>
<clus scale="   35.300">  2  5  1 -1</clus>
</clustering>
</event>
<event>
 9    2  0.6175212E-005  0.1373753E+03  0.7546771E-02  0.1219215E+00
          4   -1    0    0  502    0 -0.00000000000E+00  0.00000000000E+00  0.13814026982E+03  0.13814026982E+03  0.00000000000E+00 0. -1.
         21   -1    0    0  501  502  0.00000000000E+00 -0.00000000000E+00 -0.18990151835E+03  0.18990151835E+03  0.00000000000E+00 0.  1.
         24    2    1    2    0    0  0.11540133302E+03  0.16367059183E+02  0.33808099834E+02  0.14539685986E+03  0.80074408854E+02 0.  0.
         23    2    1    2    0    0 -0.75757094282E+02 -0.21242800117E+02 -0.74951164316E+02  0.14131474143E+03  0.90342599149E+02 0.  0.
        -13    1    3    3    0    0  0.29824344977E+02  0.28590966857E+02 -0.17503199771E+02  0.44869777595E+02  0.00000000000E+00 0.  1.
         14    1    3    3    0    0  0.85576988044E+02 -0.12223907675E+02  0.51311299605E+02  0.10052708226E+03  0.00000000000E+00 0. -1.
        -11    1    4    4    0    0 -0.13346476799E+02  0.19193980784E+02  0.12507672099E+02  0.26513754970E+02  0.00000000000E+00 0. -1.
         11    1    4    4    0    0 -0.62410617482E+02 -0.40436780901E+02 -0.87458836414E+02  0.11480098646E+03  0.00000000000E+00 0.  1.
          3    1    1    2  501    0 -0.39644238739E+02  0.48757409340E+01 -0.10618184050E+02  0.41330186878E+02  0.00000000000E+00 0. -1.
<scales pt_clust_5="13000.00000" pt_clust_6="13000.00000" pt_clust_7="13000.00000" pt_clust_8="13000.00000" pt_clust_9="39.94294"></scales>
<clustering>
<clus scale="   39.943">  2  9  1 -1</clus>
<clus scale="   80.074">  5  6 -1 -1</clus>
<clus scale="   90.343">  7  8 -1 -1</clus>
<clus scale="  130.851">  1  5  2 -1</clus>
<clus scale="   39.943">  2  5  1 -1</clus>
</clustering>
</event>
<event>
 9    2  0.6175212E-005  0.4350540E+03  0.7546771E-02  0.1032468E+00
          2   -1    0    0  502    0 -0.00000000000E+00  0.00000000000E+00  0.17910448036E+04  0.17910448036E+04  0.00000000000E+00 0. -1.
         21   -1    0    0  501  502  0.00000000000E+00 -0.00000000000E+00 -0.15701403791E+03  0.15701403791E+03  0.00000000000E+00 0. -1.
         24    2    1    2    0    0  0.22441644078E+03  0.39957796352E+03  0.97842438273E+03  0.10833323166E+04  0.79179212717E+02 0.  0.
         23    2    1    2    0    0 -0.25202238493E+03 -0.30121252205E+03  0.64673094769E+03  0.76217594430E+03  0.91689614640E+02 0.  0.
        -13    1    3    3    0    0  0.10921078775E+03  0.21977820878E+03  0.60964841983E+03  0.65719148885E+03  0.00000000000E+00 0.  1.
         14    1    3    3    0    0  0.11520565303E+03  0.17979975473E+03  0.36877596290E+03  0.42614082778E+03  0.00000000000E+00 0. -1.
        -11    1    4    4    0    0 -0.68423474262E+02 -0.37037002148E+02  0.88149036473E+02  0.11757450399E+03  0.00000000000E+00 0.  1.
         11    1    4    4    0    0 -0.18359891067E+03 -0.26417551990E+03  0.55858191122E+03  0.64460144031E+03  0.00000000000E+00 0. -1.
          1    1    1    2  501    0  0.27605944151E+02 -0.98365441466E+02  0.88754352788E+01  0.10255058059E+03  0.00000000000E+00 0. -1.
<scales pt_clust_5="13000.00000" pt_clust_6="13000.00000" pt_clust_7="13000.00000" pt_clust_8="13000.00000" pt_clust_9="102.16579"></scales>
<clustering>
<clus scale="   79.179">  5  6 -1 -1</clus>
<clus scale="   91.690">  7  8 -1 -1</clus>
<clus scale="  102.166">  2  9  1 -1</clus>
<clus scale="  432.590">  1  5  2 -1</clus>
<clus scale="  102.166">  2  5  1 -1</clus>
</clustering>
</event>
<event>
 9    2  0.6175212E-005  0.1324604E+03  0.7546771E-02  0.1226812E+00
         21   -1    0    0  501  502  0.00000000000E+00  0.00000000000E+00  0.94835427976E+02  0.94835427976E+02  0.00000000000E+00 0. -1.
          2   -1    0    0  502    0 -0.00000000000E+00 -0.00000000000E+00 -0.13157478406E+04  0.13157478406E+04  0.00000000000E+00 0. -1.
         24    2    1    2    0    0  0.60625256102E+02  0.66639897794E+02 -0.84969165923E+03  0.85833429304E+03  0.81520213400E+02 0.  0.
         23    2    1    2    0    0 -0.83239556429E+02 -0.64538029713E+02 -0.44937380884E+03  0.47086270822E+03  0.93171287927E+02 0.  0.
        -13    1    3    3    0    0  0.43190758897E+02  0.55383880218E+02 -0.29465685759E+03  0.30291166958E+03  0.00000000000E+00 0.  1.
         14    1    3    3    0    0  0.17434497205E+02  0.11256017577E+02 -0.55503480163E+03  0.55542262346E+03  0.00000000000E+00 0. -1.
        -13    1    4    4    0    0 -0.27925544155E+02 -0.10864583576E+02 -0.23526932699E+02  0.38097135783E+02  0.00000000000E+00 0.  1.
         13    1    4    4    0    0 -0.55314012274E+02 -0.53673446137E+02 -0.42584687614E+03  0.43276557244E+03  0.00000000000E+00 0. -1.
          1    1    1    2  501    0  0.22614300326E+02 -0.21018680814E+01  0.78153055451E+02  0.81386267300E+02  0.00000000000E+00 0. -1.
<scales pt_clust_5="13000.00000" pt_clust_6="13000.00000" pt_clust_7="13000.00000" pt_clust_8="13000.00000" pt_clust_9="22.71177"></scales>
<clustering>
<clus scale="   22.712">  1  9  2 -1</clus>
<clus scale="   81.520">  5  6 -1 -1</clus>
<clus scale="   93.171">  7  8 -1 -1</clus>
<clus scale="  124.541">  2  5  1 -1</clus>
<clus scale="   22.712">  1  5  2 -1</clus>
</clustering>
</event>
<event>
 9    2  0.6175212E-005  0.1080534E+03  0.7546771E-02  0.1267187E+00
          2   -1    0    0  502    0 -0.00000000000E+00  0.00000000000E+00  0.67967581642E+02  0.67967581642E+02  0.00000000000E+00 0. -1.
         21   -1    0    0  501  502  0.00000000000E+00 -0.00000000000E+00 -0.41341275649E+03  0.41341275649E+03  0.00000000000E+00 0.  1.
         24    2    1    2    0    0 -0.36348181991E+02 -0.54590463921E+02  0.19700512759E+01  0.10537786114E+03  0.82457888832E+02 0.  0.
         23    2    1    2    0    0  0.35996358890E+02  0.22408853626E+02 -0.18075866782E+03  0.20626683475E+03  0.89857757338E+02 0.  0.
        -13    1    3    3    0    0  0.24224253106E+02 -0.67579894383E+00  0.15869271872E+01  0.24285581744E+02  0.00000000000E+00 0.  1.
         14    1    3    3    0    0 -0.60572435097E+02 -0.53914664977E+02  0.38312408870E+00  0.81092279393E+02  0.00000000000E+00 0. -1.
        -13    1    4    4    0    0  0.26269128003E+02  0.55793233368E+02 -0.90237573003E+02  0.10929671339E+03  0.00000000000E+00 0. -1.
         13    1    4    4    0    0  0.97272308869E+01 -0.33384379742E+02 -0.90521094814E+02  0.96970121367E+02  0.00000000000E+00 0.  1.
          1    1    1    2  501    0  0.35182310123E+00  0.32181610296E+02 -0.16665655830E+03  0.16973564224E+03  0.00000000000E+00 0. -1.
<scales pt_clust_5="13000.00000" pt_clust_6="13000.00000" pt_clust_7="13000.00000" pt_clust_8="13000.00000" pt_clust_9="32.18353"></scales>
<clustering>
<clus scale="   32.184">  2  9  1 -1</clus>
<clus scale="   82.458">  5  6 -1 -1</clus>
<clus scale="   89.858">  7  8 -1 -1</clus>
<clus scale="  101.982">  1  5  2 -1</clus>
<clus scale="   32.184">  2  5  1 -1</clus>
</clustering>
</event>
<event>
 9    2  0.6175212E-005  0.1803004E+03  0.7546771E-02  0.1169069E+00
         -3   -1    0    0    0  501 -0.00000000000E+00  0.00000000000E+00  0.35105644430E+03  0.35105644430E+03  0.00000000000E+00 0.  1.
         21   -1    0    0  501  502  0.00000000000E+00 -0.00000000000E+00 -0.11818615694E+03  0.11818615694E+03  0.00000000000E+00 0.  1.
         24    2    1    2    0    0  0.55298082347E+02 -0.14260549108E+03  0.89334196181E+02  0.19455402639E+03  0.80476497074E+02 0.  0.
         23    2    1    2    0    0 -0.28525547281E+02  0.15466204524E+03  0.70573223724E+02  0.19603929538E+03  0.93363645710E+02 0.  0.
        -13    1    3    3    0    0  0.64845051901E+02 -0.90929936657E+02  0.30717858809E+02  0.11583057017E+03  0.00000000000E+00 0.  1.
         14    1    3    3    0    0 -0.95469695544E+01 -0.51675554422E+02  0.58616337372E+02  0.78723456221E+02  0.00000000000E+00 0. -1.
        -11    1    4    4    0    0  0.30373182500E+02  0.28701509760E+02  0.29144492124E+02  0.50948094163E+02  0.00000000000E+00 0. -1.
         11    1    4    4    0    0 -0.58898729781E+02  0.12596053548E+03  0.41428731600E+02  0.14509120122E+03  0.00000000000E+00 0.  1.
         -4    1    1    2    0  502 -0.26772535066E+02 -0.12056554163E+02  0.72962867462E+02  0.78649279465E+02  0.00000000000E+00 0.  1.
<scales pt_clust_5="13000.00000" pt_clust_6="13000.00000" pt_clust_7="13000.00000" pt_clust_8="13000.00000" pt_clust_9="29.36205"></scales>
<clustering>
<clus scale="   29.362">  2  9  1 -1</clus>
<clus scale="   80.476">  5  6 -1 -1</clus>
<clus scale="   93.364">  7  8 -1 -1</clus>
<clus scale="  173.977">  1  5  2 -1</clus>
<clus scale="   29.362">  2  5  1 -1</clus>
</clustering>
</event>
<event>
 9    2  0.6175212E-005  0.9266039E+02  0.7546771E-02  0.1303666E+00
         21   -1    0    0  501  502  0.00000000000E+00  0.00000000000E+00  0.57851763221E+02  0.57851763221E+02  0.00000000000E+00 0.  1.
          2   -1    0    0  502    0 -0.00000000000E+00 -0.00000000000E+00 -0.34206017378E+03  0.34206017378E+03  0.00000000000E+00 0. -1.
         23    2    1    2    0    0 -0.11049276036E+01  0.36386028174E+00 -0.39807221889E+02  0.99813738337E+02  0.91524937515E+02 0.  0.
         24    2    1    2    0    0  0.66373513651E+01 -0.26071950453E+02 -0.38847050093E+02  0.92868814890E+02  0.79948248540E+02 0.  0.
        -11    1    4    4    0    0 -0.45603260805E+01 -0.51594566094E+02 -0.39262195234E+02  0.64994736702E+02  0.00000000000E+00 0.  1.
         12    1    4    4    0    0  0.11197677446E+02  0.25522615641E+02  0.41514514081E+00  0.27874078188E+02  0.00000000000E+00 0. -1.
        -13    1    3    3    0    0  0.18556389143E+02 -0.32598084291E+02  0.81545510207E+01  0.38385822641E+02  0.00000000000E+00 0.  1.
         13    1    3    3    0    0 -0.19661316747E+02  0.32961944573E+02 -0.47961772909E+02  0.61427915697E+02  0.00000000000E+00 0. -1.
          1    1    1    2  501    0 -0.55324237615E+01  0.25708090171E+02 -0.20555413858E+03  0.20722938378E+03  0.00000000000E+00 0. -1.
<scales pt_clust_5="13000.00000" pt_clust_6="13000.00000" pt_clust_7="13000.00000" pt_clust_8="13000.00000" pt_clust_9="26.29666"></scales>
<clustering>
<clus scale="   26.297">  1  9  2 -1</clus>
<clus scale="   79.948">  5  6 -1 -1</clus>
<clus scale="   81.246">  1  5  2 -1</clus>
<clus scale="   91.525">  7  8 -1 -1</clus>
<clus scale="   26.297">  1  5  2 -1</clus>
</clustering>
</event>
<event>
 9    2  0.6175212E-005  0.1712745E+03  0.7546771E-02  0.1205745E+00
         21   -1    0    0  501  502  0.00000000000E+00  0.00000000000E+00  0.48536551730E+03  0.48536551730E+03  0.00000000000E+00 0. -1.
          4   -1    0    0  502    0 -0.00000000000E+00 -0.00000000000E+00 -0.86560535482E+02  0.86560535482E+02  0.00000000000E+00 0. -1.
         24    2    1    2    0    0 -0.35085975001E+02  0.19904486503E+02  0.96932823824E+02  0.13221271031E+03  0.80355548714E+02 0.  0.
         23    2    1    2    0    0  0.50943080881E+02  0.11719146613E+03  0.22575684858E+03  0.28210532122E+03  0.11085224562E+03 0.  0.
        -11    1    3    3    0    0  0.16431315152E+02  0.20759382298E+02  0.68333879527E+02  0.73283416694E+02  0.00000000000E+00 0.  1.
         12    1    3    3    0    0 -0.51517290153E+02 -0.85489579588E+00  0.28598944296E+02  0.58929293619E+02  0.00000000000E+00 0. -1.
        -11    1    4    4    0    0 -0.22413522757E+02  0.75870309220E+02  0.72815536073E+02  0.10752103105E+03  0.00000000000E+00 0.  1.
         11    1    4    4    0    0  0.73356603637E+02  0.41321156906E+02  0.15294131251E+03  0.17458429018E+03  0.00000000000E+00 0. -1.
          3    1    1    2  501    0 -0.15857105880E+02 -0.13709595263E+03  0.76115309417E+02  0.15760802125E+03  0.00000000000E+00 0. -1.
<scales pt_clust_5="13000.00000" pt_clust_6="13000.00000" pt_clust_7="13000.00000" pt_clust_8="13000.00000" pt_clust_9="130.56327"></scales>
<clustering>
<clus scale="   80.356">  5  6 -1 -1</clus>
<clus scale="   89.912">  2  5  1 -1</clus>
<clus scale="  110.852">  7  8 -1 -1</clus>
<clus scale="  130.563">  1  9  2 -1</clus>
<clus scale="  130.563">  1  5  2 -1</clus>
</clustering>
</event>
<event>
 9    2  0.6175212E-005  0.1545146E+03  0.7546771E-02  0.1217916E+00
         21   -1    0    0  501  502  0.00000000000E+00  0.00000000000E+00  0.22247498102E+02  0.22247498102E+02  0.00000000000E+00 0. -1.
          2   -1    0    0  502    0 -0.00000000000E+00 -0.00000000000E+00 -0.16228373463E+04  0.16228373463E+04  0.00000000000E+00 0. -1.
         24    2    1    2    0    0 -0.85583537210E+01 -0.14865746379E+02 -0.45787475075E+03  0.46752640360E+03  0.92937693385E+02 0.  0.
         23    2    1    2    0    0  0.95554916052E+02  0.92838489311E+02 -0.53261174609E+03  0.55637066740E+03  0.90129464578E+02 0.  0.
        -13    1    3    3    0    0  0.63986207358E+01  0.38297395537E+02 -0.21189331505E+03  0.21542147019E+03  0.00000000000E+00 0.  1.
         14    1    3    3    0    0 -0.14956974457E+02 -0.53163141916E+02 -0.24598143570E+03  0.25210493341E+03  0.00000000000E+00 0. -1.
        -13    1    4    4    0    0  0.43583363220E+02 -0.81646799535E+01 -0.20135980054E+03  0.20618424000E+03  0.00000000000E+00 0.  1.
         13    1    4    4    0    0  0.51971552832E+02  0.10100316926E+03 -0.33125194555E+03  0.35018642740E+03  0.00000000000E+00 0. -1.
          1    1    1    2  501    0 -0.86996562331E+02 -0.77972742932E+02 -0.61010335137E+03  0.62118777342E+03  0.00000000000E+00 0. -1.
<scales pt_clust_5="13000.00000" pt_clust_6="13000.00000" pt_clust_7="13000.00000" pt_clust_8="13000.00000" pt_clust_9="125.50479"></scales>
<clustering>
<clus scale="   90.129">  7  8 -1 -1</clus>
<clus scale="   92.938">  5  6 -1 -1</clus>
<clus scale="   94.507">  2  5  1 -1</clus>
<clus scale="  125.505">  1  9  2 -1</clus>
<clus scale="  125.505">  1  5  2 -1</clus>
</clustering>
</event>
<event>
 9    2  0.6175212E-005  0.1052595E+03  0.7546771E-02  0.1273454E+00
          2   -1    0    0  502    0 -0.00000000000E+00  0.00000000000E+00  0.58689726025E+03  0.58689726025E+03  0.00000000000E+00 0. -1.
         21   -1    0    0  501  502  0.00000000000E+00 -0.00000000000E+00 -0.86903847480E+02  0.86903847480E+02  0.00000000000E+00 0. -1.
         24    2    1    2    0    0 -0.47357681552E+02 -0.24947433071E+02  0.50641471598E+03  0.51562349491E+03  0.80911059302E+02 0.  0.
         23    2    1    2    0    0  0.68301516344E+02  0.35087898939E+02 -0.33133309953E+02  0.12275156918E+03  0.89854736781E+02 0.  0.
        -13    1    3    3    0    0 -0.98300709006E+01 -0.19354603605E+02  0.26701887828E+02  0.34412523711E+02  0.00000000000E+00 0.  1.
         14    1    3    3    0    0 -0.37527610651E+02 -0.55928294661E+01  0.47971282815E+03  0.48121097120E+03  0.00000000000E+00 0. -1.
        -13    1    4    4    0    0 -0.19787598957E+02  0.21033386831E+02 -0.10435132716E+02  0.30705771915E+02  0.00000000000E+00 0.  1.
         13    1    4    4    0    0  0.88089115301E+02  0.14054512108E+02 -0.22698177237E+02  0.92045797270E+02  0.00000000000E+00 0. -1.
          1    1    1    2  501    0 -0.20943834792E+02 -0.10140465868E+02  0.26712006744E+02  0.35426043642E+02  0.00000000000E+00 0. -1.
<scales pt_clust_5="13000.00000" pt_clust_6="13000.00000" pt_clust_7="13000.00000" pt_clust_8="13000.00000" pt_clust_9="23.26959"></scales>
<clustering>
<clus scale="   23.270">  2  9  1 -1</clus>
<clus scale="   80.911">  5  6 -1 -1</clus>
<clus scale="   89.855">  7  8 -1 -1</clus>
<clus scale="   97.736">  1  5  2 -1</clus>
<clus scale="   23.270">  2  5  1 -1</clus>
</clustering>
</event>
<event>
 9    2  0.6175212E-005  0.1130312E+03  0.7546771E-02  0.1257881E+00
          2   -1    0    0  502    0 -0.00000000000E+00  0.00000000000E+00  0.21582865473E+03  0.21582865473E+03  0.00000000000E+00 0. -1.
         21   -1    0    0  501  502  0.00000000000E+00 -0.00000000000E+00 -0.79224367876E+02  0.79224367876E+02  0.00000000000E+00 0.  1.
         24    2    1    2    0    0 -0.55654609368E+02 -0.34718626397E+02  0.88564319414E+02  0.13523106326E+03  0.78364425820E+02 0.  0.
         23    2    1    2    0    0  0.68182934810E+02  0.56396774332E+02  0.26020760757E+02  0.12647909655E+03  0.86546941715E+02 0.  0.
        -13    1    3    3    0    0  0.47333599939E+01 -0.34379156543E+02  0.99539483899E+01  0.36102800306E+02  0.00000000000E+00 0.  1.
         14    1    3    3    0    0 -0.60387969362E+02 -0.33946985444E+00  0.78610371024E+02  0.99128262952E+02  0.00000000000E+00 0. -1.
        -13    1    4    4    0    0  0.37289497572E+02  0.50833935633E+02  0.55070176218E+02  0.83709736290E+02  0.00000000000E+00 0. -1.
         13    1    4    4    0    0  0.30893437237E+02  0.55628386992E+01 -0.29049415461E+02  0.42769360263E+02  0.00000000000E+00 0.  1.
          1    1    1    2  501    0 -0.12528325442E+02 -0.21678147935E+02  0.22019206678E+02  0.33342862790E+02  0.00000000000E+00 0. -1.
<scales pt_clust_5="13000.00000" pt_clust_6="13000.00000" pt_clust_7="13000.00000" pt_clust_8="13000.00000" pt_clust_9="25.03800"></scales>
<clustering>
<clus scale="   25.038">  2  9  1 -1</clus>
<clus scale="   78.364">  5  6 -1 -1</clus>
<clus scale="   86.547">  7  8 -1 -1</clus>
<clus scale="  106.896">  1  5  2 -1</clus>
<clus scale="   25.038">  2  5  1 -1</clus>
</clustering>
</event>
<event>
 9    2  0.6175212E-005  0.9386599E+02  0.7546771E-02  0.1300815E+00
         21   -1    0    0  501  502  0.00000000000E+00  0.00000000000E+00  0.57003384089E+03  0.57003384089E+03  0.00000000000E+00 0. -1.
          4   -1    0    0  502    0 -0.00000000000E+00 -0.00000000000E+00 -0.49372655754E+02  0.49372655754E+02  0.00000000000E+00 0. -1.
         24    2    1    2    0    0  0.68444674962E+00  0.80220827926E+01  0.47539116933E+02  0.93593046356E+02  0.80217631527E+02 0.  0.
         23    2    1    2    0    0 -0.48260014376E+02 -0.69220276002E+02  0.40082979752E+03  0.41981898870E+03  0.91994462315E+02 0.  0.
        -13    1    3    3    0    0 -0.13371951051E+02 -0.24233061609E+02 -0.71289139432E+01  0.28580968560E+02  0.00000000000E+00 0.  1.
         14    1    3    3    0    0  0.14056397800E+02  0.32255144401E+02  0.54668030876E+02  0.65012077796E+02  0.00000000000E+00 0. -1.
        -13    1    4    4    0    0 -0.22561620831E+02  0.20723553859E+02  0.81388393267E+02  0.86962997749E+02  0.00000000000E+00 0.  1.
         13    1    4    4    0    0 -0.25698393546E+02 -0.89943829861E+02  0.31944140425E+03  0.33285599095E+03  0.00000000000E+00 0. -1.
          3    1    1    2  501    0  0.47575567627E+02  0.61198193210E+02  0.72292270688E+02  0.10599446159E+03  0.00000000000E+00 0. -1.
<scales pt_clust_5="13000.00000" pt_clust_6="13000.00000" pt_clust_7="13000.00000" pt_clust_8="13000.00000" pt_clust_9="77.51554"></scales>
<clustering>
<clus scale="   77.516">  1  9  2 -1</clus>
<clus scale="   80.218">  5  6 -1 -1</clus>
<clus scale="   82.357">  2  5  1 -1</clus>
<clus scale="   91.994">  7  8 -1 -1</clus>
<clus scale="   77.516">  1  5  2 -1</clus>
</clustering>
</event>
<event>
 9    2  0.6175212E-005  0.2668737E+03  0.7546771E-02  0.1151424E+00
         21   -1    0    0  501  502  0.00000000000E+00  0.00000000000E+00  0.91830503272E+02  0.91830503272E+02  0.00000000000E+00 0. -1.
          2   -1    0    0  502    0 -0.00000000000E+00 -0.00000000000E+00 -0.13382146589E+04  0.13382146589E+04  0.00000000000E+00 0. -1.
         24    2    1    2    0    0 -0.24436750859E+02  0.15362385632E+02 -0.32888364289E+03  0.33868448751E+03  0.75561722005E+02 0.  0.
         23    2    1    2    0    0  0.24096694032E+03  0.88085731421E+02 -0.20660434415E+03  0.34105393847E+03  0.88364424482E+02 0.  0.
        -13    1    3    3    0    0 -0.36840249901E+02 -0.12634437773E+02 -0.93060274571E+02  0.10088135474E+03  0.00000000000E+00 0.  1.
         14    1    3    3    0    0  0.12403499042E+02  0.27996823404E+02 -0.23582336832E+03  0.23780313277E+03  0.00000000000E+00 0. -1.
        -13    1    4    4    0    0  0.14703908661E+03  0.37892418766E+02 -0.17117589348E+03  0.22881764552E+03  0.00000000000E+00 0.  1.
         13    1    4    4    0    0  0.93927853713E+02  0.50193312656E+02 -0.35428450669E+02  0.11223629295E+03  0.00000000000E+00 0. -1.
          1    1    1    2  501    0 -0.21653018946E+03 -0.10344811705E+03 -0.71089616856E+03  0.75030673617E+03  0.00000000000E+00 0. -1.
<scales pt_clust_5="13000.00000" pt_clust_6="13000.00000" pt_clust_7="13000.00000" pt_clust_8="13000.00000" pt_clust_9="251.82006"></scales>
<clustering>
<clus scale="   75.562">  5  6 -1 -1</clus>
<clus scale="   80.887">  2  5  1 -1</clus>
<clus scale="   88.364">  7  8 -1 -1</clus>
<clus scale="  251.820">  1  9  2 -1</clus>
<clus scale="  251.820">  1  5  2 -1</clus>
</clustering>
</event>
<event>
 9    2  0.6175212E-005  0.1445829E+03  0.7546771E-02  0.1213477E+00
          2   -1    0    0  502    0 -0.00000000000E+00  0.00000000000E+00  0.12488861354E+04  0.12488861354E+04  0.00000000000E+00 0. -1.
         21   -1    0    0  501  502  0.00000000000E+00 -0.00000000000E+00 -0.38024150533E+02  0.38024150533E+02  0.00000000000E+00 0. -1.
         23    2    1    2    0    0  0.33743132672E+02 -0.79812467379E+02  0.61939623131E+03  0.63222315839E+03  0.92443505421E+02 0.  0.
         24    2    1    2    0    0 -0.86084493130E+02 -0.52506926192E+02  0.36679005763E+03  0.38874125284E+03  0.80108039727E+02 0.  0.
        -13    1    4    4    0    0 -0.14682861514E+02  0.21298980350E+02  0.65043695723E+02  0.69999395280E+02  0.00000000000E+00 0.  1.
         14    1    4    4    0    0 -0.71401631616E+02 -0.73805906542E+02  0.30174636191E+03  0.31874185756E+03  0.00000000000E+00 0. -1.
        -13    1    3    3    0    0  0.17022225747E+02  0.17856354365E+02  0.77177378409E+02  0.81024399403E+02  0.00000000000E+00 0.  1.
         13    1    3    3    0    0  0.16720906925E+02 -0.97668821744E+02  0.54221885290E+03  0.55119875899E+03  0.00000000000E+00 0. -1.
          1    1    1    2  501    0  0.52341360458E+02  0.13231939357E+03  0.22467569593E+03  0.26594587470E+03  0.00000000000E+00 0. -1.
<scales pt_clust_5="13000.00000" pt_clust_6="13000.00000" pt_clust_7="13000.00000" pt_clust_8="13000.00000" pt_clust_9="120.36163"></scales>
<clustering>
<clus scale="   80.108">  5  6 -1 -1</clus>
<clus scale="   92.444">  7  8 -1 -1</clus>
<clus scale="  126.706">  1  7  2 -1</clus>
<clus scale="  120.362">  2  9  1 -1</clus>
<clus scale="  120.362">  2  5  1 -1</clus>
</clustering>
</event>
<event>
 9    2  0.6175212E-005  0.1252043E+03  0.7546771E-02  0.1238353E+00
          2   -1    0    0  502    0 -0.00000000000E+00  0.00000000000E+00  0.24637406601E+02  0.24637406601E+02  0.00000000000E+00 0. -1.
         21   -1    0    0  501  502  0.00000000000E+00 -0.00000000000E+00 -0.80136276625E+03  0.80136276625E+03  0.00000000000E+00 0.  1.
         23    2    1    2    0    0 -0.20800116949E+02  0.97388432001E+02 -0.30660446204E+03  0.33533640050E+03  0.92342047890E+02 0.  0.
         24    2    1    2    0    0  0.47402229265E+01 -0.66570966009E+02 -0.38226589485E+03  0.39618553191E+03  0.79884905328E+02 0.  0.
        -13    1    4    4    0    0  0.23375792897E+02  0.72321992233E+01 -0.55227216456E+02  0.60405114325E+02  0.00000000000E+00 0.  1.
         14    1    4    4    0    0 -0.18635569971E+02 -0.73803165232E+02 -0.32703867839E+03  0.33578041758E+03  0.00000000000E+00 0. -1.
        -13    1    3    3    0    0  0.29094228649E+02  0.59470603138E+02 -0.10421235069E+03  0.12346433013E+03  0.00000000000E+00 0. -1.
         13    1    3    3    0    0 -0.49894345598E+02  0.37917828862E+02 -0.20239211135E+03  0.21187207037E+03  0.00000000000E+00 0.  1.
          1    1    1    2  501    0  0.16059894023E+02 -0.30817465992E+02 -0.87855002761E+02  0.94478240438E+02  0.00000000000E+00 0. -1.
<scales pt_clust_5="13000.00000" pt_clust_6="13000.00000" pt_clust_7="13000.00000" pt_clust_8="13000.00000" pt_clust_9="34.75108"></scales>
<clustering>
<clus scale="   34.751">  2  9  1 -1</clus>
<clus scale="   79.885">  5  6 -1 -1</clus>
<clus scale="   92.342">  7  8 -1 -1</clus>
<clus scale="  116.321">  2  5  1 -1</clus>
<clus scale="   34.751">  2  5  1 -1</clus>
</clustering>
</event>
<event>
 9    2  0.6175212E-005  0.1431694E+03  0.7546771E-02  0.1213548E+00
         21   -1    0    0  501  502  0.00000000000E+00  0.00000000000E+00  0.21374348097E+03  0.21374348097E+03  0.00000000000E+00 0.  1.
          2   -1    0    0  502    0 -0.00000000000E+00 -0.00000000000E+00 -0.83592926013E+03  0.83592926013E+03  0.00000000000E+00 0. -1.
         24    2    1    2    0    0 -0.84691661525E+02 -0.79919652411E+02 -0.84079748225E+02  0.16743937075E+03  0.86062247488E+02 0.  0.
         23    2    1    2    0    0  0.75296902695E+02 -0.57984981797E+02  0.13480646303E+03  0.19527109033E+03  0.10452815208E+03 0.  0.
        -13    1    3    3    0    0 -0.85222157224E+02 -0.96015525543E+02 -0.78037128874E+02  0.15023844618E+03  0.00000000000E+00 0.  1.
         14    1    3    3    0    0  0.53049569859E+00  0.16095873132E+02 -0.60426193510E+01  0.17200924573E+02  0.00000000000E+00 0. -1.
        -11    1    4    4    0    0 -0.19975623918E+02 -0.48380672523E+01  0.58859606333E+02  0.62344893162E+02  0.00000000000E+00 0.  1.
         11    1    4    4    0    0  0.95272526613E+02 -0.53146914545E+02  0.75946856696E+02  0.13292619717E+03  0.00000000000E+00 0. -1.
          1    1    1    2  501    0  0.93947588302E+01  0.13790463421E+03 -0.67291249396E+03  0.68696228001E+03  0.00000000000E+00 0. -1.
<scales pt_clust_5="13000.00000" pt_clust_6="13000.00000" pt_clust_7="13000.00000" pt_clust_8="13000.00000" pt_clust_9="138.22434"></scales>
<clustering>
<clus scale="   86.062">  5  6 -1 -1</clus>
<clus scale="  104.528">  7  8 -1 -1</clus>
<clus scale="  138.224">  1  9  2 -1</clus>
<clus scale="  130.300">  2  5  1 -1</clus>
<clus scale="  138.224">  1  5  2 -1</clus>
</clustering>
</event>
<event>
 9    2  0.6175212E-005  0.1026735E+03  0.7546771E-02  0.1279115E+00
          2   -1    0    0  502    0 -0.00000000000E+00  0.00000000000E+00  0.66296071411E+03  0.66296071411E+03  0.00000000000E+00 0. -1.
         21   -1    0    0  501  502  0.00000000000E+00 -0.00000000000E+00 -0.28122632374E+02  0.28122632374E+02  0.00000000000E+00 0.  1.
         24    2    1    2    0    0 -0.76508329582E+01  0.60140701337E+02  0.35721009406E+03  0.37123876474E+03  0.80893324503E+02 0.  0.
         23    2    1    2    0    0 -0.65774772880E+01 -0.35335336289E+02  0.27434928911E+03  0.29106089171E+03  0.90316449483E+02 0.  0.
        -13    1    3    3    0    0  0.72785328406E+01  0.29097224325E+02  0.30711622837E+02  0.42928187488E+02  0.00000000000E+00 0.  1.
         14    1    3    3    0    0 -0.14929365799E+02  0.31043477012E+02  0.32649847122E+03  0.32831057725E+03  0.00000000000E+00 0. -1.
        -11    1    4    4    0    0  0.38954180489E+02 -0.27836507543E+02  0.10261212532E+03  0.11323227275E+03  0.00000000000E+00 0.  1.
         11    1    4    4    0    0 -0.45531657777E+02 -0.74988287456E+01  0.17173716379E+03  0.17782861896E+03  0.00000000000E+00 0. -1.
          1    1    1    2  501    0  0.14228310246E+02 -0.24805365048E+02  0.32786985651E+01  0.28783690033E+02  0.00000000000E+00 0. -1.
<scales pt_clust_5="13000.00000" pt_clust_6="13000.00000" pt_clust_7="13000.00000" pt_clust_8="13000.00000" pt_clust_9="28.59635"></scales>
<clustering>
<clus scale="   28.596">  2  9  1 -1</clus>
<clus scale="   80.893">  5  6 -1 -1</clus>
<clus scale="   90.316">  7  8 -1 -1</clus>
<clus scale="   94.491">  1  5  2 -1</clus>
<clus scale="   28.596">  2  5  1 -1</clus>
</clustering>
</event>
<event>
 9    2  0.6175212E-005  0.2443858E+03  0.7546771E-02  0.1117549E+00
         21   -1    0    0  501  502  0.00000000000E+00  0.00000000000E+00  0.49239151198E+03  0.49239151198E+03  0.00000000000E+00 0.  1.
          2   -1    0    0  502    0 -0.00000000000E+00 -0.00000000000E+00 -0.18923495489E+03  0.18923495489E+03  0.00000000000E+00 0. -1.
         23    2    1    2    0    0  0.19207315527E+03  0.92232330839E+02  0.19858547502E+02  0.23265335418E+03  0.91292505039E+02 0.  0.
         24    2    1    2    0    0 -0.23948805471E+03 -0.11035092062E+03  0.28721101355E+03  0.39806370703E+03  0.80204080471E+02 0.  0.
        -13    1    4    4    0    0 -0.22432322196E+03 -0.12260735204E+03  0.26041037796E+03  0.36492058812E+03  0.00000000000E+00 0.  1.
         14    1    4    4    0    0 -0.15164832748E+02  0.12256431420E+02  0.26800635581E+02  0.33143118908E+02  0.00000000000E+00 0. -1.
        -11    1    3    3    0    0  0.25847295386E+02  0.32442260518E+02 -0.27494637930E+02  0.49764827551E+02  0.00000000000E+00 0.  1.
         11    1    3    3    0    0  0.16622585988E+03  0.59790070321E+02  0.47353185432E+02  0.18288852663E+03  0.00000000000E+00 0. -1.
          1    1    1    2  501    0  0.47414899437E+02  0.18118589779E+02 -0.39130039523E+01  0.50909405655E+02  0.00000000000E+00 0. -1.
<scales pt_clust_5="13000.00000" pt_clust_6="13000.00000" pt_clust_7="13000.00000" pt_clust_8="13000.00000" pt_clust_9="50.75883"></scales>
<clustering>
<clus scale="   50.759">  1  9  2 -1</clus>
<clus scale="   80.204">  5  6 -1 -1</clus>
<clus scale="   91.293">  7  8 -1 -1</clus>
<clus scale="  240.464">  1  5  2 -1</clus>
<clus scale="   50.759">  1  5  2 -1</clus>
</clustering>
</event>
<event>
 9    2  0.6175212E-005  0.1114095E+03  0.7546771E-02  0.1262549E+00
          2   -1    0    0  502    0 -0.00000000000E+00  0.00000000000E+00  0.96973798930E+03  0.96973798930E+03  0.00000000000E+00 0. -1.
         21   -1    0    0  501  502  0.00000000000E+00 -0.00000000000E+00 -0.17750091169E+02  0.17750091169E+02  0.00000000000E+00 0. -1.
         23    2    1    2    0    0  0.65727018846E+02 -0.47140170896E+02  0.53119373952E+03  0.54519702847E+03  0.92362190461E+02 0.  0.
         24    2    1    2    0    0 -0.45003557403E+02  0.89580038516E+01  0.29182798185E+03  0.30620426174E+03  0.80572407852E+02 0.  0.
        -13    1    4    4    0    0 -0.44437721470E+02  0.21911422327E+02  0.28862766607E+03  0.29284936595E+03  0.00000000000E+00 0.  1.
         14    1    4    4    0    0 -0.56583593355E+00 -0.12953418475E+02  0.32003157804E+01  0.13354895791E+02  0.00000000000E+00 0. -1.
        -11    1    3    3    0    0  0.72717861729E+02  0.23111070521E+01  0.32425432919E+03  0.33231626296E+03  0.00000000000E+00 0. -1.
         11    1    3    3    0    0 -0.69908428836E+01 -0.49451277949E+02  0.20693941033E+03  0.21288076551E+03  0.00000000000E+00 0.  1.
          1    1    1    2  501    0 -0.20723461442E+02  0.38182167045E+02  0.12896617676E+03  0.13608679026E+03  0.00000000000E+00 0. -1.
<scales pt_clust_5="13000.00000" pt_clust_6="13000.00000" pt_clust_7="13000.00000" pt_clust_8="13000.00000" pt_clust_9="43.44352"></scales>
<clustering>
<clus scale="   43.444">  2  9  1 -1</clus>
<clus scale="   80.572">  5  6 -1 -1</clus>
<clus scale="   92.362">  7  8 -1 -1</clus>
<clus scale="  101.849">  2  5  1 -1</clus>
<clus scale="   43.444">  2  5  1 -1</clus>
</clustering>
</event>
<event>
 9    2  0.6175212E-005  0.1294172E+03  0.7546771E-02  0.1231890E+00
         21   -1    0    0  501  502  0.00000000000E+00  0.00000000000E+00  0.18483640423E+03  0.18483640423E+03  0.00000000000E+00 0.  1.
         -1   -1    0    0    0  501 -0.00000000000E+00 -0.00000000000E+00 -0.25311829613E+03  0.25311829613E+03  0.00000000000E+00 0.  1.
         24    2    1    2    0    0 -0.16704865536E+02  0.90184034123E+02 -0.11117256827E+03  0.16536028952E+03  0.81070789262E+02 0.  0.
         23    2    1    2    0    0  0.75547812220E+02 -0.56720643013E+02  0.11323825244E+03  0.17496719959E+03  0.94158992362E+02 0.  0.
        -13    1    3    3    0    0 -0.10145110428E+02  0.91534919179E+02 -0.12186088928E+03  0.15274698371E+03  0.00000000000E+00 0.  1.
         14    1    3    3    0    0 -0.65597551088E+01 -0.13508850559E+01  0.10688321013E+02  0.12613305815E+02  0.00000000000E+00 0. -1.
        -13    1    4    4    0    0  0.51809081549E+02  0.16843587209E+02  0.60373579786E+02  0.81319471820E+02  0.00000000000E+00 0.  1.
         13    1    4    4    0    0  0.23738730671E+02 -0.73564230222E+02  0.52864672650E+02  0.93647727770E+02  0.00000000000E+00 0. -1.
         -2    1    1    2    0  502 -0.58842946683E+02 -0.33463391110E+02 -0.70347576061E+02  0.97627211251E+02  0.00000000000E+00 0.  1.
<scales pt_clust_5="13000.00000" pt_clust_6="13000.00000" pt_clust_7="13000.00000" pt_clust_8="13000.00000" pt_clust_9="67.69265"></scales>
<clustering>
<clus scale="   67.693">  1  9  2 -1</clus>
<clus scale="   81.071">  5  6 -1 -1</clus>
<clus scale="   94.159">  7  8 -1 -1</clus>
<clus scale="  120.230">  2  5  1 -1</clus>
<clus scale="   67.693">  1  5  2 -1</clus>
</clustering>
</event>
<event>
 9    2  0.6175212E-005  0.1356340E+03  0.7546771E-02  0.1235513E+00
         21   -1    0    0  501  502  0.00000000000E+00  0.00000000000E+00  0.60952834822E+02  0.60952834822E+02  0.00000000000E+00 0. -1.
          2   -1    0    0  502    0 -0.00000000000E+00 -0.00000000000E+00 -0.79968815253E+03  0.79968815253E+03  0.00000000000E+00 0. -1.
         23    2    1    2    0    0 -0.12419353270E+02 -0.33193414637E+02 -0.49422833909E+03  0.50364929166E+03  0.90249181263E+02 0.  0.
         24    2    1    2    0    0  0.66025536062E+02 -0.77071083994E+02 -0.17843239376E+03  0.21771595029E+03  0.72545106451E+02 0.  0.
        -11    1    4    4    0    0  0.42224029239E+02 -0.36430535303E+01 -0.95160262844E+02  0.10417109056E+03  0.00000000000E+00 0.  1.
         12    1    4    4    0    0  0.23801506824E+02 -0.73428030463E+02 -0.83272130913E+02  0.11354485973E+03  0.00000000000E+00 0. -1.
        -11    1    3    3    0    0  0.30710020522E+01  0.30074257421E+02 -0.11721881953E+03  0.12105430048E+03  0.00000000000E+00 0.  1.
         11    1    3    3    0    0 -0.15490355322E+02 -0.63267672059E+02 -0.37700951957E+03  0.38259499118E+03  0.00000000000E+00 0. -1.
          1    1    1    2  501    0 -0.53606182792E+02  0.11026449863E+03 -0.66074584862E+02  0.13927574540E+03  0.00000000000E+00 0. -1.
<scales pt_clust_5="13000.00000" pt_clust_6="13000.00000" pt_clust_7="13000.00000" pt_clust_8="13000.00000" pt_clust_9="114.60271"></scales>
<clustering>
<clus scale="   72.545">  5  6 -1 -1</clus>
<clus scale="   90.249">  7  8 -1 -1</clus>
<clus scale="   96.959">  2  7  1 -1</clus>
<clus scale="  114.603">  1  9  2 -1</clus>
<clus scale="  114.603">  1  5  2 -1</clus>
</clustering>
</event>
<event>
 9    2  0.6175212E-005  0.9600233E+02  0.7546771E-02  0.1292385E+00
         -1   -1    0    0    0  501 -0.00000000000E+00  0.00000000000E+00  0.15345849518E+03  0.15345849518E+03  0.00000000000E+00 0.  1.
         21   -1    0    0  501  502  0.00000000000E+00 -0.00000000000E+00 -0.13752662311E+03  0.13752662311E+03  0.00000000000E+00 0. -1.
         24    2    1    2    0    0  0.20257330310E+02 -0.36957613639E+02  0.10693837841E+03  0.14040329623E+03  0.80629052951E+02 0.  0.
         23    2    1    2    0    0 -0.28611708596E+02  0.13915104992E+02 -0.83606304937E+02  0.12497877884E+03  0.87277837510E+02 0.  0.
        -13    1    3    3    0    0  0.25416648870E+02 -0.56315951923E+02  0.10281129353E+03  0.11994854963E+03  0.00000000000E+00 0.  1.
         14    1    3    3    0    0 -0.51593185597E+01  0.19358338284E+02  0.41270848778E+01  0.20454746606E+02  0.00000000000E+00 0. -1.
        -11    1    4    4    0    0 -0.62704256483E+01 -0.34450436253E+02 -0.53041785937E+02  0.63557704892E+02  0.00000000000E+00 0.  1.
         11    1    4    4    0    0 -0.22341282947E+02  0.48365541245E+02 -0.30564519000E+02  0.61421073952E+02  0.00000000000E+00 0. -1.
         -2    1    1    2    0  502  0.83543782856E+01  0.23042508646E+02 -0.74002013984E+01  0.25603043218E+02  0.00000000000E+00 0.  1.
<scales pt_clust_5="13000.00000" pt_clust_6="13000.00000" pt_clust_7="13000.00000" pt_clust_8="13000.00000" pt_clust_9="24.51026"></scales>
<clustering>
<clus scale="   24.510">  2  9  1 -1</clus>
<clus scale="   80.629">  5  6 -1 -1</clus>
<clus scale="   87.278">  7  8 -1 -1</clus>
<clus scale="   90.000">  1  5  2 -1</clus>
<clus scale="   24.510">  2  5  1 -1</clus>
</clustering>
</event>
<event>
 9    2  0.6175212E-005  0.1274449E+03  0.7546771E-02  0.1239133E+00
          2   -1    0    0  502    0 -0.00000000000E+00  0.00000000000E+00  0.31785939615E+03  0.31785939615E+03  0.00000000000E+00 0. -1.
         21   -1    0    0  501  502  0.00000000000E+00 -0.00000000000E+00 -0.92154778103E+02  0.92154778103E+02  0.00000000000E+00 0. -1.
         24    2    1    2    0    0  0.27020390157E+02  0.65512461424E+02  0.10744198006E+03  0.15273651093E+03  0.82235506958E+02 0.  0.
         23    2    1    2    0    0 -0.52110663763E+02  0.44802446969E+02  0.73736796122E+02  0.13569867074E+03  0.90852812870E+02 0.  0.
        -11    1    3    3    0    0  0.25437541210E+02 -0.12740175115E+02  0.41920990218E+02  0.50663102803E+02  0.00000000000E+00 0.  1.
         12    1    3    3    0    0  0.15828489471E+01  0.78252636539E+02  0.65520989845E+02  0.10207340813E+03  0.00000000000E+00 0. -1.
        -11    1    4    4    0    0 -0.55105619118E+01  0.60220192802E+02  0.21913322480E+02  0.64319760695E+02  0.00000000000E+00 0. -1.
         11    1    4    4    0    0 -0.46600101851E+02 -0.15417745833E+02  0.51823473642E+02  0.71378910047E+02  0.00000000000E+00 0.  1.
          1    1    1    2  501    0  0.25090273606E+02 -0.11031490839E+03  0.44525841858E+02  0.12157899258E+03  0.00000000000E+00 0. -1.
<scales pt_clust_5="13000.00000" pt_clust_6="13000.00000" pt_clust_7="13000.00000" pt_clust_8="13000.00000" pt_clust_9="89.37554"></scales>
<clustering>
<clus scale="   82.236">  5  6 -1 -1</clus>
<clus scale="   90.853">  7  8 -1 -1</clus>
<clus scale="  108.557">  1  5  2 -1</clus>
<clus scale="   89.376">  2  9  1 -1</clus>
<clus scale="   89.376">  2  5  1 -1</clus>
</clustering>
</event>
<event>
 9    2  0.6175212E-005  0.1196955E+03  0.7546771E-02  0.1246679E+00
         -3   -1    0    0    0  501 -0.00000000000E+00  0.00000000000E+00  0.16529968958E+03  0.16529968958E+03  0.00000000000E+00 0.  1.
         21   -1    0    0  501  502  0.00000000000E+00 -0.00000000000E+00 -0.19058648568E+03  0.19058648568E+03  0.00000000000E+00 0. -1.
         24    2    1    2    0    0  0.15881199472E+02 -0.75859466284E+02 -0.19611518874E+02  0.11364034049E+03  0.80762888706E+02 0.  0.
         23    2    1    2    0    0 -0.97683449827E+02  0.38645443769E+02 -0.42632846839E+02  0.14507406116E+03  0.90517384503E+02 0.  0.
        -13    1    3    3    0    0  0.34598218832E+02 -0.84486548030E+02 -0.14985407793E+02  0.92517976584E+02  0.00000000000E+00 0.  1.
         14    1    3    3    0    0 -0.18717019360E+02  0.86270817458E+01 -0.46261110806E+01  0.21122363904E+02  0.00000000000E+00 0. -1.
        -13    1    4    4    0    0 -0.48579945460E+02  0.57328865440E+02  0.34023341162E+01  0.75220913255E+02  0.00000000000E+00 0.  1.
         13    1    4    4    0    0 -0.49103504368E+02 -0.18683421671E+02 -0.46035180955E+02  0.69853147904E+02  0.00000000000E+00 0. -1.
         -4    1    1    2    0  502  0.81802250355E+02  0.37214022515E+02  0.36957569620E+02  0.97171773613E+02  0.00000000000E+00 0.  1.
<scales pt_clust_5="13000.00000" pt_clust_6="13000.00000" pt_clust_7="13000.00000" pt_clust_8="13000.00000" pt_clust_9="89.86935"></scales>
<clustering>
<clus scale="   80.763">  5  6 -1 -1</clus>
<clus scale="   89.869">  2  9  1 -1</clus>
<clus scale="   90.517">  7  8 -1 -1</clus>
<clus scale="  112.500">  1  5  2 -1</clus>
<clus scale="   89.869">  2  5  1 -1</clus>
</clustering>
</event>
<event>
 9    2  0.6175212E-005  0.9780858E+02  0.7546771E-02  0.1288343E+00
          2   -1    0    0  502    0 -0.00000000000E+00  0.00000000000E+00  0.41944704812E+03  0.41944704812E+03  0.00000000000E+00 0. -1.
         21   -1    0    0  501  502  0.00000000000E+00 -0.00000000000E+00 -0.63718252709E+02  0.63718252709E+02  0.00000000000E+00 0. -1.
         24    2    1    2    0    0 -0.19614727266E+02 -0.61223513322E+02  0.73498911602E+02  0.12804015121E+03  0.82819890165E+02 0.  0.
         23    2    1    2    0    0  0.19076879454E+02  0.21808150215E+01  0.30294172333E+02  0.96362841270E+02  0.89439236448E+02 0.  0.
        -13    1    3    3    0    0  0.20269967404E+02 -0.41817441854E+02  0.54192710398E+01  0.46786093236E+02  0.00000000000E+00 0.  1.
         14    1    3    3    0    0 -0.39884694670E+02 -0.19406071468E+02  0.68079640562E+02  0.81254057977E+02  0.00000000000E+00 0. -1.
        -13    1    4    4    0    0 -0.25540023142E+02 -0.10013088742E+02  0.40577310833E+02  0.48980331590E+02  0.00000000000E+00 0.  1.
         13    1    4    4    0    0  0.44616902596E+02  0.12193903763E+02 -0.10283138500E+02  0.47382509680E+02  0.00000000000E+00 0. -1.
          1    1    1    2  501    0  0.53784781207E+00  0.59042698301E+02  0.25193571148E+03  0.25876230835E+03  0.00000000000E+00 0. -1.
<scales pt_clust_5="13000.00000" pt_clust_6="13000.00000" pt_clust_7="13000.00000" pt_clust_8="13000.00000" pt_clust_9="59.04518"></scales>
<clustering>
<clus scale="   59.045">  2  9  1 -1</clus>
<clus scale="   82.820">  5  6 -1 -1</clus>
<clus scale="   89.439">  7  8 -1 -1</clus>
<clus scale="   91.795">  1  5  2 -1</clus>
<clus scale="   59.045">  2  5  1 -1</clus>
</clustering>
</event>
<event>
 9    2  0.6175212E-005  0.1712685E+03  0.7546771E-02  0.1177908E+00
          4   -1    0    0  502    0 -0.00000000000E+00  0.00000000000E+00  0.60077690183E+03  0.60077690183E+03  0.00000000000E+00 0. -1.
         21   -1    0    0  501  502  0.00000000000E+00 -0.00000000000E+00 -0.11820918385E+03  0.11820918385E+03  0.00000000000E+00 0.  1.
         24    2    1    2    0    0  0.10028833137E+03 -0.91832072024E+02  0.38188506207E+03  0.41295311461E+03  0.78760366758E+02 0.  0.
         23    2    1    2    0    0 -0.10901704993E+03  0.15961480760E+03  0.10530723482E+03  0.23753423750E+03  0.89282116335E+02 0.  0.
        -11    1    3    3    0    0  0.49856865289E+02 -0.13210418639E+02  0.67282258127E+02  0.84776909803E+02  0.00000000000E+00 0.  1.
         12    1    3    3    0    0  0.50431466078E+02 -0.78621653385E+02  0.31460280394E+03  0.32817620480E+03  0.00000000000E+00 0. -1.
        -13    1    4    4    0    0 -0.10210827794E+03  0.13153351543E+03  0.47920799349E+02  0.17327310557E+03  0.00000000000E+00 0.  1.
         13    1    4    4    0    0 -0.69087719927E+01  0.28081292177E+02  0.57386435470E+02  0.64261131929E+02  0.00000000000E+00 0. -1.
          3    1    1    2  501    0  0.87287185630E+01 -0.67782735580E+02 -0.46245789038E+01  0.68498733569E+02  0.00000000000E+00 0. -1.
<scales pt_clust_5="13000.00000" pt_clust_6="13000.00000" pt_clust_7="13000.00000" pt_clust_8="13000.00000" pt_clust_9="68.34244"></scales>
<clustering>
<clus scale="   68.342">  2  9  1 -1</clus>
<clus scale="   78.760">  5  6 -1 -1</clus>
<clus scale="   89.282">  7  8 -1 -1</clus>
<clus scale="  166.027">  1  5  2 -1</clus>
<clus scale="   68.342">  2  5  1 -1</clus>
</clustering>
</event>
<event>
 9    2  0.6175212E-005  0.1046188E+03  0.7546771E-02  0.1271691E+00
         21   -1    0    0  501  502  0.00000000000E+00  0.00000000000E+00  0.10985979943E+03  0.10985979943E+03  0.00000000000E+00 0.  1.
          2   -1    0    0  502    0 -0.00000000000E+00 -0.00000000000E+00 -0.21804973246E+03  0.21804973246E+03  0.00000000000E+00 0. -1.
         23    2    1    2    0    0 -0.57122880917E+02  0.17226125204E+02 -0.16239366717E+03  0.19441321003E+03  0.88685005387E+02 0.  0.
         24    2    1    2    0    0  0.39374471945E+02 -0.33518581050E+01  0.28874482700E+02  0.99598353082E+02  0.86743946139E+02 0.  0.
        -13    1    4    4    0    0  0.57190897032E+02  0.23405645888E+02  0.10839494849E+02  0.62738485887E+02  0.00000000000E+00 0.  1.
         14    1    4    4    0    0 -0.17816425087E+02 -0.26757503993E+02  0.18034987852E+02  0.36859867195E+02  0.00000000000E+00 0. -1.
        -13    1    3    3    0    0 -0.17860927120E+02 -0.33259059336E+02 -0.91238444270E+02  0.98740222090E+02  0.00000000000E+00 0.  1.
         13    1    3    3    0    0 -0.39261953797E+02  0.50485184540E+02 -0.71155222903E+02  0.95672987935E+02  0.00000000000E+00 0. -1.
          1    1    1    2  501    0  0.17748408973E+02 -0.13874267099E+02  0.25329251451E+02  0.33897968784E+02  0.00000000000E+00 0. -1.
<scales pt_clust_5="13000.00000" pt_clust_6="13000.00000" pt_clust_7="13000.00000" pt_clust_8="13000.00000" pt_clust_9="22.52779"></scales>
<clustering>
<clus scale="   22.528">  1  9  2 -1</clus>
<clus scale="   86.744">  5  6 -1 -1</clus>
<clus scale="   88.685">  7  8 -1 -1</clus>
<clus scale="  102.979">  1  5  2 -1</clus>
<clus scale="   22.528">  1  5  2 -1</clus>
</clustering>
</event>
<event>
 9    2  0.6175212E-005  0.9146625E+02  0.7546771E-02  0.1304974E+00
          2   -1    0    0  502    0 -0.00000000000E+00  0.00000000000E+00  0.12358015888E+03  0.12358015888E+03  0.00000000000E+00 0. -1.
         21   -1    0    0  501  502  0.00000000000E+00 -0.00000000000E+00 -0.11527524261E+03  0.11527524261E+03  0.00000000000E+00 0. -1.
         23    2    1    2    0    0  0.16173971195E+02  0.39825596015E+02  0.21376657055E+02  0.10156084338E+03  0.89498424563E+02 0.  0.
         24    2    1    2    0    0 -0.25222288804E+01  0.12996859829E+02 -0.14835763109E+02  0.82707987553E+02  0.80282198114E+02 0.  0.
        -11    1    4    4    0    0 -0.39358707046E+02  0.20460222456E+01 -0.19542704592E+02  0.43991036930E+02  0.00000000000E+00 0.  1.
         12    1    4    4    0    0  0.36836478166E+02  0.10950837583E+02  0.47069414830E+01  0.38716950623E+02  0.00000000000E+00 0. -1.
        -13    1    3    3    0    0 -0.33880225971E+02  0.24068473090E+02 -0.66210991289E+01  0.42083251566E+02  0.00000000000E+00 0. -1.
         13    1    3    3    0    0  0.50054197166E+02  0.15757122925E+02  0.27997756184E+02  0.59477591815E+02  0.00000000000E+00 0.  1.
          1    1    1    2  501    0 -0.13651742315E+02 -0.52822455844E+02  0.17640223220E+01  0.54586570550E+02  0.00000000000E+00 0. -1.
<scales pt_clust_5="13000.00000" pt_clust_6="13000.00000" pt_clust_7="13000.00000" pt_clust_8="13000.00000" pt_clust_9="54.55806"></scales>
<clustering>
<clus scale="   54.558">  2  9  1 -1</clus>
<clus scale="   80.282">  5  6 -1 -1</clus>
<clus scale="   82.470">  2  5  1 -1</clus>
<clus scale="   89.498">  7  8 -1 -1</clus>
<clus scale="   54.558">  2  5  1 -1</clus>
</clustering>
</event>
<event>
 9    2  0.6175212E-005  0.2004207E+03  0.7546771E-02  0.1172780E+00
         21   -1    0    0  501  502  0.00000000000E+00  0.00000000000E+00  0.78685762337E+02  0.78685762337E+02  0.00000000000E+00 0. -1.
          2   -1    0    0  502    0 -0.00000000000E+00 -0.00000000000E+00 -0.98573468571E+03  0.98573468571E+03  0.00000000000E+00 0. -1.
         23    2    1    2    0    0 -0.13730781519E+02  0.71274335774E+02 -0.23715566634E+03  0.26416901398E+03  0.90960939809E+02 0.  0.
         24    2    1    2    0    0 -0.12934283441E+03 -0.14599989194E+03 -0.15924878929E+03  0.26470335895E+03  0.81622019648E+02 0.  0.
        -11    1    4    4    0    0 -0.21454205355E+02 -0.19678087528E+02 -0.70687390344E+02  0.76447480075E+02  0.00000000000E+00 0.  1.
         12    1    4    4    0    0 -0.10788862905E+03 -0.12632180441E+03 -0.88561398948E+02  0.18825587888E+03  0.00000000000E+00 0. -1.
        -13    1    3    3    0    0 -0.34864300464E+02  0.51176852541E+02 -0.22358589749E+03  0.23200267938E+03  0.00000000000E+00 0. -1.
         13    1    3    3    0    0  0.21133518946E+02  0.20097483232E+02 -0.13569768852E+02  0.32166334606E+02  0.00000000000E+00 0.  1.
          1    1    1    2  501    0  0.14307361592E+03  0.74725556169E+02 -0.51064446774E+03  0.53554807511E+03  0.00000000000E+00 0. -1.
<scales pt_clust_5="13000.00000" pt_clust_6="13000.00000" pt_clust_7="13000.00000" pt_clust_8="13000.00000" pt_clust_9="183.04732"></scales>
<clustering>
<clus scale="   81.622">  5  6 -1 -1</clus>
<clus scale="   90.961">  7  8 -1 -1</clus>
<clus scale="  116.372">  2  7  1 -1</clus>
<clus scale="  183.047">  1  9  2 -1</clus>
<clus scale="  183.047">  1  5  2 -1</clus>
</clustering>
</event>
<event>
 9    2  0.6175212E-005  0.9785352E+02  0.7546771E-02  0.1291148E+00
          2   -1    0    0  502    0 -0.00000000000E+00  0.00000000000E+00  0.17951541875E+03  0.17951541875E+03  0.00000000000E+00 0. -1.
         21   -1    0    0  501  502  0.00000000000E+00 -0.00000000000E+00 -0.11738933448E+03  0.11738933448E+03  0.00000000000E+00 0. -1.
         23    2    1    2    0    0 -0.25411954309E+02  0.15532338277E+02  0.30469449925E+02  0.10156330412E+03  0.92193798117E+02 0.  0.
         24    2    1    2    0    0  0.40159923970E+02  0.57268067625E+02 -0.14838535804E+02  0.10771038979E+03  0.80553676900E+02 0.  0.
        -13    1    4    4    0    0  0.33673795214E+02  0.28004534791E+02  0.30492132566E+02  0.53366174693E+02  0.00000000000E+00 0.  1.
         14    1    4    4    0    0  0.64861287562E+01  0.29263532834E+02 -0.45330668370E+02  0.54344215102E+02  0.00000000000E+00 0. -1.
        -13    1    3    3    0    0 -0.52369473104E+02  0.34776131679E+02  0.13299207736E+02  0.64255816656E+02  0.00000000000E+00 0.  1.
         13    1    3    3    0    0  0.26957518796E+02 -0.19243793402E+02  0.17170242189E+02  0.37307487465E+02  0.00000000000E+00 0. -1.
          1    1    1    2  501    0 -0.14747969661E+02 -0.72800405902E+02  0.46495170156E+02  0.87631059314E+02  0.00000000000E+00 0. -1.
<scales pt_clust_5="13000.00000" pt_clust_6="13000.00000" pt_clust_7="13000.00000" pt_clust_8="13000.00000" pt_clust_9="74.27925"></scales>
<clustering>
<clus scale="   74.279">  2  9  1 -1</clus>
<clus scale="   80.554">  5  6 -1 -1</clus>
<clus scale="   86.974">  2  5  1 -1</clus>
<clus scale="   92.194">  7  8 -1 -1</clus>
<clus scale="   74.279">  2  5  1 -1</clus>
</clustering>
</event>
<event>
 9    2  0.6175212E-005  0.9810232E+02  0.7546771E-02  0.1290059E+00
          2   -1    0    0  502    0 -0.00000000000E+00  0.00000000000E+00  0.39912326302E+03  0.39912326302E+03  0.00000000000E+00 0. -1.
         21   -1    0    0  501  502  0.00000000000E+00 -0.00000000000E+00 -0.61303129151E+02  0.61303129151E+02  0.00000000000E+00 0. -1.
         24    2    1    2    0    0  0.13974173030E+02  0.37244359668E+02  0.23456305525E+03  0.25147930149E+03  0.81483693760E+02 0.  0.
         23    2    1    2    0    0 -0.52699493266E+02  0.16693399120E+02  0.92197768288E+02  0.14163260045E+03  0.92214201013E+02 0.  0.
        -11    1    3    3    0    0  0.12513237008E+02 -0.24549652981E+02  0.93325506966E+02  0.97308359416E+02  0.00000000000E+00 0.  1.
         12    1    3    3    0    0  0.14609360220E+01  0.61794012649E+02  0.14123754828E+03  0.15417094207E+03  0.00000000000E+00 0. -1.
        -13    1    4    4    0    0 -0.25445188629E+02 -0.18752822145E+02  0.91616568268E+02  0.96916054109E+02  0.00000000000E+00 0.  1.
         13    1    4    4    0    0 -0.27254304637E+02  0.35446221266E+02  0.58120001940E+00  0.44716546342E+02  0.00000000000E+00 0. -1.
          1    1    1    2  501    0  0.38725320236E+02 -0.53937758788E+02  0.11059310332E+02  0.67314490234E+02  0.00000000000E+00 0. -1.
<scales pt_clust_5="13000.00000" pt_clust_6="13000.00000" pt_clust_7="13000.00000" pt_clust_8="13000.00000" pt_clust_9="66.39979"></scales>
<clustering>
<clus scale="   66.400">  2  9  1 -1</clus>
<clus scale="   81.484">  5  6 -1 -1</clus>
<clus scale="   88.092">  1  5  2 -1</clus>
<clus scale="   92.214">  7  8 -1 -1</clus>
<clus scale="   66.400">  2  5  1 -1</clus>
</clustering>
</event>
<event>
 9    2  0.6175212E-005  0.1279487E+03  0.7546771E-02  0.1237969E+00
          2   -1    0    0  502    0 -0.00000000000E+00  0.00000000000E+00  0.59150919438E+03  0.59150919438E+03  0.00000000000E+00 0. -1.
         21   -1    0    0  501  502  0.00000000000E+00 -0.00000000000E+00 -0.72895231494E+02  0.72895231494E+02  0.00000000000E+00 0. -1.
         24    2    1    2    0    0 -0.54277765972E+02  0.36627053870E+01  0.38058716975E+03  0.39612358470E+03  0.95434843178E+02 0.  0.
         23    2    1    2    0    0 -0.42203332998E+02  0.54015285262E+02  0.55309878157E+02  0.12871923797E+03  0.93865261113E+02 0.  0.
        -11    1    3    3    0    0 -0.28226241137E+01  0.29651458435E+02  0.35891650670E+02  0.46641041820E+02  0.00000000000E+00 0.  1.
         12    1    3    3    0    0 -0.51455141858E+02 -0.25988753048E+02  0.34469551907E+03  0.34948254288E+03  0.00000000000E+00 0. -1.
        -13    1    4    4    0    0 -0.69115261783E+02  0.24901076728E+02  0.21316332388E+02  0.76494242006E+02  0.00000000000E+00 0. -1.
         13    1    4    4    0    0  0.26911928785E+02  0.29114208534E+02  0.33993545769E+02  0.52224995964E+02  0.00000000000E+00 0.  1.
          1    1    1    2  501    0  0.96481098970E+02 -0.57677990649E+02  0.82716914983E+02  0.13956160320E+03  0.00000000000E+00 0. -1.
<scales pt_clust_5="13000.00000" pt_clust_6="13000.00000" pt_clust_7="13000.00000" pt_clust_8="13000.00000" pt_clust_9="86.94931"></scales>
<clustering>
<clus scale="   93.865">  7  8 -1 -1</clus>
<clus scale="   95.435">  5  6 -1 -1</clus>
<clus scale="  109.851">  1  5  2 -1</clus>
<clus scale="   86.949">  2  9  1 -1</clus>
<clus scale="   86.949">  2  5  1 -1</clus>
</clustering>
</event>
<event>
 9    2  0.6175212E-005  0.1416474E+03  0.7546771E-02  0.1231798E+00
         -1   -1    0    0    0  501 -0.00000000000E+00  0.00000000000E+00  0.60190477244E+03  0.60190477244E+03  0.00000000000E+00 0.  1.
         21   -1    0    0  501  502  0.00000000000E+00 -0.00000000000E+00 -0.10141976882E+03  0.10141976882E+03  0.00000000000E+00 0. -1.
         23    2    1    2    0    0 -0.68046898628E+01  0.11810521563E+01  0.27461872576E+02  0.95889459017E+02  0.91612964240E+02 0.  0.
         24    2    1    2    0    0 -0.10521150535E+02  0.10996263448E+03  0.47465656826E+03  0.49493720697E+03  0.86380006113E+02 0.  0.
        -13    1    4    4    0    0  0.21491711311E+02  0.90707274021E+01  0.30816881807E+02  0.38650381045E+02  0.00000000000E+00 0.  1.
         14    1    4    4    0    0 -0.32012861845E+02  0.10089190708E+03  0.44383968645E+03  0.45628682592E+03  0.00000000000E+00 0. -1.
        -13    1    3    3    0    0  0.24866051319E+02 -0.26255121364E+02  0.38232969032E+02  0.52625201444E+02  0.00000000000E+00 0.  1.
         13    1    3    3    0    0 -0.31670741181E+02  0.27436173521E+02 -0.10771096456E+02  0.43264257572E+02  0.00000000000E+00 0. -1.
         -2    1    1    2    0  502  0.17325840398E+02 -0.11114368664E+03 -0.16334372105E+01  0.11249787528E+03  0.00000000000E+00 0.  1.
<scales pt_clust_5="13000.00000" pt_clust_6="13000.00000" pt_clust_7="13000.00000" pt_clust_8="13000.00000" pt_clust_9="112.26074"></scales>
<clustering>
<clus scale="   86.380">  5  6 -1 -1</clus>
<clus scale="   91.613">  7  8 -1 -1</clus>
<clus scale="   91.873">  1  7  2 -1</clus>
<clus scale="  112.261">  2  9  1 -1</clus>
<clus scale="  112.261">  2  5  1 -1</clus>
</clustering>
</event>
<event>
 9    2  0.6175212E-005  0.9970552E+02  0.7546771E-02  0.1285466E+00
         -1   -1    0    0    0  501 -0.00000000000E+00  0.00000000000E+00  0.52854228909E+03  0.52854228909E+03  0.00000000000E+00 0.  1.
         21   -1    0    0  501  502  0.00000000000E+00 -0.00000000000E+00 -0.37440399954E+02  0.37440399954E+02  0.00000000000E+00 0. -1.
         23    2    1    2    0    0  0.27001629864E+02 -0.19084755372E+02  0.14723434079E+03  0.17563973715E+03  0.89877974246E+02 0.  0.
         24    2    1    2    0    0 -0.25592750681E+02  0.57152759582E+02  0.97954815893E+02  0.14149715654E+03  0.80652790011E+02 0.  0.
        -13    1    4    4    0    0 -0.10283413988E+02 -0.19085075518E+02  0.36213917343E+02  0.42207067182E+02  0.00000000000E+00 0.  1.
         14    1    4    4    0    0 -0.15309336692E+02  0.76237835100E+02  0.61740898550E+02  0.99290089357E+02  0.00000000000E+00 0. -1.
        -11    1    3    3    0    0 -0.14865686001E+02 -0.40028701223E+02  0.39475684995E+02  0.58151657308E+02  0.00000000000E+00 0. -1.
         11    1    3    3    0    0  0.41867315865E+02  0.20943945851E+02  0.10775865580E+03  0.11748807984E+03  0.00000000000E+00 0.  1.
         -2    1    1    2    0  502 -0.14088791831E+01 -0.38068004210E+02  0.24591273245E+03  0.24884579536E+03  0.00000000000E+00 0.  1.
<scales pt_clust_5="13000.00000" pt_clust_6="13000.00000" pt_clust_7="13000.00000" pt_clust_8="13000.00000" pt_clust_9="38.09409"></scales>
<clustering>
<clus scale="   38.094">  2  9  1 -1</clus>
<clus scale="   80.653">  5  6 -1 -1</clus>
<clus scale="   89.878">  7  8 -1 -1</clus>
<clus scale="   91.477">  2  5  1 -1</clus>
<clus scale="   38.094">  2  5  1 -1</clus>
</clustering>
</event>
<event>
 9    2  0.6175212E-005  0.1025397E+03  0.7546771E-02  0.1280313E+00
         21   -1    0    0  501  502  0.00000000000E+00  0.00000000000E+00  0.27669178611E+02  0.27669178611E+02  0.00000000000E+00 0. -1.
         -1   -1    0    0    0  501 -0.00000000000E+00 -0.00000000000E+00 -0.51546029310E+03  0.51546029310E+03  0.00000000000E+00 0.  1.
         24    2    1    2    0    0  0.30155087217E+02  0.25938092009E+02 -0.28882530789E+03  0.30240052537E+03  0.80273939534E+02 0.  0.
         23    2    1    2    0    0 -0.46123783516E+02 -0.40233346407E+02 -0.18467377183E+03  0.21496820454E+03  0.91437417906E+02 0.  0.
        -11    1    3    3    0    0  0.57081277586E+02  0.24187852708E+02 -0.21668537442E+03  0.22537940446E+03  0.00000000000E+00 0.  1.
         12    1    3    3    0    0 -0.26926190370E+02  0.17502393015E+01 -0.72139933469E+02  0.77021120911E+02  0.00000000000E+00 0. -1.
        -11    1    4    4    0    0 -0.50272280407E+02  0.71289495891E+01 -0.14299530705E+03  0.15174248561E+03  0.00000000000E+00 0.  1.
         11    1    4    4    0    0  0.41484968916E+01 -0.47362295996E+02 -0.41678464777E+02  0.63225718934E+02  0.00000000000E+00 0. -1.
         -2    1    1    2    0  502  0.15968696299E+02  0.14295254398E+02 -0.14292034770E+02  0.25760741792E+02  0.00000000000E+00 0.  1.
<scales pt_clust_5="13000.00000" pt_clust_6="13000.00000" pt_clust_7="13000.00000" pt_clust_8="13000.00000" pt_clust_9="21.43254"></scales>
<clustering>
<clus scale="   21.433">  1  9  2 -1</clus>
<clus scale="   80.274">  5  6 -1 -1</clus>
<clus scale="   91.437">  7  8 -1 -1</clus>
<clus scale="   92.723">  2  5  1 -1</clus>
<clus scale="   21.433">  1  5  2 -1</clus>
</clustering>
</event>
<event>
 9    2  0.6175212E-005  0.1084912E+03  0.7546771E-02  0.1268103E+00
          2   -1    0    0  502    0 -0.00000000000E+00  0.00000000000E+00  0.83733514339E+03  0.83733514339E+03  0.00000000000E+00 0. -1.
         21   -1    0    0  501  502  0.00000000000E+00 -0.00000000000E+00 -0.58875618039E+02  0.58875618039E+02  0.00000000000E+00 0. -1.
         24    2    1    2    0    0  0.26264357987E+02  0.52860105248E+02  0.56535823733E+03  0.57425629342E+03  0.81586437477E+02 0.  0.
         23    2    1    2    0    0 -0.36426616227E+01 -0.51614644558E+02  0.25391060251E+03  0.27527800212E+03  0.92898029404E+02 0.  0.
        -13    1    3    3    0    0  0.51398930093E+02  0.16312505968E+02  0.24663940639E+03  0.25246572966E+03  0.00000000000E+00 0.  1.
         14    1    3    3    0    0 -0.25134572106E+02  0.36547599280E+02  0.31871883094E+03  0.32179056376E+03  0.00000000000E+00 0. -1.
        -11    1    4    4    0    0 -0.43106532205E+02 -0.14415548019E+02  0.69380347255E+02  0.82943436923E+02  0.00000000000E+00 0.  1.
         11    1    4    4    0    0  0.39463870582E+02 -0.37199096539E+02  0.18453025525E+03  0.19233456519E+03  0.00000000000E+00 0. -1.
          1    1    1    2  501    0 -0.22621696365E+02 -0.12454606897E+01 -0.40809314494E+02  0.46676465893E+02  0.00000000000E+00 0. -1.
<scales pt_clust_5="13000.00000" pt_clust_6="13000.00000" pt_clust_7="13000.00000" pt_clust_8="13000.00000" pt_clust_9="22.65596"></scales>
<clustering>
<clus scale="   22.656">  2  9  1 -1</clus>
<clus scale="   81.586">  5  6 -1 -1</clus>
<clus scale="   92.898">  7  8 -1 -1</clus>
<clus scale="   98.978">  1  5  2 -1</clus>
<clus scale="   22.656">  2  5  1 -1</clus>
</clustering>
</event>
<event>
 9    2  0.6175212E-005  0.9700458E+02  0.7546771E-02  0.1288761E+00
         21   -1    0    0  501  502  0.00000000000E+00  0.00000000000E+00  0.50642305810E+02  0.50642305810E+02  0.00000000000E+00 0.  1.
          2   -1    0    0  502    0 -0.00000000000E+00 -0.00000000000E+00 -0.52354723351E+03  0.52354723351E+03  0.00000000000E+00 0. -1.
         23    2    1    2    0    0  0.24992667070E+02 -0.31305507589E+02 -0.15250441531E+03  0.17853322201E+03  0.83736768855E+02 0.  0.
         24    2    1    2    0    0 -0.26528145497E+02  0.71227066439E+02 -0.47417720499E+02  0.11976559035E+03  0.79487853902E+02 0.  0.
        -11    1    4    4    0    0 -0.45040496181E+02  0.16981554429E+02 -0.38753879583E+02  0.61797108911E+02  0.00000000000E+00 0.  1.
         12    1    4    4    0    0  0.18512350684E+02  0.54245512010E+02 -0.86638409158E+01  0.57968481440E+02  0.00000000000E+00 0. -1.
        -13    1    3    3    0    0  0.37669365142E+02  0.59850309164E+01 -0.26311833998E+02  0.46336964441E+02  0.00000000000E+00 0.  1.
         13    1    3    3    0    0 -0.12676698072E+02 -0.37290538505E+02 -0.12619258132E+03  0.13219625757E+03  0.00000000000E+00 0. -1.
          1    1    1    2  501    0  0.15354784264E+01 -0.39921558850E+02 -0.27298279189E+03  0.27589072696E+03  0.00000000000E+00 0. -1.
<scales pt_clust_5="13000.00000" pt_clust_6="13000.00000" pt_clust_7="13000.00000" pt_clust_8="13000.00000" pt_clust_9="39.95110"></scales>
<clustering>
<clus scale="   39.951">  1  9  2 -1</clus>
<clus scale="   79.488">  5  6 -1 -1</clus>
<clus scale="   83.737">  7  8 -1 -1</clus>
<clus scale="   93.361">  1  5  2 -1</clus>
<clus scale="   39.951">  1  5  2 -1</clus>
</clustering>
</event>
<event>
 9    2  0.6175212E-005  0.1119996E+03  0.7546771E-02  0.1260134E+00
         21   -1    0    0  501  502  0.00000000000E+00  0.00000000000E+00  0.42932642037E+02  0.42932642037E+02  0.00000000000E+00 0. -1.
         -3   -1    0    0    0  501 -0.00000000000E+00 -0.00000000000E+00 -0.56249935273E+03  0.56249935273E+03  0.00000000000E+00 0.  1.
         23    2    1    2    0    0  0.71740463853E+01 -0.71294256851E+02 -0.31168289986E+03  0.33187349850E+03  0.88653544428E+02 0.  0.
         24    2    1    2    0    0 -0.60844785502E+02  0.47924416999E+02 -0.94349395293E+02  0.14582141800E+03  0.79769918441E+02 0.  0.
        -13    1    4    4    0    0  0.11287790003E+02  0.33372964311E+02 -0.45299120222E+02  0.57386228688E+02  0.00000000000E+00 0.  1.
         14    1    4    4    0    0 -0.72132575505E+02  0.14551452688E+02 -0.49050275071E+02  0.88435189313E+02  0.00000000000E+00 0. -1.
        -13    1    3    3    0    0 -0.24282506477E+02 -0.76442518267E+01 -0.22093035097E+02  0.33707223359E+02  0.00000000000E+00 0. -1.
         13    1    3    3    0    0  0.31456552862E+02 -0.63650005025E+02 -0.28958986476E+03  0.29816627514E+03  0.00000000000E+00 0.  1.
         -4    1    1    2    0  502  0.53670739116E+02  0.23369839852E+02 -0.11353441554E+03  0.12773707827E+03  0.00000000000E+00 0.  1.
<scales pt_clust_5="13000.00000" pt_clust_6="13000.00000" pt_clust_7="13000.00000" pt_clust_8="13000.00000" pt_clust_9="58.53803"></scales>
<clustering>
<clus scale="   58.538">  1  9  2 -1</clus>
<clus scale="   79.770">  5  6 -1 -1</clus>
<clus scale="   88.654">  7  8 -1 -1</clus>
<clus scale="  105.108">  1  5  2 -1</clus>
<clus scale="   58.538">  1  5  2 -1</clus>
</clustering>
</event>
<event>
 9    2  0.6175212E-005  0.1021822E+03  0.7546771E-02  0.1281870E+00
         21   -1    0    0  501  502  0.00000000000E+00  0.00000000000E+00  0.31385552582E+03  0.31385552582E+03  0.00000000000E+00 0. -1.
          4   -1    0    0  502    0 -0.00000000000E+00 -0.00000000000E+00 -0.57342021315E+02  0.57342021315E+02  0.00000000000E+00 0. -1.
         24    2    1    2    0    0  0.36037609733E+02 -0.21628268542E+02  0.19739331917E+02  0.91291414476E+02  0.78600189675E+02 0.  0.
         23    2    1    2    0    0 -0.30281364659E+02  0.57995890370E+02  0.17374765822E+03  0.20691243575E+03  0.91345623795E+02 0.  0.
        -13    1    3    3    0    0 -0.11525987140E+02 -0.22263471633E+02  0.33436057771E+02  0.41790914180E+02  0.00000000000E+00 0.  1.
         14    1    3    3    0    0  0.47563596873E+02  0.63520309132E+00 -0.13696725853E+02  0.49500500296E+02  0.00000000000E+00 0. -1.
        -11    1    4    4    0    0 -0.59646434689E+02  0.56106313818E+02  0.11460952802E+03  0.14085794097E+03  0.00000000000E+00 0. -1.
         11    1    4    4    0    0  0.29365070030E+02  0.18895765515E+01  0.59138130197E+02  0.66054494779E+02  0.00000000000E+00 0.  1.
          3    1    1    2  501    0 -0.57562450743E+01 -0.36367621828E+02  0.63026514373E+02  0.72993696911E+02  0.00000000000E+00 0. -1.
<scales pt_clust_5="13000.00000" pt_clust_6="13000.00000" pt_clust_7="13000.00000" pt_clust_8="13000.00000" pt_clust_9="36.82035"></scales>
<clustering>
<clus scale="   36.820">  1  9  2 -1</clus>
<clus scale="   78.600">  5  6 -1 -1</clus>
<clus scale="   90.968">  2  5  1 -1</clus>
<clus scale="   91.346">  7  8 -1 -1</clus>
<clus scale="   36.820">  1  5  2 -1</clus>
</clustering>
</event>
<event>
 9    2  0.6175212E-005  0.9201313E+02  0.7546771E-02  0.1307090E+00
          2   -1    0    0  502    0 -0.00000000000E+00  0.00000000000E+00  0.49203846109E+03  0.49203846109E+03  0.00000000000E+00 0. -1.
         21   -1    0    0  501  502  0.00000000000E+00 -0.00000000000E+00 -0.10355791224E+03  0.10355791224E+03  0.00000000000E+00 0.  1.
         24    2    1    2    0    0 -0.58868917873E+01 -0.23878818131E+01  0.42882457870E+03  0.43585872640E+03  0.77729998117E+02 0.  0.
         23    2    1    2    0    0 -0.25834239001E+02  0.24638517767E+02 -0.60942609556E+02  0.11585573238E+03  0.91837272401E+02 0.  0.
        -13    1    3    3    0    0  0.17253338609E+02  0.23210871565E+02  0.75445197542E+02  0.80798515358E+02  0.00000000000E+00 0.  1.
         14    1    3    3    0    0 -0.23140230396E+02 -0.25598753378E+02  0.35337938116E+03  0.35506021104E+03  0.00000000000E+00 0. -1.
        -13    1    4    4    0    0 -0.39261093164E+02 -0.92918271675E+01 -0.67637175069E+02  0.78756326348E+02  0.00000000000E+00 0.  1.
         13    1    4    4    0    0  0.13426854163E+02  0.33930344935E+02  0.66945655131E+01  0.37099406027E+02  0.00000000000E+00 0. -1.
          1    1    1    2  501    0  0.31721130788E+02 -0.22250635954E+02  0.20598579710E+02  0.43881914554E+02  0.00000000000E+00 0. -1.
<scales pt_clust_5="13000.00000" pt_clust_6="13000.00000" pt_clust_7="13000.00000" pt_clust_8="13000.00000" pt_clust_9="38.74688"></scales>
<clustering>
<clus scale="   38.747">  2  9  1 -1</clus>
<clus scale="   77.730">  5  6 -1 -1</clus>
<clus scale="   77.938">  1  5  2 -1</clus>
<clus scale="   91.837">  7  8 -1 -1</clus>
<clus scale="   38.747">  2  5  1 -1</clus>
</clustering>
</event>
<event>
 9    2  0.6175212E-005  0.1059933E+03  0.7546771E-02  0.1272789E+00
         21   -1    0    0  501  502  0.00000000000E+00  0.00000000000E+00  0.26542876026E+02  0.26542876026E+02  0.00000000000E+00 0. -1.
          2   -1    0    0  502    0 -0.00000000000E+00 -0.00000000000E+00 -0.51891864322E+03  0.51891864322E+03  0.00000000000E+00 0. -1.
         23    2    1    2    0    0  0.43987233561E+02 -0.41740127769E+02 -0.30309445022E+03  0.32243277059E+03  0.91758001378E+02 0.  0.
         24    2    1    2    0    0 -0.20599622533E+02  0.40134820865E+02 -0.16467220110E+03  0.18904101639E+03  0.81144462351E+02 0.  0.
        -13    1    4    4    0    0 -0.51217951104E+02  0.23414112639E+02 -0.11821065572E+03  0.13093990343E+03  0.00000000000E+00 0.  1.
         14    1    4    4    0    0  0.30618328571E+02  0.16720708225E+02 -0.46461545378E+02  0.58101112958E+02  0.00000000000E+00 0. -1.
        -11    1    3    3    0    0 -0.39476024098E+01 -0.52287960168E+02 -0.21781293774E+03  0.22403591273E+03  0.00000000000E+00 0. -1.
         11    1    3    3    0    0  0.47934835971E+02  0.10547832399E+02 -0.85281512473E+02  0.98396857864E+02  0.00000000000E+00 0.  1.
          1    1    1    2  501    0 -0.23387611028E+02  0.16053069041E+01 -0.24609115883E+02  0.33987732263E+02  0.00000000000E+00 0. -1.
<scales pt_clust_5="13000.00000" pt_clust_6="13000.00000" pt_clust_7="13000.00000" pt_clust_8="13000.00000" pt_clust_9="23.44264"></scales>
<clustering>
<clus scale="   23.443">  1  9  2 -1</clus>
<clus scale="   81.144">  5  6 -1 -1</clus>
<clus scale="   91.758">  7  8 -1 -1</clus>
<clus scale="   96.951">  1  5  2 -1</clus>
<clus scale="   23.443">  1  5  2 -1</clus>
</clustering>
</event>
<event>
 9    2  0.6175212E-005  0.9498187E+02  0.7546771E-02  0.1298012E+00
         21   -1    0    0  501  502  0.00000000000E+00  0.00000000000E+00  0.57076608392E+02  0.57076608392E+02  0.00000000000E+00 0.  1.
         -3   -1    0    0    0  501 -0.00000000000E+00 -0.00000000000E+00 -0.44705256118E+03  0.44705256118E+03  0.00000000000E+00 0.  1.
         23    2    1    2    0    0 -0.13158121661E+02  0.26231763056E+01 -0.78365781842E+02  0.12171092210E+03  0.92153869017E+02 0.  0.
         24    2    1    2    0    0 -0.64556074432E+02 -0.22678153301E+02 -0.67283401965E+02  0.12524657637E+03  0.80485174596E+02 0.  0.
        -11    1    4    4    0    0 -0.76150999643E+02 -0.18473157361E+02 -0.76760377175E+02  0.10969224126E+03  0.00000000000E+00 0.  1.
         12    1    4    4    0    0  0.11594925211E+02 -0.42049959402E+01  0.94769752103E+01  0.15554335108E+02  0.00000000000E+00 0. -1.
        -13    1    3    3    0    0 -0.27095373912E+02 -0.35987855277E+02 -0.63909722321E+02  0.78190393413E+02  0.00000000000E+00 0.  1.
         13    1    3    3    0    0  0.13937252251E+02  0.38611031583E+02 -0.14456059521E+02  0.43520528685E+02  0.00000000000E+00 0. -1.
         -4    1    1    2    0  502  0.77714196093E+02  0.20054976995E+02 -0.24432676898E+03  0.25717167111E+03  0.00000000000E+00 0.  1.
<scales pt_clust_5="13000.00000" pt_clust_6="13000.00000" pt_clust_7="13000.00000" pt_clust_8="13000.00000" pt_clust_9="80.26023"></scales>
<clustering>
<clus scale="   80.260">  1  9  2 -1</clus>
<clus scale="   80.485">  5  6 -1 -1</clus>
<clus scale="   83.708">  1  5  2 -1</clus>
<clus scale="   92.154">  7  8 -1 -1</clus>
<clus scale="   80.260">  1  5  2 -1</clus>
</clustering>
</event>
<event>
 9    2  0.6175212E-005  0.3938005E+03  0.7546771E-02  0.1091814E+00
         21   -1    0    0  501  502  0.00000000000E+00  0.00000000000E+00  0.11245695752E+04  0.11245695752E+04  0.00000000000E+00 0.  1.
         -1   -1    0    0    0  501 -0.00000000000E+00 -0.00000000000E+00 -0.28817669864E+03  0.28817669864E+03  0.00000000000E+00 0.  1.
         24    2    1    2    0    0 -0.55037729370E+02  0.53127400622E+02 -0.82796578807E+02  0.13881768331E+03  0.81014834363E+02 0.  0.
         23    2    1    2    0    0 -0.33954004764E+03 -0.83569583798E+02  0.11818762640E+03  0.38049572867E+03  0.92397863707E+02 0.  0.
        -11    1    3    3    0    0 -0.60970768194E+02  0.54456538703E+02 -0.94910508963E+02  0.12526353776E+03  0.00000000000E+00 0.  1.
         12    1    3    3    0    0  0.59330388241E+01 -0.13291380802E+01  0.12113930155E+02  0.13554145548E+02  0.00000000000E+00 0. -1.
        -13    1    4    4    0    0 -0.26006856413E+03 -0.85516140870E+02  0.12450591625E+03  0.30074971585E+03  0.00000000000E+00 0.  1.
         13    1    4    4    0    0 -0.79471483502E+02  0.19465570717E+01 -0.63182898557E+01  0.79746012823E+02  0.00000000000E+00 0. -1.
         -2    1    1    2    0  502  0.39457777701E+03  0.30442183176E+02  0.80100182895E+03  0.89343286184E+03  0.00000000000E+00 0.  1.
<scales pt_clust_5="13000.00000" pt_clust_6="13000.00000" pt_clust_7="13000.00000" pt_clust_8="13000.00000" pt_clust_9="382.80730"></scales>
<clustering>
<clus scale="   81.015">  5  6 -1 -1</clus>
<clus scale="   92.398">  7  8 -1 -1</clus>
<clus scale="  111.423">  2  5  1 -1</clus>
<clus scale="  382.807">  1  9  2 -1</clus>
<clus scale="  382.807">  1  5  2 -1</clus>
</clustering>
</event>
<event>
 9    2  0.6175212E-005  0.1380985E+03  0.7546771E-02  0.1217655E+00
         21   -1    0    0  501  502  0.00000000000E+00  0.00000000000E+00  0.96117122123E+02  0.96117122123E+02  0.00000000000E+00 0. -1.
          2   -1    0    0  502    0 -0.00000000000E+00 -0.00000000000E+00 -0.33633941931E+03  0.33633941931E+03  0.00000000000E+00 0. -1.
         24    2    1    2    0    0 -0.11515112700E+03 -0.24490297263E+02 -0.22772543504E+03  0.26864614451E+03  0.80326337434E+02 0.  0.
         23    2    1    2    0    0  0.75010602468E+02  0.69363827140E+00 -0.17018744403E+01  0.11591389968E+03  0.88351933463E+02 0.  0.
        -13    1    3    3    0    0 -0.20569817860E+02 -0.37986030088E+02 -0.10174860768E+03  0.11053883957E+03  0.00000000000E+00 0.  1.
         14    1    3    3    0    0 -0.94581309138E+02  0.13495732825E+02 -0.12597682735E+03  0.15810730493E+03  0.00000000000E+00 0. -1.
        -13    1    4    4    0    0 -0.82553235485E+01  0.20646883584E+02  0.17341115121E+02  0.28198553904E+02  0.00000000000E+00 0. -1.
         13    1    4    4    0    0  0.83265926016E+02 -0.19953245313E+02 -0.19042989561E+02  0.87715345780E+02  0.00000000000E+00 0.  1.
          1    1    1    2  501    0  0.40140524530E+02  0.23796658992E+02 -0.10794987711E+02  0.47896497246E+02  0.00000000000E+00 0. -1.
<scales pt_clust_5="13000.00000" pt_clust_6="13000.00000" pt_clust_7="13000.00000" pt_clust_8="13000.00000" pt_clust_9="46.66415"></scales>
<clustering>
<clus scale="   46.664">  1  9  2 -1</clus>
<clus scale="   80.326">  5  6 -1 -1</clus>
<clus scale="   88.352">  7  8 -1 -1</clus>
<clus scale="  133.107">  2  5  1 -1</clus>
<clus scale="   46.664">  1  5  2 -1</clus>
</clustering>
</event>
<event>
 9    2  0.6175212E-005  0.1159195E+03  0.7546771E-02  0.1253095E+00
          2   -1    0    0  502    0 -0.00000000000E+00  0.00000000000E+00  0.53165613775E+03  0.53165613775E+03  0.00000000000E+00 0. -1.
         21   -1    0    0  501  502  0.00000000000E+00 -0.00000000000E+00 -0.35928345964E+02  0.35928345964E+02  0.00000000000E+00 0.  1.
         23    2    1    2    0    0 -0.73886530955E+02  0.99556987100E+01  0.35948055767E+03  0.37797955891E+03  0.89910734736E+02 0.  0.
         24    2    1    2    0    0  0.65626914624E+02 -0.30469964622E+02  0.12242634045E+03  0.16352670651E+03  0.80730813428E+02 0.  0.
        -13    1    4    4    0    0  0.73322621674E+02  0.23443719998E+01  0.71374753136E+02  0.10235261753E+03  0.00000000000E+00 0.  1.
         14    1    4    4    0    0 -0.76957070497E+01 -0.32814336622E+02  0.51051587316E+02  0.61174088979E+02  0.00000000000E+00 0. -1.
        -13    1    3    3    0    0 -0.12391114835E+02 -0.37256875799E+02  0.11877388480E+03  0.12509536455E+03  0.00000000000E+00 0.  1.
         13    1    3    3    0    0 -0.61495416120E+02  0.47212574509E+02  0.24070667286E+03  0.25288419436E+03  0.00000000000E+00 0. -1.
          1    1    1    2  501    0  0.82596163308E+01  0.20514265912E+02  0.13820893667E+02  0.26078218298E+02  0.00000000000E+00 0. -1.
<scales pt_clust_5="13000.00000" pt_clust_6="13000.00000" pt_clust_7="13000.00000" pt_clust_8="13000.00000" pt_clust_9="22.11462"></scales>
<clustering>
<clus scale="   22.115">  2  9  1 -1</clus>
<clus scale="   80.731">  5  6 -1 -1</clus>
<clus scale="   89.911">  7  8 -1 -1</clus>
<clus scale="  108.953">  2  5  1 -1</clus>
<clus scale="   22.115">  2  5  1 -1</clus>
</clustering>
</event>
<event>
 9    2  0.6175212E-005  0.9885003E+02  0.7546771E-02  0.1288570E+00
         -1   -1    0    0    0  501 -0.00000000000E+00  0.00000000000E+00  0.66605591913E+03  0.66605591913E+03  0.00000000000E+00 0.  1.
         21   -1    0    0  501  502  0.00000000000E+00 -0.00000000000E+00 -0.41590155144E+02  0.41590155144E+02  0.00000000000E+00 0. -1.
         24    2    1    2    0    0 -0.40971394098E+02  0.47335797178E+02  0.42098974634E+03  0.43270389909E+03  0.77980542048E+02 0.  0.
         23    2    1    2    0    0 -0.19934182408E+02  0.19504854898E+02  0.91388618187E+02  0.13092569301E+03  0.89508918903E+02 0.  0.
        -13    1    3    3    0    0 -0.43757027206E+02 -0.73974525747E+01  0.21621859348E+03  0.22072580253E+03  0.00000000000E+00 0.  1.
         14    1    3    3    0    0  0.27856331083E+01  0.54733249753E+02  0.20477115285E+03  0.21197809656E+03  0.00000000000E+00 0. -1.
        -13    1    4    4    0    0  0.17643362150E+02  0.24295366170E+02 -0.20543690413E+01  0.30096070798E+02  0.00000000000E+00 0. -1.
         13    1    4    4    0    0 -0.37577544559E+02 -0.47905112724E+01  0.93442987229E+02  0.10082962221E+03  0.00000000000E+00 0.  1.
         -2    1    1    2    0  502  0.60905576506E+02 -0.66840652076E+02  0.11208739946E+03  0.14401648217E+03  0.00000000000E+00 0.  1.
<scales pt_clust_5="13000.00000" pt_clust_6="13000.00000" pt_clust_7="13000.00000" pt_clust_8="13000.00000" pt_clust_9="90.42766"></scales>
<clustering>
<clus scale="   77.981">  5  6 -1 -1</clus>
<clus scale="   89.509">  7  8 -1 -1</clus>
<clus scale="   90.428">  2  9  1 -1</clus>
<clus scale="   88.546">  1  5  2 -1</clus>
<clus scale="   90.428">  2  5  1 -1</clus>
</clustering>
</event>
<event>
 9    2  0.6175212E-005  0.9212817E+02  0.7546771E-02  0.1305591E+00
         -1   -1    0    0    0  501 -0.00000000000E+00  0.00000000000E+00  0.19914311649E+03  0.19914311649E+03  0.00000000000E+00 0.  1.
         21   -1    0    0  501  502  0.00000000000E+00 -0.00000000000E+00 -0.10868719911E+03  0.10868719911E+03  0.00000000000E+00 0.  1.
         24    2    1    2    0    0  0.24902768614E+01  0.84433329121E+01  0.13453142005E+03  0.15657692996E+03  0.79625000258E+02 0.  0.
         23    2    1    2    0    0 -0.87065454195E+01  0.14714695257E+02  0.80294194279E+01  0.93896091688E+02  0.91976509329E+02 0.  0.
        -13    1    3    3    0    0  0.10909220658E+02 -0.25240178119E+02  0.11167231855E+03  0.11500775807E+03  0.00000000000E+00 0.  1.
         14    1    3    3    0    0 -0.84189437966E+01  0.33683511031E+02  0.22859101498E+02  0.41569171887E+02  0.00000000000E+00 0. -1.
        -11    1    4    4    0    0 -0.31855148374E+01  0.53878923352E+02  0.35052813775E+01  0.54086716335E+02  0.00000000000E+00 0. -1.
         11    1    4    4    0    0 -0.55210305821E+01 -0.39164228095E+02  0.45241380505E+01  0.39809375354E+02  0.00000000000E+00 0.  1.
         -2    1    1    2    0  502  0.62162685581E+01 -0.23158028169E+02 -0.52104922096E+02  0.57357293958E+02  0.00000000000E+00 0.  1.
<scales pt_clust_5="13000.00000" pt_clust_6="13000.00000" pt_clust_7="13000.00000" pt_clust_8="13000.00000" pt_clust_9="23.97783"></scales>
<clustering>
<clus scale="   23.978">  2  9  1 -1</clus>
<clus scale="   79.625">  5  6 -1 -1</clus>
<clus scale="   79.800">  1  5  2 -1</clus>
<clus scale="   91.977">  7  8 -1 -1</clus>
<clus scale="   23.978">  2  5  1 -1</clus>
</clustering>
</event>
<event>
 9    2  0.6175212E-005  0.1491932E+03  0.7546771E-02  0.1224198E+00
         -1   -1    0    0    0  501 -0.00000000000E+00  0.00000000000E+00  0.10110378439E+04  0.10110378439E+04  0.00000000000E+00 0.  1.
         21   -1    0    0  501  502  0.00000000000E+00 -0.00000000000E+00 -0.33481488734E+02  0.33481488734E+02  0.00000000000E+00 0.  1.
         24    2    1    2    0    0 -0.31975993717E+00  0.45939731674E+02  0.18064661020E+03  0.20273932939E+03  0.79746327268E+02 0.  0.
         23    2    1    2    0    0 -0.68191661521E+02 -0.12119314471E+03  0.43157315163E+03  0.46253375412E+03  0.91346633575E+02 0.  0.
        -13    1    3    3    0    0 -0.39530784161E+02  0.29401088752E+02  0.10373382157E+03  0.11483820207E+03  0.00000000000E+00 0.  1.
         14    1    3    3    0    0  0.39211024223E+02  0.16538642922E+02  0.76912788630E+02  0.87901127326E+02  0.00000000000E+00 0. -1.
        -13    1    4    4    0    0 -0.84560507981E+02 -0.10836088758E+03  0.41060296936E+03  0.43299810614E+03  0.00000000000E+00 0.  1.
         13    1    4    4    0    0  0.16368846460E+02 -0.12832257126E+02  0.20970182266E+02  0.29535647981E+02  0.00000000000E+00 0. -1.
         -2    1    1    2    0  502  0.68511421458E+02  0.75253413036E+02  0.36533659333E+03  0.37924624912E+03  0.00000000000E+00 0.  1.
<scales pt_clust_5="13000.00000" pt_clust_6="13000.00000" pt_clust_7="13000.00000" pt_clust_8="13000.00000" pt_clust_9="117.95937"></scales>
<clustering>
<clus scale="   79.746">  5  6 -1 -1</clus>
<clus scale="   91.347">  7  8 -1 -1</clus>
<clus scale="   92.033">  1  5  2 -1</clus>
<clus scale="  117.959">  2  9  1 -1</clus>
<clus scale="  117.959">  2  5  1 -1</clus>
</clustering>
</event>
<event>
 9    2  0.6175212E-005  0.9284542E+02  0.7546771E-02  0.1299594E+00
         21   -1    0    0  501  502  0.00000000000E+00  0.00000000000E+00  0.36808217235E+02  0.36808217235E+02  0.00000000000E+00 0. -1.
          2   -1    0    0  502    0 -0.00000000000E+00 -0.00000000000E+00 -0.57204556461E+03  0.57204556461E+03  0.00000000000E+00 0. -1.
         24    2    1    2    0    0 -0.90588450377E+01  0.26064507644E+02 -0.44351352751E+03  0.45211751672E+03  0.83334138292E+02 0.  0.
         23    2    1    2    0    0 -0.14069911122E+02 -0.18597900179E+02 -0.94652177142E+02  0.13225637818E+03  0.89380482442E+02 0.  0.
        -11    1    3    3    0    0  0.10715782659E+02 -0.26207157259E+02 -0.94250240357E+02  0.98411131977E+02  0.00000000000E+00 0.  1.
         12    1    3    3    0    0 -0.19774627697E+02  0.52271664903E+02 -0.34926328716E+03  0.35370638474E+03  0.00000000000E+00 0. -1.
        -13    1    4    4    0    0 -0.22025085807E+02 -0.47539274394E+02 -0.28569375253E+02  0.59676596896E+02  0.00000000000E+00 0.  1.
         13    1    4    4    0    0  0.79551746852E+01  0.28941374216E+02 -0.66082801888E+02  0.72579781284E+02  0.00000000000E+00 0. -1.
          1    1    1    2  501    0  0.23128756160E+02 -0.74666074650E+01  0.29283572807E+01  0.24479886946E+02  0.00000000000E+00 0. -1.
<scales pt_clust_5="13000.00000" pt_clust_6="13000.00000" pt_clust_7="13000.00000" pt_clust_8="13000.00000" pt_clust_9="24.30411"></scales>
<clustering>
<clus scale="   24.304">  1  9  2 -1</clus>
<clus scale="   83.334">  5  6 -1 -1</clus>
<clus scale="   87.040">  2  5  1 -1</clus>
<clus scale="   89.380">  7  8 -1 -1</clus>
<clus scale="   24.304">  1  5  2 -1</clus>
</clustering>
</event>
<event>
 9    2  0.6175212E-005  0.1197815E+03  0.7546771E-02  0.1256402E+00
         21   -1    0    0  501  502  0.00000000000E+00  0.00000000000E+00  0.54018750736E+02  0.54018750736E+02  0.00000000000E+00 0. -1.
          2   -1    0    0  502    0 -0.00000000000E+00 -0.00000000000E+00 -0.51138801872E+03  0.51138801872E+03  0.00000000000E+00 0. -1.
         23    2    1    2    0    0 -0.17876222146E+02  0.50986735182E+00 -0.10076849677E+03  0.13677598812E+03  0.90738975647E+02 0.  0.
         24    2    1    2    0    0 -0.75285842767E+02  0.12272925375E+02 -0.29871352459E+03  0.31820658358E+03  0.78785006466E+02 0.  0.
        -13    1    4    4    0    0 -0.62865107438E+01  0.35970166477E+02 -0.90961108624E+02  0.98016816801E+02  0.00000000000E+00 0.  1.
         14    1    4    4    0    0 -0.68999332023E+02 -0.23697241102E+02 -0.20775241596E+03  0.22018976678E+03  0.00000000000E+00 0. -1.
        -11    1    3    3    0    0 -0.32456319128E+01 -0.24260886985E+02  0.68185081743E+01  0.25408990880E+02  0.00000000000E+00 0.  1.
         11    1    3    3    0    0 -0.14630590233E+02  0.24770754336E+02 -0.10758700495E+03  0.11136699724E+03  0.00000000000E+00 0. -1.
          1    1    1    2  501    0  0.93162064913E+02 -0.12782792727E+02 -0.57887246628E+02  0.11042419776E+03  0.00000000000E+00 0. -1.
<scales pt_clust_5="13000.00000" pt_clust_6="13000.00000" pt_clust_7="13000.00000" pt_clust_8="13000.00000" pt_clust_9="90.22489"></scales>
<clustering>
<clus scale="   78.785">  5  6 -1 -1</clus>
<clus scale="   90.739">  7  8 -1 -1</clus>
<clus scale="   92.485">  2  7  1 -1</clus>
<clus scale="   90.225">  1  9  2 -1</clus>
<clus scale="   90.225">  1  5  2 -1</clus>
</clustering>
</event>
<event>
 9    2  0.6175212E-005  0.9699871E+02  0.7546771E-02  0.1289824E+00
         21   -1    0    0  501  502  0.00000000000E+00  0.00000000000E+00  0.90534746451E+02  0.90534746451E+02  0.00000000000E+00 0.  1.
          2   -1    0    0  502    0 -0.00000000000E+00 -0.00000000000E+00 -0.36724216548E+03  0.36724216548E+03  0.00000000000E+00 0. -1.
         24    2    1    2    0    0 -0.32168541775E+02 -0.16757214866E+02 -0.21567608728E+03  0.23535485377E+03  0.86948911645E+02 0.  0.
         23    2    1    2    0    0  0.26299268175E+01  0.23460212491E+02 -0.12159703278E+03  0.15470452651E+03  0.92684162926E+02 0.  0.
        -11    1    3    3    0    0 -0.49416063360E+02 -0.17995113618E+02 -0.64636072569E+02  0.83328226366E+02  0.00000000000E+00 0.  1.
         12    1    3    3    0    0  0.17247521586E+02  0.12378987526E+01 -0.15104001472E+03  0.15202662740E+03  0.00000000000E+00 0. -1.
        -11    1    4    4    0    0 -0.44578002776E+02  0.73229695823E+01 -0.49338900075E+02  0.66896571478E+02  0.00000000000E+00 0.  1.
         11    1    4    4    0    0  0.47207929593E+02  0.16137242909E+02 -0.72258132707E+02  0.87807955036E+02  0.00000000000E+00 0. -1.
          1    1    1    2  501    0  0.29538614957E+02 -0.67029976252E+01  0.60565701036E+02  0.67717531650E+02  0.00000000000E+00 0. -1.
<scales pt_clust_5="13000.00000" pt_clust_6="13000.00000" pt_clust_7="13000.00000" pt_clust_8="13000.00000" pt_clust_9="30.28960"></scales>
<clustering>
<clus scale="   30.290">  1  9  2 -1</clus>
<clus scale="   86.949">  5  6 -1 -1</clus>
<clus scale="   91.534">  2  5  1 -1</clus>
<clus scale="   92.684">  7  8 -1 -1</clus>
<clus scale="   30.290">  1  5  2 -1</clus>
</clustering>
</event>
<event>
 9    2  0.6175212E-005  0.9198980E+02  0.7546771E-02  0.1305630E+00
         21   -1    0    0  501  502  0.00000000000E+00  0.00000000000E+00  0.35341921398E+03  0.35341921398E+03  0.00000000000E+00 0.  1.
          2   -1    0    0  502    0 -0.00000000000E+00 -0.00000000000E+00 -0.42095050433E+02  0.42095050433E+02  0.00000000000E+00 0. -1.
         24    2    1    2    0    0  0.31436983684E+01  0.52372313163E+01  0.11096110664E+03  0.13637955423E+03  0.79055070639E+02 0.  0.
         23    2    1    2    0    0  0.14708373802E+02 -0.25432007924E+02  0.20978453334E+03  0.23058143189E+03  0.91077565932E+02 0.  0.
        -13    1    3    3    0    0  0.14483396510E+02 -0.29392869153E+02  0.19994889762E+02  0.38386262492E+02  0.00000000000E+00 0.  1.
         14    1    3    3    0    0 -0.11339698141E+02  0.34630100470E+02  0.90966216874E+02  0.97993291734E+02  0.00000000000E+00 0. -1.
        -11    1    4    4    0    0  0.19108830283E+02  0.30219496347E+02  0.11655713404E+03  0.12191772164E+03  0.00000000000E+00 0.  1.
         11    1    4    4    0    0 -0.44004564808E+01 -0.55651504271E+02  0.93227399307E+02  0.10866371025E+03  0.00000000000E+00 0. -1.
          1    1    1    2  501    0 -0.17852072171E+02  0.20194776608E+02 -0.94214764345E+01  0.28553278292E+02  0.00000000000E+00 0. -1.
<scales pt_clust_5="13000.00000" pt_clust_6="13000.00000" pt_clust_7="13000.00000" pt_clust_8="13000.00000" pt_clust_9="26.95415"></scales>
<clustering>
<clus scale="   26.954">  1  9  2 -1</clus>
<clus scale="   79.055">  5  6 -1 -1</clus>
<clus scale="   80.104">  2  5  1 -1</clus>
<clus scale="   91.078">  7  8 -1 -1</clus>
<clus scale="   26.954">  1  5  2 -1</clus>
</clustering>
</event>
<event>
 9    2  0.6175212E-005  0.9672868E+02  0.7546771E-02  0.1294025E+00
         21   -1    0    0  501  502  0.00000000000E+00  0.00000000000E+00  0.28694156959E+03  0.28694156959E+03  0.00000000000E+00 0. -1.
          2   -1    0    0  502    0 -0.00000000000E+00 -0.00000000000E+00 -0.18769601688E+03  0.18769601688E+03  0.00000000000E+00 0. -1.
         24    2    1    2    0    0 -0.22697299919E+02 -0.25736190069E+02 -0.14761361176E+03  0.17135127477E+03  0.79962254123E+02 0.  0.
         23    2    1    2    0    0 -0.27747574084E+02  0.13363414315E+02  0.71874994260E+02  0.12075623002E+03  0.92019256566E+02 0.  0.
        -13    1    3    3    0    0 -0.19005417694E+02 -0.14928360040E+02 -0.88992260840E+00  0.24183750690E+02  0.00000000000E+00 0.  1.
         14    1    3    3    0    0 -0.36918822249E+01 -0.10807830029E+02 -0.14672368916E+03  0.14716752408E+03  0.00000000000E+00 0. -1.
        -11    1    4    4    0    0 -0.87768116290E+01  0.52013894782E+02  0.29939549864E+02  0.60653559820E+02  0.00000000000E+00 0. -1.
         11    1    4    4    0    0 -0.18970762455E+02 -0.38650480467E+02  0.41935444396E+02  0.60102670200E+02  0.00000000000E+00 0.  1.
          1    1    1    2  501    0  0.50444874003E+02  0.12372775754E+02  0.17498417021E+03  0.18253008168E+03  0.00000000000E+00 0. -1.
<scales pt_clust_5="13000.00000" pt_clust_6="13000.00000" pt_clust_7="13000.00000" pt_clust_8="13000.00000" pt_clust_9="51.94007"></scales>
<clustering>
<clus scale="   51.940">  1  9  2 -1</clus>
<clus scale="   79.962">  5  6 -1 -1</clus>
<clus scale="   85.340">  2  5  1 -1</clus>
<clus scale="   92.019">  7  8 -1 -1</clus>
<clus scale="   51.940">  1  5  2 -1</clus>
</clustering>
</event>
<event>
 9    2  0.6175212E-005  0.1210218E+03  0.7546771E-02  0.1242224E+00
         21   -1    0    0  501  502  0.00000000000E+00  0.00000000000E+00  0.58096969565E+03  0.58096969565E+03  0.00000000000E+00 0.  1.
          2   -1    0    0  502    0 -0.00000000000E+00 -0.00000000000E+00 -0.99356973077E+02  0.99356973077E+02  0.00000000000E+00 0. -1.
         23    2    1    2    0    0 -0.72098699988E+02  0.90811129929E+01  0.85350807372E+01  0.11691343207E+03  0.91187794372E+02 0.  0.
         24    2    1    2    0    0  0.12528210444E+03 -0.54855305011E+02  0.46506860201E+03  0.49278819944E+03  0.88581571125E+02 0.  0.
        -11    1    4    4    0    0  0.52014156980E+02 -0.66860186493E+02  0.19301414343E+03  0.21078476375E+03  0.00000000000E+00 0.  1.
         12    1    4    4    0    0  0.73267947458E+02  0.12004881482E+02  0.27205445858E+03  0.28200343568E+03  0.00000000000E+00 0. -1.
        -13    1    3    3    0    0 -0.89167185069E+02  0.23274001500E+02 -0.23613727079E+01  0.92184825866E+02  0.00000000000E+00 0. -1.
         13    1    3    3    0    0  0.17068485081E+02 -0.14192888507E+02  0.10896453445E+02  0.24728606205E+02  0.00000000000E+00 0.  1.
          1    1    1    2  501    0 -0.53183404450E+02  0.45774192018E+02  0.80090398248E+01  0.70625037223E+02  0.00000000000E+00 0. -1.
<scales pt_clust_5="13000.00000" pt_clust_6="13000.00000" pt_clust_7="13000.00000" pt_clust_8="13000.00000" pt_clust_9="70.16948"></scales>
<clustering>
<clus scale="   70.169">  1  9  2 -1</clus>
<clus scale="   88.582">  5  6 -1 -1</clus>
<clus scale="   91.188">  7  8 -1 -1</clus>
<clus scale="  119.070">  1  5  2 -1</clus>
<clus scale="   70.169">  1  5  2 -1</clus>
</clustering>
</event>
<event>
 9    2  0.6175212E-005  0.1453529E+03  0.7546771E-02  0.1215507E+00
          2   -1    0    0  502    0 -0.00000000000E+00  0.00000000000E+00  0.29208294255E+03  0.29208294255E+03  0.00000000000E+00 0. -1.
         21   -1    0    0  501  502  0.00000000000E+00 -0.00000000000E+00 -0.43192193095E+03  0.43192193095E+03  0.00000000000E+00 0. -1.
         24    2    1    2    0    0 -0.44364386934E+02  0.76072232111E+02  0.23325176469E+03  0.26205987700E+03  0.80708178500E+02 0.  0.
         23    2    1    2    0    0  0.10926775459E+03  0.31618007739E+02 -0.20059862325E+03  0.24848968561E+03  0.92564440263E+02 0.  0.
        -13    1    3    3    0    0  0.17863549537E+02  0.47928236193E+02  0.10133407184E+03  0.11351130491E+03  0.00000000000E+00 0.  1.
         14    1    3    3    0    0 -0.62227936472E+02  0.28143995919E+02  0.13191769285E+03  0.14854857209E+03  0.00000000000E+00 0. -1.
        -13    1    4    4    0    0  0.39478766375E+02 -0.18271157170E+02 -0.13095798454E+03  0.13799420964E+03  0.00000000000E+00 0.  1.
         13    1    4    4    0    0  0.69788988212E+02  0.49889164910E+02 -0.69640638703E+02  0.11049547597E+03  0.00000000000E+00 0. -1.
          1    1    1    2  501    0 -0.64903367654E+02 -0.10769023985E+03 -0.17249212984E+03  0.21345531090E+03  0.00000000000E+00 0. -1.
<scales pt_clust_5="13000.00000" pt_clust_6="13000.00000" pt_clust_7="13000.00000" pt_clust_8="13000.00000" pt_clust_9="112.06826"></scales>
<clustering>
<clus scale="   80.708">  5  6 -1 -1</clus>
<clus scale="   92.564">  7  8 -1 -1</clus>
<clus scale="  119.453">  1  5  2 -1</clus>
<clus scale="  112.068">  2  9  1 -1</clus>
<clus scale="  112.068">  2  5  1 -1</clus>
</clustering>
</event>
<event>
 9    2  0.6175212E-005  0.9584384E+02  0.7546771E-02  0.1295110E+00
         21   -1    0    0  501  502  0.00000000000E+00  0.00000000000E+00  0.35346488327E+03  0.35346488327E+03  0.00000000000E+00 0.  1.
          4   -1    0    0  502    0 -0.00000000000E+00 -0.00000000000E+00 -0.13966284791E+03  0.13966284791E+03  0.00000000000E+00 0. -1.
         23    2    1    2    0    0  0.16319794595E+02  0.15861762499E+02 -0.10178869411E+03  0.13952519850E+03  0.92673683217E+02 0.  0.
         24    2    1    2    0    0  0.93615448145E+01 -0.60844130156E+02  0.16594997805E+03  0.19525071210E+03  0.82424502810E+02 0.  0.
        -13    1    4    4    0    0  0.31815298176E+02 -0.71051155377E+02  0.13272388552E+03  0.15387043142E+03  0.00000000000E+00 0.  1.
         14    1    4    4    0    0 -0.22453753362E+02  0.10207025221E+02  0.33226092534E+02  0.41380280678E+02  0.00000000000E+00 0. -1.
        -11    1    3    3    0    0 -0.31377306505E+02 -0.13197879043E+02 -0.62729572995E+02  0.71370292859E+02  0.00000000000E+00 0. -1.
         11    1    3    3    0    0  0.47697101100E+02  0.29059641542E+02 -0.39059121119E+02  0.68154905638E+02  0.00000000000E+00 0.  1.
          3    1    1    2  501    0 -0.25681339410E+02  0.44982367657E+02  0.14964075143E+03  0.15835182058E+03  0.00000000000E+00 0. -1.
<scales pt_clust_5="13000.00000" pt_clust_6="13000.00000" pt_clust_7="13000.00000" pt_clust_8="13000.00000" pt_clust_9="51.79715"></scales>
<clustering>
<clus scale="   51.797">  1  9  2 -1</clus>
<clus scale="   82.425">  5  6 -1 -1</clus>
<clus scale="   85.973">  1  5  2 -1</clus>
<clus scale="   92.674">  7  8 -1 -1</clus>
<clus scale="   51.797">  1  5  2 -1</clus>
</clustering>
</event>
<event>
 9    2  0.6175212E-005  0.9023882E+02  0.7546771E-02  0.1303740E+00
         21   -1    0    0  501  502  0.00000000000E+00  0.00000000000E+00  0.19532205842E+03  0.19532205842E+03  0.00000000000E+00 0. -1.
          2   -1    0    0  502    0 -0.00000000000E+00 -0.00000000000E+00 -0.76778355696E+02  0.76778355696E+02  0.00000000000E+00 0. -1.
         23    2    1    2    0    0  0.45429419149E+02  0.15065026511E+02  0.26165761877E+02  0.99792973319E+02  0.83565562770E+02 0.  0.
         24    2    1    2    0    0  0.63600855019E+00 -0.24662145756E+02  0.92319101453E+02  0.12525287897E+03  0.80974324678E+02 0.  0.
        -13    1    4    4    0    0 -0.10105643871E+02 -0.21984713593E+02 -0.71023830718E+01  0.25216968793E+02  0.00000000000E+00 0.  1.
         14    1    4    4    0    0  0.10741652421E+02 -0.26774321627E+01  0.99421484525E+02  0.10003591018E+03  0.00000000000E+00 0. -1.
        -11    1    3    3    0    0 -0.17148737168E+02 -0.17379735516E+02  0.14349967296E+02  0.28320592410E+02  0.00000000000E+00 0.  1.
         11    1    3    3    0    0  0.62578156317E+02  0.32444762028E+02  0.11815794582E+02  0.71472380908E+02  0.00000000000E+00 0. -1.
          1    1    1    2  501    0 -0.46065427699E+02  0.95971192445E+01  0.58839396596E-01  0.47054561830E+02  0.00000000000E+00 0. -1.
<scales pt_clust_5="13000.00000" pt_clust_6="13000.00000" pt_clust_7="13000.00000" pt_clust_8="13000.00000" pt_clust_9="47.05455"></scales>
<clustering>
<clus scale="   47.055">  1  9  2 -1</clus>
<clus scale="   80.974">  5  6 -1 -1</clus>
<clus scale="   83.566">  7  8 -1 -1</clus>
<clus scale="   87.845">  1  5  2 -1</clus>
<clus scale="   47.055">  1  5  2 -1</clus>
</clustering>
</event>
<event>
 9    2  0.6175212E-005  0.1380673E+03  0.7546771E-02  0.1240406E+00
          2   -1    0    0  502    0 -0.00000000000E+00  0.00000000000E+00  0.38046694122E+03  0.38046694122E+03  0.00000000000E+00 0. -1.
         21   -1    0    0  501  502  0.00000000000E+00 -0.00000000000E+00 -0.71904621828E+02  0.71904621828E+02  0.00000000000E+00 0. -1.
         24    2    1    2    0    0 -0.86004601857E+01  0.24685461758E+02  0.63477862685E+02  0.10464963723E+03  0.78985869515E+02 0.  0.
         23    2    1    2    0    0  0.10465032620E+03 -0.50130960681E+02  0.15877735380E+03  0.21610898501E+03  0.89599337765E+02 0.  0.
        -11    1    3    3    0    0 -0.30416987591E+02 -0.16466890509E+02  0.15899906812E+02  0.38067816509E+02  0.00000000000E+00 0.  1.
         12    1    3    3    0    0  0.21816527405E+02  0.41152352267E+02  0.47577955872E+02  0.66581820718E+02  0.00000000000E+00 0. -1.
        -13    1    4    4    0    0  0.45804569465E+02 -0.36425840775E+02  0.15391418522E+02  0.60512777362E+02  0.00000000000E+00 0.  1.
         13    1    4    4    0    0  0.58845756740E+02 -0.13705119906E+02  0.14338593528E+03  0.15559620765E+03  0.00000000000E+00 0. -1.
          1    1    1    2  501    0 -0.96049866019E+02  0.25445498923E+02  0.86307102910E+02  0.13161294082E+03  0.00000000000E+00 0. -1.
<scales pt_clust_5="13000.00000" pt_clust_6="13000.00000" pt_clust_7="13000.00000" pt_clust_8="13000.00000" pt_clust_9="105.04546"></scales>
<clustering>
<clus scale="   78.986">  5  6 -1 -1</clus>
<clus scale="   83.199">  1  5  2 -1</clus>
<clus scale="   89.599">  7  8 -1 -1</clus>
<clus scale="  105.045">  2  9  1 -1</clus>
<clus scale="  105.045">  2  5  1 -1</clus>
</clustering>
</event>
<event>
 9    2  0.6175212E-005  0.1743702E+03  0.7546771E-02  0.1174694E+00
         -1   -1    0    0    0  501 -0.00000000000E+00  0.00000000000E+00  0.17021542057E+03  0.17021542057E+03  0.00000000000E+00 0.  1.
         21   -1    0    0  501  502  0.00000000000E+00 -0.00000000000E+00 -0.23471495368E+03  0.23471495368E+03  0.00000000000E+00 0.  1.
         23    2    1    2    0    0  0.60468950482E+02  0.14449455561E+03  0.50560753804E+02  0.18834185137E+03  0.91548307335E+02 0.  0.
         24    2    1    2    0    0 -0.38788527455E+02 -0.12600656432E+03 -0.10021517757E+03  0.18446028241E+03  0.81242291079E+02 0.  0.
        -13    1    4    4    0    0  0.10659247605E+02 -0.88273728124E+02 -0.38676699483E+02  0.96962661470E+02  0.00000000000E+00 0.  1.
         14    1    4    4    0    0 -0.49447775060E+02 -0.37732836192E+02 -0.61538478088E+02  0.87497620943E+02  0.00000000000E+00 0. -1.
        -13    1    3    3    0    0  0.70293310352E+02  0.10741092547E+03  0.45666651603E+01  0.12844886462E+03  0.00000000000E+00 0.  1.
         13    1    3    3    0    0 -0.98243598700E+01  0.37083630144E+02  0.45994088644E+02  0.59892986749E+02  0.00000000000E+00 0. -1.
         -2    1    1    2    0  502 -0.21680423027E+02 -0.18487991299E+02 -0.14845109342E+02  0.32128240479E+02  0.00000000000E+00 0.  1.
<scales pt_clust_5="13000.00000" pt_clust_6="13000.00000" pt_clust_7="13000.00000" pt_clust_8="13000.00000" pt_clust_9="28.49292"></scales>
<clustering>
<clus scale="   28.493">  2  9  1 -1</clus>
<clus scale="   81.242">  5  6 -1 -1</clus>
<clus scale="   91.548">  7  8 -1 -1</clus>
<clus scale="  169.187">  2  5  1 -1</clus>
<clus scale="   28.493">  2  5  1 -1</clus>
</clustering>
</event>
<event>
 9    2  0.6175212E-005  0.2788828E+03  0.7546771E-02  0.1139954E+00
          2   -1    0    0  502    0 -0.00000000000E+00  0.00000000000E+00  0.11826878976E+04  0.11826878976E+04  0.00000000000E+00 0. -1.
         21   -1    0    0  501  502  0.00000000000E+00 -0.00000000000E+00 -0.10134185843E+03  0.10134185843E+03  0.00000000000E+00 0. -1.
         24    2    1    2    0    0 -0.36124681254E+02  0.30116462650E+02  0.39350523156E+03  0.40439473894E+03  0.80478218809E+02 0.  0.
         23    2    1    2    0    0 -0.14864701902E+03 -0.21922095734E+03  0.40539518328E+03  0.49275438714E+03  0.91147501473E+02 0.  0.
        -11    1    3    3    0    0  0.24840512147E+02  0.35594797573E+01  0.14451312690E+03  0.14667571301E+03  0.00000000000E+00 0.  1.
         12    1    3    3    0    0 -0.60965193401E+02  0.26556982893E+02  0.24899210466E+03  0.25771902594E+03  0.00000000000E+00 0. -1.
        -13    1    4    4    0    0 -0.11768320168E+01 -0.55797215301E+02  0.11989194730E+03  0.13224520103E+03  0.00000000000E+00 0.  1.
         13    1    4    4    0    0 -0.14747018700E+03 -0.16342374204E+03  0.28550323598E+03  0.36050918611E+03  0.00000000000E+00 0. -1.
          1    1    1    2  501    0  0.18477170027E+03  0.18910449469E+03  0.28244562438E+03  0.38688062999E+03  0.00000000000E+00 0. -1.
<scales pt_clust_5="13000.00000" pt_clust_6="13000.00000" pt_clust_7="13000.00000" pt_clust_8="13000.00000" pt_clust_9="263.56739"></scales>
<clustering>
<clus scale="   80.478">  5  6 -1 -1</clus>
<clus scale="   91.148">  7  8 -1 -1</clus>
<clus scale="   93.213">  1  5  2 -1</clus>
<clus scale="  263.567">  2  9  1 -1</clus>
<clus scale="  263.567">  2  5  1 -1</clus>
</clustering>
</event>
<event>
 9    2  0.6175212E-005  0.9168991E+02  0.7546771E-02  0.1305107E+00
         21   -1    0    0  501  502  0.00000000000E+00  0.00000000000E+00  0.42830697054E+02  0.42830697054E+02  0.00000000000E+00 0. -1.
          4   -1    0    0  502    0 -0.00000000000E+00 -0.00000000000E+00 -0.31460586732E+03  0.31460586732E+03  0.00000000000E+00 0. -1.
         24    2    1    2    0    0  0.29042800067E+01  0.10106135816E+02 -0.14564512956E+03  0.16679761954E+03  0.80612488459E+02 0.  0.
         23    2    1    2    0    0  0.29783183713E+02 -0.15972023897E+02 -0.53166917318E+02  0.11047351400E+03  0.90749835360E+02 0.  0.
        -11    1    3    3    0    0  0.10469968328E+02 -0.28687729557E+02 -0.10792471893E+03  0.11216216394E+03  0.00000000000E+00 0.  1.
         12    1    3    3    0    0 -0.75656883211E+01  0.38793865373E+02 -0.37720410639E+02  0.54635455604E+02  0.00000000000E+00 0. -1.
        -13    1    4    4    0    0 -0.16906571384E+02 -0.12104348738E+02 -0.59656688001E+02  0.63176481681E+02  0.00000000000E+00 0.  1.
         13    1    4    4    0    0  0.46689755097E+02 -0.38676751587E+01  0.64897706836E+01  0.47297032314E+02  0.00000000000E+00 0. -1.
          3    1    1    2  501    0 -0.32687463720E+02  0.58658880809E+01 -0.72963123384E+02  0.80165430837E+02  0.00000000000E+00 0. -1.
<scales pt_clust_5="13000.00000" pt_clust_6="13000.00000" pt_clust_7="13000.00000" pt_clust_8="13000.00000" pt_clust_9="33.20964"></scales>
<clustering>
<clus scale="   33.210">  1  9  2 -1</clus>
<clus scale="   80.612">  5  6 -1 -1</clus>
<clus scale="   81.669">  2  5  1 -1</clus>
<clus scale="   90.750">  7  8 -1 -1</clus>
<clus scale="   33.210">  1  5  2 -1</clus>
</clustering>
</event>
<event>
 9    2  0.6175212E-005  0.1207408E+03  0.7546771E-02  0.1244340E+00
         21   -1    0    0  501  502  0.00000000000E+00  0.00000000000E+00  0.29848135957E+03  0.29848135957E+03  0.00000000000E+00 0. -1.
          4   -1    0    0  502    0 -0.00000000000E+00 -0.00000000000E+00 -0.40779993994E+03  0.40779993994E+03  0.00000000000E+00 0. -1.
         23    2    1    2    0    0  0.15545873510E+02 -0.67109988635E+02 -0.27387424806E+03  0.29657724610E+03  0.90584404825E+02 0.  0.
         24    2    1    2    0    0 -0.99505387506E+02  0.13555834766E+03 -0.27341593028E+02  0.18934313012E+03  0.82618826251E+02 0.  0.
        -13    1    4    4    0    0 -0.48769005034E+02  0.22987373550E+02  0.19424187111E+02  0.57307366365E+02  0.00000000000E+00 0.  1.
         14    1    4    4    0    0 -0.50736382472E+02  0.11257097411E+03 -0.46765780139E+02  0.13203576375E+03  0.00000000000E+00 0. -1.
        -13    1    3    3    0    0 -0.37700407095E+02 -0.35187526719E+02 -0.13187882273E+03  0.14160334253E+03  0.00000000000E+00 0.  1.
         13    1    3    3    0    0  0.53246280605E+02 -0.31922461916E+02 -0.14199542533E+03  0.15497390357E+03  0.00000000000E+00 0. -1.
          3    1    1    2  501    0  0.83959513996E+02 -0.68448359024E+02  0.19189726071E+03  0.22036092329E+03  0.00000000000E+00 0. -1.
<scales pt_clust_5="13000.00000" pt_clust_6="13000.00000" pt_clust_7="13000.00000" pt_clust_8="13000.00000" pt_clust_9="108.32533"></scales>
<clustering>
<clus scale="   82.619">  5  6 -1 -1</clus>
<clus scale="   90.584">  7  8 -1 -1</clus>
<clus scale="  108.325">  1  9  2 -1</clus>
<clus scale="  114.886">  1  5  2 -1</clus>
<clus scale="  108.325">  1  5  2 -1</clus>
</clustering>
</event>
<event>
 9    2  0.6175212E-005  0.1038569E+03  0.7546771E-02  0.1278304E+00
         21   -1    0    0  501  502  0.00000000000E+00  0.00000000000E+00  0.40133943385E+03  0.40133943385E+03  0.00000000000E+00 0.  1.
          4   -1    0    0  502    0 -0.00000000000E+00 -0.00000000000E+00 -0.89472219330E+02  0.89472219330E+02  0.00000000000E+00 0. -1.
         24    2    1    2    0    0  0.31112832936E+02 -0.35145796155E+02 -0.50944166309E+02  0.10605332784E+03  0.80304202279E+02 0.  0.
         23    2    1    2    0    0 -0.42267461217E+02  0.16102951644E+02  0.26401787046E+03  0.28352980491E+03  0.92940147507E+02 0.  0.
        -13    1    3    3    0    0  0.18755313587E+02  0.22806103165E+02 -0.27155689381E+01  0.29652224941E+02  0.00000000000E+00 0.  1.
         14    1    3    3    0    0  0.12357519349E+02 -0.57951899320E+02 -0.48228597371E+02  0.76401102895E+02  0.00000000000E+00 0. -1.
        -11    1    4    4    0    0  0.24272535296E+02  0.17295746742E+02  0.40303967191E+02  0.50126924865E+02  0.00000000000E+00 0. -1.
         11    1    4    4    0    0 -0.66539996513E+02 -0.11927950979E+01  0.22371390327E+03  0.23340288004E+03  0.00000000000E+00 0.  1.
          3    1    1    2  501    0  0.11154628282E+02  0.19042844511E+02  0.98793510372E+02  0.10122852044E+03  0.00000000000E+00 0. -1.
<scales pt_clust_5="13000.00000" pt_clust_6="13000.00000" pt_clust_7="13000.00000" pt_clust_8="13000.00000" pt_clust_9="22.06934"></scales>
<clustering>
<clus scale="   22.069">  1  9  2 -1</clus>
<clus scale="   80.304">  5  6 -1 -1</clus>
<clus scale="   92.721">  2  5  1 -1</clus>
<clus scale="   92.940">  7  8 -1 -1</clus>
<clus scale="   22.069">  1  5  2 -1</clus>
</clustering>
</event>
<event>
 9    2  0.6175212E-005  0.9449096E+02  0.7546771E-02  0.1297223E+00
          2   -1    0    0  502    0 -0.00000000000E+00  0.00000000000E+00  0.65543201008E+03  0.65543201008E+03  0.00000000000E+00 0. -1.
         21   -1    0    0  501  502  0.00000000000E+00 -0.00000000000E+00 -0.26869380647E+02  0.26869380647E+02  0.00000000000E+00 0.  1.
         24    2    1    2    0    0 -0.28102511929E+01  0.42538489542E+02  0.42722514036E+03  0.43657912940E+03  0.79136559620E+02 0.  0.
         23    2    1    2    0    0 -0.26631690492E+02 -0.11788105108E+02  0.16706191110E+03  0.19106670975E+03  0.88026127213E+02 0.  0.
        -13    1    3    3    0    0 -0.29681175742E+02 -0.91676794370E+01  0.12632163907E+03  0.13008526065E+03  0.00000000000E+00 0.  1.
         14    1    3    3    0    0  0.26870924549E+02  0.51706168979E+02  0.30090350129E+03  0.30649386876E+03  0.00000000000E+00 0. -1.
        -13    1    4    4    0    0  0.19759631983E+02 -0.29346017117E+02  0.34031283249E+02  0.49089306537E+02  0.00000000000E+00 0. -1.
         13    1    4    4    0    0 -0.46391322476E+02  0.17557912010E+02  0.13303062786E+03  0.14197740321E+03  0.00000000000E+00 0.  1.
          1    1    1    2  501    0  0.29441941685E+02 -0.30750384435E+02  0.34275577966E+02  0.54655551575E+02  0.00000000000E+00 0. -1.
<scales pt_clust_5="13000.00000" pt_clust_6="13000.00000" pt_clust_7="13000.00000" pt_clust_8="13000.00000" pt_clust_9="42.57246"></scales>
<clustering>
<clus scale="   42.572">  2  9  1 -1</clus>
<clus scale="   79.137">  5  6 -1 -1</clus>
<clus scale="   86.270">  1  5  2 -1</clus>
<clus scale="   88.026">  7  8 -1 -1</clus>
<clus scale="   42.572">  2  5  1 -1</clus>
</clustering>
</event>
<event>
 9    2  0.6175212E-005  0.2266138E+03  0.7546771E-02  0.1130143E+00
          2   -1    0    0  502    0 -0.00000000000E+00  0.00000000000E+00  0.22744479549E+04  0.22744479549E+04  0.00000000000E+00 0. -1.
         21   -1    0    0  501  502  0.00000000000E+00 -0.00000000000E+00 -0.28107531437E+02  0.28107531437E+02  0.00000000000E+00 0.  1.
         24    2    1    2    0    0 -0.13791222526E+03 -0.15747368035E+03  0.13593747801E+04  0.13777498336E+04  0.80480240748E+02 0.  0.
         23    2    1    2    0    0  0.15135703444E+03  0.13130978772E+03  0.84402767154E+03  0.87275777487E+03  0.95771661014E+02 0.  0.
        -11    1    3    3    0    0 -0.80315607404E+02 -0.35810809071E+02  0.45604171128E+03  0.46444273411E+03  0.00000000000E+00 0.  1.
         12    1    3    3    0    0 -0.57596617856E+02 -0.12166287128E+03  0.90333306885E+03  0.91330709946E+03  0.00000000000E+00 0. -1.
        -11    1    4    4    0    0  0.10356548979E+03  0.12587242790E+03  0.74555219852E+03  0.76316299668E+03  0.00000000000E+00 0. -1.
         11    1    4    4    0    0  0.47791544644E+02  0.54373598205E+01  0.98475473022E+02  0.10959477820E+03  0.00000000000E+00 0.  1.
          1    1    1    2  501    0 -0.13444809176E+02  0.26163892632E+02  0.42937971750E+02  0.52047877858E+02  0.00000000000E+00 0. -1.
<scales pt_clust_5="13000.00000" pt_clust_6="13000.00000" pt_clust_7="13000.00000" pt_clust_8="13000.00000" pt_clust_9="29.41619"></scales>
<clustering>
<clus scale="   29.416">  2  9  1 -1</clus>
<clus scale="   80.480">  5  6 -1 -1</clus>
<clus scale="   95.772">  7  8 -1 -1</clus>
<clus scale="  220.587">  1  5  2 -1</clus>
<clus scale="   29.416">  2  5  1 -1</clus>
</clustering>
</event>
<event>
 9    2  0.6175212E-005  0.1286303E+03  0.7546771E-02  0.1232745E+00
         21   -1    0    0  501  502  0.00000000000E+00  0.00000000000E+00  0.15328532640E+03  0.15328532640E+03  0.00000000000E+00 0. -1.
          2   -1    0    0  502    0 -0.00000000000E+00 -0.00000000000E+00 -0.20555065960E+03  0.20555065960E+03  0.00000000000E+00 0. -1.
         24    2    1    2    0    0 -0.66421256335E+02 -0.72073110291E+02 -0.12619820354E+03  0.17870760565E+03  0.80025653521E+02 0.  0.
         23    2    1    2    0    0  0.65499237443E+02  0.23397193600E+02  0.47938268469E+02  0.12493857775E+03  0.92054287524E+02 0.  0.
        -11    1    3    3    0    0 -0.55738322532E+02 -0.15065407938E+02 -0.26867989090E+02  0.63683718114E+02  0.00000000000E+00 0.  1.
         12    1    3    3    0    0 -0.10682933803E+02 -0.57007702353E+02 -0.99330214448E+02  0.11502388754E+03  0.00000000000E+00 0. -1.
        -11    1    4    4    0    0 -0.21254282379E+02 -0.73248460526E+01  0.15709278281E+02  0.27425887647E+02  0.00000000000E+00 0.  1.
         11    1    4    4    0    0  0.86753519822E+02  0.30722039653E+02  0.32228990188E+02  0.97512690100E+02  0.00000000000E+00 0. -1.
          1    1    1    2  501    0  0.92201889185E+00  0.48675916691E+02  0.25994601869E+02  0.55189802598E+02  0.00000000000E+00 0. -1.
<scales pt_clust_5="13000.00000" pt_clust_6="13000.00000" pt_clust_7="13000.00000" pt_clust_8="13000.00000" pt_clust_9="48.68465"></scales>
<clustering>
<clus scale="   48.685">  1  9  2 -1</clus>
<clus scale="   80.026">  5  6 -1 -1</clus>
<clus scale="   92.054">  7  8 -1 -1</clus>
<clus scale="  120.316">  2  5  1 -1</clus>
<clus scale="   48.685">  1  5  2 -1</clus>
</clustering>
</event>
<event>
 9    2  0.6175212E-005  0.9195362E+02  0.7546771E-02  0.1304924E+00
         21   -1    0    0  501  502  0.00000000000E+00  0.00000000000E+00  0.25146103909E+03  0.25146103909E+03  0.00000000000E+00 0.  1.
          2   -1    0    0  502    0 -0.00000000000E+00 -0.00000000000E+00 -0.10813356529E+03  0.10813356529E+03  0.00000000000E+00 0. -1.
         24    2    1    2    0    0  0.58577595958E+01  0.42048793914E+01 -0.50579696583E+02  0.94968738133E+02  0.80054738510E+02 0.  0.
         23    2    1    2    0    0  0.26274021457E+01 -0.45897657212E+02  0.47945654123E+02  0.11258952217E+03  0.90907186588E+02 0.  0.
        -13    1    3    3    0    0 -0.22297589439E+02 -0.17879063243E+02  0.48533230032E+01  0.28989621270E+02  0.00000000000E+00 0.  1.
         14    1    3    3    0    0  0.28155349035E+02  0.22083942634E+02 -0.55433019586E+02  0.65979116862E+02  0.00000000000E+00 0. -1.
        -13    1    4    4    0    0  0.30678434901E+02 -0.50134993463E+02  0.57918780080E+02  0.82518295083E+02  0.00000000000E+00 0. -1.
         13    1    4    4    0    0 -0.28051032755E+02  0.42373362501E+01 -0.99731259563E+01  0.30071227086E+02  0.00000000000E+00 0.  1.
          1    1    1    2  501    0 -0.84851617415E+01  0.41692777821E+02  0.14596151626E+03  0.15203634408E+03  0.00000000000E+00 0. -1.
<scales pt_clust_5="13000.00000" pt_clust_6="13000.00000" pt_clust_7="13000.00000" pt_clust_8="13000.00000" pt_clust_9="42.54745"></scales>
<clustering>
<clus scale="   42.547">  1  9  2 -1</clus>
<clus scale="   80.055">  5  6 -1 -1</clus>
<clus scale="   81.241">  2  5  1 -1</clus>
<clus scale="   90.907">  7  8 -1 -1</clus>
<clus scale="   42.547">  1  5  2 -1</clus>
</clustering>
</event>
<event>
 9    2  0.6175212E-005  0.9397321E+02  0.7546771E-02  0.1308073E+00
         21   -1    0    0  501  502  0.00000000000E+00  0.00000000000E+00  0.41314100298E+02  0.41314100298E+02  0.00000000000E+00 0. -1.
          2   -1    0    0  502    0 -0.00000000000E+00 -0.00000000000E+00 -0.44495953002E+03  0.44495953002E+03  0.00000000000E+00 0. -1.
         23    2    1    2    0    0 -0.38239718382E+02 -0.16243807964E+02 -0.15767945395E+03  0.18677848946E+03  0.91089278000E+02 0.  0.
         24    2    1    2    0    0 -0.74136441153E+01 -0.15933739812E+01 -0.24580342296E+02  0.72748601139E+02  0.68048988093E+02 0.  0.
        -13    1    4    4    0    0 -0.10545938648E+01  0.29296903261E+02 -0.28599530116E+02  0.40955510396E+02  0.00000000000E+00 0.  1.
         14    1    4    4    0    0 -0.63590502504E+01 -0.30890277243E+02  0.40191878207E+01  0.31793090742E+02  0.00000000000E+00 0. -1.
        -13    1    3    3    0    0  0.14784012962E+02 -0.18738354471E+02 -0.11830050924E+03  0.12068431320E+03  0.00000000000E+00 0.  1.
         13    1    3    3    0    0 -0.53023731345E+02  0.24945465079E+01 -0.39378944715E+02  0.66094176255E+02  0.00000000000E+00 0. -1.
          1    1    1    2  501    0  0.45653362497E+02  0.17837181945E+02 -0.22138563348E+03  0.22674653972E+03  0.00000000000E+00 0. -1.
<scales pt_clust_5="13000.00000" pt_clust_6="13000.00000" pt_clust_7="13000.00000" pt_clust_8="13000.00000" pt_clust_9="49.01425"></scales>
<clustering>
<clus scale="   49.014">  1  9  2 -1</clus>
<clus scale="   68.049">  5  6 -1 -1</clus>
<clus scale="   71.864">  1  5  2 -1</clus>
<clus scale="   91.089">  7  8 -1 -1</clus>
<clus scale="   49.014">  1  5  2 -1</clus>
</clustering>
</event>
<event>
 9    2  0.6175212E-005  0.9534998E+02  0.7546771E-02  0.1297582E+00
         -3   -1    0    0    0  501 -0.00000000000E+00  0.00000000000E+00  0.39753053516E+03  0.39753053516E+03  0.00000000000E+00 0.  1.
         21   -1    0    0  501  502  0.00000000000E+00 -0.00000000000E+00 -0.43238040828E+02  0.43238040828E+02  0.00000000000E+00 0. -1.
         24    2    1    2    0    0  0.81310318509E+00  0.19220595626E+02  0.12297312535E+03  0.14758958688E+03  0.79310807356E+02 0.  0.
         23    2    1    2    0    0  0.62089963199E+02 -0.62904118745E+01  0.11204913815E+03  0.15771913020E+03  0.91790968292E+02 0.  0.
        -13    1    3    3    0    0 -0.32458003064E+02  0.26168960846E+02  0.39380662172E+02  0.57351312346E+02  0.00000000000E+00 0.  1.
         14    1    3    3    0    0  0.33271106250E+02 -0.69483652196E+01  0.83592463181E+02  0.90238274535E+02  0.00000000000E+00 0. -1.
        -11    1    4    4    0    0  0.28101633613E+02  0.13575780231E+02  0.11410600810E+03  0.11829701901E+03  0.00000000000E+00 0.  1.
         11    1    4    4    0    0  0.33988329586E+02 -0.19866192106E+02 -0.20568699580E+01  0.39422111192E+02  0.00000000000E+00 0. -1.
         -4    1    1    2    0  502 -0.62903066384E+02 -0.12930183752E+02  0.11927023083E+03  0.13545985890E+03  0.00000000000E+00 0.  1.
<scales pt_clust_5="13000.00000" pt_clust_6="13000.00000" pt_clust_7="13000.00000" pt_clust_8="13000.00000" pt_clust_9="64.21830"></scales>
<clustering>
<clus scale="   64.218">  2  9  1 -1</clus>
<clus scale="   79.311">  5  6 -1 -1</clus>
<clus scale="   83.404">  1  5  2 -1</clus>
<clus scale="   91.791">  7  8 -1 -1</clus>
<clus scale="   64.218">  2  5  1 -1</clus>
</clustering>
</event>
<event>
 9    2  0.6175212E-005  0.1173463E+03  0.7546771E-02  0.1250761E+00
          2   -1    0    0  502    0 -0.00000000000E+00  0.00000000000E+00  0.88365841832E+03  0.88365841832E+03  0.00000000000E+00 0. -1.
         21   -1    0    0  501  502  0.00000000000E+00 -0.00000000000E+00 -0.37165273340E+02  0.37165273340E+02  0.00000000000E+00 0. -1.
         24    2    1    2    0    0 -0.36965417105E+02 -0.41154708392E+02  0.37444830477E+03  0.38739631700E+03  0.82487704481E+02 0.  0.
         23    2    1    2    0    0  0.25718237831E+02  0.12671392212E+03  0.34612452545E+03  0.38077481568E+03  0.92029491586E+02 0.  0.
        -13    1    3    3    0    0 -0.67156963637E+01 -0.19664471480E+02  0.14029113303E+02  0.25072056882E+02  0.00000000000E+00 0.  1.
         14    1    3    3    0    0 -0.30249720741E+02 -0.21490236912E+02  0.36041919147E+03  0.36232426012E+03  0.00000000000E+00 0. -1.
        -11    1    4    4    0    0  0.18042129913E+01  0.12018681186E+03  0.32998381732E+03  0.35119431177E+03  0.00000000000E+00 0. -1.
         11    1    4    4    0    0  0.23914024840E+02  0.65271102645E+01  0.16140708130E+02  0.29580503907E+02  0.00000000000E+00 0.  1.
          1    1    1    2  501    0  0.11247179273E+02 -0.85559213731E+02  0.12592031476E+03  0.15265255899E+03  0.00000000000E+00 0. -1.
<scales pt_clust_5="13000.00000" pt_clust_6="13000.00000" pt_clust_7="13000.00000" pt_clust_8="13000.00000" pt_clust_9="86.29530"></scales>
<clustering>
<clus scale="   82.488">  5  6 -1 -1</clus>
<clus scale="   86.295">  2  9  1 -1</clus>
<clus scale="   92.029">  7  8 -1 -1</clus>
<clus scale="  110.022">  1  5  2 -1</clus>
<clus scale="   86.295">  2  5  1 -1</clus>
</clustering>
</event>
<event>
 9    2  0.6175212E-005  0.2020334E+03  0.7546771E-02  0.1183705E+00
          2   -1    0    0  502    0 -0.00000000000E+00  0.00000000000E+00  0.48593102642E+03  0.48593102642E+03  0.00000000000E+00 0. -1.
         21   -1    0    0  501  502  0.00000000000E+00 -0.00000000000E+00 -0.12465369150E+03  0.12465369150E+03  0.00000000000E+00 0. -1.
         24    2    1    2    0    0 -0.11215088361E+02  0.36759298256E+02  0.15421843591E+03  0.17795775256E+03  0.80053803840E+02 0.  0.
         23    2    1    2    0    0  0.46671959343E+02  0.14931464946E+03  0.13483317516E+03  0.22990237655E+03  0.10100485775E+03 0.  0.
        -13    1    3    3    0    0  0.30529272451E+02 -0.29839162593E+01  0.44944252417E+02  0.54414392011E+02  0.00000000000E+00 0.  1.
         14    1    3    3    0    0 -0.41744360812E+02  0.39743214515E+02  0.10927418349E+03  0.12354336055E+03  0.00000000000E+00 0. -1.
        -13    1    4    4    0    0 -0.20839745815E+02  0.37008013212E+02  0.83165619643E+00  0.42480344862E+02  0.00000000000E+00 0.  1.
         13    1    4    4    0    0  0.67511705157E+02  0.11230663625E+03  0.13400151897E+03  0.18742203169E+03  0.00000000000E+00 0. -1.
          1    1    1    2  501    0 -0.35456870981E+02 -0.18607394771E+03  0.72225723855E+02  0.20272458880E+03  0.00000000000E+00 0. -1.
<scales pt_clust_5="13000.00000" pt_clust_6="13000.00000" pt_clust_7="13000.00000" pt_clust_8="13000.00000" pt_clust_9="174.97289"></scales>
<clustering>
<clus scale="   80.054">  5  6 -1 -1</clus>
<clus scale="   88.801">  1  5  2 -1</clus>
<clus scale="  101.005">  7  8 -1 -1</clus>
<clus scale="  174.973">  2  9  1 -1</clus>
<clus scale="  174.973">  2  5  1 -1</clus>
</clustering>
</event>
<event>
 9    2  0.6175212E-005  0.1070033E+03  0.7546771E-02  0.1270399E+00
          2   -1    0    0  502    0 -0.00000000000E+00  0.00000000000E+00  0.62991231447E+03  0.62991231447E+03  0.00000000000E+00 0. -1.
         21   -1    0    0  501  502  0.00000000000E+00 -0.00000000000E+00 -0.23958916550E+02  0.23958916550E+02  0.00000000000E+00 0.  1.
         23    2    1    2    0    0 -0.41765743126E+02 -0.54905472627E+02  0.35290027243E+03  0.37049820982E+03  0.89282321736E+02 0.  0.
         24    2    1    2    0    0  0.23310062406E+02  0.43606448644E+02  0.24138777752E+03  0.25878927785E+03  0.79113524898E+02 0.  0.
        -11    1    4    4    0    0  0.38659380412E+02  0.28341523138E+02  0.63358285707E+02  0.79448486426E+02  0.00000000000E+00 0.  1.
         12    1    4    4    0    0 -0.15349318006E+02  0.15264925507E+02  0.17802949181E+03  0.17934079142E+03  0.00000000000E+00 0. -1.
        -13    1    3    3    0    0 -0.65097683041E+02 -0.17041102858E+02  0.18696419132E+03  0.19870509898E+03  0.00000000000E+00 0.  1.
         13    1    3    3    0    0  0.23331939915E+02 -0.37864369769E+02  0.16593608111E+03  0.17179311084E+03  0.00000000000E+00 0. -1.
          1    1    1    2  501    0  0.18455680720E+02  0.11299023983E+02  0.11665347969E+02  0.24583743349E+02  0.00000000000E+00 0. -1.
<scales pt_clust_5="13000.00000" pt_clust_6="13000.00000" pt_clust_7="13000.00000" pt_clust_8="13000.00000" pt_clust_9="21.63978"></scales>
<clustering>
<clus scale="   21.640">  2  9  1 -1</clus>
<clus scale="   79.114">  5  6 -1 -1</clus>
<clus scale="   89.282">  7  8 -1 -1</clus>
<clus scale="   98.678">  2  5  1 -1</clus>
<clus scale="   21.640">  2  5  1 -1</clus>
</clustering>
</event>
<event>
 9    2  0.6175212E-005  0.1066650E+03  0.7546771E-02  0.1271689E+00
         -1   -1    0    0    0  501 -0.00000000000E+00  0.00000000000E+00  0.30120233335E+02  0.30120233335E+02  0.00000000000E+00 0.  1.
         21   -1    0    0  501  502  0.00000000000E+00 -0.00000000000E+00 -0.56881472244E+03  0.56881472244E+03  0.00000000000E+00 0. -1.
         23    2    1    2    0    0  0.52478495198E+02  0.39817437195E+02 -0.14301249555E+03  0.18231396348E+03  0.91904225334E+02 0.  0.
         24    2    1    2    0    0 -0.12672040044E+02 -0.34135407852E+02 -0.30116793055E+03  0.31390902884E+03  0.80690453776E+02 0.  0.
        -13    1    4    4    0    0 -0.29448411356E+02 -0.23329830488E+02 -0.53139536261E+02  0.65079184352E+02  0.00000000000E+00 0.  1.
         14    1    4    4    0    0  0.16776371311E+02 -0.10805577365E+02 -0.24802839429E+03  0.24882984449E+03  0.00000000000E+00 0. -1.
        -11    1    3    3    0    0  0.70444134163E+02  0.12946472222E+01 -0.85229815211E+02  0.11058107230E+03  0.00000000000E+00 0. -1.
         11    1    3    3    0    0 -0.17965638965E+02  0.38522789973E+02 -0.57782680334E+02  0.71732891181E+02  0.00000000000E+00 0.  1.
         -2    1    1    2    0  502 -0.39806455154E+02 -0.56820293425E+01 -0.94514063014E+02  0.10271196346E+03  0.00000000000E+00 0.  1.
<scales pt_clust_5="13000.00000" pt_clust_6="13000.00000" pt_clust_7="13000.00000" pt_clust_8="13000.00000" pt_clust_9="40.20994"></scales>
<clustering>
<clus scale="   40.210">  2  9  1 -1</clus>
<clus scale="   80.690">  5  6 -1 -1</clus>
<clus scale="   91.904">  7  8 -1 -1</clus>
<clus scale="   97.170">  2  5  1 -1</clus>
<clus scale="   40.210">  2  5  1 -1</clus>
</clustering>
</event>
<event>
 9    2  0.6175212E-005  0.1228139E+03  0.7546771E-02  0.1254958E+00
         21   -1    0    0  501  502  0.00000000000E+00  0.00000000000E+00  0.15259202357E+03  0.15259202357E+03  0.00000000000E+00 0. -1.
         -1   -1    0    0    0  501 -0.00000000000E+00 -0.00000000000E+00 -0.28653614038E+03  0.28653614038E+03  0.00000000000E+00 0.  1.
         23    2    1    2    0    0 -0.77007991569E+01 -0.69656924892E+01  0.49205166126E+02  0.10107458223E+03  0.87676106323E+02 0.  0.
         24    2    1    2    0    0  0.86638026376E+02 -0.36386280573E+02 -0.20955568461E+03  0.24420382168E+03  0.83016941298E+02 0.  0.
        -11    1    4    4    0    0  0.43014923554E+02 -0.41478083823E+02 -0.18384482277E+03  0.19331227055E+03  0.00000000000E+00 0.  1.
         12    1    4    4    0    0  0.43623102822E+02  0.50918032502E+01 -0.25710861848E+02  0.50891551137E+02  0.00000000000E+00 0. -1.
        -11    1    3    3    0    0  0.41179899874E+01  0.38543102313E+02  0.34274809358E+02  0.51742546651E+02  0.00000000000E+00 0. -1.
         11    1    3    3    0    0 -0.11818789144E+02 -0.45508794802E+02  0.14930356769E+02  0.49332035579E+02  0.00000000000E+00 0.  1.
         -2    1    1    2    0  502 -0.78937227219E+02  0.43351973062E+02  0.26406401672E+02  0.93849760035E+02  0.00000000000E+00 0.  1.
<scales pt_clust_5="13000.00000" pt_clust_6="13000.00000" pt_clust_7="13000.00000" pt_clust_8="13000.00000" pt_clust_9="90.50664"></scales>
<clustering>
<clus scale="   83.017">  5  6 -1 -1</clus>
<clus scale="   87.676">  7  8 -1 -1</clus>
<clus scale="   88.289">  2  7  1 -1</clus>
<clus scale="   90.507">  1  9  2 -1</clus>
<clus scale="   90.507">  1  5  2 -1</clus>
</clustering>
</event>
<event>
 9    2  0.6175212E-005  0.1049506E+03  0.7546771E-02  0.1275940E+00
          4   -1    0    0  502    0 -0.00000000000E+00  0.00000000000E+00  0.24077411078E+03  0.24077411078E+03  0.00000000000E+00 0. -1.
         21   -1    0    0  501  502  0.00000000000E+00 -0.00000000000E+00 -0.66832792508E+02  0.66832792508E+02  0.00000000000E+00 0. -1.
         23    2    1    2    0    0 -0.24232875471E+02 -0.63787004756E+02  0.10280157988E+03  0.15481964417E+03  0.93514400852E+02 0.  0.
         24    2    1    2    0    0  0.26454000866E+02  0.15586603530E+02  0.40757138542E+02  0.95766960535E+02  0.81039558344E+02 0.  0.
        -13    1    4    4    0    0 -0.20525279390E+02  0.52226284341E+01  0.42651798939E+02  0.47620782170E+02  0.00000000000E+00 0.  1.
         14    1    4    4    0    0  0.46979280256E+02  0.10363975096E+02 -0.18946603966E+01  0.48146178365E+02  0.00000000000E+00 0. -1.
        -13    1    3    3    0    0 -0.44678288691E+02  0.11696143159E+01  0.58339438499E+02  0.73491547557E+02  0.00000000000E+00 0.  1.
         13    1    3    3    0    0  0.20445413220E+02 -0.64956619072E+02  0.44462141384E+02  0.81328096617E+02  0.00000000000E+00 0. -1.
          3    1    1    2  501    0 -0.22211253955E+01  0.48200401226E+02  0.30382599844E+02  0.57020298576E+02  0.00000000000E+00 0. -1.
<scales pt_clust_5="13000.00000" pt_clust_6="13000.00000" pt_clust_7="13000.00000" pt_clust_8="13000.00000" pt_clust_9="48.25155"></scales>
<clustering>
<clus scale="   48.252">  2  9  1 -1</clus>
<clus scale="   81.040">  5  6 -1 -1</clus>
<clus scale="   93.514">  7  8 -1 -1</clus>
<clus scale="   94.006">  2  5  1 -1</clus>
<clus scale="   48.252">  2  5  1 -1</clus>
</clustering>
</event>
<event>
 9    2  0.6487914E-005  0.1040943E+03  0.7546771E-02  0.1277555E+00
          4   -1    0    0  502    0 -0.00000000000E+00  0.00000000000E+00  0.36623390277E+03  0.36623390277E+03  0.00000000000E+00 0. -1.
         21   -1    0    0  501  502  0.00000000000E+00 -0.00000000000E+00 -0.15781877930E+03  0.15781877930E+03  0.00000000000E+00 0.  1.
         23    2    1    2    0    0 -0.49122962533E+02 -0.49250256178E+01  0.32290790398E+03  0.33909082775E+03  0.90971169539E+02 0.  0.
         24    2    1    2    0    0  0.64755551563E+02  0.37204482270E+02 -0.95152127914E+02  0.14421382365E+03  0.78525438718E+02 0.  0.
        -11    1    4    4    0    0  0.38640556046E+02  0.34266638634E+02 -0.10430088280E+03  0.11638715241E+03  0.00000000000E+00 0.  1.
         12    1    4    4    0    0  0.26114995518E+02  0.29378436366E+01  0.91487548838E+01  0.27826671236E+02  0.00000000000E+00 0. -1.
        -11    1    3    3    0    0 -0.73950821120E+02  0.10875720129E+01  0.19279919507E+03  0.20649802996E+03  0.00000000000E+00 0. -1.
         11    1    3    3    0    0  0.24827858587E+02 -0.60125976307E+01  0.13010870891E+03  0.13259279779E+03  0.00000000000E+00 0.  1.
          3    1    1    2  501    0 -0.15632589030E+02 -0.32279456652E+02 -0.19340652590E+02  0.40748030678E+02  0.00000000000E+00 0. -1.
<scales pt_clust_5="13000.00000" pt_clust_6="13000.00000" pt_clust_7="13000.00000" pt_clust_8="13000.00000" pt_clust_9="35.86560"></scales>
<clustering>
<clus scale="   35.866">  2  9  1 -1</clus>
<clus scale="   78.525">  5  6 -1 -1</clus>
<clus scale="   90.971">  7  8 -1 -1</clus>
<clus scale="   93.414">  2  5  1 -1</clus>
<clus scale="   35.866">  2  5  1 -1</clus>
</clustering>
</event>
<event>
 9    2  0.6175212E-005  0.9666356E+02  0.7546771E-02  0.1293361E+00
         21   -1    0    0  501  502  0.00000000000E+00  0.00000000000E+00  0.15457442390E+02  0.15457442390E+02  0.00000000000E+00 0. -1.
          2   -1    0    0  502    0 -0.00000000000E+00 -0.00000000000E+00 -0.13301858069E+04  0.13301858069E+04  0.00000000000E+00 0. -1.
         24    2    1    2    0    0 -0.27742722079E+02  0.23147749009E+02 -0.10464699767E+04  0.10501462062E+04  0.80013532543E+02 0.  0.
         23    2    1    2    0    0  0.24907355868E+01 -0.24212610577E+02 -0.23899319001E+03  0.25682859916E+03  0.90833530144E+02 0.  0.
        -11    1    3    3    0    0  0.18774832189E+02  0.13883740262E+02 -0.10880841254E+03  0.11128577270E+03  0.00000000000E+00 0.  1.
         12    1    3    3    0    0 -0.46517554268E+02  0.92640087476E+01 -0.93766156418E+03  0.93886043353E+03  0.00000000000E+00 0. -1.
        -13    1    4    4    0    0 -0.10502839825E+02  0.33216615205E+02 -0.99279184335E+02  0.10521411318E+03  0.00000000000E+00 0. -1.
         13    1    4    4    0    0  0.12993575411E+02 -0.57429225782E+02 -0.13971400568E+03  0.15161448598E+03  0.00000000000E+00 0.  1.
          1    1    1    2  501    0  0.25251986492E+02  0.10648615679E+01 -0.29265197766E+02  0.38668443881E+02  0.00000000000E+00 0. -1.
<scales pt_clust_5="13000.00000" pt_clust_6="13000.00000" pt_clust_7="13000.00000" pt_clust_8="13000.00000" pt_clust_9="25.27443"></scales>
<clustering>
<clus scale="   25.274">  1  9  2 -1</clus>
<clus scale="   80.014">  5  6 -1 -1</clus>
<clus scale="   86.575">  2  5  1 -1</clus>
<clus scale="   90.834">  7  8 -1 -1</clus>
<clus scale="   25.274">  1  5  2 -1</clus>
</clustering>
</event>
<event>
 9    2  0.6175212E-005  0.1113280E+03  0.7546771E-02  0.1262488E+00
         21   -1    0    0  501  502  0.00000000000E+00  0.00000000000E+00  0.84727739488E+02  0.84727739488E+02  0.00000000000E+00 0.  1.
         -1   -1    0    0    0  501 -0.00000000000E+00 -0.00000000000E+00 -0.32441084653E+03  0.32441084653E+03  0.00000000000E+00 0.  1.
         23    2    1    2    0    0 -0.26464309527E+02 -0.22402552807E+02 -0.79031486914E+02  0.12647066646E+03  0.92447928583E+02 0.  0.
         24    2    1    2    0    0  0.98774963245E+02 -0.22576594766E+02 -0.14747297480E+03  0.19649581821E+03  0.81216576404E+02 0.  0.
        -13    1    4    4    0    0  0.60998659401E+02  0.22484813000E+02 -0.10668724507E+03  0.12493426882E+03  0.00000000000E+00 0.  1.
         14    1    4    4    0    0  0.37776303843E+02 -0.45061407766E+02 -0.40785729730E+02  0.71561549393E+02  0.00000000000E+00 0. -1.
        -13    1    3    3    0    0 -0.37931391570E+02  0.17649123856E+02 -0.73325216472E+02  0.84420787783E+02  0.00000000000E+00 0. -1.
         13    1    3    3    0    0  0.11467082043E+02 -0.40051676664E+02 -0.57062704423E+01  0.42049878674E+02  0.00000000000E+00 0.  1.
         -2    1    1    2    0  502 -0.72310653718E+02  0.44979147573E+02 -0.13178645322E+02  0.86172101344E+02  0.00000000000E+00 0.  1.
<scales pt_clust_5="13000.00000" pt_clust_6="13000.00000" pt_clust_7="13000.00000" pt_clust_8="13000.00000" pt_clust_9="85.15841"></scales>
<clustering>
<clus scale="   81.217">  5  6 -1 -1</clus>
<clus scale="   85.158">  1  9  2 -1</clus>
<clus scale="   92.448">  7  8 -1 -1</clus>
<clus scale="  102.193">  1  5  2 -1</clus>
<clus scale="   85.158">  1  5  2 -1</clus>
</clustering>
</event>
<event>
 9    2  0.6175212E-005  0.1579927E+03  0.7546771E-02  0.1211447E+00
         21   -1    0    0  501  502  0.00000000000E+00  0.00000000000E+00  0.46952568482E+02  0.46952568482E+02  0.00000000000E+00 0. -1.
          2   -1    0    0  502    0 -0.00000000000E+00 -0.00000000000E+00 -0.90906885292E+03  0.90906885292E+03  0.00000000000E+00 0. -1.
         23    2    1    2    0    0  0.42198005348E+02 -0.22410291453E+01 -0.32704230520E+03  0.34239728968E+03  0.92160407583E+02 0.  0.
         24    2    1    2    0    0 -0.12001389264E+03 -0.92517574654E+02 -0.24421338121E+03  0.29797497079E+03  0.78651583642E+02 0.  0.
        -13    1    4    4    0    0 -0.68591158174E+02 -0.84045905975E+02 -0.20775394498E+03  0.23437184759E+03  0.00000000000E+00 0.  1.
         14    1    4    4    0    0 -0.51422734463E+02 -0.84716686784E+01 -0.36459436231E+02  0.63603123194E+02  0.00000000000E+00 0. -1.
        -13    1    3    3    0    0 -0.29569970770E+02  0.34549272728E+00 -0.95368691302E+02  0.99848334074E+02  0.00000000000E+00 0.  1.
         13    1    3    3    0    0  0.71767976118E+02 -0.25865218726E+01 -0.23167361390E+03  0.24254895561E+03  0.00000000000E+00 0. -1.
          1    1    1    2  501    0  0.77815887288E+02  0.94758603799E+02 -0.29086059803E+03  0.31564916093E+03  0.00000000000E+00 0. -1.
<scales pt_clust_5="13000.00000" pt_clust_6="13000.00000" pt_clust_7="13000.00000" pt_clust_8="13000.00000" pt_clust_9="137.02423"></scales>
<clustering>
<clus scale="   78.652">  5  6 -1 -1</clus>
<clus scale="   92.160">  7  8 -1 -1</clus>
<clus scale="  101.387">  2  7  1 -1</clus>
<clus scale="  137.024">  1  9  2 -1</clus>
<clus scale="  137.024">  1  5  2 -1</clus>
</clustering>
</event>
<event>
 9    2  0.6175212E-005  0.9588653E+02  0.7546771E-02  0.1294647E+00
         21   -1    0    0  501  502  0.00000000000E+00  0.00000000000E+00  0.73718581371E+02  0.73718581371E+02  0.00000000000E+00 0. -1.
          2   -1    0    0  502    0 -0.00000000000E+00 -0.00000000000E+00 -0.65072934707E+03  0.65072934707E+03  0.00000000000E+00 0. -1.
         24    2    1    2    0    0 -0.19166598970E+02 -0.17496803181E+02 -0.48927622192E+03  0.49654718258E+03  0.80587756838E+02 0.  0.
         23    2    1    2    0    0  0.49306557832E+02  0.85471473376E+02 -0.71538870355E+02  0.15180033360E+03  0.90493214687E+02 0.  0.
        -11    1    3    3    0    0 -0.33501851817E+02  0.23698617186E+02 -0.23367637177E+03  0.23725228188E+03  0.00000000000E+00 0.  1.
         12    1    3    3    0    0  0.14335252847E+02 -0.41195420368E+02 -0.25559985015E+03  0.25929490070E+03  0.00000000000E+00 0. -1.
        -11    1    4    4    0    0  0.17161638013E+02 -0.17468332504E+02 -0.22788946611E+02  0.33451465549E+02  0.00000000000E+00 0.  1.
         11    1    4    4    0    0  0.32144919818E+02  0.10293980588E+03 -0.48749923744E+02  0.11834886805E+03  0.00000000000E+00 0. -1.
          1    1    1    2  501    0 -0.30139958861E+02 -0.67974670194E+02 -0.16195673424E+02  0.76100412258E+02  0.00000000000E+00 0. -1.
<scales pt_clust_5="13000.00000" pt_clust_6="13000.00000" pt_clust_7="13000.00000" pt_clust_8="13000.00000" pt_clust_9="74.35706"></scales>
<clustering>
<clus scale="   74.357">  1  9  2 -1</clus>
<clus scale="   80.588">  5  6 -1 -1</clus>
<clus scale="   86.600">  2  5  1 -1</clus>
<clus scale="   90.493">  7  8 -1 -1</clus>
<clus scale="   74.357">  1  5  2 -1</clus>
</clustering>
</event>
<event>
 9    2  0.6175212E-005  0.1304876E+03  0.7546771E-02  0.1229601E+00
         21   -1    0    0  501  502  0.00000000000E+00  0.00000000000E+00  0.55113676859E+03  0.55113676859E+03  0.00000000000E+00 0. -1.
          2   -1    0    0  502    0 -0.00000000000E+00 -0.00000000000E+00 -0.43104501669E+02  0.43104501669E+02  0.00000000000E+00 0. -1.
         23    2    1    2    0    0  0.40631917532E+02 -0.10949787951E+03  0.20135064551E+03  0.25036438249E+03  0.92192750431E+02 0.  0.
         24    2    1    2    0    0 -0.22002109318E+02  0.63433612037E+02  0.22100427147E+03  0.24483348928E+03  0.81195033799E+02 0.  0.
        -11    1    4    4    0    0 -0.49439039196E+02  0.41957234875E+02  0.17826078252E+03  0.18968799314E+03  0.00000000000E+00 0.  1.
         12    1    4    4    0    0  0.27436929879E+02  0.21476377163E+02  0.42743488947E+02  0.55145496140E+02  0.00000000000E+00 0. -1.
        -11    1    3    3    0    0  0.13542292202E+02  0.14722525949E+02  0.16081540776E+02  0.25666367140E+02  0.00000000000E+00 0.  1.
         11    1    3    3    0    0  0.27089625330E+02 -0.12422040546E+03  0.18526910474E+03  0.22469801535E+03  0.00000000000E+00 0. -1.
          1    1    1    2  501    0 -0.18629808214E+02  0.46064267473E+02  0.85677349935E+02  0.99043398487E+02  0.00000000000E+00 0. -1.
<scales pt_clust_5="13000.00000" pt_clust_6="13000.00000" pt_clust_7="13000.00000" pt_clust_8="13000.00000" pt_clust_9="49.68890"></scales>
<clustering>
<clus scale="   49.689">  1  9  2 -1</clus>
<clus scale="   81.195">  5  6 -1 -1</clus>
<clus scale="   92.193">  7  8 -1 -1</clus>
<clus scale="  122.964">  1  5  2 -1</clus>
<clus scale="   49.689">  1  5  2 -1</clus>
</clustering>
</event>
<event>
 9    2  0.6175212E-005  0.1129747E+03  0.7546771E-02  0.1259281E+00
          2   -1    0    0  502    0 -0.00000000000E+00  0.00000000000E+00  0.70035522034E+03  0.70035522034E+03  0.00000000000E+00 0. -1.
         21   -1    0    0  501  502  0.00000000000E+00 -0.00000000000E+00 -0.36856256134E+02  0.36856256134E+02  0.00000000000E+00 0. -1.
         23    2    1    2    0    0 -0.75843392933E+02 -0.11513659936E+02  0.54985203415E+03  0.56252902710E+03  0.90646909767E+02 0.  0.
         24    2    1    2    0    0  0.35936423048E+02  0.22989357218E+02  0.87571339203E+02  0.12564986519E+03  0.79367576040E+02 0.  0.
        -13    1    4    4    0    0  0.57172030046E+02 -0.17620386431E+01  0.60576957984E+02  0.83314546379E+02  0.00000000000E+00 0.  1.
         14    1    4    4    0    0 -0.21235606998E+02  0.24751395861E+02  0.26994381220E+02  0.42335318814E+02  0.00000000000E+00 0. -1.
        -13    1    3    3    0    0  0.19531957503E+02 -0.61331392015E+01  0.58543106914E+02  0.62019417342E+02  0.00000000000E+00 0.  1.
         13    1    3    3    0    0 -0.95375350436E+02 -0.53805207344E+01  0.49130892724E+03  0.50050960975E+03  0.00000000000E+00 0. -1.
          1    1    1    2  501    0  0.39906969885E+02 -0.11475697282E+02  0.26075590853E+02  0.49032584185E+02  0.00000000000E+00 0. -1.
<scales pt_clust_5="13000.00000" pt_clust_6="13000.00000" pt_clust_7="13000.00000" pt_clust_8="13000.00000" pt_clust_9="41.52418"></scales>
<clustering>
<clus scale="   41.524">  2  9  1 -1</clus>
<clus scale="   79.368">  5  6 -1 -1</clus>
<clus scale="   90.647">  7  8 -1 -1</clus>
<clus scale="  104.142">  2  5  1 -1</clus>
<clus scale="   41.524">  2  5  1 -1</clus>
</clustering>
</event>
<event>
 9    2  0.9393868E-005  0.1189462E+03  0.7546771E-02  0.1254641E+00
         21   -1    0    0  501  502  0.00000000000E+00  0.00000000000E+00  0.71270455245E+02  0.71270455245E+02  0.00000000000E+00 0.  1.
         -1   -1    0    0    0  501 -0.00000000000E+00 -0.00000000000E+00 -0.56856818878E+03  0.56856818878E+03  0.00000000000E+00 0.  1.
         24    2    1    2    0    0  0.52486036438E+02  0.23727531544E+02 -0.10711915493E+02  0.98381861681E+02  0.79034586102E+02 0.  0.
         23    2    1    2    0    0  0.34019678376E+02  0.49014364680E+02 -0.14450084135E+03  0.18118361732E+03  0.91582004625E+02 0.  0.
        -13    1    3    3    0    0  0.67213301635E+02  0.28054089323E+02 -0.25401721472E+02  0.77135642204E+02  0.00000000000E+00 0.  1.
         14    1    3    3    0    0 -0.14727265197E+02 -0.43265577792E+01  0.14689805979E+02  0.21246219478E+02  0.00000000000E+00 0. -1.
        -11    1    4    4    0    0  0.52817748443E+02  0.36997978201E+02 -0.14518522551E+03  0.15886256528E+03  0.00000000000E+00 0.  1.
         11    1    4    4    0    0 -0.18798070067E+02  0.12016386479E+02  0.68438415886E+00  0.22321052035E+02  0.00000000000E+00 0. -1.
         -2    1    1    2    0  502 -0.86505714814E+02 -0.72741896223E+02 -0.34208497669E+03  0.36027316503E+03  0.00000000000E+00 0.  1.
<scales pt_clust_5="13000.00000" pt_clust_6="13000.00000" pt_clust_7="13000.00000" pt_clust_8="13000.00000" pt_clust_9="75.90083"></scales>
<clustering>
<clus scale="   79.035">  5  6 -1 -1</clus>
<clus scale="   91.582">  7  8 -1 -1</clus>
<clus scale="   97.797">  2  5  1 -1</clus>
<clus scale="   75.901">  1  9  2 -1</clus>
<clus scale="   75.901">  1  5  2 -1</clus>
</clustering>
</event>
<event>
 9    2  0.6175212E-005  0.1034438E+03  0.7546771E-02  0.1277375E+00
          2   -1    0    0  502    0 -0.00000000000E+00  0.00000000000E+00  0.22815753436E+03  0.22815753436E+03  0.00000000000E+00 0. -1.
         21   -1    0    0  501  502  0.00000000000E+00 -0.00000000000E+00 -0.11235533392E+03  0.11235533392E+03  0.00000000000E+00 0. -1.
         23    2    1    2    0    0 -0.29554501855E+02  0.50551329409E+02  0.16844370984E+03  0.20032976911E+03  0.91267888787E+02 0.  0.
         24    2    1    2    0    0  0.58506071363E+01 -0.10199190879E+02 -0.30818387323E+02  0.88545725445E+02  0.82172497826E+02 0.  0.
        -13    1    4    4    0    0  0.34241134552E+02 -0.83049726154E+00  0.12026541387E+02  0.36301277097E+02  0.00000000000E+00 0.  1.
         14    1    4    4    0    0 -0.28390527416E+02 -0.93686936172E+01 -0.42844928710E+02  0.52244448349E+02  0.00000000000E+00 0. -1.
        -13    1    3    3    0    0 -0.27960947805E+02 -0.19631544373E+02  0.82930522205E+02  0.89692160470E+02  0.00000000000E+00 0.  1.
         13    1    3    3    0    0 -0.15935540499E+01  0.70182873782E+02  0.85513187630E+02  0.11063760864E+03  0.00000000000E+00 0. -1.
          1    1    1    2  501    0  0.23703894719E+02 -0.40352138531E+02 -0.21823122070E+02  0.51637373730E+02  0.00000000000E+00 0. -1.
<scales pt_clust_5="13000.00000" pt_clust_6="13000.00000" pt_clust_7="13000.00000" pt_clust_8="13000.00000" pt_clust_9="46.79925"></scales>
<clustering>
<clus scale="   46.799">  2  9  1 -1</clus>
<clus scale="   82.172">  5  6 -1 -1</clus>
<clus scale="   91.268">  7  8 -1 -1</clus>
<clus scale="   95.515">  2  5  1 -1</clus>
<clus scale="   46.799">  2  5  1 -1</clus>
</clustering>
</event>
<event>
 9    2  0.6175212E-005  0.1106423E+03  0.7546771E-02  0.1262837E+00
         21   -1    0    0  501  502  0.00000000000E+00  0.00000000000E+00  0.52753410093E+02  0.52753410093E+02  0.00000000000E+00 0.  1.
          2   -1    0    0  502    0 -0.00000000000E+00 -0.00000000000E+00 -0.45963538237E+03  0.45963538237E+03  0.00000000000E+00 0. -1.
         24    2    1    2    0    0  0.64186712185E+02 -0.29015409725E+02 -0.32262517509E+03  0.34012183863E+03  0.81449576347E+02 0.  0.
         23    2    1    2    0    0 -0.34243862668E+02  0.60785645038E+01 -0.21865319075E+02  0.99360372191E+02  0.90469886188E+02 0.  0.
        -11    1    3    3    0    0  0.10037880660E+02  0.25134099898E+02 -0.48939946566E+02  0.55924953247E+02  0.00000000000E+00 0.  1.
         12    1    3    3    0    0  0.54148831525E+02 -0.54149509622E+02 -0.27368522852E+03  0.28419688538E+03  0.00000000000E+00 0. -1.
        -11    1    4    4    0    0 -0.61846769009E+02 -0.10738286191E+02 -0.51796824595E+01  0.62985416864E+02  0.00000000000E+00 0.  1.
         11    1    4    4    0    0  0.27602906341E+02  0.16816850695E+02 -0.16685636615E+02  0.36374955326E+02  0.00000000000E+00 0. -1.
          1    1    1    2  501    0 -0.29942849517E+02  0.22936845221E+02 -0.62391478115E+02  0.72906581645E+02  0.00000000000E+00 0. -1.
<scales pt_clust_5="13000.00000" pt_clust_6="13000.00000" pt_clust_7="13000.00000" pt_clust_8="13000.00000" pt_clust_9="37.71836"></scales>
<clustering>
<clus scale="   37.718">  1  9  2 -1</clus>
<clus scale="   81.450">  5  6 -1 -1</clus>
<clus scale="   90.470">  7  8 -1 -1</clus>
<clus scale="  103.397">  2  5  1 -1</clus>
<clus scale="   37.718">  1  5  2 -1</clus>
</clustering>
</event>
<event>
 9    2  0.6175212E-005  0.1090756E+03  0.7546771E-02  0.1265838E+00
         21   -1    0    0  501  502  0.00000000000E+00  0.00000000000E+00  0.49231719361E+02  0.49231719361E+02  0.00000000000E+00 0. -1.
          2   -1    0    0  502    0 -0.00000000000E+00 -0.00000000000E+00 -0.15820431741E+04  0.15820431741E+04  0.00000000000E+00 0. -1.
         24    2    1    2    0    0  0.27736264876E+02  0.23262567651E+01 -0.14868848507E+04  0.14903805390E+04  0.98147235249E+02 0.  0.
         23    2    1    2    0    0 -0.10166372342E+02  0.13387442730E+02 -0.47869892468E+02  0.11724276159E+03  0.10569654579E+03 0.  0.
        -11    1    3    3    0    0  0.89459091957E+00  0.22474579757E+02 -0.80172320621E+02  0.83267688943E+02  0.00000000000E+00 0.  1.
         12    1    3    3    0    0  0.26841673957E+02 -0.20148322992E+02 -0.14067125301E+04  0.14071128500E+04  0.00000000000E+00 0. -1.
        -11    1    4    4    0    0 -0.41013495314E+01  0.38538793396E+02  0.20711539989E+02  0.43943458593E+02  0.00000000000E+00 0.  1.
         11    1    4    4    0    0 -0.60650228104E+01 -0.25151350667E+02 -0.68581432457E+02  0.73299302997E+02  0.00000000000E+00 0. -1.
          1    1    1    2  501    0 -0.17569892534E+02 -0.15713699495E+02  0.19432884704E+01  0.23651592876E+02  0.00000000000E+00 0. -1.
<scales pt_clust_5="13000.00000" pt_clust_6="13000.00000" pt_clust_7="13000.00000" pt_clust_8="13000.00000" pt_clust_9="23.57162"></scales>
<clustering>
<clus scale="   23.572">  1  9  2 -1</clus>
<clus scale="   98.147">  5  6 -1 -1</clus>
<clus scale="  101.777">  2  5  1 -1</clus>
<clus scale="  105.697">  7  8 -1 -1</clus>
<clus scale="   23.572">  1  5  2 -1</clus>
</clustering>
</event>
<event>
 9    2  0.6175212E-005  0.1365793E+03  0.7546771E-02  0.1229886E+00
         -3   -1    0    0    0  501 -0.00000000000E+00  0.00000000000E+00  0.60065928135E+03  0.60065928135E+03  0.00000000000E+00 0.  1.
         21   -1    0    0  501  502  0.00000000000E+00 -0.00000000000E+00 -0.86230310980E+02  0.86230310980E+02  0.00000000000E+00 0.  1.
         23    2    1    2    0    0 -0.37055687249E+02 -0.40318097458E+02  0.17999456598E+02  0.10811258373E+03  0.91464077002E+02 0.  0.
         24    2    1    2    0    0 -0.48526498318E+01 -0.71055659191E+02  0.42794016462E+03  0.44147728780E+03  0.81834932805E+02 0.  0.
        -13    1    4    4    0    0  0.22799010598E+02 -0.75950613692E+02  0.28623341982E+03  0.29701491752E+03  0.00000000000E+00 0.  1.
         14    1    4    4    0    0 -0.27651660430E+02  0.48949545012E+01  0.14170674480E+03  0.14446237028E+03  0.00000000000E+00 0. -1.
        -13    1    3    3    0    0 -0.27996066214E+02 -0.67939233950E+02 -0.81543560801E+00  0.73485945380E+02  0.00000000000E+00 0.  1.
         13    1    3    3    0    0 -0.90596210351E+01  0.27621136492E+02  0.18814892206E+02  0.34626638346E+02  0.00000000000E+00 0. -1.
         -4    1    1    2    0  502  0.41908337081E+02  0.11137375665E+03  0.68489349145E+02  0.13729972081E+03  0.00000000000E+00 0.  1.
<scales pt_clust_5="13000.00000" pt_clust_6="13000.00000" pt_clust_7="13000.00000" pt_clust_8="13000.00000" pt_clust_9="109.34783"></scales>
<clustering>
<clus scale="   81.835">  5  6 -1 -1</clus>
<clus scale="   91.464">  7  8 -1 -1</clus>
<clus scale="  106.604">  1  7  2 -1</clus>
<clus scale="  109.348">  2  9  1 -1</clus>
<clus scale="  109.348">  2  5  1 -1</clus>
</clustering>
</event>
<event>
 9    2  0.6175212E-005  0.1076789E+03  0.7546771E-02  0.1267867E+00
         21   -1    0    0  501  502  0.00000000000E+00  0.00000000000E+00  0.71653914904E+03  0.71653914904E+03  0.00000000000E+00 0.  1.
          2   -1    0    0  502    0 -0.00000000000E+00 -0.00000000000E+00 -0.15839188178E+03  0.15839188178E+03  0.00000000000E+00 0. -1.
         23    2    1    2    0    0  0.50862845909E+01  0.55163858835E+02 -0.12430652724E+03  0.16357986777E+03  0.90759786324E+02 0.  0.
         24    2    1    2    0    0 -0.21893509502E+02 -0.10416324928E+03  0.35679648831E+03  0.38159958361E+03  0.83577508242E+02 0.  0.
        -13    1    4    4    0    0 -0.32238397535E+02 -0.55116263523E+02  0.29597425575E+03  0.30278354785E+03  0.00000000000E+00 0.  1.
         14    1    4    4    0    0  0.10344888033E+02 -0.49046985753E+02  0.60822232557E+02  0.78816035761E+02  0.00000000000E+00 0. -1.
        -11    1    3    3    0    0 -0.41635665176E+02  0.37453309652E+02 -0.72405612134E+02  0.91536067684E+02  0.00000000000E+00 0.  1.
         11    1    3    3    0    0  0.46721949767E+02  0.17710549183E+02 -0.51900915101E+02  0.72043800085E+02  0.00000000000E+00 0. -1.
          1    1    1    2  501    0  0.16807224911E+02  0.48999390441E+02  0.32565730619E+03  0.32975157945E+03  0.00000000000E+00 0. -1.
<scales pt_clust_5="13000.00000" pt_clust_6="13000.00000" pt_clust_7="13000.00000" pt_clust_8="13000.00000" pt_clust_9="51.80177"></scales>
<clustering>
<clus scale="   51.802">  1  9  2 -1</clus>
<clus scale="   83.578">  5  6 -1 -1</clus>
<clus scale="   90.760">  7  8 -1 -1</clus>
<clus scale="  101.699">  1  5  2 -1</clus>
<clus scale="   51.802">  1  5  2 -1</clus>
</clustering>
</event>
<event>
 9    2  0.6175212E-005  0.9940042E+02  0.7546771E-02  0.1288040E+00
         21   -1    0    0  501  502  0.00000000000E+00  0.00000000000E+00  0.23982020476E+03  0.23982020476E+03  0.00000000000E+00 0.  1.
         -3   -1    0    0    0  501 -0.00000000000E+00 -0.00000000000E+00 -0.10316986231E+03  0.10316986231E+03  0.00000000000E+00 0.  1.
         23    2    1    2    0    0  0.54423473858E+02  0.14597034873E+02 -0.19921494009E+02  0.10992314791E+03  0.92256406767E+02 0.  0.
         24    2    1    2    0    0  0.37652847273E+01  0.43010404033E+02  0.84728347180E+02  0.12413558484E+03  0.79791468117E+02 0.  0.
        -11    1    4    4    0    0  0.24824671552E+02  0.59175958466E+02  0.60382584200E+02  0.88114214816E+02  0.00000000000E+00 0.  1.
         12    1    4    4    0    0 -0.21059386824E+02 -0.16165554433E+02  0.24345762980E+02  0.36021370027E+02  0.00000000000E+00 0. -1.
        -13    1    3    3    0    0  0.11463176414E+02  0.23205859698E+02 -0.50326696036E+02  0.56592337571E+02  0.00000000000E+00 0.  1.
         13    1    3    3    0    0  0.42960297444E+02 -0.86088248250E+01  0.30405202027E+02  0.53330810342E+02  0.00000000000E+00 0. -1.
         -4    1    1    2    0  502 -0.58188758586E+02 -0.57607438906E+02  0.71843489282E+02  0.10893133431E+03  0.00000000000E+00 0.  1.
<scales pt_clust_5="13000.00000" pt_clust_6="13000.00000" pt_clust_7="13000.00000" pt_clust_8="13000.00000" pt_clust_9="81.88131"></scales>
<clustering>
<clus scale="   79.791">  5  6 -1 -1</clus>
<clus scale="   81.881">  1  9  2 -1</clus>
<clus scale="   87.954">  1  5  2 -1</clus>
<clus scale="   92.256">  7  8 -1 -1</clus>
<clus scale="   81.881">  1  5  2 -1</clus>
</clustering>
</event>
<event>
 9    2  0.6175212E-005  0.2506360E+03  0.7546771E-02  0.1158682E+00
         -3   -1    0    0    0  501 -0.00000000000E+00  0.00000000000E+00  0.13600947783E+04  0.13600947783E+04  0.00000000000E+00 0.  1.
         21   -1    0    0  501  502  0.00000000000E+00 -0.00000000000E+00 -0.66608551282E+02  0.66608551282E+02  0.00000000000E+00 0.  1.
         24    2    1    2    0    0 -0.17061594226E+02  0.22248220458E+01  0.71916282259E+02  0.10932967937E+03  0.80529369215E+02 0.  0.
         23    2    1    2    0    0 -0.12347590145E+03  0.19024093634E+03  0.75432582132E+03  0.79286347231E+03  0.90482754771E+02 0.  0.
        -13    1    3    3    0    0  0.23623755197E+02  0.24422312111E+02  0.18787579915E+02  0.38826592659E+02  0.00000000000E+00 0.  1.
         14    1    3    3    0    0 -0.40685349423E+02 -0.22197490065E+02  0.53128702343E+02  0.70503086709E+02  0.00000000000E+00 0. -1.
        -11    1    4    4    0    0  0.10401819399E+02  0.43447388799E+02  0.16549162201E+03  0.17141572389E+03  0.00000000000E+00 0. -1.
         11    1    4    4    0    0 -0.13387772085E+03  0.14679354754E+03  0.58883419931E+03  0.62144774842E+03  0.00000000000E+00 0.  1.
         -4    1    1    2    0  502  0.14053749568E+03 -0.19246575839E+03  0.46724412347E+03  0.52451017794E+03  0.00000000000E+00 0.  1.
<scales pt_clust_5="13000.00000" pt_clust_6="13000.00000" pt_clust_7="13000.00000" pt_clust_8="13000.00000" pt_clust_9="233.73332"></scales>
<clustering>
<clus scale="   80.529">  5  6 -1 -1</clus>
<clus scale="   82.347">  1  5  2 -1</clus>
<clus scale="   90.483">  7  8 -1 -1</clus>
<clus scale="  233.733">  2  9  1 -1</clus>
<clus scale="  233.733">  2  5  1 -1</clus>
</clustering>
</event>
<event>
 9    2  0.6175212E-005  0.1416551E+03  0.7546771E-02  0.1212113E+00
         21   -1    0    0  501  502  0.00000000000E+00  0.00000000000E+00  0.25723126697E+03  0.25723126697E+03  0.00000000000E+00 0. -1.
          2   -1    0    0  502    0 -0.00000000000E+00 -0.00000000000E+00 -0.12701018884E+03  0.12701018884E+03  0.00000000000E+00 0. -1.
         24    2    1    2    0    0  0.10673719692E+03 -0.81593870271E+02  0.86060104381E+01  0.15882371105E+03  0.84264576807E+02 0.  0.
         23    2    1    2    0    0 -0.81956573045E+02  0.25014708305E+02  0.57245799432E+02  0.13620629042E+03  0.89064339113E+02 0.  0.
        -11    1    3    3    0    0  0.43040324765E+02 -0.47942115026E+01  0.34924026291E+02  0.55633997089E+02  0.00000000000E+00 0.  1.
         12    1    3    3    0    0  0.63696872159E+02 -0.76799658768E+02 -0.26318015853E+02  0.10318971396E+03  0.00000000000E+00 0. -1.
        -11    1    4    4    0    0 -0.98089636872E+02  0.12934448775E+02  0.60233304182E+02  0.11583146274E+03  0.00000000000E+00 0.  1.
         11    1    4    4    0    0  0.16133063827E+02  0.12080259530E+02 -0.29875047491E+01  0.20374827690E+02  0.00000000000E+00 0. -1.
          1    1    1    2  501    0 -0.24780623878E+02  0.56579161966E+02  0.64369268256E+02  0.89211454334E+02  0.00000000000E+00 0. -1.
<scales pt_clust_5="13000.00000" pt_clust_6="13000.00000" pt_clust_7="13000.00000" pt_clust_8="13000.00000" pt_clust_9="61.76796"></scales>
<clustering>
<clus scale="   61.768">  1  9  2 -1</clus>
<clus scale="   84.265">  5  6 -1 -1</clus>
<clus scale="   89.064">  7  8 -1 -1</clus>
<clus scale="  138.687">  2  5  1 -1</clus>
<clus scale="   61.768">  1  5  2 -1</clus>
</clustering>
</event>
<event>
 9    2  0.6175212E-005  0.9054599E+02  0.7546771E-02  0.1304490E+00
         21   -1    0    0  501  502  0.00000000000E+00  0.00000000000E+00  0.34839434917E+02  0.34839434917E+02  0.00000000000E+00 0.  1.
          2   -1    0    0  502    0 -0.00000000000E+00 -0.00000000000E+00 -0.37711370992E+03  0.37711370992E+03  0.00000000000E+00 0. -1.
         24    2    1    2    0    0 -0.20151913517E+02 -0.15156231402E+02 -0.22153497266E+03  0.23666630383E+03  0.79356060178E+02 0.  0.
         23    2    1    2    0    0  0.42892599225E+02  0.28061678360E+02 -0.10733343779E+03  0.14590306059E+03  0.84498540578E+02 0.  0.
        -11    1    3    3    0    0  0.30581719387E+02 -0.99977030971E+01 -0.80221699520E+02  0.86433307826E+02  0.00000000000E+00 0.  1.
         12    1    3    3    0    0 -0.50733632904E+02 -0.51585283044E+01 -0.14131327314E+03  0.15023299600E+03  0.00000000000E+00 0. -1.
        -13    1    4    4    0    0  0.39193121811E+02  0.56061580321E+02 -0.61060729798E+02  0.91691953349E+02  0.00000000000E+00 0.  1.
         13    1    4    4    0    0  0.36994774133E+01 -0.27999901961E+02 -0.46272707996E+02  0.54211107241E+02  0.00000000000E+00 0. -1.
          1    1    1    2  501    0 -0.22740685708E+02 -0.12905446958E+02 -0.13405864554E+02  0.29383780426E+02  0.00000000000E+00 0. -1.
<scales pt_clust_5="13000.00000" pt_clust_6="13000.00000" pt_clust_7="13000.00000" pt_clust_8="13000.00000" pt_clust_9="26.14745"></scales>
<clustering>
<clus scale="   26.147">  1  9  2 -1</clus>
<clus scale="   79.356">  5  6 -1 -1</clus>
<clus scale="   84.499">  7  8 -1 -1</clus>
<clus scale="   85.767">  2  5  1 -1</clus>
<clus scale="   26.147">  1  5  2 -1</clus>
</clustering>
</event>
<event>
 9    2  0.6175212E-005  0.1382336E+03  0.7546771E-02  0.1233027E+00
         21   -1    0    0  501  502  0.00000000000E+00  0.00000000000E+00  0.11012240663E+03  0.11012240663E+03  0.00000000000E+00 0.  1.
         -1   -1    0    0    0  501 -0.00000000000E+00 -0.00000000000E+00 -0.47237405194E+03  0.47237405194E+03  0.00000000000E+00 0.  1.
         23    2    1    2    0    0  0.44833062890E+02  0.51512360561E+01 -0.50660916259E+02  0.10888433408E+03  0.85162967371E+02 0.  0.
         24    2    1    2    0    0  0.52848301344E+02 -0.56577451936E+02 -0.33992983877E+03  0.35964103281E+03  0.88291710645E+02 0.  0.
        -13    1    4    4    0    0  0.50967363736E+02 -0.64499926207E+02 -0.16330860902E+03  0.18283220293E+03  0.00000000000E+00 0.  1.
         14    1    4    4    0    0  0.18809376082E+01  0.79224742706E+01 -0.17662122975E+03  0.17680882988E+03  0.00000000000E+00 0. -1.
        -11    1    3    3    0    0  0.44835772467E+02  0.40831005420E+02 -0.30041338550E+02  0.67674954882E+02  0.00000000000E+00 0.  1.
         11    1    3    3    0    0 -0.27095769237E-02 -0.35679769364E+02 -0.20619577708E+02  0.41209379201E+02  0.00000000000E+00 0. -1.
         -2    1    1    2    0  502 -0.97681364234E+02  0.51426215880E+02  0.28339109724E+02  0.11397109168E+03  0.00000000000E+00 0.  1.
<scales pt_clust_5="13000.00000" pt_clust_6="13000.00000" pt_clust_7="13000.00000" pt_clust_8="13000.00000" pt_clust_9="106.36309"></scales>
<clustering>
<clus scale="   85.163">  7  8 -1 -1</clus>
<clus scale="   88.292">  5  6 -1 -1</clus>
<clus scale="   96.381">  2  7  1 -1</clus>
<clus scale="  106.363">  1  9  2 -1</clus>
<clus scale="  106.363">  1  5  2 -1</clus>
</clustering>
</event>
<event>
 9    2  0.6175212E-005  0.1419015E+03  0.7546771E-02  0.1212428E+00
         -1   -1    0    0    0  501 -0.00000000000E+00  0.00000000000E+00  0.18284199720E+03  0.18284199720E+03  0.00000000000E+00 0.  1.
         21   -1    0    0  501  502  0.00000000000E+00 -0.00000000000E+00 -0.31526755390E+03  0.31526755390E+03  0.00000000000E+00 0.  1.
         23    2    1    2    0    0 -0.62786061490E+02  0.93623636978E+02  0.11149159730E+03  0.18255144453E+03  0.90483029970E+02 0.  0.
         24    2    1    2    0    0  0.19098066720E+02 -0.10132404951E+03 -0.10220038694E+03  0.16706036481E+03  0.82661643089E+02 0.  0.
        -11    1    4    4    0    0  0.23510873564E+02  0.12304178539E+01 -0.41758908982E+02  0.47938310183E+02  0.00000000000E+00 0.  1.
         12    1    4    4    0    0 -0.44128068436E+01 -0.10255446737E+03 -0.60441477961E+02  0.11912205463E+03  0.00000000000E+00 0. -1.
        -13    1    3    3    0    0 -0.24802496724E+02  0.10221082205E+03  0.74955707764E+02  0.12915329696E+03  0.00000000000E+00 0.  1.
         13    1    3    3    0    0 -0.37983564766E+02 -0.85871850755E+01  0.36535889537E+02  0.53398147572E+02  0.00000000000E+00 0. -1.
         -2    1    1    2    0  502  0.43687994770E+02  0.77004125369E+01 -0.14171676706E+03  0.14849774175E+03  0.00000000000E+00 0.  1.
<scales pt_clust_5="13000.00000" pt_clust_6="13000.00000" pt_clust_7="13000.00000" pt_clust_8="13000.00000" pt_clust_9="44.36144"></scales>
<clustering>
<clus scale="   44.361">  2  9  1 -1</clus>
<clus scale="   82.662">  5  6 -1 -1</clus>
<clus scale="   90.483">  7  8 -1 -1</clus>
<clus scale="  137.047">  2  5  1 -1</clus>
<clus scale="   44.361">  2  5  1 -1</clus>
</clustering>
</event>
<event>
 9    2  0.6175212E-005  0.1471811E+03  0.7546771E-02  0.1229495E+00
         21   -1    0    0  501  502  0.00000000000E+00  0.00000000000E+00  0.15997141426E+03  0.15997141426E+03  0.00000000000E+00 0. -1.
          2   -1    0    0  502    0 -0.00000000000E+00 -0.00000000000E+00 -0.31901426174E+03  0.31901426174E+03  0.00000000000E+00 0. -1.
         24    2    1    2    0    0 -0.26218466599E+02 -0.13267315274E+02 -0.15158405564E+03  0.17422020975E+03  0.80694026520E+02 0.  0.
         23    2    1    2    0    0 -0.80005057321E+02 -0.48064236257E+02 -0.89210969690E+02  0.15735985296E+03  0.89958580509E+02 0.  0.
        -13    1    3    3    0    0  0.22757708855E+02  0.16312277358E+02 -0.60357431291E+02  0.66535879170E+02  0.00000000000E+00 0.  1.
         14    1    3    3    0    0 -0.48976175455E+02 -0.29579592632E+02 -0.91226624344E+02  0.10768433058E+03  0.00000000000E+00 0. -1.
        -11    1    4    4    0    0 -0.67565433765E+02 -0.74284295704E+02 -0.72706759123E+02  0.12397385712E+03  0.00000000000E+00 0. -1.
         11    1    4    4    0    0 -0.12439623557E+02  0.26220059447E+02 -0.16504210567E+02  0.33385995838E+02  0.00000000000E+00 0.  1.
          1    1    1    2  501    0  0.10622352392E+03  0.61331551531E+02  0.81752177842E+02  0.14740561329E+03  0.00000000000E+00 0. -1.
<scales pt_clust_5="13000.00000" pt_clust_6="13000.00000" pt_clust_7="13000.00000" pt_clust_8="13000.00000" pt_clust_9="116.48914"></scales>
<clustering>
<clus scale="   80.694">  5  6 -1 -1</clus>
<clus scale="   85.878">  2  5  1 -1</clus>
<clus scale="   89.959">  7  8 -1 -1</clus>
<clus scale="  116.489">  1  9  2 -1</clus>
<clus scale="  116.489">  1  5  2 -1</clus>
</clustering>
</event>
<event>
 9    2  0.6175212E-005  0.9490991E+02  0.7546771E-02  0.1292427E+00
         21   -1    0    0  501  502  0.00000000000E+00  0.00000000000E+00  0.22555324391E+02  0.22555324391E+02  0.00000000000E+00 0. -1.
          2   -1    0    0  502    0 -0.00000000000E+00 -0.00000000000E+00 -0.65939638315E+03  0.65939638315E+03  0.00000000000E+00 0. -1.
         24    2    1    2    0    0  0.57845130720E+02  0.11884043755E+02 -0.41210814292E+03  0.42394448021E+03  0.80053177309E+02 0.  0.
         23    2    1    2    0    0 -0.28408976722E+02 -0.98534797336E+01 -0.20390364406E+03  0.22188979504E+03  0.82184086409E+02 0.  0.
        -11    1    3    3    0    0  0.47248308334E+02  0.43884604790E+02 -0.23670092392E+03  0.24532751285E+03  0.00000000000E+00 0.  1.
         12    1    3    3    0    0  0.10596822386E+02 -0.32000561035E+02 -0.17540721900E+03  0.17861696736E+03  0.00000000000E+00 0. -1.
        -11    1    4    4    0    0  0.10389437308E+02 -0.32449248213E+02 -0.13800992073E+03  0.14215355196E+03  0.00000000000E+00 0. -1.
         11    1    4    4    0    0 -0.38798414030E+02  0.22595768479E+02 -0.65893723335E+02  0.79736243073E+02  0.00000000000E+00 0.  1.
          1    1    1    2  501    0 -0.29436153998E+02 -0.20305640214E+01 -0.20829271773E+02  0.36117432287E+02  0.00000000000E+00 0. -1.
<scales pt_clust_5="13000.00000" pt_clust_6="13000.00000" pt_clust_7="13000.00000" pt_clust_8="13000.00000" pt_clust_9="29.50611"></scales>
<clustering>
<clus scale="   29.506">  1  9  2 -1</clus>
<clus scale="   80.053">  5  6 -1 -1</clus>
<clus scale="   82.184">  7  8 -1 -1</clus>
<clus scale="   93.071">  2  5  1 -1</clus>
<clus scale="   29.506">  1  5  2 -1</clus>
</clustering>
</event>
<event>
 9    2  0.6175212E-005  0.9590707E+02  0.7546771E-02  0.1293848E+00
         -3   -1    0    0    0  501 -0.00000000000E+00  0.00000000000E+00  0.53530163128E+03  0.53530163128E+03  0.00000000000E+00 0.  1.
         21   -1    0    0  501  502  0.00000000000E+00 -0.00000000000E+00 -0.82246014274E+02  0.82246014274E+02  0.00000000000E+00 0.  1.
         23    2    1    2    0    0  0.45664082009E+02 -0.44891158855E+01  0.36660865088E+03  0.38076045199E+03  0.92039439108E+02 0.  0.
         24    2    1    2    0    0  0.18167109943E+02  0.26299368936E+02  0.12901719705E+03  0.15702296119E+03  0.83600672941E+02 0.  0.
        -13    1    4    4    0    0  0.33077578432E+02 -0.15581082954E+02  0.92593995054E+02  0.99551716514E+02  0.00000000000E+00 0.  1.
         14    1    4    4    0    0 -0.14910468489E+02  0.41880451890E+02  0.36423202001E+02  0.57471244680E+02  0.00000000000E+00 0. -1.
        -13    1    3    3    0    0 -0.18462344013E+02 -0.13822625579E+02  0.29324350799E+02  0.37307380960E+02  0.00000000000E+00 0. -1.
         13    1    3    3    0    0  0.64126426022E+02  0.93335096931E+01  0.33728430008E+03  0.34345307103E+03  0.00000000000E+00 0.  1.
         -4    1    1    2    0  502 -0.63831191952E+02 -0.21810253050E+02 -0.42570230930E+02  0.79764232369E+02  0.00000000000E+00 0.  1.
<scales pt_clust_5="13000.00000" pt_clust_6="13000.00000" pt_clust_7="13000.00000" pt_clust_8="13000.00000" pt_clust_9="67.45449"></scales>
<clustering>
<clus scale="   67.454">  2  9  1 -1</clus>
<clus scale="   83.601">  5  6 -1 -1</clus>
<clus scale="   87.841">  2  5  1 -1</clus>
<clus scale="   92.039">  7  8 -1 -1</clus>
<clus scale="   67.454">  2  5  1 -1</clus>
</clustering>
</event>
<event>
 9    2  0.6175212E-005  0.1558848E+03  0.7546771E-02  0.1221136E+00
          2   -1    0    0  502    0 -0.00000000000E+00  0.00000000000E+00  0.87195066300E+03  0.87195066300E+03  0.00000000000E+00 0. -1.
         21   -1    0    0  501  502  0.00000000000E+00 -0.00000000000E+00 -0.13879608040E+03  0.13879608040E+03  0.00000000000E+00 0.  1.
         24    2    1    2    0    0  0.28034915311E+02 -0.18625302024E+02  0.92455514344E+02  0.12627989918E+03  0.79156379737E+02 0.  0.
         23    2    1    2    0    0  0.34139732670E+02 -0.12064590664E+03 -0.61242662020E+02  0.16614633838E+03  0.90183069203E+02 0.  0.
        -11    1    3    3    0    0  0.47495073446E+02  0.10454408725E+02  0.67956808495E+02  0.83565569969E+02  0.00000000000E+00 0.  1.
         12    1    3    3    0    0 -0.19460158135E+02 -0.29079710749E+02  0.24498705849E+02  0.42714329213E+02  0.00000000000E+00 0. -1.
        -11    1    4    4    0    0  0.56158545563E+02 -0.83930838195E+02 -0.13278975737E+02  0.10185528477E+03  0.00000000000E+00 0. -1.
         11    1    4    4    0    0 -0.22018812893E+02 -0.36715068444E+02 -0.47963686283E+02  0.64291053607E+02  0.00000000000E+00 0.  1.
          1    1    1    2  501    0 -0.62174647981E+02  0.13927120866E+03  0.70194173027E+03  0.71832050584E+03  0.00000000000E+00 0. -1.
<scales pt_clust_5="13000.00000" pt_clust_6="13000.00000" pt_clust_7="13000.00000" pt_clust_8="13000.00000" pt_clust_9="127.14995"></scales>
<clustering>
<clus scale="   79.156">  5  6 -1 -1</clus>
<clus scale="   86.015">  1  5  2 -1</clus>
<clus scale="   90.183">  7  8 -1 -1</clus>
<clus scale="  127.150">  2  9  1 -1</clus>
<clus scale="  127.150">  2  5  1 -1</clus>
</clustering>
</event>
<event>
 9    2  0.6175212E-005  0.9101149E+02  0.7546771E-02  0.1306126E+00
          2   -1    0    0  502    0 -0.00000000000E+00  0.00000000000E+00  0.91171181496E+03  0.91171181496E+03  0.00000000000E+00 0. -1.
         21   -1    0    0  501  502  0.00000000000E+00 -0.00000000000E+00 -0.14641362282E+02  0.14641362282E+02  0.00000000000E+00 0. -1.
         24    2    1    2    0    0  0.54495567702E+01 -0.11378784946E+02  0.33434542002E+03  0.34419119156E+03  0.80756065037E+02 0.  0.
         23    2    1    2    0    0  0.40264595165E+02 -0.31917514733E+01  0.32403186537E+03  0.33869430337E+03  0.89920834425E+02 0.  0.
        -11    1    3    3    0    0  0.36142513047E+02 -0.25371171306E+02  0.13575750305E+03  0.14275880785E+03  0.00000000000E+00 0.  1.
         12    1    3    3    0    0 -0.30692956277E+02  0.13992386360E+02  0.19858791697E+03  0.20143238371E+03  0.00000000000E+00 0. -1.
        -13    1    4    4    0    0  0.35529348526E+02  0.40486891758E+02  0.15711893797E+03  0.16609600741E+03  0.00000000000E+00 0. -1.
         13    1    4    4    0    0  0.47352466390E+01 -0.43678643231E+02  0.16691292740E+03  0.17259829596E+03  0.00000000000E+00 0.  1.
          1    1    1    2  501    0 -0.45714151936E+02  0.14570536420E+02  0.23869316729E+03  0.24346768231E+03  0.00000000000E+00 0. -1.
<scales pt_clust_5="13000.00000" pt_clust_6="13000.00000" pt_clust_7="13000.00000" pt_clust_8="13000.00000" pt_clust_9="47.98006"></scales>
<clustering>
<clus scale="   47.980">  2  9  1 -1</clus>
<clus scale="   80.756">  5  6 -1 -1</clus>
<clus scale="   81.969">  1  5  2 -1</clus>
<clus scale="   89.921">  7  8 -1 -1</clus>
<clus scale="   47.980">  2  5  1 -1</clus>
</clustering>
</event>
<event>
 9    2  0.6175212E-005  0.1636055E+03  0.7546771E-02  0.1186529E+00
         21   -1    0    0  501  502  0.00000000000E+00  0.00000000000E+00  0.78753324345E+02  0.78753324345E+02  0.00000000000E+00 0.  1.
         -1   -1    0    0    0  501 -0.00000000000E+00 -0.00000000000E+00 -0.71014629668E+03  0.71014629668E+03  0.00000000000E+00 0.  1.
         23    2    1    2    0    0 -0.13960835393E+03  0.32419680884E+02 -0.49750845886E+03  0.52587862654E+03  0.92152780834E+02 0.  0.
         24    2    1    2    0    0  0.11666764101E+03 -0.27655840379E+02 -0.16819881096E+03  0.22147052521E+03  0.79888482026E+02 0.  0.
        -13    1    4    4    0    0  0.54627193559E+02 -0.23887810161E+02 -0.23679046459E+02  0.64151812068E+02  0.00000000000E+00 0.  1.
         14    1    4    4    0    0  0.62040447455E+02 -0.37680302177E+01 -0.14451976450E+03  0.15731871314E+03  0.00000000000E+00 0. -1.
        -13    1    3    3    0    0 -0.93981491358E+02 -0.15580782782E+02 -0.20627980693E+03  0.22721496486E+03  0.00000000000E+00 0. -1.
         13    1    3    3    0    0 -0.45626862573E+02  0.48000463666E+02 -0.29122865193E+03  0.29866366168E+03  0.00000000000E+00 0.  1.
         -2    1    1    2    0  502  0.22940712916E+02 -0.47638405051E+01  0.34314297486E+02  0.41550469280E+02  0.00000000000E+00 0.  1.
<scales pt_clust_5="13000.00000" pt_clust_6="13000.00000" pt_clust_7="13000.00000" pt_clust_8="13000.00000" pt_clust_9="23.43012"></scales>
<clustering>
<clus scale="   23.430">  1  9  2 -1</clus>
<clus scale="   79.888">  5  6 -1 -1</clus>
<clus scale="   92.153">  7  8 -1 -1</clus>
<clus scale="  157.025">  1  5  2 -1</clus>
<clus scale="   23.430">  1  5  2 -1</clus>
</clustering>
</event>
<event>
 9    2  0.6175212E-005  0.1070682E+03  0.7546771E-02  0.1270973E+00
          2   -1    0    0  502    0 -0.00000000000E+00  0.00000000000E+00  0.80987787112E+02  0.80987787112E+02  0.00000000000E+00 0. -1.
         21   -1    0    0  501  502  0.00000000000E+00 -0.00000000000E+00 -0.37735102982E+03  0.37735102982E+03  0.00000000000E+00 0.  1.
         24    2    1    2    0    0 -0.53657809721E+02 -0.20392683287E+02  0.34116990480E+02  0.10461516405E+03  0.80531617599E+02 0.  0.
         23    2    1    2    0    0  0.37841818352E+02  0.56238351203E+01 -0.22529356566E+03  0.24633417722E+03  0.91976656816E+02 0.  0.
        -13    1    3    3    0    0 -0.60754783120E+02  0.12945287328E+02  0.10137984139E+02  0.62940470751E+02  0.00000000000E+00 0.  1.
         14    1    3    3    0    0  0.70969733990E+01 -0.33337970614E+02  0.23979006341E+02  0.41674693295E+02  0.00000000000E+00 0. -1.
        -13    1    4    4    0    0 -0.30033020119E+02  0.98537289677E+01 -0.70917583194E+02  0.77642655017E+02  0.00000000000E+00 0. -1.
         13    1    4    4    0    0  0.67874838470E+02 -0.42298938474E+01 -0.15437598247E+03  0.16869152220E+03  0.00000000000E+00 0.  1.
          1    1    1    2  501    0  0.15815991369E+02  0.14768848166E+02 -0.10518666753E+03  0.10738947567E+03  0.00000000000E+00 0. -1.
<scales pt_clust_5="13000.00000" pt_clust_6="13000.00000" pt_clust_7="13000.00000" pt_clust_8="13000.00000" pt_clust_9="21.63942"></scales>
<clustering>
<clus scale="   21.639">  2  9  1 -1</clus>
<clus scale="   80.532">  5  6 -1 -1</clus>
<clus scale="   91.977">  7  8 -1 -1</clus>
<clus scale="   97.413">  1  5  2 -1</clus>
<clus scale="   21.639">  2  5  1 -1</clus>
</clustering>
</event>
<event>
 9    2  0.6175212E-005  0.2271889E+03  0.7546771E-02  0.1143443E+00
          2   -1    0    0  502    0 -0.00000000000E+00  0.00000000000E+00  0.66748968567E+03  0.66748968567E+03  0.00000000000E+00 0. -1.
         21   -1    0    0  501  502  0.00000000000E+00 -0.00000000000E+00 -0.18861771401E+03  0.18861771401E+03  0.00000000000E+00 0. -1.
         23    2    1    2    0    0  0.12603212936E+03 -0.28491930542E+02  0.14944894239E+02  0.15924443544E+03  0.91867037705E+02 0.  0.
         24    2    1    2    0    0 -0.29243612414E+03 -0.57118731719E+02  0.38543666716E+03  0.49393386462E+03  0.81411313762E+02 0.  0.
        -13    1    4    4    0    0 -0.39923642060E+02 -0.31098014434E+02  0.36351950358E+02  0.62309292982E+02  0.00000000000E+00 0.  1.
         14    1    4    4    0    0 -0.25251248208E+03 -0.26020717285E+02  0.34908471680E+03  0.43162457164E+03  0.00000000000E+00 0. -1.
        -11    1    3    3    0    0  0.98422332846E+02 -0.17650062306E+02  0.51251114704E+02  0.11236172418E+03  0.00000000000E+00 0. -1.
         11    1    3    3    0    0  0.27609796515E+02 -0.10841868235E+02 -0.36306220465E+02  0.46882711258E+02  0.00000000000E+00 0.  1.
          1    1    1    2  501    0  0.16640399478E+03  0.85610662260E+02  0.78490410265E+02  0.20292909963E+03  0.00000000000E+00 0. -1.
<scales pt_clust_5="13000.00000" pt_clust_6="13000.00000" pt_clust_7="13000.00000" pt_clust_8="13000.00000" pt_clust_9="212.10143"></scales>
<clustering>
<clus scale="   81.411">  5  6 -1 -1</clus>
<clus scale="   91.867">  7  8 -1 -1</clus>
<clus scale="  158.542">  1  7  2 -1</clus>
<clus scale="  212.101">  2  9  1 -1</clus>
<clus scale="  212.101">  2  5  1 -1</clus>
</clustering>
</event>
<event>
 9    2  0.6175212E-005  0.9693522E+02  0.7546771E-02  0.1292273E+00
          2   -1    0    0  502    0 -0.00000000000E+00  0.00000000000E+00  0.22230132731E+03  0.22230132731E+03  0.00000000000E+00 0. -1.
         21   -1    0    0  501  502  0.00000000000E+00 -0.00000000000E+00 -0.22812406184E+03  0.22812406184E+03  0.00000000000E+00 0. -1.
         24    2    1    2    0    0 -0.37138962396E+02 -0.79280375149E+01  0.17189452701E+03  0.19356150440E+03  0.80474662234E+02 0.  0.
         23    2    1    2    0    0  0.19609396858E+02 -0.22717215322E+02 -0.22926757011E+02  0.98098279278E+02  0.90537483360E+02 0.  0.
        -11    1    3    3    0    0 -0.32005100001E+02  0.33024515301E+02  0.71485285228E+02  0.85000535534E+02  0.00000000000E+00 0.  1.
         12    1    3    3    0    0 -0.51338623955E+01 -0.40952552816E+02  0.10040924179E+03  0.10856096887E+03  0.00000000000E+00 0. -1.
        -11    1    4    4    0    0 -0.61657320774E+01 -0.46033713864E+02 -0.38197884267E+02  0.60134827070E+02  0.00000000000E+00 0. -1.
         11    1    4    4    0    0  0.25775128936E+02  0.23316498542E+02  0.15271127256E+02  0.37963452208E+02  0.00000000000E+00 0.  1.
          1    1    1    2  501    0  0.17529565538E+02  0.30645252837E+02 -0.15479050453E+03  0.15876560547E+03  0.00000000000E+00 0. -1.
<scales pt_clust_5="13000.00000" pt_clust_6="13000.00000" pt_clust_7="13000.00000" pt_clust_8="13000.00000" pt_clust_9="35.30463"></scales>
<clustering>
<clus scale="   35.305">  2  9  1 -1</clus>
<clus scale="   80.475">  5  6 -1 -1</clus>
<clus scale="   87.610">  1  5  2 -1</clus>
<clus scale="   90.537">  7  8 -1 -1</clus>
<clus scale="   35.305">  2  5  1 -1</clus>
</clustering>
</event>
<event>
 9    2  0.6175212E-005  0.9742070E+02  0.7546771E-02  0.1298845E+00
         21   -1    0    0  501  502  0.00000000000E+00  0.00000000000E+00  0.45064398327E+02  0.45064398327E+02  0.00000000000E+00 0.  1.
          4   -1    0    0  502    0 -0.00000000000E+00 -0.00000000000E+00 -0.42547435339E+03  0.42547435339E+03  0.00000000000E+00 0. -1.
         23    2    1    2    0    0  0.35231208851E+02 -0.10053190900E+02 -0.34466767534E+03  0.35869567019E+03  0.92328070864E+02 0.  0.
         24    2    1    2    0    0 -0.17134801833E+02 -0.10398505969E+02 -0.41930905120E+02  0.83842171969E+02  0.69782366226E+02 0.  0.
        -13    1    4    4    0    0  0.19514246300E+02 -0.23232622987E+02 -0.31278200111E+02  0.43576213485E+02  0.00000000000E+00 0.  1.
         14    1    4    4    0    0 -0.36649048133E+02  0.12834117018E+02 -0.10652705009E+02  0.40265958484E+02  0.00000000000E+00 0. -1.
        -11    1    3    3    0    0 -0.26095855331E+02 -0.17968243593E+02 -0.18068030267E+03  0.18343724599E+03  0.00000000000E+00 0. -1.
         11    1    3    3    0    0  0.61327064182E+02  0.79150526931E+01 -0.16398737266E+03  0.17525842420E+03  0.00000000000E+00 0.  1.
          3    1    1    2  501    0 -0.18096407018E+02  0.20451696870E+02  0.61886253908E+01  0.28000909558E+02  0.00000000000E+00 0. -1.
<scales pt_clust_5="13000.00000" pt_clust_6="13000.00000" pt_clust_7="13000.00000" pt_clust_8="13000.00000" pt_clust_9="27.30846"></scales>
<clustering>
<clus scale="   27.308">  1  9  2 -1</clus>
<clus scale="   69.782">  5  6 -1 -1</clus>
<clus scale="   76.393">  1  5  2 -1</clus>
<clus scale="   92.328">  7  8 -1 -1</clus>
<clus scale="   27.308">  1  5  2 -1</clus>
</clustering>
</event>
<event>
 9    2  0.6175212E-005  0.1965224E+03  0.7546771E-02  0.1153560E+00
          2   -1    0    0  502    0 -0.00000000000E+00  0.00000000000E+00  0.65572497304E+03  0.65572497304E+03  0.00000000000E+00 0. -1.
         21   -1    0    0  501  502  0.00000000000E+00 -0.00000000000E+00 -0.13285357232E+03  0.13285357232E+03  0.00000000000E+00 0.  1.
         23    2    1    2    0    0 -0.11421978669E+02  0.18876536084E+03  0.52429927038E+03  0.56430569207E+03  0.88251720242E+02 0.  0.
         24    2    1    2    0    0  0.35001725206E+02 -0.12738571942E+03  0.19574707432E+02  0.15524696632E+03  0.79159390480E+02 0.  0.
        -13    1    4    4    0    0 -0.61238244117E+01 -0.35506876397E+02 -0.26314943095E+02  0.44617437477E+02  0.00000000000E+00 0.  1.
         14    1    4    4    0    0  0.41125549618E+02 -0.91878843028E+02  0.45889650528E+02  0.11062952885E+03  0.00000000000E+00 0. -1.
        -13    1    3    3    0    0  0.18838141621E+02  0.61785220976E+02  0.89774872202E+02  0.11059754423E+03  0.00000000000E+00 0. -1.
         13    1    3    3    0    0 -0.30260120290E+02  0.12698013987E+03  0.43452439818E+03  0.45370814784E+03  0.00000000000E+00 0.  1.
          1    1    1    2  501    0 -0.23579746537E+02 -0.61379641419E+02 -0.21002577095E+02  0.69025886971E+02  0.00000000000E+00 0. -1.
<scales pt_clust_5="13000.00000" pt_clust_6="13000.00000" pt_clust_7="13000.00000" pt_clust_8="13000.00000" pt_clust_9="65.75306"></scales>
<clustering>
<clus scale="   65.753">  2  9  1 -1</clus>
<clus scale="   79.159">  5  6 -1 -1</clus>
<clus scale="   88.252">  7  8 -1 -1</clus>
<clus scale="  192.611">  2  5  1 -1</clus>
<clus scale="   65.753">  2  5  1 -1</clus>
</clustering>
</event>
<event>
 9    2  0.6175212E-005  0.9721452E+02  0.7546771E-02  0.1291050E+00
         -3   -1    0    0    0  501 -0.00000000000E+00  0.00000000000E+00  0.64909013479E+03  0.64909013479E+03  0.00000000000E+00 0.  1.
         21   -1    0    0  501  502  0.00000000000E+00 -0.00000000000E+00 -0.27902052520E+02  0.27902052520E+02  0.00000000000E+00 0.  1.
         24    2    1    2    0    0 -0.24816163601E+02  0.10767452473E+02  0.27709344740E+03  0.28969850211E+03  0.80079107923E+02 0.  0.
         23    2    1    2    0    0  0.28057264118E+02 -0.70788863125E+02  0.21636902424E+03  0.24613099154E+03  0.89256020160E+02 0.  0.
        -11    1    3    3    0    0 -0.34402754731E+02  0.40504897502E+02  0.16641656271E+03  0.17469593183E+03  0.00000000000E+00 0.  1.
         12    1    3    3    0    0  0.95865911299E+01 -0.29737445029E+02  0.11067688469E+03  0.11500257028E+03  0.00000000000E+00 0. -1.
        -11    1    4    4    0    0 -0.28594217301E+02 -0.27646279533E+01  0.49386994483E+02  0.57134469936E+02  0.00000000000E+00 0. -1.
         11    1    4    4    0    0  0.56651481419E+02 -0.68024235171E+02  0.16698202975E+03  0.18899652160E+03  0.00000000000E+00 0.  1.
         -4    1    1    2    0  502 -0.32411005169E+01  0.60021410652E+02  0.12772561064E+03  0.14116269367E+03  0.00000000000E+00 0.  1.
<scales pt_clust_5="13000.00000" pt_clust_6="13000.00000" pt_clust_7="13000.00000" pt_clust_8="13000.00000" pt_clust_9="60.10886"></scales>
<clustering>
<clus scale="   60.109">  2  9  1 -1</clus>
<clus scale="   80.079">  5  6 -1 -1</clus>
<clus scale="   88.863">  1  5  2 -1</clus>
<clus scale="   89.256">  7  8 -1 -1</clus>
<clus scale="   60.109">  2  5  1 -1</clus>
</clustering>
</event>
<event>
 9    2  0.6175212E-005  0.1414892E+03  0.7546771E-02  0.1213022E+00
         21   -1    0    0  501  502  0.00000000000E+00  0.00000000000E+00  0.30737442289E+03  0.30737442289E+03  0.00000000000E+00 0. -1.
          2   -1    0    0  502    0 -0.00000000000E+00 -0.00000000000E+00 -0.19674089961E+03  0.19674089961E+03  0.00000000000E+00 0. -1.
         24    2    1    2    0    0  0.11852979234E+03 -0.86117612318E+02 -0.96670887178E+02  0.19325967576E+03  0.80860911596E+02 0.  0.
         23    2    1    2    0    0 -0.31648736304E+02  0.50087496604E+02  0.31491048314E+02  0.11146450990E+03  0.89007027916E+02 0.  0.
        -13    1    3    3    0    0  0.17407105999E+02 -0.39979504896E+02  0.33476393523E+01  0.43732994869E+02  0.00000000000E+00 0.  1.
         14    1    3    3    0    0  0.10112268634E+03 -0.46138107422E+02 -0.10001852653E+03  0.14952668089E+03  0.00000000000E+00 0. -1.
        -13    1    4    4    0    0 -0.58713798168E+02  0.41087439994E+02  0.38803608336E+01  0.71767297711E+02  0.00000000000E+00 0.  1.
         13    1    4    4    0    0  0.27065061864E+02  0.90000566099E+01  0.27610687481E+02  0.39697212192E+02  0.00000000000E+00 0. -1.
          1    1    1    2  501    0 -0.86881056036E+02  0.36030115714E+02  0.17581336215E+03  0.19939113683E+03  0.00000000000E+00 0. -1.
<scales pt_clust_5="13000.00000" pt_clust_6="13000.00000" pt_clust_7="13000.00000" pt_clust_8="13000.00000" pt_clust_9="94.05577"></scales>
<clustering>
<clus scale="   80.861">  5  6 -1 -1</clus>
<clus scale="   89.007">  7  8 -1 -1</clus>
<clus scale="   94.056">  1  9  2 -1</clus>
<clus scale="  136.512">  2  5  1 -1</clus>
<clus scale="   94.056">  1  5  2 -1</clus>
</clustering>
</event>
<event>
 9    2  0.6175212E-005  0.1218167E+03  0.7546771E-02  0.1254581E+00
          4   -1    0    0  502    0 -0.00000000000E+00  0.00000000000E+00  0.82515394937E+03  0.82515394937E+03  0.00000000000E+00 0. -1.
         21   -1    0    0  501  502  0.00000000000E+00 -0.00000000000E+00 -0.35770896614E+02  0.35770896614E+02  0.00000000000E+00 0. -1.
         24    2    1    2    0    0 -0.43799229186E+02  0.48197771057E+01  0.18263312964E+03  0.20411737899E+03  0.79796250749E+02 0.  0.
         23    2    1    2    0    0 -0.64284987539E+02  0.19768808401E+02  0.16035038709E+03  0.19685166238E+03  0.92276567618E+02 0.  0.
        -13    1    3    3    0    0 -0.54641431536E+02  0.28779264429E+02  0.14993609979E+03  0.16215660986E+03  0.00000000000E+00 0.  1.
         14    1    3    3    0    0  0.10842202350E+02 -0.23959487324E+02  0.32697029852E+02  0.41960769127E+02  0.00000000000E+00 0. -1.
        -13    1    4    4    0    0 -0.77662392027E+02 -0.46172947373E+01  0.78998119078E+02  0.11087591877E+03  0.00000000000E+00 0. -1.
         13    1    4    4    0    0  0.13377404488E+02  0.24386103138E+02  0.81352268014E+02  0.85975743603E+02  0.00000000000E+00 0.  1.
          3    1    1    2  501    0  0.10808421673E+03 -0.24588585506E+02  0.44639953603E+03  0.45995580463E+03  0.00000000000E+00 0. -1.
<scales pt_clust_5="13000.00000" pt_clust_6="13000.00000" pt_clust_7="13000.00000" pt_clust_8="13000.00000" pt_clust_9="79.52574"></scales>
<clustering>
<clus scale="   79.796">  5  6 -1 -1</clus>
<clus scale="   91.154">  1  5  2 -1</clus>
<clus scale="   79.526">  2  9  1 -1</clus>
<clus scale="   92.277">  7  8 -1 -1</clus>
<clus scale="   79.526">  2  5  1 -1</clus>
</clustering>
</event>
<event>
 9    2  0.6175212E-005  0.1709809E+03  0.7546771E-02  0.1178977E+00
         21   -1    0    0  501  502  0.00000000000E+00  0.00000000000E+00  0.44693534442E+02  0.44693534442E+02  0.00000000000E+00 0. -1.
          2   -1    0    0  502    0 -0.00000000000E+00 -0.00000000000E+00 -0.10759307499E+04  0.10759307499E+04  0.00000000000E+00 0. -1.
         24    2    1    2    0    0 -0.68451715450E+02  0.14577290357E+03 -0.74472483146E+03  0.76621974288E+03  0.80884133348E+02 0.  0.
         23    2    1    2    0    0  0.47595880660E+02 -0.81051733600E+02 -0.14706778357E+03  0.19926398494E+03  0.96137668766E+02 0.  0.
        -11    1    3    3    0    0 -0.94901685155E+01  0.86829221754E+02 -0.25744217819E+03  0.27185630793E+03  0.00000000000E+00 0.  1.
         12    1    3    3    0    0 -0.58961546934E+02  0.58943681815E+02 -0.48728265327E+03  0.49436343496E+03  0.00000000000E+00 0. -1.
        -13    1    4    4    0    0 -0.27537327512E+02 -0.18532907207E+02 -0.19297265792E+02  0.38394759057E+02  0.00000000000E+00 0. -1.
         13    1    4    4    0    0  0.75133208172E+02 -0.62518826393E+02 -0.12777051777E+03  0.16086922588E+03  0.00000000000E+00 0.  1.
          1    1    1    2  501    0  0.20855834790E+02 -0.64721169969E+02 -0.13944460041E+03  0.15514055650E+03  0.00000000000E+00 0. -1.
<scales pt_clust_5="13000.00000" pt_clust_6="13000.00000" pt_clust_7="13000.00000" pt_clust_8="13000.00000" pt_clust_9="67.99850"></scales>
<clustering>
<clus scale="   67.998">  1  9  2 -1</clus>
<clus scale="   80.884">  5  6 -1 -1</clus>
<clus scale="   96.138">  7  8 -1 -1</clus>
<clus scale="  162.893">  2  5  1 -1</clus>
<clus scale="   67.998">  1  5  2 -1</clus>
</clustering>
</event>
<event>
 9    2  0.6175212E-005  0.1201512E+03  0.7546771E-02  0.1246284E+00
         21   -1    0    0  501  502  0.00000000000E+00  0.00000000000E+00  0.13883729177E+03  0.13883729177E+03  0.00000000000E+00 0.  1.
         -3   -1    0    0    0  501 -0.00000000000E+00 -0.00000000000E+00 -0.25060806390E+03  0.25060806390E+03  0.00000000000E+00 0.  1.
         24    2    1    2    0    0  0.25434963681E+02  0.46244228019E+02 -0.64086165499E+02  0.11544264910E+03  0.80215351520E+02 0.  0.
         23    2    1    2    0    0 -0.69466283318E+02 -0.13095512866E+03 -0.37427617425E+02  0.17798239818E+03  0.91115845349E+02 0.  0.
        -11    1    3    3    0    0  0.36898405991E+02  0.10986863078E+01 -0.87647372144E+00  0.36925163269E+02  0.00000000000E+00 0.  1.
         12    1    3    3    0    0 -0.11463442310E+02  0.45145541711E+02 -0.63209691777E+02  0.78517485826E+02  0.00000000000E+00 0. -1.
        -13    1    4    4    0    0 -0.87749446192E+02 -0.86238111472E+02 -0.40625854777E+02  0.12956634306E+03  0.00000000000E+00 0.  1.
         13    1    4    4    0    0  0.18283162874E+02 -0.44717017189E+02  0.31982373521E+01  0.48416055117E+02  0.00000000000E+00 0. -1.
         -4    1    1    2    0  502  0.44031319637E+02  0.84710900643E+02 -0.10256989205E+02  0.96020308395E+02  0.00000000000E+00 0.  1.
<scales pt_clust_5="13000.00000" pt_clust_6="13000.00000" pt_clust_7="13000.00000" pt_clust_8="13000.00000" pt_clust_9="95.47091"></scales>
<clustering>
<clus scale="   80.215">  5  6 -1 -1</clus>
<clus scale="   91.116">  7  8 -1 -1</clus>
<clus scale="   95.471">  1  9  2 -1</clus>
<clus scale="  112.110">  2  5  1 -1</clus>
<clus scale="   95.471">  1  5  2 -1</clus>
</clustering>
</event>
<event>
 9    2  0.6175212E-005  0.9945091E+02  0.7546771E-02  0.1285746E+00
         21   -1    0    0  501  502  0.00000000000E+00  0.00000000000E+00  0.38488122004E+02  0.38488122004E+02  0.00000000000E+00 0. -1.
          2   -1    0    0  502    0 -0.00000000000E+00 -0.00000000000E+00 -0.61337488539E+03  0.61337488539E+03  0.00000000000E+00 0. -1.
         24    2    1    2    0    0  0.30620490451E+02  0.52775692751E+02 -0.36600370478E+03  0.37949649177E+03  0.79598914354E+02 0.  0.
         23    2    1    2    0    0  0.38257276895E+02 -0.23208329947E+02 -0.13115748851E+03  0.16438670259E+03  0.88422029957E+02 0.  0.
        -13    1    3    3    0    0 -0.20578900139E+02  0.41866475034E+02 -0.14240076736E+03  0.14984749383E+03  0.00000000000E+00 0.  1.
         14    1    3    3    0    0  0.51199390590E+02  0.10909217717E+02 -0.22360293743E+03  0.22964899794E+03  0.00000000000E+00 0. -1.
        -13    1    4    4    0    0 -0.26925452225E+02  0.31461060163E+01 -0.23905688632E+02  0.36143601225E+02  0.00000000000E+00 0. -1.
         13    1    4    4    0    0  0.65182729120E+02 -0.26354435963E+02 -0.10725179988E+03  0.12824310136E+03  0.00000000000E+00 0.  1.
          1    1    1    2  501    0 -0.68877767346E+02 -0.29567362804E+02 -0.77725570094E+02  0.10797981304E+03  0.00000000000E+00 0. -1.
<scales pt_clust_5="13000.00000" pt_clust_6="13000.00000" pt_clust_7="13000.00000" pt_clust_8="13000.00000" pt_clust_9="74.95583"></scales>
<clustering>
<clus scale="   74.956">  1  9  2 -1</clus>
<clus scale="   79.599">  5  6 -1 -1</clus>
<clus scale="   88.422">  7  8 -1 -1</clus>
<clus scale="   91.695">  2  5  1 -1</clus>
<clus scale="   74.956">  1  5  2 -1</clus>
</clustering>
</event>
<event>
 9    2  0.6175212E-005  0.1044593E+03  0.7546771E-02  0.1275308E+00
          2   -1    0    0  502    0 -0.00000000000E+00  0.00000000000E+00  0.36122091861E+03  0.36122091861E+03  0.00000000000E+00 0. -1.
         21   -1    0    0  501  502  0.00000000000E+00 -0.00000000000E+00 -0.13585167447E+03  0.13585167447E+03  0.00000000000E+00 0. -1.
         24    2    1    2    0    0  0.32770351275E+02 -0.93483840362E+01  0.11894913945E+03  0.14747919811E+03  0.80249161321E+02 0.  0.
         23    2    1    2    0    0 -0.44374419095E+02  0.72914304036E+02  0.20039420135E+03  0.23554773999E+03  0.89662238859E+02 0.  0.
        -11    1    3    3    0    0  0.16371650872E+02 -0.18882198773E+02 -0.19816183229E+01  0.25069806420E+02  0.00000000000E+00 0.  1.
         12    1    3    3    0    0  0.16398700403E+02  0.95338147365E+01  0.12093075778E+03  0.12240939169E+03  0.00000000000E+00 0. -1.
        -11    1    4    4    0    0 -0.16950823567E+02  0.43463341807E+02  0.18761094688E+03  0.19332423513E+03  0.00000000000E+00 0.  1.
         11    1    4    4    0    0 -0.27423595527E+02  0.29450962229E+02  0.12783254474E+02  0.42223504862E+02  0.00000000000E+00 0. -1.
          1    1    1    2  501    0  0.11604067820E+02 -0.63565920000E+02 -0.93974096668E+02  0.11404565498E+03  0.00000000000E+00 0. -1.
<scales pt_clust_5="13000.00000" pt_clust_6="13000.00000" pt_clust_7="13000.00000" pt_clust_8="13000.00000" pt_clust_9="64.61641"></scales>
<clustering>
<clus scale="   64.616">  2  9  1 -1</clus>
<clus scale="   80.249">  5  6 -1 -1</clus>
<clus scale="   89.662">  7  8 -1 -1</clus>
<clus scale="   96.501">  1  5  2 -1</clus>
<clus scale="   64.616">  2  5  1 -1</clus>
</clustering>
</event>
<event>
 9    2  0.6175212E-005  0.3631456E+03  0.7546771E-02  0.1057345E+00
          4   -1    0    0  502    0 -0.00000000000E+00  0.00000000000E+00  0.30684643918E+03  0.30684643918E+03  0.00000000000E+00 0. -1.
         21   -1    0    0  501  502  0.00000000000E+00 -0.00000000000E+00 -0.44802711872E+03  0.44802711872E+03  0.00000000000E+00 0. -1.
         24    2    1    2    0    0  0.13598556912E+03  0.42051692901E+02 -0.72045729455E+02  0.17814763702E+03  0.79281609192E+02 0.  0.
         23    2    1    2    0    0  0.16077178936E+03 -0.54255066493E+02 -0.17539054757E+03  0.26128320955E+03  0.93358935961E+02 0.  0.
        -11    1    3    3    0    0  0.65312353069E+02  0.59553541304E+02 -0.26529503337E+02  0.92282946922E+02  0.00000000000E+00 0.  1.
         12    1    3    3    0    0  0.70673216054E+02 -0.17501848403E+02 -0.45516226118E+02  0.85864690095E+02  0.00000000000E+00 0. -1.
        -13    1    4    4    0    0  0.75322910405E+02 -0.67348866784E+01 -0.13652050934E+03  0.15606648904E+03  0.00000000000E+00 0. -1.
         13    1    4    4    0    0  0.85448878951E+02 -0.47520179815E+02 -0.38870038229E+02  0.10521672051E+03  0.00000000000E+00 0.  1.
          3    1    1    2  501    0 -0.29675735848E+03  0.12203373592E+02  0.10625559748E+03  0.31544271133E+03  0.00000000000E+00 0. -1.
<scales pt_clust_5="13000.00000" pt_clust_6="13000.00000" pt_clust_7="13000.00000" pt_clust_8="13000.00000" pt_clust_9="297.00832"></scales>
<clustering>
<clus scale="   79.282">  5  6 -1 -1</clus>
<clus scale="   93.359">  7  8 -1 -1</clus>
<clus scale="  141.888">  5  7 -1 -1</clus>
<clus scale="  297.008">  2  9  1 -1</clus>
<clus scale="  297.008">  2  5  1 -1</clus>
</clustering>
</event>
<event>
 9    2  0.6175212E-005  0.2911666E+03  0.7546771E-02  0.1089742E+00
         -1   -1    0    0    0  501 -0.00000000000E+00  0.00000000000E+00  0.75891590499E+03  0.75891590499E+03  0.00000000000E+00 0.  1.
         21   -1    0    0  501  502  0.00000000000E+00 -0.00000000000E+00 -0.96251114351E+02  0.96251114351E+02  0.00000000000E+00 0.  1.
         24    2    1    2    0    0  0.96149880996E+02 -0.12122477761E+03  0.37788196332E+03  0.41625173218E+03  0.80811385420E+02 0.  0.
         23    2    1    2    0    0  0.52026442639E+02 -0.31959389117E+02  0.15041743356E+03  0.18697150204E+03  0.92761980194E+02 0.  0.
        -13    1    3    3    0    0  0.99758819013E+01 -0.73228550465E+02  0.13126441296E+03  0.15063958621E+03  0.00000000000E+00 0.  1.
         14    1    3    3    0    0  0.86173999094E+02 -0.47996227148E+02  0.24661755036E+03  0.26561214597E+03  0.00000000000E+00 0. -1.
        -11    1    4    4    0    0  0.20547632282E+01 -0.44194652951E+02  0.23660739577E+02  0.50171904475E+02  0.00000000000E+00 0. -1.
         11    1    4    4    0    0  0.49971679411E+02  0.12235263833E+02  0.12675669398E+03  0.13679959756E+03  0.00000000000E+00 0.  1.
         -2    1    1    2    0  502 -0.14817632363E+03  0.15318416673E+03  0.13436539375E+03  0.25194378512E+03  0.00000000000E+00 0.  1.
<scales pt_clust_5="13000.00000" pt_clust_6="13000.00000" pt_clust_7="13000.00000" pt_clust_8="13000.00000" pt_clust_9="213.12347"></scales>
<clustering>
<clus scale="   80.811">  5  6 -1 -1</clus>
<clus scale="   92.762">  7  8 -1 -1</clus>
<clus scale="   98.227">  5  7 -1 -1</clus>
<clus scale="  213.123">  2  9  1 -1</clus>
<clus scale="  213.123">  2  5  1 -1</clus>
</clustering>
</event>
<event>
 9    2  0.6175212E-005  0.1152102E+03  0.7546771E-02  0.1255307E+00
         21   -1    0    0  501  502  0.00000000000E+00  0.00000000000E+00  0.11857457308E+03  0.11857457308E+03  0.00000000000E+00 0. -1.
          2   -1    0    0  502    0 -0.00000000000E+00 -0.00000000000E+00 -0.13843980316E+03  0.13843980316E+03  0.00000000000E+00 0. -1.
         23    2    1    2    0    0 -0.30595339525E+02 -0.54330199740E+02 -0.28088000311E+02  0.11517933066E+03  0.92679539522E+02 0.  0.
         24    2    1    2    0    0  0.16402111832E+02  0.77562483220E+02  0.12831748431E+02  0.11422292164E+03  0.81223481726E+02 0.  0.
        -11    1    4    4    0    0 -0.20327217302E+02 -0.11442549137E+01  0.18053724018E+02  0.27211064541E+02  0.00000000000E+00 0.  1.
         12    1    4    4    0    0  0.36729329134E+02  0.78706738134E+02 -0.52219755867E+01  0.87011857096E+02  0.00000000000E+00 0. -1.
        -13    1    3    3    0    0  0.23465368914E+02  0.24659830242E+01 -0.28198608204E+02  0.36767731983E+02  0.00000000000E+00 0.  1.
         13    1    3    3    0    0 -0.54060708438E+02 -0.56796182765E+02  0.11060789302E+00  0.78411598680E+02  0.00000000000E+00 0. -1.
          1    1    1    2  501    0  0.14193227693E+02 -0.23232283480E+02 -0.46089782010E+01  0.27612123933E+02  0.00000000000E+00 0. -1.
<scales pt_clust_5="13000.00000" pt_clust_6="13000.00000" pt_clust_7="13000.00000" pt_clust_8="13000.00000" pt_clust_9="27.22476"></scales>
<clustering>
<clus scale="   27.225">  1  9  2 -1</clus>
<clus scale="   81.223">  5  6 -1 -1</clus>
<clus scale="   92.680">  7  8 -1 -1</clus>
<clus scale="  106.213">  1  5  2 -1</clus>
<clus scale="   27.225">  1  5  2 -1</clus>
</clustering>
</event>
<event>
 9    2  0.6175212E-005  0.1253960E+03  0.7546771E-02  0.1248894E+00
         21   -1    0    0  501  502  0.00000000000E+00  0.00000000000E+00  0.17637164400E+03  0.17637164400E+03  0.00000000000E+00 0. -1.
          2   -1    0    0  502    0 -0.00000000000E+00 -0.00000000000E+00 -0.27380253877E+03  0.27380253877E+03  0.00000000000E+00 0. -1.
         23    2    1    2    0    0  0.13679427005E+02  0.11266319077E+01 -0.17758313870E+03  0.20073758027E+03  0.92581904070E+02 0.  0.
         24    2    1    2    0    0 -0.10413593830E+03 -0.28470207305E+02  0.13349817887E+02  0.13371013330E+03  0.77751757275E+02 0.  0.
        -11    1    4    4    0    0  0.18521927615E+01 -0.25634433556E+02 -0.47891407624E+01  0.26143654507E+02  0.00000000000E+00 0.  1.
         12    1    4    4    0    0 -0.10598813106E+03 -0.28357737497E+01  0.18138958650E+02  0.10756647879E+03  0.00000000000E+00 0. -1.
        -13    1    3    3    0    0 -0.27800849398E+02  0.21784537649E+02 -0.12837350018E+03  0.13314356483E+03  0.00000000000E+00 0. -1.
         13    1    3    3    0    0  0.41480276403E+02 -0.20657905741E+02 -0.49209638513E+02  0.67594015435E+02  0.00000000000E+00 0.  1.
          1    1    1    2  501    0  0.90456511292E+02  0.27343575398E+02  0.66802426038E+02  0.11572646921E+03  0.00000000000E+00 0. -1.
<scales pt_clust_5="13000.00000" pt_clust_6="13000.00000" pt_clust_7="13000.00000" pt_clust_8="13000.00000" pt_clust_9="98.38099"></scales>
<clustering>
<clus scale="   77.752">  5  6 -1 -1</clus>
<clus scale="   92.582">  7  8 -1 -1</clus>
<clus scale="   93.594">  2  7  1 -1</clus>
<clus scale="   98.381">  1  9  2 -1</clus>
<clus scale="   98.381">  1  5  2 -1</clus>
</clustering>
</event>
<event>
 9    2  0.6175212E-005  0.1574422E+03  0.7546771E-02  0.1201054E+00
          2   -1    0    0  502    0 -0.00000000000E+00  0.00000000000E+00  0.73283296998E+03  0.73283296998E+03  0.00000000000E+00 0. -1.
         21   -1    0    0  501  502  0.00000000000E+00 -0.00000000000E+00 -0.66609213056E+02  0.66609213056E+02  0.00000000000E+00 0. -1.
         24    2    1    2    0    0 -0.55772429344E+02  0.81266399412E+02  0.28828672930E+03  0.31546401866E+03  0.81813918336E+02 0.  0.
         23    2    1    2    0    0 -0.94849037321E+02 -0.57352041036E+02  0.16856474330E+03  0.22495021955E+03  0.99513476968E+02 0.  0.
        -13    1    3    3    0    0 -0.78192459808E+01  0.79730923651E+02  0.17913793665E+03  0.19623598329E+03  0.00000000000E+00 0.  1.
         14    1    3    3    0    0 -0.47953183363E+02  0.15354757615E+01  0.10914879265E+03  0.11922803537E+03  0.00000000000E+00 0. -1.
        -11    1    4    4    0    0 -0.41239403781E+02 -0.80290736516E+02  0.94423173171E+02  0.13062551981E+03  0.00000000000E+00 0.  1.
         11    1    4    4    0    0 -0.53609633540E+02  0.22938695480E+02  0.74141570132E+02  0.94324699736E+02  0.00000000000E+00 0. -1.
          1    1    1    2  501    0  0.15062146666E+03 -0.23914358376E+02  0.20937228432E+03  0.25902794482E+03  0.00000000000E+00 0. -1.
<scales pt_clust_5="13000.00000" pt_clust_6="13000.00000" pt_clust_7="13000.00000" pt_clust_8="13000.00000" pt_clust_9="122.00461"></scales>
<clustering>
<clus scale="   81.814">  5  6 -1 -1</clus>
<clus scale="   99.513">  7  8 -1 -1</clus>
<clus scale="  128.095">  1  5  2 -1</clus>
<clus scale="  122.005">  2  9  1 -1</clus>
<clus scale="  122.005">  2  5  1 -1</clus>
</clustering>
</event>
<event>
 9    2  0.6175212E-005  0.9297434E+02  0.7546771E-02  0.1304693E+00
          4   -1    0    0  502    0 -0.00000000000E+00  0.00000000000E+00  0.14822906814E+03  0.14822906814E+03  0.00000000000E+00 0. -1.
         21   -1    0    0  501  502  0.00000000000E+00 -0.00000000000E+00 -0.73105107227E+02  0.73105107227E+02  0.00000000000E+00 0.  1.
         24    2    1    2    0    0  0.13181062914E+02  0.20739022427E+02  0.61922102470E+02  0.10187491799E+03  0.77073371991E+02 0.  0.
         23    2    1    2    0    0 -0.48419547099E+01 -0.13226397775E+01  0.25475472155E+02  0.95022026886E+02  0.91405645397E+02 0.  0.
        -13    1    3    3    0    0 -0.26725922197E+02  0.73701236606E+01  0.88915347497E+00  0.27737776298E+02  0.00000000000E+00 0.  1.
         14    1    3    3    0    0  0.39906985111E+02  0.13368898766E+02  0.61032948995E+02  0.74137141690E+02  0.00000000000E+00 0. -1.
        -11    1    4    4    0    0  0.12209054539E+02 -0.25878616047E+02 -0.23912731021E+02  0.37290514694E+02  0.00000000000E+00 0.  1.
         11    1    4    4    0    0 -0.17051009249E+02  0.24555976270E+02  0.49388203176E+02  0.57731512192E+02  0.00000000000E+00 0. -1.
          3    1    1    2  501    0 -0.83391082039E+01 -0.19416382649E+02 -0.12273613710E+02  0.24437230496E+02  0.00000000000E+00 0. -1.
<scales pt_clust_5="13000.00000" pt_clust_6="13000.00000" pt_clust_7="13000.00000" pt_clust_8="13000.00000" pt_clust_9="21.13141"></scales>
<clustering>
<clus scale="   21.131">  2  9  1 -1</clus>
<clus scale="   77.073">  5  6 -1 -1</clus>
<clus scale="   78.927">  1  5  2 -1</clus>
<clus scale="   91.406">  7  8 -1 -1</clus>
<clus scale="   21.131">  2  5  1 -1</clus>
</clustering>
</event>
<event>
 9    2  0.6175212E-005  0.1027818E+03  0.7546771E-02  0.1279741E+00
         -3   -1    0    0    0  501 -0.00000000000E+00  0.00000000000E+00  0.11603895581E+03  0.11603895581E+03  0.00000000000E+00 0.  1.
         21   -1    0    0  501  502  0.00000000000E+00 -0.00000000000E+00 -0.22651260274E+03  0.22651260274E+03  0.00000000000E+00 0.  1.
         24    2    1    2    0    0 -0.52710151762E+02 -0.50249424809E+01  0.67033269069E+02  0.11665905664E+03  0.79449771474E+02 0.  0.
         23    2    1    2    0    0  0.16879423094E+02  0.25133389319E+02 -0.14428346623E+03  0.17305323275E+03  0.90626158232E+02 0.  0.
        -13    1    3    3    0    0 -0.54395294798E+02 -0.88540913822E+01  0.83290220647E+02  0.99872438068E+02  0.00000000000E+00 0.  1.
         14    1    3    3    0    0  0.16851430355E+01  0.38291489013E+01 -0.16256951577E+02  0.16786618568E+02  0.00000000000E+00 0. -1.
        -11    1    4    4    0    0  0.46462574939E+02  0.11232690938E+02 -0.35711807725E+02  0.59668060356E+02  0.00000000000E+00 0. -1.
         11    1    4    4    0    0 -0.29583151846E+02  0.13900698381E+02 -0.10857165850E+03  0.11338517239E+03  0.00000000000E+00 0.  1.
         -4    1    1    2    0  502  0.35830728669E+02 -0.20108446838E+02 -0.33223449765E+02  0.52839269161E+02  0.00000000000E+00 0.  1.
<scales pt_clust_5="13000.00000" pt_clust_6="13000.00000" pt_clust_7="13000.00000" pt_clust_8="13000.00000" pt_clust_9="41.08760"></scales>
<clustering>
<clus scale="   41.088">  2  9  1 -1</clus>
<clus scale="   79.450">  5  6 -1 -1</clus>
<clus scale="   90.626">  7  8 -1 -1</clus>
<clus scale="   93.077">  1  5  2 -1</clus>
<clus scale="   41.088">  2  5  1 -1</clus>
</clustering>
</event>
<event>
 9    2  0.6175212E-005  0.2878362E+03  0.7546771E-02  0.1092003E+00
         21   -1    0    0  501  502  0.00000000000E+00  0.00000000000E+00  0.20062297201E+03  0.20062297201E+03  0.00000000000E+00 0. -1.
          2   -1    0    0  502    0 -0.00000000000E+00 -0.00000000000E+00 -0.77641549594E+03  0.77641549594E+03  0.00000000000E+00 0. -1.
         24    2    1    2    0    0 -0.10829698364E+03  0.18809762641E+03 -0.12543466392E+03  0.26312117816E+03  0.79937136296E+02 0.  0.
         23    2    1    2    0    0  0.19029111599E+03 -0.30874822552E+03 -0.20074150884E+03  0.42480152132E+03  0.92860128987E+02 0.  0.
        -11    1    3    3    0    0 -0.38268943663E+02  0.13964534772E+03 -0.92498258249E+02  0.17181752812E+03  0.00000000000E+00 0.  1.
         12    1    3    3    0    0 -0.70028039979E+02  0.48452278686E+02 -0.32936405673E+02  0.91303650047E+02  0.00000000000E+00 0. -1.
        -11    1    4    4    0    0  0.15712979430E+03 -0.26413443323E+03 -0.20438567800E+03  0.36909385859E+03  0.00000000000E+00 0. -1.
         11    1    4    4    0    0  0.33161321682E+02 -0.44613792286E+02  0.36441691527E+01  0.55707662728E+02  0.00000000000E+00 0.  1.
          1    1    1    2  501    0 -0.81994132345E+02  0.12065059911E+03 -0.24961635117E+03  0.28911576847E+03  0.00000000000E+00 0. -1.
<scales pt_clust_5="13000.00000" pt_clust_6="13000.00000" pt_clust_7="13000.00000" pt_clust_8="13000.00000" pt_clust_9="145.87538"></scales>
<clustering>
<clus scale="   79.937">  5  6 -1 -1</clus>
<clus scale="   92.860">  7  8 -1 -1</clus>
<clus scale="  145.875">  1  9  2 -1</clus>
<clus scale="  283.931">  2  5  1 -1</clus>
<clus scale="  145.875">  1  5  2 -1</clus>
</clustering>
</event>
<event>
 9    2  0.6175212E-005  0.9764613E+02  0.7546771E-02  0.1289955E+00
         21   -1    0    0  501  502  0.00000000000E+00  0.00000000000E+00  0.79383494115E+02  0.79383494115E+02  0.00000000000E+00 0.  1.
          2   -1    0    0  502    0 -0.00000000000E+00 -0.00000000000E+00 -0.27175936139E+03  0.27175936139E+03  0.00000000000E+00 0. -1.
         24    2    1    2    0    0  0.10214105224E+02 -0.31346572709E+02 -0.19240570320E+03  0.21155594801E+03  0.81541578044E+02 0.  0.
         23    2    1    2    0    0 -0.14040837855E+01  0.60584615742E+02 -0.31950086345E+01  0.10888056840E+03  0.90400790807E+02 0.  0.
        -11    1    3    3    0    0 -0.28683987765E+02 -0.19930757866E+02 -0.36720507969E+02  0.50679403792E+02  0.00000000000E+00 0.  1.
         12    1    3    3    0    0  0.38898092989E+02 -0.11415814843E+02 -0.15568519523E+03  0.16087654422E+03  0.00000000000E+00 0. -1.
        -11    1    4    4    0    0  0.10732155313E+02 -0.22316678117E+02 -0.40449865741E+01  0.25091337076E+02  0.00000000000E+00 0. -1.
         11    1    4    4    0    0 -0.12136239099E+02  0.82901293860E+02  0.84997793964E+00  0.83789231322E+02  0.00000000000E+00 0.  1.
          1    1    1    2  501    0 -0.88100214387E+01 -0.29238043034E+02  0.32248445588E+01  0.30706339095E+02  0.00000000000E+00 0. -1.
<scales pt_clust_5="13000.00000" pt_clust_6="13000.00000" pt_clust_7="13000.00000" pt_clust_8="13000.00000" pt_clust_9="30.53653"></scales>
<clustering>
<clus scale="   30.537">  1  9  2 -1</clus>
<clus scale="   81.542">  5  6 -1 -1</clus>
<clus scale="   89.507">  2  5  1 -1</clus>
<clus scale="   90.401">  7  8 -1 -1</clus>
<clus scale="   30.537">  1  5  2 -1</clus>
</clustering>
</event>
<event>
 9    2  0.6175212E-005  0.1182717E+03  0.7546771E-02  0.1250143E+00
          2   -1    0    0  502    0 -0.00000000000E+00  0.00000000000E+00  0.87101496446E+03  0.87101496446E+03  0.00000000000E+00 0. -1.
         21   -1    0    0  501  502  0.00000000000E+00 -0.00000000000E+00 -0.12240036606E+03  0.12240036606E+03  0.00000000000E+00 0.  1.
         24    2    1    2    0    0 -0.61830649870E+02 -0.41682003396E+02  0.80503504165E+03  0.81234727390E+03  0.79159689597E+02 0.  0.
         23    2    1    2    0    0  0.83297130634E+02  0.12855111304E+02 -0.69692889251E+02  0.14275412539E+03  0.91749526679E+02 0.  0.
        -13    1    3    3    0    0 -0.23640094276E+02 -0.19269719742E+02  0.74910248539E+02  0.80880909320E+02  0.00000000000E+00 0.  1.
         14    1    3    3    0    0 -0.38190555594E+02 -0.22412283654E+02  0.73012479311E+03  0.73146636458E+03  0.00000000000E+00 0. -1.
        -13    1    4    4    0    0  0.91338680699E+01  0.19909520689E+02  0.17523586261E+02  0.28051606646E+02  0.00000000000E+00 0. -1.
         13    1    4    4    0    0  0.74163262565E+02 -0.70544093857E+01 -0.87216475511E+02  0.11470251875E+03  0.00000000000E+00 0.  1.
          1    1    1    2  501    0 -0.21466480764E+02  0.28826892092E+02  0.13272446000E+02  0.38313931238E+02  0.00000000000E+00 0. -1.
<scales pt_clust_5="13000.00000" pt_clust_6="13000.00000" pt_clust_7="13000.00000" pt_clust_8="13000.00000" pt_clust_9="35.94161"></scales>
<clustering>
<clus scale="   35.942">  2  9  1 -1</clus>
<clus scale="   79.160">  5  6 -1 -1</clus>
<clus scale="   91.750">  7  8 -1 -1</clus>
<clus scale="  108.796">  1  5  2 -1</clus>
<clus scale="   35.942">  2  5  1 -1</clus>
</clustering>
</event>
<event>
 9    2  0.6175212E-005  0.1203179E+03  0.7546771E-02  0.1245666E+00
          2   -1    0    0  502    0 -0.00000000000E+00  0.00000000000E+00  0.49123991423E+03  0.49123991423E+03  0.00000000000E+00 0. -1.
         21   -1    0    0  501  502  0.00000000000E+00 -0.00000000000E+00 -0.94248135633E+02  0.94248135633E+02  0.00000000000E+00 0. -1.
         24    2    1    2    0    0 -0.50758804917E+02 -0.62676647874E+02  0.38607611001E+03  0.40258023178E+03  0.80692390180E+02 0.  0.
         23    2    1    2    0    0  0.65284445035E+02  0.39278511645E+02  0.55310378916E+02  0.13066456680E+03  0.90604253544E+02 0.  0.
        -13    1    3    3    0    0 -0.31652266620E+02  0.35911500343E+01  0.48464397150E+02  0.57996207909E+02  0.00000000000E+00 0.  1.
         14    1    3    3    0    0 -0.19106538297E+02 -0.66267797909E+02  0.33761171286E+03  0.34458402387E+03  0.00000000000E+00 0. -1.
        -13    1    4    4    0    0 -0.96599537233E+00  0.51077568457E+02  0.23594067004E+02  0.56271939227E+02  0.00000000000E+00 0.  1.
         13    1    4    4    0    0  0.66250440407E+02 -0.11799056812E+02  0.31716311912E+02  0.74392627572E+02  0.00000000000E+00 0. -1.
          1    1    1    2  501    0 -0.14525640118E+02  0.23398136229E+02 -0.44394710329E+02  0.52243251287E+02  0.00000000000E+00 0. -1.
<scales pt_clust_5="13000.00000" pt_clust_6="13000.00000" pt_clust_7="13000.00000" pt_clust_8="13000.00000" pt_clust_9="27.54028"></scales>
<clustering>
<clus scale="   27.540">  2  9  1 -1</clus>
<clus scale="   80.692">  5  6 -1 -1</clus>
<clus scale="   90.604">  7  8 -1 -1</clus>
<clus scale="  113.042">  1  5  2 -1</clus>
<clus scale="   27.540">  2  5  1 -1</clus>
</clustering>
</event>
<event>
 9    2  0.6175212E-005  0.1119294E+03  0.7546771E-02  0.1257558E+00
         -1   -1    0    0    0  501 -0.00000000000E+00  0.00000000000E+00  0.19045847419E+03  0.19045847419E+03  0.00000000000E+00 0.  1.
         21   -1    0    0  501  502  0.00000000000E+00 -0.00000000000E+00 -0.27774952385E+03  0.27774952385E+03  0.00000000000E+00 0.  1.
         24    2    1    2    0    0 -0.48796875175E+02  0.42524568514E+02  0.14465641148E+03  0.18393309902E+03  0.93361842196E+02 0.  0.
         23    2    1    2    0    0  0.42118741959E+02 -0.20977848073E+02 -0.80035191069E+02  0.13069691746E+03  0.91989096587E+02 0.  0.
        -11    1    3    3    0    0 -0.33323621415E+02  0.56815931123E+02  0.14856355182E+03  0.16251043875E+03  0.00000000000E+00 0.  1.
         12    1    3    3    0    0 -0.15473253760E+02 -0.14291362609E+02 -0.39071403440E+01  0.21422660264E+02  0.00000000000E+00 0. -1.
        -11    1    4    4    0    0  0.56693322807E+02  0.13914530663E+02 -0.70816593875E+02  0.91775470483E+02  0.00000000000E+00 0.  1.
         11    1    4    4    0    0 -0.14574580848E+02 -0.34892378736E+02 -0.92185971937E+01  0.38921446979E+02  0.00000000000E+00 0. -1.
         -2    1    1    2    0  502  0.66781332162E+01 -0.21546720441E+02 -0.15191227006E+03  0.15357798156E+03  0.00000000000E+00 0.  1.
<scales pt_clust_5="13000.00000" pt_clust_6="13000.00000" pt_clust_7="13000.00000" pt_clust_8="13000.00000" pt_clust_9="22.55789"></scales>
<clustering>
<clus scale="   22.558">  2  9  1 -1</clus>
<clus scale="   91.989">  7  8 -1 -1</clus>
<clus scale="   93.362">  5  6 -1 -1</clus>
<clus scale="  110.787">  2  7  1 -1</clus>
<clus scale="   22.558">  2  5  1 -1</clus>
</clustering>
</event>
<event>
 9    2  0.6175212E-005  0.9424704E+02  0.7546771E-02  0.1297255E+00
          2   -1    0    0  502    0 -0.00000000000E+00  0.00000000000E+00  0.21746193390E+03  0.21746193390E+03  0.00000000000E+00 0. -1.
         21   -1    0    0  501  502  0.00000000000E+00 -0.00000000000E+00 -0.97364180770E+02  0.97364180770E+02  0.00000000000E+00 0. -1.
         24    2    1    2    0    0 -0.11334043643E+02 -0.46887031668E+01  0.21901319733E+02  0.86332624067E+02  0.82602722047E+02 0.  0.
         23    2    1    2    0    0  0.50548137687E+01  0.62360696607E+02 -0.51423357958E+01  0.10998446659E+03  0.90309089516E+02 0.  0.
        -11    1    3    3    0    0 -0.46696985939E+02 -0.83128455736E+01  0.17301208594E+02  0.50488055183E+02  0.00000000000E+00 0.  1.
         12    1    3    3    0    0  0.35362942296E+02  0.36241424069E+01  0.46001111388E+01  0.35844568884E+02  0.00000000000E+00 0. -1.
        -11    1    4    4    0    0  0.40650335378E+02  0.12332532121E+02 -0.19788150319E+02  0.46862693135E+02  0.00000000000E+00 0.  1.
         11    1    4    4    0    0 -0.35595521609E+02  0.50028164487E+02  0.14645814523E+02  0.63121773451E+02  0.00000000000E+00 0. -1.
          1    1    1    2  501    0  0.62792298748E+01 -0.57671993440E+02  0.10333876920E+03  0.11850902402E+03  0.00000000000E+00 0. -1.
<scales pt_clust_5="13000.00000" pt_clust_6="13000.00000" pt_clust_7="13000.00000" pt_clust_8="13000.00000" pt_clust_9="58.01285"></scales>
<clustering>
<clus scale="   58.013">  2  9  1 -1</clus>
<clus scale="   82.603">  5  6 -1 -1</clus>
<clus scale="   86.891">  1  5  2 -1</clus>
<clus scale="   90.309">  7  8 -1 -1</clus>
<clus scale="   58.013">  2  5  1 -1</clus>
</clustering>
</event>
<event>
 9    2  0.6175212E-005  0.9589476E+02  0.7546771E-02  0.1295127E+00
         21   -1    0    0  501  502  0.00000000000E+00  0.00000000000E+00  0.13044715292E+03  0.13044715292E+03  0.00000000000E+00 0.  1.
         -3   -1    0    0    0  501 -0.00000000000E+00 -0.00000000000E+00 -0.16468608274E+03  0.16468608274E+03  0.00000000000E+00 0.  1.
         24    2    1    2    0    0  0.11314818584E+02  0.36921252762E+01  0.26848451077E+02  0.86989250682E+02  0.81881826435E+02 0.  0.
         23    2    1    2    0    0 -0.36054917850E+02  0.31572030345E+02  0.29202088573E+02  0.10810488523E+03  0.92396720893E+02 0.  0.
        -13    1    3    3    0    0  0.18864242573E+02 -0.36895272430E+02  0.14420209889E+02  0.43875542490E+02  0.00000000000E+00 0.  1.
         14    1    3    3    0    0 -0.75494239886E+01  0.40587397706E+02  0.12428241188E+02  0.43113708193E+02  0.00000000000E+00 0. -1.
        -13    1    4    4    0    0 -0.19665349115E+02 -0.15555264254E+02 -0.24321176824E+02  0.34931530799E+02  0.00000000000E+00 0.  1.
         13    1    4    4    0    0 -0.16389568735E+02  0.47127294599E+02  0.53523265397E+02  0.73173354428E+02  0.00000000000E+00 0. -1.
         -4    1    1    2    0  502  0.24740099266E+02 -0.35264155621E+02 -0.90289469471E+02  0.10003909976E+03  0.00000000000E+00 0.  1.
<scales pt_clust_5="13000.00000" pt_clust_6="13000.00000" pt_clust_7="13000.00000" pt_clust_8="13000.00000" pt_clust_9="43.07708"></scales>
<clustering>
<clus scale="   43.077">  1  9  2 -1</clus>
<clus scale="   81.882">  5  6 -1 -1</clus>
<clus scale="   85.810">  2  5  1 -1</clus>
<clus scale="   92.397">  7  8 -1 -1</clus>
<clus scale="   43.077">  1  5  2 -1</clus>
</clustering>
</event>
<event>
 9    2  0.6175212E-005  0.9092562E+02  0.7546771E-02  0.1308076E+00
          2   -1    0    0  502    0 -0.00000000000E+00  0.00000000000E+00  0.26749402691E+03  0.26749402691E+03  0.00000000000E+00 0. -1.
         21   -1    0    0  501  502  0.00000000000E+00 -0.00000000000E+00 -0.40666473475E+03  0.40666473475E+03  0.00000000000E+00 0.  1.
         24    2    1    2    0    0  0.22416886075E+01  0.21771768018E+01  0.24247826856E+03  0.25514002175E+03  0.79315538874E+02 0.  0.
         23    2    1    2    0    0  0.20578674459E+02  0.23557516461E+02 -0.11382594632E+03  0.14899611335E+03  0.90912360625E+02 0.  0.
        -11    1    3    3    0    0  0.42772416633E+01 -0.31420666411E+02  0.46443590869E+02  0.56236644697E+02  0.00000000000E+00 0.  1.
         12    1    3    3    0    0 -0.20355530558E+01  0.33597843213E+02  0.19603467769E+03  0.19890337705E+03  0.00000000000E+00 0. -1.
        -11    1    4    4    0    0  0.55824110523E+02  0.71954275922E+01 -0.77656354958E+02  0.95909410171E+02  0.00000000000E+00 0.  1.
         11    1    4    4    0    0 -0.35245436064E+02  0.16362088869E+02 -0.36169591364E+02  0.53086703184E+02  0.00000000000E+00 0. -1.
          1    1    1    2  501    0 -0.22820363067E+02 -0.25734693263E+02 -0.26782303008E+03  0.27002262655E+03  0.00000000000E+00 0. -1.
<scales pt_clust_5="13000.00000" pt_clust_6="13000.00000" pt_clust_7="13000.00000" pt_clust_8="13000.00000" pt_clust_9="34.39540"></scales>
<clustering>
<clus scale="   34.395">  2  9  1 -1</clus>
<clus scale="   79.316">  5  6 -1 -1</clus>
<clus scale="   79.331">  1  5  2 -1</clus>
<clus scale="   90.912">  7  8 -1 -1</clus>
<clus scale="   34.395">  2  5  1 -1</clus>
</clustering>
</event>
<event>
 9    2  0.6175212E-005  0.1268080E+03  0.7546771E-02  0.1235824E+00
         21   -1    0    0  501  502  0.00000000000E+00  0.00000000000E+00  0.38769189540E+02  0.38769189540E+02  0.00000000000E+00 0. -1.
         -3   -1    0    0    0  501 -0.00000000000E+00 -0.00000000000E+00 -0.73606499421E+03  0.73606499421E+03  0.00000000000E+00 0.  1.
         24    2    1    2    0    0  0.85069185742E+02  0.47042141926E+02 -0.34823972222E+03  0.36932376127E+03  0.75361840691E+02 0.  0.
         23    2    1    2    0    0 -0.30147232694E+02 -0.89642204968E+02 -0.17261723588E+03  0.21587431600E+03  0.88659064039E+02 0.  0.
        -13    1    3    3    0    0  0.84245391132E+02  0.10479027215E+02 -0.21494033688E+03  0.23109834347E+03  0.00000000000E+00 0.  1.
         14    1    3    3    0    0  0.82379461084E+00  0.36563114711E+02 -0.13329938534E+03  0.13822541780E+03  0.00000000000E+00 0. -1.
        -11    1    4    4    0    0 -0.13326898223E+02 -0.62612458365E+02 -0.17254607086E+03  0.18403823714E+03  0.00000000000E+00 0.  1.
         11    1    4    4    0    0 -0.16820334471E+02 -0.27029746603E+02 -0.71165018987E-01  0.31836078867E+02  0.00000000000E+00 0. -1.
         -4    1    1    2    0  502 -0.54921953048E+02  0.42600063042E+02 -0.17643884657E+03  0.18963610647E+03  0.00000000000E+00 0.  1.
<scales pt_clust_5="13000.00000" pt_clust_6="13000.00000" pt_clust_7="13000.00000" pt_clust_8="13000.00000" pt_clust_9="69.50677"></scales>
<clustering>
<clus scale="   69.507">  1  9  2 -1</clus>
<clus scale="   75.362">  5  6 -1 -1</clus>
<clus scale="   88.659">  7  8 -1 -1</clus>
<clus scale="  117.895">  2  5  1 -1</clus>
<clus scale="   69.507">  1  5  2 -1</clus>
</clustering>
</event>
<event>
 9    2  0.6175212E-005  0.1058838E+03  0.7546771E-02  0.1271794E+00
         21   -1    0    0  501  502  0.00000000000E+00  0.00000000000E+00  0.17824264094E+03  0.17824264094E+03  0.00000000000E+00 0. -1.
          2   -1    0    0  502    0 -0.00000000000E+00 -0.00000000000E+00 -0.86122373321E+02  0.86122373321E+02  0.00000000000E+00 0. -1.
         23    2    1    2    0    0  0.50949602904E+02 -0.11119498700E+02  0.51444397142E+02  0.11576119338E+03  0.89636056407E+02 0.  0.
         24    2    1    2    0    0 -0.53700049146E+02  0.31828925460E+02  0.61004517366E+02  0.11945422061E+03  0.81553564663E+02 0.  0.
        -13    1    4    4    0    0 -0.60818022043E+02 -0.87816538366E+01  0.35243270429E+02  0.70838106694E+02  0.00000000000E+00 0.  1.
         14    1    4    4    0    0  0.71179728972E+01  0.40610579297E+02  0.25761246937E+02  0.48616113920E+02  0.00000000000E+00 0. -1.
        -11    1    3    3    0    0  0.14647339806E+02 -0.21637502270E+02 -0.21348307441E+02  0.33741314415E+02  0.00000000000E+00 0.  1.
         11    1    3    3    0    0  0.36302263097E+02  0.10518003569E+02  0.72792704583E+02  0.82019878966E+02  0.00000000000E+00 0. -1.
          1    1    1    2  501    0  0.27504462426E+01 -0.20709426760E+02 -0.20328646890E+02  0.29149600265E+02  0.00000000000E+00 0. -1.
<scales pt_clust_5="13000.00000" pt_clust_6="13000.00000" pt_clust_7="13000.00000" pt_clust_8="13000.00000" pt_clust_9="20.89128"></scales>
<clustering>
<clus scale="   20.891">  1  9  2 -1</clus>
<clus scale="   81.554">  5  6 -1 -1</clus>
<clus scale="   89.636">  7  8 -1 -1</clus>
<clus scale="   99.135">  1  5  2 -1</clus>
<clus scale="   20.891">  1  5  2 -1</clus>
</clustering>
</event>
<event>
 9    2  0.6175212E-005  0.1989801E+03  0.7546771E-02  0.1158979E+00
          2   -1    0    0  502    0 -0.00000000000E+00  0.00000000000E+00  0.51304888807E+03  0.51304888807E+03  0.00000000000E+00 0. -1.
         21   -1    0    0  501  502  0.00000000000E+00 -0.00000000000E+00 -0.20707544872E+03  0.20707544872E+03  0.00000000000E+00 0. -1.
         23    2    1    2    0    0 -0.65667015239E+02  0.11950204122E+03  0.19162254036E+03  0.25185222666E+03  0.90096899794E+02 0.  0.
         24    2    1    2    0    0 -0.15546553717E+03  0.22862303618E+02 -0.12764824040E+02  0.17616661641E+03  0.78609909244E+02 0.  0.
        -13    1    4    4    0    0 -0.30509612340E+02 -0.12834957772E+02 -0.30497513442E+02  0.45007453964E+02  0.00000000000E+00 0.  1.
         14    1    4    4    0    0 -0.12495592483E+03  0.35697261390E+02  0.17732689403E+02  0.13115916245E+03  0.00000000000E+00 0. -1.
        -11    1    3    3    0    0  0.10769110103E+02  0.27579845859E+02  0.47140235883E+01  0.29980721279E+02  0.00000000000E+00 0.  1.
         11    1    3    3    0    0 -0.76436125342E+02  0.91922195359E+02  0.18690851677E+03  0.22187150538E+03  0.00000000000E+00 0. -1.
          1    1    1    2  501    0  0.22113255241E+03 -0.14236434484E+03  0.12711572303E+03  0.29210549371E+03  0.00000000000E+00 0. -1.
<scales pt_clust_5="13000.00000" pt_clust_6="13000.00000" pt_clust_7="13000.00000" pt_clust_8="13000.00000" pt_clust_9="182.79382"></scales>
<clustering>
<clus scale="   78.610">  5  6 -1 -1</clus>
<clus scale="   90.097">  7  8 -1 -1</clus>
<clus scale="  163.433">  1  7  2 -1</clus>
<clus scale="  182.794">  2  9  1 -1</clus>
<clus scale="  182.794">  2  5  1 -1</clus>
</clustering>
</event>
<event>
 9    2  0.6175212E-005  0.2521475E+03  0.7546771E-02  0.1112765E+00
         21   -1    0    0  501  502  0.00000000000E+00  0.00000000000E+00  0.10447880566E+03  0.10447880566E+03  0.00000000000E+00 0. -1.
          4   -1    0    0  502    0 -0.00000000000E+00 -0.00000000000E+00 -0.14070623364E+04  0.14070623364E+04  0.00000000000E+00 0. -1.
         24    2    1    2    0    0  0.21285731966E+03  0.92961323065E+02 -0.10522802878E+04  0.10805864301E+04  0.80144761873E+02 0.  0.
         23    2    1    2    0    0 -0.20731222534E+03 -0.12969950669E+03 -0.10757422624E+03  0.28346907052E+03  0.94774358231E+02 0.  0.
        -13    1    3    3    0    0  0.70821305497E+02  0.54903497176E+02 -0.26640246767E+03  0.28106996655E+03  0.00000000000E+00 0.  1.
         14    1    3    3    0    0  0.14203601416E+03  0.38057825888E+02 -0.78587782010E+03  0.79951646359E+03  0.00000000000E+00 0. -1.
        -13    1    4    4    0    0 -0.10299695551E+03 -0.66663814619E+02 -0.10511906487E+03  0.16156254153E+03  0.00000000000E+00 0.  1.
         13    1    4    4    0    0 -0.10431526983E+03 -0.63035692069E+02 -0.24551613700E+01  0.12190652899E+03  0.00000000000E+00 0. -1.
          3    1    1    2  501    0 -0.55450943195E+01  0.36738183623E+02 -0.14272901676E+03  0.14748564145E+03  0.00000000000E+00 0. -1.
<scales pt_clust_5="13000.00000" pt_clust_6="13000.00000" pt_clust_7="13000.00000" pt_clust_8="13000.00000" pt_clust_9="37.15432"></scales>
<clustering>
<clus scale="   37.154">  1  9  2 -1</clus>
<clus scale="   80.145">  5  6 -1 -1</clus>
<clus scale="   94.774">  7  8 -1 -1</clus>
<clus scale="  247.021">  2  5  1 -1</clus>
<clus scale="   37.154">  1  5  2 -1</clus>
</clustering>
</event>
<event>
 9    2  0.6175212E-005  0.9292029E+02  0.7546771E-02  0.1299998E+00
         21   -1    0    0  501  502  0.00000000000E+00  0.00000000000E+00  0.73048941427E+02  0.73048941427E+02  0.00000000000E+00 0.  1.
          2   -1    0    0  502    0 -0.00000000000E+00 -0.00000000000E+00 -0.34241010967E+03  0.34241010967E+03  0.00000000000E+00 0. -1.
         24    2    1    2    0    0 -0.50402402181E+00  0.18715437579E+02 -0.22147409582E+03  0.23697414238E+03  0.82191528713E+02 0.  0.
         23    2    1    2    0    0 -0.40941762915E+02 -0.52852904790E+02 -0.54996893190E+02  0.12432154958E+03  0.89227416935E+02 0.  0.
        -13    1    3    3    0    0 -0.28525960358E+02  0.16501449061E+02 -0.33799975612E+02  0.47206637106E+02  0.00000000000E+00 0.  1.
         14    1    3    3    0    0  0.28021936336E+02  0.22139885177E+01 -0.18767412021E+03  0.18976750527E+03  0.00000000000E+00 0. -1.
        -13    1    4    4    0    0 -0.55914832383E+02  0.51352662513E+00 -0.24386159307E+02  0.61003417574E+02  0.00000000000E+00 0. -1.
         13    1    4    4    0    0  0.14973069468E+02 -0.53366431415E+02 -0.30610733883E+02  0.63318132001E+02  0.00000000000E+00 0.  1.
          1    1    1    2  501    0  0.41445786937E+02  0.34137467211E+02  0.71098207669E+01  0.54163359144E+02  0.00000000000E+00 0. -1.
<scales pt_clust_5="13000.00000" pt_clust_6="13000.00000" pt_clust_7="13000.00000" pt_clust_8="13000.00000" pt_clust_9="53.69469"></scales>
<clustering>
<clus scale="   53.695">  1  9  2 -1</clus>
<clus scale="   82.192">  5  6 -1 -1</clus>
<clus scale="   86.186">  2  5  1 -1</clus>
<clus scale="   89.227">  7  8 -1 -1</clus>
<clus scale="   53.695">  1  5  2 -1</clus>
</clustering>
</event>
<event>
 9    2  0.6175212E-005  0.2416714E+03  0.7546771E-02  0.1119569E+00
          2   -1    0    0  502    0 -0.00000000000E+00  0.00000000000E+00  0.29487610880E+03  0.29487610880E+03  0.00000000000E+00 0. -1.
         21   -1    0    0  501  502  0.00000000000E+00 -0.00000000000E+00 -0.34917330973E+03  0.34917330973E+03  0.00000000000E+00 0. -1.
         23    2    1    2    0    0 -0.22320416133E+03  0.38481085720E+02  0.16781972180E+03  0.29625956585E+03  0.91133856160E+02 0.  0.
         24    2    1    2    0    0  0.20493474663E+03 -0.69172365196E+02 -0.17370753958E+03  0.28763011095E+03  0.75984899370E+02 0.  0.
        -11    1    4    4    0    0  0.56620984149E+02  0.89174883984E+01 -0.21499483490E+02  0.61218340681E+02  0.00000000000E+00 0.  1.
         12    1    4    4    0    0  0.14831376248E+03 -0.78089853595E+02 -0.15220805609E+03  0.22641177027E+03  0.00000000000E+00 0. -1.
        -13    1    3    3    0    0 -0.18976403001E+03 -0.42274996294E+01  0.13383440999E+03  0.23224966767E+03  0.00000000000E+00 0. -1.
         13    1    3    3    0    0 -0.33440131324E+02  0.42708585349E+02  0.33985311808E+02  0.64009898174E+02  0.00000000000E+00 0.  1.
          1    1    1    2  501    0  0.18269414700E+02  0.30691279476E+02 -0.48409383143E+02  0.60159741735E+02  0.00000000000E+00 0. -1.
<scales pt_clust_5="13000.00000" pt_clust_6="13000.00000" pt_clust_7="13000.00000" pt_clust_8="13000.00000" pt_clust_9="35.71731"></scales>
<clustering>
<clus scale="   35.717">  2  9  1 -1</clus>
<clus scale="   75.985">  5  6 -1 -1</clus>
<clus scale="   91.134">  7  8 -1 -1</clus>
<clus scale="  236.376">  2  5  1 -1</clus>
<clus scale="   35.717">  2  5  1 -1</clus>
</clustering>
</event>
<event>
 9    2  0.6175212E-005  0.9678775E+02  0.7546771E-02  0.1293836E+00
         21   -1    0    0  501  502  0.00000000000E+00  0.00000000000E+00  0.41592099461E+02  0.41592099461E+02  0.00000000000E+00 0. -1.
          2   -1    0    0  502    0 -0.00000000000E+00 -0.00000000000E+00 -0.27165924069E+03  0.27165924069E+03  0.00000000000E+00 0. -1.
         23    2    1    2    0    0 -0.17821353848E+01  0.40560329206E+02 -0.10885488478E+03  0.14809556495E+03  0.91840046296E+02 0.  0.
         24    2    1    2    0    0  0.13355720073E+00 -0.20204832734E+02 -0.63672255936E+02  0.10409911541E+03  0.79838690807E+02 0.  0.
        -13    1    4    4    0    0  0.31783627916E+02  0.14883413966E+02 -0.26502199225E+02  0.43978194354E+02  0.00000000000E+00 0.  1.
         14    1    4    4    0    0 -0.31650070716E+02 -0.35088246700E+02 -0.37170056711E+02  0.60120921056E+02  0.00000000000E+00 0. -1.
        -13    1    3    3    0    0  0.17597855080E+02  0.29269826303E+02  0.27462231159E+01  0.34262938820E+02  0.00000000000E+00 0. -1.
         13    1    3    3    0    0 -0.19379990465E+02  0.11290502903E+02 -0.11160110790E+03  0.11383262613E+03  0.00000000000E+00 0.  1.
          1    1    1    2  501    0  0.16485781841E+01 -0.20355496472E+02 -0.57540000508E+02  0.61056659793E+02  0.00000000000E+00 0. -1.
<scales pt_clust_5="13000.00000" pt_clust_6="13000.00000" pt_clust_7="13000.00000" pt_clust_8="13000.00000" pt_clust_9="20.42216"></scales>
<clustering>
<clus scale="   20.422">  1  9  2 -1</clus>
<clus scale="   79.839">  5  6 -1 -1</clus>
<clus scale="   85.484">  1  5  2 -1</clus>
<clus scale="   91.840">  7  8 -1 -1</clus>
<clus scale="   20.422">  1  5  2 -1</clus>
</clustering>
</event>
<event>
 9    2  0.6175212E-005  0.1185683E+03  0.7546771E-02  0.1248635E+00
         -1   -1    0    0    0  501 -0.00000000000E+00  0.00000000000E+00  0.31008107191E+03  0.31008107191E+03  0.00000000000E+00 0.  1.
         21   -1    0    0  501  502  0.00000000000E+00 -0.00000000000E+00 -0.86167470687E+02  0.86167470687E+02  0.00000000000E+00 0.  1.
         23    2    1    2    0    0 -0.60663432707E+02  0.59109781764E+02  0.19838056102E+03  0.23391044160E+03  0.90472257263E+02 0.  0.
         24    2    1    2    0    0  0.42626476006E+02 -0.47150208229E+02  0.61963792306E+02  0.11996401806E+03  0.80695077167E+02 0.  0.
        -11    1    4    4    0    0 -0.22619104404E+02 -0.17185706071E+02  0.30178983942E+02  0.41445668639E+02  0.00000000000E+00 0.  1.
         12    1    4    4    0    0  0.65245580411E+02 -0.29964502158E+02  0.31784808365E+02  0.78518349419E+02  0.00000000000E+00 0. -1.
        -13    1    3    3    0    0 -0.18362236612E+02  0.25204743714E+02  0.16977322904E+03  0.17261344136E+03  0.00000000000E+00 0.  1.
         13    1    3    3    0    0 -0.42301196096E+02  0.33905038050E+02  0.28607331976E+02  0.61297000245E+02  0.00000000000E+00 0. -1.
         -2    1    1    2    0  502  0.18036956701E+02 -0.11959573535E+02 -0.36430752099E+02  0.42374082936E+02  0.00000000000E+00 0.  1.
<scales pt_clust_5="13000.00000" pt_clust_6="13000.00000" pt_clust_7="13000.00000" pt_clust_8="13000.00000" pt_clust_9="21.64170"></scales>
<clustering>
<clus scale="   21.642">  2  9  1 -1</clus>
<clus scale="   80.695">  5  6 -1 -1</clus>
<clus scale="   90.472">  7  8 -1 -1</clus>
<clus scale="  111.287">  2  5  1 -1</clus>
<clus scale="   21.642">  2  5  1 -1</clus>
</clustering>
</event>
<event>
 9    2  0.6175212E-005  0.1925543E+03  0.7546771E-02  0.1189262E+00
          2   -1    0    0  502    0 -0.00000000000E+00  0.00000000000E+00  0.20719961788E+03  0.20719961788E+03  0.00000000000E+00 0. -1.
         21   -1    0    0  501  502  0.00000000000E+00 -0.00000000000E+00 -0.33971106340E+03  0.33971106340E+03  0.00000000000E+00 0. -1.
         24    2    1    2    0    0 -0.36123755001E+02 -0.17156714385E+02  0.83847540297E+02  0.12348500206E+03  0.81356359292E+02 0.  0.
         23    2    1    2    0    0 -0.10807735034E+03 -0.10085583627E+03 -0.76031464328E+02  0.19016030635E+03  0.92344708431E+02 0.  0.
        -11    1    3    3    0    0  0.19000439064E+02 -0.11306107511E+02 -0.10018508548E+01  0.22132520345E+02  0.00000000000E+00 0.  1.
         12    1    3    3    0    0 -0.55124194064E+02 -0.58506068735E+01  0.84849391152E+02  0.10135248172E+03  0.00000000000E+00 0. -1.
        -11    1    4    4    0    0 -0.62873943405E+02 -0.11107612896E+03 -0.60794266268E+02  0.14137532315E+03  0.00000000000E+00 0. -1.
         11    1    4    4    0    0 -0.45203406935E+02  0.10220292686E+02 -0.15237198060E+02  0.48784983200E+02  0.00000000000E+00 0.  1.
          1    1    1    2  501    0  0.14420110534E+03  0.11801255066E+03 -0.14032752149E+03  0.23326537287E+03  0.00000000000E+00 0. -1.
<scales pt_clust_5="13000.00000" pt_clust_6="13000.00000" pt_clust_7="13000.00000" pt_clust_8="13000.00000" pt_clust_9="168.96627"></scales>
<clustering>
<clus scale="   81.356">  5  6 -1 -1</clus>
<clus scale="   90.654">  1  5  2 -1</clus>
<clus scale="   92.345">  7  8 -1 -1</clus>
<clus scale="  168.966">  2  9  1 -1</clus>
<clus scale="  168.966">  2  5  1 -1</clus>
</clustering>
</event>
<event>
 9    2  0.6175212E-005  0.9605051E+02  0.7546771E-02  0.1313716E+00
         -1   -1    0    0    0  501 -0.00000000000E+00  0.00000000000E+00  0.85959156780E+02  0.85959156780E+02  0.00000000000E+00 0.  1.
         21   -1    0    0  501  502  0.00000000000E+00 -0.00000000000E+00 -0.34186005853E+03  0.34186005853E+03  0.00000000000E+00 0. -1.
         24    2    1    2    0    0 -0.74037599184E+01  0.28240385008E+02  0.58187329526E+02  0.84763046432E+02  0.54283272900E+02 0.  0.
         23    2    1    2    0    0 -0.47192678218E+01 -0.60937031566E+01 -0.14399002674E+03  0.17109442166E+03  0.92091088694E+02 0.  0.
        -13    1    3    3    0    0  0.91287667290E+01  0.38824771567E+02  0.48737506045E+02  0.62976517566E+02  0.00000000000E+00 0.  1.
         14    1    3    3    0    0 -0.16532526647E+02 -0.10584386560E+02  0.94498234809E+01  0.21786528866E+02  0.00000000000E+00 0. -1.
        -13    1    4    4    0    0  0.29182983024E+02 -0.35567730807E+02 -0.88086023775E+02  0.99377349318E+02  0.00000000000E+00 0. -1.
         13    1    4    4    0    0 -0.33902250846E+02  0.29474027650E+02 -0.55904002964E+02  0.71717072345E+02  0.00000000000E+00 0.  1.
         -2    1    1    2    0  502  0.12123027740E+02 -0.22146681851E+02 -0.17009820454E+03  0.17196174721E+03  0.00000000000E+00 0.  1.
<scales pt_clust_5="13000.00000" pt_clust_6="13000.00000" pt_clust_7="13000.00000" pt_clust_8="13000.00000" pt_clust_9="25.24764"></scales>
<clustering>
<clus scale="   25.248">  2  9  1 -1</clus>
<clus scale="   54.283">  5  6 -1 -1</clus>
<clus scale="   60.759">  1  5  2 -1</clus>
<clus scale="   92.091">  7  8 -1 -1</clus>
<clus scale="   25.248">  2  5  1 -1</clus>
</clustering>
</event>
<event>
 9    2  0.6175212E-005  0.9643663E+02  0.7546771E-02  0.1295339E+00
         21   -1    0    0  501  502  0.00000000000E+00  0.00000000000E+00  0.17654066937E+02  0.17654066937E+02  0.00000000000E+00 0. -1.
          2   -1    0    0  502    0 -0.00000000000E+00 -0.00000000000E+00 -0.80196138007E+03  0.80196138007E+03  0.00000000000E+00 0. -1.
         24    2    1    2    0    0 -0.34926820086E+01  0.13380526485E+02 -0.29609289702E+03  0.30667245086E+03  0.78649546286E+02 0.  0.
         23    2    1    2    0    0  0.67315179937E+01 -0.58497322277E+02 -0.29510153280E+03  0.31460338583E+03  0.91777588046E+02 0.  0.
        -13    1    3    3    0    0  0.19648702846E+02  0.38011685833E+01 -0.16438462372E+02  0.25898715244E+02  0.00000000000E+00 0.  1.
         14    1    3    3    0    0 -0.23141384854E+02  0.95793579012E+01 -0.27965443465E+03  0.28077373562E+03  0.00000000000E+00 0. -1.
        -13    1    4    4    0    0  0.37536959865E+02 -0.12112783119E+01 -0.16410386004E+03  0.16834656941E+03  0.00000000000E+00 0.  1.
         13    1    4    4    0    0 -0.30805441871E+02 -0.57286043965E+02 -0.13099767276E+03  0.14625681642E+03  0.00000000000E+00 0. -1.
          1    1    1    2  501    0 -0.32388359851E+01  0.45116795792E+02 -0.19311288330E+03  0.19833961031E+03  0.00000000000E+00 0. -1.
<scales pt_clust_5="13000.00000" pt_clust_6="13000.00000" pt_clust_7="13000.00000" pt_clust_8="13000.00000" pt_clust_9="45.23292"></scales>
<clustering>
<clus scale="   45.233">  1  9  2 -1</clus>
<clus scale="   78.650">  5  6 -1 -1</clus>
<clus scale="   84.040">  2  5  1 -1</clus>
<clus scale="   91.778">  7  8 -1 -1</clus>
<clus scale="   45.233">  1  5  2 -1</clus>
</clustering>
</event>
<event>
 9    2  0.6175212E-005  0.9599603E+02  0.7546771E-02  0.1294176E+00
          2   -1    0    0  502    0 -0.00000000000E+00  0.00000000000E+00  0.93728423719E+03  0.93728423719E+03  0.00000000000E+00 0. -1.
         21   -1    0    0  501  502  0.00000000000E+00 -0.00000000000E+00 -0.14425967260E+02  0.14425967260E+02  0.00000000000E+00 0.  1.
         24    2    1    2    0    0  0.16042316375E+02  0.15777327233E+02  0.30484987843E+03  0.31644551146E+03  0.81841513759E+02 0.  0.
         23    2    1    2    0    0 -0.45154846119E+02  0.15553372200E+02  0.39657323429E+03  0.40973713156E+03  0.91287016113E+02 0.  0.
        -13    1    3    3    0    0  0.69352058570E+01  0.49080107221E+02  0.20031700296E+03  0.20635856096E+03  0.00000000000E+00 0.  1.
         14    1    3    3    0    0  0.91071105180E+01 -0.33302779988E+02  0.10453287547E+03  0.11008695050E+03  0.00000000000E+00 0. -1.
        -11    1    4    4    0    0  0.27137782866E+02  0.48714156996E+01  0.15197040776E+03  0.15445126994E+03  0.00000000000E+00 0. -1.
         11    1    4    4    0    0 -0.72292628985E+02  0.10681956500E+02  0.24460282652E+03  0.25528586162E+03  0.00000000000E+00 0.  1.
          1    1    1    2  501    0  0.29112529744E+02 -0.31330699433E+02  0.22143515721E+03  0.22552756143E+03  0.00000000000E+00 0. -1.
<scales pt_clust_5="13000.00000" pt_clust_6="13000.00000" pt_clust_7="13000.00000" pt_clust_8="13000.00000" pt_clust_9="42.76861"></scales>
<clustering>
<clus scale="   42.769">  2  9  1 -1</clus>
<clus scale="   81.842">  5  6 -1 -1</clus>
<clus scale="   87.063">  1  5  2 -1</clus>
<clus scale="   91.287">  7  8 -1 -1</clus>
<clus scale="   42.769">  2  5  1 -1</clus>
</clustering>
</event>
<event>
 9    2  0.6175212E-005  0.9840046E+02  0.7546771E-02  0.1292976E+00
         21   -1    0    0  501  502  0.00000000000E+00  0.00000000000E+00  0.10980341183E+03  0.10980341183E+03  0.00000000000E+00 0. -1.
          2   -1    0    0  502    0 -0.00000000000E+00 -0.00000000000E+00 -0.19560091317E+03  0.19560091317E+03  0.00000000000E+00 0. -1.
         24    2    1    2    0    0  0.14449864095E+02 -0.13373360266E+02 -0.71061443081E+02  0.10889461230E+03  0.80129036927E+02 0.  0.
         23    2    1    2    0    0  0.79275787570E+01  0.36049107073E+02  0.57141597994E+02  0.11788823402E+03  0.96281300744E+02 0.  0.
        -13    1    3    3    0    0  0.36582558259E+02  0.20331087343E+02 -0.41110472739E+02  0.58666068985E+02  0.00000000000E+00 0.  1.
         14    1    3    3    0    0 -0.22132694163E+02 -0.33704447608E+02 -0.29950970342E+02  0.50228543319E+02  0.00000000000E+00 0. -1.
        -11    1    4    4    0    0  0.17217392998E+02 -0.28593595954E+02  0.38523372514E+01  0.33598703152E+02  0.00000000000E+00 0.  1.
         11    1    4    4    0    0 -0.92898142412E+01  0.64642703026E+02  0.53289260742E+02  0.84289530866E+02  0.00000000000E+00 0. -1.
          1    1    1    2  501    0 -0.22377442852E+02 -0.22675746807E+02 -0.71877656249E+02  0.78621478679E+02  0.00000000000E+00 0. -1.
<scales pt_clust_5="13000.00000" pt_clust_6="13000.00000" pt_clust_7="13000.00000" pt_clust_8="13000.00000" pt_clust_9="31.85813"></scales>
<clustering>
<clus scale="   31.858">  1  9  2 -1</clus>
<clus scale="   80.129">  5  6 -1 -1</clus>
<clus scale="   82.663">  2  5  1 -1</clus>
<clus scale="   96.281">  7  8 -1 -1</clus>
<clus scale="   31.858">  1  5  2 -1</clus>
</clustering>
</event>
<event>
 9    2  0.6175212E-005  0.1121876E+03  0.7546771E-02  0.1260905E+00
          2   -1    0    0  502    0 -0.00000000000E+00  0.00000000000E+00  0.28967316377E+03  0.28967316377E+03  0.00000000000E+00 0. -1.
         21   -1    0    0  501  502  0.00000000000E+00 -0.00000000000E+00 -0.23251488343E+03  0.23251488343E+03  0.00000000000E+00 0.  1.
         24    2    1    2    0    0  0.58421352478E+02  0.30920023794E+02  0.25337164158E+03  0.27371177490E+03  0.79698460897E+02 0.  0.
         23    2    1    2    0    0 -0.34939013680E+02 -0.36115675097E+02 -0.19864545517E+03  0.22430335131E+03  0.91251848666E+02 0.  0.
        -13    1    3    3    0    0  0.55276494145E+02  0.55845674241E+01  0.74012232288E+02  0.92544522941E+02  0.00000000000E+00 0.  1.
         14    1    3    3    0    0  0.31448583337E+01  0.25335456370E+02  0.17935940929E+03  0.18116725196E+03  0.00000000000E+00 0. -1.
        -11    1    4    4    0    0 -0.61669948191E-01 -0.35914711725E+02 -0.18226615551E+03  0.18577088514E+03  0.00000000000E+00 0.  1.
         11    1    4    4    0    0 -0.34877343732E+02 -0.20096337162E+00 -0.16379299666E+02  0.38532466176E+02  0.00000000000E+00 0. -1.
          1    1    1    2  501    0 -0.23482338798E+02  0.51956513029E+01  0.24320939407E+01  0.24172920983E+02  0.00000000000E+00 0. -1.
<scales pt_clust_5="13000.00000" pt_clust_6="13000.00000" pt_clust_7="13000.00000" pt_clust_8="13000.00000" pt_clust_9="24.05026"></scales>
<clustering>
<clus scale="   24.050">  2  9  1 -1</clus>
<clus scale="   79.698">  5  6 -1 -1</clus>
<clus scale="   91.252">  7  8 -1 -1</clus>
<clus scale="  103.010">  1  5  2 -1</clus>
<clus scale="   24.050">  2  5  1 -1</clus>
</clustering>
</event>
<event>
 9    2  0.6175212E-005  0.1225164E+03  0.7546771E-02  0.1260594E+00
         21   -1    0    0  501  502  0.00000000000E+00  0.00000000000E+00  0.10365192389E+03  0.10365192389E+03  0.00000000000E+00 0. -1.
          2   -1    0    0  502    0 -0.00000000000E+00 -0.00000000000E+00 -0.21629651013E+03  0.21629651013E+03  0.00000000000E+00 0. -1.
         24    2    1    2    0    0 -0.75543061298E+00 -0.77340114531E+01 -0.68654401209E+02  0.10509934710E+03  0.79196340490E+02 0.  0.
         23    2    1    2    0    0 -0.72478204053E+02 -0.33327959862E+02 -0.50267545012E+02  0.13065493045E+03  0.90443583514E+02 0.  0.
        -11    1    3    3    0    0  0.18674882855E+02 -0.22195452234E+02  0.32847359445E+01  0.29192102352E+02  0.00000000000E+00 0.  1.
         12    1    3    3    0    0 -0.19430313468E+02  0.14461440781E+02 -0.71939137153E+02  0.75907244748E+02  0.00000000000E+00 0. -1.
        -13    1    4    4    0    0  0.19020767737E+02  0.71084018291E+01 -0.11748203433E+02  0.23459310854E+02  0.00000000000E+00 0.  1.
         13    1    4    4    0    0 -0.91498971790E+02 -0.40436361691E+02 -0.38519341579E+02  0.10719561960E+03  0.00000000000E+00 0. -1.
          1    1    1    2  501    0  0.73233634666E+02  0.41061971315E+02  0.62773599768E+01  0.84194156466E+02  0.00000000000E+00 0. -1.
<scales pt_clust_5="13000.00000" pt_clust_6="13000.00000" pt_clust_7="13000.00000" pt_clust_8="13000.00000" pt_clust_9="82.64515"></scales>
<clustering>
<clus scale="   79.196">  5  6 -1 -1</clus>
<clus scale="   79.577">  2  5  1 -1</clus>
<clus scale="   82.645">  1  9  2 -1</clus>
<clus scale="   90.444">  7  8 -1 -1</clus>
<clus scale="   82.645">  1  5  2 -1</clus>
</clustering>
</event>
<event>
 9    2  0.6175212E-005  0.9249617E+02  0.7546771E-02  0.1301445E+00
         21   -1    0    0  501  502  0.00000000000E+00  0.00000000000E+00  0.16239814747E+03  0.16239814747E+03  0.00000000000E+00 0. -1.
         -3   -1    0    0    0  501 -0.00000000000E+00 -0.00000000000E+00 -0.10124838902E+03  0.10124838902E+03  0.00000000000E+00 0.  1.
         23    2    1    2    0    0 -0.32321356451E+02 -0.69922725897E+01 -0.48285483383E+00  0.97984612947E+02  0.92234425605E+02 0.  0.
         24    2    1    2    0    0 -0.28470130922E+02 -0.11522291257E+02  0.37941363510E+02  0.97841061507E+02  0.84793954392E+02 0.  0.
        -11    1    4    4    0    0  0.24598947766E+02 -0.20563820710E+02  0.14252350750E+00  0.32062427643E+02  0.00000000000E+00 0.  1.
         12    1    4    4    0    0 -0.53069078688E+02  0.90415294530E+01  0.37798840002E+02  0.65778633865E+02  0.00000000000E+00 0. -1.
        -13    1    3    3    0    0 -0.39483886072E+01 -0.46532814376E+02  0.11006999838E+02  0.47979648099E+02  0.00000000000E+00 0. -1.
         13    1    3    3    0    0 -0.28372967844E+02  0.39540541786E+02 -0.11489854672E+02  0.50004964847E+02  0.00000000000E+00 0.  1.
         -4    1    1    2    0  502  0.60791487373E+02  0.18514563847E+02  0.23691249775E+02  0.67820862037E+02  0.00000000000E+00 0.  1.
<scales pt_clust_5="13000.00000" pt_clust_6="13000.00000" pt_clust_7="13000.00000" pt_clust_8="13000.00000" pt_clust_9="63.54836"></scales>
<clustering>
<clus scale="   63.548">  1  9  2 -1</clus>
<clus scale="   84.794">  5  6 -1 -1</clus>
<clus scale="   85.079">  1  5  2 -1</clus>
<clus scale="   92.234">  7  8 -1 -1</clus>
<clus scale="   63.548">  1  5  2 -1</clus>
</clustering>
</event>
<event>
 9    2  0.6175212E-005  0.1239215E+03  0.7546771E-02  0.1239715E+00
          2   -1    0    0  502    0 -0.00000000000E+00  0.00000000000E+00  0.98028457999E+02  0.98028457999E+02  0.00000000000E+00 0. -1.
         21   -1    0    0  501  502  0.00000000000E+00 -0.00000000000E+00 -0.17965291554E+03  0.17965291554E+03  0.00000000000E+00 0. -1.
         24    2    1    2    0    0 -0.71647355273E+02 -0.52802495472E+02 -0.22391515962E+02  0.12209489161E+03  0.80525371929E+02 0.  0.
         23    2    1    2    0    0  0.74262441536E+02  0.30166038609E+02 -0.51354587015E+02  0.13147597953E+03  0.90684835978E+02 0.  0.
        -11    1    3    3    0    0  0.16442831751E+02 -0.12572481428E+02 -0.13790451911E+02  0.24871883104E+02  0.00000000000E+00 0.  1.
         12    1    3    3    0    0 -0.88090187024E+02 -0.40230014044E+02 -0.86010640516E+01  0.97223008505E+02  0.00000000000E+00 0. -1.
        -13    1    4    4    0    0  0.66018818070E+02 -0.20252531115E+02 -0.21600196902E+02  0.72354805384E+02  0.00000000000E+00 0.  1.
         13    1    4    4    0    0  0.82436234659E+01  0.50418569724E+02 -0.29754390113E+02  0.59121174142E+02  0.00000000000E+00 0. -1.
          1    1    1    2  501    0 -0.26150862630E+01  0.22636456863E+02 -0.78783545607E+01  0.24110502402E+02  0.00000000000E+00 0. -1.
<scales pt_clust_5="13000.00000" pt_clust_6="13000.00000" pt_clust_7="13000.00000" pt_clust_8="13000.00000" pt_clust_9="22.78701"></scales>
<clustering>
<clus scale="   22.787">  2  9  1 -1</clus>
<clus scale="   80.525">  5  6 -1 -1</clus>
<clus scale="   90.685">  7  8 -1 -1</clus>
<clus scale="  116.692">  1  5  2 -1</clus>
<clus scale="   22.787">  2  5  1 -1</clus>
</clustering>
</event>
<event>
 9    2  0.6175212E-005  0.1511717E+03  0.7546771E-02  0.1201086E+00
         21   -1    0    0  501  502  0.00000000000E+00  0.00000000000E+00  0.50023504087E+02  0.50023504087E+02  0.00000000000E+00 0.  1.
          2   -1    0    0  502    0 -0.00000000000E+00 -0.00000000000E+00 -0.85264261507E+03  0.85264261507E+03  0.00000000000E+00 0. -1.
         23    2    1    2    0    0  0.47386769582E+02  0.53537418232E+02 -0.17806495310E+03  0.21292614219E+03  0.92296551517E+02 0.  0.
         24    2    1    2    0    0 -0.11480209996E+03 -0.12576361889E+03 -0.46850138149E+03  0.50504043758E+03  0.81094322479E+02 0.  0.
        -13    1    4    4    0    0 -0.94969281230E+02 -0.11353815722E+03 -0.29573529586E+03  0.33071051198E+03  0.00000000000E+00 0.  1.
         14    1    4    4    0    0 -0.19832818728E+02 -0.12225461674E+02 -0.17276608564E+03  0.17432992560E+03  0.00000000000E+00 0. -1.
        -13    1    3    3    0    0  0.20574038771E+02  0.21570251420E+02  0.23475609039E+00  0.29809762295E+02  0.00000000000E+00 0.  1.
         13    1    3    3    0    0  0.26812730811E+02  0.31967166812E+02 -0.17829970919E+03  0.18311637989E+03  0.00000000000E+00 0. -1.
          1    1    1    2  501    0  0.67415330377E+02  0.72226200661E+02 -0.15605277640E+03  0.18469953939E+03  0.00000000000E+00 0. -1.
<scales pt_clust_5="13000.00000" pt_clust_6="13000.00000" pt_clust_7="13000.00000" pt_clust_8="13000.00000" pt_clust_9="98.80005"></scales>
<clustering>
<clus scale="   81.094">  5  6 -1 -1</clus>
<clus scale="   92.297">  7  8 -1 -1</clus>
<clus scale="   98.800">  1  9  2 -1</clus>
<clus scale="  144.605">  1  5  2 -1</clus>
<clus scale="   98.800">  1  5  2 -1</clus>
</clustering>
</event>
<event>
 9    2  0.6175212E-005  0.1328648E+03  0.7546771E-02  0.1228114E+00
         21   -1    0    0  501  502  0.00000000000E+00  0.00000000000E+00  0.24716004440E+03  0.24716004440E+03  0.00000000000E+00 0. -1.
          2   -1    0    0  502    0 -0.00000000000E+00 -0.00000000000E+00 -0.42120518453E+03  0.42120518453E+03  0.00000000000E+00 0. -1.
         24    2    1    2    0    0  0.45032501740E+02  0.65876742121E+02 -0.24446158420E+03  0.26920853467E+03  0.79649843859E+02 0.  0.
         23    2    1    2    0    0 -0.11942418567E+03 -0.66313892252E+02 -0.11215804236E+03  0.20200762165E+03  0.97816073899E+02 0.  0.
        -11    1    3    3    0    0  0.28406977706E+02  0.10784534171E+02 -0.17498397406E+02  0.35063606082E+02  0.00000000000E+00 0.  1.
         12    1    3    3    0    0  0.16625524034E+02  0.55092207949E+02 -0.22696318679E+03  0.23414492859E+03  0.00000000000E+00 0. -1.
        -13    1    4    4    0    0 -0.56685764612E+02 -0.37645149241E+02 -0.11427056811E+03  0.13299697706E+03  0.00000000000E+00 0.  1.
         13    1    4    4    0    0 -0.62738421056E+02 -0.28668743010E+02  0.21125257518E+01  0.69010644596E+02  0.00000000000E+00 0. -1.
          1    1    1    2  501    0  0.74391683929E+02  0.43715013081E+00  0.18257448642E+03  0.19714907261E+03  0.00000000000E+00 0. -1.
<scales pt_clust_5="13000.00000" pt_clust_6="13000.00000" pt_clust_7="13000.00000" pt_clust_8="13000.00000" pt_clust_9="74.39297"></scales>
<clustering>
<clus scale="   74.393">  1  9  2 -1</clus>
<clus scale="   79.650">  5  6 -1 -1</clus>
<clus scale="   97.816">  7  8 -1 -1</clus>
<clus scale="  120.121">  2  5  1 -1</clus>
<clus scale="   74.393">  1  5  2 -1</clus>
</clustering>
</event>
<event>
 9    2  0.6175212E-005  0.1525994E+03  0.7546771E-02  0.1221166E+00
         21   -1    0    0  501  502  0.00000000000E+00  0.00000000000E+00  0.64035672423E+02  0.64035672423E+02  0.00000000000E+00 0. -1.
          2   -1    0    0  502    0 -0.00000000000E+00 -0.00000000000E+00 -0.85173152023E+03  0.85173152023E+03  0.00000000000E+00 0. -1.
         24    2    1    2    0    0  0.40504249237E+01  0.42105259702E+02 -0.24161992942E+02  0.94765764854E+02  0.81286465348E+02 0.  0.
         23    2    1    2    0    0 -0.10513342004E+03 -0.71837905677E+02 -0.62609292271E+03  0.64781998546E+03  0.10707317586E+03 0.  0.
        -13    1    3    3    0    0 -0.24385072302E+02 -0.44748320483E+01  0.13717622865E+02  0.28334238124E+02  0.00000000000E+00 0.  1.
         14    1    3    3    0    0  0.28435497225E+02  0.46580091751E+02 -0.37879615808E+02  0.66431526730E+02  0.00000000000E+00 0. -1.
        -11    1    4    4    0    0 -0.95300803082E+02 -0.52333709991E+02 -0.61254008575E+03  0.62211447252E+03  0.00000000000E+00 0. -1.
         11    1    4    4    0    0 -0.98326169626E+01 -0.19504195687E+02 -0.13552836963E+02  0.25705512939E+02  0.00000000000E+00 0.  1.
          1    1    1    2  501    0  0.10108299512E+03  0.29732645975E+02 -0.13744093215E+03  0.17318144234E+03  0.00000000000E+00 0. -1.
<scales pt_clust_5="13000.00000" pt_clust_6="13000.00000" pt_clust_7="13000.00000" pt_clust_8="13000.00000" pt_clust_9="108.72863"></scales>
<clustering>
<clus scale="   81.286">  5  6 -1 -1</clus>
<clus scale="   91.634">  2  5  1 -1</clus>
<clus scale="  107.073">  7  8 -1 -1</clus>
<clus scale="  108.729">  1  9  2 -1</clus>
<clus scale="  108.729">  1  5  2 -1</clus>
</clustering>
</event>
<event>
 9    2  0.6175212E-005  0.9541095E+02  0.7546771E-02  0.1296755E+00
          2   -1    0    0  502    0 -0.00000000000E+00  0.00000000000E+00  0.78937476307E+03  0.78937476307E+03  0.00000000000E+00 0. -1.
         21   -1    0    0  501  502  0.00000000000E+00 -0.00000000000E+00 -0.25159639749E+02  0.25159639749E+02  0.00000000000E+00 0. -1.
         24    2    1    2    0    0 -0.28962552984E+02  0.18359000541E+02  0.53771950112E+03  0.54466439888E+03  0.79631420631E+02 0.  0.
         23    2    1    2    0    0  0.15093450150E+02  0.94420593344E-01  0.22874096070E+03  0.24667685172E+03  0.91100059914E+02 0.  0.
        -11    1    3    3    0    0  0.21932954017E+02  0.19957019750E+02  0.11008800804E+03  0.11401187054E+03  0.00000000000E+00 0.  1.
         12    1    3    3    0    0 -0.50895507001E+02 -0.15980192095E+01  0.42763149308E+03  0.43065252834E+03  0.00000000000E+00 0. -1.
        -11    1    4    4    0    0  0.49583232837E+02 -0.10961890242E+02  0.17219066056E+03  0.17952237632E+03  0.00000000000E+00 0.  1.
         11    1    4    4    0    0 -0.34489782687E+02  0.11056310836E+02  0.56550300141E+02  0.67154475392E+02  0.00000000000E+00 0. -1.
          1    1    1    2  501    0  0.13869102834E+02 -0.18453421134E+02 -0.22453384981E+01  0.23193152221E+02  0.00000000000E+00 0. -1.
<scales pt_clust_5="13000.00000" pt_clust_6="13000.00000" pt_clust_7="13000.00000" pt_clust_8="13000.00000" pt_clust_9="23.08421"></scales>
<clustering>
<clus scale="   23.084">  2  9  1 -1</clus>
<clus scale="   79.631">  5  6 -1 -1</clus>
<clus scale="   84.529">  1  5  2 -1</clus>
<clus scale="   91.100">  7  8 -1 -1</clus>
<clus scale="   23.084">  2  5  1 -1</clus>
</clustering>
</event>
<event>
 9    2  0.6175212E-005  0.1117754E+03  0.7546771E-02  0.1257765E+00
         21   -1    0    0  501  502  0.00000000000E+00  0.00000000000E+00  0.26324763988E+03  0.26324763988E+03  0.00000000000E+00 0. -1.
          2   -1    0    0  502    0 -0.00000000000E+00 -0.00000000000E+00 -0.17463471192E+03  0.17463471192E+03  0.00000000000E+00 0. -1.
         24    2    1    2    0    0  0.11433463435E+01  0.80822690966E+02 -0.10973906230E+03  0.15811862945E+03  0.80157498524E+02 0.  0.
         23    2    1    2    0    0  0.58828090108E+02 -0.52635269727E+02  0.17870242765E+03  0.21064636406E+03  0.78778913658E+02 0.  0.
        -11    1    3    3    0    0  0.16180718668E+02 -0.11783264872E+02 -0.18990065745E+02  0.27591367937E+02  0.00000000000E+00 0.  1.
         12    1    3    3    0    0 -0.15037372324E+02  0.92605955838E+02 -0.90748996556E+02  0.13052726152E+03  0.00000000000E+00 0. -1.
        -13    1    4    4    0    0  0.69228603117E+02 -0.19460843596E+02  0.14677057662E+03  0.16344089477E+03  0.00000000000E+00 0. -1.
         13    1    4    4    0    0 -0.10400513009E+02 -0.33174426132E+02  0.31931851032E+02  0.47205469284E+02  0.00000000000E+00 0.  1.
          1    1    1    2  501    0 -0.59971436451E+02 -0.28187421239E+02  0.19649562606E+02  0.69117358288E+02  0.00000000000E+00 0. -1.
<scales pt_clust_5="13000.00000" pt_clust_6="13000.00000" pt_clust_7="13000.00000" pt_clust_8="13000.00000" pt_clust_9="66.26541"></scales>
<clustering>
<clus scale="   66.265">  1  9  2 -1</clus>
<clus scale="   78.779">  7  8 -1 -1</clus>
<clus scale="   80.157">  5  6 -1 -1</clus>
<clus scale="  110.791">  1  7  2 -1</clus>
<clus scale="   66.265">  1  5  2 -1</clus>
</clustering>
</event>
<event>
 9    2  0.6175212E-005  0.8955193E+02  0.7546771E-02  0.1314003E+00
         21   -1    0    0  501  502  0.00000000000E+00  0.00000000000E+00  0.85651815909E+02  0.85651815909E+02  0.00000000000E+00 0.  1.
          4   -1    0    0  502    0 -0.00000000000E+00 -0.00000000000E+00 -0.23222265183E+03  0.23222265183E+03  0.00000000000E+00 0. -1.
         24    2    1    2    0    0 -0.96909057855E+01  0.89256019744E+01 -0.13748149456E+03  0.15680191070E+03  0.74243503589E+02 0.  0.
         23    2    1    2    0    0 -0.14219363156E+01  0.13346445081E+02 -0.57224764578E+02  0.10688253666E+03  0.89269555070E+02 0.  0.
        -11    1    3    3    0    0 -0.57342622252E+01  0.29584704552E+02 -0.17206825189E+02  0.34701748368E+02  0.00000000000E+00 0.  1.
         12    1    3    3    0    0 -0.39566435603E+01 -0.20659102578E+02 -0.12027466938E+03  0.12210016233E+03  0.00000000000E+00 0. -1.
        -13    1    4    4    0    0  0.33386648910E+02 -0.20717621984E+02 -0.13841521220E+02  0.41659043386E+02  0.00000000000E+00 0.  1.
         13    1    4    4    0    0 -0.34808585226E+02  0.34064067065E+02 -0.43383243358E+02  0.65223493273E+02  0.00000000000E+00 0. -1.
          3    1    1    2  501    0  0.11112842101E+02 -0.22272047056E+02  0.48135423225E+02  0.54190020378E+02  0.00000000000E+00 0. -1.
<scales pt_clust_5="13000.00000" pt_clust_6="13000.00000" pt_clust_7="13000.00000" pt_clust_8="13000.00000" pt_clust_9="24.89055"></scales>
<clustering>
<clus scale="   24.891">  1  9  2 -1</clus>
<clus scale="   74.244">  5  6 -1 -1</clus>
<clus scale="   74.583">  2  5  1 -1</clus>
<clus scale="   89.270">  7  8 -1 -1</clus>
<clus scale="   24.891">  1  5  2 -1</clus>
</clustering>
</event>
<event>
 9    2  0.6175212E-005  0.1134562E+03  0.7546771E-02  0.1257494E+00
          2   -1    0    0  502    0 -0.00000000000E+00  0.00000000000E+00  0.75267953608E+03  0.75267953608E+03  0.00000000000E+00 0. -1.
         21   -1    0    0  501  502  0.00000000000E+00 -0.00000000000E+00 -0.84443683592E+02  0.84443683592E+02  0.00000000000E+00 0. -1.
         24    2    1    2    0    0  0.43293337891E+02  0.56865319842E+02  0.68061406289E+03  0.68920418056E+03  0.81602219244E+02 0.  0.
         23    2    1    2    0    0 -0.21756119807E+02 -0.34212926629E+02  0.21886553547E+02  0.10153955302E+03  0.90484288716E+02 0.  0.
        -11    1    3    3    0    0  0.19871798499E+02  0.15508870011E+02  0.43169325828E+02  0.49990040179E+02  0.00000000000E+00 0.  1.
         12    1    3    3    0    0  0.23421539392E+02  0.41356449831E+02  0.63744473706E+03  0.63921414038E+03  0.00000000000E+00 0. -1.
        -13    1    4    4    0    0  0.14081927719E+02  0.24820563773E+02 -0.16342426090E+01  0.28583768527E+02  0.00000000000E+00 0.  1.
         13    1    4    4    0    0 -0.35838047526E+02 -0.59033490403E+02  0.23520796156E+02  0.72955784496E+02  0.00000000000E+00 0. -1.
          1    1    1    2  501    0 -0.21537218085E+02 -0.22652393213E+02 -0.34264763953E+02  0.46379486089E+02  0.00000000000E+00 0. -1.
<scales pt_clust_5="13000.00000" pt_clust_6="13000.00000" pt_clust_7="13000.00000" pt_clust_8="13000.00000" pt_clust_9="31.25672"></scales>
<clustering>
<clus scale="   31.257">  2  9  1 -1</clus>
<clus scale="   81.602">  5  6 -1 -1</clus>
<clus scale="   90.484">  7  8 -1 -1</clus>
<clus scale="  106.507">  1  5  2 -1</clus>
<clus scale="   31.257">  2  5  1 -1</clus>
</clustering>
</event>
<event>
 9    2  0.6175212E-005  0.1512344E+03  0.7546771E-02  0.1221933E+00
          2   -1    0    0  502    0 -0.00000000000E+00  0.00000000000E+00  0.39834963660E+02  0.39834963660E+02  0.00000000000E+00 0. -1.
         21   -1    0    0  501  502  0.00000000000E+00 -0.00000000000E+00 -0.10309946296E+04  0.10309946296E+04  0.00000000000E+00 0. -1.
         23    2    1    2    0    0 -0.37671726347E+01  0.82398100147E+01 -0.18068445507E+03  0.20304810126E+03  0.92193129132E+02 0.  0.
         24    2    1    2    0    0  0.77268217320E+01 -0.14167738994E+03 -0.28065403982E+03  0.32140091050E+03  0.66329997791E+02 0.  0.
        -11    1    4    4    0    0 -0.17067418746E+02 -0.58438467077E+02 -0.17101924779E+03  0.18153218538E+03  0.00000000000E+00 0.  1.
         12    1    4    4    0    0  0.24794240478E+02 -0.83238922868E+02 -0.10963479203E+03  0.13986872511E+03  0.00000000000E+00 0. -1.
        -13    1    3    3    0    0 -0.41514918331E+02  0.47238310893E+01 -0.41876432947E+02  0.59156053456E+02  0.00000000000E+00 0. -1.
         13    1    3    3    0    0  0.37747745696E+02  0.35159789254E+01 -0.13880802213E+03  0.14389204780E+03  0.00000000000E+00 0.  1.
          1    1    1    2  501    0 -0.39596490974E+01  0.13343757993E+03 -0.52982117105E+03  0.54638058151E+03  0.00000000000E+00 0. -1.
<scales pt_clust_5="13000.00000" pt_clust_6="13000.00000" pt_clust_7="13000.00000" pt_clust_8="13000.00000" pt_clust_9="135.91237"></scales>
<clustering>
<clus scale="   66.330">  5  6 -1 -1</clus>
<clus scale="   92.193">  7  8 -1 -1</clus>
<clus scale="   92.637">  1  7  2 -1</clus>
<clus scale="  135.912">  2  9  1 -1</clus>
<clus scale="  135.912">  2  5  1 -1</clus>
</clustering>
</event>
<event>
 9    2  0.6175212E-005  0.1038155E+03  0.7546771E-02  0.1278540E+00
         21   -1    0    0  501  502  0.00000000000E+00  0.00000000000E+00  0.15958990378E+03  0.15958990378E+03  0.00000000000E+00 0.  1.
         -1   -1    0    0    0  501 -0.00000000000E+00 -0.00000000000E+00 -0.12040042796E+03  0.12040042796E+03  0.00000000000E+00 0.  1.
         23    2    1    2    0    0  0.28116300172E+01  0.60812282028E+02  0.10272002211E+02  0.11209115792E+03  0.93556799571E+02 0.  0.
         24    2    1    2    0    0 -0.21673056584E+02 -0.19272711433E+02  0.66708264003E+02  0.10865870474E+03  0.80719036424E+02 0.  0.
        -11    1    4    4    0    0  0.42512004507E+01 -0.46328787761E+02  0.47740431368E+02  0.66660168525E+02  0.00000000000E+00 0.  1.
         12    1    4    4    0    0 -0.25924257035E+02  0.27056076328E+02  0.18967832635E+02  0.41998536212E+02  0.00000000000E+00 0. -1.
        -11    1    3    3    0    0  0.26657479494E+02  0.73013061294E+02 -0.10178541981E+02  0.78390886265E+02  0.00000000000E+00 0.  1.
         11    1    3    3    0    0 -0.23845849477E+02 -0.12200779266E+02  0.20450544192E+02  0.33700271657E+02  0.00000000000E+00 0. -1.
         -2    1    1    2    0  502  0.18861426567E+02 -0.41539570595E+02 -0.37790790397E+02  0.59240469075E+02  0.00000000000E+00 0.  1.
<scales pt_clust_5="13000.00000" pt_clust_6="13000.00000" pt_clust_7="13000.00000" pt_clust_8="13000.00000" pt_clust_9="45.62117"></scales>
<clustering>
<clus scale="   45.621">  1  9  2 -1</clus>
<clus scale="   80.719">  5  6 -1 -1</clus>
<clus scale="   92.414">  1  5  2 -1</clus>
<clus scale="   93.557">  7  8 -1 -1</clus>
<clus scale="   45.621">  1  5  2 -1</clus>
</clustering>
</event>
<event>
 9    2  0.6175212E-005  0.8178638E+02  0.7546771E-02  0.1324902E+00
          2   -1    0    0  502    0 -0.00000000000E+00  0.00000000000E+00  0.15951898213E+03  0.15951898213E+03  0.00000000000E+00 0. -1.
         21   -1    0    0  501  502  0.00000000000E+00 -0.00000000000E+00 -0.15499172104E+03  0.15499172104E+03  0.00000000000E+00 0. -1.
         23    2    1    2    0    0  0.10987045250E+02 -0.34226860226E+01  0.94583523262E+02  0.12548401535E+03  0.81656385495E+02 0.  0.
         24    2    1    2    0    0  0.95984100473E+01 -0.80827535539E+01  0.13760098301E+02  0.82565554946E+02  0.80437989643E+02 0.  0.
        -11    1    4    4    0    0  0.24653427949E+02  0.27173903889E+02 -0.92696119100E+01  0.37843602724E+02  0.00000000000E+00 0.  1.
         12    1    4    4    0    0 -0.15055017902E+02 -0.35256657443E+02  0.23029710211E+02  0.44721952221E+02  0.00000000000E+00 0. -1.
        -13    1    3    3    0    0 -0.25233018224E+02 -0.26252682945E+01  0.83990528076E+02  0.87738281547E+02  0.00000000000E+00 0.  1.
         13    1    3    3    0    0  0.36220063474E+02 -0.79741772807E+00  0.10592995186E+02  0.37745733800E+02  0.00000000000E+00 0. -1.
          1    1    1    2  501    0 -0.20585455297E+02  0.11505439577E+02 -0.10381636048E+03  0.10646113288E+03  0.00000000000E+00 0. -1.
<scales pt_clust_5="13000.00000" pt_clust_6="13000.00000" pt_clust_7="13000.00000" pt_clust_8="13000.00000" pt_clust_9="23.58254"></scales>
<clustering>
<clus scale="   23.583">  2  9  1 -1</clus>
<clus scale="   80.438">  5  6 -1 -1</clus>
<clus scale="   80.570">  2  5  1 -1</clus>
<clus scale="   81.656">  7  8 -1 -1</clus>
<clus scale="   23.583">  2  5  1 -1</clus>
</clustering>
</event>
<event>
 9    2  0.6175212E-005  0.1357442E+03  0.7546771E-02  0.1243791E+00
         21   -1    0    0  501  502  0.00000000000E+00  0.00000000000E+00  0.24990936843E+03  0.24990936843E+03  0.00000000000E+00 0.  1.
         -1   -1    0    0    0  501 -0.00000000000E+00 -0.00000000000E+00 -0.12596251393E+03  0.12596251393E+03  0.00000000000E+00 0.  1.
         24    2    1    2    0    0  0.13360302676E+02 -0.42714069103E+01  0.88718262958E+02  0.12063860526E+03  0.80535708185E+02 0.  0.
         23    2    1    2    0    0 -0.57162219493E+02  0.88837530526E+02 -0.23242741327E+02  0.14347937807E+03  0.94268132147E+02 0.  0.
        -13    1    3    3    0    0 -0.15230500030E+02  0.32046569763E+02  0.40514455980E+02  0.53855101040E+02  0.00000000000E+00 0.  1.
         14    1    3    3    0    0  0.28590802705E+02 -0.36317976674E+02  0.48203806979E+02  0.66783504223E+02  0.00000000000E+00 0. -1.
        -13    1    4    4    0    0  0.65021210197E+01  0.73280798082E+02 -0.25610970433E+02  0.77899131907E+02  0.00000000000E+00 0. -1.
         13    1    4    4    0    0 -0.63664340512E+02  0.15556732444E+02  0.23682291053E+01  0.65580246159E+02  0.00000000000E+00 0.  1.
         -2    1    1    2    0  502  0.43801916817E+02 -0.84566123616E+02  0.58471332873E+02  0.11175389903E+03  0.00000000000E+00 0.  1.
<scales pt_clust_5="13000.00000" pt_clust_6="13000.00000" pt_clust_7="13000.00000" pt_clust_8="13000.00000" pt_clust_9="97.67294"></scales>
<clustering>
<clus scale="   80.536">  5  6 -1 -1</clus>
<clus scale="   81.748">  2  5  1 -1</clus>
<clus scale="   94.268">  7  8 -1 -1</clus>
<clus scale="   97.673">  1  9  2 -1</clus>
<clus scale="   97.673">  1  5  2 -1</clus>
</clustering>
</event>
<event>
 9    2  0.6175212E-005  0.1453030E+03  0.7546771E-02  0.1212211E+00
         21   -1    0    0  501  502  0.00000000000E+00  0.00000000000E+00  0.82134104085E+02  0.82134104085E+02  0.00000000000E+00 0.  1.
          2   -1    0    0  502    0 -0.00000000000E+00 -0.00000000000E+00 -0.82497700821E+03  0.82497700821E+03  0.00000000000E+00 0. -1.
         24    2    1    2    0    0 -0.51312373282E+02  0.85487617409E+02 -0.47530071201E+03  0.49229572664E+03  0.80642564750E+02 0.  0.
         23    2    1    2    0    0 -0.98456904353E+02 -0.45984672316E+02 -0.51821989951E+02  0.14924708028E+03  0.88208957755E+02 0.  0.
        -13    1    3    3    0    0 -0.26843433314E+02 -0.96794475425E+01 -0.14072556319E+03  0.14358950433E+03  0.00000000000E+00 0.  1.
         14    1    3    3    0    0 -0.24468939969E+02  0.95167064951E+02 -0.33457514881E+03  0.34870622231E+03  0.00000000000E+00 0. -1.
        -11    1    4    4    0    0 -0.10155754938E+02  0.24322203319E+02 -0.15968616567E+02  0.30817294620E+02  0.00000000000E+00 0. -1.
         11    1    4    4    0    0 -0.88301149415E+02 -0.70306875634E+02 -0.35853373384E+02  0.11842978566E+03  0.00000000000E+00 0.  1.
          1    1    1    2  501    0  0.14976927764E+03 -0.39502945093E+02 -0.21572020217E+03  0.26556830537E+03  0.00000000000E+00 0. -1.
<scales pt_clust_5="13000.00000" pt_clust_6="13000.00000" pt_clust_7="13000.00000" pt_clust_8="13000.00000" pt_clust_9="115.46494"></scales>
<clustering>
<clus scale="   80.643">  5  6 -1 -1</clus>
<clus scale="   88.209">  7  8 -1 -1</clus>
<clus scale="  128.235">  2  5  1 -1</clus>
<clus scale="  115.465">  1  9  2 -1</clus>
<clus scale="  115.465">  1  5  2 -1</clus>
</clustering>
</event>
<event>
 9    2  0.6175212E-005  0.9482476E+02  0.7546771E-02  0.1300504E+00
         21   -1    0    0  501  502  0.00000000000E+00  0.00000000000E+00  0.15309170116E+03  0.15309170116E+03  0.00000000000E+00 0.  1.
         -3   -1    0    0    0  501 -0.00000000000E+00 -0.00000000000E+00 -0.23654340239E+03  0.23654340239E+03  0.00000000000E+00 0.  1.
         24    2    1    2    0    0 -0.12038935179E+02 -0.26417976032E+02 -0.19770877651E+03  0.21380304333E+03  0.76027203090E+02 0.  0.
         23    2    1    2    0    0 -0.81506446665E+01 -0.98830132557E+01  0.80161517645E+02  0.12209298684E+03  0.91196061127E+02 0.  0.
        -11    1    3    3    0    0 -0.15992983902E+00 -0.51561556522E+02 -0.14958638680E+03  0.15822359750E+03  0.00000000000E+00 0.  1.
         12    1    3    3    0    0 -0.11879005340E+02  0.25143580490E+02 -0.48122389711E+02  0.55579445834E+02  0.00000000000E+00 0. -1.
        -11    1    4    4    0    0 -0.34276193460E+02  0.25770394318E+02  0.59392251153E+02  0.73255785836E+02  0.00000000000E+00 0.  1.
         11    1    4    4    0    0  0.26125548794E+02 -0.35653407574E+02  0.20769266492E+02  0.48837201005E+02  0.00000000000E+00 0. -1.
         -4    1    1    2    0  502  0.20189579846E+02  0.36300989288E+02  0.34095557634E+02  0.53739073382E+02  0.00000000000E+00 0.  1.
<scales pt_clust_5="13000.00000" pt_clust_6="13000.00000" pt_clust_7="13000.00000" pt_clust_8="13000.00000" pt_clust_9="41.53771"></scales>
<clustering>
<clus scale="   41.538">  1  9  2 -1</clus>
<clus scale="   76.027">  5  6 -1 -1</clus>
<clus scale="   80.344">  2  5  1 -1</clus>
<clus scale="   91.196">  7  8 -1 -1</clus>
<clus scale="   41.538">  1  5  2 -1</clus>
</clustering>
</event>
<event>
 9    2  0.6175212E-005  0.1012797E+03  0.7546771E-02  0.1281732E+00
         21   -1    0    0  501  502  0.00000000000E+00  0.00000000000E+00  0.38306370032E+02  0.38306370032E+02  0.00000000000E+00 0. -1.
         -1   -1    0    0    0  501 -0.00000000000E+00 -0.00000000000E+00 -0.68800303189E+03  0.68800303189E+03  0.00000000000E+00 0.  1.
         23    2    1    2    0    0  0.33697873185E+02 -0.50892278864E+02 -0.17190728721E+03  0.20328933726E+03  0.89715486647E+02 0.  0.
         24    2    1    2    0    0 -0.59590678714E+02 -0.39124456372E+02 -0.16441317516E+03  0.19594500843E+03  0.79252647188E+02 0.  0.
        -11    1    4    4    0    0 -0.23989024425E+02  0.53480946883E+01 -0.12321287562E+03  0.12564031251E+03  0.00000000000E+00 0.  1.
         12    1    4    4    0    0 -0.35601654289E+02 -0.44472551061E+02 -0.41200299543E+02  0.70304695920E+02  0.00000000000E+00 0. -1.
        -13    1    3    3    0    0  0.35766324178E+02  0.10251411879E+02 -0.26922588055E+02  0.45925451966E+02  0.00000000000E+00 0.  1.
         13    1    3    3    0    0 -0.20684509930E+01 -0.61143690743E+02 -0.14498469915E+03  0.15736388530E+03  0.00000000000E+00 0. -1.
         -2    1    1    2    0  502  0.25892805529E+02  0.90016735237E+02 -0.31337619949E+03  0.32707505623E+03  0.00000000000E+00 0.  1.
<scales pt_clust_5="13000.00000" pt_clust_6="13000.00000" pt_clust_7="13000.00000" pt_clust_8="13000.00000" pt_clust_9="93.66674"></scales>
<clustering>
<clus scale="   79.253">  5  6 -1 -1</clus>
<clus scale="   89.715">  7  8 -1 -1</clus>
<clus scale="   93.667">  1  9  2 -1</clus>
<clus scale="   93.667">  1  5  2 -1</clus>
<clus scale="   93.667">  1  5  2 -1</clus>
</clustering>
</event>
<event>
 9    2  0.6175212E-005  0.1191584E+03  0.7546771E-02  0.1249233E+00
         21   -1    0    0  501  502  0.00000000000E+00  0.00000000000E+00  0.10933061266E+03  0.10933061266E+03  0.00000000000E+00 0. -1.
          2   -1    0    0  502    0 -0.00000000000E+00 -0.00000000000E+00 -0.18865521191E+03  0.18865521191E+03  0.00000000000E+00 0. -1.
         24    2    1    2    0    0  0.80891172695E+02  0.32700788532E+02 -0.93315930681E+02  0.14975506439E+03  0.78140853594E+02 0.  0.
         23    2    1    2    0    0 -0.42692592460E+02 -0.19226222577E+02  0.24078631858E+02  0.10648810706E+03  0.92561500350E+02 0.  0.
        -11    1    3    3    0    0  0.43250052812E+02 -0.19388472772E+02 -0.62618353202E+02  0.78533674958E+02  0.00000000000E+00 0.  1.
         12    1    3    3    0    0  0.37641119883E+02  0.52089261305E+02 -0.30697577479E+02  0.71221389431E+02  0.00000000000E+00 0. -1.
        -13    1    4    4    0    0 -0.40442882417E+02 -0.54257692432E+02  0.22625872365E+02  0.71354425417E+02  0.00000000000E+00 0. -1.
         13    1    4    4    0    0 -0.22497100431E+01  0.35031469856E+02  0.14527594928E+01  0.35133681641E+02  0.00000000000E+00 0.  1.
          1    1    1    2  501    0 -0.38198580236E+02 -0.13474565956E+02 -0.10087300432E+02  0.41742653123E+02  0.00000000000E+00 0. -1.
<scales pt_clust_5="13000.00000" pt_clust_6="13000.00000" pt_clust_7="13000.00000" pt_clust_8="13000.00000" pt_clust_9="40.50550"></scales>
<clustering>
<clus scale="   40.505">  1  9  2 -1</clus>
<clus scale="   78.141">  5  6 -1 -1</clus>
<clus scale="   92.562">  7  8 -1 -1</clus>
<clus scale="  108.338">  2  5  1 -1</clus>
<clus scale="   40.505">  1  5  2 -1</clus>
</clustering>
</event>
<event>
 9    2  0.6175212E-005  0.1398829E+03  0.7546771E-02  0.1215769E+00
         21   -1    0    0  501  502  0.00000000000E+00  0.00000000000E+00  0.88823850766E+02  0.88823850766E+02  0.00000000000E+00 0. -1.
          2   -1    0    0  502    0 -0.00000000000E+00 -0.00000000000E+00 -0.19338751895E+04  0.19338751895E+04  0.00000000000E+00 0. -1.
         24    2    1    2    0    0  0.83374703651E+02 -0.68236432392E+02 -0.18469402915E+04  0.18518295575E+04  0.80478058746E+02 0.  0.
         23    2    1    2    0    0 -0.69944826009E+02  0.36515999417E+02 -0.29789343374E+02  0.12407138518E+03  0.90997839215E+02 0.  0.
        -13    1    3    3    0    0  0.10361426950E+02 -0.32278174282E+02 -0.19794008802E+03  0.20082210573E+03  0.00000000000E+00 0.  1.
         14    1    3    3    0    0  0.73013276701E+02 -0.35958258110E+02 -0.16490002035E+04  0.16510074518E+04  0.00000000000E+00 0. -1.
        -13    1    4    4    0    0 -0.49440869402E+01  0.39313802020E+02 -0.42146208958E+02  0.57847402314E+02  0.00000000000E+00 0.  1.
         13    1    4    4    0    0 -0.65000739069E+02 -0.27978026033E+01  0.12356865584E+02  0.66223982861E+02  0.00000000000E+00 0. -1.
          1    1    1    2  501    0 -0.13429877642E+02  0.31720432975E+02  0.31678296174E+02  0.46798097505E+02  0.00000000000E+00 0. -1.
<scales pt_clust_5="13000.00000" pt_clust_6="13000.00000" pt_clust_7="13000.00000" pt_clust_8="13000.00000" pt_clust_9="34.44630"></scales>
<clustering>
<clus scale="   34.446">  1  9  2 -1</clus>
<clus scale="   80.478">  5  6 -1 -1</clus>
<clus scale="   90.998">  7  8 -1 -1</clus>
<clus scale="  133.279">  2  5  1 -1</clus>
<clus scale="   34.446">  1  5  2 -1</clus>
</clustering>
</event>
<event>
 9    2  0.6175212E-005  0.9404179E+02  0.7546771E-02  0.1296593E+00
         21   -1    0    0  501  502  0.00000000000E+00  0.00000000000E+00  0.19127487608E+03  0.19127487608E+03  0.00000000000E+00 0.  1.
         -3   -1    0    0    0  501 -0.00000000000E+00 -0.00000000000E+00 -0.17259263086E+03  0.17259263086E+03  0.00000000000E+00 0.  1.
         23    2    1    2    0    0 -0.37470264672E+00  0.97500048700E+01 -0.80295313468E+02  0.12200219065E+03  0.91334517912E+02 0.  0.
         24    2    1    2    0    0  0.48700948880E+02 -0.21912100419E+02 -0.28587008166E+02  0.10491254574E+03  0.85659223968E+02 0.  0.
        -13    1    4    4    0    0  0.36691973051E+02 -0.39645927964E+02 -0.50730629224E+02  0.74105986479E+02  0.00000000000E+00 0.  1.
         14    1    4    4    0    0  0.12008975829E+02  0.17733827545E+02  0.22143621058E+02  0.30806559260E+02  0.00000000000E+00 0. -1.
        -11    1    3    3    0    0  0.41500578829E+02  0.85564226896E+01 -0.16062541973E+02  0.45315733107E+02  0.00000000000E+00 0. -1.
         11    1    3    3    0    0 -0.41875281476E+02  0.11935821804E+01 -0.64232771495E+02  0.76686457546E+02  0.00000000000E+00 0.  1.
         -4    1    1    2    0  502 -0.48326246233E+02  0.12162095549E+02  0.12756456686E+03  0.13695277055E+03  0.00000000000E+00 0.  1.
<scales pt_clust_5="13000.00000" pt_clust_6="13000.00000" pt_clust_7="13000.00000" pt_clust_8="13000.00000" pt_clust_9="49.83315"></scales>
<clustering>
<clus scale="   49.833">  1  9  2 -1</clus>
<clus scale="   85.659">  5  6 -1 -1</clus>
<clus scale="   88.540">  1  5  2 -1</clus>
<clus scale="   91.335">  7  8 -1 -1</clus>
<clus scale="   49.833">  1  5  2 -1</clus>
</clustering>
</event>
<event>
 9    2  0.6175212E-005  0.2788158E+03  0.7546771E-02  0.1126722E+00
         21   -1    0    0  501  502  0.00000000000E+00  0.00000000000E+00  0.80464156580E+03  0.80464156580E+03  0.00000000000E+00 0. -1.
          2   -1    0    0  502    0 -0.00000000000E+00 -0.00000000000E+00 -0.50671593786E+03  0.50671593786E+03  0.00000000000E+00 0. -1.
         24    2    1    2    0    0  0.99594440863E+02  0.19409980306E+02 -0.30643167069E+03  0.33241867302E+03  0.79410360658E+02 0.  0.
         23    2    1    2    0    0 -0.17335184942E+03  0.23187739833E+03 -0.17758303859E+02  0.30394747897E+03  0.90833479851E+02 0.  0.
        -13    1    3    3    0    0  0.71632652471E+02 -0.24480917124E+02 -0.15974179652E+03  0.17677102070E+03  0.00000000000E+00 0.  1.
         14    1    3    3    0    0  0.27961788393E+02  0.43890897430E+02 -0.14668987417E+03  0.15564765231E+03  0.00000000000E+00 0. -1.
        -11    1    4    4    0    0 -0.73642953743E+02  0.14390616039E+03 -0.45875184882E+02  0.16803809158E+03  0.00000000000E+00 0. -1.
         11    1    4    4    0    0 -0.99708895678E+02  0.87971237943E+02  0.28116881023E+02  0.13590938739E+03  0.00000000000E+00 0.  1.
          1    1    1    2  501    0  0.73757408558E+02 -0.25128737864E+03  0.62211560249E+03  0.67499135167E+03  0.00000000000E+00 0. -1.
<scales pt_clust_5="13000.00000" pt_clust_6="13000.00000" pt_clust_7="13000.00000" pt_clust_8="13000.00000" pt_clust_9="263.60485"></scales>
<clustering>
<clus scale="   79.410">  5  6 -1 -1</clus>
<clus scale="   90.833">  7  8 -1 -1</clus>
<clus scale="  128.848">  2  5  1 -1</clus>
<clus scale="  263.605">  1  9  2 -1</clus>
<clus scale="  263.605">  1  5  2 -1</clus>
</clustering>
</event>
<event>
 9    2  0.6175212E-005  0.2422629E+03  0.7546771E-02  0.1118294E+00
          2   -1    0    0  502    0 -0.00000000000E+00  0.00000000000E+00  0.74161525280E+03  0.74161525280E+03  0.00000000000E+00 0. -1.
         21   -1    0    0  501  502  0.00000000000E+00 -0.00000000000E+00 -0.64115900362E+02  0.64115900362E+02  0.00000000000E+00 0.  1.
         24    2    1    2    0    0  0.85045386169E+02 -0.62797318594E+02  0.14990759915E+03  0.20072149965E+03  0.81489945440E+02 0.  0.
         23    2    1    2    0    0  0.51428665325E+02 -0.25844210198E+02  0.99262715049E+02  0.14680854880E+03  0.91579651584E+02 0.  0.
        -13    1    3    3    0    0  0.87616115958E+02 -0.78454712985E+02  0.13156086926E+03  0.17646526028E+03  0.00000000000E+00 0.  1.
         14    1    3    3    0    0 -0.25707297887E+01  0.15657394391E+02  0.18346729884E+02  0.24256239366E+02  0.00000000000E+00 0. -1.
        -11    1    4    4    0    0  0.71569521516E+02 -0.92922320214E+01  0.96630010731E+02  0.12060638855E+03  0.00000000000E+00 0. -1.
         11    1    4    4    0    0 -0.20140856190E+02 -0.16551978176E+02  0.26327043179E+01  0.26202160248E+02  0.00000000000E+00 0.  1.
          1    1    1    2  501    0 -0.13647405149E+03  0.88641528792E+02  0.42832903824E+03  0.45820110471E+03  0.00000000000E+00 0. -1.
<scales pt_clust_5="13000.00000" pt_clust_6="13000.00000" pt_clust_7="13000.00000" pt_clust_8="13000.00000" pt_clust_9="162.73449"></scales>
<clustering>
<clus scale="   81.490">  5  6 -1 -1</clus>
<clus scale="   91.580">  7  8 -1 -1</clus>
<clus scale="   94.831">  5  7 -1 -1</clus>
<clus scale="  162.734">  2  9  1 -1</clus>
<clus scale="  162.734">  2  5  1 -1</clus>
</clustering>
</event>
<event>
 9    2  0.6175212E-005  0.1113577E+03  0.7546771E-02  0.1263578E+00
         21   -1    0    0  501  502  0.00000000000E+00  0.00000000000E+00  0.10771276658E+03  0.10771276658E+03  0.00000000000E+00 0.  1.
         -1   -1    0    0    0  501 -0.00000000000E+00 -0.00000000000E+00 -0.16346281900E+03  0.16346281900E+03  0.00000000000E+00 0.  1.
         24    2    1    2    0    0 -0.30181235101E+02  0.65898508402E+02 -0.50254283504E+02  0.11670974146E+03  0.76433960904E+02 0.  0.
         23    2    1    2    0    0  0.44670377443E+02 -0.37224171227E+02 -0.32343901966E+02  0.11259729856E+03  0.90834696592E+02 0.  0.
        -11    1    3    3    0    0 -0.81314456031E+01  0.77537711957E+02 -0.26694818152E+02  0.82406495492E+02  0.00000000000E+00 0.  1.
         12    1    3    3    0    0 -0.22049789498E+02 -0.11639203555E+02 -0.23559465352E+02  0.34303245968E+02  0.00000000000E+00 0. -1.
        -11    1    4    4    0    0  0.35296563623E+02 -0.91799470842E+01  0.27613324726E+02  0.45745103940E+02  0.00000000000E+00 0.  1.
         11    1    4    4    0    0  0.93738138201E+01 -0.28044224143E+02 -0.59957226692E+02  0.66852194623E+02  0.00000000000E+00 0. -1.
         -2    1    1    2    0  502 -0.14489142343E+02 -0.28674337175E+02  0.26848133051E+02  0.41868545552E+02  0.00000000000E+00 0.  1.
<scales pt_clust_5="13000.00000" pt_clust_6="13000.00000" pt_clust_7="13000.00000" pt_clust_8="13000.00000" pt_clust_9="32.12714"></scales>
<clustering>
<clus scale="   32.127">  1  9  2 -1</clus>
<clus scale="   76.434">  5  6 -1 -1</clus>
<clus scale="   90.835">  7  8 -1 -1</clus>
<clus scale="   99.959">  2  5  1 -1</clus>
<clus scale="   32.127">  1  5  2 -1</clus>
</clustering>
</event>
<event>
 9    2  0.6175212E-005  0.2129456E+03  0.7546771E-02  0.1159737E+00
         21   -1    0    0  501  502  0.00000000000E+00  0.00000000000E+00  0.77354932915E+03  0.77354932915E+03  0.00000000000E+00 0. -1.
          2   -1    0    0  502    0 -0.00000000000E+00 -0.00000000000E+00 -0.12477942895E+03  0.12477942895E+03  0.00000000000E+00 0. -1.
         23    2    1    2    0    0  0.79989520352E+02  0.54217014074E+02  0.12498818187E+03  0.18106563637E+03  0.88458527497E+02 0.  0.
         24    2    1    2    0    0 -0.19613904496E+03  0.10275028138E+03  0.11023283476E+03  0.25993159755E+03  0.79906271731E+02 0.  0.
        -11    1    4    4    0    0 -0.28541469390E+02 -0.13341278932E+02  0.13713470126E+02  0.34360798322E+02  0.00000000000E+00 0.  1.
         12    1    4    4    0    0 -0.16759757557E+03  0.11609156031E+03  0.96519364638E+02  0.22557079922E+03  0.00000000000E+00 0. -1.
        -11    1    3    3    0    0  0.37298196158E+02  0.40790908453E+02  0.12460213827E+03  0.13631121198E+03  0.00000000000E+00 0.  1.
         11    1    3    3    0    0  0.42691324195E+02  0.13426105621E+02  0.38604360259E+00  0.44754424399E+02  0.00000000000E+00 0. -1.
          1    1    1    2  501    0  0.11614952461E+03 -0.15696729545E+03  0.41354888357E+03  0.45733152418E+03  0.00000000000E+00 0. -1.
<scales pt_clust_5="13000.00000" pt_clust_6="13000.00000" pt_clust_7="13000.00000" pt_clust_8="13000.00000" pt_clust_9="197.38494"></scales>
<clustering>
<clus scale="   79.906">  5  6 -1 -1</clus>
<clus scale="   88.459">  7  8 -1 -1</clus>
<clus scale="  131.007">  2  7  1 -1</clus>
<clus scale="  197.385">  1  9  2 -1</clus>
<clus scale="  197.385">  1  5  2 -1</clus>
</clustering>
</event>
<event>
 9    2  0.6175212E-005  0.1668579E+03  0.7546771E-02  0.1206116E+00
          2   -1    0    0  502    0 -0.00000000000E+00  0.00000000000E+00  0.45186673364E+03  0.45186673364E+03  0.00000000000E+00 0. -1.
         21   -1    0    0  501  502  0.00000000000E+00 -0.00000000000E+00 -0.15061993669E+03  0.15061993669E+03  0.00000000000E+00 0. -1.
         23    2    1    2    0    0  0.23011888461E+02  0.16367884602E+02  0.14299946972E+01  0.96481461268E+02  0.92245177797E+02 0.  0.
         24    2    1    2    0    0 -0.21650663115E+02 -0.16076453689E+03  0.31276193423E+03  0.36102306338E+03  0.78763171908E+02 0.  0.
        -13    1    4    4    0    0  0.28914959210E+02 -0.40516397941E+02  0.91920719473E+02  0.10453263623E+03  0.00000000000E+00 0.  1.
         14    1    4    4    0    0 -0.50565622325E+02 -0.12024813895E+03  0.22084121476E+03  0.25649042715E+03  0.00000000000E+00 0. -1.
        -11    1    3    3    0    0 -0.17872942856E+02  0.41021078435E+02  0.14405076944E+02  0.47007203747E+02  0.00000000000E+00 0.  1.
         11    1    3    3    0    0  0.40884831317E+02 -0.24653193834E+02 -0.12975082246E+02  0.49474257521E+02  0.00000000000E+00 0. -1.
          1    1    1    2  501    0 -0.13612253458E+01  0.14439665229E+03 -0.12945131983E+02  0.14498214569E+03  0.00000000000E+00 0. -1.
<scales pt_clust_5="13000.00000" pt_clust_6="13000.00000" pt_clust_7="13000.00000" pt_clust_8="13000.00000" pt_clust_9="147.09833"></scales>
<clustering>
<clus scale="   78.763">  5  6 -1 -1</clus>
<clus scale="   92.245">  7  8 -1 -1</clus>
<clus scale="   96.471">  1  7  2 -1</clus>
<clus scale="  147.098">  2  9  1 -1</clus>
<clus scale="  147.098">  2  5  1 -1</clus>
</clustering>
</event>
<event>
 9    2  0.6175212E-005  0.1022369E+03  0.7546771E-02  0.1287170E+00
         21   -1    0    0  501  502  0.00000000000E+00  0.00000000000E+00  0.90170045456E+02  0.90170045456E+02  0.00000000000E+00 0. -1.
          4   -1    0    0  502    0 -0.00000000000E+00 -0.00000000000E+00 -0.15777824079E+03  0.15777824079E+03  0.00000000000E+00 0. -1.
         24    2    1    2    0    0 -0.92950901168E+00 -0.18291370940E+02 -0.54603511562E+02  0.99742821176E+02  0.81434935153E+02 0.  0.
         23    2    1    2    0    0 -0.36936027262E+01 -0.94134233759E+01  0.20807754075E+02  0.10424855727E+03  0.10164912111E+03 0.  0.
        -11    1    3    3    0    0  0.13427443060E+02 -0.47902298002E+02 -0.39555573575E+02  0.63557609944E+02  0.00000000000E+00 0.  1.
         12    1    3    3    0    0 -0.14356952072E+02  0.29610927061E+02 -0.15047937987E+02  0.36185211232E+02  0.00000000000E+00 0. -1.
        -11    1    4    4    0    0  0.22172692633E+02 -0.23749405453E+02 -0.30799026006E+02  0.44768767695E+02  0.00000000000E+00 0.  1.
         11    1    4    4    0    0 -0.25866295359E+02  0.14335982077E+02  0.51606780081E+02  0.59479789576E+02  0.00000000000E+00 0. -1.
          3    1    1    2  501    0  0.46231117379E+01  0.27704794316E+02 -0.33812437849E+02  0.43956907802E+02  0.00000000000E+00 0. -1.
<scales pt_clust_5="13000.00000" pt_clust_6="13000.00000" pt_clust_7="13000.00000" pt_clust_8="13000.00000" pt_clust_9="28.08789"></scales>
<clustering>
<clus scale="   28.088">  1  9  2 -1</clus>
<clus scale="   81.435">  5  6 -1 -1</clus>
<clus scale="   82.167">  2  5  1 -1</clus>
<clus scale="  101.649">  7  8 -1 -1</clus>
<clus scale="   28.088">  1  5  2 -1</clus>
</clustering>
</event>
<event>
 9    2  0.6175212E-005  0.2175834E+03  0.7546771E-02  0.1135698E+00
         -3   -1    0    0    0  501 -0.00000000000E+00  0.00000000000E+00  0.11128505653E+04  0.11128505653E+04  0.00000000000E+00 0.  1.
         21   -1    0    0  501  502  0.00000000000E+00 -0.00000000000E+00 -0.34608478159E+02  0.34608478159E+02  0.00000000000E+00 0.  1.
         24    2    1    2    0    0  0.84779058985E+02  0.42311603824E+02  0.55851234654E+03  0.57210174578E+03  0.79916241253E+02 0.  0.
         23    2    1    2    0    0  0.16483949634E+02  0.16843940896E+02  0.38751525054E+03  0.39862516488E+03  0.90435135525E+02 0.  0.
        -13    1    3    3    0    0  0.95292197383E+02  0.21337780763E+02  0.39380092158E+03  0.40572782700E+03  0.00000000000E+00 0.  1.
         14    1    3    3    0    0 -0.10513138398E+02  0.20973823061E+02  0.16471142497E+03  0.16637391877E+03  0.00000000000E+00 0. -1.
        -13    1    4    4    0    0 -0.22052010014E+02 -0.25988102817E+02  0.18310473102E+03  0.18624987290E+03  0.00000000000E+00 0.  1.
         13    1    4    4    0    0  0.38535959648E+02  0.42832043713E+02  0.20441051952E+03  0.21237529198E+03  0.00000000000E+00 0. -1.
         -4    1    1    2    0  502 -0.10126300862E+03 -0.59155544721E+02  0.13221449009E+03  0.17673213283E+03  0.00000000000E+00 0.  1.
<scales pt_clust_5="13000.00000" pt_clust_6="13000.00000" pt_clust_7="13000.00000" pt_clust_8="13000.00000" pt_clust_9="117.27564"></scales>
<clustering>
<clus scale="   79.916">  5  6 -1 -1</clus>
<clus scale="   90.435">  7  8 -1 -1</clus>
<clus scale="   92.076">  5  7 -1 -1</clus>
<clus scale="  117.276">  2  9  1 -1</clus>
<clus scale="  117.276">  2  5  1 -1</clus>
</clustering>
</event>
<event>
 9    2  0.6175212E-005  0.1420296E+03  0.7546771E-02  0.1212810E+00
         21   -1    0    0  501  502  0.00000000000E+00  0.00000000000E+00  0.27363201994E+02  0.27363201994E+02  0.00000000000E+00 0.  1.
          2   -1    0    0  502    0 -0.00000000000E+00 -0.00000000000E+00 -0.10624402638E+04  0.10624402638E+04  0.00000000000E+00 0. -1.
         24    2    1    2    0    0 -0.10218504575E+03 -0.60479294635E+02 -0.68551364615E+03  0.70033768398E+03  0.80276920031E+02 0.  0.
         23    2    1    2    0    0  0.82173194098E+02  0.30481853631E+02 -0.20707170149E+03  0.24248207769E+03  0.90759524082E+02 0.  0.
        -11    1    3    3    0    0 -0.26298667660E+02 -0.61392251187E+02 -0.28779884527E+03  0.29544678669E+03  0.00000000000E+00 0.  1.
         12    1    3    3    0    0 -0.75886378093E+02  0.91295655169E+00 -0.39771480088E+03  0.40489089729E+03  0.00000000000E+00 0. -1.
        -11    1    4    4    0    0  0.61027012155E+02  0.51155806650E+02 -0.83351782080E+02  0.11527676410E+03  0.00000000000E+00 0.  1.
         11    1    4    4    0    0  0.21146181943E+02 -0.20673953019E+02 -0.12371991941E+03  0.12720531358E+03  0.00000000000E+00 0. -1.
          1    1    1    2  501    0  0.20011851656E+02  0.29997441004E+02 -0.14249171417E+03  0.14698370413E+03  0.00000000000E+00 0. -1.
<scales pt_clust_5="13000.00000" pt_clust_6="13000.00000" pt_clust_7="13000.00000" pt_clust_8="13000.00000" pt_clust_9="36.05998"></scales>
<clustering>
<clus scale="   36.060">  1  9  2 -1</clus>
<clus scale="   80.277">  5  6 -1 -1</clus>
<clus scale="   90.760">  7  8 -1 -1</clus>
<clus scale="  135.571">  2  5  1 -1</clus>
<clus scale="   36.060">  1  5  2 -1</clus>
</clustering>
</event>
<event>
 9    2  0.6175212E-005  0.1659809E+03  0.7546771E-02  0.1199112E+00
         21   -1    0    0  501  502  0.00000000000E+00  0.00000000000E+00  0.48927821039E+02  0.48927821039E+02  0.00000000000E+00 0. -1.
          2   -1    0    0  502    0 -0.00000000000E+00 -0.00000000000E+00 -0.17646087472E+04  0.17646087472E+04  0.00000000000E+00 0. -1.
         23    2    1    2    0    0  0.47283281346E+02 -0.17298792026E+02 -0.63394526750E+02  0.13047140663E+03  0.10231796042E+03 0.  0.
         24    2    1    2    0    0  0.68234786520E+02 -0.10567472820E+03 -0.71332945423E+03  0.72906984947E+03  0.82950592937E+02 0.  0.
        -11    1    4    4    0    0 -0.19392478955E+02 -0.19642067250E+02 -0.14879104200E+03  0.15132961780E+03  0.00000000000E+00 0.  1.
         12    1    4    4    0    0  0.87627265475E+02 -0.86032660952E+02 -0.56453841223E+03  0.57774023167E+03  0.00000000000E+00 0. -1.
        -13    1    3    3    0    0 -0.20417771170E+02 -0.24888955607E+02 -0.52350734953E+02  0.61456854304E+02  0.00000000000E+00 0.  1.
         13    1    3    3    0    0  0.67701052516E+02  0.75901635806E+01 -0.11043791797E+02  0.69014552322E+02  0.00000000000E+00 0. -1.
          1    1    1    2  501    0 -0.11551806787E+03  0.12297352023E+03 -0.93895694521E+03  0.95399531217E+03  0.00000000000E+00 0. -1.
<scales pt_clust_5="13000.00000" pt_clust_6="13000.00000" pt_clust_7="13000.00000" pt_clust_8="13000.00000" pt_clust_9="143.76676"></scales>
<clustering>
<clus scale="   82.951">  5  6 -1 -1</clus>
<clus scale="  102.318">  7  8 -1 -1</clus>
<clus scale="  114.035">  2  7  1 -1</clus>
<clus scale="  143.767">  1  9  2 -1</clus>
<clus scale="  143.767">  1  5  2 -1</clus>
</clustering>
</event>
<event>
 9    2  0.6175212E-005  0.8942671E+02  0.7546771E-02  0.1308663E+00
         21   -1    0    0  501  502  0.00000000000E+00  0.00000000000E+00  0.27338830180E+03  0.27338830180E+03  0.00000000000E+00 0. -1.
          4   -1    0    0  502    0 -0.00000000000E+00 -0.00000000000E+00 -0.10229022571E+03  0.10229022571E+03  0.00000000000E+00 0. -1.
         24    2    1    2    0    0 -0.81344334992E+01  0.30558654890E+01 -0.69401870693E+02  0.10794658520E+03  0.82221276311E+02 0.  0.
         23    2    1    2    0    0 -0.11918763737E+02 -0.39804830894E+01  0.14934938083E+03  0.17439700078E+03  0.89169362193E+02 0.  0.
        -11    1    3    3    0    0  0.18540230140E+02  0.33573751380E+02 -0.17671519641E+02  0.42228183975E+02  0.00000000000E+00 0.  1.
         12    1    3    3    0    0 -0.26674663640E+02 -0.30517885891E+02 -0.51730351052E+02  0.65718401224E+02  0.00000000000E+00 0. -1.
        -13    1    4    4    0    0  0.31931949116E+02 -0.24972670304E+02  0.80266306073E+02  0.89921985783E+02  0.00000000000E+00 0.  1.
         13    1    4    4    0    0 -0.43850712853E+02  0.20992187215E+02  0.69083074752E+02  0.84475014998E+02  0.00000000000E+00 0. -1.
          3    1    1    2  501    0  0.20053197236E+02  0.92461760034E+00  0.91150565950E+02  0.93334941528E+02  0.00000000000E+00 0. -1.
<scales pt_clust_5="13000.00000" pt_clust_6="13000.00000" pt_clust_7="13000.00000" pt_clust_8="13000.00000" pt_clust_9="20.07450"></scales>
<clustering>
<clus scale="   20.075">  1  9  2 -1</clus>
<clus scale="   82.221">  5  6 -1 -1</clus>
<clus scale="   82.500">  2  5  1 -1</clus>
<clus scale="   89.169">  7  8 -1 -1</clus>
<clus scale="   20.075">  1  5  2 -1</clus>
</clustering>
</event>
<event>
 9    2  0.6175212E-005  0.1061068E+03  0.7546771E-02  0.1272860E+00
          2   -1    0    0  502    0 -0.00000000000E+00  0.00000000000E+00  0.10012450500E+04  0.10012450500E+04  0.00000000000E+00 0. -1.
         21   -1    0    0  501  502  0.00000000000E+00 -0.00000000000E+00 -0.23743766344E+02  0.23743766344E+02  0.00000000000E+00 0. -1.
         24    2    1    2    0    0 -0.54947359277E+02 -0.38547540350E+02  0.46386507135E+03  0.47570392298E+03  0.81352890339E+02 0.  0.
         23    2    1    2    0    0  0.46742787848E+02 -0.39700188665E+02  0.35918402576E+03  0.37594851512E+03  0.92537173443E+02 0.  0.
        -13    1    3    3    0    0 -0.17849649166E+02  0.16582326543E+02  0.41336943711E+02  0.47982563961E+02  0.00000000000E+00 0.  1.
         14    1    3    3    0    0 -0.37097710111E+02 -0.55129866893E+02  0.42252812764E+03  0.42772135902E+03  0.00000000000E+00 0. -1.
        -13    1    4    4    0    0  0.45751488314E+02  0.10510028101E+02  0.26583619505E+03  0.26994914701E+03  0.00000000000E+00 0.  1.
         13    1    4    4    0    0  0.99129953395E+00 -0.50210216766E+02  0.93347830710E+02  0.10599936811E+03  0.00000000000E+00 0. -1.
          1    1    1    2  501    0  0.82045714294E+01  0.78247729015E+02  0.15445218651E+03  0.17333637819E+03  0.00000000000E+00 0. -1.
<scales pt_clust_5="13000.00000" pt_clust_6="13000.00000" pt_clust_7="13000.00000" pt_clust_8="13000.00000" pt_clust_9="78.67669"></scales>
<clustering>
<clus scale="   78.677">  2  9  1 -1</clus>
<clus scale="   81.353">  5  6 -1 -1</clus>
<clus scale="   92.537">  7  8 -1 -1</clus>
<clus scale="   96.508">  1  5  2 -1</clus>
<clus scale="   78.677">  2  5  1 -1</clus>
</clustering>
</event>
<event>
 9    2  0.6175212E-005  0.1329079E+03  0.7546771E-02  0.1236841E+00
         21   -1    0    0  501  502  0.00000000000E+00  0.00000000000E+00  0.13310621879E+03  0.13310621879E+03  0.00000000000E+00 0. -1.
          2   -1    0    0  502    0 -0.00000000000E+00 -0.00000000000E+00 -0.49542027343E+03  0.49542027343E+03  0.00000000000E+00 0. -1.
         24    2    1    2    0    0  0.32496564692E+02 -0.50853182556E+02 -0.37814526743E+03  0.39121818071E+03  0.80098369194E+02 0.  0.
         23    2    1    2    0    0  0.72896734055E+02  0.48857251332E+02 -0.11497406235E+02  0.12841118308E+03  0.93039114071E+02 0.  0.
        -11    1    3    3    0    0 -0.25372985140E+02 -0.37481573250E+01 -0.93126942464E+02  0.96594329394E+02  0.00000000000E+00 0.  1.
         12    1    3    3    0    0  0.57869549832E+02 -0.47105025231E+02 -0.28501832496E+03  0.29462385131E+03  0.00000000000E+00 0. -1.
        -11    1    4    4    0    0  0.55402183698E+02  0.88856509982E+01  0.33810600615E+02  0.65509644070E+02  0.00000000000E+00 0. -1.
         11    1    4    4    0    0  0.17494550356E+02  0.39971600334E+02 -0.45308006851E+02  0.62901539013E+02  0.00000000000E+00 0.  1.
          1    1    1    2  501    0 -0.10539329875E+03  0.19959312242E+01  0.27328619015E+02  0.10889712843E+03  0.00000000000E+00 0. -1.
<scales pt_clust_5="13000.00000" pt_clust_6="13000.00000" pt_clust_7="13000.00000" pt_clust_8="13000.00000" pt_clust_9="94.91169"></scales>
<clustering>
<clus scale="   80.098">  5  6 -1 -1</clus>
<clus scale="   93.039">  7  8 -1 -1</clus>
<clus scale="  100.289">  2  5  1 -1</clus>
<clus scale="   94.912">  1  9  2 -1</clus>
<clus scale="   94.912">  1  5  2 -1</clus>
</clustering>
</event>
<event>
 9    2  0.6175212E-005  0.1065095E+03  0.7546771E-02  0.1268125E+00
          2   -1    0    0  502    0 -0.00000000000E+00  0.00000000000E+00  0.72769611773E+03  0.72769611773E+03  0.00000000000E+00 0. -1.
         21   -1    0    0  501  502  0.00000000000E+00 -0.00000000000E+00 -0.55337368963E+02  0.55337368963E+02  0.00000000000E+00 0.  1.
         23    2    1    2    0    0  0.32987228043E+02  0.29258770714E+02  0.29112816309E+03  0.30793198639E+03  0.90123626327E+02 0.  0.
         24    2    1    2    0    0 -0.11486716355E+03 -0.44861358939E+02  0.99155784363E+02  0.18096894832E+03  0.87811638729E+02 0.  0.
        -11    1    4    4    0    0 -0.51197080306E+02  0.23991467390E+02  0.27071461003E+02  0.62686486105E+02  0.00000000000E+00 0.  1.
         12    1    4    4    0    0 -0.63670083242E+02 -0.68852826329E+02  0.72084323360E+02  0.11828246222E+03  0.00000000000E+00 0. -1.
        -11    1    3    3    0    0  0.70501928078E+01 -0.20608924121E+02  0.15759142449E+02  0.26884633953E+02  0.00000000000E+00 0.  1.
         11    1    3    3    0    0  0.25937035235E+02  0.49867694835E+02  0.27536902064E+03  0.28104735244E+03  0.00000000000E+00 0. -1.
          1    1    1    2  501    0  0.81879935505E+02  0.15602588225E+02  0.28207480132E+03  0.29413255198E+03  0.00000000000E+00 0. -1.
<scales pt_clust_5="13000.00000" pt_clust_6="13000.00000" pt_clust_7="13000.00000" pt_clust_8="13000.00000" pt_clust_9="83.35329"></scales>
<clustering>
<clus scale="   83.353">  2  9  1 -1</clus>
<clus scale="   87.812">  5  6 -1 -1</clus>
<clus scale="   90.124">  7  8 -1 -1</clus>
<clus scale="  104.560">  2  5  1 -1</clus>
<clus scale="   83.353">  2  5  1 -1</clus>
</clustering>
</event>
<event>
 9    2  0.6175212E-005  0.1069038E+03  0.7546771E-02  0.1271467E+00
         -1   -1    0    0    0  501 -0.00000000000E+00  0.00000000000E+00  0.12907017663E+03  0.12907017663E+03  0.00000000000E+00 0.  1.
         21   -1    0    0  501  502  0.00000000000E+00 -0.00000000000E+00 -0.10443836518E+03  0.10443836518E+03  0.00000000000E+00 0. -1.
         23    2    1    2    0    0  0.45077586260E+02 -0.25899342010E+02  0.36250350586E+02  0.11200897186E+03  0.92353436102E+02 0.  0.
         24    2    1    2    0    0 -0.57536185947E+02  0.97773423372E+01 -0.35253758350E+01  0.99576183535E+02  0.80603839463E+02 0.  0.
        -13    1    4    4    0    0 -0.25553287606E+02  0.38239630196E+02  0.20642949134E+02  0.50412014182E+02  0.00000000000E+00 0.  1.
         14    1    4    4    0    0 -0.31982898340E+02 -0.28462287858E+02 -0.24168324969E+02  0.49164169353E+02  0.00000000000E+00 0. -1.
        -11    1    3    3    0    0  0.28779686575E+02  0.29821061497E+02  0.34505585544E+02  0.53927743342E+02  0.00000000000E+00 0.  1.
         11    1    3    3    0    0  0.16297899685E+02 -0.55720403507E+02  0.17447650417E+01  0.58081228518E+02  0.00000000000E+00 0. -1.
         -2    1    1    2    0  502  0.12458599686E+02  0.16121999673E+02 -0.80931632995E+01  0.21923386412E+02  0.00000000000E+00 0.  1.
<scales pt_clust_5="13000.00000" pt_clust_6="13000.00000" pt_clust_7="13000.00000" pt_clust_8="13000.00000" pt_clust_9="20.37488"></scales>
<clustering>
<clus scale="   20.375">  2  9  1 -1</clus>
<clus scale="   80.604">  5  6 -1 -1</clus>
<clus scale="   92.353">  7  8 -1 -1</clus>
<clus scale="   96.934">  2  5  1 -1</clus>
<clus scale="   20.375">  2  5  1 -1</clus>
</clustering>
</event>
<event>
 9    2  0.6175212E-005  0.9686641E+02  0.7546771E-02  0.1300440E+00
         21   -1    0    0  501  502  0.00000000000E+00  0.00000000000E+00  0.37871001014E+02  0.37871001014E+02  0.00000000000E+00 0.  1.
         -1   -1    0    0    0  501 -0.00000000000E+00 -0.00000000000E+00 -0.36201885090E+03  0.36201885090E+03  0.00000000000E+00 0.  1.
         24    2    1    2    0    0  0.16029540692E+02  0.25488493868E+02 -0.15896245921E+03  0.17602000067E+03  0.69335183740E+02 0.  0.
         23    2    1    2    0    0  0.19117619563E+02 -0.39058080920E+02 -0.76255319051E+02  0.12728820596E+03  0.92175900479E+02 0.  0.
        -13    1    3    3    0    0  0.13286981846E+02  0.34511232116E+02 -0.32576873305E+02  0.49283077249E+02  0.00000000000E+00 0.  1.
         14    1    3    3    0    0  0.27425588460E+01 -0.90227382484E+01 -0.12638558590E+03  0.12673692342E+03  0.00000000000E+00 0. -1.
        -11    1    4    4    0    0 -0.23123784065E+02 -0.39758273535E+02 -0.75156149637E+01  0.46603799977E+02  0.00000000000E+00 0. -1.
         11    1    4    4    0    0  0.42241403629E+02  0.70019261502E+00 -0.68739704088E+02  0.80684405980E+02  0.00000000000E+00 0.  1.
         -2    1    1    2    0  502 -0.35147160256E+02  0.13569587052E+02 -0.88930071632E+02  0.96581645291E+02  0.00000000000E+00 0.  1.
<scales pt_clust_5="13000.00000" pt_clust_6="13000.00000" pt_clust_7="13000.00000" pt_clust_8="13000.00000" pt_clust_9="37.67569"></scales>
<clustering>
<clus scale="   37.676">  1  9  2 -1</clus>
<clus scale="   69.335">  5  6 -1 -1</clus>
<clus scale="   75.459">  2  5  1 -1</clus>
<clus scale="   92.176">  7  8 -1 -1</clus>
<clus scale="   37.676">  1  5  2 -1</clus>
</clustering>
</event>
<event>
 9    2  0.6175212E-005  0.9363230E+02  0.7546771E-02  0.1301318E+00
         21   -1    0    0  501  502  0.00000000000E+00  0.00000000000E+00  0.21934749132E+03  0.21934749132E+03  0.00000000000E+00 0.  1.
          2   -1    0    0  502    0 -0.00000000000E+00 -0.00000000000E+00 -0.48022718732E+02  0.48022718732E+02  0.00000000000E+00 0. -1.
         23    2    1    2    0    0  0.29047378928E+02 -0.22357114081E+02  0.72259326724E+02  0.12173137812E+03  0.90848925962E+02 0.  0.
         24    2    1    2    0    0 -0.66996382478E+01  0.69734977602E+01  0.73122961744E+02  0.10810098907E+03  0.79027472938E+02 0.  0.
        -11    1    4    4    0    0 -0.28875754945E+01 -0.30508417816E+02  0.61435781571E+02  0.68654620435E+02  0.00000000000E+00 0.  1.
         12    1    4    4    0    0 -0.38120627533E+01  0.37481915576E+02  0.11687180174E+02  0.39446368630E+02  0.00000000000E+00 0. -1.
        -13    1    3    3    0    0  0.46686754988E+02  0.85876818514E+01  0.78297163138E+01  0.48111389800E+02  0.00000000000E+00 0.  1.
         13    1    3    3    0    0 -0.17639376060E+02 -0.30944795933E+02  0.64429610411E+02  0.73619988324E+02  0.00000000000E+00 0. -1.
          1    1    1    2  501    0 -0.22347740680E+02  0.15383616321E+02  0.25942484124E+02  0.37537842868E+02  0.00000000000E+00 0. -1.
<scales pt_clust_5="13000.00000" pt_clust_6="13000.00000" pt_clust_7="13000.00000" pt_clust_8="13000.00000" pt_clust_9="27.13074"></scales>
<clustering>
<clus scale="   27.131">  1  9  2 -1</clus>
<clus scale="   79.027">  5  6 -1 -1</clus>
<clus scale="   82.212">  1  5  2 -1</clus>
<clus scale="   90.849">  7  8 -1 -1</clus>
<clus scale="   27.131">  1  5  2 -1</clus>
</clustering>
</event>
<event>
 9    2  0.6175212E-005  0.1461069E+03  0.7546771E-02  0.1207735E+00
         21   -1    0    0  501  502  0.00000000000E+00  0.00000000000E+00  0.50137493021E+02  0.50137493021E+02  0.00000000000E+00 0. -1.
          2   -1    0    0  502    0 -0.00000000000E+00 -0.00000000000E+00 -0.11389667514E+04  0.11389667514E+04  0.00000000000E+00 0. -1.
         24    2    1    2    0    0  0.41531108231E+02 -0.87646661591E+02 -0.32474294235E+03  0.34827199101E+03  0.80178743289E+02 0.  0.
         23    2    1    2    0    0  0.10405401245E+02  0.17277918987E+03 -0.25313945850E+03  0.32024447061E+03  0.92282255495E+02 0.  0.
        -11    1    3    3    0    0  0.36528817568E+02  0.20183042239E+00 -0.11961024167E+03  0.12506400426E+03  0.00000000000E+00 0.  1.
         12    1    3    3    0    0  0.50022906623E+01 -0.87848492013E+02 -0.20513270068E+03  0.22320798675E+03  0.00000000000E+00 0. -1.
        -11    1    4    4    0    0 -0.12933023687E+02  0.89383384127E+02 -0.59582339404E+02  0.10819753985E+03  0.00000000000E+00 0.  1.
         11    1    4    4    0    0  0.23338424932E+02  0.83395805739E+02 -0.19355711909E+03  0.21204693076E+03  0.00000000000E+00 0. -1.
          1    1    1    2  501    0 -0.51936509475E+02 -0.85132528276E+02 -0.51094685754E+03  0.52058778281E+03  0.00000000000E+00 0. -1.
<scales pt_clust_5="13000.00000" pt_clust_6="13000.00000" pt_clust_7="13000.00000" pt_clust_8="13000.00000" pt_clust_9="99.72441"></scales>
<clustering>
<clus scale="   80.179">  5  6 -1 -1</clus>
<clus scale="   92.282">  7  8 -1 -1</clus>
<clus scale="   99.724">  1  9  2 -1</clus>
<clus scale="  138.780">  2  5  1 -1</clus>
<clus scale="   99.724">  1  5  2 -1</clus>
</clustering>
</event>
<event>
 9    2  0.6175212E-005  0.1246806E+03  0.7546771E-02  0.1239397E+00
         21   -1    0    0  501  502  0.00000000000E+00  0.00000000000E+00  0.19873273054E+02  0.19873273054E+02  0.00000000000E+00 0.  1.
          2   -1    0    0  502    0 -0.00000000000E+00 -0.00000000000E+00 -0.93043740003E+03  0.93043740003E+03  0.00000000000E+00 0. -1.
         24    2    1    2    0    0 -0.88595818999E+02 -0.16474945236E+02 -0.57849489972E+03  0.59087430637E+03  0.79721101150E+02 0.  0.
         23    2    1    2    0    0  0.68588412966E+02  0.19059925221E+02 -0.29299181603E+03  0.31545884420E+03  0.92749269439E+02 0.  0.
        -11    1    3    3    0    0 -0.56880036551E+02 -0.33509601654E+02 -0.19876243921E+03  0.20943910619E+03  0.00000000000E+00 0.  1.
         12    1    3    3    0    0 -0.31715782448E+02  0.17034656418E+02 -0.37973246051E+03  0.38143520018E+03  0.00000000000E+00 0. -1.
        -13    1    4    4    0    0  0.30845809304E+02 -0.37726819569E+02 -0.12305420871E+03  0.13235223892E+03  0.00000000000E+00 0. -1.
         13    1    4    4    0    0  0.37742603662E+02  0.56786744791E+02 -0.16993760732E+03  0.18310660528E+03  0.00000000000E+00 0.  1.
          1    1    1    2  501    0  0.20007406033E+02 -0.25849799855E+01 -0.39077411228E+02  0.43977522508E+02  0.00000000000E+00 0. -1.
<scales pt_clust_5="13000.00000" pt_clust_6="13000.00000" pt_clust_7="13000.00000" pt_clust_8="13000.00000" pt_clust_9="20.17371"></scales>
<clustering>
<clus scale="   20.174">  1  9  2 -1</clus>
<clus scale="   79.721">  5  6 -1 -1</clus>
<clus scale="   92.749">  7  8 -1 -1</clus>
<clus scale="  115.318">  2  5  1 -1</clus>
<clus scale="   20.174">  1  5  2 -1</clus>
</clustering>
</event>
<event>
 9    2  0.6175212E-005  0.9536168E+02  0.7546771E-02  0.1297886E+00
         21   -1    0    0  501  502  0.00000000000E+00  0.00000000000E+00  0.10631660319E+03  0.10631660319E+03  0.00000000000E+00 0.  1.
          2   -1    0    0  502    0 -0.00000000000E+00 -0.00000000000E+00 -0.18340213393E+03  0.18340213393E+03  0.00000000000E+00 0. -1.
         23    2    1    2    0    0  0.98936745737E+01  0.10156308287E+02 -0.40430656839E+02  0.10194988000E+03  0.92510024458E+02 0.  0.
         24    2    1    2    0    0  0.37742556151E+02 -0.47501530071E+02  0.23089260856E+02  0.10272041383E+03  0.79608250491E+02 0.  0.
        -11    1    4    4    0    0  0.32502681069E+02 -0.37582089519E+02 -0.23382122236E+02  0.54914127231E+02  0.00000000000E+00 0.  1.
         12    1    4    4    0    0  0.52398750821E+01 -0.99194405520E+01  0.46471383092E+02  0.47806286597E+02  0.00000000000E+00 0. -1.
        -13    1    3    3    0    0  0.49357068608E+02 -0.82314346751E+01 -0.22515996302E+02  0.54871183948E+02  0.00000000000E+00 0. -1.
         13    1    3    3    0    0 -0.39463394034E+02  0.18387742962E+02 -0.17914660537E+02  0.47078696053E+02  0.00000000000E+00 0.  1.
          1    1    1    2  501    0 -0.47636230725E+02  0.37345221784E+02 -0.59744134755E+02  0.85048443286E+02  0.00000000000E+00 0. -1.
<scales pt_clust_5="13000.00000" pt_clust_6="13000.00000" pt_clust_7="13000.00000" pt_clust_8="13000.00000" pt_clust_9="60.52999"></scales>
<clustering>
<clus scale="   60.530">  1  9  2 -1</clus>
<clus scale="   79.608">  5  6 -1 -1</clus>
<clus scale="   82.905">  1  5  2 -1</clus>
<clus scale="   92.510">  7  8 -1 -1</clus>
<clus scale="   60.530">  1  5  2 -1</clus>
</clustering>
</event>
<event>
 9    2  0.6175212E-005  0.1411367E+03  0.7546771E-02  0.1213849E+00
         -1   -1    0    0    0  501 -0.00000000000E+00  0.00000000000E+00  0.37238444786E+03  0.37238444786E+03  0.00000000000E+00 0.  1.
         21   -1    0    0  501  502  0.00000000000E+00 -0.00000000000E+00 -0.12835036344E+03  0.12835036344E+03  0.00000000000E+00 0.  1.
         23    2    1    2    0    0 -0.91345467022E+01 -0.85384375433E+02  0.23664971541E+02  0.12651667218E+03  0.89847125435E+02 0.  0.
         24    2    1    2    0    0  0.49321191895E+02  0.13421064440E+03  0.21214156000E+02  0.16526439342E+03  0.80107442079E+02 0.  0.
        -13    1    4    4    0    0  0.69371097883E+02  0.11199869736E+03  0.64568365831E+01  0.13190052377E+03  0.00000000000E+00 0.  1.
         14    1    4    4    0    0 -0.20049905988E+02  0.22211947034E+02  0.14757319417E+02  0.33363869643E+02  0.00000000000E+00 0. -1.
        -13    1    3    3    0    0 -0.49379133560E+02 -0.40382391362E+02  0.93508705896E+01  0.64470730909E+02  0.00000000000E+00 0.  1.
         13    1    3    3    0    0  0.40244586857E+02 -0.45001984072E+02  0.14314100951E+02  0.62045941267E+02  0.00000000000E+00 0. -1.
         -2    1    1    2    0  502 -0.40186645193E+02 -0.48826268965E+02  0.19915495688E+03  0.20895374571E+03  0.00000000000E+00 0.  1.
<scales pt_clust_5="13000.00000" pt_clust_6="13000.00000" pt_clust_7="13000.00000" pt_clust_8="13000.00000" pt_clust_9="63.23745"></scales>
<clustering>
<clus scale="   63.237">  2  9  1 -1</clus>
<clus scale="   80.107">  5  6 -1 -1</clus>
<clus scale="   89.847">  7  8 -1 -1</clus>
<clus scale="  135.145">  2  5  1 -1</clus>
<clus scale="   63.237">  2  5  1 -1</clus>
</clustering>
</event>
<event>
 9    2  0.6175212E-005  0.1018598E+03  0.7546771E-02  0.1280737E+00
         21   -1    0    0  501  502  0.00000000000E+00  0.00000000000E+00  0.19477997713E+03  0.19477997713E+03  0.00000000000E+00 0.  1.
          2   -1    0    0  502    0 -0.00000000000E+00 -0.00000000000E+00 -0.14687583721E+03  0.14687583721E+03  0.00000000000E+00 0. -1.
         24    2    1    2    0    0 -0.37755034931E+02  0.11373704682E+02 -0.36198227574E+02  0.97494494040E+02  0.81486568634E+02 0.  0.
         23    2    1    2    0    0  0.67583067454E+02 -0.52899155400E+02  0.12652675171E+03  0.17772410966E+03  0.90614836562E+02 0.  0.
        -11    1    3    3    0    0  0.21340899228E+02  0.20281263145E+02 -0.43065536472E+01  0.29754159691E+02  0.00000000000E+00 0.  1.
         12    1    3    3    0    0 -0.59095934159E+02 -0.89075584627E+01 -0.31891673927E+02  0.67740334349E+02  0.00000000000E+00 0. -1.
        -11    1    4    4    0    0  0.57709006439E+02 -0.78452713995E+02  0.10007226504E+03  0.13964102544E+03  0.00000000000E+00 0. -1.
         11    1    4    4    0    0  0.98740610147E+01  0.25553558594E+02  0.26454486677E+02  0.38083084212E+02  0.00000000000E+00 0.  1.
          1    1    1    2  501    0 -0.29828032523E+02  0.41525450718E+02 -0.42424384223E+02  0.66437210645E+02  0.00000000000E+00 0. -1.
<scales pt_clust_5="13000.00000" pt_clust_6="13000.00000" pt_clust_7="13000.00000" pt_clust_8="13000.00000" pt_clust_9="51.12805"></scales>
<clustering>
<clus scale="   51.128">  1  9  2 -1</clus>
<clus scale="   81.487">  5  6 -1 -1</clus>
<clus scale="   90.615">  7  8 -1 -1</clus>
<clus scale="   93.832">  2  5  1 -1</clus>
<clus scale="   51.128">  1  5  2 -1</clus>
</clustering>
</event>
<event>
 9    2  0.6175212E-005  0.1003597E+03  0.7546771E-02  0.1279920E+00
          2   -1    0    0  502    0 -0.00000000000E+00  0.00000000000E+00  0.19558138570E+04  0.19558138570E+04  0.00000000000E+00 0. -1.
         21   -1    0    0  501  502  0.00000000000E+00 -0.00000000000E+00 -0.26268791176E+02  0.26268791176E+02  0.00000000000E+00 0. -1.
         24    2    1    2    0    0  0.36275694149E+02  0.18504990329E+01  0.17800303680E+04  0.17828476173E+04  0.93371115926E+02 0.  0.
         23    2    1    2    0    0 -0.10111434241E+02 -0.16121121778E+02  0.85357088831E+02  0.12849311991E+03  0.94140945298E+02 0.  0.
        -13    1    3    3    0    0  0.27225932242E+02 -0.17742241610E+02  0.19641038227E+03  0.19908057862E+03  0.00000000000E+00 0.  1.
         14    1    3    3    0    0  0.90497619066E+01  0.19592740643E+02  0.15836199857E+04  0.15837670387E+04  0.00000000000E+00 0. -1.
        -11    1    4    4    0    0  0.23091295451E+02  0.89239587447E+01 -0.82244834633E+01  0.26086147541E+02  0.00000000000E+00 0. -1.
         11    1    4    4    0    0 -0.33202729692E+02 -0.25045080523E+02  0.93581572294E+02  0.10240697237E+03  0.00000000000E+00 0.  1.
          1    1    1    2  501    0 -0.26164259907E+02  0.14270622745E+02  0.64157608960E+02  0.70741910898E+02  0.00000000000E+00 0. -1.
<scales pt_clust_5="13000.00000" pt_clust_6="13000.00000" pt_clust_7="13000.00000" pt_clust_8="13000.00000" pt_clust_9="29.80301"></scales>
<clustering>
<clus scale="   29.803">  2  9  1 -1</clus>
<clus scale="   93.371">  5  6 -1 -1</clus>
<clus scale="   94.141">  7  8 -1 -1</clus>
<clus scale="   99.638">  1  5  2 -1</clus>
<clus scale="   29.803">  2  5  1 -1</clus>
</clustering>
</event>
<event>
 9    2  0.6175212E-005  0.8798759E+02  0.7546771E-02  0.1311195E+00
         21   -1    0    0  501  502  0.00000000000E+00  0.00000000000E+00  0.12230916932E+03  0.12230916932E+03  0.00000000000E+00 0.  1.
          2   -1    0    0  502    0 -0.00000000000E+00 -0.00000000000E+00 -0.16978868880E+03  0.16978868880E+03  0.00000000000E+00 0. -1.
         23    2    1    2    0    0 -0.39146427752E+00  0.11752314298E+02 -0.11898684662E+03  0.14746804627E+03  0.86317349738E+02 0.  0.
         24    2    1    2    0    0  0.63363443707E+00 -0.43695039695E+02  0.41925003601E+02  0.10109235421E+03  0.80946279506E+02 0.  0.
        -13    1    4    4    0    0  0.99207969059E+01 -0.31719453962E+02  0.65278954063E+02  0.73252220543E+02  0.00000000000E+00 0.  1.
         14    1    4    4    0    0 -0.92871624689E+01 -0.11975585733E+02 -0.23353950461E+02  0.27840133666E+02  0.00000000000E+00 0. -1.
        -13    1    3    3    0    0 -0.11328321110E+02 -0.31582487869E+02 -0.84805856706E+02  0.91202070869E+02  0.00000000000E+00 0.  1.
         13    1    3    3    0    0  0.10936856832E+02  0.43334802167E+02 -0.34180989919E+02  0.56265975403E+02  0.00000000000E+00 0. -1.
          1    1    1    2  501    0 -0.24217015954E+00  0.31942725397E+02  0.29582323544E+02  0.43537457648E+02  0.00000000000E+00 0. -1.
<scales pt_clust_5="13000.00000" pt_clust_6="13000.00000" pt_clust_7="13000.00000" pt_clust_8="13000.00000" pt_clust_9="31.94364"></scales>
<clustering>
<clus scale="   31.944">  1  9  2 -1</clus>
<clus scale="   80.946">  5  6 -1 -1</clus>
<clus scale="   82.725">  1  5  2 -1</clus>
<clus scale="   86.317">  7  8 -1 -1</clus>
<clus scale="   31.944">  1  5  2 -1</clus>
</clustering>
</event>
<event>
 9    2  0.6175212E-005  0.1343074E+03  0.7546771E-02  0.1228534E+00
         21   -1    0    0  501  502  0.00000000000E+00  0.00000000000E+00  0.68335684042E+02  0.68335684042E+02  0.00000000000E+00 0.  1.
          4   -1    0    0  502    0 -0.00000000000E+00 -0.00000000000E+00 -0.37910084796E+03  0.37910084796E+03  0.00000000000E+00 0. -1.
         23    2    1    2    0    0  0.68425720193E+02 -0.82638477831E+01 -0.14782142289E+03  0.19241686595E+03  0.10209165916E+03 0.  0.
         24    2    1    2    0    0 -0.10498592941E+03  0.32804366284E+01 -0.17376405376E+03  0.21656758610E+03  0.75331044944E+02 0.  0.
        -13    1    4    4    0    0 -0.62822189194E+02 -0.28883227315E+02 -0.62041756280E+02  0.92898050558E+02  0.00000000000E+00 0.  1.
         14    1    4    4    0    0 -0.42163740214E+02  0.32163663943E+02 -0.11172229748E+03  0.12366953554E+03  0.00000000000E+00 0. -1.
        -11    1    3    3    0    0  0.80971580561E+02  0.17373571206E+02 -0.66429959789E+02  0.10616580143E+03  0.00000000000E+00 0. -1.
         11    1    3    3    0    0 -0.12545860368E+02 -0.25637418989E+02 -0.81391463105E+02  0.86251064521E+02  0.00000000000E+00 0.  1.
          3    1    1    2  501    0  0.36560209216E+02  0.49834111546E+01  0.10820312740E+02  0.38452079949E+02  0.00000000000E+00 0. -1.
<scales pt_clust_5="13000.00000" pt_clust_6="13000.00000" pt_clust_7="13000.00000" pt_clust_8="13000.00000" pt_clust_9="36.89828"></scales>
<clustering>
<clus scale="   36.898">  1  9  2 -1</clus>
<clus scale="   75.331">  5  6 -1 -1</clus>
<clus scale="  102.092">  7  8 -1 -1</clus>
<clus scale="  115.285">  1  5  2 -1</clus>
<clus scale="   36.898">  1  5  2 -1</clus>
</clustering>
</event>
<event>
 9    2  0.6175212E-005  0.1000534E+03  0.7546771E-02  0.1284913E+00
         21   -1    0    0  501  502  0.00000000000E+00  0.00000000000E+00  0.70567180530E+02  0.70567180530E+02  0.00000000000E+00 0.  1.
          2   -1    0    0  502    0 -0.00000000000E+00 -0.00000000000E+00 -0.18961364793E+03  0.18961364793E+03  0.00000000000E+00 0. -1.
         24    2    1    2    0    0 -0.37249188434E+02  0.20538398241E+02 -0.79785119589E+02  0.12095358887E+03  0.80341630004E+02 0.  0.
         23    2    1    2    0    0  0.51361405607E+02  0.54638114252E+01 -0.33939468285E+02  0.10916743283E+03  0.89987741727E+02 0.  0.
        -13    1    3    3    0    0  0.59427538280E+01 -0.25477369230E+02 -0.13537441415E+02  0.29456323362E+02  0.00000000000E+00 0.  1.
         14    1    3    3    0    0 -0.43191942262E+02  0.46015767471E+02 -0.66247678173E+02  0.91497265509E+02  0.00000000000E+00 0. -1.
        -13    1    4    4    0    0  0.37775130248E+00  0.20721266785E+02 -0.49548238620E+02  0.53707928125E+02  0.00000000000E+00 0. -1.
         13    1    4    4    0    0  0.50983654305E+02 -0.15257455359E+02  0.15608770334E+02  0.55459504701E+02  0.00000000000E+00 0.  1.
          1    1    1    2  501    0 -0.14112217173E+02 -0.26002209666E+02 -0.53218795295E+01  0.30059806766E+02  0.00000000000E+00 0. -1.
<scales pt_clust_5="13000.00000" pt_clust_6="13000.00000" pt_clust_7="13000.00000" pt_clust_8="13000.00000" pt_clust_9="29.58496"></scales>
<clustering>
<clus scale="   29.585">  1  9  2 -1</clus>
<clus scale="   80.342">  5  6 -1 -1</clus>
<clus scale="   89.988">  7  8 -1 -1</clus>
<clus scale="   91.475">  2  5  1 -1</clus>
<clus scale="   29.585">  1  5  2 -1</clus>
</clustering>
</event>
<event>
 9    2  0.6175212E-005  0.1160284E+03  0.7546771E-02  0.1270646E+00
          2   -1    0    0  502    0 -0.00000000000E+00  0.00000000000E+00  0.21232036400E+03  0.21232036400E+03  0.00000000000E+00 0. -1.
         21   -1    0    0  501  502  0.00000000000E+00 -0.00000000000E+00 -0.27697316297E+03  0.27697316297E+03  0.00000000000E+00 0.  1.
         24    2    1    2    0    0  0.28207334759E+02  0.61898634024E+01  0.16815334126E+03  0.18523282497E+03  0.72122708822E+02 0.  0.
         23    2    1    2    0    0 -0.10139114553E+02  0.20626565331E+02 -0.63105547933E+02  0.13130691057E+03  0.11283145723E+03 0.  0.
        -11    1    3    3    0    0 -0.76257275221E+01 -0.24726688654E+02  0.32390089688E+02  0.41456950708E+02  0.00000000000E+00 0.  1.
         12    1    3    3    0    0  0.35833062281E+02  0.30916552056E+02  0.13576325157E+03  0.14377587426E+03  0.00000000000E+00 0. -1.
        -13    1    4    4    0    0 -0.60546232949E+02  0.21605264065E+02 -0.41071720398E+02  0.76285778334E+02  0.00000000000E+00 0.  1.
         13    1    4    4    0    0  0.50407118395E+02 -0.97869873366E+00 -0.22033827536E+02  0.55021132231E+02  0.00000000000E+00 0. -1.
          1    1    1    2  501    0 -0.18068220206E+02 -0.26816428734E+02 -0.16970059229E+03  0.17275379143E+03  0.00000000000E+00 0. -1.
<scales pt_clust_5="13000.00000" pt_clust_6="13000.00000" pt_clust_7="13000.00000" pt_clust_8="13000.00000" pt_clust_9="32.33545"></scales>
<clustering>
<clus scale="   32.335">  2  9  1 -1</clus>
<clus scale="   72.123">  5  6 -1 -1</clus>
<clus scale="   77.028">  1  5  2 -1</clus>
<clus scale="  112.831">  7  8 -1 -1</clus>
<clus scale="   32.335">  2  5  1 -1</clus>
</clustering>
</event>
<event>
 9    2  0.6175212E-005  0.1518581E+03  0.7546771E-02  0.1200382E+00
          2   -1    0    0  502    0 -0.00000000000E+00  0.00000000000E+00  0.79989815438E+03  0.79989815438E+03  0.00000000000E+00 0. -1.
         21   -1    0    0  501  502  0.00000000000E+00 -0.00000000000E+00 -0.33728760062E+02  0.33728760062E+02  0.00000000000E+00 0. -1.
         23    2    1    2    0    0 -0.11052878567E+03  0.56324173080E+02  0.35608272820E+03  0.38851888049E+03  0.93610823307E+02 0.  0.
         24    2    1    2    0    0  0.10990883300E+03 -0.36084528858E+02  0.28356166395E+03  0.31697293450E+03  0.81747043648E+02 0.  0.
        -13    1    4    4    0    0  0.37008144780E+02  0.10159455230E+02  0.28801687094E+02  0.47982856210E+02  0.00000000000E+00 0.  1.
         14    1    4    4    0    0  0.72900688223E+02 -0.46243984089E+02  0.25475997686E+03  0.26899007829E+03  0.00000000000E+00 0. -1.
        -11    1    3    3    0    0 -0.11477455703E+03  0.28948831741E+02  0.22180605845E+03  0.25141432211E+03  0.00000000000E+00 0. -1.
         11    1    3    3    0    0  0.42457713568E+01  0.27375341338E+02  0.13427666975E+03  0.13710455838E+03  0.00000000000E+00 0.  1.
          1    1    1    2  501    0  0.61995266737E+00 -0.20239644221E+02  0.12652500216E+03  0.12813509945E+03  0.00000000000E+00 0. -1.
<scales pt_clust_5="13000.00000" pt_clust_6="13000.00000" pt_clust_7="13000.00000" pt_clust_8="13000.00000" pt_clust_9="20.24915"></scales>
<clustering>
<clus scale="   20.249">  2  9  1 -1</clus>
<clus scale="   81.747">  5  6 -1 -1</clus>
<clus scale="   93.611">  7  8 -1 -1</clus>
<clus scale="  144.846">  2  5  1 -1</clus>
<clus scale="   20.249">  2  5  1 -1</clus>
</clustering>
</event>
<event>
 9    2  0.6175212E-005  0.9302945E+02  0.7546771E-02  0.1302986E+00
          2   -1    0    0  502    0 -0.00000000000E+00  0.00000000000E+00  0.60903858126E+03  0.60903858126E+03  0.00000000000E+00 0. -1.
         21   -1    0    0  501  502  0.00000000000E+00 -0.00000000000E+00 -0.30390130024E+02  0.30390130024E+02  0.00000000000E+00 0. -1.
         24    2    1    2    0    0 -0.38541611728E+02  0.96339293666E+01  0.35418788733E+03  0.36492138002E+03  0.78359974719E+02 0.  0.
         23    2    1    2    0    0 -0.23531686886E+02  0.24244762493E+01  0.15060918125E+03  0.17728322794E+03  0.90479826801E+02 0.  0.
        -11    1    3    3    0    0  0.96055584587E+01  0.27538755838E+02  0.65516612488E+02  0.71715244811E+02  0.00000000000E+00 0.  1.
         12    1    3    3    0    0 -0.48147170187E+02 -0.17904826471E+02  0.28867127484E+03  0.29320613521E+03  0.00000000000E+00 0. -1.
        -13    1    4    4    0    0  0.31475082739E+02 -0.71250674068E+01  0.86214259560E+02  0.92056210928E+02  0.00000000000E+00 0.  1.
         13    1    4    4    0    0 -0.55006769625E+02  0.95495436561E+01  0.64394921690E+02  0.85227017008E+02  0.00000000000E+00 0. -1.
          1    1    1    2  501    0  0.62073298614E+02 -0.12058405616E+02  0.73851382659E+02  0.97224103326E+02  0.00000000000E+00 0. -1.
<scales pt_clust_5="13000.00000" pt_clust_6="13000.00000" pt_clust_7="13000.00000" pt_clust_8="13000.00000" pt_clust_9="63.23369"></scales>
<clustering>
<clus scale="   63.234">  2  9  1 -1</clus>
<clus scale="   78.360">  5  6 -1 -1</clus>
<clus scale="   81.291">  1  5  2 -1</clus>
<clus scale="   90.480">  7  8 -1 -1</clus>
<clus scale="   63.234">  2  5  1 -1</clus>
</clustering>
</event>
<event>
 9    2  0.6175212E-005  0.1089103E+03  0.7546771E-02  0.1264323E+00
         21   -1    0    0  501  502  0.00000000000E+00  0.00000000000E+00  0.99009160305E+02  0.99009160305E+02  0.00000000000E+00 0. -1.
          2   -1    0    0  502    0 -0.00000000000E+00 -0.00000000000E+00 -0.40630347496E+03  0.40630347496E+03  0.00000000000E+00 0. -1.
         24    2    1    2    0    0 -0.58570924091E+02 -0.24911769900E+02 -0.34731536106E+03  0.36370168969E+03  0.87176886994E+02 0.  0.
         23    2    1    2    0    0  0.28487742224E+02  0.14794916183E+01  0.17808155461E+02  0.97480660953E+02  0.91496494503E+02 0.  0.
        -13    1    3    3    0    0 -0.21068664022E+02 -0.22663568813E+01 -0.97853248633E+01  0.23340470429E+02  0.00000000000E+00 0.  1.
         14    1    3    3    0    0 -0.37502260069E+02 -0.22645413019E+02 -0.33753003619E+03  0.34036121926E+03  0.00000000000E+00 0. -1.
        -13    1    4    4    0    0  0.52499707711E+02  0.97226434711E+01 -0.15503382740E+02  0.55597697634E+02  0.00000000000E+00 0.  1.
         13    1    4    4    0    0 -0.24011965488E+02 -0.82431518528E+01  0.33311538201E+02  0.41882963319E+02  0.00000000000E+00 0. -1.
          1    1    1    2  501    0  0.30083181868E+02  0.23432278282E+02  0.22212890945E+02  0.44130284623E+02  0.00000000000E+00 0. -1.
<scales pt_clust_5="13000.00000" pt_clust_6="13000.00000" pt_clust_7="13000.00000" pt_clust_8="13000.00000" pt_clust_9="38.13226"></scales>
<clustering>
<clus scale="   38.132">  1  9  2 -1</clus>
<clus scale="   87.177">  5  6 -1 -1</clus>
<clus scale="   91.496">  7  8 -1 -1</clus>
<clus scale="  105.307">  2  5  1 -1</clus>
<clus scale="   38.132">  1  5  2 -1</clus>
</clustering>
</event>
<event>
 9    2  0.6175212E-005  0.1183987E+03  0.7546771E-02  0.1251718E+00
         21   -1    0    0  501  502  0.00000000000E+00  0.00000000000E+00  0.28492328306E+03  0.28492328306E+03  0.00000000000E+00 0. -1.
          4   -1    0    0  502    0 -0.00000000000E+00 -0.00000000000E+00 -0.95723382867E+02  0.95723382867E+02  0.00000000000E+00 0. -1.
         23    2    1    2    0    0 -0.15691045354E+02 -0.44617857686E+02  0.13570810236E+02  0.10596467462E+03  0.93847659786E+02 0.  0.
         24    2    1    2    0    0  0.29021354544E+02 -0.60093413555E+02  0.84216637797E+02  0.13504537764E+03  0.81800700284E+02 0.  0.
        -13    1    4    4    0    0 -0.23200475642E+02 -0.29077692940E+00  0.33794657753E+02  0.40992993473E+02  0.00000000000E+00 0.  1.
         14    1    4    4    0    0  0.52221830186E+02 -0.59802636626E+02  0.50421980045E+02  0.94052384165E+02  0.00000000000E+00 0. -1.
        -11    1    3    3    0    0 -0.45423595525E+02 -0.40343381491E+02 -0.17019908771E+02  0.63091748709E+02  0.00000000000E+00 0. -1.
         11    1    3    3    0    0  0.29732550171E+02 -0.42744761945E+01  0.30590719007E+02  0.42872925907E+02  0.00000000000E+00 0.  1.
          3    1    1    2  501    0 -0.13330309191E+02  0.10471127124E+03  0.91412452157E+02  0.13963661367E+03  0.00000000000E+00 0. -1.
<scales pt_clust_5="13000.00000" pt_clust_6="13000.00000" pt_clust_7="13000.00000" pt_clust_8="13000.00000" pt_clust_9="85.59728"></scales>
<clustering>
<clus scale="   81.801">  5  6 -1 -1</clus>
<clus scale="   93.848">  7  8 -1 -1</clus>
<clus scale="  105.092">  2  7  1 -1</clus>
<clus scale="   85.597">  1  9  2 -1</clus>
<clus scale="   85.597">  1  5  2 -1</clus>
</clustering>
</event>
<event>
 9    2  0.6175212E-005  0.1220036E+03  0.7546771E-02  0.1242442E+00
          2   -1    0    0  502    0 -0.00000000000E+00  0.00000000000E+00  0.25501450749E+03  0.25501450749E+03  0.00000000000E+00 0. -1.
         21   -1    0    0  501  502  0.00000000000E+00 -0.00000000000E+00 -0.23874941280E+03  0.23874941280E+03  0.00000000000E+00 0. -1.
         24    2    1    2    0    0  0.19345704090E+02 -0.86467938070E+02  0.19979338194E+03  0.23391054053E+03  0.83341375814E+02 0.  0.
         23    2    1    2    0    0  0.15393014673E+02  0.44411654171E+02 -0.48130304415E+02  0.11388035708E+03  0.91885089095E+02 0.  0.
        -11    1    3    3    0    0 -0.31158038519E+02 -0.34906702743E+02  0.55643633340E+02  0.72701548759E+02  0.00000000000E+00 0.  1.
         12    1    3    3    0    0  0.50503742609E+02 -0.51561235327E+02  0.14414974860E+03  0.16120899177E+03  0.00000000000E+00 0. -1.
        -13    1    4    4    0    0  0.30672536457E+02  0.64026097050E+02 -0.15174682837E+02  0.72597634916E+02  0.00000000000E+00 0.  1.
         13    1    4    4    0    0 -0.15279521784E+02 -0.19614442880E+02 -0.32955621578E+02  0.41282722161E+02  0.00000000000E+00 0. -1.
          1    1    1    2  501    0 -0.34738718763E+02  0.42056283900E+02 -0.13539798284E+03  0.14597302269E+03  0.00000000000E+00 0. -1.
<scales pt_clust_5="13000.00000" pt_clust_6="13000.00000" pt_clust_7="13000.00000" pt_clust_8="13000.00000" pt_clust_9="54.54823"></scales>
<clustering>
<clus scale="   54.548">  2  9  1 -1</clus>
<clus scale="   83.341">  5  6 -1 -1</clus>
<clus scale="   91.885">  7  8 -1 -1</clus>
<clus scale="  115.706">  1  5  2 -1</clus>
<clus scale="   54.548">  2  5  1 -1</clus>
</clustering>
</event>
<event>
 9    2  0.6175212E-005  0.1045463E+03  0.7546771E-02  0.1275579E+00
          2   -1    0    0  502    0 -0.00000000000E+00  0.00000000000E+00  0.34013530142E+03  0.34013530142E+03  0.00000000000E+00 0. -1.
         21   -1    0    0  501  502  0.00000000000E+00 -0.00000000000E+00 -0.13775771590E+03  0.13775771590E+03  0.00000000000E+00 0.  1.
         24    2    1    2    0    0  0.50147576636E+02  0.13084800854E+02  0.27822592961E+03  0.29399127352E+03  0.79594029569E+02 0.  0.
         23    2    1    2    0    0 -0.58165429247E+02 -0.56824507495E+02 -0.67036473078E+02  0.13856856645E+03  0.89972868538E+02 0.  0.
        -13    1    3    3    0    0  0.53991178483E+02  0.17956098417E+02  0.95537488173E+02  0.11119748410E+03  0.00000000000E+00 0.  1.
         14    1    3    3    0    0 -0.38436018465E+01 -0.48712975630E+01  0.18268844144E+03  0.18279378942E+03  0.00000000000E+00 0. -1.
        -13    1    4    4    0    0 -0.63516350778E+01 -0.21960445324E+02  0.20723808456E+02  0.30855804379E+02  0.00000000000E+00 0. -1.
         13    1    4    4    0    0 -0.51813794169E+02 -0.34864062172E+02 -0.87760281534E+02  0.10771276207E+03  0.00000000000E+00 0.  1.
          1    1    1    2  501    0  0.80178526108E+01  0.43739706641E+02 -0.88118710155E+01  0.45333177347E+02  0.00000000000E+00 0. -1.
<scales pt_clust_5="13000.00000" pt_clust_6="13000.00000" pt_clust_7="13000.00000" pt_clust_8="13000.00000" pt_clust_9="44.46850"></scales>
<clustering>
<clus scale="   44.469">  2  9  1 -1</clus>
<clus scale="   79.594">  5  6 -1 -1</clus>
<clus scale="   89.973">  7  8 -1 -1</clus>
<clus scale="   95.760">  1  5  2 -1</clus>
<clus scale="   44.469">  2  5  1 -1</clus>
</clustering>
</event>
<event>
 9    2  0.6175212E-005  0.1025646E+03  0.7546771E-02  0.1280003E+00
          2   -1    0    0  502    0 -0.00000000000E+00  0.00000000000E+00  0.61861003790E+03  0.61861003790E+03  0.00000000000E+00 0. -1.
         21   -1    0    0  501  502  0.00000000000E+00 -0.00000000000E+00 -0.42205073176E+02  0.42205073176E+02  0.00000000000E+00 0. -1.
         23    2    1    2    0    0  0.43434152970E+02  0.55824431983E+01  0.19730743937E+03  0.22132969592E+03  0.90215959490E+02 0.  0.
         24    2    1    2    0    0 -0.50852481800E+02 -0.45545189013E+02  0.66052334525E+02  0.12381257161E+03  0.79412233596E+02 0.  0.
        -11    1    4    4    0    0  0.17857990214E+02 -0.10783215590E+02 -0.21193794777E+01  0.20968484026E+02  0.00000000000E+00 0.  1.
         12    1    4    4    0    0 -0.68710472014E+02 -0.34761973422E+02  0.68171714003E+02  0.10284408758E+03  0.00000000000E+00 0. -1.
        -13    1    3    3    0    0  0.22071181890E+02 -0.42372103976E+02  0.92525806460E+02  0.10413240190E+03  0.00000000000E+00 0. -1.
         13    1    3    3    0    0  0.21362971080E+02  0.47954547174E+02  0.10478163291E+03  0.11719729401E+03  0.00000000000E+00 0.  1.
          1    1    1    2  501    0  0.74183288296E+01  0.39962745814E+02  0.31304519083E+03  0.31567284355E+03  0.00000000000E+00 0. -1.
<scales pt_clust_5="13000.00000" pt_clust_6="13000.00000" pt_clust_7="13000.00000" pt_clust_8="13000.00000" pt_clust_9="40.64547"></scales>
<clustering>
<clus scale="   40.645">  2  9  1 -1</clus>
<clus scale="   79.412">  5  6 -1 -1</clus>
<clus scale="   90.216">  7  8 -1 -1</clus>
<clus scale="   93.203">  2  5  1 -1</clus>
<clus scale="   40.645">  2  5  1 -1</clus>
</clustering>
</event>
<event>
 9    2  0.6175212E-005  0.1325086E+03  0.7546771E-02  0.1225810E+00
         -3   -1    0    0    0  501 -0.00000000000E+00  0.00000000000E+00  0.17756522596E+03  0.17756522596E+03  0.00000000000E+00 0.  1.
         21   -1    0    0  501  502  0.00000000000E+00 -0.00000000000E+00 -0.12580606112E+03  0.12580606112E+03  0.00000000000E+00 0. -1.
         24    2    1    2    0    0 -0.11451373132E+02  0.86400596105E+02  0.50520931033E+02  0.13038679177E+03  0.82777738812E+02 0.  0.
         23    2    1    2    0    0  0.14298610671E+02 -0.11013752512E+03  0.16672393242E+02  0.14452818074E+03  0.90970883391E+02 0.  0.
        -13    1    3    3    0    0 -0.12825472267E+02  0.45727148844E+02  0.70536428537E+02  0.85034420272E+02  0.00000000000E+00 0.  1.
         14    1    3    3    0    0  0.13740991346E+01  0.40673447261E+02 -0.20015497504E+02  0.45352371502E+02  0.00000000000E+00 0. -1.
        -11    1    4    4    0    0  0.26057994454E+02 -0.81967279002E+02 -0.27973214669E+02  0.90444207337E+02  0.00000000000E+00 0. -1.
         11    1    4    4    0    0 -0.11759383784E+02 -0.28170246121E+02  0.44645607911E+02  0.54083973404E+02  0.00000000000E+00 0.  1.
         -4    1    1    2    0  502 -0.28472375381E+01  0.23736929017E+02 -0.15434159442E+02  0.28456314562E+02  0.00000000000E+00 0.  1.
<scales pt_clust_5="13000.00000" pt_clust_6="13000.00000" pt_clust_7="13000.00000" pt_clust_8="13000.00000" pt_clust_9="23.90708"></scales>
<clustering>
<clus scale="   23.907">  2  9  1 -1</clus>
<clus scale="   82.778">  5  6 -1 -1</clus>
<clus scale="   90.971">  7  8 -1 -1</clus>
<clus scale="  127.024">  1  5  2 -1</clus>
<clus scale="   23.907">  2  5  1 -1</clus>
</clustering>
</event>
<event>
 9    2  0.6175212E-005  0.2048685E+03  0.7546771E-02  0.1153283E+00
         21   -1    0    0  501  502  0.00000000000E+00  0.00000000000E+00  0.75829703483E+03  0.75829703483E+03  0.00000000000E+00 0.  1.
          2   -1    0    0  502    0 -0.00000000000E+00 -0.00000000000E+00 -0.13049125013E+03  0.13049125013E+03  0.00000000000E+00 0. -1.
         23    2    1    2    0    0 -0.14222586272E+03  0.43669508583E+02  0.22758215176E+03  0.28474392992E+03  0.84559138012E+02 0.  0.
         24    2    1    2    0    0 -0.30929954444E+02  0.15791933192E+03  0.21362787571E+03  0.27933067463E+03  0.80582746489E+02 0.  0.
        -11    1    4    4    0    0 -0.35291948518E+02  0.16487174153E+03  0.21215117693E+03  0.27099139222E+03  0.00000000000E+00 0.  1.
         12    1    4    4    0    0  0.43619940740E+01 -0.69524096131E+01  0.14766987794E+01  0.83392824041E+01  0.00000000000E+00 0. -1.
        -11    1    3    3    0    0 -0.98272309423E+02 -0.79920684059E+01  0.10107645631E+03  0.14120116847E+03  0.00000000000E+00 0.  1.
         11    1    3    3    0    0 -0.43953553295E+02  0.51661576989E+02  0.12650569545E+03  0.14354276145E+03  0.00000000000E+00 0. -1.
          1    1    1    2  501    0  0.17315581716E+03 -0.20158884050E+03  0.18659575723E+03  0.32471368041E+03  0.00000000000E+00 0. -1.
<scales pt_clust_5="13000.00000" pt_clust_6="13000.00000" pt_clust_7="13000.00000" pt_clust_8="13000.00000" pt_clust_9="188.35490"></scales>
<clustering>
<clus scale="   80.583">  5  6 -1 -1</clus>
<clus scale="   84.559">  7  8 -1 -1</clus>
<clus scale="  171.130">  2  7  1 -1</clus>
<clus scale="  188.355">  1  9  2 -1</clus>
<clus scale="  188.355">  1  5  2 -1</clus>
</clustering>
</event>
<event>
 9    2  0.6175212E-005  0.1003134E+03  0.7546771E-02  0.1285538E+00
         -1   -1    0    0    0  501 -0.00000000000E+00  0.00000000000E+00  0.34995709004E+03  0.34995709004E+03  0.00000000000E+00 0.  1.
         21   -1    0    0  501  502  0.00000000000E+00 -0.00000000000E+00 -0.25404350860E+03  0.25404350860E+03  0.00000000000E+00 0. -1.
         24    2    1    2    0    0  0.38795514878E+01  0.38395689196E+02  0.32383287919E+03  0.33610306333E+03  0.81291178287E+02 0.  0.
         23    2    1    2    0    0 -0.29840584696E+02 -0.12151316424E+02 -0.19526646850E+03  0.21861316043E+03  0.92868752605E+02 0.  0.
        -11    1    3    3    0    0  0.40683696221E+02  0.33485359966E+02  0.17987202862E+03  0.18743099837E+03  0.00000000000E+00 0.  1.
         12    1    3    3    0    0 -0.36804144733E+02  0.49103292298E+01  0.14396085057E+03  0.14867206496E+03  0.00000000000E+00 0. -1.
        -11    1    4    4    0    0 -0.63628075919E+02 -0.10339394591E+02 -0.12774453650E+03  0.14308774137E+03  0.00000000000E+00 0. -1.
         11    1    4    4    0    0  0.33787491223E+02 -0.18119218335E+01 -0.67521931996E+02  0.75525419061E+02  0.00000000000E+00 0.  1.
         -2    1    1    2    0  502  0.25961033208E+02 -0.26244372772E+02 -0.32652829263E+02  0.49284374870E+02  0.00000000000E+00 0.  1.
<scales pt_clust_5="13000.00000" pt_clust_6="13000.00000" pt_clust_7="13000.00000" pt_clust_8="13000.00000" pt_clust_9="36.91534"></scales>
<clustering>
<clus scale="   36.915">  2  9  1 -1</clus>
<clus scale="   81.291">  5  6 -1 -1</clus>
<clus scale="   89.702">  1  5  2 -1</clus>
<clus scale="   92.869">  7  8 -1 -1</clus>
<clus scale="   36.915">  2  5  1 -1</clus>
</clustering>
</event>
<event>
 9    2  0.6175212E-005  0.1126797E+03  0.7546771E-02  0.1258312E+00
         21   -1    0    0  501  502  0.00000000000E+00  0.00000000000E+00  0.43555423313E+02  0.43555423313E+02  0.00000000000E+00 0. -1.
          2   -1    0    0  502    0 -0.00000000000E+00 -0.00000000000E+00 -0.11596309773E+04  0.11596309773E+04  0.00000000000E+00 0. -1.
         24    2    1    2    0    0 -0.21742879710E+02  0.67555366803E+02 -0.89272124132E+03  0.89922192068E+03  0.81316465208E+02 0.  0.
         23    2    1    2    0    0  0.38038795401E+02 -0.54649937653E+02 -0.24803571321E+03  0.27169563273E+03  0.88674890348E+02 0.  0.
        -13    1    3    3    0    0  0.74695470469E+01  0.20098354547E+02 -0.46922742814E+02  0.51589551091E+02  0.00000000000E+00 0.  1.
         14    1    3    3    0    0 -0.29212426757E+02  0.47457012257E+02 -0.84579849851E+03  0.84763236959E+03  0.00000000000E+00 0. -1.
        -13    1    4    4    0    0 -0.22193316455E+02 -0.84400403713E+01 -0.19012386490E+02  0.30417896324E+02  0.00000000000E+00 0.  1.
         13    1    4    4    0    0  0.60232111856E+02 -0.46209897282E+02 -0.22902332672E+03  0.24127773641E+03  0.00000000000E+00 0. -1.
          1    1    1    2  501    0 -0.16295915691E+02 -0.12905429150E+02  0.24681400521E+02  0.32268847228E+02  0.00000000000E+00 0. -1.
<scales pt_clust_5="13000.00000" pt_clust_6="13000.00000" pt_clust_7="13000.00000" pt_clust_8="13000.00000" pt_clust_9="20.78718"></scales>
<clustering>
<clus scale="   20.787">  1  9  2 -1</clus>
<clus scale="   81.316">  5  6 -1 -1</clus>
<clus scale="   88.675">  7  8 -1 -1</clus>
<clus scale="  106.985">  2  5  1 -1</clus>
<clus scale="   20.787">  1  5  2 -1</clus>
</clustering>
</event>
<event>
 9    2  0.6175212E-005  0.1551190E+03  0.7546771E-02  0.1212976E+00
         21   -1    0    0  501  502  0.00000000000E+00  0.00000000000E+00  0.18316749049E+03  0.18316749049E+03  0.00000000000E+00 0. -1.
          2   -1    0    0  502    0 -0.00000000000E+00 -0.00000000000E+00 -0.51189243483E+03  0.51189243483E+03  0.00000000000E+00 0. -1.
         24    2    1    2    0    0 -0.59472419240E+02 -0.33119008910E+02 -0.23953514523E+03  0.26101790728E+03  0.78226751938E+02 0.  0.
         23    2    1    2    0    0  0.15853831743E+03 -0.39968188860E+02 -0.19628756851E+03  0.27086811426E+03  0.90049272931E+02 0.  0.
        -13    1    3    3    0    0 -0.33518038025E+02  0.22953908272E+02 -0.75574522313E+02  0.85801219110E+02  0.00000000000E+00 0.  1.
         14    1    3    3    0    0 -0.25954381215E+02 -0.56072917182E+02 -0.16396062292E+03  0.17521668817E+03  0.00000000000E+00 0. -1.
        -13    1    4    4    0    0  0.13422092295E+03 -0.18401219836E+02 -0.97616946692E+02  0.16698182336E+03  0.00000000000E+00 0. -1.
         13    1    4    4    0    0  0.24317394474E+02 -0.21566969024E+02 -0.98670621817E+02  0.10388629090E+03  0.00000000000E+00 0.  1.
          1    1    1    2  501    0 -0.99065898188E+02  0.73087197770E+02  0.10709776940E+03  0.16317390377E+03  0.00000000000E+00 0. -1.
<scales pt_clust_5="13000.00000" pt_clust_6="13000.00000" pt_clust_7="13000.00000" pt_clust_8="13000.00000" pt_clust_9="126.30531"></scales>
<clustering>
<clus scale="   78.227">  5  6 -1 -1</clus>
<clus scale="   90.049">  7  8 -1 -1</clus>
<clus scale="  103.698">  2  5  1 -1</clus>
<clus scale="  126.305">  1  9  2 -1</clus>
<clus scale="  126.305">  1  5  2 -1</clus>
</clustering>
</event>
<event>
 9    2  0.6175212E-005  0.9851512E+02  0.7546771E-02  0.1288795E+00
         21   -1    0    0  501  502  0.00000000000E+00  0.00000000000E+00  0.93908376258E+02  0.93908376258E+02  0.00000000000E+00 0. -1.
          2   -1    0    0  502    0 -0.00000000000E+00 -0.00000000000E+00 -0.23438943616E+03  0.23438943616E+03  0.00000000000E+00 0. -1.
         24    2    1    2    0    0 -0.30043120090E+02 -0.35052971775E+02 -0.15359735872E+03  0.17895552566E+03  0.79382817167E+02 0.  0.
         23    2    1    2    0    0  0.34284295426E+02 -0.24079787025E+01 -0.21040246693E+02  0.98470094163E+02  0.89846848522E+02 0.  0.
        -13    1    3    3    0    0 -0.23101375898E+02  0.18999688017E+02 -0.23942621417E+02  0.38313324490E+02  0.00000000000E+00 0.  1.
         14    1    3    3    0    0 -0.69417441914E+01 -0.54052659792E+02 -0.12965473731E+03  0.14064220117E+03  0.00000000000E+00 0. -1.
        -11    1    4    4    0    0 -0.56269218351E+01 -0.19478903868E+02 -0.44663136168E+02  0.49049828518E+02  0.00000000000E+00 0. -1.
         11    1    4    4    0    0  0.39911217261E+02  0.17070925165E+02  0.23622889475E+02  0.49420265645E+02  0.00000000000E+00 0.  1.
          1    1    1    2  501    0 -0.42411753362E+01  0.37460950477E+02  0.34156545511E+02  0.50872192602E+02  0.00000000000E+00 0. -1.
<scales pt_clust_5="13000.00000" pt_clust_6="13000.00000" pt_clust_7="13000.00000" pt_clust_8="13000.00000" pt_clust_9="37.70027"></scales>
<clustering>
<clus scale="   37.700">  1  9  2 -1</clus>
<clus scale="   79.383">  5  6 -1 -1</clus>
<clus scale="   89.075">  2  5  1 -1</clus>
<clus scale="   89.847">  7  8 -1 -1</clus>
<clus scale="   37.700">  1  5  2 -1</clus>
</clustering>
</event>
<event>
 9    2  0.6175212E-005  0.9802528E+02  0.7546771E-02  0.1284661E+00
         21   -1    0    0  501  502  0.00000000000E+00  0.00000000000E+00  0.83633100263E+02  0.83633100263E+02  0.00000000000E+00 0. -1.
          2   -1    0    0  502    0 -0.00000000000E+00 -0.00000000000E+00 -0.69058262623E+03  0.69058262623E+03  0.00000000000E+00 0. -1.
         23    2    1    2    0    0  0.12696254448E+02 -0.43395913561E+02 -0.43185808056E+03  0.44368756489E+03  0.91174850191E+02 0.  0.
         24    2    1    2    0    0  0.78489005728E+02  0.70269284252E+01 -0.19959930634E+03  0.22934471434E+03  0.80927209013E+02 0.  0.
        -11    1    4    4    0    0  0.34625224055E+02  0.41284328217E+02 -0.12627175088E+03  0.13728749749E+03  0.00000000000E+00 0.  1.
         12    1    4    4    0    0  0.43863781673E+02 -0.34257399792E+02 -0.73327555461E+02  0.92057216844E+02  0.00000000000E+00 0. -1.
        -13    1    3    3    0    0 -0.34797222517E+02 -0.33893376430E+02 -0.14916153018E+03  0.15687182586E+03  0.00000000000E+00 0.  1.
         13    1    3    3    0    0  0.47493476965E+02 -0.95025371311E+01 -0.28269655037E+03  0.28681573904E+03  0.00000000000E+00 0. -1.
          1    1    1    2  501    0 -0.91185260175E+02  0.36368985136E+02  0.24507860931E+02  0.10118344727E+03  0.00000000000E+00 0. -1.
<scales pt_clust_5="13000.00000" pt_clust_6="13000.00000" pt_clust_7="13000.00000" pt_clust_8="13000.00000" pt_clust_9="98.17054"></scales>
<clustering>
<clus scale="   80.927">  5  6 -1 -1</clus>
<clus scale="   91.175">  7  8 -1 -1</clus>
<clus scale="   98.171">  1  9  2 -1</clus>
<clus scale="   98.171">  1  5  2 -1</clus>
<clus scale="   98.025">  1  5  2 -1</clus>
</clustering>
</event>
<event>
 9    2  0.6175212E-005  0.7896908E+02  0.7546771E-02  0.1346099E+00
         21   -1    0    0  501  502  0.00000000000E+00  0.00000000000E+00  0.15335455903E+03  0.15335455903E+03  0.00000000000E+00 0.  1.
          2   -1    0    0  502    0 -0.00000000000E+00 -0.00000000000E+00 -0.10342425180E+03  0.10342425180E+03  0.00000000000E+00 0. -1.
         24    2    1    2    0    0 -0.18373158440E+01  0.54902074994E+01 -0.40558357807E+02  0.73642416991E+02  0.61194011834E+02 0.  0.
         23    2    1    2    0    0  0.19457043657E+02 -0.27969935443E+02  0.11647974390E+03  0.14451866271E+03  0.78467950755E+02 0.  0.
        -13    1    3    3    0    0  0.22850286482E+02  0.15096048916E+02 -0.38261002287E+02  0.47052423755E+02  0.00000000000E+00 0.  1.
         14    1    3    3    0    0 -0.24687602326E+02 -0.96058414171E+01 -0.22973555200E+01  0.26589993236E+02  0.00000000000E+00 0. -1.
        -13    1    4    4    0    0  0.28860476005E+02  0.11320552772E+02  0.92456682013E+02  0.97515742519E+02  0.00000000000E+00 0.  1.
         13    1    4    4    0    0 -0.94034323477E+01 -0.39290488215E+02  0.24023061892E+02  0.47002920194E+02  0.00000000000E+00 0. -1.
          1    1    1    2  501    0 -0.17619727813E+02  0.22479727944E+02 -0.25991078871E+02  0.38617731128E+02  0.00000000000E+00 0. -1.
<scales pt_clust_5="13000.00000" pt_clust_6="13000.00000" pt_clust_7="13000.00000" pt_clust_8="13000.00000" pt_clust_9="28.56210"></scales>
<clustering>
<clus scale="   28.562">  1  9  2 -1</clus>
<clus scale="   61.194">  5  6 -1 -1</clus>
<clus scale="   61.835">  2  5  1 -1</clus>
<clus scale="   78.468">  7  8 -1 -1</clus>
<clus scale="   28.562">  1  5  2 -1</clus>
</clustering>
</event>
<event>
 9    2  0.6175212E-005  0.1785959E+03  0.7546771E-02  0.1170685E+00
         21   -1    0    0  501  502  0.00000000000E+00  0.00000000000E+00  0.41965808570E+02  0.41965808570E+02  0.00000000000E+00 0.  1.
         -1   -1    0    0    0  501 -0.00000000000E+00 -0.00000000000E+00 -0.14121448362E+04  0.14121448362E+04  0.00000000000E+00 0.  1.
         23    2    1    2    0    0  0.14770428677E+03  0.10984639829E+03 -0.74407598467E+03  0.77215521779E+03  0.93229940777E+02 0.  0.
         24    2    1    2    0    0 -0.43026022379E+02 -0.10818853499E+03 -0.21371281573E+03  0.25648393902E+03  0.80962001363E+02 0.  0.
        -13    1    4    4    0    0 -0.37365469675E+01 -0.78390301520E+02 -0.72248958750E+02  0.10667198881E+03  0.00000000000E+00 0.  1.
         14    1    4    4    0    0 -0.39289475412E+02 -0.29798233472E+02 -0.14146385698E+03  0.14981195022E+03  0.00000000000E+00 0. -1.
        -13    1    3    3    0    0  0.40301236163E+02 -0.13508559782E+02 -0.13802861886E+03  0.14442496477E+03  0.00000000000E+00 0. -1.
         13    1    3    3    0    0  0.10740305060E+03  0.12335495807E+03 -0.60604736580E+03  0.62773025302E+03  0.00000000000E+00 0.  1.
         -2    1    1    2    0  502 -0.10467826439E+03 -0.16578632971E+01 -0.41239022724E+03  0.42547148796E+03  0.00000000000E+00 0.  1.
<scales pt_clust_5="13000.00000" pt_clust_6="13000.00000" pt_clust_7="13000.00000" pt_clust_8="13000.00000" pt_clust_9="104.69144"></scales>
<clustering>
<clus scale="   80.962">  5  6 -1 -1</clus>
<clus scale="   93.230">  7  8 -1 -1</clus>
<clus scale="  104.691">  1  9  2 -1</clus>
<clus scale="  172.509">  1  5  2 -1</clus>
<clus scale="  104.691">  1  5  2 -1</clus>
</clustering>
</event>
<event>
 9    2  0.6175212E-005  0.9130184E+02  0.7546771E-02  0.1306522E+00
         21   -1    0    0  501  502  0.00000000000E+00  0.00000000000E+00  0.26853265132E+03  0.26853265132E+03  0.00000000000E+00 0.  1.
         -1   -1    0    0    0  501 -0.00000000000E+00 -0.00000000000E+00 -0.21138095745E+03  0.21138095745E+03  0.00000000000E+00 0.  1.
         24    2    1    2    0    0 -0.64626596943E+01  0.62810953760E+01 -0.18674070161E+03  0.20343254464E+03  0.80196586292E+02 0.  0.
         23    2    1    2    0    0 -0.28408960299E+01  0.21680747236E+02  0.21813373225E+03  0.23734119286E+03  0.90941691156E+02 0.  0.
        -11    1    3    3    0    0 -0.99553376989E+01  0.42750795287E+02 -0.10832530750E+03  0.11688075757E+03  0.00000000000E+00 0.  1.
         12    1    3    3    0    0  0.34926780046E+01 -0.36469699911E+02 -0.78415394113E+02  0.86551787071E+02  0.00000000000E+00 0. -1.
        -13    1    4    4    0    0  0.24045486197E+02 -0.27928307491E+02  0.94846352553E+02  0.10175463802E+03  0.00000000000E+00 0. -1.
         13    1    4    4    0    0 -0.26886382226E+02  0.49609054728E+02  0.12328737970E+03  0.13558655484E+03  0.00000000000E+00 0.  1.
         -2    1    1    2    0  502  0.93035557242E+01 -0.27961842612E+02  0.25758663227E+02  0.39139871265E+02  0.00000000000E+00 0.  1.
<scales pt_clust_5="13000.00000" pt_clust_6="13000.00000" pt_clust_7="13000.00000" pt_clust_8="13000.00000" pt_clust_9="29.46898"></scales>
<clustering>
<clus scale="   29.469">  1  9  2 -1</clus>
<clus scale="   80.197">  5  6 -1 -1</clus>
<clus scale="   80.605">  2  5  1 -1</clus>
<clus scale="   90.942">  7  8 -1 -1</clus>
<clus scale="   29.469">  1  5  2 -1</clus>
</clustering>
</event>
<event>
 9    2  0.6175212E-005  0.1582023E+03  0.7546771E-02  0.1192935E+00
          2   -1    0    0  502    0 -0.00000000000E+00  0.00000000000E+00  0.49739920217E+03  0.49739920217E+03  0.00000000000E+00 0. -1.
         21   -1    0    0  501  502  0.00000000000E+00 -0.00000000000E+00 -0.70382929968E+02  0.70382929968E+02  0.00000000000E+00 0. -1.
         23    2    1    2    0    0 -0.23883858842E+02 -0.13270179307E+03  0.34891200656E+03  0.38539503243E+03  0.92787596702E+02 0.  0.
         24    2    1    2    0    0  0.19929209771E+02  0.10880261384E+03  0.49441346779E+02  0.14485880459E+03  0.79400530947E+02 0.  0.
        -11    1    4    4    0    0  0.24358206458E+02  0.97098380004E+00  0.23504443375E+02  0.33863311855E+02  0.00000000000E+00 0.  1.
         12    1    4    4    0    0 -0.44289966872E+01  0.10783163004E+03  0.25936903403E+02  0.11099549273E+03  0.00000000000E+00 0. -1.
        -13    1    3    3    0    0  0.10438223828E+02 -0.12279005310E+03  0.22622148540E+03  0.25760922754E+03  0.00000000000E+00 0.  1.
         13    1    3    3    0    0 -0.34322082671E+02 -0.99117399649E+01  0.12269052117E+03  0.12778580489E+03  0.00000000000E+00 0. -1.
          1    1    1    2  501    0  0.39546490711E+01  0.23899179227E+02  0.28662918861E+02  0.37528295121E+02  0.00000000000E+00 0. -1.
<scales pt_clust_5="13000.00000" pt_clust_6="13000.00000" pt_clust_7="13000.00000" pt_clust_8="13000.00000" pt_clust_9="24.22417"></scales>
<clustering>
<clus scale="   24.224">  2  9  1 -1</clus>
<clus scale="   79.401">  5  6 -1 -1</clus>
<clus scale="   92.788">  7  8 -1 -1</clus>
<clus scale="  150.741">  2  5  1 -1</clus>
<clus scale="   24.224">  2  5  1 -1</clus>
</clustering>
</event>
<event>
 9    2  0.6175212E-005  0.1282728E+03  0.7546771E-02  0.1233234E+00
         21   -1    0    0  501  502  0.00000000000E+00  0.00000000000E+00  0.26402018119E+03  0.26402018119E+03  0.00000000000E+00 0.  1.
          2   -1    0    0  502    0 -0.00000000000E+00 -0.00000000000E+00 -0.28779114073E+03  0.28779114073E+03  0.00000000000E+00 0. -1.
         24    2    1    2    0    0 -0.35721625422E+02 -0.81621304425E+02 -0.23643214539E+03  0.26529613432E+03  0.80893804764E+02 0.  0.
         23    2    1    2    0    0  0.28011457203E+01  0.89774091258E+02  0.21687910700E+03  0.25233892719E+03  0.92580523032E+02 0.  0.
        -11    1    3    3    0    0  0.23883246266E+02 -0.33172689141E+02 -0.57256109976E+02  0.70349832172E+02  0.00000000000E+00 0.  1.
         12    1    3    3    0    0 -0.59604871688E+02 -0.48448615284E+02 -0.17917603542E+03  0.19494630215E+03  0.00000000000E+00 0. -1.
        -11    1    4    4    0    0 -0.39724122597E+02  0.72858919854E+02  0.13231351431E+03  0.15618352726E+03  0.00000000000E+00 0. -1.
         11    1    4    4    0    0  0.42525268317E+02  0.16915171404E+02  0.84565592694E+02  0.96155399936E+02  0.00000000000E+00 0.  1.
          1    1    1    2  501    0  0.32920479701E+02 -0.81527868330E+01 -0.42179211440E+01  0.34176260411E+02  0.00000000000E+00 0. -1.
<scales pt_clust_5="13000.00000" pt_clust_6="13000.00000" pt_clust_7="13000.00000" pt_clust_8="13000.00000" pt_clust_9="33.91500"></scales>
<clustering>
<clus scale="   33.915">  1  9  2 -1</clus>
<clus scale="   80.894">  5  6 -1 -1</clus>
<clus scale="   92.581">  7  8 -1 -1</clus>
<clus scale="  120.111">  2  5  1 -1</clus>
<clus scale="   33.915">  1  5  2 -1</clus>
</clustering>
</event>
<event>
 9    2  0.6175212E-005  0.9649198E+02  0.7546771E-02  0.1295658E+00
         21   -1    0    0  501  502  0.00000000000E+00  0.00000000000E+00  0.40496212159E+03  0.40496212159E+03  0.00000000000E+00 0.  1.
          2   -1    0    0  502    0 -0.00000000000E+00 -0.00000000000E+00 -0.46345249734E+02  0.46345249734E+02  0.00000000000E+00 0. -1.
         24    2    1    2    0    0 -0.73929076415E+01  0.33429350997E+02  0.22430947984E+02  0.88968957946E+02  0.78994629304E+02 0.  0.
         23    2    1    2    0    0 -0.86327814862E+01  0.51342731773E+01  0.23980966826E+03  0.25730337891E+03  0.92711736726E+02 0.  0.
        -11    1    3    3    0    0 -0.22514329429E+02  0.30857675170E+02 -0.20520360441E+02  0.43361000209E+02  0.00000000000E+00 0.  1.
         12    1    3    3    0    0  0.15121421787E+02  0.25716758276E+01  0.42951308425E+02  0.45607957736E+02  0.00000000000E+00 0. -1.
        -13    1    4    4    0    0 -0.47491736218E+02  0.15796100382E+02  0.10034628733E+03  0.11213545014E+03  0.00000000000E+00 0.  1.
         13    1    4    4    0    0  0.38858954731E+02 -0.10661827205E+02  0.13946338093E+03  0.14516792877E+03  0.00000000000E+00 0. -1.
          1    1    1    2  501    0  0.16025689128E+02 -0.38563624175E+02  0.96376255606E+02  0.10503503447E+03  0.00000000000E+00 0. -1.
<scales pt_clust_5="13000.00000" pt_clust_6="13000.00000" pt_clust_7="13000.00000" pt_clust_8="13000.00000" pt_clust_9="41.76094"></scales>
<clustering>
<clus scale="   41.761">  1  9  2 -1</clus>
<clus scale="   78.995">  5  6 -1 -1</clus>
<clus scale="   83.399">  2  5  1 -1</clus>
<clus scale="   92.712">  7  8 -1 -1</clus>
<clus scale="   41.761">  1  5  2 -1</clus>
</clustering>
</event>
<event>
 9    2  0.6175212E-005  0.1188351E+03  0.7546771E-02  0.1247840E+00
         21   -1    0    0  501  502  0.00000000000E+00  0.00000000000E+00  0.14493553190E+03  0.14493553190E+03  0.00000000000E+00 0.  1.
          2   -1    0    0  502    0 -0.00000000000E+00 -0.00000000000E+00 -0.16734414564E+03  0.16734414564E+03  0.00000000000E+00 0. -1.
         23    2    1    2    0    0 -0.10390755697E+03  0.31753596517E+02 -0.53400313604E+02  0.15098206154E+03  0.90215952736E+02 0.  0.
         24    2    1    2    0    0  0.40936448826E+02 -0.10209345558E+02  0.16544390169E+02  0.93192990847E+02  0.81432138114E+02 0.  0.
        -13    1    4    4    0    0  0.47981443277E+00 -0.38024402056E+02  0.21772768825E+02  0.43819388813E+02  0.00000000000E+00 0.  1.
         14    1    4    4    0    0  0.40456634394E+02  0.27815056499E+02 -0.52283786562E+01  0.49373602034E+02  0.00000000000E+00 0. -1.
        -13    1    3    3    0    0 -0.11532558801E+03  0.12019650800E+02 -0.33429487271E+02  0.12067308678E+03  0.00000000000E+00 0.  1.
         13    1    3    3    0    0  0.11418031043E+02  0.19733945717E+02 -0.19970826333E+02  0.30308974758E+02  0.00000000000E+00 0. -1.
          1    1    1    2  501    0  0.62971108139E+02 -0.21544250959E+02  0.14447309689E+02  0.68104625150E+02  0.00000000000E+00 0. -1.
<scales pt_clust_5="13000.00000" pt_clust_6="13000.00000" pt_clust_7="13000.00000" pt_clust_8="13000.00000" pt_clust_9="66.55460"></scales>
<clustering>
<clus scale="   66.555">  1  9  2 -1</clus>
<clus scale="   81.432">  5  6 -1 -1</clus>
<clus scale="   90.216">  7  8 -1 -1</clus>
<clus scale="  112.312">  1  5  2 -1</clus>
<clus scale="   66.555">  1  5  2 -1</clus>
</clustering>
</event>
<event>
 9    2  0.6175212E-005  0.9908636E+02  0.7546771E-02  0.1289167E+00
         21   -1    0    0  501  502  0.00000000000E+00  0.00000000000E+00  0.14189762469E+03  0.14189762469E+03  0.00000000000E+00 0.  1.
          2   -1    0    0  502    0 -0.00000000000E+00 -0.00000000000E+00 -0.13222210217E+03  0.13222210217E+03  0.00000000000E+00 0. -1.
         24    2    1    2    0    0 -0.23212480470E+02  0.24760325204E+02 -0.53205383010E+02  0.10229573809E+03  0.80509082071E+02 0.  0.
         23    2    1    2    0    0 -0.14689860709E+02 -0.45122078326E+02  0.72827681856E+02  0.12766374856E+03  0.93500628290E+02 0.  0.
        -13    1    3    3    0    0 -0.44855726207E+02 -0.22569477998E+01 -0.50485665042E+02  0.67571683134E+02  0.00000000000E+00 0.  1.
         14    1    3    3    0    0  0.21643245737E+02  0.27017273004E+02 -0.27197179687E+01  0.34724054954E+02  0.00000000000E+00 0. -1.
        -13    1    4    4    0    0 -0.37548322260E+02  0.15052463413E+02  0.29597934944E+02  0.50124753488E+02  0.00000000000E+00 0.  1.
         13    1    4    4    0    0  0.22858461551E+02 -0.60174541739E+02  0.43229746912E+02  0.77538995067E+02  0.00000000000E+00 0. -1.
          1    1    1    2  501    0  0.37902341179E+02  0.20361753122E+02 -0.99467763199E+01  0.44160240219E+02  0.00000000000E+00 0. -1.
<scales pt_clust_5="13000.00000" pt_clust_6="13000.00000" pt_clust_7="13000.00000" pt_clust_8="13000.00000" pt_clust_9="43.02546"></scales>
<clustering>
<clus scale="   43.025">  1  9  2 -1</clus>
<clus scale="   80.509">  5  6 -1 -1</clus>
<clus scale="   86.934">  2  5  1 -1</clus>
<clus scale="   93.501">  7  8 -1 -1</clus>
<clus scale="   43.025">  1  5  2 -1</clus>
</clustering>
</event>
<event>
 9    2  0.6175212E-005  0.9473380E+02  0.7546771E-02  0.1298827E+00
         -1   -1    0    0    0  501 -0.00000000000E+00  0.00000000000E+00  0.49969745282E+03  0.49969745282E+03  0.00000000000E+00 0.  1.
         21   -1    0    0  501  502  0.00000000000E+00 -0.00000000000E+00 -0.30385684797E+02  0.30385684797E+02  0.00000000000E+00 0. -1.
         24    2    1    2    0    0  0.77981211450E+01 -0.96287541229E+01  0.19762199021E+03  0.21393107101E+03  0.80984742572E+02 0.  0.
         23    2    1    2    0    0 -0.40987202187E+01  0.37481272145E+02  0.97933214449E+02  0.14013845452E+03  0.92877482062E+02 0.  0.
        -11    1    3    3    0    0 -0.14215011359E+01 -0.45150399642E+02  0.11294790145E+03  0.12164623995E+03  0.00000000000E+00 0.  1.
         12    1    3    3    0    0  0.92196222809E+01  0.35521645519E+02  0.84674088762E+02  0.92284831056E+02  0.00000000000E+00 0. -1.
        -11    1    4    4    0    0 -0.27945355874E+02  0.49183932441E+02  0.23766648012E+02  0.61358419822E+02  0.00000000000E+00 0. -1.
         11    1    4    4    0    0  0.23846635655E+02 -0.11702660297E+02  0.74166566437E+02  0.78780034699E+02  0.00000000000E+00 0.  1.
         -2    1    1    2    0  502 -0.36994009263E+01 -0.27852518022E+02  0.17375656337E+03  0.17601361209E+03  0.00000000000E+00 0.  1.
<scales pt_clust_5="13000.00000" pt_clust_6="13000.00000" pt_clust_7="13000.00000" pt_clust_8="13000.00000" pt_clust_9="28.09714"></scales>
<clustering>
<clus scale="   28.097">  2  9  1 -1</clus>
<clus scale="   80.985">  5  6 -1 -1</clus>
<clus scale="   83.107">  1  5  2 -1</clus>
<clus scale="   92.877">  7  8 -1 -1</clus>
<clus scale="   28.097">  2  5  1 -1</clus>
</clustering>
</event>
<event>
 9    2  0.6175212E-005  0.2434317E+03  0.7546771E-02  0.1118161E+00
          2   -1    0    0  502    0 -0.00000000000E+00  0.00000000000E+00  0.12497593924E+04  0.12497593924E+04  0.00000000000E+00 0. -1.
         21   -1    0    0  501  502  0.00000000000E+00 -0.00000000000E+00 -0.91044518425E+02  0.91044518425E+02  0.00000000000E+00 0.  1.
         23    2    1    2    0    0  0.20294760164E+03  0.16034517546E+02  0.54970272000E+03  0.59332238740E+03  0.91725352258E+02 0.  0.
         24    2    1    2    0    0 -0.25289955826E+03  0.61011747873E+01  0.63400592321E+03  0.68739928522E+03  0.80986762884E+02 0.  0.
        -13    1    4    4    0    0 -0.18852692918E+03  0.16690606734E+01  0.36563963073E+03  0.41138489076E+03  0.00000000000E+00 0.  1.
         14    1    4    4    0    0 -0.64372629078E+02  0.44321141139E+01  0.26836629248E+03  0.27601439446E+03  0.00000000000E+00 0. -1.
        -13    1    3    3    0    0  0.10879726084E+03  0.16977885281E+02  0.41232881653E+03  0.42677880160E+03  0.00000000000E+00 0.  1.
         13    1    3    3    0    0  0.94150340800E+02 -0.94336773507E+00  0.13737390348E+03  0.16654358580E+03  0.00000000000E+00 0. -1.
          1    1    1    2  501    0  0.49951956621E+02 -0.22135692333E+02 -0.24993769244E+02  0.60082238193E+02  0.00000000000E+00 0. -1.
<scales pt_clust_5="13000.00000" pt_clust_6="13000.00000" pt_clust_7="13000.00000" pt_clust_8="13000.00000" pt_clust_9="54.63686"></scales>
<clustering>
<clus scale="   54.637">  2  9  1 -1</clus>
<clus scale="   80.987">  5  6 -1 -1</clus>
<clus scale="   91.725">  7  8 -1 -1</clus>
<clus scale="  239.592">  2  5  1 -1</clus>
<clus scale="   54.637">  2  5  1 -1</clus>
</clustering>
</event>
<event>
 9    2  0.6175212E-005  0.9660261E+02  0.7546771E-02  0.1292551E+00
          2   -1    0    0  502    0 -0.00000000000E+00  0.00000000000E+00  0.18317930963E+03  0.18317930963E+03  0.00000000000E+00 0. -1.
         21   -1    0    0  501  502  0.00000000000E+00 -0.00000000000E+00 -0.80419576793E+02  0.80419576793E+02  0.00000000000E+00 0.  1.
         23    2    1    2    0    0  0.23121640921E+01 -0.21558381458E+02  0.62084012980E+02  0.11189900323E+03  0.90536469676E+02 0.  0.
         24    2    1    2    0    0 -0.20378828264E+02  0.41523663895E+02  0.66171268365E+02  0.11461835342E+03  0.81358582091E+02 0.  0.
        -11    1    4    4    0    0 -0.36357378999E+02  0.79507572863E+01 -0.16724352562E+01  0.37254135191E+02  0.00000000000E+00 0.  1.
         12    1    4    4    0    0  0.15978550735E+02  0.33572906609E+02  0.67843703621E+02  0.77364218233E+02  0.00000000000E+00 0. -1.
        -11    1    3    3    0    0 -0.33930637495E+02  0.13871750587E+02  0.45801237002E+02  0.58664017388E+02  0.00000000000E+00 0. -1.
         11    1    3    3    0    0  0.36242801587E+02 -0.35430132045E+02  0.16282775978E+02  0.53234985838E+02  0.00000000000E+00 0.  1.
          1    1    1    2  501    0  0.18066664172E+02 -0.19965282437E+02 -0.25495548504E+02  0.37081529777E+02  0.00000000000E+00 0. -1.
<scales pt_clust_5="13000.00000" pt_clust_6="13000.00000" pt_clust_7="13000.00000" pt_clust_8="13000.00000" pt_clust_9="26.92614"></scales>
<clustering>
<clus scale="   26.926">  2  9  1 -1</clus>
<clus scale="   81.359">  5  6 -1 -1</clus>
<clus scale="   88.059">  2  5  1 -1</clus>
<clus scale="   90.536">  7  8 -1 -1</clus>
<clus scale="   26.926">  2  5  1 -1</clus>
</clustering>
</event>
<event>
 9    2  0.6175212E-005  0.9214704E+02  0.7546771E-02  0.1305187E+00
         21   -1    0    0  501  502  0.00000000000E+00  0.00000000000E+00  0.52932523491E+03  0.52932523491E+03  0.00000000000E+00 0.  1.
          2   -1    0    0  502    0 -0.00000000000E+00 -0.00000000000E+00 -0.25104385513E+02  0.25104385513E+02  0.00000000000E+00 0. -1.
         24    2    1    2    0    0 -0.17010480795E+02 -0.93399411385E+00  0.15609850167E+03  0.17626231309E+03  0.80071418064E+02 0.  0.
         23    2    1    2    0    0 -0.14392765769E+02 -0.37675964618E+01  0.32708203528E+03  0.34007579126E+03  0.91910497292E+02 0.  0.
        -11    1    3    3    0    0  0.22518437214E+02 -0.22329339161E+02  0.96745607240E+02  0.10181056881E+03  0.00000000000E+00 0.  1.
         12    1    3    3    0    0 -0.39528918009E+02  0.21395345047E+02  0.59352894426E+02  0.74451744273E+02  0.00000000000E+00 0. -1.
        -13    1    4    4    0    0  0.91897144865E+01  0.36512894641E+02  0.77444296232E+02  0.86111911756E+02  0.00000000000E+00 0. -1.
         13    1    4    4    0    0 -0.23582480256E+02 -0.40280491103E+02  0.24963773904E+03  0.25396387950E+03  0.00000000000E+00 0.  1.
          1    1    1    2  501    0  0.31403246564E+02  0.47015905757E+01  0.21040312458E+02  0.38091516077E+02  0.00000000000E+00 0. -1.
<scales pt_clust_5="13000.00000" pt_clust_6="13000.00000" pt_clust_7="13000.00000" pt_clust_8="13000.00000" pt_clust_9="31.75327"></scales>
<clustering>
<clus scale="   31.753">  1  9  2 -1</clus>
<clus scale="   80.071">  5  6 -1 -1</clus>
<clus scale="   80.343">  2  5  1 -1</clus>
<clus scale="   91.910">  7  8 -1 -1</clus>
<clus scale="   31.753">  1  5  2 -1</clus>
</clustering>
</event>
<event>
 9    2  0.6175212E-005  0.1000367E+03  0.7546771E-02  0.1285429E+00
         21   -1    0    0  501  502  0.00000000000E+00  0.00000000000E+00  0.43046078170E+02  0.43046078170E+02  0.00000000000E+00 0.  1.
         -1   -1    0    0    0  501 -0.00000000000E+00 -0.00000000000E+00 -0.44175866929E+03  0.44175866929E+03  0.00000000000E+00 0.  1.
         24    2    1    2    0    0 -0.51561073291E+01 -0.56777304959E+02 -0.19887472927E+03  0.22161842334E+03  0.79456401990E+02 0.  0.
         23    2    1    2    0    0  0.43791970955E+02  0.13594624070E+02 -0.17062090156E+03  0.19829329942E+03  0.90034382444E+02 0.  0.
        -11    1    3    3    0    0  0.20816089475E+02 -0.66789426183E+02 -0.14247035580E+03  0.15871968786E+03  0.00000000000E+00 0.  1.
         12    1    3    3    0    0 -0.25972196804E+02  0.10012121224E+02 -0.56404373470E+02  0.62898735478E+02  0.00000000000E+00 0. -1.
        -13    1    4    4    0    0  0.44857753165E+02  0.48197188767E+02 -0.12158736930E+03  0.13827029832E+03  0.00000000000E+00 0.  1.
         13    1    4    4    0    0 -0.10657822095E+01 -0.34602564696E+02 -0.49033532262E+02  0.60023001102E+02  0.00000000000E+00 0. -1.
         -2    1    1    2    0  502 -0.38635863626E+02  0.43182680889E+02 -0.29216960285E+02  0.64893024704E+02  0.00000000000E+00 0.  1.
<scales pt_clust_5="13000.00000" pt_clust_6="13000.00000" pt_clust_7="13000.00000" pt_clust_8="13000.00000" pt_clust_9="57.94371"></scales>
<clustering>
<clus scale="   57.944">  1  9  2 -1</clus>
<clus scale="   79.456">  5  6 -1 -1</clus>
<clus scale="   90.034">  7  8 -1 -1</clus>
<clus scale="   90.634">  2  5  1 -1</clus>
<clus scale="   57.944">  1  5  2 -1</clus>
</clustering>
</event>
<event>
 9    2  0.6175212E-005  0.9262731E+02  0.7546771E-02  0.1305625E+00
         21   -1    0    0  501  502  0.00000000000E+00  0.00000000000E+00  0.23801776308E+02  0.23801776308E+02  0.00000000000E+00 0. -1.
          2   -1    0    0  502    0 -0.00000000000E+00 -0.00000000000E+00 -0.64103014524E+03  0.64103014524E+03  0.00000000000E+00 0. -1.
         24    2    1    2    0    0 -0.19047721277E+02 -0.25866516236E+02 -0.25966280332E+03  0.27308641045E+03  0.78227385212E+02 0.  0.
         23    2    1    2    0    0 -0.13829648178E+02 -0.22862482788E+02 -0.26671363315E+03  0.28353501992E+03  0.92422903686E+02 0.  0.
        -11    1    3    3    0    0  0.20333612037E+02  0.15830045913E+02 -0.10546509158E+03  0.10856763640E+03  0.00000000000E+00 0.  1.
         12    1    3    3    0    0 -0.39381333314E+02 -0.41696562148E+02 -0.15419771174E+03  0.16451877405E+03  0.00000000000E+00 0. -1.
        -11    1    4    4    0    0  0.20677439020E+02 -0.43097097104E+02 -0.20098135513E+03  0.20658756345E+03  0.00000000000E+00 0.  1.
         11    1    4    4    0    0 -0.34507087198E+02  0.20234614316E+02 -0.65732278024E+02  0.76947456473E+02  0.00000000000E+00 0. -1.
          1    1    1    2  501    0  0.32877369455E+02  0.48728999024E+02 -0.90851932459E+02  0.10821049117E+03  0.00000000000E+00 0. -1.
<scales pt_clust_5="13000.00000" pt_clust_6="13000.00000" pt_clust_7="13000.00000" pt_clust_8="13000.00000" pt_clust_9="58.78296"></scales>
<clustering>
<clus scale="   58.783">  1  9  2 -1</clus>
<clus scale="   78.227">  5  6 -1 -1</clus>
<clus scale="   78.469">  2  5  1 -1</clus>
<clus scale="   92.423">  7  8 -1 -1</clus>
<clus scale="   58.783">  1  5  2 -1</clus>
</clustering>
</event>
<event>
 9    2  0.6175212E-005  0.2431834E+03  0.7546771E-02  0.1149223E+00
          2   -1    0    0  502    0 -0.00000000000E+00  0.00000000000E+00  0.63978689782E+03  0.63978689782E+03  0.00000000000E+00 0. -1.
         21   -1    0    0  501  502  0.00000000000E+00 -0.00000000000E+00 -0.13569901380E+03  0.13569901380E+03  0.00000000000E+00 0. -1.
         24    2    1    2    0    0 -0.92741030418E+01  0.78529244344E+02  0.76793454593E+02  0.13631393940E+03  0.80196036071E+02 0.  0.
         23    2    1    2    0    0  0.18215099546E+03 -0.18011013932E+03  0.20992430887E+03  0.34344428082E+03  0.90923655550E+02 0.  0.
        -11    1    3    3    0    0  0.35486680493E+02  0.36598396117E+02  0.29815099116E+02  0.59056644216E+02  0.00000000000E+00 0.  1.
         12    1    3    3    0    0 -0.44760783534E+02  0.41930848227E+02  0.46978355476E+02  0.77257295183E+02  0.00000000000E+00 0. -1.
        -13    1    4    4    0    0  0.33904609601E+02  0.26454633947E+01  0.43517109596E+02  0.55229157665E+02  0.00000000000E+00 0.  1.
         13    1    4    4    0    0  0.14824638586E+03 -0.18275560271E+03  0.16640719928E+03  0.28821512315E+03  0.00000000000E+00 0. -1.
          1    1    1    2  501    0 -0.17287689242E+03  0.10158089497E+03  0.21737012056E+03  0.29572769141E+03  0.00000000000E+00 0. -1.
<scales pt_clust_5="13000.00000" pt_clust_6="13000.00000" pt_clust_7="13000.00000" pt_clust_8="13000.00000" pt_clust_9="225.54616"></scales>
<clustering>
<clus scale="   80.196">  5  6 -1 -1</clus>
<clus scale="   90.924">  7  8 -1 -1</clus>
<clus scale="  112.624">  1  5  2 -1</clus>
<clus scale="  225.546">  2  9  1 -1</clus>
<clus scale="  225.546">  2  5  1 -1</clus>
</clustering>
</event>
<event>
 9    2  0.6175212E-005  0.9509931E+02  0.7546771E-02  0.1299246E+00
         -3   -1    0    0    0  501 -0.00000000000E+00  0.00000000000E+00  0.69983664456E+02  0.69983664456E+02  0.00000000000E+00 0.  1.
         21   -1    0    0  501  502  0.00000000000E+00 -0.00000000000E+00 -0.57706135676E+03  0.57706135676E+03  0.00000000000E+00 0.  1.
         24    2    1    2    0    0 -0.20433324043E+02 -0.28868061244E+00  0.21582614667E+02  0.85462298965E+02  0.80127343776E+02 0.  0.
         23    2    1    2    0    0 -0.21303187278E+02 -0.34382131240E+02 -0.16656646709E+03  0.19544620338E+03  0.93908858578E+02 0.  0.
        -11    1    3    3    0    0 -0.41473586276E+02 -0.24959401835E+02  0.39805132426E+01  0.48568246666E+02  0.00000000000E+00 0.  1.
         12    1    3    3    0    0  0.21040262233E+02  0.24670721223E+02  0.17602101425E+02  0.36894052299E+02  0.00000000000E+00 0. -1.
        -11    1    4    4    0    0  0.26971482460E+02  0.16427794990E+02 -0.61743199751E+02  0.69350962718E+02  0.00000000000E+00 0. -1.
         11    1    4    4    0    0 -0.48274669738E+02 -0.50809926229E+02 -0.10482326734E+03  0.12609524066E+03  0.00000000000E+00 0.  1.
         -4    1    1    2    0  502  0.41736511321E+02  0.34670811852E+02 -0.36209383988E+03  0.36613651887E+03  0.00000000000E+00 0.  1.
<scales pt_clust_5="13000.00000" pt_clust_6="13000.00000" pt_clust_7="13000.00000" pt_clust_8="13000.00000" pt_clust_9="54.25865"></scales>
<clustering>
<clus scale="   54.259">  2  9  1 -1</clus>
<clus scale="   80.127">  5  6 -1 -1</clus>
<clus scale="   81.519">  1  5  2 -1</clus>
<clus scale="   93.909">  7  8 -1 -1</clus>
<clus scale="   54.259">  2  5  1 -1</clus>
</clustering>
</event>
<event>
 9    2  0.6175212E-005  0.2221229E+03  0.7546771E-02  0.1166652E+00
          2   -1    0    0  502    0 -0.00000000000E+00  0.00000000000E+00  0.10589154987E+04  0.10589154987E+04  0.00000000000E+00 0. -1.
         21   -1    0    0  501  502  0.00000000000E+00 -0.00000000000E+00 -0.81910713036E+02  0.81910713036E+02  0.00000000000E+00 0.  1.
         24    2    1    2    0    0 -0.14244841474E+02 -0.56034915530E+02  0.38382469906E+03  0.39622649038E+03  0.79568868305E+02 0.  0.
         23    2    1    2    0    0  0.16162598596E+03 -0.10804839692E+03  0.19846006708E+03  0.29243998301E+03  0.91308981058E+02 0.  0.
        -13    1    3    3    0    0  0.13186458059E+02  0.16297866477E+02  0.86098092968E+02  0.88613682581E+02  0.00000000000E+00 0.  1.
         14    1    3    3    0    0 -0.27431299533E+02 -0.72332782007E+02  0.29772660610E+03  0.30761280780E+03  0.00000000000E+00 0. -1.
        -13    1    4    4    0    0  0.16122345687E+03 -0.82886807949E+02  0.19627012334E+03  0.26718006530E+03  0.00000000000E+00 0.  1.
         13    1    4    4    0    0  0.40252908854E+00 -0.25161588973E+02  0.21899437469E+01  0.25259917714E+02  0.00000000000E+00 0. -1.
          1    1    1    2  501    0 -0.14738114448E+03  0.16408331245E+03  0.39472001953E+03  0.45215973835E+03  0.00000000000E+00 0. -1.
<scales pt_clust_5="13000.00000" pt_clust_6="13000.00000" pt_clust_7="13000.00000" pt_clust_8="13000.00000" pt_clust_9="202.48775"></scales>
<clustering>
<clus scale="   79.569">  5  6 -1 -1</clus>
<clus scale="   91.309">  7  8 -1 -1</clus>
<clus scale="   98.357">  1  5  2 -1</clus>
<clus scale="  202.488">  2  9  1 -1</clus>
<clus scale="  202.488">  2  5  1 -1</clus>
</clustering>
</event>
<event>
 9    2  0.6175212E-005  0.1078118E+03  0.7546771E-02  0.1270173E+00
         -3   -1    0    0    0  501 -0.00000000000E+00  0.00000000000E+00  0.49129651004E+03  0.49129651004E+03  0.00000000000E+00 0.  1.
         21   -1    0    0  501  502  0.00000000000E+00 -0.00000000000E+00 -0.17435559959E+03  0.17435559959E+03  0.00000000000E+00 0.  1.
         24    2    1    2    0    0 -0.30508642116E+02  0.45342589468E+02  0.43963043634E+03  0.45007972047E+03  0.79436179133E+02 0.  0.
         23    2    1    2    0    0  0.53442454003E+01 -0.80345871850E+02 -0.52846236825E+02  0.13349582938E+03  0.92435878492E+02 0.  0.
        -13    1    3    3    0    0 -0.47055740982E+02  0.11904357894E+02  0.14084641572E+03  0.14897539837E+03  0.00000000000E+00 0.  1.
         14    1    3    3    0    0  0.16547098867E+02  0.33438231574E+02  0.29878402062E+03  0.30110432210E+03  0.00000000000E+00 0. -1.
        -11    1    4    4    0    0  0.43794757368E+02 -0.25971286546E+02 -0.42039054307E+02  0.66028558857E+02  0.00000000000E+00 0. -1.
         11    1    4    4    0    0 -0.38450511968E+02 -0.54374585304E+02 -0.10807182518E+02  0.67467270521E+02  0.00000000000E+00 0.  1.
         -4    1    1    2    0  502  0.25164396715E+02  0.35003282382E+02 -0.69843289057E+02  0.82076559783E+02  0.00000000000E+00 0.  1.
<scales pt_clust_5="13000.00000" pt_clust_6="13000.00000" pt_clust_7="13000.00000" pt_clust_8="13000.00000" pt_clust_9="43.11005"></scales>
<clustering>
<clus scale="   43.110">  2  9  1 -1</clus>
<clus scale="   79.436">  5  6 -1 -1</clus>
<clus scale="   92.436">  7  8 -1 -1</clus>
<clus scale="   96.897">  1  5  2 -1</clus>
<clus scale="   43.110">  2  5  1 -1</clus>
</clustering>
</event>
<event>
 9    2  0.7657159E-005  0.1053101E+03  0.7546771E-02  0.1272507E+00
          2   -1    0    0  502    0 -0.00000000000E+00  0.00000000000E+00  0.52517715436E+03  0.52517715436E+03  0.00000000000E+00 0. -1.
         21   -1    0    0  501  502  0.00000000000E+00 -0.00000000000E+00 -0.24876182381E+03  0.24876182381E+03  0.00000000000E+00 0. -1.
         23    2    1    2    0    0  0.50742442562E+02 -0.17688126115E+02  0.42165710897E+03  0.43411442268E+03  0.88164330390E+02 0.  0.
         24    2    1    2    0    0 -0.65886757278E+02  0.48766801481E+02  0.61217257912E+02  0.13049092700E+03  0.81000392915E+02 0.  0.
        -11    1    4    4    0    0 -0.46048557433E+02  0.17189504785E+02 -0.99460983539E+01  0.50148515320E+02  0.00000000000E+00 0.  1.
         12    1    4    4    0    0 -0.19838199845E+02  0.31577296696E+02  0.71163356266E+02  0.80342411682E+02  0.00000000000E+00 0. -1.
        -11    1    3    3    0    0 -0.21080611518E+02  0.42476478846E+01  0.42945256766E+02  0.48028426721E+02  0.00000000000E+00 0.  1.
         11    1    3    3    0    0  0.71823054079E+02 -0.21935774000E+02  0.37871185221E+03  0.38608599596E+03  0.00000000000E+00 0. -1.
          1    1    1    2  501    0  0.15144314716E+02 -0.31078675366E+02 -0.20645903633E+03  0.20933362848E+03  0.00000000000E+00 0. -1.
<scales pt_clust_5="13000.00000" pt_clust_6="13000.00000" pt_clust_7="13000.00000" pt_clust_8="13000.00000" pt_clust_9="34.57216"></scales>
<clustering>
<clus scale="   34.572">  2  9  1 -1</clus>
<clus scale="   81.000">  5  6 -1 -1</clus>
<clus scale="   88.164">  7  8 -1 -1</clus>
<clus scale="   99.390">  2  5  1 -1</clus>
<clus scale="   34.572">  2  5  1 -1</clus>
</clustering>
</event>
<event>
 9    2  0.6947726E-005  0.2064279E+03  0.7546771E-02  0.1165976E+00
         -1   -1    0    0    0  501 -0.00000000000E+00  0.00000000000E+00  0.38933777853E+03  0.38933777853E+03  0.00000000000E+00 0.  1.
         21   -1    0    0  501  502  0.00000000000E+00 -0.00000000000E+00 -0.50404779431E+03  0.50404779431E+03  0.00000000000E+00 0.  1.
         24    2    1    2    0    0 -0.25416768048E+02 -0.90820415260E+02 -0.20185408251E+03  0.23714074643E+03  0.81217627797E+02 0.  0.
         23    2    1    2    0    0  0.16240938881E+02  0.27046453774E+03  0.27575098437E+03  0.39561333183E+03  0.84002789655E+02 0.  0.
        -11    1    3    3    0    0 -0.18692597346E+02 -0.18845144794E+02 -0.13849506381E+03  0.14101572741E+03  0.00000000000E+00 0.  1.
         12    1    3    3    0    0 -0.67241707026E+01 -0.71975270466E+02 -0.63359018698E+02  0.96125019015E+02  0.00000000000E+00 0. -1.
        -13    1    4    4    0    0  0.45369610563E+02  0.22231342731E+03  0.21125116423E+03  0.31001405760E+03  0.00000000000E+00 0.  1.
         13    1    4    4    0    0 -0.29128671682E+02  0.48151110435E+02  0.64499820142E+02  0.85599274228E+02  0.00000000000E+00 0. -1.
         -2    1    1    2    0  502  0.91758291676E+01 -0.17964412248E+03 -0.18860691764E+03  0.26063149458E+03  0.00000000000E+00 0.  1.
<scales pt_clust_5="13000.00000" pt_clust_6="13000.00000" pt_clust_7="13000.00000" pt_clust_8="13000.00000" pt_clust_9="188.56296"></scales>
<clustering>
<clus scale="   81.218">  5  6 -1 -1</clus>
<clus scale="   84.003">  7  8 -1 -1</clus>
<clus scale="  124.462">  1  5  2 -1</clus>
<clus scale="  188.563">  2  9  1 -1</clus>
<clus scale="  188.563">  2  5  1 -1</clus>
</clustering>
</event>
<event>
 9    2  0.6175212E-005  0.2088121E+03  0.7546771E-02  0.1155470E+00
          2   -1    0    0  502    0 -0.00000000000E+00  0.00000000000E+00  0.45976922710E+03  0.45976922710E+03  0.00000000000E+00 0. -1.
         21   -1    0    0  501  502  0.00000000000E+00 -0.00000000000E+00 -0.36706847412E+03  0.36706847412E+03  0.00000000000E+00 0.  1.
         24    2    1    2    0    0 -0.76174965284E+02 -0.96069353912E+02  0.31782627868E+03  0.35295967807E+03  0.92385306330E+02 0.  0.
         23    2    1    2    0    0  0.17052578452E+03 -0.86837675869E+02 -0.12036820349E+03  0.24294263133E+03  0.88953878889E+02 0.  0.
        -11    1    3    3    0    0 -0.19432284281E+02 -0.76719266826E+02  0.10281866771E+03  0.12975029096E+03  0.00000000000E+00 0.  1.
         12    1    3    3    0    0 -0.56742681003E+02 -0.19350087086E+02  0.21500761098E+03  0.22320938711E+03  0.00000000000E+00 0. -1.
        -11    1    4    4    0    0  0.14133522476E+03 -0.85809484491E+02 -0.60027062138E+02  0.17590384184E+03  0.00000000000E+00 0.  1.
         11    1    4    4    0    0  0.29190559767E+02 -0.10281913779E+01 -0.60341141347E+02  0.67038789488E+02  0.00000000000E+00 0. -1.
          1    1    1    2  501    0 -0.94350819238E+02  0.18290702978E+03 -0.10475732222E+03  0.23093539182E+03  0.00000000000E+00 0. -1.
<scales pt_clust_5="13000.00000" pt_clust_6="13000.00000" pt_clust_7="13000.00000" pt_clust_8="13000.00000" pt_clust_9="188.91724"></scales>
<clustering>
<clus scale="   88.954">  7  8 -1 -1</clus>
<clus scale="   92.385">  5  6 -1 -1</clus>
<clus scale="  153.515">  1  5  2 -1</clus>
<clus scale="  188.917">  2  9  1 -1</clus>
<clus scale="  188.917">  2  5  1 -1</clus>
</clustering>
</event>
<event>
 9    2  0.6175212E-005  0.1352143E+03  0.7546771E-02  0.1234205E+00
         21   -1    0    0  501  502  0.00000000000E+00  0.00000000000E+00  0.16091470208E+03  0.16091470208E+03  0.00000000000E+00 0. -1.
          2   -1    0    0  502    0 -0.00000000000E+00 -0.00000000000E+00 -0.51208550467E+03  0.51208550467E+03  0.00000000000E+00 0. -1.
         24    2    1    2    0    0 -0.37221728656E+02 -0.51309354521E+02 -0.58325644068E+02  0.11621873296E+03  0.78017986320E+02 0.  0.
         23    2    1    2    0    0  0.12166221969E+03 -0.34260862921E+01 -0.38910435916E+03  0.41752631693E+03  0.90069913086E+02 0.  0.
        -11    1    3    3    0    0 -0.40791186505E+02 -0.65301028939E+02 -0.64570607353E+02  0.10048636032E+03  0.00000000000E+00 0.  1.
         12    1    3    3    0    0  0.35694578495E+01  0.13991674418E+02  0.62449632851E+01  0.15732372637E+02  0.00000000000E+00 0. -1.
        -11    1    4    4    0    0  0.16486854534E+02  0.16224083101E+02 -0.13074007213E+02  0.26570037815E+02  0.00000000000E+00 0.  1.
         11    1    4    4    0    0  0.10517536516E+03 -0.19650169393E+02 -0.37603035195E+03  0.39095627911E+03  0.00000000000E+00 0. -1.
          1    1    1    2  501    0 -0.84440491036E+02  0.54735440813E+02  0.96259200630E+02  0.13925515686E+03  0.00000000000E+00 0. -1.
<scales pt_clust_5="13000.00000" pt_clust_6="13000.00000" pt_clust_7="13000.00000" pt_clust_8="13000.00000" pt_clust_9="100.84800"></scales>
<clustering>
<clus scale="   78.018">  5  6 -1 -1</clus>
<clus scale="   90.070">  7  8 -1 -1</clus>
<clus scale="  100.523">  2  5  1 -1</clus>
<clus scale="  100.848">  1  9  2 -1</clus>
<clus scale="  100.848">  1  5  2 -1</clus>
</clustering>
</event>
<event>
 9    2  0.6175212E-005  0.9770120E+02  0.7546771E-02  0.1288936E+00
         21   -1    0    0  501  502  0.00000000000E+00  0.00000000000E+00  0.50847552882E+02  0.50847552882E+02  0.00000000000E+00 0.  1.
          2   -1    0    0  502    0 -0.00000000000E+00 -0.00000000000E+00 -0.29784700829E+03  0.29784700829E+03  0.00000000000E+00 0. -1.
         24    2    1    2    0    0  0.25909312780E+02  0.20550881841E+02 -0.14362201223E+03  0.16834644546E+03  0.81360998458E+02 0.  0.
         23    2    1    2    0    0 -0.27781547149E+02 -0.49368128791E+02 -0.10833469258E+03  0.15104771802E+03  0.88712913375E+02 0.  0.
        -13    1    3    3    0    0 -0.22292612011E+02 -0.15143733574E+02 -0.56190840228E+02  0.62319368918E+02  0.00000000000E+00 0.  1.
         14    1    3    3    0    0  0.48201924792E+02  0.35694615414E+02 -0.87431172003E+02  0.10602707655E+03  0.00000000000E+00 0. -1.
        -11    1    4    4    0    0 -0.14017586785E+02 -0.27026305335E+02  0.82524498947E+01  0.31543887659E+02  0.00000000000E+00 0.  1.
         11    1    4    4    0    0 -0.13763960363E+02 -0.22341823456E+02 -0.11658714247E+03  0.11950383036E+03  0.00000000000E+00 0. -1.
          1    1    1    2  501    0  0.18722343682E+01  0.28817246951E+02  0.49572493994E+01  0.29300397693E+02  0.00000000000E+00 0. -1.
<scales pt_clust_5="13000.00000" pt_clust_6="13000.00000" pt_clust_7="13000.00000" pt_clust_8="13000.00000" pt_clust_9="28.87800"></scales>
<clustering>
<clus scale="   28.878">  1  9  2 -1</clus>
<clus scale="   81.361">  5  6 -1 -1</clus>
<clus scale="   88.713">  7  8 -1 -1</clus>
<clus scale="   91.078">  2  5  1 -1</clus>
<clus scale="   28.878">  1  5  2 -1</clus>
</clustering>
</event>
<event>
 9    2  0.6175212E-005  0.1196136E+03  0.7546771E-02  0.1247358E+00
         21   -1    0    0  501  502  0.00000000000E+00  0.00000000000E+00  0.69961646549E+02  0.69961646549E+02  0.00000000000E+00 0.  1.
          2   -1    0    0  502    0 -0.00000000000E+00 -0.00000000000E+00 -0.49625818961E+03  0.49625818961E+03  0.00000000000E+00 0. -1.
         24    2    1    2    0    0  0.61231360774E+02  0.60950059399E+02 -0.39009564658E+03  0.40749980453E+03  0.80107976687E+02 0.  0.
         23    2    1    2    0    0 -0.32748266551E+02 -0.29284811454E+02 -0.51128101332E+02  0.11358915496E+03  0.91424090016E+02 0.  0.
        -13    1    3    3    0    0  0.54818869399E+02  0.20115682105E+02 -0.11160216555E+03  0.12595551780E+03  0.00000000000E+00 0.  1.
         14    1    3    3    0    0  0.64124913750E+01  0.40834377294E+02 -0.27849348103E+03  0.28154428673E+03  0.00000000000E+00 0. -1.
        -13    1    4    4    0    0  0.19853597120E+02 -0.18949868785E+02 -0.53285359694E+02  0.59938238240E+02  0.00000000000E+00 0. -1.
         13    1    4    4    0    0 -0.52601863671E+02 -0.10334942669E+02  0.21572583618E+01  0.53650916723E+02  0.00000000000E+00 0.  1.
          1    1    1    2  501    0 -0.28483094223E+02 -0.31665247945E+02  0.14927204850E+02  0.45130876666E+02  0.00000000000E+00 0. -1.
<scales pt_clust_5="13000.00000" pt_clust_6="13000.00000" pt_clust_7="13000.00000" pt_clust_8="13000.00000" pt_clust_9="42.59078"></scales>
<clustering>
<clus scale="   42.591">  1  9  2 -1</clus>
<clus scale="   80.108">  5  6 -1 -1</clus>
<clus scale="   91.424">  7  8 -1 -1</clus>
<clus scale="  111.204">  2  5  1 -1</clus>
<clus scale="   42.591">  1  5  2 -1</clus>
</clustering>
</event>
<event>
 9    2  0.6175212E-005  0.1483625E+03  0.7546771E-02  0.1224569E+00
         21   -1    0    0  501  502  0.00000000000E+00  0.00000000000E+00  0.32372501628E+02  0.32372501628E+02  0.00000000000E+00 0.  1.
          2   -1    0    0  502    0 -0.00000000000E+00 -0.00000000000E+00 -0.12149842388E+04  0.12149842388E+04  0.00000000000E+00 0. -1.
         24    2    1    2    0    0 -0.46283827550E+02 -0.69337194528E+01 -0.13915992827E+03  0.16730122847E+03  0.80211883489E+02 0.  0.
         23    2    1    2    0    0  0.79123898225E+02  0.94114186006E+02 -0.40542184286E+03  0.43526008583E+03  0.99831860499E+02 0.  0.
        -11    1    3    3    0    0  0.53288594338E+01 -0.26660654603E+02 -0.14205729542E+02  0.30675560281E+02  0.00000000000E+00 0.  1.
         12    1    3    3    0    0 -0.51612686984E+02  0.19726935150E+02 -0.12495419872E+03  0.13662566818E+03  0.00000000000E+00 0. -1.
        -11    1    4    4    0    0  0.10104297637E+03  0.83168624035E+02 -0.36755885256E+03  0.39016177823E+03  0.00000000000E+00 0.  1.
         11    1    4    4    0    0 -0.21919078147E+02  0.10945561971E+02 -0.37862990294E+02  0.45098307592E+02  0.00000000000E+00 0. -1.
          1    1    1    2  501    0 -0.32840070675E+02 -0.87180466553E+02 -0.63802996607E+03  0.64479542616E+03  0.00000000000E+00 0. -1.
<scales pt_clust_5="13000.00000" pt_clust_6="13000.00000" pt_clust_7="13000.00000" pt_clust_8="13000.00000" pt_clust_9="109.74986"></scales>
<clustering>
<clus scale="   80.212">  5  6 -1 -1</clus>
<clus scale="   92.867">  2  5  1 -1</clus>
<clus scale="   99.832">  7  8 -1 -1</clus>
<clus scale="  109.750">  1  9  2 -1</clus>
<clus scale="  109.750">  1  5  2 -1</clus>
</clustering>
</event>
<event>
 9    2  0.6175212E-005  0.1747901E+03  0.7546771E-02  0.1200939E+00
         21   -1    0    0  501  502  0.00000000000E+00  0.00000000000E+00  0.32686887022E+03  0.32686887022E+03  0.00000000000E+00 0.  1.
          2   -1    0    0  502    0 -0.00000000000E+00 -0.00000000000E+00 -0.17940005043E+03  0.17940005043E+03  0.00000000000E+00 0. -1.
         24    2    1    2    0    0  0.17243184604E+02 -0.41229686314E+02  0.15154150791E+03  0.17824753771E+03  0.82523582277E+02 0.  0.
         23    2    1    2    0    0 -0.10275642552E+03  0.14062218545E+03  0.72596543110E+01  0.19641665187E+03  0.90516940537E+02 0.  0.
        -11    1    3    3    0    0  0.14692230829E+02 -0.66402642974E+02  0.10157632554E+03  0.12224124733E+03  0.00000000000E+00 0.  1.
         12    1    3    3    0    0  0.25509537745E+01  0.25172956659E+02  0.49965182370E+02  0.56006290373E+02  0.00000000000E+00 0. -1.
        -11    1    4    4    0    0 -0.39889942471E+02  0.96024131323E+02  0.41652751327E+02  0.11201246806E+03  0.00000000000E+00 0.  1.
         11    1    4    4    0    0 -0.62866483049E+02  0.44598054127E+02 -0.34393097016E+02  0.84404183813E+02  0.00000000000E+00 0. -1.
          1    1    1    2  501    0  0.85513240916E+02 -0.99392499136E+02 -0.11332342427E+02  0.13160473108E+03  0.00000000000E+00 0. -1.
<scales pt_clust_5="13000.00000" pt_clust_6="13000.00000" pt_clust_7="13000.00000" pt_clust_8="13000.00000" pt_clust_9="149.52679"></scales>
<clustering>
<clus scale="   82.524">  5  6 -1 -1</clus>
<clus scale="   90.517">  7  8 -1 -1</clus>
<clus scale="   93.848">  2  5  1 -1</clus>
<clus scale="  149.527">  1  9  2 -1</clus>
<clus scale="  149.527">  1  5  2 -1</clus>
</clustering>
</event>
<event>
 9    2  0.6175212E-005  0.1722245E+03  0.7546771E-02  0.1210640E+00
         21   -1    0    0  501  502  0.00000000000E+00  0.00000000000E+00  0.99461718749E+02  0.99461718749E+02  0.00000000000E+00 0. -1.
          2   -1    0    0  502    0 -0.00000000000E+00 -0.00000000000E+00 -0.83044500031E+03  0.83044500031E+03  0.00000000000E+00 0. -1.
         24    2    1    2    0    0 -0.23825839130E+01 -0.10519421250E+02 -0.56212031520E+03  0.56773268330E+03  0.78897503076E+02 0.  0.
         23    2    1    2    0    0 -0.16196207258E+02 -0.14113087785E+03 -0.84444292916E+02  0.18761889512E+03  0.88824373843E+02 0.  0.
        -11    1    3    3    0    0 -0.39583561585E+02 -0.98751895641E+01 -0.23642473368E+03  0.23991880379E+03  0.00000000000E+00 0.  1.
         12    1    3    3    0    0  0.37200977672E+02 -0.64423168628E+00 -0.32569558152E+03  0.32781387951E+03  0.00000000000E+00 0. -1.
        -11    1    4    4    0    0 -0.24146533149E+02 -0.79163373938E+01 -0.39181654108E+02  0.46700379865E+02  0.00000000000E+00 0.  1.
         11    1    4    4    0    0  0.79503258908E+01 -0.13321454045E+03 -0.45262638808E+02  0.14091851526E+03  0.00000000000E+00 0. -1.
          1    1    1    2  501    0  0.18578791171E+02  0.15165029910E+03 -0.84418673442E+02  0.17455514064E+03  0.00000000000E+00 0. -1.
<scales pt_clust_5="13000.00000" pt_clust_6="13000.00000" pt_clust_7="13000.00000" pt_clust_8="13000.00000" pt_clust_9="147.55185"></scales>
<clustering>
<clus scale="   78.898">  5  6 -1 -1</clus>
<clus scale="   79.631">  2  5  1 -1</clus>
<clus scale="   88.824">  7  8 -1 -1</clus>
<clus scale="  147.552">  1  9  2 -1</clus>
<clus scale="  147.552">  1  5  2 -1</clus>
</clustering>
</event>
<event>
 9    2  0.6175212E-005  0.1248642E+03  0.7546771E-02  0.1238772E+00
         21   -1    0    0  501  502  0.00000000000E+00  0.00000000000E+00  0.10176793307E+03  0.10176793307E+03  0.00000000000E+00 0.  1.
          2   -1    0    0  502    0 -0.00000000000E+00 -0.00000000000E+00 -0.53248010394E+03  0.53248010394E+03  0.00000000000E+00 0. -1.
         24    2    1    2    0    0 -0.78936102615E+02 -0.82304976344E+01 -0.53624743047E+02  0.12521846528E+03  0.80656069777E+02 0.  0.
         23    2    1    2    0    0  0.75142975600E+02  0.72819671807E+02 -0.14237098639E+02  0.14045595544E+03  0.92606744119E+02 0.  0.
        -13    1    3    3    0    0 -0.19935569355E+02 -0.36255318406E+02 -0.10800825281E+01  0.41388906925E+02  0.00000000000E+00 0.  1.
         14    1    3    3    0    0 -0.59000533260E+02  0.28024820771E+02 -0.52544660519E+02  0.83829558351E+02  0.00000000000E+00 0. -1.
        -11    1    4    4    0    0  0.47825682702E+02  0.87296686538E+02  0.11536828862E+02  0.10020531836E+03  0.00000000000E+00 0.  1.
         11    1    4    4    0    0  0.27317292898E+02 -0.14477014731E+02 -0.25773927500E+02  0.40250637083E+02  0.00000000000E+00 0. -1.
          1    1    1    2  501    0  0.37931270149E+01 -0.64589174172E+02 -0.36285032919E+03  0.36857361629E+03  0.00000000000E+00 0. -1.
<scales pt_clust_5="13000.00000" pt_clust_6="13000.00000" pt_clust_7="13000.00000" pt_clust_8="13000.00000" pt_clust_9="64.70049"></scales>
<clustering>
<clus scale="   64.700">  1  9  2 -1</clus>
<clus scale="   80.656">  5  6 -1 -1</clus>
<clus scale="   92.607">  7  8 -1 -1</clus>
<clus scale="  116.278">  2  5  1 -1</clus>
<clus scale="   64.700">  1  5  2 -1</clus>
</clustering>
</event>
<event>
 9    2  0.6175212E-005  0.1425643E+03  0.7546771E-02  0.1223776E+00
         -1   -1    0    0    0  501 -0.00000000000E+00  0.00000000000E+00  0.22652916881E+03  0.22652916881E+03  0.00000000000E+00 0.  1.
         21   -1    0    0  501  502  0.00000000000E+00 -0.00000000000E+00 -0.16148848975E+03  0.16148848975E+03  0.00000000000E+00 0. -1.
         24    2    1    2    0    0  0.70446012716E+02  0.99387023081E+01  0.63429549690E+02  0.12388042067E+03  0.79130476679E+02 0.  0.
         23    2    1    2    0    0 -0.52563278607E+01 -0.10815578994E+03  0.24812645645E+02  0.14399315078E+03  0.91613624575E+02 0.  0.
        -13    1    3    3    0    0  0.68134217435E+02  0.36427756497E+02  0.58327201891E+02  0.96805555158E+02  0.00000000000E+00 0.  1.
         14    1    3    3    0    0  0.23117952805E+01 -0.26489054189E+02  0.51023477996E+01  0.27074865509E+02  0.00000000000E+00 0. -1.
        -11    1    4    4    0    0  0.59726589438E+01 -0.78668051771E+02  0.58212235440E+02  0.98045904449E+02  0.00000000000E+00 0.  1.
         11    1    4    4    0    0 -0.11228986804E+02 -0.29487738164E+02 -0.33399589795E+02  0.45947246328E+02  0.00000000000E+00 0. -1.
         -2    1    1    2    0  502 -0.65189684855E+02  0.98217087627E+02 -0.23201516276E+02  0.12014408712E+03  0.00000000000E+00 0.  1.
<scales pt_clust_5="13000.00000" pt_clust_6="13000.00000" pt_clust_7="13000.00000" pt_clust_8="13000.00000" pt_clust_9="109.23145"></scales>
<clustering>
<clus scale="   79.130">  5  6 -1 -1</clus>
<clus scale="   91.614">  7  8 -1 -1</clus>
<clus scale="  106.410">  1  5  2 -1</clus>
<clus scale="  109.231">  2  9  1 -1</clus>
<clus scale="  109.231">  2  5  1 -1</clus>
</clustering>
</event>
<event>
 9    2  0.6175212E-005  0.1790332E+03  0.7546771E-02  0.1170223E+00
          2   -1    0    0  502    0 -0.00000000000E+00  0.00000000000E+00  0.77673165681E+03  0.77673165681E+03  0.00000000000E+00 0. -1.
         21   -1    0    0  501  502  0.00000000000E+00 -0.00000000000E+00 -0.91698024492E+02  0.91698024492E+02  0.00000000000E+00 0. -1.
         24    2    1    2    0    0 -0.72990063363E+02 -0.14756406331E+03  0.47517723527E+03  0.50884932892E+03  0.77662941602E+02 0.  0.
         23    2    1    2    0    0  0.76227074510E+02  0.11804864045E+03  0.25544587713E+03  0.30517411081E+03  0.90180892454E+02 0.  0.
        -11    1    3    3    0    0 -0.88214917535E+02 -0.10813969246E+03  0.35412233350E+03  0.38062933656E+03  0.00000000000E+00 0.  1.
         12    1    3    3    0    0  0.15224854172E+02 -0.39424370846E+02  0.12105490176E+03  0.12821999237E+03  0.00000000000E+00 0. -1.
        -13    1    4    4    0    0  0.34517628536E+02  0.86172216472E+02  0.81666134318E+02  0.12363848537E+03  0.00000000000E+00 0.  1.
         13    1    4    4    0    0  0.41709445975E+02  0.31876423977E+02  0.17377974281E+03  0.18153562543E+03  0.00000000000E+00 0. -1.
          1    1    1    2  501    0 -0.32370111474E+01  0.29515422857E+02 -0.45589480083E+02  0.54406241571E+02  0.00000000000E+00 0. -1.
<scales pt_clust_5="13000.00000" pt_clust_6="13000.00000" pt_clust_7="13000.00000" pt_clust_8="13000.00000" pt_clust_9="29.69240"></scales>
<clustering>
<clus scale="   29.692">  2  9  1 -1</clus>
<clus scale="   77.663">  5  6 -1 -1</clus>
<clus scale="   90.181">  7  8 -1 -1</clus>
<clus scale="  173.066">  1  5  2 -1</clus>
<clus scale="   29.692">  2  5  1 -1</clus>
</clustering>
</event>
<event>
 9    2  0.6175212E-005  0.3579830E+03  0.7546771E-02  0.1090713E+00
          2   -1    0    0  502    0 -0.00000000000E+00  0.00000000000E+00  0.96226886322E+03  0.96226886322E+03  0.00000000000E+00 0. -1.
         21   -1    0    0  501  502  0.00000000000E+00 -0.00000000000E+00 -0.38191631190E+03  0.38191631190E+03  0.00000000000E+00 0. -1.
         23    2    1    2    0    0 -0.61906112624E+02 -0.10320914590E+03 -0.11234382042E+03  0.18957193847E+03  0.93978142626E+02 0.  0.
         24    2    1    2    0    0  0.38070333937E+03 -0.29717616980E+02  0.70864099870E+03  0.80884535614E+03  0.78997314769E+02 0.  0.
        -11    1    4    4    0    0  0.24868315763E+02  0.18027220434E+02  0.49036103968E+02  0.57861500998E+02  0.00000000000E+00 0.  1.
         12    1    4    4    0    0  0.35583502360E+03 -0.47744837414E+02  0.65960489474E+03  0.75098385514E+03  0.00000000000E+00 0. -1.
        -13    1    3    3    0    0 -0.33114245535E+02 -0.25481583687E+02  0.88822831368E+01  0.42717201667E+02  0.00000000000E+00 0.  1.
         13    1    3    3    0    0 -0.28791867089E+02 -0.77727562208E+02 -0.12122610356E+03  0.14685473680E+03  0.00000000000E+00 0. -1.
          1    1    1    2  501    0 -0.31879722674E+03  0.13292676288E+03 -0.15944626958E+02  0.34576788051E+03  0.00000000000E+00 0. -1.
<scales pt_clust_5="13000.00000" pt_clust_6="13000.00000" pt_clust_7="13000.00000" pt_clust_8="13000.00000" pt_clust_9="349.15789"></scales>
<clustering>
<clus scale="   78.997">  5  6 -1 -1</clus>
<clus scale="   93.978">  7  8 -1 -1</clus>
<clus scale="  152.697">  1  7  2 -1</clus>
<clus scale="  349.158">  2  9  1 -1</clus>
<clus scale="  349.158">  2  5  1 -1</clus>
</clustering>
</event>
<event>
 9    2  0.6175212E-005  0.1218111E+03  0.7546771E-02  0.1243060E+00
          2   -1    0    0  502    0 -0.00000000000E+00  0.00000000000E+00  0.19828251760E+04  0.19828251760E+04  0.00000000000E+00 0. -1.
         21   -1    0    0  501  502  0.00000000000E+00 -0.00000000000E+00 -0.67596393585E+02  0.67596393585E+02  0.00000000000E+00 0. -1.
         24    2    1    2    0    0  0.30365465694E+02 -0.77049888084E+02  0.17157231637E+04  0.17196673560E+04  0.81799107705E+02 0.  0.
         23    2    1    2    0    0  0.69594586613E+01  0.72241091917E+02  0.24520700587E+03  0.27155209117E+03  0.91361113502E+02 0.  0.
        -13    1    3    3    0    0  0.17668941092E+02 -0.14796832728E+02  0.97092356329E+02  0.99790096681E+02  0.00000000000E+00 0.  1.
         14    1    3    3    0    0  0.12696524603E+02 -0.62253055356E+02  0.16186308074E+04  0.16198772593E+04  0.00000000000E+00 0. -1.
        -11    1    4    4    0    0 -0.39220896440E+02  0.23952551019E+02  0.13569677623E+03  0.14326764637E+03  0.00000000000E+00 0.  1.
         11    1    4    4    0    0  0.46180355101E+02  0.48288540897E+02  0.10951022965E+03  0.12828444480E+03  0.00000000000E+00 0. -1.
          1    1    1    2  501    0 -0.37324924356E+02  0.48087961675E+01 -0.45701387225E+02  0.59202122369E+02  0.00000000000E+00 0. -1.
<scales pt_clust_5="13000.00000" pt_clust_6="13000.00000" pt_clust_7="13000.00000" pt_clust_8="13000.00000" pt_clust_9="37.63342"></scales>
<clustering>
<clus scale="   37.633">  2  9  1 -1</clus>
<clus scale="   81.799">  5  6 -1 -1</clus>
<clus scale="   91.361">  7  8 -1 -1</clus>
<clus scale="  114.814">  1  5  2 -1</clus>
<clus scale="   37.633">  2  5  1 -1</clus>
</clustering>
</event>
<event>
 9    2  0.6175212E-005  0.1075141E+03  0.7546771E-02  0.1268852E+00
          2   -1    0    0  502    0 -0.00000000000E+00  0.00000000000E+00  0.64151774534E+03  0.64151774534E+03  0.00000000000E+00 0. -1.
         21   -1    0    0  501  502  0.00000000000E+00 -0.00000000000E+00 -0.31205795137E+02  0.31205795137E+02  0.00000000000E+00 0.  1.
         23    2    1    2    0    0 -0.11902761670E+02 -0.55104819028E+02  0.45033739613E+03  0.46260875172E+03  0.89581638700E+02 0.  0.
         24    2    1    2    0    0 -0.98051857529E+01  0.71199685670E+02  0.13804237044E+03  0.17531104769E+03  0.80701490071E+02 0.  0.
        -13    1    4    4    0    0 -0.77235947529E+01  0.85731834469E+02  0.87756238769E+02  0.12292582642E+03  0.00000000000E+00 0.  1.
         14    1    4    4    0    0 -0.20815910000E+01 -0.14532148799E+02  0.50286131671E+02  0.52385221277E+02  0.00000000000E+00 0. -1.
        -11    1    3    3    0    0 -0.49514573964E+02 -0.44958512792E+02  0.28732869839E+03  0.29500973174E+03  0.00000000000E+00 0. -1.
         11    1    3    3    0    0  0.37611812294E+02 -0.10146306236E+02  0.16300869775E+03  0.16759901997E+03  0.00000000000E+00 0.  1.
          1    1    1    2  501    0  0.21707947423E+02 -0.16094866642E+02  0.21932183627E+02  0.34803741066E+02  0.00000000000E+00 0. -1.
<scales pt_clust_5="13000.00000" pt_clust_6="13000.00000" pt_clust_7="13000.00000" pt_clust_8="13000.00000" pt_clust_9="27.02369"></scales>
<clustering>
<clus scale="   27.024">  2  9  1 -1</clus>
<clus scale="   80.701">  5  6 -1 -1</clus>
<clus scale="   89.582">  7  8 -1 -1</clus>
<clus scale="  100.235">  2  5  1 -1</clus>
<clus scale="   27.024">  2  5  1 -1</clus>
</clustering>
</event>
<event>
 9    2  0.6175212E-005  0.1105407E+03  0.7546771E-02  0.1270084E+00
          2   -1    0    0  502    0 -0.00000000000E+00  0.00000000000E+00  0.59723676869E+03  0.59723676869E+03  0.00000000000E+00 0. -1.
         21   -1    0    0  501  502  0.00000000000E+00 -0.00000000000E+00 -0.35442662709E+02  0.35442662709E+02  0.00000000000E+00 0. -1.
         24    2    1    2    0    0 -0.26205976124E+01  0.46154189390E+02  0.45957961776E+03  0.46853630453E+03  0.78586047554E+02 0.  0.
         23    2    1    2    0    0 -0.12587088783E+02 -0.31877584787E+02  0.90743839879E+02  0.14033827573E+03  0.10141879482E+03 0.  0.
        -11    1    3    3    0    0  0.32818297797E+01  0.25670576576E+02  0.35555114887E+02  0.43976301608E+02  0.00000000000E+00 0.  1.
         12    1    3    3    0    0 -0.59024273922E+01  0.20483612814E+02  0.42402450288E+03  0.42456000292E+03  0.00000000000E+00 0. -1.
        -11    1    4    4    0    0  0.38625349476E+02  0.94970367397E+01  0.45599979137E+02  0.60510077064E+02  0.00000000000E+00 0.  1.
         11    1    4    4    0    0 -0.51212438259E+02 -0.41374621527E+02  0.45143860742E+02  0.79828198662E+02  0.00000000000E+00 0. -1.
          1    1    1    2  501    0  0.15207686395E+02 -0.14276604604E+02  0.11470648334E+02  0.23804851138E+02  0.00000000000E+00 0. -1.
<scales pt_clust_5="13000.00000" pt_clust_6="13000.00000" pt_clust_7="13000.00000" pt_clust_8="13000.00000" pt_clust_9="20.85893"></scales>
<clustering>
<clus scale="   20.859">  2  9  1 -1</clus>
<clus scale="   78.586">  5  6 -1 -1</clus>
<clus scale="   90.051">  1  5  2 -1</clus>
<clus scale="  101.419">  7  8 -1 -1</clus>
<clus scale="   20.859">  2  5  1 -1</clus>
</clustering>
</event>
<event>
 9    2  0.6175212E-005  0.1570546E+03  0.7546771E-02  0.1194538E+00
         21   -1    0    0  501  502  0.00000000000E+00  0.00000000000E+00  0.13640431517E+03  0.13640431517E+03  0.00000000000E+00 0.  1.
          2   -1    0    0  502    0 -0.00000000000E+00 -0.00000000000E+00 -0.35278232055E+03  0.35278232055E+03  0.00000000000E+00 0. -1.
         24    2    1    2    0    0  0.22383295546E+02  0.12280914529E+03 -0.24958749130E+03  0.28936359257E+03  0.76513232889E+02 0.  0.
         23    2    1    2    0    0 -0.40321655617E+02 -0.13447787837E+03  0.95484893524E+01  0.16792027128E+03  0.91629188445E+02 0.  0.
        -13    1    3    3    0    0 -0.20096088234E+02  0.47083423904E+02 -0.49326897072E+02  0.71090395579E+02  0.00000000000E+00 0.  1.
         14    1    3    3    0    0  0.42479383780E+02  0.75725721389E+02 -0.20026059423E+03  0.21827319699E+03  0.00000000000E+00 0. -1.
        -11    1    4    4    0    0  0.97495189783E+01 -0.11071340140E+03  0.15333948967E+02  0.11219465389E+03  0.00000000000E+00 0.  1.
         11    1    4    4    0    0 -0.50071174595E+02 -0.23764476974E+02 -0.57854596142E+01  0.55725617396E+02  0.00000000000E+00 0. -1.
          1    1    1    2  501    0  0.17938360071E+02  0.11668733081E+02  0.23660996564E+02  0.31902771857E+02  0.00000000000E+00 0. -1.
<scales pt_clust_5="13000.00000" pt_clust_6="13000.00000" pt_clust_7="13000.00000" pt_clust_8="13000.00000" pt_clust_9="21.39963"></scales>
<clustering>
<clus scale="   21.400">  1  9  2 -1</clus>
<clus scale="   76.513">  5  6 -1 -1</clus>
<clus scale="   91.629">  7  8 -1 -1</clus>
<clus scale="  148.743">  2  5  1 -1</clus>
<clus scale="   21.400">  1  5  2 -1</clus>
</clustering>
</event>
<event>
 9    2  0.6175212E-005  0.9162099E+02  0.7546771E-02  0.1302396E+00
          2   -1    0    0  502    0 -0.00000000000E+00  0.00000000000E+00  0.29562601353E+03  0.29562601353E+03  0.00000000000E+00 0. -1.
         21   -1    0    0  501  502  0.00000000000E+00 -0.00000000000E+00 -0.51772121918E+02  0.51772121918E+02  0.00000000000E+00 0.  1.
         23    2    1    2    0    0 -0.21962348148E+02  0.19437399055E+02  0.11385511998E+03  0.14819906340E+03  0.90220933430E+02 0.  0.
         24    2    1    2    0    0  0.18112745897E+01  0.17120768799E+02  0.30843338625E+02  0.91614847845E+02  0.84531457862E+02 0.  0.
        -11    1    4    4    0    0  0.21178365503E+02 -0.14269247345E+02 -0.17389623260E+02  0.30895526898E+02  0.00000000000E+00 0.  1.
         12    1    4    4    0    0 -0.19367090914E+02  0.31390016144E+02  0.48232961886E+02  0.60719320947E+02  0.00000000000E+00 0. -1.
        -13    1    3    3    0    0  0.29239422496E+02  0.48436734743E+01  0.79477587881E+02  0.84823888003E+02  0.00000000000E+00 0.  1.
         13    1    3    3    0    0 -0.51201770644E+02  0.14593725581E+02  0.34377532099E+02  0.63375175397E+02  0.00000000000E+00 0. -1.
          1    1    1    2  501    0  0.20151073559E+02 -0.36558167854E+02  0.99155433011E+02  0.10758422421E+03  0.00000000000E+00 0. -1.
<scales pt_clust_5="13000.00000" pt_clust_6="13000.00000" pt_clust_7="13000.00000" pt_clust_8="13000.00000" pt_clust_9="41.74407"></scales>
<clustering>
<clus scale="   41.744">  2  9  1 -1</clus>
<clus scale="   84.531">  5  6 -1 -1</clus>
<clus scale="   86.024">  2  5  1 -1</clus>
<clus scale="   90.221">  7  8 -1 -1</clus>
<clus scale="   41.744">  2  5  1 -1</clus>
</clustering>
</event>
<event>
 9    2  0.6175212E-005  0.2154132E+03  0.7546771E-02  0.1172343E+00
         21   -1    0    0  501  502  0.00000000000E+00  0.00000000000E+00  0.13100434163E+04  0.13100434163E+04  0.00000000000E+00 0.  1.
          2   -1    0    0  502    0 -0.00000000000E+00 -0.00000000000E+00 -0.50663403116E+02  0.50663403116E+02  0.00000000000E+00 0. -1.
         24    2    1    2    0    0  0.40732446427E+02  0.28504840872E+02  0.15989640386E+03  0.18581740774E+03  0.80557997155E+02 0.  0.
         23    2    1    2    0    0  0.40611818091E+02  0.16948541142E+03  0.44944326515E+03  0.49051416489E+03  0.90720851583E+02 0.  0.
        -11    1    3    3    0    0 -0.22451019293E+02  0.60850113851E+01  0.19964486091E+02  0.30653814374E+02  0.00000000000E+00 0.  1.
         12    1    3    3    0    0  0.63183465720E+02  0.22419829487E+02  0.13993191777E+03  0.15516359336E+03  0.00000000000E+00 0. -1.
        -11    1    4    4    0    0  0.10968332453E+02  0.58627954080E+02  0.27721100274E+03  0.28355507641E+03  0.00000000000E+00 0.  1.
         11    1    4    4    0    0  0.29643485638E+02  0.11085745734E+03  0.17223226241E+03  0.20695908847E+03  0.00000000000E+00 0. -1.
          1    1    1    2  501    0 -0.81344264518E+02 -0.19799025229E+03  0.65004034419E+03  0.68437524681E+03  0.00000000000E+00 0. -1.
<scales pt_clust_5="13000.00000" pt_clust_6="13000.00000" pt_clust_7="13000.00000" pt_clust_8="13000.00000" pt_clust_9="195.37804"></scales>
<clustering>
<clus scale="   80.558">  5  6 -1 -1</clus>
<clus scale="   90.721">  7  8 -1 -1</clus>
<clus scale="   94.664">  2  5  1 -1</clus>
<clus scale="  195.378">  1  9  2 -1</clus>
<clus scale="  195.378">  1  5  2 -1</clus>
</clustering>
</event>
<event>
 9    2  0.6175212E-005  0.1030646E+03  0.7546771E-02  0.1277058E+00
          2   -1    0    0  502    0 -0.00000000000E+00  0.00000000000E+00  0.67861495092E+03  0.67861495092E+03  0.00000000000E+00 0. -1.
         21   -1    0    0  501  502  0.00000000000E+00 -0.00000000000E+00 -0.40350752772E+02  0.40350752772E+02  0.00000000000E+00 0. -1.
         23    2    1    2    0    0 -0.16899710997E+02  0.42556365685E+02  0.28154302942E+03  0.29830786072E+03  0.87318141638E+02 0.  0.
         24    2    1    2    0    0 -0.68554425058E+02 -0.74653121220E+02  0.23858860791E+03  0.27136647346E+03  0.80264820390E+02 0.  0.
        -11    1    4    4    0    0 -0.47956495694E+02 -0.61219790476E+02  0.23369291552E+03  0.24629264502E+03  0.00000000000E+00 0.  1.
         12    1    4    4    0    0 -0.20597929364E+02 -0.13433330745E+02  0.48956923908E+01  0.25073828447E+02  0.00000000000E+00 0. -1.
        -11    1    3    3    0    0  0.26266573242E+02 -0.66605682256E+01  0.42020090758E+02  0.49999840663E+02  0.00000000000E+00 0.  1.
         11    1    3    3    0    0 -0.43166284240E+02  0.49216933911E+02  0.23952293866E+03  0.24830802005E+03  0.00000000000E+00 0. -1.
          1    1    1    2  501    0  0.85454136056E+02  0.32096755535E+02  0.11813256082E+03  0.14929136951E+03  0.00000000000E+00 0. -1.
<scales pt_clust_5="13000.00000" pt_clust_6="13000.00000" pt_clust_7="13000.00000" pt_clust_8="13000.00000" pt_clust_9="91.28314"></scales>
<clustering>
<clus scale="   80.265">  5  6 -1 -1</clus>
<clus scale="   87.318">  7  8 -1 -1</clus>
<clus scale="   91.283">  2  9  1 -1</clus>
<clus scale="   97.161">  2  5  1 -1</clus>
<clus scale="   91.283">  2  5  1 -1</clus>
</clustering>
</event>
<event>
 9    2  0.6175212E-005  0.1077966E+03  0.7546771E-02  0.1269116E+00
         21   -1    0    0  501  502  0.00000000000E+00  0.00000000000E+00  0.59281498877E+02  0.59281498877E+02  0.00000000000E+00 0. -1.
          2   -1    0    0  502    0 -0.00000000000E+00 -0.00000000000E+00 -0.67376061664E+03  0.67376061664E+03  0.00000000000E+00 0. -1.
         24    2    1    2    0    0  0.46870363539E+02 -0.40592070537E+02 -0.54123466322E+03  0.55066401301E+03  0.80320280031E+02 0.  0.
         23    2    1    2    0    0 -0.47782234342E+02 -0.96511790366E+00 -0.90897362904E+02  0.13721775935E+03  0.91007194925E+02 0.  0.
        -13    1    3    3    0    0  0.38178904410E+02  0.46762426301E+01 -0.10190129761E+03  0.10891910045E+03  0.00000000000E+00 0.  1.
         14    1    3    3    0    0  0.86914591291E+01 -0.45268313167E+02 -0.43933336561E+03  0.44174491257E+03  0.00000000000E+00 0. -1.
        -11    1    4    4    0    0  0.87157566325E-01  0.30222263050E+02 -0.70238822646E+02  0.76464926515E+02  0.00000000000E+00 0.  1.
         11    1    4    4    0    0 -0.47869391909E+02 -0.31187380953E+02 -0.20658540258E+02  0.60752832840E+02  0.00000000000E+00 0. -1.
          1    1    1    2  501    0  0.91187080289E+00  0.41557188440E+02  0.17652908366E+02  0.45160343147E+02  0.00000000000E+00 0. -1.
<scales pt_clust_5="13000.00000" pt_clust_6="13000.00000" pt_clust_7="13000.00000" pt_clust_8="13000.00000" pt_clust_9="41.56719"></scales>
<clustering>
<clus scale="   41.567">  1  9  2 -1</clus>
<clus scale="   80.320">  5  6 -1 -1</clus>
<clus scale="   91.007">  7  8 -1 -1</clus>
<clus scale="   98.940">  2  5  1 -1</clus>
<clus scale="   41.567">  1  5  2 -1</clus>
</clustering>
</event>
<event>
 9    2  0.6175212E-005  0.9929647E+02  0.7546771E-02  0.1290744E+00
         21   -1    0    0  501  502  0.00000000000E+00  0.00000000000E+00  0.37653462941E+02  0.37653462941E+02  0.00000000000E+00 0. -1.
          4   -1    0    0  502    0 -0.00000000000E+00 -0.00000000000E+00 -0.40069584160E+03  0.40069584160E+03  0.00000000000E+00 0. -1.
         24    2    1    2    0    0 -0.34809055441E+02  0.31876824777E+01 -0.10691995225E+03  0.13789419167E+03  0.79756505978E+02 0.  0.
         23    2    1    2    0    0  0.10820028247E+02 -0.14732927230E+02 -0.91736187785E+02  0.13392703251E+03  0.95847742441E+02 0.  0.
        -11    1    3    3    0    0 -0.56979984824E+02  0.11498068629E+02 -0.95031784734E+02  0.11140001958E+03  0.00000000000E+00 0.  1.
         12    1    3    3    0    0  0.22170929383E+02 -0.83103861512E+01 -0.11888167518E+02  0.26494172088E+02  0.00000000000E+00 0. -1.
        -13    1    4    4    0    0 -0.40137872256E+02 -0.95525849690E+01 -0.20184452479E+02  0.45931609929E+02  0.00000000000E+00 0. -1.
         13    1    4    4    0    0  0.50957900503E+02 -0.51803422612E+01 -0.71551735306E+02  0.87995422579E+02  0.00000000000E+00 0.  1.
          3    1    1    2  501    0  0.23989027194E+02  0.11545244752E+02 -0.16438623862E+03  0.16652808037E+03  0.00000000000E+00 0. -1.
<scales pt_clust_5="13000.00000" pt_clust_6="13000.00000" pt_clust_7="13000.00000" pt_clust_8="13000.00000" pt_clust_9="26.62267"></scales>
<clustering>
<clus scale="   26.623">  1  9  2 -1</clus>
<clus scale="   79.757">  5  6 -1 -1</clus>
<clus scale="   83.870">  2  5  1 -1</clus>
<clus scale="   95.848">  7  8 -1 -1</clus>
<clus scale="   26.623">  1  5  2 -1</clus>
</clustering>
</event>
<event>
 9    2  0.6175212E-005  0.1210845E+03  0.7546771E-02  0.1245777E+00
         21   -1    0    0  501  502  0.00000000000E+00  0.00000000000E+00  0.27224462505E+03  0.27224462505E+03  0.00000000000E+00 0.  1.
          2   -1    0    0  502    0 -0.00000000000E+00 -0.00000000000E+00 -0.22122160535E+03  0.22122160535E+03  0.00000000000E+00 0. -1.
         24    2    1    2    0    0  0.41733973481E+02  0.68123780530E+02 -0.18073164853E+03  0.21313592400E+03  0.79877526875E+02 0.  0.
         23    2    1    2    0    0 -0.25908145795E+02 -0.43912890747E+02  0.10290102126E+03  0.14827014456E+03  0.93786148221E+02 0.  0.
        -11    1    3    3    0    0  0.55934849470E+02  0.17143553293E+02 -0.77203106950E+02  0.96865517742E+02  0.00000000000E+00 0.  1.
         12    1    3    3    0    0 -0.14200875989E+02  0.50980227237E+02 -0.10352854159E+03  0.11627040626E+03  0.00000000000E+00 0. -1.
        -11    1    4    4    0    0 -0.19469349144E+02 -0.70822508083E+01  0.10850335122E+03  0.11046352818E+03  0.00000000000E+00 0.  1.
         11    1    4    4    0    0 -0.64387966513E+01 -0.36830639939E+02 -0.56023299598E+01  0.37806616373E+02  0.00000000000E+00 0. -1.
          1    1    1    2  501    0 -0.15825827686E+02 -0.24210889783E+02  0.12885364698E+03  0.13206016184E+03  0.00000000000E+00 0. -1.
<scales pt_clust_5="13000.00000" pt_clust_6="13000.00000" pt_clust_7="13000.00000" pt_clust_8="13000.00000" pt_clust_9="28.92445"></scales>
<clustering>
<clus scale="   28.924">  1  9  2 -1</clus>
<clus scale="   79.878">  5  6 -1 -1</clus>
<clus scale="   93.786">  7  8 -1 -1</clus>
<clus scale="  110.662">  2  5  1 -1</clus>
<clus scale="   28.924">  1  5  2 -1</clus>
</clustering>
</event>
<event>
 9    2  0.6175212E-005  0.9816845E+02  0.7546771E-02  0.1288226E+00
         21   -1    0    0  501  502  0.00000000000E+00  0.00000000000E+00  0.17565369754E+03  0.17565369754E+03  0.00000000000E+00 0. -1.
          2   -1    0    0  502    0 -0.00000000000E+00 -0.00000000000E+00 -0.43777112060E+03  0.43777112060E+03  0.00000000000E+00 0. -1.
         24    2    1    2    0    0  0.37096235044E+02  0.22398349267E+02 -0.36706443256E+03  0.37809703421E+03  0.79644541091E+02 0.  0.
         23    2    1    2    0    0 -0.41968704115E+02 -0.53575538147E+02  0.14607042040E+03  0.18349253545E+03  0.87756666069E+02 0.  0.
        -11    1    3    3    0    0  0.16216501599E+02  0.51441500577E+02 -0.19298685382E+03  0.20038245595E+03  0.00000000000E+00 0.  1.
         12    1    3    3    0    0  0.20879733445E+02 -0.29043151309E+02 -0.17407757874E+03  0.17771457826E+03  0.00000000000E+00 0. -1.
        -11    1    4    4    0    0  0.64419561556E+00 -0.58658417485E+02  0.11921801557E+03  0.13286895863E+03  0.00000000000E+00 0. -1.
         11    1    4    4    0    0 -0.42612899730E+02  0.50828793384E+01  0.26852404824E+02  0.50623576826E+02  0.00000000000E+00 0.  1.
          1    1    1    2  501    0  0.48724690703E+01  0.31177188880E+02 -0.41123410900E+02  0.51835248483E+02  0.00000000000E+00 0. -1.
<scales pt_clust_5="13000.00000" pt_clust_6="13000.00000" pt_clust_7="13000.00000" pt_clust_8="13000.00000" pt_clust_9="31.55565"></scales>
<clustering>
<clus scale="   31.556">  1  9  2 -1</clus>
<clus scale="   79.645">  5  6 -1 -1</clus>
<clus scale="   87.757">  7  8 -1 -1</clus>
<clus scale="   90.989">  2  5  1 -1</clus>
<clus scale="   31.556">  1  5  2 -1</clus>
</clustering>
</event>
<event>
 9    2  0.6175212E-005  0.9879313E+02  0.7546771E-02  0.1287419E+00
          2   -1    0    0  502    0 -0.00000000000E+00  0.00000000000E+00  0.52574749521E+03  0.52574749521E+03  0.00000000000E+00 0. -1.
         21   -1    0    0  501  502  0.00000000000E+00 -0.00000000000E+00 -0.89940826364E+02  0.89940826364E+02  0.00000000000E+00 0. -1.
         24    2    1    2    0    0 -0.48564862551E+02 -0.10785510422E+02  0.39688863587E+03  0.40826982626E+03  0.81785014796E+02 0.  0.
         23    2    1    2    0    0 -0.65431336085E+01  0.25603049140E+02  0.90238139616E+02  0.13067083061E+03  0.90739271582E+02 0.  0.
        -13    1    3    3    0    0  0.41106842495E+00 -0.38624574520E+02  0.18733986430E+03  0.19128055701E+03  0.00000000000E+00 0.  1.
         14    1    3    3    0    0 -0.48975930976E+02  0.27839064098E+02  0.20954877156E+03  0.21698926925E+03  0.00000000000E+00 0. -1.
        -11    1    4    4    0    0 -0.46329343808E+02  0.18016155098E+02  0.29930570254E+02  0.58024382616E+02  0.00000000000E+00 0. -1.
         11    1    4    4    0    0  0.39786210200E+02  0.75868940416E+01  0.60307569362E+02  0.72646447990E+02  0.00000000000E+00 0.  1.
          1    1    1    2  501    0  0.55107996160E+02 -0.14817538717E+02 -0.51320106631E+02  0.76747664714E+02  0.00000000000E+00 0. -1.
<scales pt_clust_5="13000.00000" pt_clust_6="13000.00000" pt_clust_7="13000.00000" pt_clust_8="13000.00000" pt_clust_9="57.06532"></scales>
<clustering>
<clus scale="   57.065">  2  9  1 -1</clus>
<clus scale="   81.785">  5  6 -1 -1</clus>
<clus scale="   90.638">  1  5  2 -1</clus>
<clus scale="   90.739">  7  8 -1 -1</clus>
<clus scale="   57.065">  2  5  1 -1</clus>
</clustering>
</event>
<event>
 9    2  0.6175212E-005  0.9268063E+02  0.7546771E-02  0.1301285E+00
         -1   -1    0    0    0  501 -0.00000000000E+00  0.00000000000E+00  0.38845951755E+03  0.38845951755E+03  0.00000000000E+00 0.  1.
         21   -1    0    0  501  502  0.00000000000E+00 -0.00000000000E+00 -0.56107985639E+02  0.56107985639E+02  0.00000000000E+00 0.  1.
         23    2    1    2    0    0  0.35235168390E+02  0.41361605052E+02  0.20741988868E+03  0.23230789221E+03  0.89396012768E+02 0.  0.
         24    2    1    2    0    0 -0.35057968422E+01  0.30469854675E+02  0.93731297048E+02  0.12776124870E+03  0.81219935785E+02 0.  0.
        -11    1    4    4    0    0 -0.33150430807E+02 -0.71284964007E+01  0.60910308108E+02  0.69712496423E+02  0.00000000000E+00 0.  1.
         12    1    4    4    0    0  0.29644633965E+02  0.37598351076E+02  0.32820988940E+02  0.58048752282E+02  0.00000000000E+00 0. -1.
        -13    1    3    3    0    0  0.72544320425E+01  0.65991448067E+02  0.11732670504E+03  0.13480746907E+03  0.00000000000E+00 0.  1.
         13    1    3    3    0    0  0.27980736347E+02 -0.24629843014E+02  0.90093183647E+02  0.97500423143E+02  0.00000000000E+00 0. -1.
         -2    1    1    2    0  502 -0.31729371548E+02 -0.71831459727E+02  0.31200346183E+02  0.84498362276E+02  0.00000000000E+00 0.  1.
<scales pt_clust_5="13000.00000" pt_clust_6="13000.00000" pt_clust_7="13000.00000" pt_clust_8="13000.00000" pt_clust_9="78.52714"></scales>
<clustering>
<clus scale="   78.527">  2  9  1 -1</clus>
<clus scale="   81.220">  5  6 -1 -1</clus>
<clus scale="   84.822">  2  5  1 -1</clus>
<clus scale="   89.396">  7  8 -1 -1</clus>
<clus scale="   78.527">  2  5  1 -1</clus>
</clustering>
</event>
<event>
 9    2  0.6175212E-005  0.1106596E+03  0.7546771E-02  0.1262814E+00
         21   -1    0    0  501  502  0.00000000000E+00  0.00000000000E+00  0.81290656574E+02  0.81290656574E+02  0.00000000000E+00 0.  1.
          2   -1    0    0  502    0 -0.00000000000E+00 -0.00000000000E+00 -0.53732869332E+03  0.53732869332E+03  0.00000000000E+00 0. -1.
         24    2    1    2    0    0  0.17064114986E+02  0.61978889626E+02 -0.46397942515E+03  0.47534606039E+03  0.80897486849E+02 0.  0.
         23    2    1    2    0    0  0.92514642060E+01 -0.70084386922E+02  0.13332368683E+02  0.11521493134E+03  0.89996208079E+02 0.  0.
        -11    1    3    3    0    0  0.39154264646E+02  0.46741844140E+02 -0.17888168467E+03  0.18898813070E+03  0.00000000000E+00 0.  1.
         12    1    3    3    0    0 -0.22090149660E+02  0.15237045486E+02 -0.28509774048E+03  0.28635792969E+03  0.00000000000E+00 0. -1.
        -11    1    4    4    0    0 -0.39034354048E+02 -0.38474894602E+02 -0.40052239824E+01  0.54954891772E+02  0.00000000000E+00 0.  1.
         11    1    4    4    0    0  0.48285818254E+02 -0.31609492320E+02  0.17337592665E+02  0.60260039567E+02  0.00000000000E+00 0. -1.
          1    1    1    2  501    0 -0.26315579192E+02  0.81054972961E+01 -0.53909802698E+01  0.28058358165E+02  0.00000000000E+00 0. -1.
<scales pt_clust_5="13000.00000" pt_clust_6="13000.00000" pt_clust_7="13000.00000" pt_clust_8="13000.00000" pt_clust_9="27.53559"></scales>
<clustering>
<clus scale="   27.536">  1  9  2 -1</clus>
<clus scale="   80.897">  5  6 -1 -1</clus>
<clus scale="   89.996">  7  8 -1 -1</clus>
<clus scale="  103.396">  2  5  1 -1</clus>
<clus scale="   27.536">  1  5  2 -1</clus>
</clustering>
</event>
<event>
 9    2  0.6175212E-005  0.1418875E+03  0.7546771E-02  0.1225441E+00
          2   -1    0    0  502    0 -0.00000000000E+00  0.00000000000E+00  0.27453721797E+03  0.27453721797E+03  0.00000000000E+00 0. -1.
         21   -1    0    0  501  502  0.00000000000E+00 -0.00000000000E+00 -0.18210916521E+03  0.18210916521E+03  0.00000000000E+00 0. -1.
         24    2    1    2    0    0 -0.12261535013E+02 -0.67813635221E+02 -0.74603670291E+02  0.12820108415E+03  0.78235388367E+02 0.  0.
         23    2    1    2    0    0  0.84699560919E+02 -0.29272406554E+02  0.16406704391E+03  0.20727700108E+03  0.89525811226E+02 0.  0.
        -11    1    3    3    0    0 -0.43255507798E+02 -0.35520664397E+02 -0.24740623025E+02  0.61195220252E+02  0.00000000000E+00 0.  1.
         12    1    3    3    0    0  0.30993972786E+02 -0.32292970825E+02 -0.49863047266E+02  0.67005863896E+02  0.00000000000E+00 0. -1.
        -13    1    4    4    0    0  0.29819869775E+02  0.25540612638E+02  0.20973443056E+02  0.44513288364E+02  0.00000000000E+00 0.  1.
         13    1    4    4    0    0  0.54879691144E+02 -0.54813019192E+02  0.14309360085E+03  0.16276371272E+03  0.00000000000E+00 0. -1.
          1    1    1    2  501    0 -0.72438025907E+02  0.97086041775E+02  0.29646791405E+01  0.12116829795E+03  0.00000000000E+00 0. -1.
<scales pt_clust_5="13000.00000" pt_clust_6="13000.00000" pt_clust_7="13000.00000" pt_clust_8="13000.00000" pt_clust_9="110.07818"></scales>
<clustering>
<clus scale="   78.235">  5  6 -1 -1</clus>
<clus scale="   89.526">  7  8 -1 -1</clus>
<clus scale="  104.258">  1  5  2 -1</clus>
<clus scale="  110.078">  2  9  1 -1</clus>
<clus scale="  110.078">  2  5  1 -1</clus>
</clustering>
</event>
<event>
 9    2  0.6175212E-005  0.1090586E+03  0.7546771E-02  0.1268963E+00
         21   -1    0    0  501  502  0.00000000000E+00  0.00000000000E+00  0.66027086905E+02  0.66027086905E+02  0.00000000000E+00 0. -1.
          2   -1    0    0  502    0 -0.00000000000E+00 -0.00000000000E+00 -0.29080730039E+03  0.29080730039E+03  0.00000000000E+00 0. -1.
         24    2    1    2    0    0 -0.51841656218E+00  0.34645041781E+02 -0.69305805161E+02  0.10942161281E+03  0.77260902432E+02 0.  0.
         23    2    1    2    0    0  0.19809155803E+02 -0.91467199699E+02 -0.99407857877E+02  0.16528879303E+03  0.93165506603E+02 0.  0.
        -13    1    3    3    0    0 -0.11469639995E+02 -0.22755980756E+02 -0.14571101595E+02  0.29354800348E+02  0.00000000000E+00 0.  1.
         14    1    3    3    0    0  0.10951223432E+02  0.57401022537E+02 -0.54734703565E+02  0.80066812459E+02  0.00000000000E+00 0. -1.
        -11    1    4    4    0    0 -0.33374818775E+02 -0.12537315830E+02 -0.17475228424E+02  0.39704488726E+02  0.00000000000E+00 0.  1.
         11    1    4    4    0    0  0.53183974578E+02 -0.78929883868E+02 -0.81932629454E+02  0.12558430431E+03  0.00000000000E+00 0. -1.
          1    1    1    2  501    0 -0.19290739241E+02  0.56822157918E+02 -0.56066550449E+02  0.82123981456E+02  0.00000000000E+00 0. -1.
<scales pt_clust_5="13000.00000" pt_clust_6="13000.00000" pt_clust_7="13000.00000" pt_clust_8="13000.00000" pt_clust_9="60.00745"></scales>
<clustering>
<clus scale="   60.007">  1  9  2 -1</clus>
<clus scale="   77.261">  5  6 -1 -1</clus>
<clus scale="   93.166">  7  8 -1 -1</clus>
<clus scale="   95.829">  2  5  1 -1</clus>
<clus scale="   60.007">  1  5  2 -1</clus>
</clustering>
</event>
<event>
 9    2  0.6175212E-005  0.9526644E+02  0.7546771E-02  0.1296907E+00
          4   -1    0    0  502    0 -0.00000000000E+00  0.00000000000E+00  0.14336583514E+03  0.14336583514E+03  0.00000000000E+00 0. -1.
         21   -1    0    0  501  502  0.00000000000E+00 -0.00000000000E+00 -0.35699450435E+03  0.35699450435E+03  0.00000000000E+00 0.  1.
         23    2    1    2    0    0 -0.25532704303E+02  0.26641795377E+01  0.11126613035E+03  0.14614033554E+03  0.91202133010E+02 0.  0.
         24    2    1    2    0    0  0.58822207088E+02  0.12180793356E+02 -0.27324469761E+03  0.29100373035E+03  0.80075480215E+02 0.  0.
        -11    1    4    4    0    0  0.32128248874E+02  0.26644798029E+02 -0.24808854048E+03  0.25157522445E+03  0.00000000000E+00 0.  1.
         12    1    4    4    0    0  0.26693958213E+02 -0.14464004672E+02 -0.25156157133E+02  0.39428505906E+02  0.00000000000E+00 0. -1.
        -13    1    3    3    0    0 -0.51892351482E+02  0.12757784257E+02  0.10410668170E+03  0.11702041863E+03  0.00000000000E+00 0. -1.
         13    1    3    3    0    0  0.26359647180E+02 -0.10093604719E+02  0.71594486507E+01  0.29119916906E+02  0.00000000000E+00 0.  1.
          3    1    1    2  501    0 -0.33289502785E+02 -0.14844972894E+02 -0.51650101954E+02  0.63216273600E+02  0.00000000000E+00 0. -1.
<scales pt_clust_5="13000.00000" pt_clust_6="13000.00000" pt_clust_7="13000.00000" pt_clust_8="13000.00000" pt_clust_9="36.44947"></scales>
<clustering>
<clus scale="   36.449">  2  9  1 -1</clus>
<clus scale="   80.075">  5  6 -1 -1</clus>
<clus scale="   84.676">  2  5  1 -1</clus>
<clus scale="   91.202">  7  8 -1 -1</clus>
<clus scale="   36.449">  2  5  1 -1</clus>
</clustering>
</event>
<event>
 9    2  0.6175212E-005  0.9548459E+02  0.7546771E-02  0.1296126E+00
         21   -1    0    0  501  502  0.00000000000E+00  0.00000000000E+00  0.66426374962E+02  0.66426374962E+02  0.00000000000E+00 0.  1.
          4   -1    0    0  502    0 -0.00000000000E+00 -0.00000000000E+00 -0.44113309207E+03  0.44113309207E+03  0.00000000000E+00 0. -1.
         24    2    1    2    0    0 -0.22599076752E+02 -0.27943226478E+02 -0.33437197357E+03  0.34559042106E+03  0.79602639662E+02 0.  0.
         23    2    1    2    0    0  0.13066055967E+02  0.27033458313E+01 -0.74871449765E+02  0.11814309319E+03  0.90410323421E+02 0.  0.
        -11    1    3    3    0    0 -0.32704879700E+02  0.18981759617E+02 -0.11610683586E+03  0.12210943325E+03  0.00000000000E+00 0.  1.
         12    1    3    3    0    0  0.10105802947E+02 -0.46924986095E+02 -0.21826513771E+03  0.22348098781E+03  0.00000000000E+00 0. -1.
        -13    1    4    4    0    0  0.34935232369E+02 -0.20737026383E+02 -0.75877791426E+02  0.86069355497E+02  0.00000000000E+00 0.  1.
         13    1    4    4    0    0 -0.21869176402E+02  0.23440372214E+02  0.10063416609E+01  0.32073737693E+02  0.00000000000E+00 0. -1.
          3    1    1    2  501    0  0.95330207855E+01  0.25239880647E+02  0.34536706228E+02  0.43825952785E+02  0.00000000000E+00 0. -1.
<scales pt_clust_5="13000.00000" pt_clust_6="13000.00000" pt_clust_7="13000.00000" pt_clust_8="13000.00000" pt_clust_9="26.98018"></scales>
<clustering>
<clus scale="   26.980">  1  9  2 -1</clus>
<clus scale="   79.603">  5  6 -1 -1</clus>
<clus scale="   85.322">  2  5  1 -1</clus>
<clus scale="   90.410">  7  8 -1 -1</clus>
<clus scale="   26.980">  1  5  2 -1</clus>
</clustering>
</event>
<event>
 9    2  0.6175212E-005  0.8618252E+02  0.7546771E-02  0.1314918E+00
         21   -1    0    0  501  502  0.00000000000E+00  0.00000000000E+00  0.91583179255E+02  0.91583179255E+02  0.00000000000E+00 0. -1.
          2   -1    0    0  502    0 -0.00000000000E+00 -0.00000000000E+00 -0.13040169238E+03  0.13040169238E+03  0.00000000000E+00 0. -1.
         24    2    1    2    0    0 -0.11467364656E+02 -0.40807747301E+01 -0.23556111792E+02  0.82975513678E+02  0.78625010606E+02 0.  0.
         23    2    1    2    0    0  0.46803771684E+02 -0.37153908938E+00  0.97303670248E+01  0.95499321985E+02  0.82672301117E+02 0.  0.
        -11    1    3    3    0    0  0.63353972860E+00 -0.39495047238E+02 -0.22663953115E+02  0.45540255815E+02  0.00000000000E+00 0.  1.
         12    1    3    3    0    0 -0.12100904384E+02  0.35414272508E+02 -0.89215867650E+00  0.37435257863E+02  0.00000000000E+00 0. -1.
        -13    1    4    4    0    0 -0.15233799965E+02  0.14344473817E+02  0.22227584928E+02  0.30527006440E+02  0.00000000000E+00 0.  1.
         13    1    4    4    0    0  0.62037571649E+02 -0.14716012907E+02 -0.12497217903E+02  0.64972315545E+02  0.00000000000E+00 0. -1.
          1    1    1    2  501    0 -0.35336407028E+02  0.44523138195E+01 -0.24992768356E+02  0.43510035970E+02  0.00000000000E+00 0. -1.
<scales pt_clust_5="13000.00000" pt_clust_6="13000.00000" pt_clust_7="13000.00000" pt_clust_8="13000.00000" pt_clust_9="35.61581"></scales>
<clustering>
<clus scale="   35.616">  1  9  2 -1</clus>
<clus scale="   78.625">  5  6 -1 -1</clus>
<clus scale="   82.308">  2  5  1 -1</clus>
<clus scale="   82.672">  7  8 -1 -1</clus>
<clus scale="   35.616">  1  5  2 -1</clus>
</clustering>
</event>
<event>
 9    2  0.6175212E-005  0.1387455E+03  0.7546771E-02  0.1224086E+00
         21   -1    0    0  501  502  0.00000000000E+00  0.00000000000E+00  0.25240459475E+03  0.25240459475E+03  0.00000000000E+00 0.  1.
         -1   -1    0    0    0  501 -0.00000000000E+00 -0.00000000000E+00 -0.21913437250E+03  0.21913437250E+03  0.00000000000E+00 0.  1.
         24    2    1    2    0    0 -0.38128125679E+01 -0.90764578606E+02 -0.91514247566E+02  0.14673205363E+03  0.70019224393E+02 0.  0.
         23    2    1    2    0    0 -0.46902395230E+02 -0.49241276662E+02  0.12166904605E+03  0.17586606068E+03  0.10724260592E+03 0.  0.
        -13    1    3    3    0    0  0.36831411870E+01 -0.90019962495E+02 -0.47062638293E+02  0.10164669744E+03  0.00000000000E+00 0.  1.
         14    1    3    3    0    0 -0.74959537548E+01 -0.74461611116E+00 -0.44451609273E+02  0.45085356190E+02  0.00000000000E+00 0. -1.
        -11    1    4    4    0    0 -0.56310277604E+02 -0.78149325837E+02  0.97181825563E+02  0.13683008336E+03  0.00000000000E+00 0.  1.
         11    1    4    4    0    0  0.94078823736E+01  0.28908049175E+02  0.24487220488E+02  0.39035977317E+02  0.00000000000E+00 0. -1.
         -2    1    1    2    0  502  0.50715207798E+02  0.14000585527E+03  0.31154237601E+01  0.14894085295E+03  0.00000000000E+00 0.  1.
<scales pt_clust_5="13000.00000" pt_clust_6="13000.00000" pt_clust_7="13000.00000" pt_clust_8="13000.00000" pt_clust_9="88.03029"></scales>
<clustering>
<clus scale="   70.019">  5  6 -1 -1</clus>
<clus scale="  107.243">  7  8 -1 -1</clus>
<clus scale="  114.697">  2  5  1 -1</clus>
<clus scale="   88.030">  1  9  2 -1</clus>
<clus scale="   88.030">  1  5  2 -1</clus>
</clustering>
</event>
<event>
 9    2  0.6175212E-005  0.1620387E+03  0.7546771E-02  0.1210340E+00
         21   -1    0    0  501  502  0.00000000000E+00  0.00000000000E+00  0.22262096723E+03  0.22262096723E+03  0.00000000000E+00 0. -1.
          2   -1    0    0  502    0 -0.00000000000E+00 -0.00000000000E+00 -0.18209674324E+03  0.18209674324E+03  0.00000000000E+00 0. -1.
         24    2    1    2    0    0  0.44323519027E+02 -0.30534672005E+02  0.37282895874E+02  0.10319510352E+03  0.79763867334E+02 0.  0.
         23    2    1    2    0    0 -0.46906877464E+02  0.14997224846E+03  0.10992270755E+02  0.18180591837E+03  0.90777923945E+02 0.  0.
        -13    1    3    3    0    0 -0.27720221176E+01 -0.46196273620E+02  0.22156942934E+02  0.51309939809E+02  0.00000000000E+00 0.  1.
         14    1    3    3    0    0  0.47095541145E+02  0.15661601615E+02  0.15125952940E+02  0.51885163710E+02  0.00000000000E+00 0. -1.
        -11    1    4    4    0    0 -0.74843745191E+01  0.43623069022E+02  0.45276952794E+02  0.63316589194E+02  0.00000000000E+00 0.  1.
         11    1    4    4    0    0 -0.39422502945E+02  0.10634917944E+03 -0.34284682039E+02  0.11848932918E+03  0.00000000000E+00 0. -1.
          1    1    1    2  501    0  0.25833584371E+01 -0.11943757646E+03 -0.77509426428E+01  0.11971668857E+03  0.00000000000E+00 0. -1.
<scales pt_clust_5="13000.00000" pt_clust_6="13000.00000" pt_clust_7="13000.00000" pt_clust_8="13000.00000" pt_clust_9="134.22340"></scales>
<clustering>
<clus scale="   79.764">  5  6 -1 -1</clus>
<clus scale="   90.778">  7  8 -1 -1</clus>
<clus scale="   96.225">  2  5  1 -1</clus>
<clus scale="  134.223">  1  9  2 -1</clus>
<clus scale="  134.223">  1  5  2 -1</clus>
</clustering>
</event>
<event>
 9    2  0.6175212E-005  0.9474041E+02  0.7546771E-02  0.1299020E+00
         21   -1    0    0  501  502  0.00000000000E+00  0.00000000000E+00  0.18181894600E+02  0.18181894600E+02  0.00000000000E+00 0.  1.
          2   -1    0    0  502    0 -0.00000000000E+00 -0.00000000000E+00 -0.59573890204E+03  0.59573890204E+03  0.00000000000E+00 0. -1.
         24    2    1    2    0    0 -0.32663109427E+02  0.17699543694E+02 -0.29999475608E+03  0.31226732940E+03  0.78319083082E+02 0.  0.
         23    2    1    2    0    0  0.12558671523E+02 -0.10533521025E+01 -0.22461294875E+03  0.24262031752E+03  0.90855995658E+02 0.  0.
        -11    1    3    3    0    0  0.20282823346E+02  0.23721305381E+02 -0.79066784184E+02  0.85003821167E+02  0.00000000000E+00 0.  1.
         12    1    3    3    0    0 -0.52945932774E+02 -0.60217616868E+01 -0.22092797189E+03  0.22726350824E+03  0.00000000000E+00 0. -1.
        -13    1    4    4    0    0 -0.13967142351E+02  0.37610117588E+02 -0.14274661235E+03  0.14827743371E+03  0.00000000000E+00 0. -1.
         13    1    4    4    0    0  0.26525813874E+02 -0.38663469690E+02 -0.81866336398E+02  0.94342883809E+02  0.00000000000E+00 0.  1.
          1    1    1    2  501    0  0.20104437904E+02 -0.16646191591E+02 -0.52949302608E+02  0.59033149709E+02  0.00000000000E+00 0. -1.
<scales pt_clust_5="13000.00000" pt_clust_6="13000.00000" pt_clust_7="13000.00000" pt_clust_8="13000.00000" pt_clust_9="26.10142"></scales>
<clustering>
<clus scale="   26.101">  1  9  2 -1</clus>
<clus scale="   78.319">  5  6 -1 -1</clus>
<clus scale="   82.794">  2  5  1 -1</clus>
<clus scale="   90.856">  7  8 -1 -1</clus>
<clus scale="   26.101">  1  5  2 -1</clus>
</clustering>
</event>
<event>
 9    2  0.6175212E-005  0.1141030E+03  0.7546771E-02  0.1256367E+00
         21   -1    0    0  501  502  0.00000000000E+00  0.00000000000E+00  0.28971621808E+02  0.28971621808E+02  0.00000000000E+00 0.  1.
          2   -1    0    0  502    0 -0.00000000000E+00 -0.00000000000E+00 -0.77716665769E+03  0.77716665769E+03  0.00000000000E+00 0. -1.
         23    2    1    2    0    0  0.40975481167E+02  0.21300173687E+02 -0.22236933215E+03  0.24462813119E+03  0.90896178325E+02 0.  0.
         24    2    1    2    0    0 -0.74137522881E+02 -0.67644695607E+02 -0.27064908238E+03  0.30004763893E+03  0.81887011752E+02 0.  0.
        -13    1    4    4    0    0 -0.88849361698E+02 -0.38865708293E+02 -0.19502540452E+03  0.21780647548E+03  0.00000000000E+00 0.  1.
         14    1    4    4    0    0  0.14711838817E+02 -0.28778987314E+02 -0.75623677864E+02  0.82241163451E+02  0.00000000000E+00 0. -1.
        -11    1    3    3    0    0 -0.20862751323E+02  0.30197062259E+02 -0.56413799825E+02  0.67302553982E+02  0.00000000000E+00 0. -1.
         11    1    3    3    0    0  0.61838232490E+02 -0.88968885722E+01 -0.16595553233E+03  0.17732557721E+03  0.00000000000E+00 0.  1.
          1    1    1    2  501    0  0.33162041714E+02  0.46344521920E+02 -0.25517662136E+03  0.26146250938E+03  0.00000000000E+00 0. -1.
<scales pt_clust_5="13000.00000" pt_clust_6="13000.00000" pt_clust_7="13000.00000" pt_clust_8="13000.00000" pt_clust_9="56.98718"></scales>
<clustering>
<clus scale="   56.987">  1  9  2 -1</clus>
<clus scale="   81.887">  5  6 -1 -1</clus>
<clus scale="   90.896">  7  8 -1 -1</clus>
<clus scale="  107.065">  1  5  2 -1</clus>
<clus scale="   56.987">  1  5  2 -1</clus>
</clustering>
</event>
<event>
 9    2  0.6175212E-005  0.9009377E+02  0.7546771E-02  0.1303381E+00
          2   -1    0    0  502    0 -0.00000000000E+00  0.00000000000E+00  0.89393549280E+03  0.89393549280E+03  0.00000000000E+00 0. -1.
         21   -1    0    0  501  502  0.00000000000E+00 -0.00000000000E+00 -0.16290869477E+02  0.16290869477E+02  0.00000000000E+00 0. -1.
         24    2    1    2    0    0  0.19779695699E+02 -0.18681898002E+02  0.59251394741E+03  0.59930007543E+03  0.85717867785E+02 0.  0.
         23    2    1    2    0    0 -0.23241881659E+02 -0.77368996056E+01  0.25580381140E+03  0.27130300353E+03  0.87003937388E+02 0.  0.
        -11    1    3    3    0    0 -0.62777069072E+01  0.21833926288E+02  0.53315160226E+02  0.57953742339E+02  0.00000000000E+00 0.  1.
         12    1    3    3    0    0  0.26057402606E+02 -0.40515824290E+02  0.53919878718E+03  0.54134633309E+03  0.00000000000E+00 0. -1.
        -11    1    4    4    0    0 -0.43360528471E+01  0.32099822754E+02  0.42215315379E+02  0.53210269945E+02  0.00000000000E+00 0.  1.
         11    1    4    4    0    0 -0.18905828812E+02 -0.39836722359E+02  0.21358849602E+03  0.21809273359E+03  0.00000000000E+00 0. -1.
          1    1    1    2  501    0  0.34621859607E+01  0.26418797608E+02  0.29326864517E+02  0.39623283320E+02  0.00000000000E+00 0. -1.
<scales pt_clust_5="13000.00000" pt_clust_6="13000.00000" pt_clust_7="13000.00000" pt_clust_8="13000.00000" pt_clust_9="26.64469"></scales>
<clustering>
<clus scale="   26.645">  2  9  1 -1</clus>
<clus scale="   85.718">  5  6 -1 -1</clus>
<clus scale="   87.004">  7  8 -1 -1</clus>
<clus scale="   88.852">  1  5  2 -1</clus>
<clus scale="   26.645">  2  5  1 -1</clus>
</clustering>
</event>
<event>
 9    2  0.6175212E-005  0.1595710E+03  0.7546771E-02  0.1202560E+00
         21   -1    0    0  501  502  0.00000000000E+00  0.00000000000E+00  0.52853534210E+02  0.52853534210E+02  0.00000000000E+00 0.  1.
          2   -1    0    0  502    0 -0.00000000000E+00 -0.00000000000E+00 -0.12894393473E+04  0.12894393473E+04  0.00000000000E+00 0. -1.
         24    2    1    2    0    0  0.80580404249E+02 -0.35851563410E+02 -0.10645569729E+03  0.15973296297E+03  0.80020421318E+02 0.  0.
         23    2    1    2    0    0 -0.98140144038E+02 -0.97265485026E+02 -0.30850847996E+03  0.35003928484E+03  0.90873297913E+02 0.  0.
        -13    1    3    3    0    0  0.46753933726E+02 -0.38926147468E+01 -0.38572669491E+01  0.47073997884E+02  0.00000000000E+00 0.  1.
         14    1    3    3    0    0  0.33826470523E+02 -0.31958948663E+02 -0.10259843034E+03  0.11265896509E+03  0.00000000000E+00 0. -1.
        -11    1    4    4    0    0 -0.10704562916E+03 -0.71608430573E+02 -0.28960222363E+03  0.31694791683E+03  0.00000000000E+00 0.  1.
         11    1    4    4    0    0  0.89054851189E+01 -0.25657054453E+02 -0.18906256335E+02  0.33091368013E+02  0.00000000000E+00 0. -1.
          1    1    1    2  501    0  0.17559739789E+02  0.13311704844E+03 -0.82162163585E+03  0.83252063371E+03  0.00000000000E+00 0. -1.
<scales pt_clust_5="13000.00000" pt_clust_6="13000.00000" pt_clust_7="13000.00000" pt_clust_8="13000.00000" pt_clust_9="131.16774"></scales>
<clustering>
<clus scale="   80.020">  5  6 -1 -1</clus>
<clus scale="   90.873">  7  8 -1 -1</clus>
<clus scale="  119.087">  2  5  1 -1</clus>
<clus scale="  131.168">  1  9  2 -1</clus>
<clus scale="  131.168">  1  5  2 -1</clus>
</clustering>
</event>
<event>
 9    2  0.6175212E-005  0.1315090E+03  0.7546771E-02  0.1228397E+00
         -1   -1    0    0    0  501 -0.00000000000E+00  0.00000000000E+00  0.17556447412E+03  0.17556447412E+03  0.00000000000E+00 0.  1.
         21   -1    0    0  501  502  0.00000000000E+00 -0.00000000000E+00 -0.36492535617E+03  0.36492535617E+03  0.00000000000E+00 0.  1.
         24    2    1    2    0    0 -0.82783371875E+02 -0.25669347938E+02  0.81900476325E+02  0.14381271590E+03  0.80389098442E+02 0.  0.
         23    2    1    2    0    0  0.14993471480E+03 -0.52409849016E+02 -0.14799726855E+03  0.23605426518E+03  0.92688799946E+02 0.  0.
        -11    1    3    3    0    0 -0.21306755339E+02 -0.44126554141E+02  0.56482405659E+02  0.74775616029E+02  0.00000000000E+00 0.  1.
         12    1    3    3    0    0 -0.61476616536E+02  0.18457206203E+02  0.25418070666E+02  0.69037099866E+02  0.00000000000E+00 0. -1.
        -13    1    4    4    0    0  0.35385130167E+02  0.20561198924E+02 -0.65227660927E+02  0.77003364135E+02  0.00000000000E+00 0. -1.
         13    1    4    4    0    0  0.11454958463E+03 -0.72971047941E+02 -0.82769607620E+02  0.15905090104E+03  0.00000000000E+00 0.  1.
         -2    1    1    2    0  502 -0.67151342921E+02  0.78079196954E+02 -0.12326408983E+03  0.16062284923E+03  0.00000000000E+00 0.  1.
<scales pt_clust_5="13000.00000" pt_clust_6="13000.00000" pt_clust_7="13000.00000" pt_clust_8="13000.00000" pt_clust_9="102.98380"></scales>
<clustering>
<clus scale="   80.389">  5  6 -1 -1</clus>
<clus scale="   92.689">  7  8 -1 -1</clus>
<clus scale="  102.984">  2  9  1 -1</clus>
<clus scale="  123.150">  1  5  2 -1</clus>
<clus scale="  102.984">  2  5  1 -1</clus>
</clustering>
</event>
<event>
 9    2  0.6175212E-005  0.1294604E+03  0.7546771E-02  0.1231679E+00
          2   -1    0    0  502    0 -0.00000000000E+00  0.00000000000E+00  0.27188510240E+03  0.27188510240E+03  0.00000000000E+00 0. -1.
         21   -1    0    0  501  502  0.00000000000E+00 -0.00000000000E+00 -0.11163143204E+03  0.11163143204E+03  0.00000000000E+00 0.  1.
         24    2    1    2    0    0  0.33165709120E+02 -0.10101791596E+03  0.12351163728E+03  0.18170687870E+03  0.80359701452E+02 0.  0.
         23    2    1    2    0    0 -0.22449472152E+02  0.44478603196E+02 -0.33718506279E+02  0.11083592750E+03  0.93087809179E+02 0.  0.
        -11    1    3    3    0    0  0.11944597989E+02 -0.35423317088E+02 -0.31320409001E+01  0.37513924013E+02  0.00000000000E+00 0.  1.
         12    1    3    3    0    0  0.21221111131E+02 -0.65594598876E+02  0.12664367818E+03  0.14419295469E+03  0.00000000000E+00 0. -1.
        -13    1    4    4    0    0 -0.27517397814E+02  0.23616999623E+02 -0.64093160648E+02  0.73640363222E+02  0.00000000000E+00 0.  1.
         13    1    4    4    0    0  0.50679256621E+01  0.20861603573E+02  0.30374654369E+02  0.37195564281E+02  0.00000000000E+00 0. -1.
          1    1    1    2  501    0 -0.10716236968E+02  0.56539312768E+02  0.70460539355E+02  0.90973728236E+02  0.00000000000E+00 0. -1.
<scales pt_clust_5="13000.00000" pt_clust_6="13000.00000" pt_clust_7="13000.00000" pt_clust_8="13000.00000" pt_clust_9="57.54594"></scales>
<clustering>
<clus scale="   57.546">  2  9  1 -1</clus>
<clus scale="   80.360">  5  6 -1 -1</clus>
<clus scale="   93.088">  7  8 -1 -1</clus>
<clus scale="  120.633">  1  5  2 -1</clus>
<clus scale="   57.546">  2  5  1 -1</clus>
</clustering>
</event>
<event>
 9    2  0.6175212E-005  0.1045722E+03  0.7546771E-02  0.1271253E+00
          2   -1    0    0  502    0 -0.00000000000E+00  0.00000000000E+00  0.71767932859E+03  0.71767932859E+03  0.00000000000E+00 0. -1.
         21   -1    0    0  501  502  0.00000000000E+00 -0.00000000000E+00 -0.32361841555E+02  0.32361841555E+02  0.00000000000E+00 0. -1.
         24    2    1    2    0    0 -0.53901070606E+02 -0.23461315352E+02  0.54780454448E+03  0.55747521588E+03  0.85047272918E+02 0.  0.
         23    2    1    2    0    0  0.55619972926E+02  0.45733327292E+02  0.12445334128E+03  0.16669028372E+03  0.84332069320E+02 0.  0.
        -13    1    3    3    0    0  0.16048832628E+02 -0.24449965522E+02  0.98267649045E+02  0.10252754114E+03  0.00000000000E+00 0.  1.
         14    1    3    3    0    0 -0.69949903234E+02  0.98865017003E+00  0.44953689544E+03  0.45494767474E+03  0.00000000000E+00 0. -1.
        -13    1    4    4    0    0  0.31818735124E+02  0.69765383227E+02  0.92627065454E+02  0.12024730291E+03  0.00000000000E+00 0. -1.
         13    1    4    4    0    0  0.23801237802E+02 -0.24032055936E+02  0.31826275829E+02  0.46442980810E+02  0.00000000000E+00 0.  1.
          1    1    1    2  501    0 -0.17189023197E+01 -0.22272011939E+02  0.13059601264E+02  0.25875670546E+02  0.00000000000E+00 0. -1.
<scales pt_clust_5="13000.00000" pt_clust_6="13000.00000" pt_clust_7="13000.00000" pt_clust_8="13000.00000" pt_clust_9="22.33824"></scales>
<clustering>
<clus scale="   22.338">  2  9  1 -1</clus>
<clus scale="   84.332">  7  8 -1 -1</clus>
<clus scale="   85.047">  5  6 -1 -1</clus>
<clus scale="  103.991">  2  7  1 -1</clus>
<clus scale="   22.338">  2  5  1 -1</clus>
</clustering>
</event>
<event>
 9    2  0.6175212E-005  0.9636614E+02  0.7546771E-02  0.1290159E+00
         21   -1    0    0  501  502  0.00000000000E+00  0.00000000000E+00  0.15043810921E+02  0.15043810921E+02  0.00000000000E+00 0.  1.
          4   -1    0    0  502    0 -0.00000000000E+00 -0.00000000000E+00 -0.86943742397E+03  0.86943742397E+03  0.00000000000E+00 0. -1.
         24    2    1    2    0    0  0.17888836140E+02 -0.15540456471E+02 -0.50887603110E+03  0.51692551278E+03  0.87724879557E+02 0.  0.
         23    2    1    2    0    0 -0.25567804630E+02  0.35659194024E+02 -0.30805314987E+03  0.32434329532E+03  0.91523435920E+02 0.  0.
        -11    1    3    3    0    0  0.52707994103E+02 -0.12552442687E+02 -0.25807209039E+03  0.26369850265E+03  0.00000000000E+00 0.  1.
         12    1    3    3    0    0 -0.34819157963E+02 -0.29880137839E+01 -0.25080394071E+03  0.25322701013E+03  0.00000000000E+00 0. -1.
        -13    1    4    4    0    0  0.19480056538E+02  0.47369578778E+02 -0.11731992480E+03  0.12801294603E+03  0.00000000000E+00 0.  1.
         13    1    4    4    0    0 -0.45047861167E+02 -0.11710384754E+02 -0.19073322507E+03  0.19633034929E+03  0.00000000000E+00 0. -1.
          3    1    1    2  501    0  0.76789684900E+01 -0.20118737553E+02 -0.37464432086E+02  0.43212426793E+02  0.00000000000E+00 0. -1.
<scales pt_clust_5="13000.00000" pt_clust_6="13000.00000" pt_clust_7="13000.00000" pt_clust_8="13000.00000" pt_clust_9="21.53439"></scales>
<clustering>
<clus scale="   21.534">  1  9  2 -1</clus>
<clus scale="   87.725">  5  6 -1 -1</clus>
<clus scale="   91.523">  7  8 -1 -1</clus>
<clus scale="   92.766">  2  5  1 -1</clus>
<clus scale="   21.534">  1  5  2 -1</clus>
</clustering>
</event>
<event>
 9    2  0.6175212E-005  0.9486763E+02  0.7546771E-02  0.1300732E+00
          2   -1    0    0  502    0 -0.00000000000E+00  0.00000000000E+00  0.37865995892E+03  0.37865995892E+03  0.00000000000E+00 0. -1.
         21   -1    0    0  501  502  0.00000000000E+00 -0.00000000000E+00 -0.49452984679E+02  0.49452984679E+02  0.00000000000E+00 0.  1.
         24    2    1    2    0    0 -0.29848944967E+01 -0.12195625676E+02  0.18363815472E+03  0.19964591894E+03  0.77316739461E+02 0.  0.
         23    2    1    2    0    0  0.89135426806E+01  0.54783762588E+02  0.41288663554E+02  0.11566964347E+03  0.92703833768E+02 0.  0.
        -11    1    3    3    0    0  0.24787626513E+02 -0.24892447052E+02  0.15065707217E+03  0.15469846070E+03  0.00000000000E+00 0.  1.
         12    1    3    3    0    0 -0.27772521009E+02  0.12696821376E+02  0.32981082549E+02  0.44947458241E+02  0.00000000000E+00 0. -1.
        -13    1    4    4    0    0 -0.31221201268E+02  0.96003360876E+01 -0.12294911782E+02  0.34901213694E+02  0.00000000000E+00 0.  1.
         13    1    4    4    0    0  0.40134743948E+02  0.45183426500E+02  0.53583575337E+02  0.80768429772E+02  0.00000000000E+00 0. -1.
          1    1    1    2  501    0 -0.59286481839E+01 -0.42588136911E+02  0.10428015596E+03  0.11279738119E+03  0.00000000000E+00 0. -1.
<scales pt_clust_5="13000.00000" pt_clust_6="13000.00000" pt_clust_7="13000.00000" pt_clust_8="13000.00000" pt_clust_9="42.99884"></scales>
<clustering>
<clus scale="   42.999">  2  9  1 -1</clus>
<clus scale="   77.317">  5  6 -1 -1</clus>
<clus scale="   79.898">  1  5  2 -1</clus>
<clus scale="   92.704">  7  8 -1 -1</clus>
<clus scale="   42.999">  2  5  1 -1</clus>
</clustering>
</event>
<event>
 9    2  0.6175212E-005  0.1495888E+03  0.7546771E-02  0.1202930E+00
         -3   -1    0    0    0  501 -0.00000000000E+00  0.00000000000E+00  0.71072985357E+03  0.71072985357E+03  0.00000000000E+00 0.  1.
         21   -1    0    0  501  502  0.00000000000E+00 -0.00000000000E+00 -0.17159542194E+03  0.17159542194E+03  0.00000000000E+00 0.  1.
         24    2    1    2    0    0  0.29355615437E+02  0.11491922076E+03  0.62881547825E+03  0.64485137473E+03  0.79725844912E+02 0.  0.
         23    2    1    2    0    0  0.19686644952E+02 -0.13708143071E+03 -0.75674826555E+02  0.18186382027E+03  0.90381895953E+02 0.  0.
        -13    1    3    3    0    0  0.56055431857E+02  0.69310719998E+02  0.35833796449E+03  0.36925910164E+03  0.00000000000E+00 0.  1.
         14    1    3    3    0    0 -0.26699816420E+02  0.45608500763E+02  0.27047751376E+03  0.27559227309E+03  0.00000000000E+00 0. -1.
        -13    1    4    4    0    0  0.39856968456E+02 -0.13944160816E+03 -0.67641236316E+02  0.16002461333E+03  0.00000000000E+00 0.  1.
         13    1    4    4    0    0 -0.20170323504E+02  0.23601774516E+01 -0.80335902392E+01  0.21839206945E+02  0.00000000000E+00 0. -1.
         -4    1    1    2    0  502 -0.49042260389E+02  0.22162209944E+02 -0.14006220066E+02  0.55610080508E+02  0.00000000000E+00 0.  1.
<scales pt_clust_5="13000.00000" pt_clust_6="13000.00000" pt_clust_7="13000.00000" pt_clust_8="13000.00000" pt_clust_9="53.81735"></scales>
<clustering>
<clus scale="   53.817">  2  9  1 -1</clus>
<clus scale="   79.726">  5  6 -1 -1</clus>
<clus scale="   90.382">  7  8 -1 -1</clus>
<clus scale="  143.402">  1  5  2 -1</clus>
<clus scale="   53.817">  2  5  1 -1</clus>
</clustering>
</event>
<event>
 9    2  0.6175212E-005  0.2257527E+03  0.7546771E-02  0.1161194E+00
         21   -1    0    0  501  502  0.00000000000E+00  0.00000000000E+00  0.50532977868E+03  0.50532977868E+03  0.00000000000E+00 0.  1.
          2   -1    0    0  502    0 -0.00000000000E+00 -0.00000000000E+00 -0.42197640434E+03  0.42197640434E+03  0.00000000000E+00 0. -1.
         24    2    1    2    0    0 -0.67659766715E+02 -0.13806890276E+02  0.31894038115E+03  0.33618466990E+03  0.80800317469E+02 0.  0.
         23    2    1    2    0    0 -0.19118323428E+03 -0.20328123618E+02  0.35158267400E+02  0.21499932308E+03  0.89578699932E+02 0.  0.
        -13    1    3    3    0    0 -0.31043175423E+02  0.31133679193E+02  0.92121860134E+02  0.10207556924E+03  0.00000000000E+00 0.  1.
         14    1    3    3    0    0 -0.36616591292E+02 -0.44940569469E+02  0.22681852101E+03  0.23410910067E+03  0.00000000000E+00 0. -1.
        -13    1    4    4    0    0 -0.16259829195E+02 -0.32656541972E+02  0.20057430158E+01  0.36535664549E+02  0.00000000000E+00 0. -1.
         13    1    4    4    0    0 -0.17492340508E+03  0.12328418354E+02  0.33152524384E+02  0.17846365853E+03  0.00000000000E+00 0.  1.
          1    1    1    2  501    0  0.25884300099E+03  0.34135013895E+02 -0.27074527420E+03  0.37612219004E+03  0.00000000000E+00 0. -1.
<scales pt_clust_5="13000.00000" pt_clust_6="13000.00000" pt_clust_7="13000.00000" pt_clust_8="13000.00000" pt_clust_9="207.21964"></scales>
<clustering>
<clus scale="   80.800">  5  6 -1 -1</clus>
<clus scale="   89.579">  7  8 -1 -1</clus>
<clus scale="  106.288">  2  5  1 -1</clus>
<clus scale="  207.220">  1  9  2 -1</clus>
<clus scale="  207.220">  1  5  2 -1</clus>
</clustering>
</event>
<event>
 9    2  0.6175212E-005  0.1043065E+03  0.7546771E-02  0.1277200E+00
          2   -1    0    0  502    0 -0.00000000000E+00  0.00000000000E+00  0.13097508888E+04  0.13097508888E+04  0.00000000000E+00 0. -1.
         21   -1    0    0  501  502  0.00000000000E+00 -0.00000000000E+00 -0.34812792499E+02  0.34812792499E+02  0.00000000000E+00 0.  1.
         24    2    1    2    0    0  0.27887668557E+02 -0.39082599698E+02  0.11407581641E+04  0.11446708415E+04  0.81467630268E+02 0.  0.
         23    2    1    2    0    0 -0.37750541639E+02  0.43200849997E+01  0.12819026575E+03  0.16326518906E+03  0.93696377711E+02 0.  0.
        -13    1    3    3    0    0 -0.61704012587E+01 -0.25650443914E+02  0.10492642062E+03  0.10819229580E+03  0.00000000000E+00 0.  1.
         14    1    3    3    0    0  0.34058069816E+02 -0.13432155784E+02  0.10358317435E+04  0.10364785457E+04  0.00000000000E+00 0. -1.
        -11    1    4    4    0    0 -0.64059477618E+02  0.36387396707E+01  0.51781574995E+02  0.82451128604E+02  0.00000000000E+00 0.  1.
         11    1    4    4    0    0  0.26308935980E+02  0.68134532894E+00  0.76408690758E+02  0.80814060455E+02  0.00000000000E+00 0. -1.
          1    1    1    2  501    0  0.98628730813E+01  0.34762514698E+02  0.59896664411E+01  0.36627650725E+02  0.00000000000E+00 0. -1.
<scales pt_clust_5="13000.00000" pt_clust_6="13000.00000" pt_clust_7="13000.00000" pt_clust_8="13000.00000" pt_clust_9="36.13459"></scales>
<clustering>
<clus scale="   36.135">  2  9  1 -1</clus>
<clus scale="   81.468">  5  6 -1 -1</clus>
<clus scale="   93.476">  1  5  2 -1</clus>
<clus scale="   93.696">  7  8 -1 -1</clus>
<clus scale="   36.135">  2  5  1 -1</clus>
</clustering>
</event>
<event>
 9    2  0.6175212E-005  0.9586795E+02  0.7546771E-02  0.1295068E+00
         21   -1    0    0  501  502  0.00000000000E+00  0.00000000000E+00  0.82297099397E+02  0.82297099397E+02  0.00000000000E+00 0. -1.
          2   -1    0    0  502    0 -0.00000000000E+00 -0.00000000000E+00 -0.25816721270E+03  0.25816721270E+03  0.00000000000E+00 0. -1.
         24    2    1    2    0    0 -0.24469881670E+02  0.59520221722E+01 -0.16854255292E+03  0.18888199559E+03  0.81459280839E+02 0.  0.
         23    2    1    2    0    0  0.44084142285E+02 -0.13957539058E+01  0.32511221102E+02  0.10694368627E+03  0.91840148109E+02 0.  0.
        -13    1    3    3    0    0  0.27566488174E+02 -0.92973768798E+01 -0.40826014771E+02  0.50130988113E+02  0.00000000000E+00 0.  1.
         14    1    3    3    0    0 -0.52036369844E+02  0.15249399052E+02 -0.12771653815E+03  0.13875100747E+03  0.00000000000E+00 0. -1.
        -11    1    4    4    0    0 -0.25105698311E+02  0.68753669233E+01 -0.68451877884E+01  0.26915113855E+02  0.00000000000E+00 0.  1.
         11    1    4    4    0    0  0.69189840595E+02 -0.82711208291E+01  0.39356408891E+02  0.80028572411E+02  0.00000000000E+00 0. -1.
          1    1    1    2  501    0 -0.19614260615E+02 -0.45562682665E+01 -0.39838781490E+02  0.44638630250E+02  0.00000000000E+00 0. -1.
<scales pt_clust_5="13000.00000" pt_clust_6="13000.00000" pt_clust_7="13000.00000" pt_clust_8="13000.00000" pt_clust_9="20.13651"></scales>
<clustering>
<clus scale="   20.137">  1  9  2 -1</clus>
<clus scale="   81.459">  5  6 -1 -1</clus>
<clus scale="   85.975">  2  5  1 -1</clus>
<clus scale="   91.840">  7  8 -1 -1</clus>
<clus scale="   20.137">  1  5  2 -1</clus>
</clustering>
</event>
<event>
 9    2  0.6175212E-005  0.3931478E+03  0.7546771E-02  0.1097029E+00
          2   -1    0    0  502    0 -0.00000000000E+00  0.00000000000E+00  0.10270032972E+04  0.10270032972E+04  0.00000000000E+00 0. -1.
         21   -1    0    0  501  502  0.00000000000E+00 -0.00000000000E+00 -0.18647190524E+03  0.18647190524E+03  0.00000000000E+00 0.  1.
         24    2    1    2    0    0  0.55312466029E+02  0.40883607488E+01  0.85809318692E+02  0.13001111047E+03  0.80395684461E+02 0.  0.
         23    2    1    2    0    0  0.25783820954E+03  0.25150529091E+03  0.39392781962E+03  0.54164866783E+03  0.92025532541E+02 0.  0.
        -11    1    3    3    0    0  0.59792614448E+02 -0.27351737291E+02  0.54306108524E+02  0.85278530114E+02  0.00000000000E+00 0.  1.
         12    1    3    3    0    0 -0.44801484186E+01  0.31440098040E+02  0.31503210168E+02  0.44732580358E+02  0.00000000000E+00 0. -1.
        -13    1    4    4    0    0  0.15126618364E+03  0.14143197293E+03  0.29065181755E+03  0.35687944789E+03  0.00000000000E+00 0.  1.
         13    1    4    4    0    0  0.10657202590E+03  0.11007331798E+03  0.10327600207E+03  0.18476921994E+03  0.00000000000E+00 0. -1.
          1    1    1    2  501    0 -0.31315067557E+03 -0.25559365166E+03  0.36079425369E+03  0.54181542418E+03  0.00000000000E+00 0. -1.
<scales pt_clust_5="13000.00000" pt_clust_6="13000.00000" pt_clust_7="13000.00000" pt_clust_8="13000.00000" pt_clust_9="382.22567"></scales>
<clustering>
<clus scale="   80.396">  5  6 -1 -1</clus>
<clus scale="   92.026">  7  8 -1 -1</clus>
<clus scale="   97.671">  1  5  2 -1</clus>
<clus scale="  382.226">  2  9  1 -1</clus>
<clus scale="  382.226">  2  5  1 -1</clus>
</clustering>
</event>
<event>
 9    2  0.6175212E-005  0.1333369E+03  0.7546771E-02  0.1226121E+00
          2   -1    0    0  502    0 -0.00000000000E+00  0.00000000000E+00  0.81780631830E+03  0.81780631830E+03  0.00000000000E+00 0. -1.
         21   -1    0    0  501  502  0.00000000000E+00 -0.00000000000E+00 -0.46093573719E+02  0.46093573719E+02  0.00000000000E+00 0. -1.
         24    2    1    2    0    0  0.28152554139E+01  0.86019005267E+02  0.46970858820E+03  0.48378440569E+03  0.77549973759E+02 0.  0.
         23    2    1    2    0    0 -0.41444685200E+02 -0.12718813049E+03  0.27051705105E+03  0.31547364602E+03  0.91922053688E+02 0.  0.
        -13    1    3    3    0    0  0.26268542706E+02  0.79792980869E+02  0.27431025589E+03  0.28688512095E+03  0.00000000000E+00 0.  1.
         14    1    3    3    0    0 -0.23453287292E+02  0.62260243980E+01  0.19539833231E+03  0.19689928474E+03  0.00000000000E+00 0. -1.
        -13    1    4    4    0    0  0.52538670999E+00 -0.11697057830E+03  0.17318178655E+03  0.20898402669E+03  0.00000000000E+00 0.  1.
         13    1    4    4    0    0 -0.41970071910E+02 -0.10217552185E+02  0.97335264501E+02  0.10648961933E+03  0.00000000000E+00 0. -1.
          1    1    1    2  501    0  0.38629429786E+02  0.41169125219E+02  0.31487105334E+02  0.64641840314E+02  0.00000000000E+00 0. -1.
<scales pt_clust_5="13000.00000" pt_clust_6="13000.00000" pt_clust_7="13000.00000" pt_clust_8="13000.00000" pt_clust_9="56.45467"></scales>
<clustering>
<clus scale="   56.455">  2  9  1 -1</clus>
<clus scale="   77.550">  5  6 -1 -1</clus>
<clus scale="   91.922">  7  8 -1 -1</clus>
<clus scale="  123.867">  1  5  2 -1</clus>
<clus scale="   56.455">  2  5  1 -1</clus>
</clustering>
</event>
<event>
 9    2  0.6175212E-005  0.1026001E+03  0.7546771E-02  0.1279027E+00
          2   -1    0    0  502    0 -0.00000000000E+00  0.00000000000E+00  0.50359931101E+03  0.50359931101E+03  0.00000000000E+00 0. -1.
         21   -1    0    0  501  502  0.00000000000E+00 -0.00000000000E+00 -0.49922928197E+02  0.49922928197E+02  0.00000000000E+00 0. -1.
         24    2    1    2    0    0  0.33976631289E+02  0.25317725490E+02  0.33956671391E+03  0.35205254440E+03  0.82704547215E+02 0.  0.
         23    2    1    2    0    0 -0.31407270201E+02 -0.69736880860E+02  0.67463184283E+02  0.13700608097E+03  0.91486260261E+02 0.  0.
        -11    1    3    3    0    0 -0.16165207003E+02 -0.17645562223E+02  0.55990612023E+02  0.60890298228E+02  0.00000000000E+00 0.  1.
         12    1    3    3    0    0  0.50141838292E+02  0.42963287713E+02  0.28357610188E+03  0.29116224618E+03  0.00000000000E+00 0. -1.
        -11    1    4    4    0    0 -0.45218043161E+01 -0.42811638640E+02  0.84869632630E+02  0.95163741310E+02  0.00000000000E+00 0. -1.
         11    1    4    4    0    0 -0.26885465885E+02 -0.26925242220E+02 -0.17406448347E+02  0.41842339664E+02  0.00000000000E+00 0.  1.
          1    1    1    2  501    0 -0.25693610884E+01  0.44419155370E+02  0.46646484621E+02  0.64463613828E+02  0.00000000000E+00 0. -1.
<scales pt_clust_5="13000.00000" pt_clust_6="13000.00000" pt_clust_7="13000.00000" pt_clust_8="13000.00000" pt_clust_9="44.49340"></scales>
<clustering>
<clus scale="   44.493">  2  9  1 -1</clus>
<clus scale="   82.705">  5  6 -1 -1</clus>
<clus scale="   91.486">  7  8 -1 -1</clus>
<clus scale="   94.853">  1  5  2 -1</clus>
<clus scale="   44.493">  2  5  1 -1</clus>
</clustering>
</event>
<event>
 9    2  0.6175212E-005  0.3872510E+03  0.7546771E-02  0.1080220E+00
          2   -1    0    0  502    0 -0.00000000000E+00  0.00000000000E+00  0.17231091430E+04  0.17231091430E+04  0.00000000000E+00 0. -1.
         21   -1    0    0  501  502  0.00000000000E+00 -0.00000000000E+00 -0.35407835166E+03  0.35407835166E+03  0.00000000000E+00 0.  1.
         24    2    1    2    0    0 -0.20214481289E+02 -0.13683913495E+03  0.11785068284E+04  0.11892598977E+04  0.79543606818E+02 0.  0.
         23    2    1    2    0    0  0.30238228485E+03  0.34377157627E+03  0.25600550462E+03  0.53193948355E+03  0.88356397136E+02 0.  0.
        -13    1    3    3    0    0  0.27862347096E+02 -0.42962466156E+02  0.28660068511E+03  0.29113920483E+03  0.00000000000E+00 0.  1.
         14    1    3    3    0    0 -0.48076828385E+02 -0.93876668794E+02  0.89190614333E+03  0.89812069283E+03  0.00000000000E+00 0. -1.
        -11    1    4    4    0    0  0.97896092061E+01  0.50540932355E+02  0.36754937959E+02  0.63254626362E+02  0.00000000000E+00 0. -1.
         11    1    4    4    0    0  0.29259267564E+03  0.29323064392E+03  0.21925056666E+03  0.46868485718E+03  0.00000000000E+00 0.  1.
          1    1    1    2  501    0 -0.28216780356E+03 -0.20693244132E+03 -0.65481541702E+02  0.35598811348E+03  0.00000000000E+00 0. -1.
<scales pt_clust_5="13000.00000" pt_clust_6="13000.00000" pt_clust_7="13000.00000" pt_clust_8="13000.00000" pt_clust_9="377.03640"></scales>
<clustering>
<clus scale="   79.544">  5  6 -1 -1</clus>
<clus scale="   88.356">  7  8 -1 -1</clus>
<clus scale="  159.564">  1  5  2 -1</clus>
<clus scale="  377.036">  2  9  1 -1</clus>
<clus scale="  377.036">  2  5  1 -1</clus>
</clustering>
</event>
<event>
 9    2  0.6175212E-005  0.2052529E+03  0.7546771E-02  0.1146200E+00
          4   -1    0    0  502    0 -0.00000000000E+00  0.00000000000E+00  0.14906226060E+03  0.14906226060E+03  0.00000000000E+00 0. -1.
         21   -1    0    0  501  502  0.00000000000E+00 -0.00000000000E+00 -0.64447164596E+03  0.64447164596E+03  0.00000000000E+00 0.  1.
         24    2    1    2    0    0 -0.44764711356E+02 -0.17628324620E+03  0.35810295443E+02  0.20388264837E+03  0.84888719944E+02 0.  0.
         23    2    1    2    0    0  0.74815665248E+02  0.17186907734E+03 -0.36717680842E+03  0.42282017986E+03  0.93924077545E+02 0.  0.
        -13    1    3    3    0    0 -0.40545714192E+02 -0.27762410591E+02  0.24400936447E+02  0.54864488339E+02  0.00000000000E+00 0.  1.
         14    1    3    3    0    0 -0.42189971635E+01 -0.14852083561E+03  0.11409358996E+02  0.14901816003E+03  0.00000000000E+00 0. -1.
        -11    1    4    4    0    0  0.79455136108E+02  0.13121900476E+03 -0.34187867785E+03  0.37471666127E+03  0.00000000000E+00 0.  1.
         11    1    4    4    0    0 -0.46394708601E+01  0.40650072580E+02 -0.25298130576E+02  0.48103518595E+02  0.00000000000E+00 0. -1.
          3    1    1    2  501    0 -0.30050953892E+02  0.44141688621E+01 -0.16404287238E+03  0.16683107833E+03  0.00000000000E+00 0. -1.
<scales pt_clust_5="13000.00000" pt_clust_6="13000.00000" pt_clust_7="13000.00000" pt_clust_8="13000.00000" pt_clust_9="30.37342"></scales>
<clustering>
<clus scale="   30.373">  2  9  1 -1</clus>
<clus scale="   84.889">  5  6 -1 -1</clus>
<clus scale="   93.924">  7  8 -1 -1</clus>
<clus scale="  201.279">  1  5  2 -1</clus>
<clus scale="   30.373">  2  5  1 -1</clus>
</clustering>
</event>
<event>
 9    2  0.6175212E-005  0.1465593E+03  0.7546771E-02  0.1219230E+00
          2   -1    0    0  502    0 -0.00000000000E+00  0.00000000000E+00  0.21566860033E+03  0.21566860033E+03  0.00000000000E+00 0. -1.
         21   -1    0    0  501  502  0.00000000000E+00 -0.00000000000E+00 -0.21829251223E+03  0.21829251223E+03  0.00000000000E+00 0. -1.
         24    2    1    2    0    0  0.64764730033E+02 -0.27578623425E+02  0.94307132017E+02  0.14317385897E+03  0.81546722915E+02 0.  0.
         23    2    1    2    0    0  0.42368376739E+02  0.97393287398E+02 -0.18069907594E+02  0.14055187594E+03  0.90265034717E+02 0.  0.
        -13    1    3    3    0    0  0.51600828003E+02 -0.12460588329E+02  0.69391184091E+01  0.53535624367E+02  0.00000000000E+00 0.  1.
         14    1    3    3    0    0  0.13163902030E+02 -0.15118035096E+02  0.87368013608E+02  0.89638234608E+02  0.00000000000E+00 0. -1.
        -11    1    4    4    0    0  0.50640787170E+02  0.17742152712E+02 -0.26833438809E+02  0.59994222609E+02  0.00000000000E+00 0. -1.
         11    1    4    4    0    0 -0.82724104317E+01  0.79651134686E+02  0.87635312151E+01  0.80557653332E+02  0.00000000000E+00 0.  1.
          1    1    1    2  501    0 -0.10713310677E+03 -0.69814663972E+02 -0.78861136327E+02  0.15023537764E+03  0.00000000000E+00 0. -1.
<scales pt_clust_5="13000.00000" pt_clust_6="13000.00000" pt_clust_7="13000.00000" pt_clust_8="13000.00000" pt_clust_9="115.46366"></scales>
<clustering>
<clus scale="   81.547">  5  6 -1 -1</clus>
<clus scale="   90.265">  7  8 -1 -1</clus>
<clus scale="  107.726">  1  5  2 -1</clus>
<clus scale="  115.464">  2  9  1 -1</clus>
<clus scale="  115.464">  2  5  1 -1</clus>
</clustering>
</event>
<event>
 9    2  0.6175212E-005  0.2059082E+03  0.7546771E-02  0.1146297E+00
          2   -1    0    0  502    0 -0.00000000000E+00  0.00000000000E+00  0.16022010848E+04  0.16022010848E+04  0.00000000000E+00 0. -1.
         21   -1    0    0  501  502  0.00000000000E+00 -0.00000000000E+00 -0.52620029296E+02  0.52620029296E+02  0.00000000000E+00 0. -1.
         24    2    1    2    0    0 -0.45481664842E+02  0.20642850869E+03  0.10350369442E+04  0.10588526304E+04  0.72014624490E+02 0.  0.
         23    2    1    2    0    0  0.56897032867E+02 -0.14231154738E+03  0.49811967596E+03  0.52880407769E+03  0.89558316934E+02 0.  0.
        -11    1    3    3    0    0 -0.40934620447E+02  0.46551544412E+02  0.23912284631E+03  0.24702717475E+03  0.00000000000E+00 0.  1.
         12    1    3    3    0    0 -0.45470443949E+01  0.15987696427E+03  0.79591409788E+03  0.81182545570E+03  0.00000000000E+00 0. -1.
        -11    1    4    4    0    0  0.42773852552E+02 -0.19684259980E+02  0.79835383245E+02  0.92686358062E+02  0.00000000000E+00 0. -1.
         11    1    4    4    0    0  0.14123180316E+02 -0.12262728740E+03  0.41828429272E+03  0.43611771962E+03  0.00000000000E+00 0.  1.
          1    1    1    2  501    0 -0.11415368025E+02 -0.64116961309E+02  0.16424435388E+02  0.67164405994E+02  0.00000000000E+00 0. -1.
<scales pt_clust_5="13000.00000" pt_clust_6="13000.00000" pt_clust_7="13000.00000" pt_clust_8="13000.00000" pt_clust_9="65.12523"></scales>
<clustering>
<clus scale="   65.125">  2  9  1 -1</clus>
<clus scale="   72.015">  5  6 -1 -1</clus>
<clus scale="   89.558">  7  8 -1 -1</clus>
<clus scale="  198.906">  1  5  2 -1</clus>
<clus scale="   65.125">  2  5  1 -1</clus>
</clustering>
</event>
<event>
 9    2  0.6175212E-005  0.1089789E+03  0.7546771E-02  0.1267019E+00
         21   -1    0    0  501  502  0.00000000000E+00  0.00000000000E+00  0.35132499412E+03  0.35132499412E+03  0.00000000000E+00 0. -1.
          2   -1    0    0  502    0 -0.00000000000E+00 -0.00000000000E+00 -0.96114143284E+02  0.96114143284E+02  0.00000000000E+00 0. -1.
         24    2    1    2    0    0  0.77583327320E+01  0.51931132085E+02 -0.21987002641E+02  0.97774495076E+02  0.79494587211E+02 0.  0.
         23    2    1    2    0    0 -0.10886026536E+02 -0.81123397481E+02  0.70998438528E+02  0.14138557580E+03  0.90827262311E+02 0.  0.
        -13    1    3    3    0    0 -0.29857366745E+02  0.46379046877E+02 -0.29136127884E+01  0.55235563522E+02  0.00000000000E+00 0.  1.
         14    1    3    3    0    0  0.37615699477E+02  0.55520852079E+01 -0.19073389853E+02  0.42538931554E+02  0.00000000000E+00 0. -1.
        -11    1    4    4    0    0  0.32116558421E+02 -0.70945675014E+02  0.49142806278E+02  0.92085707560E+02  0.00000000000E+00 0. -1.
         11    1    4    4    0    0 -0.43002584957E+02 -0.10177722467E+02  0.21855632250E+02  0.49299868242E+02  0.00000000000E+00 0.  1.
          1    1    1    2  501    0  0.31276938038E+01  0.29192265397E+02  0.20619941495E+03  0.20827906653E+03  0.00000000000E+00 0. -1.
<scales pt_clust_5="13000.00000" pt_clust_6="13000.00000" pt_clust_7="13000.00000" pt_clust_8="13000.00000" pt_clust_9="29.35934"></scales>
<clustering>
<clus scale="   29.359">  1  9  2 -1</clus>
<clus scale="   79.495">  5  6 -1 -1</clus>
<clus scale="   90.827">  7  8 -1 -1</clus>
<clus scale="   99.731">  2  5  1 -1</clus>
<clus scale="   29.359">  1  5  2 -1</clus>
</clustering>
</event>
<event>
 9    2  0.6175212E-005  0.1577276E+03  0.7546771E-02  0.1191939E+00
          2   -1    0    0  502    0 -0.00000000000E+00  0.00000000000E+00  0.52095881197E+03  0.52095881197E+03  0.00000000000E+00 0. -1.
         21   -1    0    0  501  502  0.00000000000E+00 -0.00000000000E+00 -0.10440652094E+03  0.10440652094E+03  0.00000000000E+00 0.  1.
         24    2    1    2    0    0  0.12378333376E+03  0.65155317277E+02  0.40547418457E+03  0.43885148446E+03  0.92810462624E+02 0.  0.
         23    2    1    2    0    0 -0.74172439220E+02 -0.27348768083E+02 -0.12910450814E+02  0.11968550941E+03  0.88929385281E+02 0.  0.
        -11    1    3    3    0    0  0.33725661392E+02 -0.23016703247E+02  0.79776723290E+02  0.89618717038E+02  0.00000000000E+00 0.  1.
         12    1    3    3    0    0  0.90057672365E+02  0.88172020524E+02  0.32569746128E+03  0.34923276742E+03  0.00000000000E+00 0. -1.
        -13    1    4    4    0    0 -0.49572551611E+02 -0.57535370772E+02 -0.23196184323E+02  0.79409191724E+02  0.00000000000E+00 0.  1.
         13    1    4    4    0    0 -0.24599887609E+02  0.30186602690E+02  0.10285733509E+02  0.40276317683E+02  0.00000000000E+00 0. -1.
          1    1    1    2  501    0 -0.49610894537E+02 -0.37806549194E+02  0.23988557266E+02  0.66828339037E+02  0.00000000000E+00 0. -1.
<scales pt_clust_5="13000.00000" pt_clust_6="13000.00000" pt_clust_7="13000.00000" pt_clust_8="13000.00000" pt_clust_9="62.37448"></scales>
<clustering>
<clus scale="   62.374">  2  9  1 -1</clus>
<clus scale="   88.929">  7  8 -1 -1</clus>
<clus scale="   92.810">  5  6 -1 -1</clus>
<clus scale="  155.476">  2  7  1 -1</clus>
<clus scale="   62.374">  2  5  1 -1</clus>
</clustering>
</event>
<event>
 9    2  0.6175212E-005  0.1265577E+03  0.7546771E-02  0.1233093E+00
         21   -1    0    0  501  502  0.00000000000E+00  0.00000000000E+00  0.16473024350E+03  0.16473024350E+03  0.00000000000E+00 0. -1.
          2   -1    0    0  502    0 -0.00000000000E+00 -0.00000000000E+00 -0.33396058411E+03  0.33396058411E+03  0.00000000000E+00 0. -1.
         23    2    1    2    0    0 -0.85657260176E+02  0.40248657162E+02 -0.28270130697E+03  0.31038801018E+03  0.86391939880E+02 0.  0.
         24    2    1    2    0    0  0.65581920809E+02 -0.14949278830E+02  0.60418234290E+02  0.12619267192E+03  0.88032710609E+02 0.  0.
        -13    1    4    4    0    0  0.35973968251E+02 -0.19478429521E+02 -0.16144683041E+02  0.43979386067E+02  0.00000000000E+00 0.  1.
         14    1    4    4    0    0  0.29607952558E+02  0.45291506913E+01  0.76562917331E+02  0.82213285854E+02  0.00000000000E+00 0. -1.
        -13    1    3    3    0    0 -0.36283586978E+02 -0.10931059033E+02 -0.31383641540E+02  0.49202842315E+02  0.00000000000E+00 0.  1.
         13    1    3    3    0    0 -0.49373673198E+02  0.51179716195E+02 -0.25131766543E+03  0.26118516787E+03  0.00000000000E+00 0. -1.
          1    1    1    2  501    0  0.20075339367E+02 -0.25299378332E+02  0.53052732076E+02  0.62110145511E+02  0.00000000000E+00 0. -1.
<scales pt_clust_5="13000.00000" pt_clust_6="13000.00000" pt_clust_7="13000.00000" pt_clust_8="13000.00000" pt_clust_9="32.29671"></scales>
<clustering>
<clus scale="   32.297">  1  9  2 -1</clus>
<clus scale="   86.392">  7  8 -1 -1</clus>
<clus scale="   88.033">  5  6 -1 -1</clus>
<clus scale="  125.422">  2  7  1 -1</clus>
<clus scale="   32.297">  1  5  2 -1</clus>
</clustering>
</event>
<event>
 9    2  0.6175212E-005  0.1177850E+03  0.7546771E-02  0.1250235E+00
         21   -1    0    0  501  502  0.00000000000E+00  0.00000000000E+00  0.53263860957E+02  0.53263860957E+02  0.00000000000E+00 0. -1.
          2   -1    0    0  502    0 -0.00000000000E+00 -0.00000000000E+00 -0.76694144718E+03  0.76694144718E+03  0.00000000000E+00 0. -1.
         24    2    1    2    0    0 -0.72119357851E+01  0.71267745491E+02 -0.59105375725E+03  0.60117847269E+03  0.83306113252E+02 0.  0.
         23    2    1    2    0    0  0.59208325377E+02 -0.64216847235E+02 -0.97713003471E+02  0.16094164866E+03  0.93407462029E+02 0.  0.
        -13    1    3    3    0    0 -0.42096744067E+02  0.18927953361E+02 -0.21477239310E+03  0.21967608909E+03  0.00000000000E+00 0.  1.
         14    1    3    3    0    0  0.34884808282E+02  0.52339792130E+02 -0.37628136415E+03  0.38150238361E+03  0.00000000000E+00 0. -1.
        -11    1    4    4    0    0 -0.55139831292E+00 -0.67030131682E+02 -0.61744075106E+02  0.91135467323E+02  0.00000000000E+00 0.  1.
         11    1    4    4    0    0  0.59759723690E+02  0.28132844476E+01 -0.35968928365E+02  0.69806181335E+02  0.00000000000E+00 0. -1.
          1    1    1    2  501    0 -0.51996389592E+02 -0.70508982566E+01 -0.24910825505E+02  0.58085186788E+02  0.00000000000E+00 0. -1.
<scales pt_clust_5="13000.00000" pt_clust_6="13000.00000" pt_clust_7="13000.00000" pt_clust_8="13000.00000" pt_clust_9="52.47228"></scales>
<clustering>
<clus scale="   52.472">  1  9  2 -1</clus>
<clus scale="   83.306">  5  6 -1 -1</clus>
<clus scale="   93.407">  7  8 -1 -1</clus>
<clus scale="  109.947">  2  5  1 -1</clus>
<clus scale="   52.472">  1  5  2 -1</clus>
</clustering>
</event>
<event>
 9    2  0.6175212E-005  0.1567231E+03  0.7546771E-02  0.1211644E+00
          2   -1    0    0  502    0 -0.00000000000E+00  0.00000000000E+00  0.53762697058E+03  0.53762697058E+03  0.00000000000E+00 0. -1.
         21   -1    0    0  501  502  0.00000000000E+00 -0.00000000000E+00 -0.22185233410E+03  0.22185233410E+03  0.00000000000E+00 0. -1.
         23    2    1    2    0    0  0.45320224558E+02  0.16545851854E+02  0.33536588967E+02  0.10873650436E+03  0.91494462202E+02 0.  0.
         24    2    1    2    0    0  0.59656947447E+02  0.72442988367E+02  0.43092032986E+03  0.44814556093E+03  0.79593813497E+02 0.  0.
        -11    1    4    4    0    0  0.68505398185E+02  0.22361276972E+02  0.24227713965E+03  0.25276714321E+03  0.00000000000E+00 0.  1.
         12    1    4    4    0    0 -0.88484507386E+01  0.50081711395E+02  0.18864319021E+03  0.19537841772E+03  0.00000000000E+00 0. -1.
        -11    1    3    3    0    0  0.28751934429E+02 -0.94210344957E+01 -0.27168392138E+02  0.40663880235E+02  0.00000000000E+00 0.  1.
         11    1    3    3    0    0  0.16568290130E+02  0.25966886350E+02  0.60704981106E+02  0.68072624127E+02  0.00000000000E+00 0. -1.
          1    1    1    2  501    0 -0.10497717201E+03 -0.88988840221E+02 -0.14868228235E+03  0.20259723939E+03  0.00000000000E+00 0. -1.
<scales pt_clust_5="13000.00000" pt_clust_6="13000.00000" pt_clust_7="13000.00000" pt_clust_8="13000.00000" pt_clust_9="135.00725"></scales>
<clustering>
<clus scale="   79.594">  5  6 -1 -1</clus>
<clus scale="   91.494">  7  8 -1 -1</clus>
<clus scale="  103.436">  1  7  2 -1</clus>
<clus scale="  135.007">  2  9  1 -1</clus>
<clus scale="  135.007">  2  5  1 -1</clus>
</clustering>
</event>
<event>
 9    2  0.6175212E-005  0.9101317E+02  0.7546771E-02  0.1301116E+00
         -3   -1    0    0    0  501 -0.00000000000E+00  0.00000000000E+00  0.62782211180E+03  0.62782211180E+03  0.00000000000E+00 0.  1.
         21   -1    0    0  501  502  0.00000000000E+00 -0.00000000000E+00 -0.24041951856E+02  0.24041951856E+02  0.00000000000E+00 0. -1.
         24    2    1    2    0    0  0.15855903138E+02  0.55541007601E+02  0.34537293433E+03  0.35929970917E+03  0.80483563842E+02 0.  0.
         23    2    1    2    0    0  0.13348697387E+02 -0.12760298687E+02  0.13775663815E+03  0.16126446111E+03  0.81782162587E+02 0.  0.
        -13    1    3    3    0    0  0.21329819658E+02  0.60382175062E+02  0.34608276714E+03  0.35195773892E+03  0.00000000000E+00 0.  1.
         14    1    3    3    0    0 -0.54739165192E+01 -0.48411674614E+01 -0.70983281409E+00  0.73419702446E+01  0.00000000000E+00 0. -1.
        -11    1    4    4    0    0 -0.25874515682E+02 -0.27246629680E+02  0.91478144138E+02  0.98894490472E+02  0.00000000000E+00 0.  1.
         11    1    4    4    0    0  0.39223213069E+02  0.14486330992E+02  0.46278494009E+02  0.62369970634E+02  0.00000000000E+00 0. -1.
         -4    1    1    2    0  502 -0.29204600525E+02 -0.42780708913E+02  0.12065058746E+03  0.13129989338E+03  0.00000000000E+00 0.  1.
<scales pt_clust_5="13000.00000" pt_clust_6="13000.00000" pt_clust_7="13000.00000" pt_clust_8="13000.00000" pt_clust_9="51.79863"></scales>
<clustering>
<clus scale="   51.799">  2  9  1 -1</clus>
<clus scale="   80.484">  5  6 -1 -1</clus>
<clus scale="   81.782">  7  8 -1 -1</clus>
<clus scale="   89.848">  1  5  2 -1</clus>
<clus scale="   51.799">  2  5  1 -1</clus>
</clustering>
</event>
<event>
 9    2  0.6175212E-005  0.9258139E+02  0.7546771E-02  0.1303563E+00
         21   -1    0    0  501  502  0.00000000000E+00  0.00000000000E+00  0.71334476802E+02  0.71334476802E+02  0.00000000000E+00 0.  1.
          4   -1    0    0  502    0 -0.00000000000E+00 -0.00000000000E+00 -0.19273374058E+03  0.19273374058E+03  0.00000000000E+00 0. -1.
         23    2    1    2    0    0 -0.65548776054E+00  0.21189213954E+01 -0.10460559730E+03  0.13932480240E+03  0.92000815677E+02 0.  0.
         24    2    1    2    0    0  0.88959781070E+01 -0.30889571239E+02  0.57308958434E+01  0.87286614780E+02  0.80949403425E+02 0.  0.
        -11    1    4    4    0    0 -0.25138777210E+02 -0.80858062605E+01  0.29763781875E+02  0.39789710906E+02  0.00000000000E+00 0.  1.
         12    1    4    4    0    0  0.34034755317E+02 -0.22803764978E+02 -0.24032886031E+02  0.47496903874E+02  0.00000000000E+00 0. -1.
        -13    1    3    3    0    0  0.13362473008E+02 -0.42843147166E+02 -0.48695122163E+02  0.66221641980E+02  0.00000000000E+00 0.  1.
         13    1    3    3    0    0 -0.14017960769E+02  0.44962068561E+02 -0.55910475136E+02  0.73103160420E+02  0.00000000000E+00 0. -1.
          3    1    1    2  501    0 -0.82404903464E+01  0.28770649843E+02 -0.22524562323E+02  0.37456800203E+02  0.00000000000E+00 0. -1.
<scales pt_clust_5="13000.00000" pt_clust_6="13000.00000" pt_clust_7="13000.00000" pt_clust_8="13000.00000" pt_clust_9="29.92753"></scales>
<clustering>
<clus scale="   29.928">  1  9  2 -1</clus>
<clus scale="   80.949">  5  6 -1 -1</clus>
<clus scale="   81.609">  1  5  2 -1</clus>
<clus scale="   92.001">  7  8 -1 -1</clus>
<clus scale="   29.928">  1  5  2 -1</clus>
</clustering>
</event>
<event>
 9    2  0.6175212E-005  0.1600115E+03  0.7546771E-02  0.1189987E+00
         21   -1    0    0  501  502  0.00000000000E+00  0.00000000000E+00  0.91776860342E+03  0.91776860342E+03  0.00000000000E+00 0. -1.
          4   -1    0    0  502    0 -0.00000000000E+00 -0.00000000000E+00 -0.17061907481E+03  0.17061907481E+03  0.00000000000E+00 0. -1.
         24    2    1    2    0    0 -0.12609539278E+03 -0.19786575833E+02 -0.36343789510E+02  0.15590462024E+03  0.81815786445E+02 0.  0.
         23    2    1    2    0    0  0.17217040731E+03  0.12946574880E+03  0.77920131081E+03  0.81344168169E+03  0.90159067587E+02 0.  0.
        -11    1    3    3    0    0 -0.10155525638E+03  0.16231925524E+02 -0.43629423850E+02  0.11171603345E+03  0.00000000000E+00 0.  1.
         12    1    3    3    0    0 -0.24540136408E+02 -0.36018501357E+02  0.72856343398E+01  0.44188586792E+02  0.00000000000E+00 0. -1.
        -11    1    4    4    0    0  0.87984687508E+02  0.54344245364E+02  0.22164417462E+03  0.24458279249E+03  0.00000000000E+00 0.  1.
         11    1    4    4    0    0  0.84185719803E+02  0.75121503433E+02  0.55755713620E+03  0.56885888920E+03  0.00000000000E+00 0. -1.
          3    1    1    2  501    0 -0.46075014527E+02 -0.10967917296E+03  0.42920073114E+01  0.11904137630E+03  0.00000000000E+00 0. -1.
<scales pt_clust_5="13000.00000" pt_clust_6="13000.00000" pt_clust_7="13000.00000" pt_clust_8="13000.00000" pt_clust_9="118.96404"></scales>
<clustering>
<clus scale="   81.816">  5  6 -1 -1</clus>
<clus scale="   90.159">  7  8 -1 -1</clus>
<clus scale="  118.964">  1  9  2 -1</clus>
<clus scale="  155.463">  2  5  1 -1</clus>
<clus scale="  118.964">  1  5  2 -1</clus>
</clustering>
</event>
<event>
 9    2  0.6175212E-005  0.9571637E+02  0.7546771E-02  0.1296314E+00
         21   -1    0    0  501  502  0.00000000000E+00  0.00000000000E+00  0.23744388857E+03  0.23744388857E+03  0.00000000000E+00 0. -1.
          2   -1    0    0  502    0 -0.00000000000E+00 -0.00000000000E+00 -0.23042425159E+03  0.23042425159E+03  0.00000000000E+00 0. -1.
         24    2    1    2    0    0 -0.26024570522E+02 -0.23000253096E+02 -0.17360396644E+03  0.19373580161E+03  0.78669776591E+02 0.  0.
         23    2    1    2    0    0  0.13151378178E+02  0.27312741402E+01 -0.23669480444E+00  0.91685091203E+02  0.90695541886E+02 0.  0.
        -13    1    3    3    0    0  0.14869761943E+02  0.21068617024E+02 -0.48166538945E+02  0.54635262582E+02  0.00000000000E+00 0.  1.
         14    1    3    3    0    0 -0.40894332465E+02 -0.44068870120E+02 -0.12543742749E+03  0.13910053903E+03  0.00000000000E+00 0. -1.
        -13    1    4    4    0    0 -0.80959600193E+01  0.33967315294E+02 -0.28036439331E+02  0.44781301983E+02  0.00000000000E+00 0.  1.
         13    1    4    4    0    0  0.21247338197E+02 -0.31236041154E+02  0.27799744526E+02  0.46903789220E+02  0.00000000000E+00 0. -1.
          1    1    1    2  501    0  0.12873192344E+02  0.20268978956E+02  0.18086029823E+03  0.18244724735E+03  0.00000000000E+00 0. -1.
<scales pt_clust_5="13000.00000" pt_clust_6="13000.00000" pt_clust_7="13000.00000" pt_clust_8="13000.00000" pt_clust_9="24.01147"></scales>
<clustering>
<clus scale="   24.011">  1  9  2 -1</clus>
<clus scale="   78.670">  5  6 -1 -1</clus>
<clus scale="   84.409">  2  5  1 -1</clus>
<clus scale="   90.696">  7  8 -1 -1</clus>
<clus scale="   24.011">  1  5  2 -1</clus>
</clustering>
</event>
<event>
 9    2  0.6175212E-005  0.1753291E+03  0.7546771E-02  0.1173692E+00
          2   -1    0    0  502    0 -0.00000000000E+00  0.00000000000E+00  0.16234142786E+03  0.16234142786E+03  0.00000000000E+00 0. -1.
         21   -1    0    0  501  502  0.00000000000E+00 -0.00000000000E+00 -0.28031947906E+03  0.28031947906E+03  0.00000000000E+00 0. -1.
         23    2    1    2    0    0 -0.85318070039E+02 -0.96749819615E+02 -0.21666212365E+02  0.15931484765E+03  0.90951059656E+02 0.  0.
         24    2    1    2    0    0  0.88095046292E+02  0.15643145234E+03 -0.39247691598E+02  0.20072689816E+03  0.80742615064E+02 0.  0.
        -11    1    4    4    0    0  0.26835426511E+02  0.12512465554E+03 -0.28361583451E+02  0.13107516529E+03  0.00000000000E+00 0.  1.
         12    1    4    4    0    0  0.61259619781E+02  0.31306796802E+02 -0.10886108148E+02  0.69651732874E+02  0.00000000000E+00 0. -1.
        -13    1    3    3    0    0 -0.19916298661E+02 -0.38694389960E+02  0.34366142969E+02  0.55452200581E+02  0.00000000000E+00 0.  1.
         13    1    3    3    0    0 -0.65401771378E+02 -0.58055429655E+02 -0.56032355334E+02  0.10386264707E+03  0.00000000000E+00 0. -1.
          1    1    1    2  501    0 -0.27769762529E+01 -0.59681632724E+02 -0.57064147239E+02  0.82619161105E+02  0.00000000000E+00 0. -1.
<scales pt_clust_5="13000.00000" pt_clust_6="13000.00000" pt_clust_7="13000.00000" pt_clust_8="13000.00000" pt_clust_9="59.74620"></scales>
<clustering>
<clus scale="   59.746">  2  9  1 -1</clus>
<clus scale="   80.743">  5  6 -1 -1</clus>
<clus scale="   90.951">  7  8 -1 -1</clus>
<clus scale="  170.257">  2  5  1 -1</clus>
<clus scale="   59.746">  2  5  1 -1</clus>
</clustering>
</event>
<event>
 9    2  0.6175212E-005  0.1017845E+03  0.7546771E-02  0.1283637E+00
         21   -1    0    0  501  502  0.00000000000E+00  0.00000000000E+00  0.29401319294E+02  0.29401319294E+02  0.00000000000E+00 0. -1.
          2   -1    0    0  502    0 -0.00000000000E+00 -0.00000000000E+00 -0.94077026776E+03  0.94077026776E+03  0.00000000000E+00 0. -1.
         24    2    1    2    0    0 -0.40204670803E+01 -0.70540028291E+02 -0.54148079880E+03  0.55176543997E+03  0.79066968646E+02 0.  0.
         23    2    1    2    0    0 -0.25810786285E+02 -0.17080789825E+02 -0.23615214110E+03  0.25576349759E+03  0.93215786684E+02 0.  0.
        -13    1    3    3    0    0 -0.16788836475E+02 -0.29747649263E+02 -0.65523031000E+02  0.73892186720E+02  0.00000000000E+00 0.  1.
         14    1    3    3    0    0  0.12768369394E+02 -0.40792379028E+02 -0.47595776780E+03  0.47787325325E+03  0.00000000000E+00 0. -1.
        -11    1    4    4    0    0 -0.58143695506E+02 -0.23804431414E+02 -0.17963268645E+03  0.19030302762E+03  0.00000000000E+00 0. -1.
         11    1    4    4    0    0  0.32332909222E+02  0.67236415887E+01 -0.56519454648E+02  0.65460469969E+02  0.00000000000E+00 0.  1.
          1    1    1    2  501    0  0.29831253365E+02  0.87620818116E+02 -0.13373600857E+03  0.16264264949E+03  0.00000000000E+00 0. -1.
<scales pt_clust_5="13000.00000" pt_clust_6="13000.00000" pt_clust_7="13000.00000" pt_clust_8="13000.00000" pt_clust_9="92.55977"></scales>
<clustering>
<clus scale="   79.067">  5  6 -1 -1</clus>
<clus scale="   92.560">  1  9  2 -1</clus>
<clus scale="   89.008">  2  5  1 -1</clus>
<clus scale="   93.216">  7  8 -1 -1</clus>
<clus scale="   92.560">  1  5  2 -1</clus>
</clustering>
</event>
<event>
 9    2  0.8371434E-005  0.1513417E+03  0.7546771E-02  0.1211655E+00
         21   -1    0    0  501  502  0.00000000000E+00  0.00000000000E+00  0.31812018880E+03  0.31812018880E+03  0.00000000000E+00 0. -1.
          2   -1    0    0  502    0 -0.00000000000E+00 -0.00000000000E+00 -0.77589150940E+03  0.77589150940E+03  0.00000000000E+00 0. -1.
         24    2    1    2    0    0  0.80317208629E+02 -0.12109611944E+01 -0.17896172801E+02  0.11622757325E+03  0.82074693753E+02 0.  0.
         23    2    1    2    0    0 -0.67777939026E+02  0.12097601872E+03 -0.68487921385E+03  0.70478614937E+03  0.91841889411E+02 0.  0.
        -11    1    3    3    0    0  0.56846543023E+02 -0.33902222029E+02 -0.32085539749E+02  0.73555230767E+02  0.00000000000E+00 0.  1.
         12    1    3    3    0    0  0.23470665606E+02  0.32691260835E+02  0.14189366948E+02  0.42672342487E+02  0.00000000000E+00 0. -1.
        -13    1    4    4    0    0 -0.54218587851E+02  0.98574605575E+02 -0.65690377848E+03  0.66646769038E+03  0.00000000000E+00 0. -1.
         13    1    4    4    0    0 -0.13559351175E+02  0.22401413148E+02 -0.27975435370E+02  0.38318458991E+02  0.00000000000E+00 0.  1.
          1    1    1    2  501    0 -0.12539269603E+02 -0.11976505753E+03  0.24500406605E+03  0.27299797557E+03  0.00000000000E+00 0. -1.
<scales pt_clust_5="13000.00000" pt_clust_6="13000.00000" pt_clust_7="13000.00000" pt_clust_8="13000.00000" pt_clust_9="120.28870"></scales>
<clustering>
<clus scale="   82.075">  5  6 -1 -1</clus>
<clus scale="   91.842">  7  8 -1 -1</clus>
<clus scale="  114.842">  2  5  1 -1</clus>
<clus scale="  120.289">  1  9  2 -1</clus>
<clus scale="  120.289">  1  5  2 -1</clus>
</clustering>
</event>
<event>
 9    2  0.6175212E-005  0.1044691E+03  0.7546771E-02  0.1276724E+00
         21   -1    0    0  501  502  0.00000000000E+00  0.00000000000E+00  0.20242882308E+03  0.20242882308E+03  0.00000000000E+00 0.  1.
          2   -1    0    0  502    0 -0.00000000000E+00 -0.00000000000E+00 -0.13941288944E+03  0.13941288944E+03  0.00000000000E+00 0. -1.
         24    2    1    2    0    0  0.32035981940E+02 -0.71687545642E+02 -0.53113125995E+02  0.12412981610E+03  0.80136126398E+02 0.  0.
         23    2    1    2    0    0 -0.44060834892E+01 -0.10088695554E+02  0.35230533588E+02  0.99410009575E+02  0.92303651916E+02 0.  0.
        -13    1    3    3    0    0  0.38060245346E+02 -0.76845762844E+02 -0.66535465452E+02  0.10853949376E+03  0.00000000000E+00 0.  1.
         14    1    3    3    0    0 -0.60242634058E+01  0.51582172018E+01  0.13422339457E+02  0.15590322344E+02  0.00000000000E+00 0. -1.
        -13    1    4    4    0    0  0.26226940728E+02  0.31054860437E+02  0.22896304126E+02  0.46652947595E+02  0.00000000000E+00 0.  1.
         13    1    4    4    0    0 -0.30633024217E+02 -0.41143555991E+02  0.12334229462E+02  0.52757061980E+02  0.00000000000E+00 0. -1.
          1    1    1    2  501    0 -0.27629898451E+02  0.81776241196E+02  0.80898526049E+02  0.11830188684E+03  0.00000000000E+00 0. -1.
<scales pt_clust_5="13000.00000" pt_clust_6="13000.00000" pt_clust_7="13000.00000" pt_clust_8="13000.00000" pt_clust_9="86.31781"></scales>
<clustering>
<clus scale="   80.136">  5  6 -1 -1</clus>
<clus scale="   86.318">  1  9  2 -1</clus>
<clus scale="   92.304">  7  8 -1 -1</clus>
<clus scale="   93.892">  2  5  1 -1</clus>
<clus scale="   86.318">  1  5  2 -1</clus>
</clustering>
</event>
<event>
 9    2  0.6175212E-005  0.1200181E+03  0.7546771E-02  0.1246955E+00
          2   -1    0    0  502    0 -0.00000000000E+00  0.00000000000E+00  0.59428770070E+03  0.59428770070E+03  0.00000000000E+00 0. -1.
         21   -1    0    0  501  502  0.00000000000E+00 -0.00000000000E+00 -0.18148728430E+03  0.18148728430E+03  0.00000000000E+00 0. -1.
         24    2    1    2    0    0 -0.32626895902E+02  0.69053600605E+02  0.50064905242E+03  0.51280180034E+03  0.80518933481E+02 0.  0.
         23    2    1    2    0    0  0.54609933896E+02  0.40676851947E+02 -0.97282661522E+02  0.15066545112E+03  0.92732468762E+02 0.  0.
        -13    1    3    3    0    0 -0.18818014877E+02  0.11466982635E+02  0.24372142689E+02  0.32857430117E+02  0.00000000000E+00 0.  1.
         14    1    3    3    0    0 -0.13808881025E+02  0.57586617970E+02  0.47627690973E+03  0.47994437022E+03  0.00000000000E+00 0. -1.
        -11    1    4    4    0    0 -0.17605351361E+02  0.32493683159E+02 -0.12539939736E+02  0.39026118567E+02  0.00000000000E+00 0.  1.
         11    1    4    4    0    0  0.72215285257E+02  0.81831687879E+01 -0.84742721786E+02  0.11163933255E+03  0.00000000000E+00 0. -1.
          1    1    1    2  501    0 -0.21983037994E+02 -0.10973045255E+03  0.94340255039E+01  0.11230773354E+03  0.00000000000E+00 0. -1.
<scales pt_clust_5="13000.00000" pt_clust_6="13000.00000" pt_clust_7="13000.00000" pt_clust_8="13000.00000" pt_clust_9="76.19085"></scales>
<clustering>
<clus scale="   80.519">  5  6 -1 -1</clus>
<clus scale="   92.732">  7  8 -1 -1</clus>
<clus scale="  110.978">  1  5  2 -1</clus>
<clus scale="   76.191">  2  9  1 -1</clus>
<clus scale="   76.191">  2  5  1 -1</clus>
</clustering>
</event>
<event>
 9    2  0.6175212E-005  0.1100603E+03  0.7546771E-02  0.1264472E+00
          2   -1    0    0  502    0 -0.00000000000E+00  0.00000000000E+00  0.58784547133E+02  0.58784547133E+02  0.00000000000E+00 0. -1.
         21   -1    0    0  501  502  0.00000000000E+00 -0.00000000000E+00 -0.32424073139E+03  0.32424073139E+03  0.00000000000E+00 0.  1.
         23    2    1    2    0    0  0.71466886795E+02 -0.23203086720E+02 -0.39700647321E+02  0.12375669608E+03  0.89964878069E+02 0.  0.
         24    2    1    2    0    0 -0.33957286775E+02  0.15147094669E+02 -0.17321768236E+03  0.19421402638E+03  0.79575063658E+02 0.  0.
        -11    1    4    4    0    0 -0.59381664081E+02  0.52227714181E+01 -0.13124330078E+03  0.14414667312E+03  0.00000000000E+00 0.  1.
         12    1    4    4    0    0  0.25424377306E+02  0.99243232507E+01 -0.41974381579E+02  0.50067353258E+02  0.00000000000E+00 0. -1.
        -13    1    3    3    0    0  0.39647023016E+02 -0.28090653706E+02 -0.66159623219E+02  0.82085729601E+02  0.00000000000E+00 0.  1.
         13    1    3    3    0    0  0.31819863779E+02  0.48875669857E+01  0.26458975898E+02  0.41670966481E+02  0.00000000000E+00 0. -1.
          1    1    1    2  501    0 -0.37509600020E+02  0.80559920514E+01 -0.52537854572E+02  0.65054556064E+02  0.00000000000E+00 0. -1.
<scales pt_clust_5="13000.00000" pt_clust_6="13000.00000" pt_clust_7="13000.00000" pt_clust_8="13000.00000" pt_clust_9="38.36495"></scales>
<clustering>
<clus scale="   38.365">  2  9  1 -1</clus>
<clus scale="   79.575">  5  6 -1 -1</clus>
<clus scale="   89.965">  7  8 -1 -1</clus>
<clus scale="  101.744">  2  5  1 -1</clus>
<clus scale="   38.365">  2  5  1 -1</clus>
</clustering>
</event>
<event>
 9    2  0.6175212E-005  0.2325631E+03  0.7546771E-02  0.1124849E+00
          2   -1    0    0  502    0 -0.00000000000E+00  0.00000000000E+00  0.68109075609E+03  0.68109075609E+03  0.00000000000E+00 0. -1.
         21   -1    0    0  501  502  0.00000000000E+00 -0.00000000000E+00 -0.79965261597E+02  0.79965261597E+02  0.00000000000E+00 0. -1.
         24    2    1    2    0    0 -0.95622642822E+02  0.63347948938E+02  0.36641927732E+03  0.39145519850E+03  0.76272099677E+02 0.  0.
         23    2    1    2    0    0 -0.18327551480E+02  0.14634578662E+02  0.20895297563E+03  0.22914032353E+03  0.91070696736E+02 0.  0.
        -11    1    3    3    0    0 -0.83902711759E+02  0.14890205046E+02  0.26644330222E+03  0.27973812137E+03  0.00000000000E+00 0.  1.
         12    1    3    3    0    0 -0.11719931063E+02  0.48457743892E+02  0.99975975093E+02  0.11171707713E+03  0.00000000000E+00 0. -1.
        -11    1    4    4    0    0 -0.82293121527E+00  0.52095086565E+02  0.10359521099E+03  0.11595922991E+03  0.00000000000E+00 0.  1.
         11    1    4    4    0    0 -0.17504620265E+02 -0.37460507902E+02  0.10535776464E+03  0.11318109362E+03  0.00000000000E+00 0. -1.
          1    1    1    2  501    0  0.11395019430E+03 -0.77982527600E+02  0.25753241550E+02  0.14046049567E+03  0.00000000000E+00 0. -1.
<scales pt_clust_5="13000.00000" pt_clust_6="13000.00000" pt_clust_7="13000.00000" pt_clust_8="13000.00000" pt_clust_9="138.07940"></scales>
<clustering>
<clus scale="   76.272">  5  6 -1 -1</clus>
<clus scale="   91.071">  7  8 -1 -1</clus>
<clus scale="   92.513">  5  7 -1 -1</clus>
<clus scale="  138.079">  2  9  1 -1</clus>
<clus scale="  138.079">  2  5  1 -1</clus>
</clustering>
</event>
<event>
 9    2  0.6175212E-005  0.1349317E+03  0.7546771E-02  0.1222696E+00
         -1   -1    0    0    0  501 -0.00000000000E+00  0.00000000000E+00  0.30761190843E+03  0.30761190843E+03  0.00000000000E+00 0.  1.
         21   -1    0    0  501  502  0.00000000000E+00 -0.00000000000E+00 -0.27792484688E+03  0.27792484688E+03  0.00000000000E+00 0.  1.
         23    2    1    2    0    0 -0.51720566964E+02 -0.81230975325E+02  0.91085908913E+02  0.16091629889E+03  0.91235541581E+02 0.  0.
         24    2    1    2    0    0  0.16318809630E+03  0.23616087703E+02 -0.17614986262E+03  0.25458434003E+03  0.81217841113E+02 0.  0.
        -11    1    4    4    0    0  0.12390581796E+03 -0.19547830080E+02 -0.12101766114E+03  0.17429871971E+03  0.00000000000E+00 0.  1.
         12    1    4    4    0    0  0.39282278342E+02  0.43163917783E+02 -0.55132201481E+02  0.80285620321E+02  0.00000000000E+00 0. -1.
        -13    1    3    3    0    0 -0.83468641152E+01 -0.81791967158E+02  0.82932657522E+02  0.11677937196E+03  0.00000000000E+00 0.  1.
         13    1    3    3    0    0 -0.43373702849E+02  0.56099183305E+00  0.81532513904E+01  0.44136926931E+02  0.00000000000E+00 0. -1.
         -2    1    1    2    0  502 -0.11146752934E+03  0.57614887622E+02  0.11475101525E+03  0.17003611638E+03  0.00000000000E+00 0.  1.
<scales pt_clust_5="13000.00000" pt_clust_6="13000.00000" pt_clust_7="13000.00000" pt_clust_8="13000.00000" pt_clust_9="125.47709"></scales>
<clustering>
<clus scale="   81.218">  5  6 -1 -1</clus>
<clus scale="   91.236">  7  8 -1 -1</clus>
<clus scale="  125.477">  2  9  1 -1</clus>
<clus scale="  128.370">  2  5  1 -1</clus>
<clus scale="  125.477">  2  5  1 -1</clus>
</clustering>
</event>
<event>
 9    2  0.6175212E-005  0.1881031E+03  0.7546771E-02  0.1193074E+00
         21   -1    0    0  501  502  0.00000000000E+00  0.00000000000E+00  0.37481533980E+03  0.37481533980E+03  0.00000000000E+00 0. -1.
          2   -1    0    0  502    0 -0.00000000000E+00 -0.00000000000E+00 -0.52958128823E+03  0.52958128823E+03  0.00000000000E+00 0. -1.
         24    2    1    2    0    0 -0.38199530543E+02  0.52593763901E+01 -0.43982929990E+03  0.44882371268E+03  0.80660069657E+02 0.  0.
         23    2    1    2    0    0 -0.11448182447E+03  0.93160233327E+02  0.13388309098E+03  0.21923949219E+03  0.91413104505E+02 0.  0.
        -13    1    3    3    0    0  0.14879330563E+01  0.23419630141E+02 -0.38216588248E+02  0.44846411651E+02  0.00000000000E+00 0.  1.
         14    1    3    3    0    0 -0.39687463600E+02 -0.18160253751E+02 -0.40161271165E+03  0.40397730103E+03  0.00000000000E+00 0. -1.
        -11    1    4    4    0    0  0.94325993680E+00  0.22976433054E+02 -0.70177385650E+01  0.24042771674E+02  0.00000000000E+00 0.  1.
         11    1    4    4    0    0 -0.11542508441E+03  0.70183800273E+02  0.14090082955E+03  0.19519672051E+03  0.00000000000E+00 0. -1.
          1    1    1    2  501    0  0.15268135502E+03 -0.98419609717E+02  0.15118026049E+03  0.23633342317E+03  0.00000000000E+00 0. -1.
<scales pt_clust_5="13000.00000" pt_clust_6="13000.00000" pt_clust_7="13000.00000" pt_clust_8="13000.00000" pt_clust_9="164.39726"></scales>
<clustering>
<clus scale="   80.660">  5  6 -1 -1</clus>
<clus scale="   89.403">  2  5  1 -1</clus>
<clus scale="   91.413">  7  8 -1 -1</clus>
<clus scale="  164.397">  1  9  2 -1</clus>
<clus scale="  164.397">  1  5  2 -1</clus>
</clustering>
</event>
<event>
 9    2  0.6175212E-005  0.9542800E+02  0.7546771E-02  0.1298234E+00
         21   -1    0    0  501  502  0.00000000000E+00  0.00000000000E+00  0.67838980479E+02  0.67838980479E+02  0.00000000000E+00 0.  1.
          2   -1    0    0  502    0 -0.00000000000E+00 -0.00000000000E+00 -0.32508932538E+03  0.32508932538E+03  0.00000000000E+00 0. -1.
         24    2    1    2    0    0 -0.16094777585E+02 -0.47447178418E+01 -0.25902386501E+03  0.27191017376E+03  0.80995220448E+02 0.  0.
         23    2    1    2    0    0 -0.88661557612E+01  0.85716659827E+01 -0.33456880099E+01  0.95251874765E+02  0.94390909744E+02 0.  0.
        -13    1    3    3    0    0  0.28683323461E+02  0.14022624889E+02 -0.13493984093E+03  0.13866552464E+03  0.00000000000E+00 0.  1.
         14    1    3    3    0    0 -0.44778101047E+02 -0.18767342731E+02 -0.12408402408E+03  0.13324464911E+03  0.00000000000E+00 0. -1.
        -13    1    4    4    0    0  0.21437053400E+02 -0.27425435310E+02  0.22615710214E+02  0.41511108259E+02  0.00000000000E+00 0.  1.
         13    1    4    4    0    0 -0.30303209161E+02  0.35997101293E+02 -0.25961398224E+02  0.53740766506E+02  0.00000000000E+00 0. -1.
          1    1    1    2  501    0  0.24960933346E+02 -0.38269481409E+01  0.51192081154E+01  0.25766257340E+02  0.00000000000E+00 0. -1.
<scales pt_clust_5="13000.00000" pt_clust_6="13000.00000" pt_clust_7="13000.00000" pt_clust_8="13000.00000" pt_clust_9="25.25260"></scales>
<clustering>
<clus scale="   25.253">  1  9  2 -1</clus>
<clus scale="   80.995">  5  6 -1 -1</clus>
<clus scale="   82.201">  2  5  1 -1</clus>
<clus scale="   94.391">  7  8 -1 -1</clus>
<clus scale="   25.253">  1  5  2 -1</clus>
</clustering>
</event>
<event>
 9    2  0.6175212E-005  0.1194807E+03  0.7546771E-02  0.1247369E+00
         21   -1    0    0  501  502  0.00000000000E+00  0.00000000000E+00  0.88895093161E+02  0.88895093161E+02  0.00000000000E+00 0. -1.
          2   -1    0    0  502    0 -0.00000000000E+00 -0.00000000000E+00 -0.25248024505E+03  0.25248024505E+03  0.00000000000E+00 0. -1.
         23    2    1    2    0    0 -0.56536880716E+02  0.43269613732E+02 -0.11327722689E+03  0.16236924274E+03  0.91996535269E+02 0.  0.
         24    2    1    2    0    0  0.36917768149E+02 -0.86073505841E+02 -0.29733768053E+02  0.12762148015E+03  0.81434484222E+02 0.  0.
        -13    1    4    4    0    0 -0.14106063076E+02 -0.46546817818E+02 -0.39096602600E+02  0.62402977488E+02  0.00000000000E+00 0.  1.
         14    1    4    4    0    0  0.51023831225E+02 -0.39526688023E+02  0.93628345465E+01  0.65218502663E+02  0.00000000000E+00 0. -1.
        -13    1    3    3    0    0 -0.73659016388E+01  0.62424954401E+02 -0.52668231896E+02  0.82006549068E+02  0.00000000000E+00 0.  1.
         13    1    3    3    0    0 -0.49170979077E+02 -0.19155340669E+02 -0.60608994995E+02  0.80362693670E+02  0.00000000000E+00 0. -1.
          1    1    1    2  501    0  0.19619112567E+02  0.42803892109E+02 -0.20574156940E+02  0.51384615318E+02  0.00000000000E+00 0. -1.
<scales pt_clust_5="13000.00000" pt_clust_6="13000.00000" pt_clust_7="13000.00000" pt_clust_8="13000.00000" pt_clust_9="47.08591"></scales>
<clustering>
<clus scale="   47.086">  1  9  2 -1</clus>
<clus scale="   81.434">  5  6 -1 -1</clus>
<clus scale="   91.997">  7  8 -1 -1</clus>
<clus scale="  111.552">  1  5  2 -1</clus>
<clus scale="   47.086">  1  5  2 -1</clus>
</clustering>
</event>
<event>
 9    2  0.6175212E-005  0.9254777E+02  0.7546771E-02  0.1302349E+00
          2   -1    0    0  502    0 -0.00000000000E+00  0.00000000000E+00  0.39648803643E+03  0.39648803643E+03  0.00000000000E+00 0. -1.
         21   -1    0    0  501  502  0.00000000000E+00 -0.00000000000E+00 -0.57307430091E+02  0.57307430091E+02  0.00000000000E+00 0.  1.
         24    2    1    2    0    0  0.15761208056E+02  0.18837968444E+02  0.29324390180E+03  0.30493989901E+03  0.79956684096E+02 0.  0.
         23    2    1    2    0    0 -0.33195204285E+02  0.19337593744E+01  0.65295099199E+02  0.11553655874E+03  0.89328525194E+02 0.  0.
        -13    1    3    3    0    0 -0.75508807571E+01 -0.23672474545E+02  0.39943553420E+02  0.47041357454E+02  0.00000000000E+00 0.  1.
         14    1    3    3    0    0  0.23312088813E+02  0.42510442989E+02  0.25330034838E+03  0.25789854156E+03  0.00000000000E+00 0. -1.
        -11    1    4    4    0    0  0.15414612063E+02 -0.31222610539E+02  0.14190065409E+02  0.37600792947E+02  0.00000000000E+00 0. -1.
         11    1    4    4    0    0 -0.48609816348E+02  0.33156369913E+02  0.51105033790E+02  0.77935765794E+02  0.00000000000E+00 0.  1.
          1    1    1    2  501    0  0.17433996229E+02 -0.20771727819E+02 -0.19358394664E+02  0.33319008765E+02  0.00000000000E+00 0. -1.
<scales pt_clust_5="13000.00000" pt_clust_6="13000.00000" pt_clust_7="13000.00000" pt_clust_8="13000.00000" pt_clust_9="27.11842"></scales>
<clustering>
<clus scale="   27.118">  2  9  1 -1</clus>
<clus scale="   79.957">  5  6 -1 -1</clus>
<clus scale="   83.538">  1  5  2 -1</clus>
<clus scale="   89.329">  7  8 -1 -1</clus>
<clus scale="   27.118">  2  5  1 -1</clus>
</clustering>
</event>
<event>
 9    2  0.6175212E-005  0.9771215E+02  0.7546771E-02  0.1291022E+00
          2   -1    0    0  502    0 -0.00000000000E+00  0.00000000000E+00  0.77862975339E+02  0.77862975339E+02  0.00000000000E+00 0. -1.
         21   -1    0    0  501  502  0.00000000000E+00 -0.00000000000E+00 -0.26974269907E+03  0.26974269907E+03  0.00000000000E+00 0.  1.
         23    2    1    2    0    0 -0.21687189628E+02  0.57712141943E+01 -0.38778612354E+02  0.10202869316E+03  0.91664782461E+02 0.  0.
         24    2    1    2    0    0  0.63853550886E+02  0.25323960762E+02 -0.16081795619E+03  0.19261981346E+03  0.80755176640E+02 0.  0.
        -11    1    4    4    0    0  0.79058160678E+02  0.43819142899E+01 -0.10929108709E+03  0.13495901474E+03  0.00000000000E+00 0.  1.
         12    1    4    4    0    0 -0.15204609793E+02  0.20942046472E+02 -0.51526869103E+02  0.57660798719E+02  0.00000000000E+00 0. -1.
        -13    1    3    3    0    0 -0.93868897848E+01  0.48605659579E+02 -0.24477591458E+02  0.55224780004E+02  0.00000000000E+00 0. -1.
         13    1    3    3    0    0 -0.12300299843E+02 -0.42834445384E+02 -0.14301020897E+02  0.46803913151E+02  0.00000000000E+00 0.  1.
          1    1    1    2  501    0 -0.42166361258E+02 -0.31095174956E+02  0.77168448104E+01  0.52957167797E+02  0.00000000000E+00 0. -1.
<scales pt_clust_5="13000.00000" pt_clust_6="13000.00000" pt_clust_7="13000.00000" pt_clust_8="13000.00000" pt_clust_9="52.39193"></scales>
<clustering>
<clus scale="   52.392">  2  9  1 -1</clus>
<clus scale="   80.755">  5  6 -1 -1</clus>
<clus scale="   87.559">  2  5  1 -1</clus>
<clus scale="   91.665">  7  8 -1 -1</clus>
<clus scale="   52.392">  2  5  1 -1</clus>
</clustering>
</event>
<event>
 9    2  0.6175212E-005  0.1137729E+03  0.7546771E-02  0.1257468E+00
         21   -1    0    0  501  502  0.00000000000E+00  0.00000000000E+00  0.14409965982E+03  0.14409965982E+03  0.00000000000E+00 0. -1.
          2   -1    0    0  502    0 -0.00000000000E+00 -0.00000000000E+00 -0.83040106270E+03  0.83040106270E+03  0.00000000000E+00 0. -1.
         24    2    1    2    0    0 -0.44650793234E+02  0.49223819151E+02 -0.70919161107E+03  0.71679100473E+03  0.80124437848E+02 0.  0.
         23    2    1    2    0    0  0.68815578087E+02 -0.62047072391E+02 -0.79320917960E+02  0.15190098961E+03  0.90535515892E+02 0.  0.
        -11    1    3    3    0    0 -0.27581480675E+02  0.38608435988E+01 -0.64196492511E+02  0.69977380919E+02  0.00000000000E+00 0.  1.
         12    1    3    3    0    0 -0.17069312559E+02  0.45362975552E+02 -0.64499511856E+03  0.64681362381E+03  0.00000000000E+00 0. -1.
        -11    1    4    4    0    0  0.49295656580E+02 -0.50051300756E+02 -0.95805599194E+00  0.70257471747E+02  0.00000000000E+00 0.  1.
         11    1    4    4    0    0  0.19519921508E+02 -0.11995771635E+02 -0.78362861968E+02  0.81643517861E+02  0.00000000000E+00 0. -1.
          1    1    1    2  501    0 -0.24164784853E+02  0.12823253240E+02  0.10221112615E+03  0.10580872819E+03  0.00000000000E+00 0. -1.
<scales pt_clust_5="13000.00000" pt_clust_6="13000.00000" pt_clust_7="13000.00000" pt_clust_8="13000.00000" pt_clust_9="27.35640"></scales>
<clustering>
<clus scale="   27.356">  1  9  2 -1</clus>
<clus scale="   80.124">  5  6 -1 -1</clus>
<clus scale="   90.536">  7  8 -1 -1</clus>
<clus scale="  105.676">  2  5  1 -1</clus>
<clus scale="   27.356">  1  5  2 -1</clus>
</clustering>
</event>
<event>
 9    2  0.6175212E-005  0.1207864E+03  0.7546771E-02  0.1248103E+00
         21   -1    0    0  501  502  0.00000000000E+00  0.00000000000E+00  0.55096345125E+03  0.55096345125E+03  0.00000000000E+00 0.  1.
         -1   -1    0    0    0  501 -0.00000000000E+00 -0.00000000000E+00 -0.57870991134E+02  0.57870991134E+02  0.00000000000E+00 0.  1.
         23    2    1    2    0    0 -0.75913369310E+02 -0.44131897870E+02  0.55078471472E+02  0.14393948293E+03  0.99872281818E+02 0.  0.
         24    2    1    2    0    0  0.20403811892E+02  0.23843088344E+02  0.18034389756E+03  0.20053380007E+03  0.81884523447E+02 0.  0.
        -13    1    4    4    0    0 -0.10844336986E+02 -0.26134057146E+02  0.49260960869E+02  0.56808721631E+02  0.00000000000E+00 0.  1.
         14    1    4    4    0    0  0.31248148878E+02  0.49977145489E+02  0.13108293669E+03  0.14372507843E+03  0.00000000000E+00 0. -1.
        -13    1    3    3    0    0 -0.21981127765E+02  0.28805890963E+02  0.36329186844E+02  0.51310419495E+02  0.00000000000E+00 0. -1.
         13    1    3    3    0    0 -0.53932241545E+02 -0.72937788833E+02  0.18749284628E+02  0.92629063430E+02  0.00000000000E+00 0.  1.
         -2    1    1    2    0  502  0.55509557417E+02  0.20288809526E+02  0.25767009108E+03  0.26436115939E+03  0.00000000000E+00 0.  1.
<scales pt_clust_5="13000.00000" pt_clust_6="13000.00000" pt_clust_7="13000.00000" pt_clust_8="13000.00000" pt_clust_9="59.10116"></scales>
<clustering>
<clus scale="   59.101">  1  9  2 -1</clus>
<clus scale="   81.885">  5  6 -1 -1</clus>
<clus scale="   99.872">  7  8 -1 -1</clus>
<clus scale="  106.395">  1  5  2 -1</clus>
<clus scale="   59.101">  1  5  2 -1</clus>
</clustering>
</event>
<event>
 9    2  0.6175212E-005  0.1247472E+03  0.7546771E-02  0.1237011E+00
         -3   -1    0    0    0  501 -0.00000000000E+00  0.00000000000E+00  0.16716635659E+03  0.16716635659E+03  0.00000000000E+00 0.  1.
         21   -1    0    0  501  502  0.00000000000E+00 -0.00000000000E+00 -0.18487554013E+03  0.18487554013E+03  0.00000000000E+00 0. -1.
         24    2    1    2    0    0 -0.17000843481E+01  0.66675302131E+02  0.30238869274E+01  0.10605386870E+03  0.82400200075E+02 0.  0.
         23    2    1    2    0    0 -0.62842323589E+01 -0.13536079068E+03 -0.52508711998E+02  0.16988850737E+03  0.87993777452E+02 0.  0.
        -11    1    3    3    0    0  0.36580291506E+02  0.12044166784E+02  0.73445920404E+01  0.39206156563E+02  0.00000000000E+00 0.  1.
         12    1    3    3    0    0 -0.38280375854E+02  0.54631135347E+02 -0.43207051131E+01  0.66847712133E+02  0.00000000000E+00 0. -1.
        -13    1    4    4    0    0  0.40408208133E+02 -0.59948870032E+02 -0.16460477285E+02  0.74146055965E+02  0.00000000000E+00 0.  1.
         13    1    4    4    0    0 -0.46692440492E+02 -0.75411920644E+02 -0.36048234712E+02  0.95742451400E+02  0.00000000000E+00 0. -1.
         -4    1    1    2    0  502  0.79843167070E+01  0.68685488546E+02  0.31775641525E+02  0.76099520658E+02  0.00000000000E+00 0.  1.
<scales pt_clust_5="13000.00000" pt_clust_6="13000.00000" pt_clust_7="13000.00000" pt_clust_8="13000.00000" pt_clust_9="69.14803"></scales>
<clustering>
<clus scale="   69.148">  2  9  1 -1</clus>
<clus scale="   82.400">  5  6 -1 -1</clus>
<clus scale="   87.994">  7  8 -1 -1</clus>
<clus scale="  120.867">  1  5  2 -1</clus>
<clus scale="   69.148">  2  5  1 -1</clus>
</clustering>
</event>
<event>
 9    2  0.6175212E-005  0.4061003E+03  0.7546771E-02  0.1041688E+00
         21   -1    0    0  501  502  0.00000000000E+00  0.00000000000E+00  0.27662976510E+03  0.27662976510E+03  0.00000000000E+00 0. -1.
          2   -1    0    0  502    0 -0.00000000000E+00 -0.00000000000E+00 -0.52559388336E+03  0.52559388336E+03  0.00000000000E+00 0. -1.
         24    2    1    2    0    0  0.10338536015E+03  0.22838451516E+03 -0.18818461286E+03  0.32382652396E+03  0.81253613107E+02 0.  0.
         23    2    1    2    0    0 -0.40767647143E+02  0.94826984682E+02 -0.54202832521E+02  0.14911016114E+03  0.92960932787E+02 0.  0.
        -11    1    3    3    0    0  0.95086358732E+02  0.11975216819E+03 -0.91727043216E+02  0.17831390260E+03  0.00000000000E+00 0.  1.
         12    1    3    3    0    0  0.82990014201E+01  0.10863234698E+03 -0.96457569647E+02  0.14551262137E+03  0.00000000000E+00 0. -1.
        -13    1    4    4    0    0  0.18817490316E+02 -0.71193289613E+01 -0.27558169758E+01  0.20307075463E+02  0.00000000000E+00 0.  1.
         13    1    4    4    0    0 -0.59585137460E+02  0.10194631364E+03 -0.51447015545E+02  0.12880308568E+03  0.00000000000E+00 0. -1.
          1    1    1    2  501    0 -0.62617713009E+02 -0.32321149984E+03 -0.65766728796E+01  0.32928696336E+03  0.00000000000E+00 0. -1.
<scales pt_clust_5="13000.00000" pt_clust_6="13000.00000" pt_clust_7="13000.00000" pt_clust_8="13000.00000" pt_clust_9="329.22128"></scales>
<clustering>
<clus scale="   81.254">  5  6 -1 -1</clus>
<clus scale="   92.961">  7  8 -1 -1</clus>
<clus scale="  128.157">  5  7 -1 -1</clus>
<clus scale="  329.221">  1  9  2 -1</clus>
<clus scale="  329.221">  1  5  2 -1</clus>
</clustering>
</event>
<event>
 9    2  0.6175212E-005  0.1874538E+03  0.7546771E-02  0.1170635E+00
         21   -1    0    0  501  502  0.00000000000E+00  0.00000000000E+00  0.10707705375E+04  0.10707705375E+04  0.00000000000E+00 0.  1.
         -1   -1    0    0    0  501 -0.00000000000E+00 -0.00000000000E+00 -0.35744430062E+03  0.35744430062E+03  0.00000000000E+00 0.  1.
         24    2    1    2    0    0 -0.84932888738E+02  0.90700945162E+02 -0.27508413510E+03  0.31301793754E+03  0.82877565084E+02 0.  0.
         23    2    1    2    0    0  0.23595140597E+03 -0.10943292574E+03  0.28711060465E+03  0.39757663658E+03  0.89364710260E+02 0.  0.
        -11    1    3    3    0    0 -0.90251249311E+02  0.93234270899E+02 -0.27773897383E+03  0.30655644645E+03  0.00000000000E+00 0.  1.
         12    1    3    3    0    0  0.53183605730E+01 -0.25333257375E+01  0.26548387298E+01  0.64614910940E+01  0.00000000000E+00 0. -1.
        -13    1    4    4    0    0  0.48080602249E+02  0.48565757170E+01  0.90510597386E+02  0.10260360071E+03  0.00000000000E+00 0. -1.
         13    1    4    4    0    0  0.18787080372E+03 -0.11428950146E+03  0.19660000726E+03  0.29497303587E+03  0.00000000000E+00 0.  1.
         -2    1    1    2    0  502 -0.15101851723E+03  0.18731980580E+02  0.70129976729E+03  0.71762026396E+03  0.00000000000E+00 0.  1.
<scales pt_clust_5="13000.00000" pt_clust_6="13000.00000" pt_clust_7="13000.00000" pt_clust_8="13000.00000" pt_clust_9="164.78130"></scales>
<clustering>
<clus scale="   82.878">  5  6 -1 -1</clus>
<clus scale="   89.365">  7  8 -1 -1</clus>
<clus scale="  149.362">  2  5  1 -1</clus>
<clus scale="  164.781">  1  9  2 -1</clus>
<clus scale="  164.781">  1  5  2 -1</clus>
</clustering>
</event>
<event>
 9    2  0.6175212E-005  0.8370019E+02  0.7546771E-02  0.1321099E+00
         -1   -1    0    0    0  501 -0.00000000000E+00  0.00000000000E+00  0.16241332345E+03  0.16241332345E+03  0.00000000000E+00 0.  1.
         21   -1    0    0  501  502  0.00000000000E+00 -0.00000000000E+00 -0.19401847642E+03  0.19401847642E+03  0.00000000000E+00 0.  1.
         23    2    1    2    0    0  0.15592946579E+02 -0.38357273184E+01  0.56245361836E+02  0.10161163138E+03  0.83087484719E+02 0.  0.
         24    2    1    2    0    0  0.49958215513E+02  0.29642117457E+02 -0.13705237612E+03  0.16889143184E+03  0.79790247059E+02 0.  0.
        -11    1    4    4    0    0  0.11164711232E+02 -0.24151899258E+02 -0.68598221677E+02  0.73577721030E+02  0.00000000000E+00 0.  1.
         12    1    4    4    0    0  0.38793504281E+02  0.53794016715E+02 -0.68454154442E+02  0.95313710814E+02  0.00000000000E+00 0. -1.
        -13    1    3    3    0    0  0.15068830814E+02  0.31203675004E+02  0.56832612073E+02  0.66563389268E+02  0.00000000000E+00 0.  1.
         13    1    3    3    0    0  0.52411576469E+00 -0.35039402322E+02 -0.58725023654E+00  0.35048242114E+02  0.00000000000E+00 0. -1.
         -2    1    1    2    0  502 -0.65551162092E+02 -0.25806390139E+02  0.49201861320E+02  0.85928736642E+02  0.00000000000E+00 0.  1.
<scales pt_clust_5="13000.00000" pt_clust_6="13000.00000" pt_clust_7="13000.00000" pt_clust_8="13000.00000" pt_clust_9="70.44806"></scales>
<clustering>
<clus scale="   70.448">  2  9  1 -1</clus>
<clus scale="   79.790">  5  6 -1 -1</clus>
<clus scale="   80.428">  2  5  1 -1</clus>
<clus scale="   83.087">  7  8 -1 -1</clus>
<clus scale="   70.448">  2  5  1 -1</clus>
</clustering>
</event>
<event>
 9    2  0.6175212E-005  0.9317215E+02  0.7546771E-02  0.1303774E+00
         21   -1    0    0  501  502  0.00000000000E+00  0.00000000000E+00  0.72747225262E+02  0.72747225262E+02  0.00000000000E+00 0. -1.
         -3   -1    0    0    0  501 -0.00000000000E+00 -0.00000000000E+00 -0.22089060788E+03  0.22089060788E+03  0.00000000000E+00 0.  1.
         24    2    1    2    0    0 -0.44177049293E+01  0.75247777213E+01 -0.13203784510E+03  0.15410248764E+03  0.78977501620E+02 0.  0.
         23    2    1    2    0    0  0.25278240499E+02  0.16502680620E+01 -0.42290463317E+02  0.10482232563E+03  0.92506885341E+02 0.  0.
        -13    1    3    3    0    0 -0.36233435411E+02 -0.16165814294E+02 -0.70165971829E+02  0.80606817305E+02  0.00000000000E+00 0.  1.
         14    1    3    3    0    0  0.31815730481E+02  0.23690592015E+02 -0.61871873272E+02  0.73495670337E+02  0.00000000000E+00 0. -1.
        -11    1    4    4    0    0  0.36804638614E+02  0.23348960171E+02 -0.60268174138E+02  0.74377470907E+02  0.00000000000E+00 0. -1.
         11    1    4    4    0    0 -0.11526398115E+02 -0.21698692109E+02  0.17977710821E+02  0.30444854723E+02  0.00000000000E+00 0.  1.
         -4    1    1    2    0  502 -0.20860535570E+02 -0.91750457832E+01  0.26184925800E+02  0.34713019870E+02  0.00000000000E+00 0.  1.
<scales pt_clust_5="13000.00000" pt_clust_6="13000.00000" pt_clust_7="13000.00000" pt_clust_8="13000.00000" pt_clust_9="22.78911"></scales>
<clustering>
<clus scale="   22.789">  1  9  2 -1</clus>
<clus scale="   78.978">  5  6 -1 -1</clus>
<clus scale="   79.756">  2  5  1 -1</clus>
<clus scale="   92.507">  7  8 -1 -1</clus>
<clus scale="   22.789">  1  5  2 -1</clus>
</clustering>
</event>
<event>
 9    2  0.6175212E-005  0.9627570E+02  0.7546771E-02  0.1295262E+00
          2   -1    0    0  502    0 -0.00000000000E+00  0.00000000000E+00  0.49170481421E+03  0.49170481421E+03  0.00000000000E+00 0. -1.
         21   -1    0    0  501  502  0.00000000000E+00 -0.00000000000E+00 -0.76279284017E+02  0.76279284017E+02  0.00000000000E+00 0. -1.
         24    2    1    2    0    0  0.27710006869E+02 -0.12876452651E+02  0.33716309130E+03  0.34764301262E+03  0.79013078493E+02 0.  0.
         23    2    1    2    0    0 -0.95285577299E+01  0.39052199249E+02  0.12733521636E+03  0.16182722152E+03  0.91421685715E+02 0.  0.
        -13    1    3    3    0    0  0.22394388515E+02  0.32058507766E+02  0.17240886633E+03  0.17678821721E+03  0.00000000000E+00 0.  1.
         14    1    3    3    0    0  0.53156183543E+01 -0.44934960417E+02  0.16475422498E+03  0.17085479541E+03  0.00000000000E+00 0. -1.
        -11    1    4    4    0    0  0.36928995206E+02  0.37677184088E+02  0.58562016782E+02  0.78821511641E+02  0.00000000000E+00 0.  1.
         11    1    4    4    0    0 -0.46457552936E+02  0.13750151614E+01  0.68773199580E+02  0.83005709875E+02  0.00000000000E+00 0. -1.
          1    1    1    2  501    0 -0.18181449139E+02 -0.26175746598E+02 -0.49072777469E+02  0.58513864095E+02  0.00000000000E+00 0. -1.
<scales pt_clust_5="13000.00000" pt_clust_6="13000.00000" pt_clust_7="13000.00000" pt_clust_8="13000.00000" pt_clust_9="31.87059"></scales>
<clustering>
<clus scale="   31.871">  2  9  1 -1</clus>
<clus scale="   79.013">  5  6 -1 -1</clus>
<clus scale="   84.582">  1  5  2 -1</clus>
<clus scale="   91.422">  7  8 -1 -1</clus>
<clus scale="   31.871">  2  5  1 -1</clus>
</clustering>
</event>
<event>
 9    2  0.6175212E-005  0.1120328E+03  0.7546771E-02  0.1265269E+00
          4   -1    0    0  502    0 -0.00000000000E+00  0.00000000000E+00  0.52849529847E+02  0.52849529847E+02  0.00000000000E+00 0. -1.
         21   -1    0    0  501  502  0.00000000000E+00 -0.00000000000E+00 -0.43246119230E+03  0.43246119230E+03  0.00000000000E+00 0. -1.
         24    2    1    2    0    0  0.43034760519E+02 -0.42684724521E+02 -0.36411190053E+02  0.10747373943E+03  0.80937343585E+02 0.  0.
         23    2    1    2    0    0 -0.28493318043E+02 -0.72774023631E+01 -0.20479369280E+03  0.22997182687E+03  0.10040794185E+03 0.  0.
        -11    1    3    3    0    0  0.20165946163E+02 -0.52169139464E+02 -0.53494101768E+02  0.77394466346E+02  0.00000000000E+00 0.  1.
         12    1    3    3    0    0  0.22868814356E+02  0.94844149426E+01  0.17082911715E+02  0.30079273088E+02  0.00000000000E+00 0. -1.
        -11    1    4    4    0    0 -0.53989943628E+02  0.43702383425E+01 -0.53606727746E+02  0.76208229581E+02  0.00000000000E+00 0.  1.
         11    1    4    4    0    0  0.25496625585E+02 -0.11647640706E+02 -0.15118696505E+03  0.15376359729E+03  0.00000000000E+00 0. -1.
          3    1    1    2  501    0 -0.14541442476E+02  0.49962126884E+02 -0.13840677960E+03  0.14786515584E+03  0.00000000000E+00 0. -1.
<scales pt_clust_5="13000.00000" pt_clust_6="13000.00000" pt_clust_7="13000.00000" pt_clust_8="13000.00000" pt_clust_9="52.03525"></scales>
<clustering>
<clus scale="   52.035">  2  9  1 -1</clus>
<clus scale="   80.937">  5  6 -1 -1</clus>
<clus scale="   94.976">  1  5  2 -1</clus>
<clus scale="  100.408">  7  8 -1 -1</clus>
<clus scale="   52.035">  2  5  1 -1</clus>
</clustering>
</event>
<event>
 9    2  0.6175212E-005  0.2183815E+03  0.7546771E-02  0.1161045E+00
          2   -1    0    0  502    0 -0.00000000000E+00  0.00000000000E+00  0.99478747156E+03  0.99478747156E+03  0.00000000000E+00 0. -1.
         21   -1    0    0  501  502  0.00000000000E+00 -0.00000000000E+00 -0.10696195575E+03  0.10696195575E+03  0.00000000000E+00 0. -1.
         24    2    1    2    0    0  0.24994366598E+02  0.83534199355E+02  0.52787833110E+03  0.54086809466E+03  0.79246971840E+02 0.  0.
         23    2    1    2    0    0  0.83945067295E+01  0.15921877930E+03  0.16241178522E+03  0.24613689734E+03  0.93726713520E+02 0.  0.
        -11    1    3    3    0    0  0.18856929375E+02  0.22065293659E+02  0.41852847602E+02  0.50932522243E+02  0.00000000000E+00 0.  1.
         12    1    3    3    0    0  0.61374372233E+01  0.61468905696E+02  0.48602548350E+03  0.48993557241E+03  0.00000000000E+00 0. -1.
        -11    1    4    4    0    0  0.31858125691E+02  0.13192026021E+03  0.16036402296E+03  0.21008216270E+03  0.00000000000E+00 0. -1.
         11    1    4    4    0    0 -0.23463618961E+02  0.27298519096E+02  0.20477622629E+01  0.36054734639E+02  0.00000000000E+00 0.  1.
          1    1    1    2  501    0 -0.33388873328E+02 -0.24275297866E+03  0.19753539949E+03  0.31474443531E+03  0.00000000000E+00 0. -1.
<scales pt_clust_5="13000.00000" pt_clust_6="13000.00000" pt_clust_7="13000.00000" pt_clust_8="13000.00000" pt_clust_9="197.24559"></scales>
<clustering>
<clus scale="   79.247">  5  6 -1 -1</clus>
<clus scale="   93.727">  7  8 -1 -1</clus>
<clus scale="  117.825">  1  5  2 -1</clus>
<clus scale="  197.246">  2  9  1 -1</clus>
<clus scale="  197.246">  2  5  1 -1</clus>
</clustering>
</event>
<event>
 9    2  0.6175212E-005  0.9306922E+02  0.7546771E-02  0.1302993E+00
         21   -1    0    0  501  502  0.00000000000E+00  0.00000000000E+00  0.60664395963E+03  0.60664395963E+03  0.00000000000E+00 0. -1.
          2   -1    0    0  502    0 -0.00000000000E+00 -0.00000000000E+00 -0.12908517433E+03  0.12908517433E+03  0.00000000000E+00 0. -1.
         23    2    1    2    0    0  0.11627173044E+02  0.73538760100E+01 -0.86701458018E+02  0.12726866201E+03  0.92146073507E+02 0.  0.
         24    2    1    2    0    0  0.22626176732E+02 -0.22187831520E+02  0.56459575323E+03  0.57113151839E+03  0.80116184317E+02 0.  0.
        -11    1    4    4    0    0  0.12428473748E+02 -0.44390449388E+02  0.18167470731E+03  0.18743179622E+03  0.00000000000E+00 0.  1.
         12    1    4    4    0    0  0.10197702984E+02  0.22202617868E+02  0.38292104592E+03  0.38369972217E+03  0.00000000000E+00 0. -1.
        -11    1    3    3    0    0  0.47512048733E+01  0.31689556674E+02  0.47421588622E+01  0.32392746419E+02  0.00000000000E+00 0.  1.
         11    1    3    3    0    0  0.68759681703E+01 -0.24335680664E+02 -0.91443616880E+02  0.94875915594E+02  0.00000000000E+00 0. -1.
          1    1    1    2  501    0 -0.34253349776E+02  0.14833955510E+02 -0.33550991865E+00  0.37328953559E+02  0.00000000000E+00 0. -1.
<scales pt_clust_5="13000.00000" pt_clust_6="13000.00000" pt_clust_7="13000.00000" pt_clust_8="13000.00000" pt_clust_9="37.32746"></scales>
<clustering>
<clus scale="   37.327">  1  9  2 -1</clus>
<clus scale="   80.116">  5  6 -1 -1</clus>
<clus scale="   81.176">  1  5  2 -1</clus>
<clus scale="   92.146">  7  8 -1 -1</clus>
<clus scale="   37.327">  1  5  2 -1</clus>
</clustering>
</event>
<event>
 9    2  0.6175212E-005  0.1983733E+03  0.7546771E-02  0.1183744E+00
         21   -1    0    0  501  502  0.00000000000E+00  0.00000000000E+00  0.27265833471E+03  0.27265833471E+03  0.00000000000E+00 0.  1.
          2   -1    0    0  502    0 -0.00000000000E+00 -0.00000000000E+00 -0.29676329266E+03  0.29676329266E+03  0.00000000000E+00 0. -1.
         24    2    1    2    0    0 -0.36421781688E+02  0.22405380950E+02 -0.62121745590E+02  0.11244459090E+03  0.83403402032E+02 0.  0.
         23    2    1    2    0    0 -0.15979784733E+03 -0.56199387661E+02  0.13535030111E+03  0.23535124702E+03  0.91524763197E+02 0.  0.
        -11    1    3    3    0    0  0.18981860889E+02 -0.16352743238E+02 -0.96123707347E+01  0.26835068946E+02  0.00000000000E+00 0.  1.
         12    1    3    3    0    0 -0.55403642577E+02  0.38758124188E+02 -0.52509374855E+02  0.85609521953E+02  0.00000000000E+00 0. -1.
        -11    1    4    4    0    0 -0.11369066388E+03 -0.48197228393E+02  0.41138487666E+02  0.13015727043E+03  0.00000000000E+00 0. -1.
         11    1    4    4    0    0 -0.46107183451E+02 -0.80021592687E+01  0.94211813439E+02  0.10519397659E+03  0.00000000000E+00 0.  1.
          1    1    1    2  501    0  0.19621962902E+03  0.33794006711E+02 -0.97333513468E+02  0.22162578945E+03  0.00000000000E+00 0. -1.
<scales pt_clust_5="13000.00000" pt_clust_6="13000.00000" pt_clust_7="13000.00000" pt_clust_8="13000.00000" pt_clust_9="175.99779"></scales>
<clustering>
<clus scale="   83.403">  5  6 -1 -1</clus>
<clus scale="   91.525">  7  8 -1 -1</clus>
<clus scale="   93.727">  2  5  1 -1</clus>
<clus scale="  175.998">  1  9  2 -1</clus>
<clus scale="  175.998">  1  5  2 -1</clus>
</clustering>
</event>
<event>
 9    2  0.6175212E-005  0.9447014E+02  0.7546771E-02  0.1297032E+00
         -1   -1    0    0    0  501 -0.00000000000E+00  0.00000000000E+00  0.17630557165E+03  0.17630557165E+03  0.00000000000E+00 0.  1.
         21   -1    0    0  501  502  0.00000000000E+00 -0.00000000000E+00 -0.83952181346E+02  0.83952181346E+02  0.00000000000E+00 0. -1.
         23    2    1    2    0    0 -0.21547649718E+02  0.12724615153E+02  0.40392362297E+02  0.10043641080E+03  0.88485663485E+02 0.  0.
         24    2    1    2    0    0 -0.38758197989E+01 -0.56227794694E+02  0.19365461824E+02  0.99810090197E+02  0.80065261620E+02 0.  0.
        -13    1    4    4    0    0  0.27839192135E+02 -0.12485366391E+01 -0.10350485406E+02  0.29727294034E+02  0.00000000000E+00 0.  1.
         14    1    4    4    0    0 -0.31715011934E+02 -0.54979258055E+02  0.29715947230E+02  0.70082796163E+02  0.00000000000E+00 0. -1.
        -13    1    3    3    0    0  0.15875565619E+02 -0.29467563834E+02  0.25576897249E+02  0.42125391095E+02  0.00000000000E+00 0.  1.
         13    1    3    3    0    0 -0.37423215337E+02  0.42192178987E+02  0.14815465048E+02  0.58311019700E+02  0.00000000000E+00 0. -1.
         -2    1    1    2    0  502  0.25423469517E+02  0.43503179541E+02  0.32595566188E+02  0.60011252008E+02  0.00000000000E+00 0.  1.
<scales pt_clust_5="13000.00000" pt_clust_6="13000.00000" pt_clust_7="13000.00000" pt_clust_8="13000.00000" pt_clust_9="50.38732"></scales>
<clustering>
<clus scale="   50.387">  2  9  1 -1</clus>
<clus scale="   80.065">  5  6 -1 -1</clus>
<clus scale="   86.633">  2  5  1 -1</clus>
<clus scale="   88.486">  7  8 -1 -1</clus>
<clus scale="   50.387">  2  5  1 -1</clus>
</clustering>
</event>
<event>
 9    2  0.6175212E-005  0.1002538E+03  0.7546771E-02  0.1284127E+00
         21   -1    0    0  501  502  0.00000000000E+00  0.00000000000E+00  0.15243557516E+03  0.15243557516E+03  0.00000000000E+00 0. -1.
          2   -1    0    0  502    0 -0.00000000000E+00 -0.00000000000E+00 -0.20065738354E+03  0.20065738354E+03  0.00000000000E+00 0. -1.
         24    2    1    2    0    0 -0.32923513473E+02 -0.40215959465E+02 -0.14413391624E+03  0.17385949271E+03  0.82166028624E+02 0.  0.
         23    2    1    2    0    0 -0.48948851371E+01 -0.65027525990E+00  0.37596469440E+02  0.98604723599E+02  0.91022053609E+02 0.  0.
        -11    1    3    3    0    0 -0.48152967392E+02  0.57122468985E+01 -0.79472738105E+02  0.93098088784E+02  0.00000000000E+00 0.  1.
         12    1    3    3    0    0  0.15229453920E+02 -0.45928206363E+02 -0.64661178137E+02  0.80761403929E+02  0.00000000000E+00 0. -1.
        -13    1    4    4    0    0 -0.37819693493E+02  0.16370342867E+02  0.44773541755E+02  0.60852176484E+02  0.00000000000E+00 0. -1.
         13    1    4    4    0    0  0.32924808356E+02 -0.17020618127E+02 -0.71770723151E+01  0.37752547115E+02  0.00000000000E+00 0.  1.
          1    1    1    2  501    0  0.37818398610E+02  0.40866234724E+02  0.58315638429E+02  0.80628742389E+02  0.00000000000E+00 0. -1.
<scales pt_clust_5="13000.00000" pt_clust_6="13000.00000" pt_clust_7="13000.00000" pt_clust_8="13000.00000" pt_clust_9="55.68016"></scales>
<clustering>
<clus scale="   55.680">  1  9  2 -1</clus>
<clus scale="   82.166">  5  6 -1 -1</clus>
<clus scale="   91.022">  7  8 -1 -1</clus>
<clus scale="   92.288">  2  5  1 -1</clus>
<clus scale="   55.680">  1  5  2 -1</clus>
</clustering>
</event>
<event>
 9    2  0.6175212E-005  0.1001215E+03  0.7546771E-02  0.1287926E+00
          2   -1    0    0  502    0 -0.00000000000E+00  0.00000000000E+00  0.22775587736E+03  0.22775587736E+03  0.00000000000E+00 0. -1.
         21   -1    0    0  501  502  0.00000000000E+00 -0.00000000000E+00 -0.73266877323E+02  0.73266877323E+02  0.00000000000E+00 0. -1.
         23    2    1    2    0    0 -0.13932000394E+02  0.37709884002E+02  0.14586271864E+03  0.17725670482E+03  0.92346471109E+02 0.  0.
         24    2    1    2    0    0 -0.20137299911E+02 -0.40275073760E+02  0.72561051395E+01  0.89572851640E+02  0.77091194536E+02 0.  0.
        -11    1    4    4    0    0  0.68365138028E+01 -0.50993642020E+02  0.23220089124E+02  0.56446983855E+02  0.00000000000E+00 0.  1.
         12    1    4    4    0    0 -0.26973813714E+02  0.10718568260E+02 -0.15963983985E+02  0.33125867785E+02  0.00000000000E+00 0. -1.
        -11    1    3    3    0    0 -0.21868975983E+02 -0.27063617717E+02  0.41330135254E+02  0.54026582297E+02  0.00000000000E+00 0.  1.
         11    1    3    3    0    0  0.79369755892E+01  0.64773501719E+02  0.10453258339E+03  0.12323012252E+03  0.00000000000E+00 0. -1.
          1    1    1    2  501    0  0.34069300305E+02  0.25651897579E+01  0.13701762519E+01  0.34193198223E+02  0.00000000000E+00 0. -1.
<scales pt_clust_5="13000.00000" pt_clust_6="13000.00000" pt_clust_7="13000.00000" pt_clust_8="13000.00000" pt_clust_9="34.16573"></scales>
<clustering>
<clus scale="   34.166">  2  9  1 -1</clus>
<clus scale="   77.091">  5  6 -1 -1</clus>
<clus scale="   86.252">  2  5  1 -1</clus>
<clus scale="   92.346">  7  8 -1 -1</clus>
<clus scale="   34.166">  2  5  1 -1</clus>
</clustering>
</event>
<event>
 9    2  0.6175212E-005  0.1051910E+03  0.7546771E-02  0.1274667E+00
          2   -1    0    0  502    0 -0.00000000000E+00  0.00000000000E+00  0.35849812123E+03  0.35849812123E+03  0.00000000000E+00 0. -1.
         21   -1    0    0  501  502  0.00000000000E+00 -0.00000000000E+00 -0.13177304587E+03  0.13177304587E+03  0.00000000000E+00 0. -1.
         24    2    1    2    0    0  0.57360340445E+02 -0.48480776272E+01  0.25631369639E+03  0.27484992110E+03  0.80821133737E+02 0.  0.
         23    2    1    2    0    0 -0.33373341977E+02 -0.12117893352E+02  0.63900604572E+02  0.11742402375E+03  0.91893910543E+02 0.  0.
        -11    1    3    3    0    0 -0.42747799025E+01  0.27814238334E+02  0.54770025705E+02  0.61576467202E+02  0.00000000000E+00 0.  1.
         12    1    3    3    0    0  0.61635120348E+02 -0.32662315962E+02  0.20154367069E+03  0.21327345390E+03  0.00000000000E+00 0. -1.
        -13    1    4    4    0    0  0.20641457890E+02  0.10462237013E+02  0.53056466497E+02  0.57883649024E+02  0.00000000000E+00 0.  1.
         13    1    4    4    0    0 -0.54014799867E+02 -0.22580130366E+02  0.10844138075E+02  0.59540374727E+02  0.00000000000E+00 0. -1.
          1    1    1    2  501    0 -0.23986998468E+02  0.16965970980E+02 -0.93489225596E+02  0.97997222253E+02  0.00000000000E+00 0. -1.
<scales pt_clust_5="13000.00000" pt_clust_6="13000.00000" pt_clust_7="13000.00000" pt_clust_8="13000.00000" pt_clust_9="29.38061"></scales>
<clustering>
<clus scale="   29.381">  2  9  1 -1</clus>
<clus scale="   80.821">  5  6 -1 -1</clus>
<clus scale="   91.894">  7  8 -1 -1</clus>
<clus scale="   95.670">  1  5  2 -1</clus>
<clus scale="   29.381">  2  5  1 -1</clus>
</clustering>
</event>
<event>
 9    2  0.6175212E-005  0.1565191E+03  0.7546771E-02  0.1194698E+00
         21   -1    0    0  501  502  0.00000000000E+00  0.00000000000E+00  0.17529294559E+03  0.17529294559E+03  0.00000000000E+00 0.  1.
          2   -1    0    0  502    0 -0.00000000000E+00 -0.00000000000E+00 -0.35252472425E+03  0.35252472425E+03  0.00000000000E+00 0. -1.
         24    2    1    2    0    0  0.11264851821E+03 -0.65666875597E+02 -0.28330545328E+03  0.32205666906E+03  0.80353537727E+02 0.  0.
         23    2    1    2    0    0 -0.97912992031E+02  0.37052850416E+02  0.66171609245E+02  0.15449626641E+03  0.92360958914E+02 0.  0.
        -13    1    3    3    0    0  0.34654854290E+02 -0.26067448694E+02 -0.26635124342E+02  0.50891066563E+02  0.00000000000E+00 0.  1.
         14    1    3    3    0    0  0.77993663919E+02 -0.39599426903E+02 -0.25667032893E+03  0.27116560250E+03  0.00000000000E+00 0. -1.
        -11    1    4    4    0    0 -0.75597391526E+02  0.20614322434E+02 -0.45982543615E+01  0.78492418986E+02  0.00000000000E+00 0. -1.
         11    1    4    4    0    0 -0.22315600505E+02  0.16438527982E+02  0.70769863607E+02  0.76003847422E+02  0.00000000000E+00 0.  1.
          1    1    1    2  501    0 -0.14735526178E+02  0.28614025181E+02  0.39902065377E+02  0.51264734371E+02  0.00000000000E+00 0. -1.
<scales pt_clust_5="13000.00000" pt_clust_6="13000.00000" pt_clust_7="13000.00000" pt_clust_8="13000.00000" pt_clust_9="32.18537"></scales>
<clustering>
<clus scale="   32.185">  1  9  2 -1</clus>
<clus scale="   80.354">  5  6 -1 -1</clus>
<clus scale="   92.361">  7  8 -1 -1</clus>
<clus scale="  149.748">  2  5  1 -1</clus>
<clus scale="   32.185">  1  5  2 -1</clus>
</clustering>
</event>
<event>
 9    2  0.6175212E-005  0.3166631E+03  0.7546771E-02  0.1113891E+00
          2   -1    0    0  502    0 -0.00000000000E+00  0.00000000000E+00  0.25474568259E+03  0.25474568259E+03  0.00000000000E+00 0. -1.
         21   -1    0    0  501  502  0.00000000000E+00 -0.00000000000E+00 -0.82535656965E+03  0.82535656965E+03  0.00000000000E+00 0. -1.
         23    2    1    2    0    0  0.36398594277E+02 -0.71264296043E+02 -0.16707351168E+03  0.20640801779E+03  0.91034355857E+02 0.  0.
         24    2    1    2    0    0 -0.33541302054E+03  0.63132295803E+02  0.24571871062E+02  0.35143636383E+03  0.80100935428E+02 0.  0.
        -11    1    4    4    0    0 -0.52677722545E+02 -0.19234019225E+02  0.30334167403E+01  0.56161299533E+02  0.00000000000E+00 0.  1.
         12    1    4    4    0    0 -0.28273529799E+03  0.82366315029E+02  0.21538454322E+02  0.29527506430E+03  0.00000000000E+00 0. -1.
        -13    1    3    3    0    0  0.38702776524E+02 -0.16992501128E+02 -0.13895392612E+03  0.14524064028E+03  0.00000000000E+00 0. -1.
         13    1    3    3    0    0 -0.23041822474E+01 -0.54271794915E+02 -0.28119585563E+02  0.61167377510E+02  0.00000000000E+00 0.  1.
          1    1    1    2  501    0  0.29901442626E+03  0.81320002398E+01 -0.42810924644E+03  0.52225787063E+03  0.00000000000E+00 0. -1.
<scales pt_clust_5="13000.00000" pt_clust_6="13000.00000" pt_clust_7="13000.00000" pt_clust_8="13000.00000" pt_clust_9="306.36473"></scales>
<clustering>
<clus scale="   80.101">  5  6 -1 -1</clus>
<clus scale="   91.034">  7  8 -1 -1</clus>
<clus scale="  121.205">  1  7  2 -1</clus>
<clus scale="  306.365">  2  9  1 -1</clus>
<clus scale="  306.365">  2  5  1 -1</clus>
</clustering>
</event>
<event>
 9    2  0.6175212E-005  0.9854331E+02  0.7546771E-02  0.1290276E+00
          2   -1    0    0  502    0 -0.00000000000E+00  0.00000000000E+00  0.14498325725E+03  0.14498325725E+03  0.00000000000E+00 0. -1.
         21   -1    0    0  501  502  0.00000000000E+00 -0.00000000000E+00 -0.98735465988E+02  0.98735465988E+02  0.00000000000E+00 0. -1.
         23    2    1    2    0    0 -0.74711351510E+01 -0.22207700563E+02  0.42342491446E+02  0.10416874736E+03  0.92245550137E+02 0.  0.
         24    2    1    2    0    0 -0.17928675367E+02  0.49192718521E+02  0.23111482858E+02  0.97810078471E+02  0.79317777671E+02 0.  0.
        -11    1    4    4    0    0 -0.10642236071E+02  0.48118666720E+02  0.49836892552E+02  0.70088366615E+02  0.00000000000E+00 0.  1.
         12    1    4    4    0    0 -0.72864392960E+01  0.10740518001E+01 -0.26725409694E+02  0.27721711856E+02  0.00000000000E+00 0. -1.
        -13    1    3    3    0    0  0.29771776787E+02 -0.34972497991E+01 -0.14808217642E+02  0.33434604214E+02  0.00000000000E+00 0.  1.
         13    1    3    3    0    0 -0.37242911938E+02 -0.18710450764E+02  0.57150709088E+02  0.70734143147E+02  0.00000000000E+00 0. -1.
          1    1    1    2  501    0  0.25399810518E+02 -0.26985017957E+02 -0.19206183043E+02  0.41739897407E+02  0.00000000000E+00 0. -1.
<scales pt_clust_5="13000.00000" pt_clust_6="13000.00000" pt_clust_7="13000.00000" pt_clust_8="13000.00000" pt_clust_9="37.05862"></scales>
<clustering>
<clus scale="   37.059">  2  9  1 -1</clus>
<clus scale="   79.318">  5  6 -1 -1</clus>
<clus scale="   86.561">  2  5  1 -1</clus>
<clus scale="   92.246">  7  8 -1 -1</clus>
<clus scale="   37.059">  2  5  1 -1</clus>
</clustering>
</event>
<event>
 9    2  0.6175212E-005  0.9345389E+02  0.7546771E-02  0.1308062E+00
         21   -1    0    0  501  502  0.00000000000E+00  0.00000000000E+00  0.25826516660E+03  0.25826516660E+03  0.00000000000E+00 0. -1.
         -3   -1    0    0    0  501 -0.00000000000E+00 -0.00000000000E+00 -0.44502888684E+02  0.44502888684E+02  0.00000000000E+00 0.  1.
         24    2    1    2    0    0  0.68137785539E+01 -0.20693635540E+02  0.52973332644E+02  0.89952651357E+02  0.69358859453E+02 0.  0.
         23    2    1    2    0    0 -0.36150919111E+02  0.80126059422E+01  0.14998082174E+03  0.17907682272E+03  0.90571357160E+02 0.  0.
        -13    1    3    3    0    0  0.29788994936E+02 -0.23241938559E+02  0.55022230563E+02  0.66745919601E+02  0.00000000000E+00 0.  1.
         14    1    3    3    0    0 -0.22975216382E+02  0.25483030186E+01 -0.20488979192E+01  0.23206731756E+02  0.00000000000E+00 0. -1.
        -11    1    4    4    0    0  0.57826916203E+01  0.23011804213E+02  0.11825169462E+01  0.23756704356E+02  0.00000000000E+00 0.  1.
         11    1    4    4    0    0 -0.41933610732E+02 -0.14999198271E+02  0.14879830480E+03  0.15532011836E+03  0.00000000000E+00 0. -1.
         -4    1    1    2    0  502  0.29337140558E+02  0.12681029598E+02  0.10808123531E+02  0.33738581210E+02  0.00000000000E+00 0.  1.
<scales pt_clust_5="13000.00000" pt_clust_6="13000.00000" pt_clust_7="13000.00000" pt_clust_8="13000.00000" pt_clust_9="31.96056"></scales>
<clustering>
<clus scale="   31.961">  1  9  2 -1</clus>
<clus scale="   69.359">  5  6 -1 -1</clus>
<clus scale="   73.083">  2  5  1 -1</clus>
<clus scale="   90.571">  7  8 -1 -1</clus>
<clus scale="   31.961">  1  5  2 -1</clus>
</clustering>
</event>
<event>
 9    2  0.6175212E-005  0.2439413E+03  0.7546771E-02  0.1119192E+00
          2   -1    0    0  502    0 -0.00000000000E+00  0.00000000000E+00  0.85353579850E+03  0.85353579850E+03  0.00000000000E+00 0. -1.
         21   -1    0    0  501  502  0.00000000000E+00 -0.00000000000E+00 -0.13065044345E+03  0.13065044345E+03  0.00000000000E+00 0.  1.
         23    2    1    2    0    0  0.39904235635E+02 -0.15134349960E+03  0.96467732134E+02  0.21354770752E+03  0.10862503004E+03 0.  0.
         24    2    1    2    0    0 -0.78901894161E+02  0.27124272598E+03  0.29420461435E+03  0.41530471263E+03  0.78252948360E+02 0.  0.
        -11    1    4    4    0    0 -0.84302437410E+02  0.15327653529E+03  0.18104166378E+03  0.25174725668E+03  0.00000000000E+00 0.  1.
         12    1    4    4    0    0  0.54005432494E+01  0.11796619069E+03  0.11316295058E+03  0.16355745594E+03  0.00000000000E+00 0. -1.
        -11    1    3    3    0    0 -0.21470460880E+02  0.54241044690E+01  0.12163505492E+02  0.25265638040E+02  0.00000000000E+00 0. -1.
         11    1    3    3    0    0  0.61374696515E+02 -0.15676760407E+03  0.84304226642E+02  0.18828206948E+03  0.00000000000E+00 0.  1.
          1    1    1    2  501    0  0.38997658526E+02 -0.11989922638E+03  0.33221300857E+03  0.35533382180E+03  0.00000000000E+00 0. -1.
<scales pt_clust_5="13000.00000" pt_clust_6="13000.00000" pt_clust_7="13000.00000" pt_clust_8="13000.00000" pt_clust_9="126.08195"></scales>
<clustering>
<clus scale="   78.253">  5  6 -1 -1</clus>
<clus scale="  108.625">  7  8 -1 -1</clus>
<clus scale="  126.082">  2  9  1 -1</clus>
<clus scale="  232.016">  2  5  1 -1</clus>
<clus scale="  126.082">  2  5  1 -1</clus>
</clustering>
</event>
<event>
 9    2  0.6175212E-005  0.1256537E+03  0.7546771E-02  0.1236929E+00
          2   -1    0    0  502    0 -0.00000000000E+00  0.00000000000E+00  0.72540870150E+03  0.72540870150E+03  0.00000000000E+00 0. -1.
         21   -1    0    0  501  502  0.00000000000E+00 -0.00000000000E+00 -0.72569620593E+02  0.72569620593E+02  0.00000000000E+00 0. -1.
         23    2    1    2    0    0  0.55390764386E+02 -0.81197553381E+02  0.55250603624E+03  0.56827526952E+03  0.89513587864E+02 0.  0.
         24    2    1    2    0    0  0.35195824177E+02  0.59464516092E+02  0.20509735386E+02  0.10702454736E+03  0.79112766215E+02 0.  0.
        -11    1    4    4    0    0 -0.13142481381E+02  0.54721495256E+02  0.77727921666E+01  0.56811822344E+02  0.00000000000E+00 0.  1.
         12    1    4    4    0    0  0.48338305558E+02  0.47430208359E+01  0.12736943219E+02  0.50212725015E+02  0.00000000000E+00 0. -1.
        -11    1    3    3    0    0  0.14089137606E+01 -0.73839893723E+02  0.38848756716E+03  0.39544519820E+03  0.00000000000E+00 0. -1.
         11    1    3    3    0    0  0.53981850625E+02 -0.73576596585E+01  0.16401846908E+03  0.17283007132E+03  0.00000000000E+00 0.  1.
          1    1    1    2  501    0 -0.90586588563E+02  0.21733037289E+02  0.79823309287E+02  0.12267850522E+03  0.00000000000E+00 0. -1.
<scales pt_clust_5="13000.00000" pt_clust_6="13000.00000" pt_clust_7="13000.00000" pt_clust_8="13000.00000" pt_clust_9="93.15715"></scales>
<clustering>
<clus scale="   79.113">  5  6 -1 -1</clus>
<clus scale="   89.514">  7  8 -1 -1</clus>
<clus scale="   93.157">  2  9  1 -1</clus>
<clus scale="  118.469">  2  5  1 -1</clus>
<clus scale="   93.157">  2  5  1 -1</clus>
</clustering>
</event>
<event>
 9    2  0.6175212E-005  0.1142582E+03  0.7546771E-02  0.1268284E+00
         21   -1    0    0  501  502  0.00000000000E+00  0.00000000000E+00  0.43574010537E+02  0.43574010537E+02  0.00000000000E+00 0. -1.
          2   -1    0    0  502    0 -0.00000000000E+00 -0.00000000000E+00 -0.93398455743E+03  0.93398455743E+03  0.00000000000E+00 0. -1.
         24    2    1    2    0    0  0.36786377319E+01  0.33671898022E+02 -0.55092287922E+03  0.55735589645E+03  0.77344989266E+02 0.  0.
         23    2    1    2    0    0 -0.27073421249E+02  0.53797016391E+02 -0.58206816637E+02  0.12470809620E+03  0.92395815077E+02 0.  0.
        -11    1    3    3    0    0 -0.21183942580E+02 -0.12516567276E+02 -0.85004016183E+02  0.88493540142E+02  0.00000000000E+00 0.  1.
         12    1    3    3    0    0  0.24862580312E+02  0.46188465298E+02 -0.46591886304E+03  0.46886235630E+03  0.00000000000E+00 0. -1.
        -13    1    4    4    0    0 -0.31754791430E+02 -0.13965631610E+02 -0.42737783973E+02  0.55044743836E+02  0.00000000000E+00 0.  1.
         13    1    4    4    0    0  0.46813701802E+01  0.67762648001E+02 -0.15469032664E+02  0.69663352363E+02  0.00000000000E+00 0. -1.
          1    1    1    2  501    0  0.23394783518E+02 -0.87468914412E+02 -0.28128085103E+03  0.29549457532E+03  0.00000000000E+00 0. -1.
<scales pt_clust_5="13000.00000" pt_clust_6="13000.00000" pt_clust_7="13000.00000" pt_clust_8="13000.00000" pt_clust_9="67.21572"></scales>
<clustering>
<clus scale="   77.345">  5  6 -1 -1</clus>
<clus scale="   84.437">  2  5  1 -1</clus>
<clus scale="   67.216">  1  9  2 -1</clus>
<clus scale="   92.396">  7  8 -1 -1</clus>
<clus scale="   67.216">  1  5  2 -1</clus>
</clustering>
</event>
<event>
 9    2  0.6175212E-005  0.1624037E+03  0.7546771E-02  0.1208212E+00
         21   -1    0    0  501  502  0.00000000000E+00  0.00000000000E+00  0.39958492577E+03  0.39958492577E+03  0.00000000000E+00 0. -1.
          2   -1    0    0  502    0 -0.00000000000E+00 -0.00000000000E+00 -0.14598291139E+03  0.14598291139E+03  0.00000000000E+00 0. -1.
         24    2    1    2    0    0  0.58753537232E+02 -0.98946942523E+00 -0.68985975471E+01  0.10026348198E+03  0.80945771874E+02 0.  0.
         23    2    1    2    0    0 -0.65561154335E+02  0.13652340097E+03  0.29288278005E+02  0.17720934663E+03  0.87226402735E+02 0.  0.
        -11    1    3    3    0    0 -0.40152661468E+01  0.20489239953E+02  0.19777613949E+02  0.28759091251E+02  0.00000000000E+00 0.  1.
         12    1    3    3    0    0  0.62768803379E+02 -0.21478709379E+02 -0.26676211496E+02  0.71504390732E+02  0.00000000000E+00 0. -1.
        -11    1    4    4    0    0 -0.60040425221E+02  0.55496926527E+02  0.46688552145E+02  0.94151911378E+02  0.00000000000E+00 0.  1.
         11    1    4    4    0    0 -0.55207291141E+01  0.81026474438E+02 -0.17400274140E+02  0.83057435248E+02  0.00000000000E+00 0. -1.
          1    1    1    2  501    0  0.68076171029E+01 -0.13553393154E+03  0.23121233393E+03  0.26809500855E+03  0.00000000000E+00 0. -1.
<scales pt_clust_5="13000.00000" pt_clust_6="13000.00000" pt_clust_7="13000.00000" pt_clust_8="13000.00000" pt_clust_9="136.99090"></scales>
<clustering>
<clus scale="   80.946">  5  6 -1 -1</clus>
<clus scale="   87.226">  7  8 -1 -1</clus>
<clus scale="  100.026">  2  5  1 -1</clus>
<clus scale="  136.991">  1  9  2 -1</clus>
<clus scale="  136.991">  1  5  2 -1</clus>
</clustering>
</event>
<event>
 9    2  0.6175212E-005  0.9307137E+02  0.7546771E-02  0.1300859E+00
         -3   -1    0    0    0  501 -0.00000000000E+00  0.00000000000E+00  0.43969043499E+02  0.43969043499E+02  0.00000000000E+00 0.  1.
         21   -1    0    0  501  502  0.00000000000E+00 -0.00000000000E+00 -0.51994640460E+03  0.51994640460E+03  0.00000000000E+00 0.  1.
         24    2    1    2    0    0  0.27428896499E+02 -0.13761748057E+00 -0.18887738374E+02  0.87419100901E+02  0.80826909132E+02 0.  0.
         23    2    1    2    0    0 -0.87177761539E+01  0.20519454676E+02 -0.23306215614E+03  0.25076679420E+03  0.89827439053E+02 0.  0.
        -11    1    3    3    0    0  0.23957234670E+02  0.34122913026E+02  0.95335624660E+01  0.42769277521E+02  0.00000000000E+00 0.  1.
         12    1    3    3    0    0  0.34716618288E+01 -0.34260530507E+02 -0.28421300840E+02  0.44649823380E+02  0.00000000000E+00 0. -1.
        -13    1    4    4    0    0  0.27478770778E+02  0.26300696779E+02 -0.43901899229E+02  0.58087746130E+02  0.00000000000E+00 0.  1.
         13    1    4    4    0    0 -0.36196546932E+02 -0.57812421032E+01 -0.18916025691E+03  0.19267904807E+03  0.00000000000E+00 0. -1.
         -4    1    1    2    0  502 -0.18711120345E+02 -0.20381837195E+02 -0.22402746659E+03  0.22572955300E+03  0.00000000000E+00 0.  1.
<scales pt_clust_5="13000.00000" pt_clust_6="13000.00000" pt_clust_7="13000.00000" pt_clust_8="13000.00000" pt_clust_9="27.66813"></scales>
<clustering>
<clus scale="   27.668">  2  9  1 -1</clus>
<clus scale="   80.827">  5  6 -1 -1</clus>
<clus scale="   84.417">  1  5  2 -1</clus>
<clus scale="   89.827">  7  8 -1 -1</clus>
<clus scale="   27.668">  2  5  1 -1</clus>
</clustering>
</event>
<event>
 9    2  0.6175212E-005  0.1730079E+03  0.7546771E-02  0.1176005E+00
         21   -1    0    0  501  502  0.00000000000E+00  0.00000000000E+00  0.16810836363E+03  0.16810836363E+03  0.00000000000E+00 0. -1.
          2   -1    0    0  502    0 -0.00000000000E+00 -0.00000000000E+00 -0.13528507852E+04  0.13528507852E+04  0.00000000000E+00 0. -1.
         24    2    1    2    0    0  0.13049064027E+03 -0.79810935262E+02 -0.10548406852E+04  0.10689653033E+04  0.81242574259E+02 0.  0.
         23    2    1    2    0    0 -0.11361825299E+03  0.62594454890E+02 -0.26827270839E+03  0.31153883305E+03  0.90879179330E+02 0.  0.
        -13    1    3    3    0    0  0.20158728911E+02  0.14391813225E+02 -0.92861531871E+02  0.96108078436E+02  0.00000000000E+00 0.  1.
         14    1    3    3    0    0  0.11033191136E+03 -0.94202748488E+02 -0.96197915332E+03  0.97285722483E+03  0.00000000000E+00 0. -1.
        -13    1    4    4    0    0 -0.77565693294E+02  0.46716487663E+02 -0.85385722718E+02  0.12445717593E+03  0.00000000000E+00 0.  1.
         13    1    4    4    0    0 -0.36052559699E+02  0.15877967227E+02 -0.18288698567E+03  0.18708165712E+03  0.00000000000E+00 0. -1.
          1    1    1    2  501    0 -0.16872387276E+02  0.17216480372E+02  0.13837097201E+03  0.14045501252E+03  0.00000000000E+00 0. -1.
<scales pt_clust_5="13000.00000" pt_clust_6="13000.00000" pt_clust_7="13000.00000" pt_clust_8="13000.00000" pt_clust_9="24.10570"></scales>
<clustering>
<clus scale="   24.106">  1  9  2 -1</clus>
<clus scale="   81.243">  5  6 -1 -1</clus>
<clus scale="   90.879">  7  8 -1 -1</clus>
<clus scale="  168.146">  2  5  1 -1</clus>
<clus scale="   24.106">  1  5  2 -1</clus>
</clustering>
</event>
<event>
 9    2  0.6175212E-005  0.1010798E+03  0.7546771E-02  0.1283830E+00
         21   -1    0    0  501  502  0.00000000000E+00  0.00000000000E+00  0.41372795170E+03  0.41372795170E+03  0.00000000000E+00 0.  1.
          2   -1    0    0  502    0 -0.00000000000E+00 -0.00000000000E+00 -0.44533808063E+02  0.44533808063E+02  0.00000000000E+00 0. -1.
         24    2    1    2    0    0 -0.55352116546E+02  0.28068410237E+02  0.72026808303E+02  0.12378181380E+03  0.79261490355E+02 0.  0.
         23    2    1    2    0    0  0.14977532475E+02  0.16054394580E+02  0.18125993602E+03  0.20405198056E+03  0.91104205724E+02 0.  0.
        -13    1    3    3    0    0 -0.46939140625E+02  0.22684612922E+02  0.10893407858E+01  0.52144618604E+02  0.00000000000E+00 0.  1.
         14    1    3    3    0    0 -0.84129759208E+01  0.53837973155E+01  0.70937467518E+02  0.71637195194E+02  0.00000000000E+00 0. -1.
        -11    1    4    4    0    0  0.38343472994E+02  0.43055003605E+02  0.10318996813E+03  0.11820374266E+03  0.00000000000E+00 0. -1.
         11    1    4    4    0    0 -0.23365940519E+02 -0.27000609024E+02  0.78069967895E+02  0.85848237904E+02  0.00000000000E+00 0.  1.
          1    1    1    2  501    0  0.40374584071E+02 -0.44122804817E+02  0.11590739931E+03  0.13042796541E+03  0.00000000000E+00 0. -1.
<scales pt_clust_5="13000.00000" pt_clust_6="13000.00000" pt_clust_7="13000.00000" pt_clust_8="13000.00000" pt_clust_9="59.80743"></scales>
<clustering>
<clus scale="   59.807">  1  9  2 -1</clus>
<clus scale="   79.261">  5  6 -1 -1</clus>
<clus scale="   90.551">  2  5  1 -1</clus>
<clus scale="   91.104">  7  8 -1 -1</clus>
<clus scale="   59.807">  1  5  2 -1</clus>
</clustering>
</event>
<event>
 9    2  0.6175212E-005  0.1543811E+03  0.7546771E-02  0.1218021E+00
         21   -1    0    0  501  502  0.00000000000E+00  0.00000000000E+00  0.28956775211E+03  0.28956775211E+03  0.00000000000E+00 0.  1.
         -3   -1    0    0    0  501 -0.00000000000E+00 -0.00000000000E+00 -0.15304729134E+03  0.15304729134E+03  0.00000000000E+00 0.  1.
         23    2    1    2    0    0  0.10155237404E+02  0.24130116490E+02  0.12304529685E+03  0.15517283397E+03  0.90846419614E+02 0.  0.
         24    2    1    2    0    0  0.12431202403E+03 -0.33053197444E+02  0.21034969466E-01  0.15200927642E+03  0.80998928970E+02 0.  0.
        -11    1    4    4    0    0  0.13533852856E+03 -0.27699385797E+02 -0.61603641330E+01  0.13828131968E+03  0.00000000000E+00 0.  1.
         12    1    4    4    0    0 -0.11026504529E+02 -0.53538116469E+01  0.61813991025E+01  0.13727956736E+02  0.00000000000E+00 0. -1.
        -11    1    3    3    0    0 -0.23200110203E+02 -0.98588156195E+01  0.98349317343E+02  0.10152846685E+03  0.00000000000E+00 0.  1.
         11    1    3    3    0    0  0.33355347607E+02  0.33988932109E+02  0.24695979505E+02  0.53644367120E+02  0.00000000000E+00 0. -1.
         -4    1    1    2    0  502 -0.13446726144E+03  0.89230809544E+01  0.13454128954E+02  0.13543293306E+03  0.00000000000E+00 0.  1.
<scales pt_clust_5="13000.00000" pt_clust_6="13000.00000" pt_clust_7="13000.00000" pt_clust_8="13000.00000" pt_clust_9="131.42562"></scales>
<clustering>
<clus scale="   80.999">  5  6 -1 -1</clus>
<clus scale="   90.846">  7  8 -1 -1</clus>
<clus scale="   94.543">  2  7  1 -1</clus>
<clus scale="  131.426">  1  9  2 -1</clus>
<clus scale="  131.426">  1  5  2 -1</clus>
</clustering>
</event>
<event>
 9    2  0.6175212E-005  0.1734277E+03  0.7546771E-02  0.1191604E+00
          2   -1    0    0  502    0 -0.00000000000E+00  0.00000000000E+00  0.50422531400E+03  0.50422531400E+03  0.00000000000E+00 0. -1.
         21   -1    0    0  501  502  0.00000000000E+00 -0.00000000000E+00 -0.10448061934E+03  0.10448061934E+03  0.00000000000E+00 0.  1.
         24    2    1    2    0    0 -0.74658716229E+02 -0.45080349804E+02  0.74650693333E+02  0.13948146223E+03  0.79222411249E+02 0.  0.
         23    2    1    2    0    0  0.11789440280E+03 -0.10001437263E+03  0.12866338527E+03  0.22121884619E+03  0.92095310714E+02 0.  0.
        -13    1    3    3    0    0 -0.86233607463E+02 -0.46723371216E+02  0.80054697484E+02  0.12660198681E+03  0.00000000000E+00 0.  1.
         14    1    3    3    0    0  0.11574891234E+02  0.16430214117E+01 -0.54040041510E+01  0.12879475428E+02  0.00000000000E+00 0. -1.
        -11    1    4    4    0    0  0.97153499944E+02 -0.79533065609E+02  0.14166913700E+03  0.18929990876E+03  0.00000000000E+00 0. -1.
         11    1    4    4    0    0  0.20740902855E+02 -0.20481307016E+02 -0.13005751733E+02  0.31918937427E+02  0.00000000000E+00 0.  1.
          1    1    1    2  501    0 -0.43235686569E+02  0.14509472243E+03  0.19643061606E+03  0.24800562493E+03  0.00000000000E+00 0. -1.
<scales pt_clust_5="13000.00000" pt_clust_6="13000.00000" pt_clust_7="13000.00000" pt_clust_8="13000.00000" pt_clust_9="146.95458"></scales>
<clustering>
<clus scale="   79.222">  5  6 -1 -1</clus>
<clus scale="   92.095">  7  8 -1 -1</clus>
<clus scale="  117.823">  1  5  2 -1</clus>
<clus scale="  146.955">  2  9  1 -1</clus>
<clus scale="  146.955">  2  5  1 -1</clus>
</clustering>
</event>
<event>
 9    2  0.6175212E-005  0.1347129E+03  0.7546771E-02  0.1237405E+00
         -1   -1    0    0    0  501 -0.00000000000E+00  0.00000000000E+00  0.10626634320E+03  0.10626634320E+03  0.00000000000E+00 0.  1.
         21   -1    0    0  501  502  0.00000000000E+00 -0.00000000000E+00 -0.40749189981E+03  0.40749189981E+03  0.00000000000E+00 0.  1.
         23    2    1    2    0    0  0.27213405104E+02  0.72223488436E+01  0.27691609136E+02  0.99155243653E+02  0.90951665115E+02 0.  0.
         24    2    1    2    0    0 -0.12913171974E+03 -0.25356003852E+02 -0.20533209840E+03  0.25339058925E+03  0.68757487661E+02 0.  0.
        -11    1    4    4    0    0 -0.95248490675E+02 -0.48476898799E+02 -0.15806895896E+03  0.19080901572E+03  0.00000000000E+00 0.  1.
         12    1    4    4    0    0 -0.33883229065E+02  0.23120894947E+02 -0.47263139441E+02  0.62581573525E+02  0.00000000000E+00 0. -1.
        -13    1    3    3    0    0  0.24619446081E+01  0.21186367840E+02  0.55461375370E+02  0.59421271540E+02  0.00000000000E+00 0.  1.
         13    1    3    3    0    0  0.24751460496E+02 -0.13964018996E+02 -0.27769766234E+02  0.39733972113E+02  0.00000000000E+00 0. -1.
         -2    1    1    2    0  502  0.10191831464E+03  0.18133655009E+02 -0.12358506735E+03  0.16121241011E+03  0.00000000000E+00 0.  1.
<scales pt_clust_5="13000.00000" pt_clust_6="13000.00000" pt_clust_7="13000.00000" pt_clust_8="13000.00000" pt_clust_9="115.84457"></scales>
<clustering>
<clus scale="   68.757">  5  6 -1 -1</clus>
<clus scale="   90.952">  7  8 -1 -1</clus>
<clus scale="   95.210">  1  7  2 -1</clus>
<clus scale="  115.845">  2  9  1 -1</clus>
<clus scale="  115.845">  2  5  1 -1</clus>
</clustering>
</event>
<event>
 9    2  0.6175212E-005  0.9304912E+02  0.7546771E-02  0.1300395E+00
          2   -1    0    0  502    0 -0.00000000000E+00  0.00000000000E+00  0.24741987483E+03  0.24741987483E+03  0.00000000000E+00 0. -1.
         21   -1    0    0  501  502  0.00000000000E+00 -0.00000000000E+00 -0.70393202441E+02  0.70393202441E+02  0.00000000000E+00 0.  1.
         23    2    1    2    0    0 -0.44305626464E+01 -0.42597869148E+02  0.77354339312E+02  0.12559035548E+03  0.89191004236E+02 0.  0.
         24    2    1    2    0    0  0.36361933580E+02 -0.12744171270E+02  0.23302870129E+02  0.92650392516E+02  0.80972015920E+02 0.  0.
        -13    1    4    4    0    0 -0.16637618013E+02 -0.13617658912E+02 -0.15884160288E+02  0.26731208642E+02  0.00000000000E+00 0.  1.
         14    1    4    4    0    0  0.52999551593E+02  0.87348764213E+00  0.39187030418E+02  0.65919183875E+02  0.00000000000E+00 0. -1.
        -11    1    3    3    0    0  0.18631197767E+02  0.21349547581E+02  0.10424415913E+02  0.30192601068E+02  0.00000000000E+00 0.  1.
         11    1    3    3    0    0 -0.23061760413E+02 -0.63947416729E+02  0.66929923399E+02  0.95397754407E+02  0.00000000000E+00 0. -1.
          1    1    1    2  501    0 -0.31931370934E+02  0.55342040418E+02  0.76369462948E+02  0.99572329280E+02  0.00000000000E+00 0. -1.
<scales pt_clust_5="13000.00000" pt_clust_6="13000.00000" pt_clust_7="13000.00000" pt_clust_8="13000.00000" pt_clust_9="63.89333"></scales>
<clustering>
<clus scale="   63.893">  2  9  1 -1</clus>
<clus scale="   80.972">  5  6 -1 -1</clus>
<clus scale="   85.203">  2  5  1 -1</clus>
<clus scale="   89.191">  7  8 -1 -1</clus>
<clus scale="   63.893">  2  5  1 -1</clus>
</clustering>
</event>
<event>
 9    2  0.6175212E-005  0.1008717E+03  0.7546771E-02  0.1284486E+00
         21   -1    0    0  501  502  0.00000000000E+00  0.00000000000E+00  0.74842965364E+02  0.74842965364E+02  0.00000000000E+00 0. -1.
         -1   -1    0    0    0  501 -0.00000000000E+00 -0.00000000000E+00 -0.30928605810E+03  0.30928605810E+03  0.00000000000E+00 0.  1.
         24    2    1    2    0    0 -0.36177268680E+02  0.67521388829E+01 -0.14203446290E+03  0.16695500953E+03  0.79660532301E+02 0.  0.
         23    2    1    2    0    0  0.30415792004E+02 -0.55526876812E+02 -0.11753598382E+03  0.16200560277E+03  0.91775559838E+02 0.  0.
        -13    1    3    3    0    0 -0.59910383635E+02 -0.69834099408E+01 -0.98988450221E+02  0.11591693301E+03  0.00000000000E+00 0.  1.
         14    1    3    3    0    0  0.23733114955E+02  0.13735548824E+02 -0.43046012677E+02  0.51038076515E+02  0.00000000000E+00 0. -1.
        -11    1    4    4    0    0  0.21992363175E+02 -0.73937457054E+02 -0.11888103373E+03  0.14171489609E+03  0.00000000000E+00 0.  1.
         11    1    4    4    0    0  0.84234288285E+01  0.18410580242E+02  0.13450499110E+01  0.20290706674E+02  0.00000000000E+00 0. -1.
         -2    1    1    2    0  502  0.57614766766E+01  0.48774737929E+02  0.25127353978E+02  0.55168411174E+02  0.00000000000E+00 0.  1.
<scales pt_clust_5="13000.00000" pt_clust_6="13000.00000" pt_clust_7="13000.00000" pt_clust_8="13000.00000" pt_clust_9="49.11384"></scales>
<clustering>
<clus scale="   49.114">  1  9  2 -1</clus>
<clus scale="   79.661">  5  6 -1 -1</clus>
<clus scale="   89.990">  2  5  1 -1</clus>
<clus scale="   91.776">  7  8 -1 -1</clus>
<clus scale="   49.114">  1  5  2 -1</clus>
</clustering>
</event>
<event>
 9    2  0.6175212E-005  0.1104814E+03  0.7546771E-02  0.1263089E+00
         21   -1    0    0  501  502  0.00000000000E+00  0.00000000000E+00  0.71172001966E+02  0.71172001966E+02  0.00000000000E+00 0. -1.
          2   -1    0    0  502    0 -0.00000000000E+00 -0.00000000000E+00 -0.35494585382E+03  0.35494585382E+03  0.00000000000E+00 0. -1.
         23    2    1    2    0    0 -0.72650011422E+02 -0.17211701897E+02 -0.13371113321E+03  0.17790416602E+03  0.90537054848E+02 0.  0.
         24    2    1    2    0    0  0.13223257588E+02  0.75000747963E+02 -0.63930171025E+02  0.12867320008E+03  0.81668591969E+02 0.  0.
        -13    1    4    4    0    0  0.22079929328E+02 -0.11355697694E+02 -0.12996016210E+02  0.28024481914E+02  0.00000000000E+00 0.  1.
         14    1    4    4    0    0 -0.88566717392E+01  0.86356445657E+02 -0.50934154815E+02  0.10064871816E+03  0.00000000000E+00 0. -1.
        -11    1    3    3    0    0 -0.37211522843E+02  0.23571619902E+02 -0.11076833145E+03  0.11920546107E+03  0.00000000000E+00 0.  1.
         11    1    3    3    0    0 -0.35438488579E+02 -0.40783321799E+02 -0.22942801761E+02  0.58698704947E+02  0.00000000000E+00 0. -1.
          1    1    1    2  501    0  0.59426753833E+02 -0.57789046065E+02 -0.86132547612E+02  0.11954048969E+03  0.00000000000E+00 0. -1.
<scales pt_clust_5="13000.00000" pt_clust_6="13000.00000" pt_clust_7="13000.00000" pt_clust_8="13000.00000" pt_clust_9="82.89222"></scales>
<clustering>
<clus scale="   81.669">  5  6 -1 -1</clus>
<clus scale="   82.892">  1  9  2 -1</clus>
<clus scale="   90.537">  7  8 -1 -1</clus>
<clus scale="  103.339">  1  5  2 -1</clus>
<clus scale="   82.892">  1  5  2 -1</clus>
</clustering>
</event>
<event>
 9    2  0.6175212E-005  0.9306766E+02  0.7546771E-02  0.1303828E+00
          2   -1    0    0  502    0 -0.00000000000E+00  0.00000000000E+00  0.29855343682E+03  0.29855343682E+03  0.00000000000E+00 0. -1.
         21   -1    0    0  501  502  0.00000000000E+00 -0.00000000000E+00 -0.34475328480E+02  0.34475328480E+02  0.00000000000E+00 0. -1.
         23    2    1    2    0    0 -0.74018856439E+01  0.13119527721E+02  0.15027251642E+03  0.17706794041E+03  0.92435471618E+02 0.  0.
         24    2    1    2    0    0 -0.16758032923E+02 -0.66762076695E+01  0.92519126568E+02  0.12312286445E+03  0.79208885569E+02 0.  0.
        -13    1    4    4    0    0 -0.35420655768E+02  0.62629363732E+01  0.93716038893E+02  0.10038198630E+03  0.00000000000E+00 0.  1.
         14    1    4    4    0    0  0.18662622845E+02 -0.12939144043E+02 -0.11969123254E+01  0.22740878152E+02  0.00000000000E+00 0. -1.
        -11    1    3    3    0    0  0.12179142486E+02  0.27201069081E+02  0.15001618887E+03  0.15294798657E+03  0.00000000000E+00 0. -1.
         11    1    3    3    0    0 -0.19581028130E+02 -0.14081541360E+02  0.25632754271E+00  0.24119953846E+02  0.00000000000E+00 0.  1.
          1    1    1    2  501    0  0.24159918567E+02 -0.64433200513E+01  0.21286465360E+02  0.32837960441E+02  0.00000000000E+00 0. -1.
<scales pt_clust_5="13000.00000" pt_clust_6="13000.00000" pt_clust_7="13000.00000" pt_clust_8="13000.00000" pt_clust_9="25.00436"></scales>
<clustering>
<clus scale="   25.004">  2  9  1 -1</clus>
<clus scale="   79.209">  5  6 -1 -1</clus>
<clus scale="   79.946">  2  5  1 -1</clus>
<clus scale="   92.435">  7  8 -1 -1</clus>
<clus scale="   25.004">  2  5  1 -1</clus>
</clustering>
</event>
<event>
 9    2  0.6175212E-005  0.9971686E+02  0.7546771E-02  0.1285511E+00
         21   -1    0    0  501  502  0.00000000000E+00  0.00000000000E+00  0.43094743890E+02  0.43094743890E+02  0.00000000000E+00 0.  1.
          2   -1    0    0  502    0 -0.00000000000E+00 -0.00000000000E+00 -0.40732268180E+03  0.40732268180E+03  0.00000000000E+00 0. -1.
         24    2    1    2    0    0 -0.42451743554E+02  0.10744345750E+02 -0.27485722455E+03  0.29012036891E+03  0.81888601598E+02 0.  0.
         23    2    1    2    0    0  0.30321718293E+02  0.14205275568E+02 -0.42790956816E+02  0.10608179291E+03  0.91110286730E+02 0.  0.
        -11    1    3    3    0    0 -0.30290170723E+01 -0.31377512744E+02 -0.61602947841E+02  0.69200046482E+02  0.00000000000E+00 0.  1.
         12    1    3    3    0    0 -0.39422726482E+02  0.42121858493E+02 -0.21325427671E+03  0.22092032242E+03  0.00000000000E+00 0. -1.
        -13    1    4    4    0    0 -0.20705162673E+02 -0.19139494310E+02  0.49857193293E+01  0.28633571223E+02  0.00000000000E+00 0.  1.
         13    1    4    4    0    0  0.51026880966E+02  0.33344769878E+02 -0.47776676146E+02  0.77448221689E+02  0.00000000000E+00 0. -1.
          1    1    1    2  501    0  0.12130025262E+02 -0.24949621318E+02 -0.46579756547E+02  0.54215263872E+02  0.00000000000E+00 0. -1.
<scales pt_clust_5="13000.00000" pt_clust_6="13000.00000" pt_clust_7="13000.00000" pt_clust_8="13000.00000" pt_clust_9="27.74206"></scales>
<clustering>
<clus scale="   27.742">  1  9  2 -1</clus>
<clus scale="   81.889">  5  6 -1 -1</clus>
<clus scale="   91.110">  7  8 -1 -1</clus>
<clus scale="   91.368">  2  5  1 -1</clus>
<clus scale="   27.742">  1  5  2 -1</clus>
</clustering>
</event>
<event>
 9    2  0.6175212E-005  0.9445692E+02  0.7546771E-02  0.1299020E+00
         21   -1    0    0  501  502  0.00000000000E+00  0.00000000000E+00  0.81498622037E+02  0.81498622037E+02  0.00000000000E+00 0. -1.
          2   -1    0    0  502    0 -0.00000000000E+00 -0.00000000000E+00 -0.49475578655E+03  0.49475578655E+03  0.00000000000E+00 0. -1.
         24    2    1    2    0    0  0.18438964242E+02 -0.14352380180E+02 -0.42163389133E+03  0.42993476804E+03  0.80763730940E+02 0.  0.
         23    2    1    2    0    0  0.79857448104E+01  0.16949461985E+02 -0.30951180165E+02  0.98867618988E+02  0.92009641609E+02 0.  0.
        -13    1    3    3    0    0 -0.14662610471E+02 -0.25552670420E+02 -0.62397833554E+02  0.69003048800E+02  0.00000000000E+00 0.  1.
         14    1    3    3    0    0  0.33101574713E+02  0.11200290240E+02 -0.35923605777E+03  0.36093171924E+03  0.00000000000E+00 0. -1.
        -11    1    4    4    0    0 -0.33810255281E+02 -0.10925388767E+02 -0.33131421844E+02  0.48581772253E+02  0.00000000000E+00 0.  1.
         11    1    4    4    0    0  0.41796000091E+02  0.27874850752E+02  0.21802416785E+01  0.50285846735E+02  0.00000000000E+00 0. -1.
          1    1    1    2  501    0 -0.26424709053E+02 -0.25970818054E+01  0.39327906980E+02  0.47452021557E+02  0.00000000000E+00 0. -1.
<scales pt_clust_5="13000.00000" pt_clust_6="13000.00000" pt_clust_7="13000.00000" pt_clust_8="13000.00000" pt_clust_9="26.55203"></scales>
<clustering>
<clus scale="   26.552">  1  9  2 -1</clus>
<clus scale="   80.764">  5  6 -1 -1</clus>
<clus scale="   83.541">  2  5  1 -1</clus>
<clus scale="   92.010">  7  8 -1 -1</clus>
<clus scale="   26.552">  1  5  2 -1</clus>
</clustering>
</event>
<event>
 9    2  0.6175212E-005  0.3314546E+03  0.7546771E-02  0.1120095E+00
         21   -1    0    0  501  502  0.00000000000E+00  0.00000000000E+00  0.34184540017E+03  0.34184540017E+03  0.00000000000E+00 0. -1.
          2   -1    0    0  502    0 -0.00000000000E+00 -0.00000000000E+00 -0.46473105993E+03  0.46473105993E+03  0.00000000000E+00 0. -1.
         24    2    1    2    0    0  0.41250396743E+02  0.64761121403E+01 -0.79218750788E+02  0.12021799460E+03  0.80207359322E+02 0.  0.
         23    2    1    2    0    0  0.29142177897E+03  0.85157138833E+02  0.66160059148E+02  0.32424053981E+03  0.92608761362E+02 0.  0.
        -13    1    3    3    0    0 -0.77231176739E+01 -0.28309879766E+02 -0.34728332469E+02  0.45465953361E+02  0.00000000000E+00 0.  1.
         14    1    3    3    0    0  0.48973514417E+02  0.34785991906E+02 -0.44490418319E+02  0.74752041239E+02  0.00000000000E+00 0. -1.
        -11    1    4    4    0    0  0.25988349810E+03  0.40980108276E+02  0.56887336896E+02  0.26917461054E+03  0.00000000000E+00 0. -1.
         11    1    4    4    0    0  0.31538280866E+02  0.44177030557E+02  0.92727222519E+01  0.55065929273E+02  0.00000000000E+00 0.  1.
          1    1    1    2  501    0 -0.33267217571E+03 -0.91633250974E+02 -0.10982696812E+03  0.36211792569E+03  0.00000000000E+00 0. -1.
<scales pt_clust_5="13000.00000" pt_clust_6="13000.00000" pt_clust_7="13000.00000" pt_clust_8="13000.00000" pt_clust_9="318.25446"></scales>
<clustering>
<clus scale="   80.207">  5  6 -1 -1</clus>
<clus scale="   90.425">  2  5  1 -1</clus>
<clus scale="   92.609">  7  8 -1 -1</clus>
<clus scale="  318.254">  1  9  2 -1</clus>
<clus scale="  318.254">  1  5  2 -1</clus>
</clustering>
</event>
<event>
 9    2  0.6175212E-005  0.9650788E+02  0.7546771E-02  0.1290394E+00
         21   -1    0    0  501  502  0.00000000000E+00  0.00000000000E+00  0.28152446474E+02  0.28152446474E+02  0.00000000000E+00 0.  1.
         -3   -1    0    0    0  501 -0.00000000000E+00 -0.00000000000E+00 -0.76021493303E+03  0.76021493303E+03  0.00000000000E+00 0.  1.
         24    2    1    2    0    0 -0.34313303854E+02  0.88694749294E-01 -0.37496796329E+03  0.38654637871E+03  0.87405484437E+02 0.  0.
         23    2    1    2    0    0 -0.56160138264E+01 -0.57018418134E+02 -0.26543598534E+03  0.28677044065E+03  0.92186678535E+02 0.  0.
        -13    1    3    3    0    0 -0.48473778923E+02  0.30172811122E+02 -0.28422688990E+03  0.28990520988E+03  0.00000000000E+00 0.  1.
         14    1    3    3    0    0  0.14160475069E+02 -0.30084116373E+02 -0.90741073396E+02  0.96641168831E+02  0.00000000000E+00 0. -1.
        -11    1    4    4    0    0  0.24217484014E+02  0.10387572004E+02 -0.29347249366E+02  0.39441719403E+02  0.00000000000E+00 0. -1.
         11    1    4    4    0    0 -0.29833497840E+02 -0.67405990139E+02 -0.23608873598E+03  0.24732872125E+03  0.00000000000E+00 0.  1.
         -4    1    1    2    0  502  0.39929317681E+02  0.56929723385E+02 -0.91658537919E+02  0.11505056014E+03  0.00000000000E+00 0.  1.
<scales pt_clust_5="13000.00000" pt_clust_6="13000.00000" pt_clust_7="13000.00000" pt_clust_8="13000.00000" pt_clust_9="69.53664"></scales>
<clustering>
<clus scale="   69.537">  1  9  2 -1</clus>
<clus scale="   87.405">  5  6 -1 -1</clus>
<clus scale="   91.952">  2  5  1 -1</clus>
<clus scale="   92.187">  7  8 -1 -1</clus>
<clus scale="   69.537">  1  5  2 -1</clus>
</clustering>
</event>
<event>
 9    2  0.6175212E-005  0.1869761E+03  0.7546771E-02  0.1181216E+00
         21   -1    0    0  501  502  0.00000000000E+00  0.00000000000E+00  0.98378446132E+02  0.98378446132E+02  0.00000000000E+00 0.  1.
         -1   -1    0    0    0  501 -0.00000000000E+00 -0.00000000000E+00 -0.91079234435E+03  0.91079234435E+03  0.00000000000E+00 0.  1.
         24    2    1    2    0    0 -0.38483916600E+02 -0.77287185213E+02  0.13328406533E+01  0.11845493084E+03  0.81089292392E+02 0.  0.
         23    2    1    2    0    0 -0.10602534651E+02  0.20474651597E+03 -0.47803830869E+03  0.52828585152E+03  0.92367563565E+02 0.  0.
        -13    1    3    3    0    0 -0.28242404372E+02 -0.44608281320E+02  0.40416074035E+02  0.66490534720E+02  0.00000000000E+00 0.  1.
         14    1    3    3    0    0 -0.10241512228E+02 -0.32678903893E+02 -0.39083233381E+02  0.51964396118E+02  0.00000000000E+00 0. -1.
        -11    1    4    4    0    0  0.40360323748E+02  0.11183609278E+03 -0.25377766211E+03  0.28024876301E+03  0.00000000000E+00 0. -1.
         11    1    4    4    0    0 -0.50962858400E+02  0.92910423193E+02 -0.22426064658E+03  0.24803708852E+03  0.00000000000E+00 0.  1.
         -2    1    1    2    0  502  0.49086451251E+02 -0.12745933076E+03 -0.33570843017E+03  0.36243000812E+03  0.00000000000E+00 0.  1.
<scales pt_clust_5="13000.00000" pt_clust_6="13000.00000" pt_clust_7="13000.00000" pt_clust_8="13000.00000" pt_clust_9="162.56778"></scales>
<clustering>
<clus scale="   81.089">  5  6 -1 -1</clus>
<clus scale="   92.368">  7  8 -1 -1</clus>
<clus scale="  118.447">  2  5  1 -1</clus>
<clus scale="  162.568">  1  9  2 -1</clus>
<clus scale="  162.568">  1  5  2 -1</clus>
</clustering>
</event>
<event>
 9    2  0.6175212E-005  0.1616801E+03  0.7546771E-02  0.1196949E+00
          2   -1    0    0  502    0 -0.00000000000E+00  0.00000000000E+00  0.14502870926E+04  0.14502870926E+04  0.00000000000E+00 0. -1.
         21   -1    0    0  501  502  0.00000000000E+00 -0.00000000000E+00 -0.13424229989E+03  0.13424229989E+03  0.00000000000E+00 0. -1.
         24    2    1    2    0    0 -0.83218536307E+02  0.58035037581E+02 -0.95006979004E+01  0.12968012761E+03  0.80207741918E+02 0.  0.
         23    2    1    2    0    0  0.10138185729E+03 -0.18630017551E+03  0.13030669380E+04  0.13233687068E+04  0.91297606175E+02 0.  0.
        -13    1    3    3    0    0 -0.51764055082E+01  0.47985978662E+02 -0.15690032015E+02  0.50750629817E+02  0.00000000000E+00 0.  1.
         14    1    3    3    0    0 -0.78042130799E+02  0.10049058919E+02  0.61893341143E+01  0.78929497791E+02  0.00000000000E+00 0. -1.
        -11    1    4    4    0    0  0.45228363126E+02 -0.10740445495E+02  0.27891305875E+03  0.28276042216E+03  0.00000000000E+00 0.  1.
         11    1    4    4    0    0  0.56153494166E+02 -0.17555973001E+03  0.10241538792E+04  0.10406082846E+04  0.00000000000E+00 0. -1.
          1    1    1    2  501    0 -0.18163320985E+02  0.12826513792E+03  0.22478552670E+02  0.13148055813E+03  0.00000000000E+00 0. -1.
<scales pt_clust_5="13000.00000" pt_clust_6="13000.00000" pt_clust_7="13000.00000" pt_clust_8="13000.00000" pt_clust_9="133.43609"></scales>
<clustering>
<clus scale="   80.208">  5  6 -1 -1</clus>
<clus scale="   91.298">  7  8 -1 -1</clus>
<clus scale="  129.332">  1  5  2 -1</clus>
<clus scale="  133.436">  2  9  1 -1</clus>
<clus scale="  133.436">  2  5  1 -1</clus>
</clustering>
</event>
<event>
 9    2  0.6175212E-005  0.1444851E+03  0.7546771E-02  0.1209088E+00
          2   -1    0    0  502    0 -0.00000000000E+00  0.00000000000E+00  0.10586401191E+04  0.10586401191E+04  0.00000000000E+00 0. -1.
         21   -1    0    0  501  502  0.00000000000E+00 -0.00000000000E+00 -0.84357005262E+02  0.84357005262E+02  0.00000000000E+00 0.  1.
         24    2    1    2    0    0  0.79663847717E+02 -0.62838080972E+02  0.70403717329E+03  0.71588515665E+03  0.80797667578E+02 0.  0.
         23    2    1    2    0    0 -0.16196452183E+03  0.97862079027E+02  0.26482230695E+03  0.33750450596E+03  0.89268944445E+02 0.  0.
        -11    1    3    3    0    0  0.11281723371E+02 -0.55731431351E+02  0.23194523712E+03  0.23881344758E+03  0.00000000000E+00 0.  1.
         12    1    3    3    0    0  0.68382124346E+02 -0.71066496212E+01  0.47209193617E+03  0.47707170907E+03  0.00000000000E+00 0. -1.
        -13    1    4    4    0    0 -0.92049005475E+02  0.91595918002E+02  0.21589611776E+03  0.25194040023E+03  0.00000000000E+00 0.  1.
         13    1    4    4    0    0 -0.69915516355E+02  0.62661610252E+01  0.48926189193E+02  0.85564105734E+02  0.00000000000E+00 0. -1.
          1    1    1    2  501    0  0.82300674113E+02 -0.35023998055E+02  0.54236335935E+01  0.89607461746E+02  0.00000000000E+00 0. -1.
<scales pt_clust_5="13000.00000" pt_clust_6="13000.00000" pt_clust_7="13000.00000" pt_clust_8="13000.00000" pt_clust_9="89.44317"></scales>
<clustering>
<clus scale="   80.798">  5  6 -1 -1</clus>
<clus scale="   89.269">  7  8 -1 -1</clus>
<clus scale="   89.443">  2  9  1 -1</clus>
<clus scale="  139.410">  1  5  2 -1</clus>
<clus scale="   89.443">  2  5  1 -1</clus>
</clustering>
</event>
<event>
 9    2  0.6175212E-005  0.2110233E+03  0.7546771E-02  0.1140758E+00
         21   -1    0    0  501  502  0.00000000000E+00  0.00000000000E+00  0.12511162390E+03  0.12511162390E+03  0.00000000000E+00 0. -1.
          2   -1    0    0  502    0 -0.00000000000E+00 -0.00000000000E+00 -0.21355202507E+03  0.21355202507E+03  0.00000000000E+00 0. -1.
         24    2    1    2    0    0  0.62568256734E+02 -0.47410447070E+02 -0.29512803931E+01  0.11242164104E+03  0.80420010417E+02 0.  0.
         23    2    1    2    0    0  0.39860646653E+02 -0.16103513396E+01 -0.35080792427E+02  0.10200144091E+03  0.87075642796E+02 0.  0.
        -11    1    3    3    0    0  0.40629474099E+02 -0.59751868026E+02 -0.27450828461E+02  0.77295458349E+02  0.00000000000E+00 0.  1.
         12    1    3    3    0    0  0.21938782635E+02  0.12341420956E+02  0.24499548068E+02  0.35126182688E+02  0.00000000000E+00 0. -1.
        -11    1    4    4    0    0 -0.23155506687E+02  0.18489588686E+02 -0.11238777756E+02  0.31691521029E+02  0.00000000000E+00 0.  1.
         11    1    4    4    0    0  0.63016153340E+02 -0.20099940025E+02 -0.23842014671E+02  0.70309919886E+02  0.00000000000E+00 0. -1.
          1    1    1    2  501    0 -0.10242890339E+03  0.49020798410E+02 -0.50408328344E+02  0.12424056701E+03  0.00000000000E+00 0. -1.
<scales pt_clust_5="13000.00000" pt_clust_6="13000.00000" pt_clust_7="13000.00000" pt_clust_8="13000.00000" pt_clust_9="113.55497"></scales>
<clustering>
<clus scale="   80.420">  5  6 -1 -1</clus>
<clus scale="   87.076">  7  8 -1 -1</clus>
<clus scale="   93.079">  5  7 -1 -1</clus>
<clus scale="  113.555">  1  9  2 -1</clus>
<clus scale="  113.555">  1  5  2 -1</clus>
</clustering>
</event>
<event>
 9    2  0.6175212E-005  0.9651625E+02  0.7546771E-02  0.1290387E+00
         -3   -1    0    0    0  501 -0.00000000000E+00  0.00000000000E+00  0.41820066518E+03  0.41820066518E+03  0.00000000000E+00 0.  1.
         21   -1    0    0  501  502  0.00000000000E+00 -0.00000000000E+00 -0.67252471907E+02  0.67252471907E+02  0.00000000000E+00 0. -1.
         23    2    1    2    0    0  0.14527457174E+02  0.22086312468E+02  0.24780408864E+03  0.26484959258E+03  0.89663750400E+02 0.  0.
         24    2    1    2    0    0  0.12988103408E+02 -0.15918232188E+02  0.14253278248E+03  0.17216162845E+03  0.94350152543E+02 0.  0.
        -13    1    4    4    0    0 -0.14263256347E+02 -0.50470474895E+02  0.81548178147E+02  0.96957798432E+02  0.00000000000E+00 0.  1.
         14    1    4    4    0    0  0.27251359754E+02  0.34552242707E+02  0.60984604328E+02  0.75203830019E+02  0.00000000000E+00 0. -1.
        -13    1    3    3    0    0  0.34671410897E+01  0.53788436487E+02  0.10353556239E+03  0.11672544558E+03  0.00000000000E+00 0. -1.
         13    1    3    3    0    0  0.11060316084E+02 -0.31702124019E+02  0.14426852625E+03  0.14812414700E+03  0.00000000000E+00 0.  1.
         -4    1    1    2    0  502 -0.27515560582E+02 -0.61680802795E+01 -0.39388677842E+02  0.48441916050E+02  0.00000000000E+00 0.  1.
<scales pt_clust_5="13000.00000" pt_clust_6="13000.00000" pt_clust_7="13000.00000" pt_clust_8="13000.00000" pt_clust_9="28.19843"></scales>
<clustering>
<clus scale="   28.198">  2  9  1 -1</clus>
<clus scale="   89.664">  7  8 -1 -1</clus>
<clus scale="   91.940">  1  7  2 -1</clus>
<clus scale="   94.350">  5  6 -1 -1</clus>
<clus scale="   28.198">  2  5  1 -1</clus>
</clustering>
</event>
<event>
 9    2  0.6175212E-005  0.1554480E+03  0.7546771E-02  0.1197374E+00
          2   -1    0    0  502    0 -0.00000000000E+00  0.00000000000E+00  0.23376888899E+03  0.23376888899E+03  0.00000000000E+00 0. -1.
         21   -1    0    0  501  502  0.00000000000E+00 -0.00000000000E+00 -0.16299486173E+03  0.16299486173E+03  0.00000000000E+00 0.  1.
         24    2    1    2    0    0  0.73015198623E+02 -0.86134049751E+02  0.51860269481E+02  0.14762858816E+03  0.79714608032E+02 0.  0.
         23    2    1    2    0    0 -0.27563549770E+02  0.13660129791E+03  0.44693738759E+02  0.17648942669E+03  0.98647471247E+02 0.  0.
        -13    1    3    3    0    0  0.80118959347E+01 -0.36901639455E+02 -0.16512474537E+02  0.41213872498E+02  0.00000000000E+00 0.  1.
         14    1    3    3    0    0  0.65003302688E+02 -0.49232410296E+02  0.68372744018E+02  0.10641471566E+03  0.00000000000E+00 0. -1.
        -13    1    4    4    0    0 -0.14033837789E+02  0.11348479173E+03 -0.10811726262E+02  0.11485921810E+03  0.00000000000E+00 0.  1.
         13    1    4    4    0    0 -0.13529711981E+02  0.23116506179E+02  0.55505465021E+02  0.61630208595E+02  0.00000000000E+00 0. -1.
          1    1    1    2  501    0 -0.45451648853E+02 -0.50467248158E+02 -0.25779980983E+02  0.72645735866E+02  0.00000000000E+00 0. -1.
<scales pt_clust_5="13000.00000" pt_clust_6="13000.00000" pt_clust_7="13000.00000" pt_clust_8="13000.00000" pt_clust_9="67.91756"></scales>
<clustering>
<clus scale="   67.918">  2  9  1 -1</clus>
<clus scale="   79.715">  5  6 -1 -1</clus>
<clus scale="   98.647">  7  8 -1 -1</clus>
<clus scale="  144.178">  1  5  2 -1</clus>
<clus scale="   67.918">  2  5  1 -1</clus>
</clustering>
</event>
<event>
 9    2  0.6175212E-005  0.1418321E+03  0.7546771E-02  0.1211219E+00
          2   -1    0    0  502    0 -0.00000000000E+00  0.00000000000E+00  0.60219222809E+03  0.60219222809E+03  0.00000000000E+00 0. -1.
         21   -1    0    0  501  502  0.00000000000E+00 -0.00000000000E+00 -0.96912132411E+02  0.96912132411E+02  0.00000000000E+00 0. -1.
         23    2    1    2    0    0  0.13961851048E+03 -0.24804351926E+02  0.39351270739E+03  0.42774072523E+03  0.89449945773E+02 0.  0.
         24    2    1    2    0    0 -0.49799798632E+02  0.63549220151E+02  0.12482652368E+03  0.17267672211E+03  0.87846832718E+02 0.  0.
        -13    1    4    4    0    0 -0.19705222120E+02  0.76609995201E+02  0.57536166540E+02  0.97815119504E+02  0.00000000000E+00 0.  1.
         14    1    4    4    0    0 -0.30094576512E+02 -0.13060775050E+02  0.67290357145E+02  0.74861602608E+02  0.00000000000E+00 0. -1.
        -13    1    3    3    0    0  0.76285636930E+02 -0.48488873684E+02  0.15109131298E+03  0.17606605047E+03  0.00000000000E+00 0.  1.
         13    1    3    3    0    0  0.63332873549E+02  0.23684521758E+02  0.24242139442E+03  0.25167467476E+03  0.00000000000E+00 0. -1.
          1    1    1    2  501    0 -0.89818711848E+02 -0.38744868225E+02 -0.13059135396E+02  0.98686913160E+02  0.00000000000E+00 0. -1.
<scales pt_clust_5="13000.00000" pt_clust_6="13000.00000" pt_clust_7="13000.00000" pt_clust_8="13000.00000" pt_clust_9="97.81905"></scales>
<clustering>
<clus scale="   87.847">  5  6 -1 -1</clus>
<clus scale="   89.450">  7  8 -1 -1</clus>
<clus scale="   97.819">  2  9  1 -1</clus>
<clus scale="  140.827">  2  5  1 -1</clus>
<clus scale="   97.819">  2  5  1 -1</clus>
</clustering>
</event>
<event>
 9    2  0.6175212E-005  0.1844822E+03  0.7546771E-02  0.1199568E+00
          2   -1    0    0  502    0 -0.00000000000E+00  0.00000000000E+00  0.90764228019E+03  0.90764228019E+03  0.00000000000E+00 0. -1.
         21   -1    0    0  501  502  0.00000000000E+00 -0.00000000000E+00 -0.59855999092E+02  0.59855999092E+02  0.00000000000E+00 0. -1.
         24    2    1    2    0    0  0.52758477239E+01  0.15220279990E+02  0.19849995728E+03  0.21485855034E+03  0.80637907498E+02 0.  0.
         23    2    1    2    0    0 -0.50954780971E+02  0.14326029297E+03  0.50001760420E+03  0.53019016701E+03  0.89241847988E+02 0.  0.
        -11    1    3    3    0    0 -0.30360606231E+02  0.29915054369E+02  0.12128875868E+03  0.12855986882E+03  0.00000000000E+00 0.  1.
         12    1    3    3    0    0  0.35636453955E+02 -0.14694774379E+02  0.77211198595E+02  0.86298681525E+02  0.00000000000E+00 0. -1.
        -13    1    4    4    0    0 -0.32017172574E+02  0.13289251470E+03  0.48498859819E+03  0.50388437183E+03  0.00000000000E+00 0.  1.
         13    1    4    4    0    0 -0.18937608397E+02  0.10367778270E+02  0.15029006014E+02  0.26305795176E+02  0.00000000000E+00 0. -1.
          1    1    1    2  501    0  0.45678933247E+02 -0.15848057296E+03  0.14926871962E+03  0.22244956193E+03  0.00000000000E+00 0. -1.
<scales pt_clust_5="13000.00000" pt_clust_6="13000.00000" pt_clust_7="13000.00000" pt_clust_8="13000.00000" pt_clust_9="161.46071"></scales>
<clustering>
<clus scale="   80.638">  5  6 -1 -1</clus>
<clus scale="   82.231">  1  5  2 -1</clus>
<clus scale="   89.242">  7  8 -1 -1</clus>
<clus scale="  161.461">  2  9  1 -1</clus>
<clus scale="  161.461">  2  5  1 -1</clus>
</clustering>
</event>
<event>
 9    2  0.6175212E-005  0.1930450E+03  0.7546771E-02  0.1156974E+00
          2   -1    0    0  502    0 -0.00000000000E+00  0.00000000000E+00  0.22050950776E+04  0.22050950776E+04  0.00000000000E+00 0. -1.
         21   -1    0    0  501  502  0.00000000000E+00 -0.00000000000E+00 -0.98959643889E+02  0.98959643889E+02  0.00000000000E+00 0. -1.
         24    2    1    2    0    0 -0.55008904534E+02  0.15742978028E+03  0.15370737509E+04  0.15480831044E+04  0.78456783944E+02 0.  0.
         23    2    1    2    0    0  0.28501911321E+02 -0.23252238565E+03  0.84740631438E+02  0.26514741148E+03  0.90791830126E+02 0.  0.
        -13    1    3    3    0    0 -0.13594875370E+00  0.74210314710E+02  0.41437271425E+03  0.42096548031E+03  0.00000000000E+00 0.  1.
         14    1    3    3    0    0 -0.54872955780E+02  0.83219465569E+02  0.11227010367E+04  0.11271176240E+04  0.00000000000E+00 0. -1.
        -11    1    4    4    0    0  0.57817923887E+02 -0.10958872329E+03  0.53501106876E+02  0.13496284315E+03  0.00000000000E+00 0.  1.
         11    1    4    4    0    0 -0.29316012566E+02 -0.12293366236E+03  0.31239524562E+02  0.13018456832E+03  0.00000000000E+00 0. -1.
          1    1    1    2  501    0  0.26506993213E+02  0.75092605373E+02  0.48432105139E+03  0.49082420569E+03  0.00000000000E+00 0. -1.
<scales pt_clust_5="13000.00000" pt_clust_6="13000.00000" pt_clust_7="13000.00000" pt_clust_8="13000.00000" pt_clust_9="79.63370"></scales>
<clustering>
<clus scale="   78.457">  5  6 -1 -1</clus>
<clus scale="   79.634">  2  9  1 -1</clus>
<clus scale="   90.792">  7  8 -1 -1</clus>
<clus scale="  187.560">  1  5  2 -1</clus>
<clus scale="   79.634">  2  5  1 -1</clus>
</clustering>
</event>
<event>
 9    2  0.6175212E-005  0.1880134E+03  0.7546771E-02  0.1184530E+00
          2   -1    0    0  502    0 -0.00000000000E+00  0.00000000000E+00  0.52912450066E+03  0.52912450066E+03  0.00000000000E+00 0. -1.
         21   -1    0    0  501  502  0.00000000000E+00 -0.00000000000E+00 -0.13039055368E+03  0.13039055368E+03  0.00000000000E+00 0. -1.
         24    2    1    2    0    0 -0.35356370764E+02 -0.46713463780E+02  0.16864596006E+03  0.20035814929E+03  0.90937932062E+02 0.  0.
         23    2    1    2    0    0 -0.12581535677E+03  0.10147038791E+03  0.19916383707E+02  0.18870034794E+03  0.95317445153E+02 0.  0.
        -13    1    3    3    0    0 -0.62122500203E+02 -0.10479257680E+02  0.10308683344E+03  0.12081355512E+03  0.00000000000E+00 0.  1.
         14    1    3    3    0    0  0.26766129439E+02 -0.36234206100E+02  0.65559126623E+02  0.79544594162E+02  0.00000000000E+00 0. -1.
        -11    1    4    4    0    0 -0.97240887637E+02  0.11934260978E+03  0.16341545412E+02  0.15480792888E+03  0.00000000000E+00 0. -1.
         11    1    4    4    0    0 -0.28574469128E+02 -0.17872221871E+02  0.35748382946E+01  0.33892419054E+02  0.00000000000E+00 0.  1.
          1    1    1    2  501    0  0.16117172753E+03 -0.54756924133E+02  0.21017160320E+03  0.27045655712E+03  0.00000000000E+00 0. -1.
<scales pt_clust_5="13000.00000" pt_clust_6="13000.00000" pt_clust_7="13000.00000" pt_clust_8="13000.00000" pt_clust_9="162.06063"></scales>
<clustering>
<clus scale="   90.938">  5  6 -1 -1</clus>
<clus scale="   95.317">  7  8 -1 -1</clus>
<clus scale="  108.175">  1  5  2 -1</clus>
<clus scale="  162.061">  2  9  1 -1</clus>
<clus scale="  162.061">  2  5  1 -1</clus>
</clustering>
</event>
<event>
 9    2  0.6175212E-005  0.9357303E+02  0.7546771E-02  0.1300009E+00
          2   -1    0    0  502    0 -0.00000000000E+00  0.00000000000E+00  0.10559146341E+04  0.10559146341E+04  0.00000000000E+00 0. -1.
         21   -1    0    0  501  502  0.00000000000E+00 -0.00000000000E+00 -0.45320354287E+02  0.45320354287E+02  0.00000000000E+00 0. -1.
         24    2    1    2    0    0 -0.95654820810E+01  0.19061274993E+02  0.93624472491E+03  0.94008313390E+03  0.82141847323E+02 0.  0.
         23    2    1    2    0    0 -0.86150391968E+01 -0.32840890356E+01  0.92898908830E+02  0.13076222656E+03  0.91561719581E+02 0.  0.
        -11    1    3    3    0    0 -0.13616187010E+02  0.36354346566E+02  0.20620633379E+03  0.20982871862E+03  0.00000000000E+00 0.  1.
         12    1    3    3    0    0  0.40507049294E+01 -0.17293071573E+02  0.73003839112E+03  0.73025441529E+03  0.00000000000E+00 0. -1.
        -13    1    4    4    0    0 -0.94706340020E+01 -0.41650559193E+02  0.17501329396E+02  0.46160139949E+02  0.00000000000E+00 0.  1.
         13    1    4    4    0    0  0.85559480521E+00  0.38366470157E+02  0.75397579434E+02  0.84602086613E+02  0.00000000000E+00 0. -1.
          1    1    1    2  501    0  0.18180521278E+02 -0.15777185957E+02 -0.18549353960E+02  0.30389627885E+02  0.00000000000E+00 0. -1.
<scales pt_clust_5="13000.00000" pt_clust_6="13000.00000" pt_clust_7="13000.00000" pt_clust_8="13000.00000" pt_clust_9="24.07179"></scales>
<clustering>
<clus scale="   24.072">  2  9  1 -1</clus>
<clus scale="   82.142">  5  6 -1 -1</clus>
<clus scale="   84.378">  1  5  2 -1</clus>
<clus scale="   91.562">  7  8 -1 -1</clus>
<clus scale="   24.072">  2  5  1 -1</clus>
</clustering>
</event>
<event>
 9    2  0.6175212E-005  0.8746074E+02  0.7546771E-02  0.1311241E+00
         21   -1    0    0  501  502  0.00000000000E+00  0.00000000000E+00  0.38111046772E+02  0.38111046772E+02  0.00000000000E+00 0. -1.
          2   -1    0    0  502    0 -0.00000000000E+00 -0.00000000000E+00 -0.38041556710E+03  0.38041556710E+03  0.00000000000E+00 0. -1.
         23    2    1    2    0    0  0.50519101389E+01 -0.74460533100E+01 -0.15113756575E+03  0.17147935087E+03  0.80508623690E+02 0.  0.
         24    2    1    2    0    0 -0.50757226281E+02  0.29057530819E+02 -0.10157364533E+03  0.14417358830E+03  0.83953451516E+02 0.  0.
        -11    1    4    4    0    0 -0.15184326945E+02  0.52738220662E+02 -0.77988938371E+02  0.95363295935E+02  0.00000000000E+00 0.  1.
         12    1    4    4    0    0 -0.35572899336E+02 -0.23680689843E+02 -0.23584706956E+02  0.48810292366E+02  0.00000000000E+00 0. -1.
        -11    1    3    3    0    0  0.35621084172E+02 -0.26909683922E+02 -0.88175573565E+02  0.98832810847E+02  0.00000000000E+00 0.  1.
         11    1    3    3    0    0 -0.30569174033E+02  0.19463630612E+02 -0.62961992183E+02  0.72646540023E+02  0.00000000000E+00 0. -1.
          1    1    1    2  501    0  0.45705316142E+02 -0.21611477509E+02 -0.89593309248E+02  0.10287367470E+03  0.00000000000E+00 0. -1.
<scales pt_clust_5="13000.00000" pt_clust_6="13000.00000" pt_clust_7="13000.00000" pt_clust_8="13000.00000" pt_clust_9="50.55724"></scales>
<clustering>
<clus scale="   50.557">  1  9  2 -1</clus>
<clus scale="   80.509">  7  8 -1 -1</clus>
<clus scale="   83.953">  5  6 -1 -1</clus>
<clus scale="   84.160">  2  7  1 -1</clus>
<clus scale="   50.557">  1  5  2 -1</clus>
</clustering>
</event>
<event>
 9    2  0.6175212E-005  0.1217799E+03  0.7546771E-02  0.1259448E+00
          2   -1    0    0  502    0 -0.00000000000E+00  0.00000000000E+00  0.15974487361E+03  0.15974487361E+03  0.00000000000E+00 0. -1.
         21   -1    0    0  501  502  0.00000000000E+00 -0.00000000000E+00 -0.60715751201E+03  0.60715751201E+03  0.00000000000E+00 0. -1.
         24    2    1    2    0    0 -0.24255954887E+01 -0.99031030051E+01  0.12360426915E+03  0.14881551521E+03  0.82244071228E+02 0.  0.
         23    2    1    2    0    0 -0.27962560922E+02 -0.69855905944E+02 -0.15707533500E+03  0.19543741159E+03  0.88664359109E+02 0.  0.
        -11    1    3    3    0    0  0.65918349585E+01  0.34047044990E+02  0.33792779038E+02  0.48421126337E+02  0.00000000000E+00 0.  1.
         12    1    3    3    0    0 -0.90174304472E+01 -0.43950147995E+02  0.89811490112E+02  0.10039438887E+03  0.00000000000E+00 0. -1.
        -11    1    4    4    0    0 -0.56063109432E+02 -0.55022069247E+02 -0.13678570083E+03  0.15773657881E+03  0.00000000000E+00 0. -1.
         11    1    4    4    0    0  0.28100548511E+02 -0.14833836698E+02 -0.20289634172E+02  0.37700832784E+02  0.00000000000E+00 0.  1.
          1    1    1    2  501    0  0.30388156411E+02  0.79759008950E+02 -0.41394157255E+03  0.42264945882E+03  0.00000000000E+00 0. -1.
<scales pt_clust_5="13000.00000" pt_clust_6="13000.00000" pt_clust_7="13000.00000" pt_clust_8="13000.00000" pt_clust_9="83.48041"></scales>
<clustering>
<clus scale="   82.244">  5  6 -1 -1</clus>
<clus scale="   82.874">  1  5  2 -1</clus>
<clus scale="   83.480">  2  9  1 -1</clus>
<clus scale="   88.664">  7  8 -1 -1</clus>
<clus scale="   83.480">  2  5  1 -1</clus>
</clustering>
</event>
<event>
 9    2  0.6863772E-005  0.1212056E+03  0.7546771E-02  0.1245475E+00
         -1   -1    0    0    0  501 -0.00000000000E+00  0.00000000000E+00  0.47984348209E+03  0.47984348209E+03  0.00000000000E+00 0.  1.
         21   -1    0    0  501  502  0.00000000000E+00 -0.00000000000E+00 -0.61143544713E+02  0.61143544713E+02  0.00000000000E+00 0.  1.
         24    2    1    2    0    0  0.69777196772E+02  0.43500973056E+02  0.31070900241E+03  0.33138295264E+03  0.80705546716E+02 0.  0.
         23    2    1    2    0    0 -0.70279364487E+02  0.16090876759E+02  0.59335230101E+02  0.13267021717E+03  0.94247607954E+02 0.  0.
        -11    1    3    3    0    0  0.55742581943E+02  0.58371186860E+02  0.29429578303E+03  0.30516297089E+03  0.00000000000E+00 0.  1.
         12    1    3    3    0    0  0.14034614829E+02 -0.14870213804E+02  0.16413219388E+02  0.26219981744E+02  0.00000000000E+00 0. -1.
        -11    1    4    4    0    0 -0.37405254461E+01 -0.21235648440E+02  0.51674869578E+02  0.55993182096E+02  0.00000000000E+00 0. -1.
         11    1    4    4    0    0 -0.66538839041E+02  0.37326525199E+02  0.76603605224E+01  0.76677035073E+02  0.00000000000E+00 0.  1.
         -2    1    1    2    0  502  0.50216771509E+00 -0.59591849815E+02  0.48655704862E+02  0.76933856997E+02  0.00000000000E+00 0.  1.
<scales pt_clust_5="13000.00000" pt_clust_6="13000.00000" pt_clust_7="13000.00000" pt_clust_8="13000.00000" pt_clust_9="59.59397"></scales>
<clustering>
<clus scale="   59.594">  2  9  1 -1</clus>
<clus scale="   80.706">  5  6 -1 -1</clus>
<clus scale="   94.248">  7  8 -1 -1</clus>
<clus scale="  111.003">  1  5  2 -1</clus>
<clus scale="   59.594">  2  5  1 -1</clus>
</clustering>
</event>
<event>
 9    2  0.6175212E-005  0.1983837E+03  0.7546771E-02  0.1175554E+00
         21   -1    0    0  501  502  0.00000000000E+00  0.00000000000E+00  0.21798712496E+03  0.21798712496E+03  0.00000000000E+00 0.  1.
         -1   -1    0    0    0  501 -0.00000000000E+00 -0.00000000000E+00 -0.43315163326E+03  0.43315163326E+03  0.00000000000E+00 0.  1.
         24    2    1    2    0    0 -0.34134992163E+02 -0.62325578416E+02 -0.19608474195E+03  0.22614829532E+03  0.87430830009E+02 0.  0.
         23    2    1    2    0    0  0.25640139387E+02 -0.12863261900E+03 -0.12760868186E+03  0.20518208911E+03  0.92800574291E+02 0.  0.
        -13    1    3    3    0    0 -0.44853882983E+02 -0.80087389443E+02 -0.16399274725E+03  0.18793478102E+03  0.00000000000E+00 0.  1.
         14    1    3    3    0    0  0.10718890820E+02  0.17761811027E+02 -0.32091994701E+02  0.38213514302E+02  0.00000000000E+00 0. -1.
        -11    1    4    4    0    0  0.24194567068E+02 -0.71081509129E+02 -0.12008917451E+02  0.76040595171E+02  0.00000000000E+00 0.  1.
         11    1    4    4    0    0  0.14455723185E+01 -0.57551109874E+02 -0.11559976441E+03  0.12914149394E+03  0.00000000000E+00 0. -1.
         -2    1    1    2    0  502  0.84948527759E+01  0.19095819742E+03  0.10852891551E+03  0.21980837379E+03  0.00000000000E+00 0.  1.
<scales pt_clust_5="13000.00000" pt_clust_6="13000.00000" pt_clust_7="13000.00000" pt_clust_8="13000.00000" pt_clust_9="175.34005"></scales>
<clustering>
<clus scale="   87.431">  5  6 -1 -1</clus>
<clus scale="   92.801">  7  8 -1 -1</clus>
<clus scale="  112.667">  2  5  1 -1</clus>
<clus scale="  175.340">  1  9  2 -1</clus>
<clus scale="  175.340">  1  5  2 -1</clus>
</clustering>
</event>
<event>
 9    2  0.6175212E-005  0.9835793E+02  0.7546771E-02  0.1289198E+00
         21   -1    0    0  501  502  0.00000000000E+00  0.00000000000E+00  0.69153354093E+02  0.69153354093E+02  0.00000000000E+00 0. -1.
          2   -1    0    0  502    0 -0.00000000000E+00 -0.00000000000E+00 -0.22433966498E+03  0.22433966498E+03  0.00000000000E+00 0. -1.
         23    2    1    2    0    0  0.97052097049E+01 -0.29444284597E+02 -0.88646956499E+02  0.13085657179E+03  0.91126299674E+02 0.  0.
         24    2    1    2    0    0  0.35676081688E+02  0.46603576530E+02 -0.42584589417E+02  0.10852791124E+03  0.80747657010E+02 0.  0.
        -13    1    4    4    0    0 -0.10378528228E+01  0.29859609481E+02  0.18630018930E+02  0.35210098298E+02  0.00000000000E+00 0.  1.
         14    1    4    4    0    0  0.36713934511E+02  0.16743967049E+02 -0.61214608346E+02  0.73317812943E+02  0.00000000000E+00 0. -1.
        -13    1    3    3    0    0  0.25647379319E+02 -0.57891675002E+02 -0.53306937106E+02  0.82769944086E+02  0.00000000000E+00 0.  1.
         13    1    3    3    0    0 -0.15942169614E+02  0.28447390405E+02 -0.35340019393E+02  0.48086627700E+02  0.00000000000E+00 0. -1.
          1    1    1    2  501    0 -0.45381291393E+02 -0.17159291933E+02 -0.23954764971E+02  0.54108536045E+02  0.00000000000E+00 0. -1.
<scales pt_clust_5="13000.00000" pt_clust_6="13000.00000" pt_clust_7="13000.00000" pt_clust_8="13000.00000" pt_clust_9="48.51704"></scales>
<clustering>
<clus scale="   48.517">  1  9  2 -1</clus>
<clus scale="   80.748">  5  6 -1 -1</clus>
<clus scale="   88.828">  1  5  2 -1</clus>
<clus scale="   91.126">  7  8 -1 -1</clus>
<clus scale="   48.517">  1  5  2 -1</clus>
</clustering>
</event>
<event>
 9    2  0.6175212E-005  0.1223331E+03  0.7546771E-02  0.1242190E+00
         21   -1    0    0  501  502  0.00000000000E+00  0.00000000000E+00  0.47293617862E+02  0.47293617862E+02  0.00000000000E+00 0. -1.
          2   -1    0    0  502    0 -0.00000000000E+00 -0.00000000000E+00 -0.52241972018E+03  0.52241972018E+03  0.00000000000E+00 0. -1.
         24    2    1    2    0    0 -0.27557291262E+02  0.69378265420E+02 -0.29138198051E+03  0.31173271557E+03  0.81860120808E+02 0.  0.
         23    2    1    2    0    0  0.71891449151E+01 -0.98882162864E+02 -0.17525419999E+03  0.22113743962E+03  0.91424103210E+02 0.  0.
        -13    1    3    3    0    0 -0.48712432962E+02  0.13337130248E+02 -0.14624463155E+03  0.15471998069E+03  0.00000000000E+00 0.  1.
         14    1    3    3    0    0  0.21155141700E+02  0.56041135172E+02 -0.14513734896E+03  0.15701273488E+03  0.00000000000E+00 0. -1.
        -13    1    4    4    0    0  0.24225174949E+02 -0.53703420408E+02 -0.26236226585E+02  0.64492294503E+02  0.00000000000E+00 0.  1.
         13    1    4    4    0    0 -0.17036030034E+02 -0.45178742456E+02 -0.14901797341E+03  0.15664514511E+03  0.00000000000E+00 0. -1.
          1    1    1    2  501    0  0.20368146347E+02  0.29503897444E+02 -0.84899218115E+01  0.36843182848E+02  0.00000000000E+00 0. -1.
<scales pt_clust_5="13000.00000" pt_clust_6="13000.00000" pt_clust_7="13000.00000" pt_clust_8="13000.00000" pt_clust_9="35.85166"></scales>
<clustering>
<clus scale="   35.852">  1  9  2 -1</clus>
<clus scale="   81.860">  5  6 -1 -1</clus>
<clus scale="   91.424">  7  8 -1 -1</clus>
<clus scale="  115.361">  2  5  1 -1</clus>
<clus scale="   35.852">  1  5  2 -1</clus>
</clustering>
</event>
<event>
 9    2  0.6175212E-005  0.1239402E+03  0.7546771E-02  0.1240400E+00
         -3   -1    0    0    0  501 -0.00000000000E+00  0.00000000000E+00  0.13915902126E+03  0.13915902126E+03  0.00000000000E+00 0.  1.
         21   -1    0    0  501  502  0.00000000000E+00 -0.00000000000E+00 -0.25324983720E+03  0.25324983720E+03  0.00000000000E+00 0.  1.
         24    2    1    2    0    0  0.43743594588E+02 -0.82446107913E+02  0.72496108423E+02  0.14240299926E+03  0.79448509635E+02 0.  0.
         23    2    1    2    0    0 -0.74808990997E+01  0.35343480372E+02 -0.15195447022E+03  0.18120871183E+03  0.91876606217E+02 0.  0.
        -13    1    3    3    0    0  0.48240210903E+02 -0.92878321493E+02  0.77257531586E+02  0.13008545936E+03  0.00000000000E+00 0.  1.
         14    1    3    3    0    0 -0.44966163154E+01  0.10432213579E+02 -0.47614231631E+01  0.12317539892E+02  0.00000000000E+00 0. -1.
        -13    1    4    4    0    0  0.20712103898E+02  0.56776181117E+02 -0.73682165659E+02  0.95297363690E+02  0.00000000000E+00 0.  1.
         13    1    4    4    0    0 -0.28193002998E+02 -0.21432700745E+02 -0.78272304557E+02  0.85911348144E+02  0.00000000000E+00 0. -1.
         -4    1    1    2    0  502 -0.36262695488E+02  0.47102627541E+02 -0.34632454149E+02  0.68797147366E+02  0.00000000000E+00 0.  1.
<scales pt_clust_5="13000.00000" pt_clust_6="13000.00000" pt_clust_7="13000.00000" pt_clust_8="13000.00000" pt_clust_9="59.44443"></scales>
<clustering>
<clus scale="   59.444">  2  9  1 -1</clus>
<clus scale="   79.449">  5  6 -1 -1</clus>
<clus scale="   91.877">  7  8 -1 -1</clus>
<clus scale="  115.030">  1  5  2 -1</clus>
<clus scale="   59.444">  2  5  1 -1</clus>
</clustering>
</event>
<event>
 9    2  0.6175212E-005  0.1231317E+03  0.7546771E-02  0.1239879E+00
          2   -1    0    0  502    0 -0.00000000000E+00  0.00000000000E+00  0.24905875012E+03  0.24905875012E+03  0.00000000000E+00 0. -1.
         21   -1    0    0  501  502  0.00000000000E+00 -0.00000000000E+00 -0.23368351032E+03  0.23368351032E+03  0.00000000000E+00 0. -1.
         23    2    1    2    0    0 -0.23320616140E+02  0.76644611037E+02  0.13052718622E+03  0.17815922274E+03  0.91022605791E+02 0.  0.
         24    2    1    2    0    0 -0.23995232910E+02 -0.94080696646E+02  0.45141845343E+02  0.13654463038E+03  0.84733117505E+02 0.  0.
        -13    1    4    4    0    0 -0.35028815967E+01 -0.10067402583E+03  0.18713379308E+02  0.10245838288E+03  0.00000000000E+00 0.  1.
         14    1    4    4    0    0 -0.20492351313E+02  0.65933291871E+01  0.26428466034E+02  0.34086247506E+02  0.00000000000E+00 0. -1.
        -11    1    3    3    0    0  0.64223167992E+01  0.63892584333E+02  0.13089275165E+03  0.14579581928E+03  0.00000000000E+00 0. -1.
         11    1    3    3    0    0 -0.29742932939E+02  0.12752026704E+02 -0.36556543026E+00  0.32363403452E+02  0.00000000000E+00 0.  1.
          1    1    1    2  501    0  0.47315849050E+02  0.17436085609E+02 -0.16029379177E+03  0.16803840732E+03  0.00000000000E+00 0. -1.
<scales pt_clust_5="13000.00000" pt_clust_6="13000.00000" pt_clust_7="13000.00000" pt_clust_8="13000.00000" pt_clust_9="50.42625"></scales>
<clustering>
<clus scale="   50.426">  2  9  1 -1</clus>
<clus scale="   84.733">  5  6 -1 -1</clus>
<clus scale="   91.023">  7  8 -1 -1</clus>
<clus scale="  118.558">  2  5  1 -1</clus>
<clus scale="   50.426">  2  5  1 -1</clus>
</clustering>
</event>
<event>
 9    2  0.6175212E-005  0.1147911E+03  0.7546771E-02  0.1253229E+00
         -1   -1    0    0    0  501 -0.00000000000E+00  0.00000000000E+00  0.47106190058E+02  0.47106190058E+02  0.00000000000E+00 0.  1.
         21   -1    0    0  501  502  0.00000000000E+00 -0.00000000000E+00 -0.47025930032E+03  0.47025930032E+03  0.00000000000E+00 0.  1.
         24    2    1    2    0    0 -0.16383812942E+02 -0.74334317235E+02 -0.11900008517E+03  0.16557836308E+03  0.86377971751E+02 0.  0.
         23    2    1    2    0    0  0.14573351453E+01  0.60704014470E+02 -0.31179124406E+03  0.33017862707E+03  0.90094643037E+02 0.  0.
        -11    1    3    3    0    0 -0.26942679004E+02 -0.87108066083E+02 -0.73375785285E+02  0.11703729745E+03  0.00000000000E+00 0.  1.
         12    1    3    3    0    0  0.10558866061E+02  0.12773748849E+02 -0.45624299883E+02  0.48541065624E+02  0.00000000000E+00 0. -1.
        -13    1    4    4    0    0 -0.31489214491E+02  0.70731099920E+01 -0.19360575912E+03  0.19627732798E+03  0.00000000000E+00 0. -1.
         13    1    4    4    0    0  0.32946549637E+02  0.53630904478E+02 -0.11818548494E+03  0.13390129909E+03  0.00000000000E+00 0.  1.
         -2    1    1    2    0  502  0.14926477797E+02  0.13630302765E+02  0.76382189723E+01  0.21608500224E+02  0.00000000000E+00 0.  1.
<scales pt_clust_5="13000.00000" pt_clust_6="13000.00000" pt_clust_7="13000.00000" pt_clust_8="13000.00000" pt_clust_9="20.21349"></scales>
<clustering>
<clus scale="   20.213">  2  9  1 -1</clus>
<clus scale="   86.378">  5  6 -1 -1</clus>
<clus scale="   90.095">  7  8 -1 -1</clus>
<clus scale="  111.898">  1  5  2 -1</clus>
<clus scale="   20.213">  2  5  1 -1</clus>
</clustering>
</event>
<event>
 9    2  0.6175212E-005  0.4907935E+03  0.7546771E-02  0.1016217E+00
         21   -1    0    0  501  502  0.00000000000E+00  0.00000000000E+00  0.83429033965E+03  0.83429033965E+03  0.00000000000E+00 0.  1.
          2   -1    0    0  502    0 -0.00000000000E+00 -0.00000000000E+00 -0.11318466418E+04  0.11318466418E+04  0.00000000000E+00 0. -1.
         24    2    1    2    0    0 -0.25194397463E+03 -0.41113285718E+03 -0.97902478151E+03  0.10953041025E+04  0.93249994549E+02 0.  0.
         23    2    1    2    0    0  0.22871110000E+03  0.42061574862E+03  0.54187720709E+03  0.72900405621E+03  0.92680263020E+02 0.  0.
        -13    1    3    3    0    0 -0.10825801336E+03 -0.98113592474E+02 -0.26737752585E+03  0.30469134516E+03  0.00000000000E+00 0.  1.
         14    1    3    3    0    0 -0.14368596127E+03 -0.31301926471E+03 -0.71164725566E+03  0.79061275731E+03  0.00000000000E+00 0. -1.
        -11    1    4    4    0    0  0.19046349841E+03  0.35630351314E+03  0.50144412903E+03  0.64395244563E+03  0.00000000000E+00 0.  1.
         11    1    4    4    0    0  0.38247601590E+02  0.64312235480E+02  0.40433078069E+02  0.85051610578E+02  0.00000000000E+00 0. -1.
          1    1    1    2  501    0  0.23232874631E+02 -0.94828914374E+01  0.13959127223E+03  0.14182882280E+03  0.00000000000E+00 0. -1.
<scales pt_clust_5="13000.00000" pt_clust_6="13000.00000" pt_clust_7="13000.00000" pt_clust_8="13000.00000" pt_clust_9="25.09366"></scales>
<clustering>
<clus scale="   25.094">  1  9  2 -1</clus>
<clus scale="   92.680">  7  8 -1 -1</clus>
<clus scale="   93.250">  5  6 -1 -1</clus>
<clus scale="  490.686">  1  7  2 -1</clus>
<clus scale="   25.094">  1  5  2 -1</clus>
</clustering>
</event>
<event>
 9    2  0.6175212E-005  0.2413125E+03  0.7546771E-02  0.1119484E+00
          2   -1    0    0  502    0 -0.00000000000E+00  0.00000000000E+00  0.73650166171E+03  0.73650166171E+03  0.00000000000E+00 0. -1.
         21   -1    0    0  501  502  0.00000000000E+00 -0.00000000000E+00 -0.11859181320E+03  0.11859181320E+03  0.00000000000E+00 0.  1.
         23    2    1    2    0    0  0.22329063810E+03 -0.10733867179E+02  0.27117587266E+03  0.36286922090E+03  0.90353708263E+02 0.  0.
         24    2    1    2    0    0 -0.21987726113E+03 -0.81674937224E+02  0.19956453560E+03  0.31841435091E+03  0.80900492365E+02 0.  0.
        -11    1    4    4    0    0 -0.16491810462E+03 -0.41726812877E+02  0.98317357355E+02  0.19648259695E+03  0.00000000000E+00 0.  1.
         12    1    4    4    0    0 -0.54959156506E+02 -0.39948124347E+02  0.10124717824E+03  0.12193175396E+03  0.00000000000E+00 0. -1.
        -13    1    3    3    0    0  0.38399536477E+02  0.24804684723E+02  0.22476039828E+02  0.50940839728E+02  0.00000000000E+00 0. -1.
         13    1    3    3    0    0  0.18489110162E+03 -0.35538551902E+02  0.24869983284E+03  0.31192838118E+03  0.00000000000E+00 0.  1.
          1    1    1    2  501    0 -0.34133769705E+01  0.92408804403E+02  0.14716944025E+03  0.17380990311E+03  0.00000000000E+00 0. -1.
<scales pt_clust_5="13000.00000" pt_clust_6="13000.00000" pt_clust_7="13000.00000" pt_clust_8="13000.00000" pt_clust_9="92.47187"></scales>
<clustering>
<clus scale="   80.900">  5  6 -1 -1</clus>
<clus scale="   90.354">  7  8 -1 -1</clus>
<clus scale="   92.472">  2  9  1 -1</clus>
<clus scale="  237.935">  2  5  1 -1</clus>
<clus scale="   92.472">  2  5  1 -1</clus>
</clustering>
</event>
<event>
 9    2  0.6175212E-005  0.2796688E+03  0.7546771E-02  0.1129989E+00
         21   -1    0    0  501  502  0.00000000000E+00  0.00000000000E+00  0.71165085391E+03  0.71165085391E+03  0.00000000000E+00 0. -1.
          2   -1    0    0  502    0 -0.00000000000E+00 -0.00000000000E+00 -0.16111307198E+03  0.16111307198E+03  0.00000000000E+00 0. -1.
         24    2    1    2    0    0 -0.79692094606E+02  0.31398709260E+02  0.88867602582E+02  0.14756266789E+03  0.80873860297E+02 0.  0.
         23    2    1    2    0    0  0.51986196508E+02 -0.28318192954E+03  0.20829997266E+03  0.36692919875E+03  0.91397967375E+02 0.  0.
        -13    1    3    3    0    0 -0.42428997639E+02  0.29654875786E+02  0.96480162513E+02  0.10948996875E+03  0.00000000000E+00 0.  1.
         14    1    3    3    0    0 -0.37263096966E+02  0.17438334739E+01 -0.76125599317E+01  0.38072699135E+02  0.00000000000E+00 0. -1.
        -11    1    4    4    0    0 -0.76163975927E+01 -0.34181866425E+02 -0.27425844839E+01  0.35127357917E+02  0.00000000000E+00 0.  1.
         11    1    4    4    0    0  0.59602594101E+02 -0.24900006312E+03  0.21104255715E+03  0.33180184084E+03  0.00000000000E+00 0. -1.
          1    1    1    2  501    0  0.27705898098E+02  0.25178322028E+03  0.25337020669E+03  0.35827205925E+03  0.00000000000E+00 0. -1.
<scales pt_clust_5="13000.00000" pt_clust_6="13000.00000" pt_clust_7="13000.00000" pt_clust_8="13000.00000" pt_clust_9="264.31239"></scales>
<clustering>
<clus scale="   80.874">  5  6 -1 -1</clus>
<clus scale="   91.398">  7  8 -1 -1</clus>
<clus scale="  117.802">  2  5  1 -1</clus>
<clus scale="  264.312">  1  9  2 -1</clus>
<clus scale="  264.312">  1  5  2 -1</clus>
</clustering>
</event>
<event>
 9    2  0.6175212E-005  0.1735442E+03  0.7546771E-02  0.1175618E+00
          2   -1    0    0  502    0 -0.00000000000E+00  0.00000000000E+00  0.79027362197E+03  0.79027362197E+03  0.00000000000E+00 0. -1.
         21   -1    0    0  501  502  0.00000000000E+00 -0.00000000000E+00 -0.57148216839E+02  0.57148216839E+02  0.00000000000E+00 0. -1.
         24    2    1    2    0    0  0.12598516630E+03  0.79091309669E+02  0.32372614405E+03  0.36527825773E+03  0.80634309325E+02 0.  0.
         23    2    1    2    0    0 -0.14936049595E+03 -0.27747882220E+02  0.20977075367E+03  0.27469697457E+03  0.91521341916E+02 0.  0.
        -13    1    3    3    0    0  0.15869052219E+02  0.45919537531E+02  0.14334595262E+03  0.15135551816E+03  0.00000000000E+00 0.  1.
         14    1    3    3    0    0  0.11011611408E+03  0.33171772139E+02  0.18038019143E+03  0.21392273957E+03  0.00000000000E+00 0. -1.
        -13    1    4    4    0    0 -0.66322755635E+02 -0.47740111467E+02  0.56873179900E+02  0.99560959969E+02  0.00000000000E+00 0.  1.
         13    1    4    4    0    0 -0.83037740311E+02  0.19992229247E+02  0.15289757377E+03  0.17513601460E+03  0.00000000000E+00 0. -1.
          1    1    1    2  501    0  0.23375329650E+02 -0.51343427450E+02  0.19962850742E+03  0.20744660651E+03  0.00000000000E+00 0. -1.
<scales pt_clust_5="13000.00000" pt_clust_6="13000.00000" pt_clust_7="13000.00000" pt_clust_8="13000.00000" pt_clust_9="56.41415"></scales>
<clustering>
<clus scale="   56.414">  2  9  1 -1</clus>
<clus scale="   80.634">  5  6 -1 -1</clus>
<clus scale="   91.521">  7  8 -1 -1</clus>
<clus scale="  168.058">  1  5  2 -1</clus>
<clus scale="   56.414">  2  5  1 -1</clus>
</clustering>
</event>
<event>
 9    2  0.6175212E-005  0.1362382E+03  0.7546771E-02  0.1220294E+00
          4   -1    0    0  502    0 -0.00000000000E+00  0.00000000000E+00  0.21057494124E+04  0.21057494124E+04  0.00000000000E+00 0. -1.
         21   -1    0    0  501  502  0.00000000000E+00 -0.00000000000E+00 -0.17307412732E+02  0.17307412732E+02  0.00000000000E+00 0. -1.
         24    2    1    2    0    0 -0.34364836941E+02 -0.10137328685E+03  0.15871549242E+04  0.15929458718E+04  0.83416496362E+02 0.  0.
         23    2    1    2    0    0  0.58987649949E+02  0.61816069843E+02  0.34069086303E+03  0.36289193588E+03  0.91211422738E+02 0.  0.
        -11    1    3    3    0    0 -0.26605058732E+02 -0.16793102485E+02  0.14901679239E+03  0.15230181172E+03  0.00000000000E+00 0.  1.
         12    1    3    3    0    0 -0.77597782084E+01 -0.84580184363E+02  0.14381381318E+04  0.14406440601E+04  0.00000000000E+00 0. -1.
        -13    1    4    4    0    0  0.37373648392E+01  0.52875204162E+02  0.25563851549E+03  0.26107624502E+03  0.00000000000E+00 0.  1.
         13    1    4    4    0    0  0.55250285109E+02  0.89408656812E+01  0.85052347545E+02  0.10181569087E+03  0.00000000000E+00 0. -1.
          3    1    1    2  501    0 -0.24622813008E+02  0.39557217005E+02  0.16059621243E+03  0.16721901741E+03  0.00000000000E+00 0. -1.
<scales pt_clust_5="13000.00000" pt_clust_6="13000.00000" pt_clust_7="13000.00000" pt_clust_8="13000.00000" pt_clust_9="46.59460"></scales>
<clustering>
<clus scale="   46.595">  2  9  1 -1</clus>
<clus scale="   83.416">  5  6 -1 -1</clus>
<clus scale="   91.211">  7  8 -1 -1</clus>
<clus scale="  131.147">  1  5  2 -1</clus>
<clus scale="   46.595">  2  5  1 -1</clus>
</clustering>
</event>
<event>
 9    2  0.6175212E-005  0.1326182E+03  0.7546771E-02  0.1236321E+00
         -1   -1    0    0    0  501 -0.00000000000E+00  0.00000000000E+00  0.13667577179E+03  0.13667577179E+03  0.00000000000E+00 0.  1.
         21   -1    0    0  501  502  0.00000000000E+00 -0.00000000000E+00 -0.47056964094E+03  0.47056964094E+03  0.00000000000E+00 0.  1.
         24    2    1    2    0    0 -0.45855094118E+02  0.64424336550E+02  0.81494232884E+02  0.13709151528E+03  0.76808780574E+02 0.  0.
         23    2    1    2    0    0  0.14486712966E+01 -0.59529497878E+01 -0.12040707701E+03  0.16617258456E+03  0.11435876620E+03 0.  0.
        -11    1    3    3    0    0 -0.40554185414E+02  0.65590709690E+02  0.95103620564E+02  0.12243970678E+03  0.00000000000E+00 0.  1.
         12    1    3    3    0    0 -0.53009087039E+01 -0.11663731398E+01 -0.13609387681E+02  0.14651808504E+02  0.00000000000E+00 0. -1.
        -13    1    4    4    0    0  0.33362024869E+02  0.43789688912E+02 -0.64772387020E+02  0.85006021425E+02  0.00000000000E+00 0.  1.
         13    1    4    4    0    0 -0.31913353572E+02 -0.49742638699E+02 -0.55634689989E+02  0.81166563135E+02  0.00000000000E+00 0. -1.
         -2    1    1    2    0  502  0.44406422822E+02 -0.58471386762E+02 -0.29498102502E+03  0.30398131288E+03  0.00000000000E+00 0.  1.
<scales pt_clust_5="13000.00000" pt_clust_6="13000.00000" pt_clust_7="13000.00000" pt_clust_8="13000.00000" pt_clust_9="73.42230"></scales>
<clustering>
<clus scale="   73.422">  2  9  1 -1</clus>
<clus scale="   76.809">  5  6 -1 -1</clus>
<clus scale="  102.026">  1  5  2 -1</clus>
<clus scale="  114.359">  7  8 -1 -1</clus>
<clus scale="   73.422">  2  5  1 -1</clus>
</clustering>
</event>
<event>
 9    2  0.6175212E-005  0.1065719E+03  0.7546771E-02  0.1268047E+00
          2   -1    0    0  502    0 -0.00000000000E+00  0.00000000000E+00  0.36522371717E+03  0.36522371717E+03  0.00000000000E+00 0. -1.
         21   -1    0    0  501  502  0.00000000000E+00 -0.00000000000E+00 -0.11589695840E+03  0.11589695840E+03  0.00000000000E+00 0. -1.
         23    2    1    2    0    0  0.42402046516E+02 -0.58948724692E+02  0.24234065417E+03  0.26646305753E+03  0.83670082297E+02 0.  0.
         24    2    1    2    0    0 -0.12084076219E+02  0.87628065467E+01 -0.76624338534E+02  0.11253753234E+03  0.81059208322E+02 0.  0.
        -11    1    4    4    0    0 -0.33379551274E+02  0.34986930774E+02 -0.49662274316E+02  0.69315375339E+02  0.00000000000E+00 0.  1.
         12    1    4    4    0    0  0.21295475054E+02 -0.26224124227E+02 -0.26962064218E+02  0.43222157005E+02  0.00000000000E+00 0. -1.
        -11    1    3    3    0    0  0.44990781174E+02  0.95440533291E+00  0.14791698186E+03  0.15461084956E+03  0.00000000000E+00 0.  1.
         11    1    3    3    0    0 -0.25887346586E+01 -0.59903130025E+02  0.94423672314E+02  0.11185220797E+03  0.00000000000E+00 0. -1.
          1    1    1    2  501    0 -0.30317970296E+02  0.50185918145E+02  0.83610443133E+02  0.10212008570E+03  0.00000000000E+00 0. -1.
<scales pt_clust_5="13000.00000" pt_clust_6="13000.00000" pt_clust_7="13000.00000" pt_clust_8="13000.00000" pt_clust_9="58.63283"></scales>
<clustering>
<clus scale="   58.633">  2  9  1 -1</clus>
<clus scale="   81.059">  5  6 -1 -1</clus>
<clus scale="   83.670">  7  8 -1 -1</clus>
<clus scale="  104.535">  2  5  1 -1</clus>
<clus scale="   58.633">  2  5  1 -1</clus>
</clustering>
</event>
<event>
 9    2  0.6175212E-005  0.9798021E+02  0.7546771E-02  0.1289544E+00
         21   -1    0    0  501  502  0.00000000000E+00  0.00000000000E+00  0.28626002124E+03  0.28626002124E+03  0.00000000000E+00 0.  1.
         -3   -1    0    0    0  501 -0.00000000000E+00 -0.00000000000E+00 -0.97446550556E+02  0.97446550556E+02  0.00000000000E+00 0.  1.
         23    2    1    2    0    0  0.13378169815E+02 -0.35987759113E+02 -0.15106836440E+02  0.99202842036E+02  0.90215814175E+02 0.  0.
         24    2    1    2    0    0  0.10280257808E+02  0.40775472681E+02  0.12815984118E+02  0.91881026866E+02  0.80681787140E+02 0.  0.
        -11    1    4    4    0    0  0.36397514633E+02  0.51233490982E+02  0.92147578482E+01  0.63518197643E+02  0.00000000000E+00 0.  1.
         12    1    4    4    0    0 -0.26117256825E+02 -0.10458018302E+02  0.36012262698E+01  0.28362829222E+02  0.00000000000E+00 0. -1.
        -11    1    3    3    0    0 -0.26398630105E+02  0.50286718846E+01 -0.29880764597E+02  0.40187501854E+02  0.00000000000E+00 0.  1.
         11    1    3    3    0    0  0.39776799919E+02 -0.41016430998E+02  0.14773928157E+02  0.59015340182E+02  0.00000000000E+00 0. -1.
         -4    1    1    2    0  502 -0.23658427623E+02 -0.47877135674E+01  0.19110432301E+03  0.19262270290E+03  0.00000000000E+00 0.  1.
<scales pt_clust_5="13000.00000" pt_clust_6="13000.00000" pt_clust_7="13000.00000" pt_clust_8="13000.00000" pt_clust_9="24.13801"></scales>
<clustering>
<clus scale="   24.138">  1  9  2 -1</clus>
<clus scale="   80.682">  5  6 -1 -1</clus>
<clus scale="   89.279">  1  5  2 -1</clus>
<clus scale="   90.216">  7  8 -1 -1</clus>
<clus scale="   24.138">  1  5  2 -1</clus>
</clustering>
</event>
<event>
 9    2  0.6175212E-005  0.8964313E+02  0.7546771E-02  0.1308291E+00
         21   -1    0    0  501  502  0.00000000000E+00  0.00000000000E+00  0.25050356278E+03  0.25050356278E+03  0.00000000000E+00 0. -1.
         -1   -1    0    0    0  501 -0.00000000000E+00 -0.00000000000E+00 -0.61405932142E+02  0.61405932142E+02  0.00000000000E+00 0.  1.
         23    2    1    2    0    0 -0.28055181557E+00 -0.76556886509E+00  0.84377424460E+02  0.12142781000E+03  0.87318374230E+02 0.  0.
         24    2    1    2    0    0  0.42382254085E+01 -0.45930757951E+02  0.10970147586E+03  0.14335395247E+03  0.79927121827E+02 0.  0.
        -13    1    4    4    0    0 -0.36656938378E+01 -0.32250937837E+02 -0.62624778040E-01  0.32458654078E+02  0.00000000000E+00 0.  1.
         14    1    4    4    0    0  0.79039192463E+01 -0.13679820114E+02  0.10976410063E+03  0.11089529839E+03  0.00000000000E+00 0. -1.
        -11    1    3    3    0    0 -0.21209675090E+02 -0.38557883315E+02  0.39459174963E+02  0.59106574693E+02  0.00000000000E+00 0. -1.
         11    1    3    3    0    0  0.20929123275E+02  0.37792314450E+02  0.44918249497E+02  0.62321235309E+02  0.00000000000E+00 0.  1.
         -2    1    1    2    0  502 -0.39576735929E+01  0.46696326816E+02 -0.49812696771E+01  0.47127732451E+02  0.00000000000E+00 0.  1.
<scales pt_clust_5="13000.00000" pt_clust_6="13000.00000" pt_clust_7="13000.00000" pt_clust_8="13000.00000" pt_clust_9="46.86376"></scales>
<clustering>
<clus scale="   46.864">  1  9  2 -1</clus>
<clus scale="   79.927">  5  6 -1 -1</clus>
<clus scale="   82.461">  1  5  2 -1</clus>
<clus scale="   87.318">  7  8 -1 -1</clus>
<clus scale="   46.864">  1  5  2 -1</clus>
</clustering>
</event>
<event>
 9    2  0.6175212E-005  0.1708176E+03  0.7546771E-02  0.1186681E+00
         21   -1    0    0  501  502  0.00000000000E+00  0.00000000000E+00  0.52783321531E+03  0.52783321531E+03  0.00000000000E+00 0.  1.
         -3   -1    0    0    0  501 -0.00000000000E+00 -0.00000000000E+00 -0.12637942424E+03  0.12637942424E+03  0.00000000000E+00 0.  1.
         23    2    1    2    0    0 -0.45865689500E+02  0.91816902518E+02  0.41950753511E+02  0.14375544515E+03  0.91497307226E+02 0.  0.
         24    2    1    2    0    0 -0.11701188849E+03 -0.46437391591E+02  0.49010703273E+02  0.15691243757E+03  0.79820114280E+02 0.  0.
        -11    1    4    4    0    0 -0.10204494477E+03 -0.55926817709E+02  0.13398599332E+02  0.11713454724E+03  0.00000000000E+00 0.  1.
         12    1    4    4    0    0 -0.14966943720E+02  0.94894261182E+01  0.35612103941E+02  0.39777890335E+02  0.00000000000E+00 0. -1.
        -13    1    3    3    0    0 -0.21893791050E+02  0.82126339426E+02 -0.10143113986E+02  0.85597642931E+02  0.00000000000E+00 0.  1.
         13    1    3    3    0    0 -0.23971898450E+02  0.96905630915E+01  0.52093867498E+02  0.58157802221E+02  0.00000000000E+00 0. -1.
         -4    1    1    2    0  502  0.16287757799E+03 -0.45379510927E+02  0.31049233429E+03  0.35354475682E+03  0.00000000000E+00 0.  1.
<scales pt_clust_5="13000.00000" pt_clust_6="13000.00000" pt_clust_7="13000.00000" pt_clust_8="13000.00000" pt_clust_9="151.02118"></scales>
<clustering>
<clus scale="   79.820">  5  6 -1 -1</clus>
<clus scale="   91.497">  7  8 -1 -1</clus>
<clus scale="  137.498">  2  7  1 -1</clus>
<clus scale="  151.021">  1  9  2 -1</clus>
<clus scale="  151.021">  1  5  2 -1</clus>
</clustering>
</event>
<event>
 9    2  0.6175212E-005  0.1427394E+03  0.7546771E-02  0.1222309E+00
         21   -1    0    0  501  502  0.00000000000E+00  0.00000000000E+00  0.96641871383E+02  0.96641871383E+02  0.00000000000E+00 0. -1.
          2   -1    0    0  502    0 -0.00000000000E+00 -0.00000000000E+00 -0.54748695221E+03  0.54748695221E+03  0.00000000000E+00 0. -1.
         23    2    1    2    0    0 -0.59270761104E+02  0.57865334819E+01 -0.95585904097E+02  0.14521430559E+03  0.91673455237E+02 0.  0.
         24    2    1    2    0    0  0.56698011546E+02  0.11292440804E+03 -0.34929642924E+03  0.38002607856E+03  0.80282242508E+02 0.  0.
        -13    1    4    4    0    0  0.16037413967E+02  0.73430979994E+02 -0.10431609484E+03  0.12857353971E+03  0.00000000000E+00 0.  1.
         14    1    4    4    0    0  0.40660597580E+02  0.39493428043E+02 -0.24498033440E+03  0.25145253885E+03  0.00000000000E+00 0. -1.
        -11    1    3    3    0    0  0.17010585867E+02 -0.19622405094E+02 -0.39159979261E+02  0.46988326092E+02  0.00000000000E+00 0.  1.
         11    1    3    3    0    0 -0.76281346971E+02  0.25408938576E+02 -0.56425924836E+02  0.98225979501E+02  0.00000000000E+00 0. -1.
          1    1    1    2  501    0  0.25727495578E+01 -0.11871094152E+03 -0.59627474977E+01  0.11888843945E+03  0.00000000000E+00 0. -1.
<scales pt_clust_5="13000.00000" pt_clust_6="13000.00000" pt_clust_7="13000.00000" pt_clust_8="13000.00000" pt_clust_9="118.02241"></scales>
<clustering>
<clus scale="   80.282">  5  6 -1 -1</clus>
<clus scale="   91.673">  7  8 -1 -1</clus>
<clus scale="  109.319">  2  7  1 -1</clus>
<clus scale="  118.022">  1  9  2 -1</clus>
<clus scale="  118.022">  1  5  2 -1</clus>
</clustering>
</event>
<event>
 9    2  0.6175212E-005  0.1405975E+03  0.7546771E-02  0.1213736E+00
          2   -1    0    0  502    0 -0.00000000000E+00  0.00000000000E+00  0.38163005054E+03  0.38163005054E+03  0.00000000000E+00 0. -1.
         21   -1    0    0  501  502  0.00000000000E+00 -0.00000000000E+00 -0.17238223862E+03  0.17238223862E+03  0.00000000000E+00 0. -1.
         24    2    1    2    0    0  0.21930695802E+02  0.12736396157E+03  0.28191112338E+03  0.32104661592E+03  0.83033210127E+02 0.  0.
         23    2    1    2    0    0 -0.61099012372E+02 -0.25817685870E+02 -0.22356496650E+02  0.11306330151E+03  0.88791074946E+02 0.  0.
        -11    1    3    3    0    0  0.79663344222E+00  0.26967377503E+02  0.73793451889E+01  0.27970141395E+02  0.00000000000E+00 0.  1.
         12    1    3    3    0    0  0.21134062360E+02  0.10039658407E+03  0.27453177819E+03  0.29307647452E+03  0.00000000000E+00 0. -1.
        -11    1    4    4    0    0 -0.42705922062E+02  0.16729736432E+02 -0.42493781399E+02  0.62525205460E+02  0.00000000000E+00 0. -1.
         11    1    4    4    0    0 -0.18393090310E+02 -0.42547422302E+02  0.20137284748E+02  0.50538096053E+02  0.00000000000E+00 0.  1.
          1    1    1    2  501    0  0.39168316570E+02 -0.10154627570E+03 -0.50306814799E+02  0.11990237173E+03  0.00000000000E+00 0. -1.
<scales pt_clust_5="13000.00000" pt_clust_6="13000.00000" pt_clust_7="13000.00000" pt_clust_8="13000.00000" pt_clust_9="108.83843"></scales>
<clustering>
<clus scale="   83.033">  5  6 -1 -1</clus>
<clus scale="   88.791">  7  8 -1 -1</clus>
<clus scale="  108.838">  2  9  1 -1</clus>
<clus scale="  137.034">  1  5  2 -1</clus>
<clus scale="  108.838">  2  5  1 -1</clus>
</clustering>
</event>
<event>
 9    2  0.6175212E-005  0.1335657E+03  0.7546771E-02  0.1224838E+00
          2   -1    0    0  502    0 -0.00000000000E+00  0.00000000000E+00  0.11277076928E+04  0.11277076928E+04  0.00000000000E+00 0. -1.
         21   -1    0    0  501  502  0.00000000000E+00 -0.00000000000E+00 -0.51577218096E+02  0.51577218096E+02  0.00000000000E+00 0.  1.
         24    2    1    2    0    0 -0.76714501708E+02 -0.62967154474E+02  0.99914206559E+03  0.10072962691E+04  0.80690329009E+02 0.  0.
         23    2    1    2    0    0  0.76859007281E+02  0.33251891940E+02  0.58531402186E+02  0.13700752097E+03  0.91280558957E+02 0.  0.
        -11    1    3    3    0    0  0.77326513918E+01 -0.32591016685E+02  0.16679744686E+03  0.17012747145E+03  0.00000000000E+00 0.  1.
         12    1    3    3    0    0 -0.84447153100E+02 -0.30376137789E+02  0.83234461873E+03  0.83716879764E+03  0.00000000000E+00 0. -1.
        -13    1    4    4    0    0  0.63186641749E+02 -0.20425837402E+02  0.19379518431E+02  0.69176096042E+02  0.00000000000E+00 0.  1.
         13    1    4    4    0    0  0.13672365532E+02  0.53677729342E+02  0.39151883754E+02  0.67831424930E+02  0.00000000000E+00 0. -1.
          1    1    1    2  501    0 -0.14450557308E+00  0.29715262534E+02  0.18457006930E+02  0.34981120824E+02  0.00000000000E+00 0. -1.
<scales pt_clust_5="13000.00000" pt_clust_6="13000.00000" pt_clust_7="13000.00000" pt_clust_8="13000.00000" pt_clust_9="29.71561"></scales>
<clustering>
<clus scale="   29.716">  2  9  1 -1</clus>
<clus scale="   80.690">  5  6 -1 -1</clus>
<clus scale="   91.281">  7  8 -1 -1</clus>
<clus scale="  126.565">  1  5  2 -1</clus>
<clus scale="   29.716">  2  5  1 -1</clus>
</clustering>
</event>
<event>
 9    2  0.6175212E-005  0.1225752E+03  0.7546771E-02  0.1245750E+00
          2   -1    0    0  502    0 -0.00000000000E+00  0.00000000000E+00  0.16434206296E+04  0.16434206296E+04  0.00000000000E+00 0. -1.
         21   -1    0    0  501  502  0.00000000000E+00 -0.00000000000E+00 -0.25583872544E+02  0.25583872544E+02  0.00000000000E+00 0. -1.
         24    2    1    2    0    0  0.11605450764E+01 -0.55756035479E+02  0.90174869348E+03  0.90738373083E+03  0.84169153627E+02 0.  0.
         23    2    1    2    0    0 -0.28155181614E+02  0.86884046507E+02  0.70576981717E+03  0.71914572358E+03  0.10352770221E+03 0.  0.
        -11    1    3    3    0    0 -0.18325605367E+02  0.14342936178E+02  0.11852372257E+03  0.12078667328E+03  0.00000000000E+00 0.  1.
         12    1    3    3    0    0  0.19486150443E+02 -0.70098971657E+02  0.78322497091E+03  0.78659705755E+03  0.00000000000E+00 0. -1.
        -11    1    4    4    0    0  0.14849429188E+02 -0.14746132131E+02  0.50758523921E+02  0.54903385239E+02  0.00000000000E+00 0.  1.
         11    1    4    4    0    0 -0.43004610802E+02  0.10163017864E+03  0.65501129325E+03  0.66424233834E+03  0.00000000000E+00 0. -1.
          1    1    1    2  501    0  0.26994636538E+02 -0.31128011028E+02  0.10318246422E+02  0.42475047753E+02  0.00000000000E+00 0. -1.
<scales pt_clust_5="13000.00000" pt_clust_6="13000.00000" pt_clust_7="13000.00000" pt_clust_8="13000.00000" pt_clust_9="41.20271"></scales>
<clustering>
<clus scale="   41.203">  2  9  1 -1</clus>
<clus scale="   84.169">  5  6 -1 -1</clus>
<clus scale="  103.528">  7  8 -1 -1</clus>
<clus scale="  106.729">  1  5  2 -1</clus>
<clus scale="   41.203">  2  5  1 -1</clus>
</clustering>
</event>
<event>
 9    2  0.6175212E-005  0.9483080E+02  0.7546771E-02  0.1298629E+00
          2   -1    0    0  502    0 -0.00000000000E+00  0.00000000000E+00  0.27381954080E+03  0.27381954080E+03  0.00000000000E+00 0. -1.
         21   -1    0    0  501  502  0.00000000000E+00 -0.00000000000E+00 -0.81039902264E+02  0.81039902264E+02  0.00000000000E+00 0.  1.
         24    2    1    2    0    0 -0.15646125668E+02  0.88243919067E+01  0.16915479205E+03  0.18826501455E+03  0.80670322229E+02 0.  0.
         23    2    1    2    0    0 -0.11931815711E+02 -0.56971300421E+02  0.15846652607E+02  0.11056615038E+03  0.92658836130E+02 0.  0.
        -11    1    3    3    0    0  0.32482485682E+02  0.12239163445E+01  0.85272928937E+02  0.91258327055E+02  0.00000000000E+00 0.  1.
         12    1    3    3    0    0 -0.48128611350E+02  0.76004755622E+01  0.83881863117E+02  0.97006687497E+02  0.00000000000E+00 0. -1.
        -13    1    4    4    0    0 -0.45305298921E+02 -0.57460346593E+02  0.22455847141E+02  0.76541012612E+02  0.00000000000E+00 0.  1.
         13    1    4    4    0    0  0.33373483210E+02  0.48904617111E+00 -0.66091945341E+01  0.34025137768E+02  0.00000000000E+00 0. -1.
          1    1    1    2  501    0  0.27577941379E+02  0.48146908515E+02  0.77781938713E+01  0.56028278129E+02  0.00000000000E+00 0. -1.
<scales pt_clust_5="13000.00000" pt_clust_6="13000.00000" pt_clust_7="13000.00000" pt_clust_8="13000.00000" pt_clust_9="55.48574"></scales>
<clustering>
<clus scale="   55.486">  2  9  1 -1</clus>
<clus scale="   80.670">  5  6 -1 -1</clus>
<clus scale="   83.156">  1  5  2 -1</clus>
<clus scale="   92.659">  7  8 -1 -1</clus>
<clus scale="   55.486">  2  5  1 -1</clus>
</clustering>
</event>
<event>
 9    2  0.6175212E-005  0.9847232E+02  0.7546771E-02  0.1291585E+00
          2   -1    0    0  502    0 -0.00000000000E+00  0.00000000000E+00  0.37867272530E+03  0.37867272530E+03  0.00000000000E+00 0. -1.
         21   -1    0    0  501  502  0.00000000000E+00 -0.00000000000E+00 -0.64796213797E+02  0.64796213797E+02  0.00000000000E+00 0.  1.
         24    2    1    2    0    0 -0.24436764809E+02  0.10284091681E+02  0.29824422787E+03  0.31002981548E+03  0.80411124904E+02 0.  0.
         23    2    1    2    0    0  0.33298083536E+02  0.16208365907E+02  0.84031000031E+00  0.10182938205E+03  0.94852746056E+02 0.  0.
        -11    1    3    3    0    0 -0.84613052098E+01  0.22173240812E+02  0.19893617667E+02  0.30967762558E+02  0.00000000000E+00 0.  1.
         12    1    3    3    0    0 -0.15975459600E+02 -0.11889149131E+02  0.27835061021E+03  0.27906205292E+03  0.00000000000E+00 0. -1.
        -13    1    4    4    0    0 -0.41923403458E+01 -0.35235535049E+02 -0.10857682812E+02  0.37108057397E+02  0.00000000000E+00 0.  1.
         13    1    4    4    0    0  0.37490423882E+02  0.51443900956E+02  0.11697992812E+02  0.64721324648E+02  0.00000000000E+00 0. -1.
          1    1    1    2  501    0 -0.88613187264E+01 -0.26492457588E+02  0.14791973629E+02  0.31609741576E+02  0.00000000000E+00 0. -1.
<scales pt_clust_5="13000.00000" pt_clust_6="13000.00000" pt_clust_7="13000.00000" pt_clust_8="13000.00000" pt_clust_9="27.93516"></scales>
<clustering>
<clus scale="   27.935">  2  9  1 -1</clus>
<clus scale="   80.411">  5  6 -1 -1</clus>
<clus scale="   84.650">  1  5  2 -1</clus>
<clus scale="   94.853">  7  8 -1 -1</clus>
<clus scale="   27.935">  2  5  1 -1</clus>
</clustering>
</event>
<event>
 9    2  0.6175212E-005  0.1367405E+03  0.7546771E-02  0.1231379E+00
          2   -1    0    0  502    0 -0.00000000000E+00  0.00000000000E+00  0.13337480953E+04  0.13337480953E+04  0.00000000000E+00 0. -1.
         21   -1    0    0  501  502  0.00000000000E+00 -0.00000000000E+00 -0.28786544890E+02  0.28786544890E+02  0.00000000000E+00 0. -1.
         23    2    1    2    0    0  0.36619598466E+02 -0.32190484148E+02  0.48274929327E+03  0.49361667891E+03  0.90737661895E+02 0.  0.
         24    2    1    2    0    0 -0.10932507275E+03 -0.40991210988E+02  0.25029900113E+03  0.28777562166E+03  0.80826774928E+02 0.  0.
        -13    1    4    4    0    0 -0.31428040372E+02 -0.44874328287E+02  0.15635455398E+03  0.16567490339E+03  0.00000000000E+00 0.  1.
         14    1    4    4    0    0 -0.77897032379E+02  0.38831172997E+01  0.93944447149E+02  0.12210071828E+03  0.00000000000E+00 0. -1.
        -11    1    3    3    0    0  0.65946214523E+02 -0.14181173801E+02  0.28327242014E+03  0.29119284489E+03  0.00000000000E+00 0. -1.
         11    1    3    3    0    0 -0.29326616057E+02 -0.18009310347E+02  0.19947687313E+03  0.20242383402E+03  0.00000000000E+00 0.  1.
          1    1    1    2  501    0  0.72705474285E+02  0.73181695136E+02  0.57191325597E+03  0.58114233957E+03  0.00000000000E+00 0. -1.
<scales pt_clust_5="13000.00000" pt_clust_6="13000.00000" pt_clust_7="13000.00000" pt_clust_8="13000.00000" pt_clust_9="110.29513"></scales>
<clustering>
<clus scale="   80.827">  5  6 -1 -1</clus>
<clus scale="   90.738">  7  8 -1 -1</clus>
<clus scale="  103.008">  1  7  2 -1</clus>
<clus scale="  110.295">  2  9  1 -1</clus>
<clus scale="  110.295">  2  5  1 -1</clus>
</clustering>
</event>
<event>
 9    2  0.6175212E-005  0.1672862E+03  0.7546771E-02  0.1198537E+00
         21   -1    0    0  501  502  0.00000000000E+00  0.00000000000E+00  0.90582366362E+02  0.90582366362E+02  0.00000000000E+00 0.  1.
          2   -1    0    0  502    0 -0.00000000000E+00 -0.00000000000E+00 -0.65368923420E+03  0.65368923420E+03  0.00000000000E+00 0. -1.
         24    2    1    2    0    0 -0.64708000229E+02  0.43519152524E+02 -0.33372241655E+03  0.35226668621E+03  0.81486961983E+02 0.  0.
         23    2    1    2    0    0  0.15042531682E+03  0.55229591986E+02 -0.10776503261E+03  0.21342704365E+03  0.90882984846E+02 0.  0.
        -11    1    3    3    0    0 -0.36178531063E+02  0.45950477786E+01 -0.38137751805E+02  0.52768254535E+02  0.00000000000E+00 0.  1.
         12    1    3    3    0    0 -0.28529469166E+02  0.38924104745E+02 -0.29558466475E+03  0.29949843167E+03  0.00000000000E+00 0. -1.
        -11    1    4    4    0    0  0.13063779082E+03  0.69040773023E+02 -0.59162207565E+02  0.15916352451E+03  0.00000000000E+00 0.  1.
         11    1    4    4    0    0  0.19787526005E+02 -0.13811181037E+02 -0.48602825049E+02  0.54263519143E+02  0.00000000000E+00 0. -1.
          1    1    1    2  501    0 -0.85717316595E+02 -0.98748744510E+02 -0.12161941867E+03  0.17857787070E+03  0.00000000000E+00 0. -1.
<scales pt_clust_5="13000.00000" pt_clust_6="13000.00000" pt_clust_7="13000.00000" pt_clust_8="13000.00000" pt_clust_9="140.44568"></scales>
<clustering>
<clus scale="   81.487">  5  6 -1 -1</clus>
<clus scale="   90.883">  7  8 -1 -1</clus>
<clus scale="  112.788">  2  5  1 -1</clus>
<clus scale="  140.446">  1  9  2 -1</clus>
<clus scale="  140.446">  1  5  2 -1</clus>
</clustering>
</event>
<event>
 9    2  0.6175212E-005  0.9225481E+02  0.7546771E-02  0.1304897E+00
          2   -1    0    0  502    0 -0.00000000000E+00  0.00000000000E+00  0.92984016994E+03  0.92984016994E+03  0.00000000000E+00 0. -1.
         21   -1    0    0  501  502  0.00000000000E+00 -0.00000000000E+00 -0.12358070530E+02  0.12358070530E+02  0.00000000000E+00 0. -1.
         24    2    1    2    0    0 -0.71997992923E-01  0.18662865502E+02  0.55114639822E+03  0.55713904907E+03  0.79330069912E+02 0.  0.
         23    2    1    2    0    0  0.15517666772E+02  0.71430379535E+00  0.30978895157E+03  0.32332121065E+03  0.91247479602E+02 0.  0.
        -13    1    3    3    0    0 -0.32693260682E+02 -0.18223007613E+01  0.12369547256E+03  0.12795600809E+03  0.00000000000E+00 0.  1.
         14    1    3    3    0    0  0.32621262689E+02  0.20485166264E+02  0.42745092566E+03  0.42918304098E+03  0.00000000000E+00 0. -1.
        -11    1    4    4    0    0 -0.79546437775E+01 -0.41427721111E+02  0.17946848531E+03  0.18435962045E+03  0.00000000000E+00 0.  1.
         11    1    4    4    0    0  0.23472310550E+02  0.42142024906E+02  0.13032046626E+03  0.13896159020E+03  0.00000000000E+00 0. -1.
          1    1    1    2  501    0 -0.15445668779E+02 -0.19377169298E+02  0.56546749626E+02  0.61737980752E+02  0.00000000000E+00 0. -1.
<scales pt_clust_5="13000.00000" pt_clust_6="13000.00000" pt_clust_7="13000.00000" pt_clust_8="13000.00000" pt_clust_9="24.77990"></scales>
<clustering>
<clus scale="   24.780">  2  9  1 -1</clus>
<clus scale="   79.330">  5  6 -1 -1</clus>
<clus scale="   80.487">  1  5  2 -1</clus>
<clus scale="   91.247">  7  8 -1 -1</clus>
<clus scale="   24.780">  2  5  1 -1</clus>
</clustering>
</event>
<event>
 9    2  0.6175212E-005  0.1031232E+03  0.7546771E-02  0.1283852E+00
          2   -1    0    0  502    0 -0.00000000000E+00  0.00000000000E+00  0.84424315708E+03  0.84424315708E+03  0.00000000000E+00 0. -1.
         21   -1    0    0  501  502  0.00000000000E+00 -0.00000000000E+00 -0.76813727202E+02  0.76813727202E+02  0.00000000000E+00 0. -1.
         24    2    1    2    0    0  0.42255201112E+02  0.84053397976E+00  0.74206737242E+03  0.74707232415E+03  0.75278574609E+02 0.  0.
         23    2    1    2    0    0 -0.53791718936E+01  0.46399595979E+02  0.38390503267E+02  0.11265584084E+03  0.95056034724E+02 0.  0.
        -13    1    3    3    0    0  0.40281402353E+02 -0.19399903713E+02  0.21434620053E+03  0.21895945132E+03  0.00000000000E+00 0.  1.
         14    1    3    3    0    0  0.19737987592E+01  0.20240437693E+02  0.52772117189E+03  0.52811287284E+03  0.00000000000E+00 0. -1.
        -11    1    4    4    0    0  0.58607664176E+01  0.22359938670E+02  0.68632933216E+02  0.72420956650E+02  0.00000000000E+00 0. -1.
         11    1    4    4    0    0 -0.11239938311E+02  0.24039657309E+02 -0.30242429948E+02  0.40234884192E+02  0.00000000000E+00 0.  1.
          1    1    1    2  501    0 -0.36876029219E+02 -0.47240129959E+02 -0.13028445802E+02  0.61328719288E+02  0.00000000000E+00 0. -1.
<scales pt_clust_5="13000.00000" pt_clust_6="13000.00000" pt_clust_7="13000.00000" pt_clust_8="13000.00000" pt_clust_9="59.92889"></scales>
<clustering>
<clus scale="   59.929">  2  9  1 -1</clus>
<clus scale="   75.279">  5  6 -1 -1</clus>
<clus scale="   85.239">  1  5  2 -1</clus>
<clus scale="   95.056">  7  8 -1 -1</clus>
<clus scale="   59.929">  2  5  1 -1</clus>
</clustering>
</event>
<event>
 9    2  0.6175212E-005  0.3704799E+03  0.7546771E-02  0.1054782E+00
         21   -1    0    0  501  502  0.00000000000E+00  0.00000000000E+00  0.32789762183E+03  0.32789762183E+03  0.00000000000E+00 0.  1.
          2   -1    0    0  502    0 -0.00000000000E+00 -0.00000000000E+00 -0.98115096971E+03  0.98115096971E+03  0.00000000000E+00 0. -1.
         23    2    1    2    0    0 -0.28385165472E+03 -0.22438588757E+03 -0.82021727471E+03  0.90107502606E+03  0.90879240964E+02 0.  0.
         24    2    1    2    0    0  0.27182604257E+03  0.20618888222E+03  0.16113096793E+03  0.38539548407E+03  0.78506291079E+02 0.  0.
        -13    1    4    4    0    0  0.17368807703E+03  0.89227696183E+02  0.11146471055E+03  0.22484108069E+03  0.00000000000E+00 0.  1.
         14    1    4    4    0    0  0.98137965543E+02  0.11696118604E+03  0.49666257381E+02  0.16055440338E+03  0.00000000000E+00 0. -1.
        -13    1    3    3    0    0 -0.91981498618E+02 -0.12647423477E+03 -0.38218541315E+03  0.41294311736E+03  0.00000000000E+00 0.  1.
         13    1    3    3    0    0 -0.19187015610E+03 -0.97911652794E+02 -0.43803186156E+03  0.48813190870E+03  0.00000000000E+00 0. -1.
          1    1    1    2  501    0  0.12025612142E+02  0.18197005342E+02  0.58329589070E+01  0.22578081416E+02  0.00000000000E+00 0. -1.
<scales pt_clust_5="13000.00000" pt_clust_6="13000.00000" pt_clust_7="13000.00000" pt_clust_8="13000.00000" pt_clust_9="21.81161"></scales>
<clustering>
<clus scale="   21.812">  1  9  2 -1</clus>
<clus scale="   78.506">  5  6 -1 -1</clus>
<clus scale="   90.879">  7  8 -1 -1</clus>
<clus scale="  367.641">  1  5  2 -1</clus>
<clus scale="   21.812">  1  5  2 -1</clus>
</clustering>
</event>
<event>
 9    2  0.6175212E-005  0.1266628E+03  0.7546771E-02  0.1247492E+00
          2   -1    0    0  502    0 -0.00000000000E+00  0.00000000000E+00  0.87811248339E+03  0.87811248339E+03  0.00000000000E+00 0. -1.
         21   -1    0    0  501  502  0.00000000000E+00 -0.00000000000E+00 -0.22897201369E+02  0.22897201369E+02  0.00000000000E+00 0.  1.
         24    2    1    2    0    0  0.15528064649E+02 -0.39274479348E+02  0.29630295478E+03  0.31031080884E+03  0.81937485638E+02 0.  0.
         23    2    1    2    0    0  0.34234740376E+02  0.54839593180E+02  0.34334916837E+03  0.36891951485E+03  0.11846332170E+03 0.  0.
        -11    1    3    3    0    0  0.40399393804E+02  0.53902752232E+01  0.14399743164E+03  0.14965435645E+03  0.00000000000E+00 0.  1.
         12    1    3    3    0    0 -0.24871329155E+02 -0.44664754571E+02  0.15230552314E+03  0.16065645239E+03  0.00000000000E+00 0. -1.
        -11    1    4    4    0    0 -0.50935280281E+01  0.81537695361E+02  0.26471156159E+03  0.27703167803E+03  0.00000000000E+00 0.  1.
         11    1    4    4    0    0  0.39328268404E+02 -0.26698102181E+02  0.78637606783E+02  0.91887836825E+02  0.00000000000E+00 0. -1.
          1    1    1    2  501    0 -0.49762805026E+02 -0.15565113832E+02  0.21556315887E+03  0.22177936106E+03  0.00000000000E+00 0. -1.
<scales pt_clust_5="13000.00000" pt_clust_6="13000.00000" pt_clust_7="13000.00000" pt_clust_8="13000.00000" pt_clust_9="52.14031"></scales>
<clustering>
<clus scale="   52.140">  2  9  1 -1</clus>
<clus scale="   81.937">  5  6 -1 -1</clus>
<clus scale="   93.400">  1  5  2 -1</clus>
<clus scale="  118.463">  7  8 -1 -1</clus>
<clus scale="   52.140">  2  5  1 -1</clus>
</clustering>
</event>
<event>
 9    2  0.6175212E-005  0.2595772E+03  0.7546771E-02  0.1108576E+00
          2   -1    0    0  502    0 -0.00000000000E+00  0.00000000000E+00  0.71398622357E+03  0.71398622357E+03  0.00000000000E+00 0. -1.
         21   -1    0    0  501  502  0.00000000000E+00 -0.00000000000E+00 -0.17980699047E+03  0.17980699047E+03  0.00000000000E+00 0. -1.
         24    2    1    2    0    0  0.23931163881E+03  0.40667084818E+02  0.56486113689E+03  0.62003712028E+03  0.80337129018E+02 0.  0.
         23    2    1    2    0    0 -0.21752444421E+03 -0.21823642692E+02 -0.37601647037E+02  0.24413110420E+03  0.10194585311E+03 0.  0.
        -11    1    3    3    0    0  0.64954073095E+02  0.48645329231E+02  0.17989831079E+03  0.19735450817E+03  0.00000000000E+00 0.  1.
         12    1    3    3    0    0  0.17435756572E+03 -0.79782444134E+01  0.38496282610E+03  0.42268261212E+03  0.00000000000E+00 0. -1.
        -11    1    4    4    0    0 -0.13557687709E+03 -0.62842713690E+02 -0.27401147605E+02  0.15192471542E+03  0.00000000000E+00 0.  1.
         11    1    4    4    0    0 -0.81947567116E+02  0.41019070998E+02 -0.10200499431E+02  0.92206388772E+02  0.00000000000E+00 0. -1.
          1    1    1    2  501    0 -0.21787194602E+02 -0.18843442125E+02  0.69197432430E+01  0.29624989558E+02  0.00000000000E+00 0. -1.
<scales pt_clust_5="13000.00000" pt_clust_6="13000.00000" pt_clust_7="13000.00000" pt_clust_8="13000.00000" pt_clust_9="28.80551"></scales>
<clustering>
<clus scale="   28.806">  2  9  1 -1</clus>
<clus scale="   80.337">  5  6 -1 -1</clus>
<clus scale="  101.946">  7  8 -1 -1</clus>
<clus scale="  251.876">  1  5  2 -1</clus>
<clus scale="   28.806">  2  5  1 -1</clus>
</clustering>
</event>
<event>
 9    2  0.6175212E-005  0.1228162E+03  0.7546771E-02  0.1241427E+00
          2   -1    0    0  502    0 -0.00000000000E+00  0.00000000000E+00  0.55110778871E+03  0.55110778871E+03  0.00000000000E+00 0. -1.
         21   -1    0    0  501  502  0.00000000000E+00 -0.00000000000E+00 -0.43435700786E+02  0.43435700786E+02  0.00000000000E+00 0. -1.
         23    2    1    2    0    0  0.29144364087E+02 -0.56676191938E+02  0.17306266849E+03  0.20545870719E+03  0.90559419423E+02 0.  0.
         24    2    1    2    0    0 -0.69138564096E+02  0.87423559805E+02  0.18090777177E+03  0.22731601783E+03  0.80758468410E+02 0.  0.
        -11    1    4    4    0    0  0.14289126801E+02  0.30900403042E+02  0.67535645174E+02  0.75631193445E+02  0.00000000000E+00 0.  1.
         12    1    4    4    0    0 -0.83427690897E+02  0.56523156763E+02  0.11337212659E+03  0.15168482438E+03  0.00000000000E+00 0. -1.
        -11    1    3    3    0    0  0.58423318067E+02 -0.32210310082E+02  0.75787054459E+02  0.10096764726E+03  0.00000000000E+00 0.  1.
         11    1    3    3    0    0 -0.29278953980E+02 -0.24465881856E+02  0.97275614026E+02  0.10449105993E+03  0.00000000000E+00 0. -1.
          1    1    1    2  501    0  0.39994200009E+02 -0.30747367867E+02  0.15370164767E+03  0.16176876448E+03  0.00000000000E+00 0. -1.
<scales pt_clust_5="13000.00000" pt_clust_6="13000.00000" pt_clust_7="13000.00000" pt_clust_8="13000.00000" pt_clust_9="50.44739"></scales>
<clustering>
<clus scale="   50.447">  2  9  1 -1</clus>
<clus scale="   80.758">  5  6 -1 -1</clus>
<clus scale="   90.559">  7  8 -1 -1</clus>
<clus scale="  115.779">  2  5  1 -1</clus>
<clus scale="   50.447">  2  5  1 -1</clus>
</clustering>
</event>
<event>
 9    2  0.6305332E-005  0.1474218E+03  0.7546771E-02  0.1227420E+00
         21   -1    0    0  501  502  0.00000000000E+00  0.00000000000E+00  0.17109666859E+03  0.17109666859E+03  0.00000000000E+00 0. -1.
          2   -1    0    0  502    0 -0.00000000000E+00 -0.00000000000E+00 -0.10096112877E+04  0.10096112877E+04  0.00000000000E+00 0. -1.
         24    2    1    2    0    0 -0.25091565508E+01 -0.36827208109E+02 -0.73663197545E+03  0.74201419582E+03  0.81214902700E+02 0.  0.
         23    2    1    2    0    0 -0.65376568315E+02 -0.61165735579E+02 -0.23053549713E+03  0.26330092894E+03  0.90362718266E+02 0.  0.
        -13    1    3    3    0    0 -0.27592788908E+02 -0.27074353268E+02 -0.15458124226E+03  0.15934159239E+03  0.00000000000E+00 0.  1.
         14    1    3    3    0    0  0.25083632357E+02 -0.97528548409E+01 -0.58205073319E+03  0.58267260343E+03  0.00000000000E+00 0. -1.
        -13    1    4    4    0    0 -0.51907787685E+02 -0.11478747819E+01 -0.48106750865E+02  0.70781321813E+02  0.00000000000E+00 0.  1.
         13    1    4    4    0    0 -0.13468780631E+02 -0.60017860797E+02 -0.18242874626E+03  0.19251960713E+03  0.00000000000E+00 0. -1.
          1    1    1    2  501    0  0.67885724866E+02  0.97992943688E+02  0.12865285345E+03  0.17539283154E+03  0.00000000000E+00 0. -1.
<scales pt_clust_5="13000.00000" pt_clust_6="13000.00000" pt_clust_7="13000.00000" pt_clust_8="13000.00000" pt_clust_9="116.48073"></scales>
<clustering>
<clus scale="   81.215">  5  6 -1 -1</clus>
<clus scale="   89.210">  2  5  1 -1</clus>
<clus scale="   90.363">  7  8 -1 -1</clus>
<clus scale="  116.481">  1  9  2 -1</clus>
<clus scale="  116.481">  1  5  2 -1</clus>
</clustering>
</event>
<event>
 9    2  0.6175212E-005  0.1020695E+03  0.7546771E-02  0.1278791E+00
         21   -1    0    0  501  502  0.00000000000E+00  0.00000000000E+00  0.32891539965E+02  0.32891539965E+02  0.00000000000E+00 0.  1.
          2   -1    0    0  502    0 -0.00000000000E+00 -0.00000000000E+00 -0.47158715085E+03  0.47158715085E+03  0.00000000000E+00 0. -1.
         23    2    1    2    0    0 -0.55503762444E+01  0.44632225766E+02 -0.15097019529E+03  0.18152630653E+03  0.90205087668E+02 0.  0.
         24    2    1    2    0    0 -0.14645478951E+02 -0.50866912768E+02 -0.12922466948E+03  0.16304856817E+03  0.84165833408E+02 0.  0.
        -13    1    4    4    0    0 -0.28864023784E+02 -0.55891536024E+02 -0.13332600684E+03  0.14742055409E+03  0.00000000000E+00 0.  1.
         14    1    4    4    0    0  0.14218544833E+02  0.50246232552E+01  0.41013373626E+01  0.15628014083E+02  0.00000000000E+00 0. -1.
        -11    1    3    3    0    0  0.33752829162E+02 -0.18510250444E+01 -0.26443720387E+02  0.42917946340E+02  0.00000000000E+00 0.  1.
         11    1    3    3    0    0 -0.39303205406E+02  0.46483250810E+02 -0.12452647491E+03  0.13860836019E+03  0.00000000000E+00 0. -1.
          1    1    1    2  501    0  0.20195855196E+02  0.62346870027E+01 -0.15850074612E+03  0.15990381612E+03  0.00000000000E+00 0. -1.
<scales pt_clust_5="13000.00000" pt_clust_6="13000.00000" pt_clust_7="13000.00000" pt_clust_8="13000.00000" pt_clust_9="21.13633"></scales>
<clustering>
<clus scale="   21.136">  1  9  2 -1</clus>
<clus scale="   84.166">  5  6 -1 -1</clus>
<clus scale="   90.205">  7  8 -1 -1</clus>
<clus scale="   96.773">  1  5  2 -1</clus>
<clus scale="   21.136">  1  5  2 -1</clus>
</clustering>
</event>
<event>
 9    2  0.6175212E-005  0.1064445E+03  0.7546771E-02  0.1269407E+00
         21   -1    0    0  501  502  0.00000000000E+00  0.00000000000E+00  0.21039526438E+03  0.21039526438E+03  0.00000000000E+00 0.  1.
          2   -1    0    0  502    0 -0.00000000000E+00 -0.00000000000E+00 -0.37398773985E+03  0.37398773985E+03  0.00000000000E+00 0. -1.
         23    2    1    2    0    0  0.45743767688E+02 -0.37731392471E+02 -0.33027364397E+03  0.34674172347E+03  0.87366999676E+02 0.  0.
         24    2    1    2    0    0 -0.77495386867E+02  0.31144244444E+02  0.71832181468E+02  0.13740213581E+03  0.82121773495E+02 0.  0.
        -11    1    4    4    0    0 -0.92415748266E+02  0.18880206648E+02  0.45443699368E+02  0.10470082398E+03  0.00000000000E+00 0.  1.
         12    1    4    4    0    0  0.14920361399E+02  0.12264037796E+02  0.26388482100E+02  0.32701311822E+02  0.00000000000E+00 0. -1.
        -11    1    3    3    0    0  0.13827768780E+02 -0.51033061908E+02 -0.28452621892E+03  0.28939721811E+03  0.00000000000E+00 0. -1.
         11    1    3    3    0    0  0.31915998908E+02  0.13301669437E+02 -0.45747425054E+02  0.57344505362E+02  0.00000000000E+00 0.  1.
          1    1    1    2  501    0  0.31751619179E+02  0.65871480264E+01  0.94848987033E+02  0.10023914495E+03  0.00000000000E+00 0. -1.
<scales pt_clust_5="13000.00000" pt_clust_6="13000.00000" pt_clust_7="13000.00000" pt_clust_8="13000.00000" pt_clust_9="32.42770"></scales>
<clustering>
<clus scale="   32.428">  1  9  2 -1</clus>
<clus scale="   82.122">  5  6 -1 -1</clus>
<clus scale="   87.367">  7  8 -1 -1</clus>
<clus scale="  102.183">  1  5  2 -1</clus>
<clus scale="   32.428">  1  5  2 -1</clus>
</clustering>
</event>
<event>
 9    2  0.6175212E-005  0.1104449E+03  0.7546771E-02  0.1263548E+00
          2   -1    0    0  502    0 -0.00000000000E+00  0.00000000000E+00  0.13548472132E+03  0.13548472132E+03  0.00000000000E+00 0. -1.
         21   -1    0    0  501  502  0.00000000000E+00 -0.00000000000E+00 -0.28832667969E+03  0.28832667969E+03  0.00000000000E+00 0.  1.
         24    2    1    2    0    0 -0.25732547745E+02 -0.56025815084E+02  0.64150024883E+02  0.11990904706E+03  0.80385931015E+02 0.  0.
         23    2    1    2    0    0  0.74812546138E+02  0.52154514916E+02 -0.21987838074E+03  0.25458537414E+03  0.90278457715E+02 0.  0.
        -11    1    3    3    0    0 -0.43987211597E+02 -0.20887188368E+02  0.63864246945E+02  0.80310593696E+02  0.00000000000E+00 0.  1.
         12    1    3    3    0    0  0.18254663852E+02 -0.35138626716E+02  0.28577793779E+00  0.39598453364E+02  0.00000000000E+00 0. -1.
        -13    1    4    4    0    0  0.69072768332E+02 -0.17579158189E+01 -0.87196106525E+02  0.11125330820E+03  0.00000000000E+00 0. -1.
         13    1    4    4    0    0  0.57397778053E+01  0.53912430734E+02 -0.13268227421E+03  0.14333206594E+03  0.00000000000E+00 0.  1.
          1    1    1    2  501    0 -0.49079998393E+02  0.38713001684E+01  0.28863974841E+01  0.49316979811E+02  0.00000000000E+00 0. -1.
<scales pt_clust_5="13000.00000" pt_clust_6="13000.00000" pt_clust_7="13000.00000" pt_clust_8="13000.00000" pt_clust_9="49.23247"></scales>
<clustering>
<clus scale="   49.232">  2  9  1 -1</clus>
<clus scale="   80.386">  5  6 -1 -1</clus>
<clus scale="   90.278">  7  8 -1 -1</clus>
<clus scale="  102.517">  1  5  2 -1</clus>
<clus scale="   49.232">  2  5  1 -1</clus>
</clustering>
</event>
<event>
 9    2  0.6175212E-005  0.9638856E+02  0.7546771E-02  0.1297307E+00
         21   -1    0    0  501  502  0.00000000000E+00  0.00000000000E+00  0.70448157169E+02  0.70448157169E+02  0.00000000000E+00 0. -1.
          2   -1    0    0  502    0 -0.00000000000E+00 -0.00000000000E+00 -0.22880748178E+03  0.22880748178E+03  0.00000000000E+00 0. -1.
         24    2    1    2    0    0  0.17460219243E+02  0.27223259967E+01 -0.11050145066E+03  0.13674495551E+03  0.78589706349E+02 0.  0.
         23    2    1    2    0    0 -0.60334153011E+01 -0.41278400168E+02 -0.61532528636E+02  0.12003552735E+03  0.94244189870E+02 0.  0.
        -11    1    3    3    0    0  0.42941798693E+01  0.32384544079E+02 -0.15127009129E+02  0.36000348348E+02  0.00000000000E+00 0.  1.
         12    1    3    3    0    0  0.13166039374E+02 -0.29662218082E+02 -0.95374441535E+02  0.10074460716E+03  0.00000000000E+00 0. -1.
        -11    1    4    4    0    0 -0.29862794481E+02  0.61889410163E+01  0.89481255007E+01  0.31782989713E+02  0.00000000000E+00 0.  1.
         11    1    4    4    0    0  0.23829379180E+02 -0.47467341184E+02 -0.70480654136E+02  0.88252537633E+02  0.00000000000E+00 0. -1.
          1    1    1    2  501    0 -0.11426803942E+02  0.38556074171E+02  0.13674654693E+02  0.42475156089E+02  0.00000000000E+00 0. -1.
<scales pt_clust_5="13000.00000" pt_clust_6="13000.00000" pt_clust_7="13000.00000" pt_clust_8="13000.00000" pt_clust_9="40.21371"></scales>
<clustering>
<clus scale="   40.214">  1  9  2 -1</clus>
<clus scale="   78.590">  5  6 -1 -1</clus>
<clus scale="   81.149">  2  5  1 -1</clus>
<clus scale="   94.244">  7  8 -1 -1</clus>
<clus scale="   40.214">  1  5  2 -1</clus>
</clustering>
</event>
<event>
 9    2  0.6175212E-005  0.1248618E+03  0.7546771E-02  0.1240014E+00
         21   -1    0    0  501  502  0.00000000000E+00  0.00000000000E+00  0.58667636136E+03  0.58667636136E+03  0.00000000000E+00 0. -1.
          2   -1    0    0  502    0 -0.00000000000E+00 -0.00000000000E+00 -0.10513253550E+03  0.10513253550E+03  0.00000000000E+00 0. -1.
         23    2    1    2    0    0 -0.82699698206E+02 -0.14950817932E+02 -0.42859623868E+02  0.13443578770E+03  0.95777171682E+02 0.  0.
         24    2    1    2    0    0  0.41996597574E+02 -0.17795333336E+02  0.48005159003E+03  0.48884471882E+03  0.80244887242E+02 0.  0.
        -11    1    4    4    0    0  0.38590381282E+02  0.85787852718E+01  0.95285743420E+02  0.10316097122E+03  0.00000000000E+00 0.  1.
         12    1    4    4    0    0  0.34062162919E+01 -0.26374118608E+02  0.38476584661E+03  0.38568374760E+03  0.00000000000E+00 0. -1.
        -11    1    3    3    0    0 -0.20634969844E+02  0.16117632864E+02  0.25834034917E+02  0.36782841512E+02  0.00000000000E+00 0.  1.
         11    1    3    3    0    0 -0.62064728362E+02 -0.31068450796E+02 -0.68693658784E+02  0.97652946185E+02  0.00000000000E+00 0. -1.
          1    1    1    2  501    0  0.40703100632E+02  0.32746151268E+02  0.44351859706E+02  0.68528390345E+02  0.00000000000E+00 0. -1.
<scales pt_clust_5="13000.00000" pt_clust_6="13000.00000" pt_clust_7="13000.00000" pt_clust_8="13000.00000" pt_clust_9="52.24036"></scales>
<clustering>
<clus scale="   52.240">  1  9  2 -1</clus>
<clus scale="   80.245">  5  6 -1 -1</clus>
<clus scale="   95.777">  7  8 -1 -1</clus>
<clus scale="  113.386">  1  5  2 -1</clus>
<clus scale="   52.240">  1  5  2 -1</clus>
</clustering>
</event>
<event>
 9    2  0.6175212E-005  0.1204605E+03  0.7546771E-02  0.1246550E+00
         21   -1    0    0  501  502  0.00000000000E+00  0.00000000000E+00  0.43023987243E+02  0.43023987243E+02  0.00000000000E+00 0. -1.
          4   -1    0    0  502    0 -0.00000000000E+00 -0.00000000000E+00 -0.82931296137E+03  0.82931296137E+03  0.00000000000E+00 0. -1.
         24    2    1    2    0    0 -0.17652332324E+02 -0.77151857113E+02 -0.64253400930E+03  0.65245511714E+03  0.81140081845E+02 0.  0.
         23    2    1    2    0    0  0.53261279038E+02  0.41213845069E+02 -0.96545467443E+02  0.15068447286E+03  0.94071452671E+02 0.  0.
        -13    1    3    3    0    0 -0.39522112755E+01 -0.48075817357E+02 -0.12593932707E+03  0.13486147816E+03  0.00000000000E+00 0.  1.
         14    1    3    3    0    0 -0.13700121048E+02 -0.29076039757E+02 -0.51659468222E+03  0.51759363897E+03  0.00000000000E+00 0. -1.
        -13    1    4    4    0    0  0.64785297411E+02  0.32990625018E+01 -0.26230481094E+02  0.69971827991E+02  0.00000000000E+00 0. -1.
         13    1    4    4    0    0 -0.11524018374E+02  0.37914782568E+02 -0.70314986350E+02  0.80712644870E+02  0.00000000000E+00 0.  1.
          3    1    1    2  501    0 -0.35608946714E+02  0.35938012044E+02 -0.47209497388E+02  0.69197358616E+02  0.00000000000E+00 0. -1.
<scales pt_clust_5="13000.00000" pt_clust_6="13000.00000" pt_clust_7="13000.00000" pt_clust_8="13000.00000" pt_clust_9="50.59187"></scales>
<clustering>
<clus scale="   50.592">  1  9  2 -1</clus>
<clus scale="   81.140">  5  6 -1 -1</clus>
<clus scale="   94.071">  7  8 -1 -1</clus>
<clus scale="  110.657">  2  5  1 -1</clus>
<clus scale="   50.592">  1  5  2 -1</clus>
</clustering>
</event>
<event>
 9    2  0.6175212E-005  0.3407652E+03  0.7546771E-02  0.1086810E+00
          2   -1    0    0  502    0 -0.00000000000E+00  0.00000000000E+00  0.66132475460E+03  0.66132475460E+03  0.00000000000E+00 0. -1.
         21   -1    0    0  501  502  0.00000000000E+00 -0.00000000000E+00 -0.35507474410E+03  0.35507474410E+03  0.00000000000E+00 0. -1.
         24    2    1    2    0    0  0.13886607009E+03 -0.11340013500E+03  0.89492818572E+02  0.21575771836E+03  0.79994077362E+02 0.  0.
         23    2    1    2    0    0 -0.11057682655E+03  0.41073828136E+03  0.24647612461E+03  0.50048603820E+03  0.93822300584E+02 0.  0.
        -13    1    3    3    0    0  0.20066714428E+02  0.17030047055E+01 -0.10250844923E+02  0.22597634270E+02  0.00000000000E+00 0.  1.
         14    1    3    3    0    0  0.11879935566E+03 -0.11510313971E+03  0.99743663495E+02  0.19316008409E+03  0.00000000000E+00 0. -1.
        -13    1    4    4    0    0 -0.50846162685E+01  0.10870487610E+03  0.25819828301E+02  0.11184483423E+03  0.00000000000E+00 0.  1.
         13    1    4    4    0    0 -0.10549221028E+03  0.30203340526E+03  0.22065629630E+03  0.38864120397E+03  0.00000000000E+00 0. -1.
          1    1    1    2  501    0 -0.28289243540E+02 -0.29733814636E+03 -0.29718932675E+02  0.30015574214E+03  0.00000000000E+00 0. -1.
<scales pt_clust_5="13000.00000" pt_clust_6="13000.00000" pt_clust_7="13000.00000" pt_clust_8="13000.00000" pt_clust_9="327.59477"></scales>
<clustering>
<clus scale="   79.994">  5  6 -1 -1</clus>
<clus scale="   93.822">  7  8 -1 -1</clus>
<clus scale="  196.322">  1  5  2 -1</clus>
<clus scale="  327.595">  2  9  1 -1</clus>
<clus scale="  327.595">  2  5  1 -1</clus>
</clustering>
</event>
<event>
 9    2  0.6175212E-005  0.1258164E+03  0.7546771E-02  0.1236611E+00
          2   -1    0    0  502    0 -0.00000000000E+00  0.00000000000E+00  0.38862772494E+03  0.38862772494E+03  0.00000000000E+00 0. -1.
         21   -1    0    0  501  502  0.00000000000E+00 -0.00000000000E+00 -0.13611323438E+03  0.13611323438E+03  0.00000000000E+00 0. -1.
         24    2    1    2    0    0 -0.85975128453E+02  0.41512332639E+02  0.28376802883E+03  0.31016991144E+03  0.81031372350E+02 0.  0.
         23    2    1    2    0    0  0.55464531971E+02 -0.32252894011E+02  0.53835462261E+02  0.12370426785E+03  0.91038043743E+02 0.  0.
        -11    1    3    3    0    0 -0.42868774511E+02  0.48076452809E+01  0.36513433889E+02  0.56516158182E+02  0.00000000000E+00 0.  1.
         12    1    3    3    0    0 -0.43106353941E+02  0.36704687358E+02  0.24725459494E+03  0.25365375326E+03  0.00000000000E+00 0. -1.
        -11    1    4    4    0    0  0.78475389574E+02 -0.10709996604E+02  0.32338291817E+02  0.85550312178E+02  0.00000000000E+00 0.  1.
         11    1    4    4    0    0 -0.23010857604E+02 -0.21542897407E+02  0.21497170444E+02  0.38153955672E+02  0.00000000000E+00 0. -1.
          1    1    1    2  501    0  0.30510596482E+02 -0.92594386284E+01 -0.85089000530E+02  0.90866780028E+02  0.00000000000E+00 0. -1.
<scales pt_clust_5="13000.00000" pt_clust_6="13000.00000" pt_clust_7="13000.00000" pt_clust_8="13000.00000" pt_clust_9="31.88469"></scales>
<clustering>
<clus scale="   31.885">  2  9  1 -1</clus>
<clus scale="   81.031">  5  6 -1 -1</clus>
<clus scale="   91.038">  7  8 -1 -1</clus>
<clus scale="  118.777">  1  5  2 -1</clus>
<clus scale="   31.885">  2  5  1 -1</clus>
</clustering>
</event>
<event>
 9    2  0.6175212E-005  0.2200732E+03  0.7546771E-02  0.1133828E+00
         21   -1    0    0  501  502  0.00000000000E+00  0.00000000000E+00  0.95381402062E+02  0.95381402062E+02  0.00000000000E+00 0. -1.
          2   -1    0    0  502    0 -0.00000000000E+00 -0.00000000000E+00 -0.29089280553E+03  0.29089280553E+03  0.00000000000E+00 0. -1.
         24    2    1    2    0    0  0.54109090713E+02  0.88575623079E+01 -0.60462890373E+02  0.12467813770E+03  0.94247688565E+02 0.  0.
         23    2    1    2    0    0  0.40476156207E+02  0.49363693230E+02 -0.49118508063E+02  0.12116797692E+03  0.90520480368E+02 0.  0.
        -13    1    3    3    0    0 -0.24248629681E+02  0.66618815502E+00 -0.33596161570E+02  0.41438411171E+02  0.00000000000E+00 0.  1.
         14    1    3    3    0    0  0.78357720394E+02  0.81913741528E+01 -0.26866728803E+02  0.83239726528E+02  0.00000000000E+00 0. -1.
        -13    1    4    4    0    0 -0.15014463358E+02  0.45110199607E+02 -0.93190060392E+00  0.47552420099E+02  0.00000000000E+00 0. -1.
         13    1    4    4    0    0  0.55490619565E+02  0.42534936227E+01 -0.48186607459E+02  0.73615556822E+02  0.00000000000E+00 0.  1.
          1    1    1    2  501    0 -0.94585246920E+02 -0.58221255537E+02 -0.85930005029E+02  0.14042809297E+03  0.00000000000E+00 0. -1.
<scales pt_clust_5="13000.00000" pt_clust_6="13000.00000" pt_clust_7="13000.00000" pt_clust_8="13000.00000" pt_clust_9="111.06798"></scales>
<clustering>
<clus scale="   90.520">  7  8 -1 -1</clus>
<clus scale="   94.248">  5  6 -1 -1</clus>
<clus scale="  102.289">  5  7 -1 -1</clus>
<clus scale="  111.068">  1  9  2 -1</clus>
<clus scale="  111.068">  1  5  2 -1</clus>
</clustering>
</event>
<event>
 9    2  0.6175212E-005  0.9229671E+02  0.7546771E-02  0.1301314E+00
         21   -1    0    0  501  502  0.00000000000E+00  0.00000000000E+00  0.38137586570E+02  0.38137586570E+02  0.00000000000E+00 0.  1.
          2   -1    0    0  502    0 -0.00000000000E+00 -0.00000000000E+00 -0.59487853145E+03  0.59487853145E+03  0.00000000000E+00 0. -1.
         23    2    1    2    0    0  0.10352748552E+02  0.11021382520E+02 -0.45893120978E+03  0.46809669603E+03  0.90928605230E+02 0.  0.
         24    2    1    2    0    0 -0.26682931101E+02  0.52736171569E+01 -0.10798360526E+03  0.13970614155E+03  0.84365615820E+02 0.  0.
        -13    1    4    4    0    0 -0.14949875554E+02  0.42732815575E+02 -0.78476490129E+02  0.90598851036E+02  0.00000000000E+00 0.  1.
         14    1    4    4    0    0 -0.11733055547E+02 -0.37459198418E+02 -0.29507115132E+02  0.49107290518E+02  0.00000000000E+00 0. -1.
        -13    1    3    3    0    0  0.27877468091E+02  0.45188833262E+02 -0.29382926116E+03  0.29858804161E+03  0.00000000000E+00 0. -1.
         13    1    3    3    0    0 -0.17524719539E+02 -0.34167450742E+02 -0.16510194861E+03  0.16950865441E+03  0.00000000000E+00 0.  1.
          1    1    1    2  501    0  0.16330182550E+02 -0.16294999677E+02  0.10173870157E+02  0.25213280440E+02  0.00000000000E+00 0. -1.
<scales pt_clust_5="13000.00000" pt_clust_6="13000.00000" pt_clust_7="13000.00000" pt_clust_8="13000.00000" pt_clust_9="23.06950"></scales>
<clustering>
<clus scale="   23.070">  1  9  2 -1</clus>
<clus scale="   84.366">  5  6 -1 -1</clus>
<clus scale="   85.838">  1  5  2 -1</clus>
<clus scale="   90.929">  7  8 -1 -1</clus>
<clus scale="   23.070">  1  5  2 -1</clus>
</clustering>
</event>
<event>
 9    2  0.6175212E-005  0.1049174E+03  0.7546771E-02  0.1275372E+00
         21   -1    0    0  501  502  0.00000000000E+00  0.00000000000E+00  0.74171243811E+02  0.74171243811E+02  0.00000000000E+00 0.  1.
          2   -1    0    0  502    0 -0.00000000000E+00 -0.00000000000E+00 -0.34114344155E+03  0.34114344155E+03  0.00000000000E+00 0. -1.
         23    2    1    2    0    0 -0.37646432004E+02  0.36300703359E+02 -0.15363097170E+03  0.18623845945E+03  0.91363523396E+02 0.  0.
         24    2    1    2    0    0  0.76063469794E+02  0.29239820942E+02 -0.33709612265E+02  0.11901886345E+03  0.79928301201E+02 0.  0.
        -11    1    4    4    0    0  0.51553614334E+02 -0.20629526190E+02 -0.31835300311E+01  0.55619127692E+02  0.00000000000E+00 0.  1.
         12    1    4    4    0    0  0.24509855459E+02  0.49869347132E+02 -0.30526082234E+02  0.63399735761E+02  0.00000000000E+00 0. -1.
        -11    1    3    3    0    0 -0.18480380544E+02 -0.30473770385E+02 -0.47272879396E+02  0.59202198210E+02  0.00000000000E+00 0.  1.
         11    1    3    3    0    0 -0.19166051460E+02  0.66774473743E+02 -0.10635809230E+03  0.12703626124E+03  0.00000000000E+00 0. -1.
          1    1    1    2  501    0 -0.38417037789E+02 -0.65540524300E+02 -0.79631613774E+02  0.11005736245E+03  0.00000000000E+00 0. -1.
<scales pt_clust_5="13000.00000" pt_clust_6="13000.00000" pt_clust_7="13000.00000" pt_clust_8="13000.00000" pt_clust_9="75.96996"></scales>
<clustering>
<clus scale="   75.970">  1  9  2 -1</clus>
<clus scale="   79.928">  5  6 -1 -1</clus>
<clus scale="   91.364">  7  8 -1 -1</clus>
<clus scale="   95.126">  1  5  2 -1</clus>
<clus scale="   75.970">  1  5  2 -1</clus>
</clustering>
</event>
<event>
 9    2  0.6175212E-005  0.9874327E+02  0.7546771E-02  0.1291113E+00
          2   -1    0    0  502    0 -0.00000000000E+00  0.00000000000E+00  0.42108430442E+03  0.42108430442E+03  0.00000000000E+00 0. -1.
         21   -1    0    0  501  502  0.00000000000E+00 -0.00000000000E+00 -0.29078767035E+02  0.29078767035E+02  0.00000000000E+00 0. -1.
         23    2    1    2    0    0 -0.21035701440E+02  0.44022098810E+01  0.24902072191E+03  0.26766094339E+03  0.95755837895E+02 0.  0.
         24    2    1    2    0    0  0.27992915633E+02  0.19852272624E+02  0.10948669164E+03  0.14056399444E+03  0.81198428764E+02 0.  0.
        -13    1    4    4    0    0  0.34668611282E+02  0.14227290640E+02  0.12068262001E+03  0.12636701776E+03  0.00000000000E+00 0.  1.
         14    1    4    4    0    0 -0.66756956484E+01  0.56249819843E+01 -0.11195928369E+02  0.14196976677E+02  0.00000000000E+00 0. -1.
        -13    1    3    3    0    0  0.69428694724E+01 -0.24025841322E+02  0.12795920028E+02  0.28092348729E+02  0.00000000000E+00 0.  1.
         13    1    3    3    0    0 -0.27978570912E+02  0.28428051203E+02  0.23622480188E+03  0.23956859467E+03  0.00000000000E+00 0. -1.
          1    1    1    2  501    0 -0.69572141934E+01 -0.24254482505E+02  0.33498123839E+02  0.41938133621E+02  0.00000000000E+00 0. -1.
<scales pt_clust_5="13000.00000" pt_clust_6="13000.00000" pt_clust_7="13000.00000" pt_clust_8="13000.00000" pt_clust_9="25.23257"></scales>
<clustering>
<clus scale="   25.233">  2  9  1 -1</clus>
<clus scale="   81.198">  5  6 -1 -1</clus>
<clus scale="   84.701">  2  5  1 -1</clus>
<clus scale="   95.756">  7  8 -1 -1</clus>
<clus scale="   25.233">  2  5  1 -1</clus>
</clustering>
</event>
<event>
 9    2  0.6175212E-005  0.1030984E+03  0.7546771E-02  0.1285293E+00
          2   -1    0    0  502    0 -0.00000000000E+00  0.00000000000E+00  0.53771971280E+03  0.53771971280E+03  0.00000000000E+00 0. -1.
         21   -1    0    0  501  502  0.00000000000E+00 -0.00000000000E+00 -0.44455146685E+02  0.44455146685E+02  0.00000000000E+00 0. -1.
         24    2    1    2    0    0 -0.48456436116E+01  0.11531222019E+02  0.33688817662E+03  0.34656628516E+03  0.80362286681E+02 0.  0.
         23    2    1    2    0    0  0.10001905392E+02 -0.51912248894E+02  0.15805306375E+03  0.19486516254E+03  0.10097891322E+03 0.  0.
        -11    1    3    3    0    0  0.11409135158E+02  0.28397340866E+02  0.49304699497E+02  0.58030429309E+02  0.00000000000E+00 0.  1.
         12    1    3    3    0    0 -0.16254778770E+02 -0.16866118847E+02  0.28758347713E+03  0.28853585585E+03  0.00000000000E+00 0. -1.
        -11    1    4    4    0    0  0.14739553886E+02  0.17344198456E+02  0.10515213431E+03  0.10758739247E+03  0.00000000000E+00 0.  1.
         11    1    4    4    0    0 -0.47376484945E+01 -0.69256447350E+02  0.52900929448E+02  0.87277770075E+02  0.00000000000E+00 0. -1.
          1    1    1    2  501    0 -0.51562617799E+01  0.40381026875E+02 -0.16766742590E+01  0.40743411782E+02  0.00000000000E+00 0. -1.
<scales pt_clust_5="13000.00000" pt_clust_6="13000.00000" pt_clust_7="13000.00000" pt_clust_8="13000.00000" pt_clust_9="40.70890"></scales>
<clustering>
<clus scale="   40.709">  2  9  1 -1</clus>
<clus scale="   80.362">  5  6 -1 -1</clus>
<clus scale="   83.010">  1  5  2 -1</clus>
<clus scale="  100.979">  7  8 -1 -1</clus>
<clus scale="   40.709">  2  5  1 -1</clus>
</clustering>
</event>
<event>
 9    2  0.6175212E-005  0.9542651E+02  0.7546771E-02  0.1297039E+00
          2   -1    0    0  502    0 -0.00000000000E+00  0.00000000000E+00  0.16395627898E+04  0.16395627898E+04  0.00000000000E+00 0. -1.
         21   -1    0    0  501  502  0.00000000000E+00 -0.00000000000E+00 -0.51761500674E+02  0.51761500674E+02  0.00000000000E+00 0. -1.
         24    2    1    2    0    0  0.13904491010E+02  0.23320145680E+02  0.15429423715E+04  0.15452477046E+04  0.79888313414E+02 0.  0.
         23    2    1    2    0    0 -0.13306939199E+02  0.35460648734E+01  0.64296882236E+02  0.11291056704E+03  0.91788114026E+02 0.  0.
        -13    1    3    3    0    0 -0.14342172232E+02  0.18515960807E+02  0.13518938971E+03  0.13720316978E+03  0.00000000000E+00 0.  1.
         14    1    3    3    0    0  0.28246663243E+02  0.48041848724E+01  0.14077529818E+04  0.14080445348E+04  0.00000000000E+00 0. -1.
        -11    1    4    4    0    0  0.11585711060E+02  0.34913863632E+02  0.62868999677E+02  0.72840357597E+02  0.00000000000E+00 0. -1.
         11    1    4    4    0    0 -0.24892650260E+02 -0.31367798759E+02  0.14278825585E+01  0.40070209439E+02  0.00000000000E+00 0.  1.
          1    1    1    2  501    0 -0.59755181105E+00 -0.26866210553E+02 -0.19437964630E+02  0.33166018854E+02  0.00000000000E+00 0. -1.
<scales pt_clust_5="13000.00000" pt_clust_6="13000.00000" pt_clust_7="13000.00000" pt_clust_8="13000.00000" pt_clust_9="26.87286"></scales>
<clustering>
<clus scale="   26.873">  2  9  1 -1</clus>
<clus scale="   79.888">  5  6 -1 -1</clus>
<clus scale="   84.043">  1  5  2 -1</clus>
<clus scale="   91.788">  7  8 -1 -1</clus>
<clus scale="   26.873">  2  5  1 -1</clus>
</clustering>
</event>
<event>
 9    2  0.6175212E-005  0.1361466E+03  0.7546771E-02  0.1220384E+00
         21   -1    0    0  501  502  0.00000000000E+00  0.00000000000E+00  0.14170385112E+03  0.14170385112E+03  0.00000000000E+00 0.  1.
          2   -1    0    0  502    0 -0.00000000000E+00 -0.00000000000E+00 -0.50953211719E+03  0.50953211719E+03  0.00000000000E+00 0. -1.
         23    2    1    2    0    0  0.37834808281E+02  0.10325343843E+03 -0.37555130864E+03  0.40186023458E+03  0.91433677883E+02 0.  0.
         24    2    1    2    0    0 -0.90559314176E+02 -0.45381920924E+01  0.44976269343E+02  0.13142499703E+03  0.83833647594E+02 0.  0.
        -11    1    4    4    0    0 -0.88578599322E+02  0.15464709497E+02  0.91989597323E+01  0.90387755574E+02  0.00000000000E+00 0.  1.
         12    1    4    4    0    0 -0.19807148540E+01 -0.20002901589E+02  0.35777309611E+02  0.41037241456E+02  0.00000000000E+00 0. -1.
        -13    1    3    3    0    0 -0.15668005183E+02  0.61049455890E+02 -0.10161142892E+03  0.11957175644E+03  0.00000000000E+00 0.  1.
         13    1    3    3    0    0  0.53502813464E+02  0.42203982541E+02 -0.27393987972E+03  0.28228847814E+03  0.00000000000E+00 0. -1.
          1    1    1    2  501    0  0.52724505895E+02 -0.98715246339E+02 -0.37253226777E+02  0.11795073669E+03  0.00000000000E+00 0. -1.
<scales pt_clust_5="13000.00000" pt_clust_6="13000.00000" pt_clust_7="13000.00000" pt_clust_8="13000.00000" pt_clust_9="111.91324"></scales>
<clustering>
<clus scale="   83.834">  5  6 -1 -1</clus>
<clus scale="   91.434">  7  8 -1 -1</clus>
<clus scale="  111.913">  1  9  2 -1</clus>
<clus scale="  131.163">  1  5  2 -1</clus>
<clus scale="  111.913">  1  5  2 -1</clus>
</clustering>
</event>
<event>
 9    2  0.6175212E-005  0.9901282E+02  0.7546771E-02  0.1288618E+00
         21   -1    0    0  501  502  0.00000000000E+00  0.00000000000E+00  0.12232423976E+03  0.12232423976E+03  0.00000000000E+00 0. -1.
          2   -1    0    0  502    0 -0.00000000000E+00 -0.00000000000E+00 -0.27671547023E+03  0.27671547023E+03  0.00000000000E+00 0. -1.
         24    2    1    2    0    0  0.34011541352E+02  0.20019960449E+02 -0.22948475806E+03  0.24587637933E+03  0.78957937999E+02 0.  0.
         23    2    1    2    0    0 -0.14272123746E+02 -0.40736008369E+02  0.41323423055E+02  0.10890026244E+03  0.91041342102E+02 0.  0.
        -11    1    3    3    0    0 -0.11222480460E+02  0.31263120500E+02 -0.47130216533E+02  0.57659206390E+02  0.00000000000E+00 0.  1.
         12    1    3    3    0    0  0.45234021812E+02 -0.11243160050E+02 -0.18235454152E+03  0.18821717294E+03  0.00000000000E+00 0. -1.
        -11    1    4    4    0    0  0.22472773183E+02  0.54228415851E+00 -0.17276950743E+02  0.28351589614E+02  0.00000000000E+00 0. -1.
         11    1    4    4    0    0 -0.36744896929E+02 -0.41278292528E+02  0.58600373798E+02  0.80548672824E+02  0.00000000000E+00 0.  1.
          1    1    1    2  501    0 -0.19739417605E+02  0.20716047920E+02  0.33770104527E+02  0.44263068224E+02  0.00000000000E+00 0. -1.
<scales pt_clust_5="13000.00000" pt_clust_6="13000.00000" pt_clust_7="13000.00000" pt_clust_8="13000.00000" pt_clust_9="28.61467"></scales>
<clustering>
<clus scale="   28.615">  1  9  2 -1</clus>
<clus scale="   78.958">  5  6 -1 -1</clus>
<clus scale="   88.031">  2  5  1 -1</clus>
<clus scale="   91.041">  7  8 -1 -1</clus>
<clus scale="   28.615">  1  5  2 -1</clus>
</clustering>
</event>
<event>
 9    2  0.6175212E-005  0.9394403E+02  0.7546771E-02  0.1299620E+00
         21   -1    0    0  501  502  0.00000000000E+00  0.00000000000E+00  0.20359585973E+03  0.20359585973E+03  0.00000000000E+00 0. -1.
         -1   -1    0    0    0  501 -0.00000000000E+00 -0.00000000000E+00 -0.12550579288E+03  0.12550579288E+03  0.00000000000E+00 0.  1.
         24    2    1    2    0    0  0.20259715834E+02 -0.28555164271E+02 -0.69027575299E+02  0.11064662729E+03  0.79069693862E+02 0.  0.
         23    2    1    2    0    0  0.28151619998E+02 -0.25841969242E+01  0.12595744799E+03  0.15712745346E+03  0.89579942755E+02 0.  0.
        -11    1    3    3    0    0  0.12979236627E+02 -0.50560252209E+02 -0.19069830655E+02  0.55573897902E+02  0.00000000000E+00 0.  1.
         12    1    3    3    0    0  0.72804792066E+01  0.22005087937E+02 -0.49957744645E+02  0.55072729391E+02  0.00000000000E+00 0. -1.
        -11    1    4    4    0    0  0.38150575913E+01  0.42516335969E+02  0.57266653112E+02  0.71425926997E+02  0.00000000000E+00 0.  1.
         11    1    4    4    0    0  0.24336562407E+02 -0.45100532893E+02  0.68690794879E+02  0.85701526464E+02  0.00000000000E+00 0. -1.
         -2    1    1    2    0  502 -0.48411335832E+02  0.31139361195E+02  0.21160194161E+02  0.61327571855E+02  0.00000000000E+00 0.  1.
<scales pt_clust_5="13000.00000" pt_clust_6="13000.00000" pt_clust_7="13000.00000" pt_clust_8="13000.00000" pt_clust_9="57.56142"></scales>
<clustering>
<clus scale="   57.561">  1  9  2 -1</clus>
<clus scale="   79.070">  5  6 -1 -1</clus>
<clus scale="   83.982">  2  5  1 -1</clus>
<clus scale="   89.580">  7  8 -1 -1</clus>
<clus scale="   57.561">  1  5  2 -1</clus>
</clustering>
</event>
<event>
 9    2  0.6175212E-005  0.1446445E+03  0.7546771E-02  0.1218920E+00
         21   -1    0    0  501  502  0.00000000000E+00  0.00000000000E+00  0.25424802950E+03  0.25424802950E+03  0.00000000000E+00 0.  1.
          2   -1    0    0  502    0 -0.00000000000E+00 -0.00000000000E+00 -0.53962866077E+03  0.53962866077E+03  0.00000000000E+00 0. -1.
         24    2    1    2    0    0  0.55984625814E+02 -0.56206652692E+02 -0.42272881804E+03  0.43751854499E+03  0.80183274291E+02 0.  0.
         23    2    1    2    0    0 -0.10020638502E+03 -0.52929592534E+02 -0.33793151555E+02  0.14861878528E+03  0.90015025865E+02 0.  0.
        -11    1    3    3    0    0  0.10747179439E+02 -0.31175182542E+02 -0.42508791493E+02  0.53799546714E+02  0.00000000000E+00 0.  1.
         12    1    3    3    0    0  0.45237446376E+02 -0.25031470150E+02 -0.38022002654E+03  0.38371899828E+03  0.00000000000E+00 0. -1.
        -11    1    4    4    0    0 -0.56177285302E+02 -0.17645073677E+02  0.27776663115E+02  0.65105906205E+02  0.00000000000E+00 0.  1.
         11    1    4    4    0    0 -0.44029099720E+02 -0.35284518857E+02 -0.61569814670E+02  0.83512879076E+02  0.00000000000E+00 0. -1.
          1    1    1    2  501    0  0.44221759208E+02  0.10913624523E+03  0.17114133833E+03  0.20773936000E+03  0.00000000000E+00 0. -1.
<scales pt_clust_5="13000.00000" pt_clust_6="13000.00000" pt_clust_7="13000.00000" pt_clust_8="13000.00000" pt_clust_9="113.22246"></scales>
<clustering>
<clus scale="   80.183">  5  6 -1 -1</clus>
<clus scale="   90.015">  7  8 -1 -1</clus>
<clus scale="  112.795">  2  5  1 -1</clus>
<clus scale="  113.222">  1  9  2 -1</clus>
<clus scale="  113.222">  1  5  2 -1</clus>
</clustering>
</event>
<event>
 9    2  0.6175212E-005  0.9739737E+02  0.7546771E-02  0.1291606E+00
         21   -1    0    0  501  502  0.00000000000E+00  0.00000000000E+00  0.67676634467E+02  0.67676634467E+02  0.00000000000E+00 0. -1.
          4   -1    0    0  502    0 -0.00000000000E+00 -0.00000000000E+00 -0.58459692550E+03  0.58459692550E+03  0.00000000000E+00 0. -1.
         24    2    1    2    0    0  0.54677501103E+02  0.12671394143E+02 -0.37116448180E+03  0.38381041400E+03  0.79982297975E+02 0.  0.
         23    2    1    2    0    0  0.11897885731E+02  0.42463894797E+02 -0.15128446231E+03  0.18184474016E+03  0.90751192508E+02 0.  0.
        -11    1    3    3    0    0  0.67548410975E+01 -0.30219841825E+02 -0.83830348857E+02  0.89366627483E+02  0.00000000000E+00 0.  1.
         12    1    3    3    0    0  0.47922660006E+02  0.42891235968E+02 -0.28733413294E+03  0.29444378652E+03  0.00000000000E+00 0. -1.
        -13    1    4    4    0    0 -0.36741764087E+02  0.35557671009E+02 -0.66905350151E+02  0.84205885036E+02  0.00000000000E+00 0.  1.
         13    1    4    4    0    0  0.48639649818E+02  0.69062237879E+01 -0.84379112163E+02  0.97638855128E+02  0.00000000000E+00 0. -1.
          3    1    1    2  501    0 -0.66575386834E+02 -0.55135288939E+02  0.55286530830E+01  0.86618405801E+02  0.00000000000E+00 0. -1.
<scales pt_clust_5="13000.00000" pt_clust_6="13000.00000" pt_clust_7="13000.00000" pt_clust_8="13000.00000" pt_clust_9="86.44179"></scales>
<clustering>
<clus scale="   79.982">  5  6 -1 -1</clus>
<clus scale="   86.442">  1  9  2 -1</clus>
<clus scale="   87.451">  2  5  1 -1</clus>
<clus scale="   90.751">  7  8 -1 -1</clus>
<clus scale="   86.442">  1  5  2 -1</clus>
</clustering>
</event>
<event>
 9    2  0.6175212E-005  0.1088095E+03  0.7546771E-02  0.1267487E+00
         21   -1    0    0  501  502  0.00000000000E+00  0.00000000000E+00  0.15922487769E+03  0.15922487769E+03  0.00000000000E+00 0.  1.
          4   -1    0    0  502    0 -0.00000000000E+00 -0.00000000000E+00 -0.34113370530E+03  0.34113370530E+03  0.00000000000E+00 0. -1.
         23    2    1    2    0    0  0.48046915063E+02 -0.33080570808E+02 -0.21866525184E+03  0.24322769484E+03  0.89120081713E+02 0.  0.
         24    2    1    2    0    0 -0.86441438028E+02  0.66043738649E+02  0.10668518656E+03  0.17081320962E+03  0.77210918433E+02 0.  0.
        -11    1    4    4    0    0 -0.99032917924E+02  0.44862854515E+02  0.85374823403E+02  0.13823550564E+03  0.00000000000E+00 0.  1.
         12    1    4    4    0    0  0.12591479897E+02  0.21180884133E+02  0.21310363155E+02  0.32577703978E+02  0.00000000000E+00 0. -1.
        -11    1    3    3    0    0 -0.20446090369E+02 -0.24397868340E+02 -0.36571641007E+02  0.48484879260E+02  0.00000000000E+00 0.  1.
         11    1    3    3    0    0  0.68493005432E+02 -0.86827024684E+01 -0.18209361083E+03  0.19474281558E+03  0.00000000000E+00 0. -1.
          3    1    1    2  501    0  0.38394522964E+02 -0.32963167840E+02 -0.69928762323E+02  0.86317678535E+02  0.00000000000E+00 0. -1.
<scales pt_clust_5="13000.00000" pt_clust_6="13000.00000" pt_clust_7="13000.00000" pt_clust_8="13000.00000" pt_clust_9="50.60348"></scales>
<clustering>
<clus scale="   50.603">  1  9  2 -1</clus>
<clus scale="   77.211">  5  6 -1 -1</clus>
<clus scale="   89.120">  7  8 -1 -1</clus>
<clus scale="   99.291">  1  5  2 -1</clus>
<clus scale="   50.603">  1  5  2 -1</clus>
</clustering>
</event>
<event>
 9    2  0.6175212E-005  0.1179898E+03  0.7546771E-02  0.1250047E+00
         21   -1    0    0  501  502  0.00000000000E+00  0.00000000000E+00  0.75563825174E+03  0.75563825174E+03  0.00000000000E+00 0. -1.
          2   -1    0    0  502    0 -0.00000000000E+00 -0.00000000000E+00 -0.66819031499E+02  0.66819031499E+02  0.00000000000E+00 0. -1.
         23    2    1    2    0    0 -0.12135256672E+00 -0.75427180663E+02  0.11230534201E+02  0.11855832577E+03  0.90778176904E+02 0.  0.
         24    2    1    2    0    0  0.24782596336E+02  0.74402486509E+02  0.66817736158E+03  0.67748305373E+03  0.79827279053E+02 0.  0.
        -13    1    4    4    0    0  0.48077272934E+01  0.43236349047E+02  0.11318207260E+03  0.12125459858E+03  0.00000000000E+00 0.  1.
         14    1    4    4    0    0  0.19974869043E+02  0.31166137462E+02  0.55499528898E+03  0.55622845514E+03  0.00000000000E+00 0. -1.
        -13    1    3    3    0    0 -0.56950878040E+01 -0.95447484393E+02  0.15432659847E+01  0.95629691895E+02  0.00000000000E+00 0. -1.
         13    1    3    3    0    0  0.55737352373E+01  0.20020303730E+02  0.96872682163E+01  0.22928633876E+02  0.00000000000E+00 0.  1.
          1    1    1    2  501    0 -0.24661243770E+02  0.10246941533E+01  0.94113244636E+01  0.26415903743E+02  0.00000000000E+00 0. -1.
<scales pt_clust_5="13000.00000" pt_clust_6="13000.00000" pt_clust_7="13000.00000" pt_clust_8="13000.00000" pt_clust_9="24.68254"></scales>
<clustering>
<clus scale="   24.683">  1  9  2 -1</clus>
<clus scale="   79.827">  5  6 -1 -1</clus>
<clus scale="   90.778">  7  8 -1 -1</clus>
<clus scale="  109.788">  1  5  2 -1</clus>
<clus scale="   24.683">  1  5  2 -1</clus>
</clustering>
</event>
<event>
 9    2  0.6175212E-005  0.1473806E+03  0.7546771E-02  0.1227095E+00
         21   -1    0    0  501  502  0.00000000000E+00  0.00000000000E+00  0.57748229755E+02  0.57748229755E+02  0.00000000000E+00 0. -1.
          2   -1    0    0  502    0 -0.00000000000E+00 -0.00000000000E+00 -0.10297108245E+04  0.10297108245E+04  0.00000000000E+00 0. -1.
         24    2    1    2    0    0 -0.20422256606E+02  0.33165331564E+02 -0.57215426338E+03  0.57917216277E+03  0.81011636415E+02 0.  0.
         23    2    1    2    0    0 -0.90510074679E+02  0.11978056537E+02 -0.35858986914E+03  0.38162644287E+03  0.93362198927E+02 0.  0.
        -11    1    3    3    0    0 -0.22281634604E+02  0.30255017242E+02 -0.97265955671E+02  0.10427129730E+03  0.00000000000E+00 0.  1.
         12    1    3    3    0    0  0.18593779981E+01  0.29103143228E+01 -0.47488830771E+03  0.47490086546E+03  0.00000000000E+00 0. -1.
        -13    1    4    4    0    0 -0.97344526302E+02  0.35666936884E+02 -0.25780242060E+03  0.27786718995E+03  0.00000000000E+00 0. -1.
         13    1    4    4    0    0  0.68344516234E+01 -0.23688880347E+02 -0.10078744854E+03  0.10375925291E+03  0.00000000000E+00 0.  1.
          1    1    1    2  501    0  0.11093233128E+03 -0.45143388102E+02 -0.41218462202E+02  0.12666044860E+03  0.00000000000E+00 0. -1.
<scales pt_clust_5="13000.00000" pt_clust_6="13000.00000" pt_clust_7="13000.00000" pt_clust_8="13000.00000" pt_clust_9="114.03747"></scales>
<clustering>
<clus scale="   81.012">  5  6 -1 -1</clus>
<clus scale="   89.888">  2  5  1 -1</clus>
<clus scale="   93.362">  7  8 -1 -1</clus>
<clus scale="  114.037">  1  9  2 -1</clus>
<clus scale="  114.037">  1  5  2 -1</clus>
</clustering>
</event>
<event>
 9    2  0.6175212E-005  0.1102129E+03  0.7546771E-02  0.1263424E+00
          2   -1    0    0  502    0 -0.00000000000E+00  0.00000000000E+00  0.28324607774E+03  0.28324607774E+03  0.00000000000E+00 0. -1.
         21   -1    0    0  501  502  0.00000000000E+00 -0.00000000000E+00 -0.12957084390E+03  0.12957084390E+03  0.00000000000E+00 0.  1.
         23    2    1    2    0    0 -0.50822425965E+02  0.31652122088E+02  0.22099739747E+03  0.24606242946E+03  0.90122659147E+02 0.  0.
         24    2    1    2    0    0  0.69283947811E+02 -0.56496240692E+02 -0.47924842611E+02  0.13022622805E+03  0.81670002431E+02 0.  0.
        -13    1    4    4    0    0  0.57865999028E+02 -0.27096638058E+02 -0.67627703931E+02  0.93038744492E+02  0.00000000000E+00 0.  1.
         14    1    4    4    0    0  0.11417948783E+02 -0.29399602634E+02  0.19702861320E+02  0.37187483562E+02  0.00000000000E+00 0. -1.
        -13    1    3    3    0    0 -0.58747372364E+01  0.56005225573E+02  0.10117859463E+03  0.11579380744E+03  0.00000000000E+00 0.  1.
         13    1    3    3    0    0 -0.44947688728E+02 -0.24353103485E+02  0.11981880283E+03  0.13026862202E+03  0.00000000000E+00 0. -1.
          1    1    1    2  501    0 -0.18461521847E+02  0.24844118604E+02 -0.19397321010E+02  0.36528264131E+02  0.00000000000E+00 0. -1.
<scales pt_clust_5="13000.00000" pt_clust_6="13000.00000" pt_clust_7="13000.00000" pt_clust_8="13000.00000" pt_clust_9="30.95251"></scales>
<clustering>
<clus scale="   30.953">  2  9  1 -1</clus>
<clus scale="   81.670">  5  6 -1 -1</clus>
<clus scale="   90.123">  7  8 -1 -1</clus>
<clus scale="  103.416">  2  5  1 -1</clus>
<clus scale="   30.953">  2  5  1 -1</clus>
</clustering>
</event>
<event>
 9    2  0.6175212E-005  0.1004642E+03  0.7546771E-02  0.1284084E+00
         21   -1    0    0  501  502  0.00000000000E+00  0.00000000000E+00  0.49588270649E+02  0.49588270649E+02  0.00000000000E+00 0. -1.
          2   -1    0    0  502    0 -0.00000000000E+00 -0.00000000000E+00 -0.89588401877E+03  0.89588401877E+03  0.00000000000E+00 0. -1.
         24    2    1    2    0    0  0.50016465557E+02  0.10214600139E+02 -0.71402627902E+03  0.72043705282E+03  0.81179030944E+02 0.  0.
         23    2    1    2    0    0 -0.11040233984E+02  0.18514609256E+02 -0.14722990776E+03  0.17435655445E+03  0.90878406766E+02 0.  0.
        -11    1    3    3    0    0  0.44503935422E+02 -0.26097754724E+02 -0.26934337901E+03  0.27423994765E+03  0.00000000000E+00 0.  1.
         12    1    3    3    0    0  0.55125301354E+01  0.36312354862E+02 -0.44468290001E+03  0.44619710517E+03  0.00000000000E+00 0. -1.
        -13    1    4    4    0    0  0.29819123817E+02 -0.12960383893E+02 -0.22945322970E+02  0.39794968804E+02  0.00000000000E+00 0. -1.
         13    1    4    4    0    0 -0.40859357801E+02  0.31474993150E+02 -0.12428458479E+03  0.13456158564E+03  0.00000000000E+00 0.  1.
          1    1    1    2  501    0 -0.38976231573E+02 -0.28729209395E+02  0.14960438657E+02  0.50678682154E+02  0.00000000000E+00 0. -1.
<scales pt_clust_5="13000.00000" pt_clust_6="13000.00000" pt_clust_7="13000.00000" pt_clust_8="13000.00000" pt_clust_9="48.42018"></scales>
<clustering>
<clus scale="   48.420">  1  9  2 -1</clus>
<clus scale="   81.179">  5  6 -1 -1</clus>
<clus scale="   90.878">  7  8 -1 -1</clus>
<clus scale="   91.783">  2  5  1 -1</clus>
<clus scale="   48.420">  1  5  2 -1</clus>
</clustering>
</event>
<event>
 9    2  0.6175212E-005  0.9901433E+02  0.7546771E-02  0.1288016E+00
         21   -1    0    0  501  502  0.00000000000E+00  0.00000000000E+00  0.50803555759E+02  0.50803555759E+02  0.00000000000E+00 0.  1.
          2   -1    0    0  502    0 -0.00000000000E+00 -0.00000000000E+00 -0.45775987214E+03  0.45775987214E+03  0.00000000000E+00 0. -1.
         24    2    1    2    0    0  0.50066280309E+01 -0.46652239810E+02 -0.29483073024E+03  0.30949924631E+03  0.81627974181E+02 0.  0.
         23    2    1    2    0    0 -0.21845720778E+02  0.57319884483E+01 -0.12101074286E+03  0.15393139943E+03  0.92418529722E+02 0.  0.
        -11    1    3    3    0    0  0.27796828121E+02 -0.52886842447E+02 -0.26388768577E+03  0.27056679852E+03  0.00000000000E+00 0.  1.
         12    1    3    3    0    0 -0.22790200090E+02  0.62346026375E+01 -0.30943044467E+02  0.38932447792E+02  0.00000000000E+00 0. -1.
        -11    1    4    4    0    0 -0.50441628694E+02  0.11887759866E+02 -0.11186157440E+03  0.12328296139E+03  0.00000000000E+00 0.  1.
         11    1    4    4    0    0  0.28595907917E+02 -0.61557714180E+01 -0.91491684570E+01  0.30648438048E+02  0.00000000000E+00 0. -1.
          1    1    1    2  501    0  0.16839092747E+02  0.40920251362E+02  0.88851567117E+01  0.45132782163E+02  0.00000000000E+00 0. -1.
<scales pt_clust_5="13000.00000" pt_clust_6="13000.00000" pt_clust_7="13000.00000" pt_clust_8="13000.00000" pt_clust_9="44.24954"></scales>
<clustering>
<clus scale="   44.250">  1  9  2 -1</clus>
<clus scale="   81.628">  5  6 -1 -1</clus>
<clus scale="   89.027">  2  5  1 -1</clus>
<clus scale="   92.419">  7  8 -1 -1</clus>
<clus scale="   44.250">  1  5  2 -1</clus>
</clustering>
</event>
<event>
 9    2  0.6175212E-005  0.1203088E+03  0.7546771E-02  0.1242733E+00
          2   -1    0    0  502    0 -0.00000000000E+00  0.00000000000E+00  0.89101307958E+03  0.89101307958E+03  0.00000000000E+00 0. -1.
         21   -1    0    0  501  502  0.00000000000E+00 -0.00000000000E+00 -0.80579877759E+02  0.80579877759E+02  0.00000000000E+00 0. -1.
         24    2    1    2    0    0 -0.29996718899E+02 -0.91366097712E+02  0.80905724927E+03  0.81875158739E+03  0.80826742498E+02 0.  0.
         23    2    1    2    0    0  0.11902375712E+02  0.26410162724E+02  0.24878697273E+01  0.85403138166E+02  0.80301577009E+02 0.  0.
        -13    1    3    3    0    0 -0.35297756237E+02 -0.49115382687E+01  0.15873256924E+03  0.16268399842E+03  0.00000000000E+00 0.  1.
         14    1    3    3    0    0  0.53010373375E+01 -0.86454559443E+02  0.65032468003E+03  0.65606758897E+03  0.00000000000E+00 0. -1.
        -13    1    4    4    0    0  0.13594575877E+02  0.47028564565E+02  0.24882999787E+02  0.54915043993E+02  0.00000000000E+00 0.  1.
         13    1    4    4    0    0 -0.16922001644E+01 -0.20618401841E+02 -0.22395130060E+02  0.30488094173E+02  0.00000000000E+00 0. -1.
          1    1    1    2  501    0  0.18094343187E+02  0.64955934988E+02 -0.11119171803E+01  0.67438231778E+02  0.00000000000E+00 0. -1.
<scales pt_clust_5="13000.00000" pt_clust_6="13000.00000" pt_clust_7="13000.00000" pt_clust_8="13000.00000" pt_clust_9="67.42906"></scales>
<clustering>
<clus scale="   67.429">  2  9  1 -1</clus>
<clus scale="   80.302">  7  8 -1 -1</clus>
<clus scale="   80.827">  5  6 -1 -1</clus>
<clus scale="  119.957">  2  7  1 -1</clus>
<clus scale="   67.429">  2  5  1 -1</clus>
</clustering>
</event>
<event>
 9    2  0.6175212E-005  0.1068751E+03  0.7546771E-02  0.1271272E+00
         -3   -1    0    0    0  501 -0.00000000000E+00  0.00000000000E+00  0.15316585220E+03  0.15316585220E+03  0.00000000000E+00 0.  1.
         21   -1    0    0  501  502  0.00000000000E+00 -0.00000000000E+00 -0.20755098598E+03  0.20755098598E+03  0.00000000000E+00 0. -1.
         24    2    1    2    0    0 -0.51312053202E+02 -0.91885211857E+01  0.91306208480E+02  0.13272200038E+03  0.80999691060E+02 0.  0.
         23    2    1    2    0    0  0.53070828967E+02  0.44411265590E+02 -0.49345876502E+02  0.12539764588E+03  0.92199135934E+02 0.  0.
        -13    1    3    3    0    0 -0.62733273985E+02 -0.20813173167E+02  0.95267788731E+02  0.11595086637E+03  0.00000000000E+00 0.  1.
         14    1    3    3    0    0  0.11421220783E+02  0.11624651981E+02 -0.39615802506E+01  0.16771134009E+02  0.00000000000E+00 0. -1.
        -11    1    4    4    0    0  0.27877597019E+02  0.28139074725E+02 -0.75722998960E+02  0.85457243774E+02  0.00000000000E+00 0. -1.
         11    1    4    4    0    0  0.25193231948E+02  0.16272190866E+02  0.26377122458E+02  0.39940402111E+02  0.00000000000E+00 0.  1.
         -4    1    1    2    0  502 -0.17587757649E+01 -0.35222744405E+02 -0.96345465767E+02  0.10259719192E+03  0.00000000000E+00 0.  1.
<scales pt_clust_5="13000.00000" pt_clust_6="13000.00000" pt_clust_7="13000.00000" pt_clust_8="13000.00000" pt_clust_9="35.26663"></scales>
<clustering>
<clus scale="   35.267">  2  9  1 -1</clus>
<clus scale="   81.000">  5  6 -1 -1</clus>
<clus scale="   92.199">  7  8 -1 -1</clus>
<clus scale="   97.378">  1  5  2 -1</clus>
<clus scale="   35.267">  2  5  1 -1</clus>
</clustering>
</event>
<event>
 9    2  0.6175212E-005  0.1473276E+03  0.7546771E-02  0.1204371E+00
         21   -1    0    0  501  502  0.00000000000E+00  0.00000000000E+00  0.85313933608E+02  0.85313933608E+02  0.00000000000E+00 0. -1.
          2   -1    0    0  502    0 -0.00000000000E+00 -0.00000000000E+00 -0.58120989902E+03  0.58120989902E+03  0.00000000000E+00 0. -1.
         23    2    1    2    0    0 -0.88307205047E+02 -0.81861780895E+02 -0.42025162256E+03  0.44491705404E+03  0.82705774150E+02 0.  0.
         24    2    1    2    0    0  0.11064566575E+03  0.72263897921E+02 -0.13381638563E+02  0.15476539523E+03  0.79427482763E+02 0.  0.
        -11    1    4    4    0    0  0.51902573823E+02  0.28404941784E+02 -0.45588276659E+02  0.74692763076E+02  0.00000000000E+00 0.  1.
         12    1    4    4    0    0  0.58743091923E+02  0.43858956137E+02  0.32206638096E+02  0.80072632151E+02  0.00000000000E+00 0. -1.
        -13    1    3    3    0    0 -0.70217848403E+02 -0.98613661845E+02 -0.36030265553E+03  0.38009630900E+03  0.00000000000E+00 0. -1.
         13    1    3    3    0    0 -0.18089356644E+02  0.16751880950E+02 -0.59948967028E+02  0.64820745034E+02  0.00000000000E+00 0.  1.
          1    1    1    2  501    0 -0.22338460699E+02  0.95978829740E+01 -0.62262704289E+02  0.66841383359E+02  0.00000000000E+00 0. -1.
<scales pt_clust_5="13000.00000" pt_clust_6="13000.00000" pt_clust_7="13000.00000" pt_clust_8="13000.00000" pt_clust_9="24.31310"></scales>
<clustering>
<clus scale="   24.313">  1  9  2 -1</clus>
<clus scale="   79.427">  5  6 -1 -1</clus>
<clus scale="   82.706">  7  8 -1 -1</clus>
<clus scale="  145.513">  1  5  2 -1</clus>
<clus scale="   24.313">  1  5  2 -1</clus>
</clustering>
</event>
<event>
 9    2  0.6175212E-005  0.1461635E+03  0.7546771E-02  0.1222052E+00
         21   -1    0    0  501  502  0.00000000000E+00  0.00000000000E+00  0.16275709021E+03  0.16275709021E+03  0.00000000000E+00 0. -1.
         -1   -1    0    0    0  501 -0.00000000000E+00 -0.00000000000E+00 -0.45809331600E+03  0.45809331600E+03  0.00000000000E+00 0.  1.
         24    2    1    2    0    0 -0.64927008681E+02 -0.81611936241E+01 -0.19052633392E+03  0.21628342972E+03  0.78715414731E+02 0.  0.
         23    2    1    2    0    0 -0.96210366852E+02  0.43122761830E+02  0.77091123635E+02  0.15905619366E+03  0.90773476975E+02 0.  0.
        -11    1    3    3    0    0 -0.58231702387E+02  0.28391515765E+02 -0.13026750610E+03  0.14548756811E+03  0.00000000000E+00 0.  1.
         12    1    3    3    0    0 -0.66953062937E+01 -0.36552709389E+02 -0.60258827826E+02  0.70795861609E+02  0.00000000000E+00 0. -1.
        -13    1    4    4    0    0 -0.19897723097E+02  0.20244034250E+02 -0.19057660199E+02  0.34189687325E+02  0.00000000000E+00 0.  1.
         13    1    4    4    0    0 -0.76312643755E+02  0.22878727581E+02  0.96148783834E+02  0.12486650634E+03  0.00000000000E+00 0. -1.
         -2    1    1    2    0  502  0.16113737553E+03 -0.34961568206E+02 -0.18190101550E+03  0.24551078283E+03  0.00000000000E+00 0.  1.
<scales pt_clust_5="13000.00000" pt_clust_6="13000.00000" pt_clust_7="13000.00000" pt_clust_8="13000.00000" pt_clust_9="114.55987"></scales>
<clustering>
<clus scale="   78.715">  5  6 -1 -1</clus>
<clus scale="   90.773">  7  8 -1 -1</clus>
<clus scale="  102.363">  2  5  1 -1</clus>
<clus scale="  114.560">  1  9  2 -1</clus>
<clus scale="  114.560">  1  5  2 -1</clus>
</clustering>
</event>
<event>
 9    2  0.6175212E-005  0.9697004E+02  0.7546771E-02  0.1295248E+00
         21   -1    0    0  501  502  0.00000000000E+00  0.00000000000E+00  0.28968901829E+03  0.28968901829E+03  0.00000000000E+00 0. -1.
          2   -1    0    0  502    0 -0.00000000000E+00 -0.00000000000E+00 -0.26233355579E+03  0.26233355579E+03  0.00000000000E+00 0. -1.
         24    2    1    2    0    0 -0.26488407421E+02  0.72966592865E+01 -0.22596584128E+03  0.24059892184E+03  0.77925623533E+02 0.  0.
         23    2    1    2    0    0  0.23525953869E+02 -0.41028906632E+02  0.71241010649E+02  0.12622140121E+03  0.92842440947E+02 0.  0.
        -13    1    3    3    0    0 -0.24899127861E+02 -0.31407444870E+02 -0.78627013121E+02  0.88253052943E+02  0.00000000000E+00 0.  1.
         14    1    3    3    0    0 -0.15892795599E+01  0.38704104156E+02 -0.14733882816E+03  0.15234586890E+03  0.00000000000E+00 0. -1.
        -13    1    4    4    0    0  0.56111241324E+02 -0.44236981710E+02  0.48903640371E+02  0.86584917827E+02  0.00000000000E+00 0.  1.
         13    1    4    4    0    0 -0.32585287455E+02  0.32080750775E+01  0.22337370278E+02  0.39636483386E+02  0.00000000000E+00 0. -1.
          1    1    1    2  501    0  0.29624535522E+01  0.33732247346E+02  0.18208029313E+03  0.18520225103E+03  0.00000000000E+00 0. -1.
<scales pt_clust_5="13000.00000" pt_clust_6="13000.00000" pt_clust_7="13000.00000" pt_clust_8="13000.00000" pt_clust_9="33.86208"></scales>
<clustering>
<clus scale="   33.862">  1  9  2 -1</clus>
<clus scale="   77.926">  5  6 -1 -1</clus>
<clus scale="   82.800">  2  5  1 -1</clus>
<clus scale="   92.842">  7  8 -1 -1</clus>
<clus scale="   33.862">  1  5  2 -1</clus>
</clustering>
</event>
<event>
 9    2  0.6175212E-005  0.1174908E+03  0.7546771E-02  0.1249095E+00
         21   -1    0    0  501  502  0.00000000000E+00  0.00000000000E+00  0.59585104462E+03  0.59585104462E+03  0.00000000000E+00 0. -1.
          2   -1    0    0  502    0 -0.00000000000E+00 -0.00000000000E+00 -0.35401582979E+02  0.35401582979E+02  0.00000000000E+00 0. -1.
         24    2    1    2    0    0 -0.26489051197E+01 -0.82431373688E+02  0.10415743356E+03  0.15670416216E+03  0.83099190164E+02 0.  0.
         23    2    1    2    0    0 -0.38265421770E+01  0.61780615355E+02  0.36242323446E+03  0.37821708087E+03  0.88690881859E+02 0.  0.
        -13    1    3    3    0    0 -0.41896929500E+02 -0.30311714192E+02  0.49615034924E+02  0.71664526855E+02  0.00000000000E+00 0.  1.
         14    1    3    3    0    0  0.39248024381E+02 -0.52119659496E+02  0.54542398634E+02  0.85039635303E+02  0.00000000000E+00 0. -1.
        -11    1    4    4    0    0  0.32948445692E+02  0.47809004540E+02  0.29042549803E+03  0.29617270450E+03  0.00000000000E+00 0.  1.
         11    1    4    4    0    0 -0.36774987869E+02  0.13971610815E+02  0.71997736434E+02  0.82044376365E+02  0.00000000000E+00 0. -1.
          1    1    1    2  501    0  0.64754472967E+01  0.20650758333E+02  0.93868793629E+02  0.96331384578E+02  0.00000000000E+00 0. -1.
<scales pt_clust_5="13000.00000" pt_clust_6="13000.00000" pt_clust_7="13000.00000" pt_clust_8="13000.00000" pt_clust_9="21.64221"></scales>
<clustering>
<clus scale="   21.642">  1  9  2 -1</clus>
<clus scale="   83.099">  5  6 -1 -1</clus>
<clus scale="   88.691">  7  8 -1 -1</clus>
<clus scale="  113.329">  2  5  1 -1</clus>
<clus scale="   21.642">  1  5  2 -1</clus>
</clustering>
</event>
<event>
 9    2  0.6175212E-005  0.1818184E+03  0.7546771E-02  0.1167159E+00
         21   -1    0    0  501  502  0.00000000000E+00  0.00000000000E+00  0.24948296390E+03  0.24948296390E+03  0.00000000000E+00 0.  1.
         -3   -1    0    0    0  501 -0.00000000000E+00 -0.00000000000E+00 -0.17988096732E+03  0.17988096732E+03  0.00000000000E+00 0.  1.
         24    2    1    2    0    0  0.73102419232E+02  0.13470111447E+03 -0.17464385096E+02  0.17383611040E+03  0.80160056103E+02 0.  0.
         23    2    1    2    0    0 -0.10779515339E+03 -0.13140234558E+03  0.10200324904E+03  0.21761241911E+03  0.89800504566E+02 0.  0.
        -13    1    3    3    0    0  0.65947727298E+02  0.14232430369E+03 -0.27604963520E+02  0.15927129110E+03  0.00000000000E+00 0.  1.
         14    1    3    3    0    0  0.71546919335E+01 -0.76231892189E+01  0.10140578424E+02  0.14564819302E+02  0.00000000000E+00 0. -1.
        -13    1    4    4    0    0 -0.11388839720E+03 -0.85706223386E+02  0.94215529793E+02  0.17085868370E+03  0.00000000000E+00 0.  1.
         13    1    4    4    0    0  0.60932438068E+01 -0.45696122194E+02  0.77877192426E+01  0.46753735409E+02  0.00000000000E+00 0. -1.
         -4    1    1    2    0  502  0.34692734158E+02 -0.32987688905E+01 -0.14936867361E+02  0.37915401701E+02  0.00000000000E+00 0.  1.
<scales pt_clust_5="13000.00000" pt_clust_6="13000.00000" pt_clust_7="13000.00000" pt_clust_8="13000.00000" pt_clust_9="34.84923"></scales>
<clustering>
<clus scale="   34.849">  1  9  2 -1</clus>
<clus scale="   80.160">  5  6 -1 -1</clus>
<clus scale="   89.801">  7  8 -1 -1</clus>
<clus scale="  177.255">  2  5  1 -1</clus>
<clus scale="   34.849">  1  5  2 -1</clus>
</clustering>
</event>
<event>
 9    2  0.6175212E-005  0.2328194E+03  0.7546771E-02  0.1124671E+00
          2   -1    0    0  502    0 -0.00000000000E+00  0.00000000000E+00  0.40995197841E+03  0.40995197841E+03  0.00000000000E+00 0. -1.
         21   -1    0    0  501  502  0.00000000000E+00 -0.00000000000E+00 -0.82513792753E+02  0.82513792753E+02  0.00000000000E+00 0. -1.
         24    2    1    2    0    0 -0.89005778824E+02 -0.33735104897E+02  0.16618555917E+03  0.20796654839E+03  0.81070088223E+02 0.  0.
         23    2    1    2    0    0 -0.30072686465E+02 -0.26622352443E+02  0.63083610505E+02  0.11878905637E+03  0.92293996976E+02 0.  0.
        -13    1    3    3    0    0 -0.74103940049E+02 -0.51417218665E+01  0.55626364931E+02  0.92801528598E+02  0.00000000000E+00 0.  1.
         14    1    3    3    0    0 -0.14901838775E+02 -0.28593383030E+02  0.11055919424E+03  0.11516501979E+03  0.00000000000E+00 0. -1.
        -13    1    4    4    0    0 -0.13367116591E+02 -0.60570144362E+02  0.46277859681E+02  0.77389033401E+02  0.00000000000E+00 0.  1.
         13    1    4    4    0    0 -0.16705569874E+02  0.33947791919E+02  0.16805750824E+02  0.41400022968E+02  0.00000000000E+00 0. -1.
          1    1    1    2  501    0  0.11907846529E+03  0.60357457340E+02  0.98169015978E+02  0.16571016641E+03  0.00000000000E+00 0. -1.
<scales pt_clust_5="13000.00000" pt_clust_6="13000.00000" pt_clust_7="13000.00000" pt_clust_8="13000.00000" pt_clust_9="133.50170"></scales>
<clustering>
<clus scale="   81.070">  5  6 -1 -1</clus>
<clus scale="   92.294">  7  8 -1 -1</clus>
<clus scale="  100.475">  5  7 -1 -1</clus>
<clus scale="  133.502">  2  9  1 -1</clus>
<clus scale="  133.502">  2  5  1 -1</clus>
</clustering>
</event>
<event>
 9    2  0.6175212E-005  0.1034868E+03  0.7546771E-02  0.1277223E+00
         21   -1    0    0  501  502  0.00000000000E+00  0.00000000000E+00  0.43127795697E+03  0.43127795697E+03  0.00000000000E+00 0.  1.
          4   -1    0    0  502    0 -0.00000000000E+00 -0.00000000000E+00 -0.81740212331E+02  0.81740212331E+02  0.00000000000E+00 0. -1.
         24    2    1    2    0    0  0.21118282544E+02  0.44657476153E+02 -0.34266024855E+02  0.10217013163E+03  0.82609341510E+02 0.  0.
         23    2    1    2    0    0 -0.34310965525E+02 -0.22900538971E+02  0.36667794200E+03  0.38017712038E+03  0.91543720006E+02 0.  0.
        -13    1    3    3    0    0  0.19050464620E+02 -0.16642356320E+02 -0.32003746832E+02  0.40793725466E+02  0.00000000000E+00 0.  1.
         14    1    3    3    0    0  0.20678179237E+01  0.61299832473E+02 -0.22622780228E+01  0.61376406167E+02  0.00000000000E+00 0. -1.
        -13    1    4    4    0    0 -0.63766624832E+02 -0.18937924508E+02  0.29817160153E+03  0.30550144252E+03  0.00000000000E+00 0.  1.
         13    1    4    4    0    0  0.29455659307E+02 -0.39626144632E+01  0.68506340471E+02  0.74675677857E+02  0.00000000000E+00 0. -1.
          3    1    1    2  501    0  0.13192682982E+02 -0.21756937181E+02  0.17125827495E+02  0.30670917285E+02  0.00000000000E+00 0. -1.
<scales pt_clust_5="13000.00000" pt_clust_6="13000.00000" pt_clust_7="13000.00000" pt_clust_8="13000.00000" pt_clust_9="25.44429"></scales>
<clustering>
<clus scale="   25.444">  1  9  2 -1</clus>
<clus scale="   82.609">  5  6 -1 -1</clus>
<clus scale="   91.544">  7  8 -1 -1</clus>
<clus scale="   95.674">  2  5  1 -1</clus>
<clus scale="   25.444">  1  5  2 -1</clus>
</clustering>
</event>
<event>
 9    2  0.6175212E-005  0.1737982E+03  0.7546771E-02  0.1175511E+00
         21   -1    0    0  501  502  0.00000000000E+00  0.00000000000E+00  0.33380656792E+03  0.33380656792E+03  0.00000000000E+00 0.  1.
         -3   -1    0    0    0  501 -0.00000000000E+00 -0.00000000000E+00 -0.11442191030E+03  0.11442191030E+03  0.00000000000E+00 0.  1.
         23    2    1    2    0    0 -0.11655011839E+03 -0.47056416984E+02  0.98865463275E+02  0.18615951996E+03  0.95303465657E+02 0.  0.
         24    2    1    2    0    0  0.16059539814E+03  0.48944397675E+02  0.10690547937E+03  0.21592912325E+03  0.83726750700E+02 0.  0.
        -13    1    4    4    0    0  0.10298063276E+03  0.58253187547E+02  0.35129395910E+02  0.12342009172E+03  0.00000000000E+00 0.  1.
         14    1    4    4    0    0  0.57614765374E+02 -0.93087898722E+01  0.71776083458E+02  0.92509031529E+02  0.00000000000E+00 0. -1.
        -13    1    3    3    0    0 -0.80105611471E+02 -0.32304643627E+02  0.75066878985E+01  0.86699765584E+02  0.00000000000E+00 0. -1.
         13    1    3    3    0    0 -0.36444506915E+02 -0.14751773357E+02  0.91358775377E+02  0.99459754372E+02  0.00000000000E+00 0.  1.
         -4    1    1    2    0  502 -0.44045279751E+02 -0.18879806905E+01  0.13613714973E+02  0.46139835011E+02  0.00000000000E+00 0.  1.
<scales pt_clust_5="13000.00000" pt_clust_6="13000.00000" pt_clust_7="13000.00000" pt_clust_8="13000.00000" pt_clust_9="44.08575"></scales>
<clustering>
<clus scale="   44.086">  1  9  2 -1</clus>
<clus scale="   83.727">  5  6 -1 -1</clus>
<clus scale="   95.303">  7  8 -1 -1</clus>
<clus scale="  167.730">  1  5  2 -1</clus>
<clus scale="   44.086">  1  5  2 -1</clus>
</clustering>
</event>
<event>
 9    2  0.6175212E-005  0.1153172E+03  0.7546771E-02  0.1255174E+00
         21   -1    0    0  501  502  0.00000000000E+00  0.00000000000E+00  0.22054101927E+02  0.22054101927E+02  0.00000000000E+00 0.  1.
          2   -1    0    0  502    0 -0.00000000000E+00 -0.00000000000E+00 -0.11990574585E+04  0.11990574585E+04  0.00000000000E+00 0. -1.
         24    2    1    2    0    0  0.15320782897E+02 -0.75696223933E+02 -0.38357612056E+03  0.39903033786E+03  0.78293841191E+02 0.  0.
         23    2    1    2    0    0  0.52158903332E+02  0.63406274691E+02 -0.29937607990E+03  0.32329159180E+03  0.90280170801E+02 0.  0.
        -11    1    3    3    0    0 -0.20586172061E+02 -0.51601066493E+02 -0.12399429174E+03  0.13587142793E+03  0.00000000000E+00 0.  1.
         12    1    3    3    0    0  0.35906954958E+02 -0.24095157440E+02 -0.25958182882E+03  0.26315890994E+03  0.00000000000E+00 0. -1.
        -11    1    4    4    0    0  0.70807894306E+02  0.23313263874E+02 -0.22187343344E+03  0.23406214268E+03  0.00000000000E+00 0.  1.
         11    1    4    4    0    0 -0.18648990975E+02  0.40093010818E+02 -0.77502646459E+02  0.89229449113E+02  0.00000000000E+00 0. -1.
          1    1    1    2  501    0 -0.67479686229E+02  0.12289949242E+02 -0.49405115610E+03  0.49878963075E+03  0.00000000000E+00 0. -1.
<scales pt_clust_5="13000.00000" pt_clust_6="13000.00000" pt_clust_7="13000.00000" pt_clust_8="13000.00000" pt_clust_9="68.58976"></scales>
<clustering>
<clus scale="   68.590">  1  9  2 -1</clus>
<clus scale="   78.294">  5  6 -1 -1</clus>
<clus scale="   90.280">  7  8 -1 -1</clus>
<clus scale="  106.195">  2  5  1 -1</clus>
<clus scale="   68.590">  1  5  2 -1</clus>
</clustering>
</event>
<event>
 9    2  0.6175212E-005  0.9357599E+02  0.7546771E-02  0.1301089E+00
          2   -1    0    0  502    0 -0.00000000000E+00  0.00000000000E+00  0.60982355221E+03  0.60982355221E+03  0.00000000000E+00 0. -1.
         21   -1    0    0  501  502  0.00000000000E+00 -0.00000000000E+00 -0.44325167483E+02  0.44325167483E+02  0.00000000000E+00 0. -1.
         24    2    1    2    0    0  0.85672580993E+01  0.24806295388E+02  0.31748132277E+03  0.32848040550E+03  0.80101412506E+02 0.  0.
         23    2    1    2    0    0 -0.46157656260E+02  0.39370953960E+02  0.22073235825E+03  0.24644576422E+03  0.91280553660E+02 0.  0.
        -13    1    3    3    0    0  0.24041315627E+02 -0.15371535698E+02  0.50114376505E+02  0.57669053219E+02  0.00000000000E+00 0.  1.
         14    1    3    3    0    0 -0.15474057527E+02  0.40177831086E+02  0.26736694626E+03  0.27081135228E+03  0.00000000000E+00 0. -1.
        -13    1    4    4    0    0 -0.70874235092E+02  0.10679540548E+02  0.14055178391E+03  0.15777203093E+03  0.00000000000E+00 0. -1.
         13    1    4    4    0    0  0.24716578832E+02  0.28691413412E+02  0.80180574346E+02  0.88673733288E+02  0.00000000000E+00 0.  1.
          1    1    1    2  501    0  0.37590398161E+02 -0.64177249348E+02  0.27284703702E+02  0.79222549971E+02  0.00000000000E+00 0. -1.
<scales pt_clust_5="13000.00000" pt_clust_6="13000.00000" pt_clust_7="13000.00000" pt_clust_8="13000.00000" pt_clust_9="74.37578"></scales>
<clustering>
<clus scale="   74.376">  2  9  1 -1</clus>
<clus scale="   80.101">  5  6 -1 -1</clus>
<clus scale="   82.708">  1  5  2 -1</clus>
<clus scale="   91.281">  7  8 -1 -1</clus>
<clus scale="   74.376">  2  5  1 -1</clus>
</clustering>
</event>
<event>
 9    2  0.6175212E-005  0.1851399E+03  0.7546771E-02  0.1163280E+00
          2   -1    0    0  502    0 -0.00000000000E+00  0.00000000000E+00  0.58305595942E+03  0.58305595942E+03  0.00000000000E+00 0. -1.
         21   -1    0    0  501  502  0.00000000000E+00 -0.00000000000E+00 -0.48078383268E+03  0.48078383268E+03  0.00000000000E+00 0. -1.
         23    2    1    2    0    0 -0.51533855385E+02 -0.14927632179E+03  0.37160843364E+03  0.41510034407E+03  0.96313598180E+02 0.  0.
         24    2    1    2    0    0 -0.12617587629E+02  0.16152814776E+03  0.13887867005E+03  0.23533288991E+03  0.99215613904E+02 0.  0.
        -13    1    4    4    0    0  0.28114442644E+02  0.13360417094E+03  0.12213508164E+03  0.18318699339E+03  0.00000000000E+00 0.  1.
         14    1    4    4    0    0 -0.40732030274E+02  0.27923976819E+02  0.16743588409E+02  0.52145896525E+02  0.00000000000E+00 0. -1.
        -11    1    3    3    0    0 -0.24409348358E+02 -0.10692157509E+03  0.13868958401E+03  0.17681300920E+03  0.00000000000E+00 0.  1.
         11    1    3    3    0    0 -0.27124507026E+02 -0.42354746704E+02  0.23291884963E+03  0.23828733488E+03  0.00000000000E+00 0. -1.
          1    1    1    2  501    0  0.64151443014E+02 -0.12251825972E+02 -0.40821497696E+03  0.41340655812E+03  0.00000000000E+00 0. -1.
<scales pt_clust_5="13000.00000" pt_clust_6="13000.00000" pt_clust_7="13000.00000" pt_clust_8="13000.00000" pt_clust_9="65.31091"></scales>
<clustering>
<clus scale="   65.311">  2  9  1 -1</clus>
<clus scale="   96.314">  7  8 -1 -1</clus>
<clus scale="   99.216">  5  6 -1 -1</clus>
<clus scale="  183.601">  1  7  2 -1</clus>
<clus scale="   65.311">  2  5  1 -1</clus>
</clustering>
</event>
<event>
 9    2  0.6175212E-005  0.2781344E+03  0.7546771E-02  0.1134267E+00
         -1   -1    0    0    0  501 -0.00000000000E+00  0.00000000000E+00  0.14958194908E+03  0.14958194908E+03  0.00000000000E+00 0.  1.
         21   -1    0    0  501  502  0.00000000000E+00 -0.00000000000E+00 -0.10570054063E+04  0.10570054063E+04  0.00000000000E+00 0.  1.
         24    2    1    2    0    0 -0.38424394675E+02  0.59543830200E+02 -0.68738400029E+02  0.12790153402E+03  0.81313793084E+02 0.  0.
         23    2    1    2    0    0  0.25392155164E+03  0.79342617002E+02 -0.76006599155E+03  0.81052648933E+03  0.92094913718E+02 0.  0.
        -11    1    3    3    0    0  0.24411308654E+02  0.57831519941E+01 -0.13972271659E+02  0.28715522153E+02  0.00000000000E+00 0.  1.
         12    1    3    3    0    0 -0.62835703329E+02  0.53760678206E+02 -0.54766128370E+02  0.99186011870E+02  0.00000000000E+00 0. -1.
        -11    1    4    4    0    0  0.13820884068E+03  0.71848225146E+02 -0.53681595076E+03  0.55895904688E+03  0.00000000000E+00 0.  1.
         11    1    4    4    0    0  0.11571271096E+03  0.74943918559E+01 -0.22325004079E+03  0.25156744245E+03  0.00000000000E+00 0. -1.
         -2    1    1    2    0  502 -0.21549715697E+03 -0.13888644720E+03 -0.78619065650E+02  0.26815933204E+03  0.00000000000E+00 0.  1.
<scales pt_clust_5="13000.00000" pt_clust_6="13000.00000" pt_clust_7="13000.00000" pt_clust_8="13000.00000" pt_clust_9="262.44490"></scales>
<clustering>
<clus scale="   81.314">  5  6 -1 -1</clus>
<clus scale="   92.095">  7  8 -1 -1</clus>
<clus scale="  107.860">  1  5  2 -1</clus>
<clus scale="  262.445">  2  9  1 -1</clus>
<clus scale="  262.445">  2  5  1 -1</clus>
</clustering>
</event>
<event>
 9    2  0.6175212E-005  0.1125876E+03  0.7546771E-02  0.1256377E+00
          2   -1    0    0  502    0 -0.00000000000E+00  0.00000000000E+00  0.13885293544E+03  0.13885293544E+03  0.00000000000E+00 0. -1.
         21   -1    0    0  501  502  0.00000000000E+00 -0.00000000000E+00 -0.20258392317E+03  0.20258392317E+03  0.00000000000E+00 0.  1.
         24    2    1    2    0    0 -0.39417824763E+02 -0.26251140467E+02 -0.13463830815E+02  0.10269297745E+03  0.90120394991E+02 0.  0.
         23    2    1    2    0    0  0.12060088923E+02  0.11081311613E+03 -0.36636038375E+02  0.14882735970E+03  0.91555399818E+02 0.  0.
        -11    1    3    3    0    0  0.17341891759E+02  0.19469124724E+02  0.69905765333E+01  0.26993632352E+02  0.00000000000E+00 0.  1.
         12    1    3    3    0    0 -0.56759716522E+02 -0.45720265191E+02 -0.20454407348E+02  0.75699345102E+02  0.00000000000E+00 0. -1.
        -13    1    4    4    0    0  0.11386400192E+02  0.84687893524E+02 -0.67131229819E+02  0.10866596264E+03  0.00000000000E+00 0.  1.
         13    1    4    4    0    0  0.67368873093E+00  0.26125222609E+02  0.30495191444E+02  0.40161397064E+02  0.00000000000E+00 0. -1.
          1    1    1    2  501    0  0.27357735840E+02 -0.84561975665E+02 -0.13631118543E+02  0.89916521460E+02  0.00000000000E+00 0. -1.
<scales pt_clust_5="13000.00000" pt_clust_6="13000.00000" pt_clust_7="13000.00000" pt_clust_8="13000.00000" pt_clust_9="88.87734"></scales>
<clustering>
<clus scale="   88.877">  2  9  1 -1</clus>
<clus scale="   90.120">  5  6 -1 -1</clus>
<clus scale="   91.555">  7  8 -1 -1</clus>
<clus scale="  111.424">  1  5  2 -1</clus>
<clus scale="   88.877">  2  5  1 -1</clus>
</clustering>
</event>
<event>
 9    2  0.6175212E-005  0.8325317E+02  0.7546771E-02  0.1323675E+00
         21   -1    0    0  501  502  0.00000000000E+00  0.00000000000E+00  0.66352506405E+02  0.66352506405E+02  0.00000000000E+00 0. -1.
          4   -1    0    0  502    0 -0.00000000000E+00 -0.00000000000E+00 -0.16118816568E+03  0.16118816568E+03  0.00000000000E+00 0. -1.
         23    2    1    2    0    0  0.34902610815E+02  0.20546182935E+02 -0.44027354589E+02  0.93646987284E+02  0.72048680768E+02 0.  0.
         24    2    1    2    0    0  0.40492118419E+01 -0.29455199571E+02 -0.27145923106E+02  0.87455302315E+02  0.77637129413E+02 0.  0.
        -13    1    4    4    0    0  0.39959552486E+02 -0.16378311718E+02 -0.55024548476E+01  0.43534950775E+02  0.00000000000E+00 0.  1.
         14    1    4    4    0    0 -0.35910340645E+02 -0.13076887853E+02 -0.21643468259E+02  0.43920351540E+02  0.00000000000E+00 0. -1.
        -11    1    3    3    0    0  0.23255192034E+02  0.38992894142E+02 -0.53236354707E+02  0.69966843666E+02  0.00000000000E+00 0. -1.
         11    1    3    3    0    0  0.11647418781E+02 -0.18446711207E+02  0.92090001178E+01  0.23680143618E+02  0.00000000000E+00 0.  1.
          3    1    1    2  501    0 -0.38951822657E+02  0.89090166361E+01 -0.23662381577E+02  0.46438382482E+02  0.00000000000E+00 0. -1.
<scales pt_clust_5="13000.00000" pt_clust_6="13000.00000" pt_clust_7="13000.00000" pt_clust_8="13000.00000" pt_clust_9="39.95769"></scales>
<clustering>
<clus scale="   39.958">  1  9  2 -1</clus>
<clus scale="   72.049">  7  8 -1 -1</clus>
<clus scale="   77.637">  5  6 -1 -1</clus>
<clus scale="   78.068">  2  7  1 -1</clus>
<clus scale="   39.958">  1  5  2 -1</clus>
</clustering>
</event>
<event>
 9    2  0.6175212E-005  0.1450430E+03  0.7546771E-02  0.1230893E+00
          2   -1    0    0  502    0 -0.00000000000E+00  0.00000000000E+00  0.13391207370E+04  0.13391207370E+04  0.00000000000E+00 0. -1.
         21   -1    0    0  501  502  0.00000000000E+00 -0.00000000000E+00 -0.22636759799E+02  0.22636759799E+02  0.00000000000E+00 0. -1.
         24    2    1    2    0    0 -0.17442418552E+02  0.25926864765E+02  0.32954592795E+03  0.34088237262E+03  0.81386934167E+02 0.  0.
         23    2    1    2    0    0 -0.66838200595E+02 -0.98306926694E+02  0.52494808289E+03  0.54571533511E+03  0.90017444703E+02 0.  0.
        -11    1    3    3    0    0  0.26537121894E+02 -0.44317397880E+01  0.55535824100E+02  0.61709698707E+02  0.00000000000E+00 0.  1.
         12    1    3    3    0    0 -0.43979540445E+02  0.30358604553E+02  0.27401010385E+03  0.27917267392E+03  0.00000000000E+00 0. -1.
        -13    1    4    4    0    0 -0.59024946773E+01 -0.60926884447E+02  0.12222133705E+03  0.13669301343E+03  0.00000000000E+00 0.  1.
         13    1    4    4    0    0 -0.60935705918E+02 -0.37380042247E+02  0.40272674584E+03  0.40902232167E+03  0.00000000000E+00 0. -1.
          1    1    1    2  501    0  0.84280619147E+02  0.72380061929E+02  0.46198996634E+03  0.47515978905E+03  0.00000000000E+00 0. -1.
<scales pt_clust_5="13000.00000" pt_clust_6="13000.00000" pt_clust_7="13000.00000" pt_clust_8="13000.00000" pt_clust_9="113.72920"></scales>
<clustering>
<clus scale="   81.387">  5  6 -1 -1</clus>
<clus scale="   87.180">  1  5  2 -1</clus>
<clus scale="   90.017">  7  8 -1 -1</clus>
<clus scale="  113.729">  2  9  1 -1</clus>
<clus scale="  113.729">  2  5  1 -1</clus>
</clustering>
</event>
<event>
 9    2  0.6175212E-005  0.9558934E+02  0.7546771E-02  0.1298244E+00
          2   -1    0    0  502    0 -0.00000000000E+00  0.00000000000E+00  0.36138381676E+03  0.36138381676E+03  0.00000000000E+00 0. -1.
         21   -1    0    0  501  502  0.00000000000E+00 -0.00000000000E+00 -0.11695408412E+03  0.11695408412E+03  0.00000000000E+00 0.  1.
         24    2    1    2    0    0  0.26956725453E+01 -0.16955399983E+02  0.30711941230E+03  0.31793648411E+03  0.80414689437E+02 0.  0.
         23    2    1    2    0    0  0.86344904862E+01 -0.49915581180E+01 -0.21091729972E+01  0.94979407074E+02  0.94430763415E+02 0.  0.
        -13    1    3    3    0    0 -0.19475356567E+01  0.24087643723E+02  0.34011574963E+02  0.41722831959E+02  0.00000000000E+00 0.  1.
         14    1    3    3    0    0  0.46432082021E+01 -0.41043043706E+02  0.27310783734E+03  0.27621365215E+03  0.00000000000E+00 0. -1.
        -13    1    4    4    0    0 -0.40543487444E+02  0.80708687175E+01 -0.12207567847E+02  0.43103805038E+02  0.00000000000E+00 0.  1.
         13    1    4    4    0    0  0.49177977930E+02 -0.13062426835E+02  0.10098394850E+02  0.51875602037E+02  0.00000000000E+00 0. -1.
          1    1    1    2  501    0 -0.11330163031E+02  0.21946958101E+02 -0.60580506664E+02  0.65422009690E+02  0.00000000000E+00 0. -1.
<scales pt_clust_5="13000.00000" pt_clust_6="13000.00000" pt_clust_7="13000.00000" pt_clust_8="13000.00000" pt_clust_9="24.69902"></scales>
<clustering>
<clus scale="   24.699">  2  9  1 -1</clus>
<clus scale="   80.415">  5  6 -1 -1</clus>
<clus scale="   81.772">  1  5  2 -1</clus>
<clus scale="   94.431">  7  8 -1 -1</clus>
<clus scale="   24.699">  2  5  1 -1</clus>
</clustering>
</event>
<event>
 9    2  0.6175212E-005  0.1041976E+03  0.7546771E-02  0.1277323E+00
         21   -1    0    0  501  502  0.00000000000E+00  0.00000000000E+00  0.12484048108E+03  0.12484048108E+03  0.00000000000E+00 0.  1.
          2   -1    0    0  502    0 -0.00000000000E+00 -0.00000000000E+00 -0.23637009407E+03  0.23637009407E+03  0.00000000000E+00 0. -1.
         23    2    1    2    0    0  0.20695298510E+02  0.90949475872E+01  0.75465196064E+01  0.94273931076E+02  0.91211899829E+02 0.  0.
         24    2    1    2    0    0 -0.77910907638E+02  0.51682574022E+02 -0.95035082607E+00  0.12229490259E+03  0.78828561110E+02 0.  0.
        -11    1    4    4    0    0 -0.24834548458E+02 -0.62892713941E+01  0.28534404883E+02  0.38347385749E+02  0.00000000000E+00 0.  1.
         12    1    4    4    0    0 -0.53076359180E+02  0.57971845416E+02 -0.29484755709E+02  0.83947516842E+02  0.00000000000E+00 0. -1.
        -11    1    3    3    0    0 -0.75319091254E+01  0.29361167090E+02  0.37624313752E+02  0.48315595549E+02  0.00000000000E+00 0.  1.
         11    1    3    3    0    0  0.28227207635E+02 -0.20266219503E+02 -0.30077794145E+02  0.45958335527E+02  0.00000000000E+00 0. -1.
          1    1    1    2  501    0  0.57215609128E+02 -0.60777521609E+02 -0.11812578177E+03  0.14464174149E+03  0.00000000000E+00 0. -1.
<scales pt_clust_5="13000.00000" pt_clust_6="13000.00000" pt_clust_7="13000.00000" pt_clust_8="13000.00000" pt_clust_9="83.47179"></scales>
<clustering>
<clus scale="   78.829">  5  6 -1 -1</clus>
<clus scale="   83.472">  1  9  2 -1</clus>
<clus scale="   91.212">  7  8 -1 -1</clus>
<clus scale="   93.549">  1  5  2 -1</clus>
<clus scale="   83.472">  1  5  2 -1</clus>
</clustering>
</event>
<event>
 9    2  0.6175212E-005  0.9221376E+02  0.7546771E-02  0.1302517E+00
         21   -1    0    0  501  502  0.00000000000E+00  0.00000000000E+00  0.11105839431E+03  0.11105839431E+03  0.00000000000E+00 0. -1.
          2   -1    0    0  502    0 -0.00000000000E+00 -0.00000000000E+00 -0.20177234079E+03  0.20177234079E+03  0.00000000000E+00 0. -1.
         23    2    1    2    0    0 -0.20585207476E+02 -0.20390598920E+02 -0.15047991836E+03  0.17732997946E+03  0.89231096004E+02 0.  0.
         24    2    1    2    0    0  0.96620613460E+01 -0.90714642404E+01  0.19231813963E+02  0.84213854339E+02  0.80910220006E+02 0.  0.
        -11    1    4    4    0    0  0.27341038888E+02 -0.19380794174E+02 -0.20666318332E+02  0.39373141908E+02  0.00000000000E+00 0.  1.
         12    1    4    4    0    0 -0.17678977542E+02  0.10309329934E+02  0.39898132296E+02  0.44840712431E+02  0.00000000000E+00 0. -1.
        -11    1    3    3    0    0  0.26882676697E+01 -0.31888982146E+02 -0.14780930908E+03  0.15123401011E+03  0.00000000000E+00 0. -1.
         11    1    3    3    0    0 -0.23273475146E+02  0.11498383226E+02 -0.26706092855E+01  0.26095969346E+02  0.00000000000E+00 0.  1.
          1    1    1    2  501    0  0.10923146130E+02  0.29462063160E+02  0.40534157913E+02  0.51286901298E+02  0.00000000000E+00 0. -1.
<scales pt_clust_5="13000.00000" pt_clust_6="13000.00000" pt_clust_7="13000.00000" pt_clust_8="13000.00000" pt_clust_9="31.42178"></scales>
<clustering>
<clus scale="   31.422">  1  9  2 -1</clus>
<clus scale="   80.910">  5  6 -1 -1</clus>
<clus scale="   84.188">  1  5  2 -1</clus>
<clus scale="   89.231">  7  8 -1 -1</clus>
<clus scale="   31.422">  1  5  2 -1</clus>
</clustering>
</event>
<event>
 9    2  0.6175212E-005  0.1269446E+03  0.7546771E-02  0.1232396E+00
         -3   -1    0    0    0  501 -0.00000000000E+00  0.00000000000E+00  0.43022057588E+02  0.43022057588E+02  0.00000000000E+00 0.  1.
         21   -1    0    0  501  502  0.00000000000E+00 -0.00000000000E+00 -0.64222044552E+03  0.64222044552E+03  0.00000000000E+00 0. -1.
         23    2    1    2    0    0 -0.10236995692E+03  0.61099336300E+01 -0.20184593402E+03  0.24497366341E+03  0.93559474752E+02 0.  0.
         24    2    1    2    0    0  0.55643884098E+02  0.27545388070E+02 -0.34249021418E+03  0.36073348964E+03  0.94731797700E+02 0.  0.
        -13    1    4    4    0    0  0.96116456366E+01  0.32153205112E+02 -0.30551289898E+02  0.45382746118E+02  0.00000000000E+00 0.  1.
         14    1    4    4    0    0  0.46032238461E+02 -0.46078170424E+01 -0.31193892428E+03  0.31535074352E+03  0.00000000000E+00 0. -1.
        -13    1    3    3    0    0 -0.18626882744E+02 -0.25961958569E+02 -0.11784866150E+03  0.12210360793E+03  0.00000000000E+00 0.  1.
         13    1    3    3    0    0 -0.83743074180E+02  0.32071892199E+02 -0.83997272520E+02  0.12287005548E+03  0.00000000000E+00 0. -1.
         -4    1    1    2    0  502  0.46726072826E+02 -0.33655321700E+02 -0.54862239731E+02  0.79535350058E+02  0.00000000000E+00 0.  1.
<scales pt_clust_5="13000.00000" pt_clust_6="13000.00000" pt_clust_7="13000.00000" pt_clust_8="13000.00000" pt_clust_9="57.58481"></scales>
<clustering>
<clus scale="   57.585">  2  9  1 -1</clus>
<clus scale="   93.559">  7  8 -1 -1</clus>
<clus scale="   94.732">  5  6 -1 -1</clus>
<clus scale="  126.072">  1  7  2 -1</clus>
<clus scale="   57.585">  2  5  1 -1</clus>
</clustering>
</event>
<event>
 9    2  0.6175212E-005  0.2729762E+03  0.7546771E-02  0.1125342E+00
         21   -1    0    0  501  502  0.00000000000E+00  0.00000000000E+00  0.10430197440E+04  0.10430197440E+04  0.00000000000E+00 0. -1.
          2   -1    0    0  502    0 -0.00000000000E+00 -0.00000000000E+00 -0.49212339192E+03  0.49212339192E+03  0.00000000000E+00 0. -1.
         23    2    1    2    0    0 -0.96722244950E+02  0.53425839118E+02  0.34199614051E+03  0.37032861582E+03  0.89288356547E+02 0.  0.
         24    2    1    2    0    0  0.34723938661E+03 -0.10091760413E+03 -0.37533025167E+03  0.52736684367E+03  0.80519783626E+02 0.  0.
        -11    1    4    4    0    0  0.11412589085E+03 -0.34255892379E+02 -0.18071970082E+03  0.21646661496E+03  0.00000000000E+00 0.  1.
         12    1    4    4    0    0  0.23311349575E+03 -0.66661711747E+02 -0.19461055085E+03  0.31090022872E+03  0.00000000000E+00 0. -1.
        -13    1    3    3    0    0  0.12627232666E+02  0.19180883129E+02  0.99600728915E+02  0.10221378812E+03  0.00000000000E+00 0. -1.
         13    1    3    3    0    0 -0.10934947762E+03  0.34244955989E+02  0.24239541160E+03  0.26811482769E+03  0.00000000000E+00 0.  1.
          1    1    1    2  501    0 -0.25051714166E+03  0.47491765008E+02  0.58423046320E+03  0.63744767640E+03  0.00000000000E+00 0. -1.
<scales pt_clust_5="13000.00000" pt_clust_6="13000.00000" pt_clust_7="13000.00000" pt_clust_8="13000.00000" pt_clust_9="260.83053"></scales>
<clustering>
<clus scale="   80.520">  5  6 -1 -1</clus>
<clus scale="   89.288">  7  8 -1 -1</clus>
<clus scale="  142.063">  2  7  1 -1</clus>
<clus scale="  260.831">  1  9  2 -1</clus>
<clus scale="  260.831">  1  5  2 -1</clus>
</clustering>
</event>
<event>
 9    2  0.6175212E-005  0.9678117E+02  0.7546771E-02  0.1288757E+00
         21   -1    0    0  501  502  0.00000000000E+00  0.00000000000E+00  0.12372058309E+03  0.12372058309E+03  0.00000000000E+00 0. -1.
         -3   -1    0    0    0  501 -0.00000000000E+00 -0.00000000000E+00 -0.11250764166E+03  0.11250764166E+03  0.00000000000E+00 0.  1.
         23    2    1    2    0    0  0.37538198964E+02  0.90311870621E+01 -0.62873458416E+01  0.10027253426E+03  0.92327524003E+02 0.  0.
         24    2    1    2    0    0 -0.10833084404E+02 -0.13923161290E+02  0.41097429256E+02  0.99984595624E+02  0.89424328528E+02 0.  0.
        -13    1    4    4    0    0  0.28381973259E+02  0.23111216992E+02  0.11007651850E+02  0.38220847141E+02  0.00000000000E+00 0.  1.
         14    1    4    4    0    0 -0.39215057663E+02 -0.37034378282E+02  0.30089777406E+02  0.61763748482E+02  0.00000000000E+00 0. -1.
        -11    1    3    3    0    0  0.59359088887E+02  0.83266158036E+01 -0.30846918521E+02  0.67411915463E+02  0.00000000000E+00 0. -1.
         11    1    3    3    0    0 -0.21820889923E+02  0.70457125856E+00  0.24559572679E+02  0.32860618799E+02  0.00000000000E+00 0.  1.
         -4    1    1    2    0  502 -0.26705114560E+02  0.48919742279E+01 -0.23597141985E+02  0.35971094859E+02  0.00000000000E+00 0.  1.
<scales pt_clust_5="13000.00000" pt_clust_6="13000.00000" pt_clust_7="13000.00000" pt_clust_8="13000.00000" pt_clust_9="27.14950"></scales>
<clustering>
<clus scale="   27.149">  1  9  2 -1</clus>
<clus scale="   89.424">  5  6 -1 -1</clus>
<clus scale="   92.328">  7  8 -1 -1</clus>
<clus scale="   94.016">  1  5  2 -1</clus>
<clus scale="   27.149">  1  5  2 -1</clus>
</clustering>
</event>
<event>
 9    2  0.6175212E-005  0.1050251E+03  0.7546771E-02  0.1274235E+00
         21   -1    0    0  501  502  0.00000000000E+00  0.00000000000E+00  0.58966630796E+02  0.58966630796E+02  0.00000000000E+00 0.  1.
         -1   -1    0    0    0  501 -0.00000000000E+00 -0.00000000000E+00 -0.31395971737E+03  0.31395971737E+03  0.00000000000E+00 0.  1.
         24    2    1    2    0    0 -0.58277290750E+02 -0.39348948194E+02 -0.18693789684E+03  0.21777977900E+03  0.86819770336E+02 0.  0.
         23    2    1    2    0    0  0.40278537011E+02  0.21092695643E+02 -0.85919396496E+02  0.12389955688E+03  0.76822491158E+02 0.  0.
        -13    1    3    3    0    0 -0.69927883035E+02 -0.50611045707E+02 -0.18098525507E+03  0.20051695521E+03  0.00000000000E+00 0.  1.
         14    1    3    3    0    0  0.11650592285E+02  0.11262097513E+02 -0.59526417749E+01  0.17262823787E+02  0.00000000000E+00 0. -1.
        -13    1    4    4    0    0  0.19022015458E+02 -0.13657770125E+02  0.52893460107E+01  0.24007268443E+02  0.00000000000E+00 0.  1.
         13    1    4    4    0    0  0.21256521553E+02  0.34750465768E+02 -0.91208742507E+02  0.99892288438E+02  0.00000000000E+00 0. -1.
         -2    1    1    2    0  502  0.17998753739E+02  0.18256252551E+02  0.17864206770E+02  0.31247012287E+02  0.00000000000E+00 0.  1.
<scales pt_clust_5="13000.00000" pt_clust_6="13000.00000" pt_clust_7="13000.00000" pt_clust_8="13000.00000" pt_clust_9="25.63681"></scales>
<clustering>
<clus scale="   25.637">  1  9  2 -1</clus>
<clus scale="   76.822">  7  8 -1 -1</clus>
<clus scale="   86.820">  5  6 -1 -1</clus>
<clus scale="   96.924">  1  7  2 -1</clus>
<clus scale="   25.637">  1  5  2 -1</clus>
</clustering>
</event>
<event>
 9    2  0.6175212E-005  0.1128913E+03  0.7546771E-02  0.1258525E+00
         21   -1    0    0  501  502  0.00000000000E+00  0.00000000000E+00  0.52085940562E+02  0.52085940562E+02  0.00000000000E+00 0.  1.
          2   -1    0    0  502    0 -0.00000000000E+00 -0.00000000000E+00 -0.36487980333E+03  0.36487980333E+03  0.00000000000E+00 0. -1.
         24    2    1    2    0    0  0.11703679360E+02  0.70693719264E+02 -0.17447543860E+03  0.20561884458E+03  0.81870950402E+02 0.  0.
         23    2    1    2    0    0  0.32347013078E+02 -0.61206905877E+02 -0.10747923774E+03  0.15674361596E+03  0.90687154647E+02 0.  0.
        -11    1    3    3    0    0  0.44979498694E+02  0.47983072728E+02 -0.84847926370E+02  0.10735316102E+03  0.00000000000E+00 0.  1.
         12    1    3    3    0    0 -0.33275819333E+02  0.22710646535E+02 -0.89627512228E+02  0.98265683565E+02  0.00000000000E+00 0. -1.
        -13    1    4    4    0    0  0.50158723228E+02 -0.18112787900E+01 -0.62398245900E+02  0.80079456405E+02  0.00000000000E+00 0.  1.
         13    1    4    4    0    0 -0.17811710149E+02 -0.59395627087E+02 -0.45080991835E+02  0.76664159555E+02  0.00000000000E+00 0. -1.
          1    1    1    2  501    0 -0.44050692439E+02 -0.94868133873E+01 -0.30839186434E+02  0.54603283349E+02  0.00000000000E+00 0. -1.
<scales pt_clust_5="13000.00000" pt_clust_6="13000.00000" pt_clust_7="13000.00000" pt_clust_8="13000.00000" pt_clust_9="45.06066"></scales>
<clustering>
<clus scale="   45.061">  1  9  2 -1</clus>
<clus scale="   81.871">  5  6 -1 -1</clus>
<clus scale="   90.687">  7  8 -1 -1</clus>
<clus scale="  105.939">  2  5  1 -1</clus>
<clus scale="   45.061">  1  5  2 -1</clus>
</clustering>
</event>
<event>
 9    2  0.6175212E-005  0.1013341E+03  0.7546771E-02  0.1281079E+00
         21   -1    0    0  501  502  0.00000000000E+00  0.00000000000E+00  0.44429995528E+02  0.44429995528E+02  0.00000000000E+00 0.  1.
          2   -1    0    0  502    0 -0.00000000000E+00 -0.00000000000E+00 -0.13931391128E+04  0.13931391128E+04  0.00000000000E+00 0. -1.
         24    2    1    2    0    0 -0.10486181134E+02  0.47564461961E+02 -0.11360939227E+04  0.11401075072E+04  0.82239824680E+02 0.  0.
         23    2    1    2    0    0  0.17629767057E+02 -0.72004756438E+01 -0.11875804002E+02  0.92579720177E+02  0.89818229394E+02 0.  0.
        -11    1    3    3    0    0 -0.24198715181E+02 -0.29917393017E+01 -0.10967214252E+03  0.11234993176E+03  0.00000000000E+00 0.  1.
         12    1    3    3    0    0  0.13712534048E+02  0.50556201263E+02 -0.10264217802E+04  0.10277575755E+04  0.00000000000E+00 0. -1.
        -13    1    4    4    0    0  0.46568271460E+02 -0.93255330786E+01  0.18132936804E+02  0.50836727580E+02  0.00000000000E+00 0.  1.
         13    1    4    4    0    0 -0.28938504403E+02  0.21250574348E+01 -0.30008740806E+02  0.41742992597E+02  0.00000000000E+00 0. -1.
          1    1    1    2  501    0 -0.71435859232E+01 -0.40363986317E+02 -0.20073939056E+03  0.20488188093E+03  0.00000000000E+00 0. -1.
<scales pt_clust_5="13000.00000" pt_clust_6="13000.00000" pt_clust_7="13000.00000" pt_clust_8="13000.00000" pt_clust_9="40.99127"></scales>
<clustering>
<clus scale="   40.991">  1  9  2 -1</clus>
<clus scale="   82.240">  5  6 -1 -1</clus>
<clus scale="   89.818">  7  8 -1 -1</clus>
<clus scale="   94.682">  2  5  1 -1</clus>
<clus scale="   40.991">  1  5  2 -1</clus>
</clustering>
</event>
<event>
 9    2  0.6175212E-005  0.1327875E+03  0.7546771E-02  0.1227320E+00
          2   -1    0    0  502    0 -0.00000000000E+00  0.00000000000E+00  0.41260136078E+03  0.41260136078E+03  0.00000000000E+00 0. -1.
         21   -1    0    0  501  502  0.00000000000E+00 -0.00000000000E+00 -0.54602615645E+02  0.54602615645E+02  0.00000000000E+00 0.  1.
         24    2    1    2    0    0  0.83316650653E+02  0.33508748868E+02  0.22770166245E+03  0.25789014380E+03  0.81208242581E+02 0.  0.
         23    2    1    2    0    0 -0.77304856089E+02 -0.59344918406E+02  0.11379453318E+03  0.17807309847E+03  0.96244337496E+02 0.  0.
        -13    1    3    3    0    0  0.32558382499E+02  0.51363269716E+02  0.78615208260E+02  0.99391069602E+02  0.00000000000E+00 0.  1.
         14    1    3    3    0    0  0.50758268155E+02 -0.17854520848E+02  0.14908645419E+03  0.15849907420E+03  0.00000000000E+00 0. -1.
        -11    1    4    4    0    0 -0.32418997336E+02 -0.80892000405E+02  0.70503091931E+02  0.11209457208E+03  0.00000000000E+00 0.  1.
         11    1    4    4    0    0 -0.44885858753E+02  0.21547081999E+02  0.43291441250E+02  0.65978526387E+02  0.00000000000E+00 0. -1.
          1    1    1    2  501    0 -0.60117945647E+01  0.25836169539E+02  0.16502549507E+02  0.31240734155E+02  0.00000000000E+00 0. -1.
<scales pt_clust_5="13000.00000" pt_clust_6="13000.00000" pt_clust_7="13000.00000" pt_clust_8="13000.00000" pt_clust_9="26.52639"></scales>
<clustering>
<clus scale="   26.526">  2  9  1 -1</clus>
<clus scale="   81.208">  5  6 -1 -1</clus>
<clus scale="   96.244">  7  8 -1 -1</clus>
<clus scale="  122.329">  1  5  2 -1</clus>
<clus scale="   26.526">  2  5  1 -1</clus>
</clustering>
</event>
<event>
 9    2  0.6175212E-005  0.9909284E+02  0.7546771E-02  0.1289886E+00
         21   -1    0    0  501  502  0.00000000000E+00  0.00000000000E+00  0.36927810973E+03  0.36927810973E+03  0.00000000000E+00 0. -1.
         -3   -1    0    0    0  501 -0.00000000000E+00 -0.00000000000E+00 -0.46729536952E+02  0.46729536952E+02  0.00000000000E+00 0.  1.
         23    2    1    2    0    0 -0.38945948830E+02 -0.43316083845E+01  0.58172362665E+02  0.11800079663E+03  0.94892647061E+02 0.  0.
         24    2    1    2    0    0 -0.37265816392E+01  0.29323016377E+02  0.19116492068E+03  0.20965862862E+03  0.80864002835E+02 0.  0.
        -13    1    4    4    0    0  0.15923550354E+02 -0.20958242178E+02  0.31143865530E+02  0.40776803837E+02  0.00000000000E+00 0.  1.
         14    1    4    4    0    0 -0.19650131993E+02  0.50281258555E+02  0.16002105515E+03  0.16888182478E+03  0.00000000000E+00 0. -1.
        -11    1    3    3    0    0 -0.34607817075E+02 -0.47241587728E+02  0.41436481654E+02  0.71738766546E+02  0.00000000000E+00 0.  1.
         11    1    3    3    0    0 -0.43381317548E+01  0.42909979343E+02  0.16735881011E+02  0.46262030085E+02  0.00000000000E+00 0. -1.
         -4    1    1    2    0  502  0.42672530469E+02 -0.24991407993E+02  0.73211289428E+02  0.88348221429E+02  0.00000000000E+00 0.  1.
<scales pt_clust_5="13000.00000" pt_clust_6="13000.00000" pt_clust_7="13000.00000" pt_clust_8="13000.00000" pt_clust_9="49.45215"></scales>
<clustering>
<clus scale="   49.452">  1  9  2 -1</clus>
<clus scale="   80.864">  5  6 -1 -1</clus>
<clus scale="   85.754">  1  5  2 -1</clus>
<clus scale="   94.893">  7  8 -1 -1</clus>
<clus scale="   49.452">  1  5  2 -1</clus>
</clustering>
</event>
<event>
 9    2  0.6175212E-005  0.1694391E+03  0.7546771E-02  0.1180133E+00
         21   -1    0    0  501  502  0.00000000000E+00  0.00000000000E+00  0.11820393941E+03  0.11820393941E+03  0.00000000000E+00 0. -1.
          4   -1    0    0  502    0 -0.00000000000E+00 -0.00000000000E+00 -0.40220696843E+03  0.40220696843E+03  0.00000000000E+00 0. -1.
         23    2    1    2    0    0  0.16070378613E+03 -0.41277919727E+02 -0.15277473400E+03  0.24374613009E+03  0.92425554112E+02 0.  0.
         24    2    1    2    0    0 -0.92227778689E+02  0.69624883968E+02 -0.18646037614E+02  0.14187873003E+03  0.80176752780E+02 0.  0.
        -11    1    4    4    0    0  0.90976667238E-01  0.35854740544E+02 -0.24463237741E+02  0.43405307245E+02  0.00000000000E+00 0.  1.
         12    1    4    4    0    0 -0.92318755356E+02  0.33770143424E+02  0.58172001268E+01  0.98473422783E+02  0.00000000000E+00 0. -1.
        -11    1    3    3    0    0  0.14277940416E+03 -0.50914180870E+02 -0.86743489030E+02  0.17465006429E+03  0.00000000000E+00 0. -1.
         11    1    3    3    0    0  0.17924381969E+02  0.96362611432E+01 -0.66031244966E+02  0.69096065804E+02  0.00000000000E+00 0.  1.
          3    1    1    2  501    0 -0.68476007443E+02 -0.28346964241E+02 -0.11258225741E+03  0.13478604772E+03  0.00000000000E+00 0. -1.
<scales pt_clust_5="13000.00000" pt_clust_6="13000.00000" pt_clust_7="13000.00000" pt_clust_8="13000.00000" pt_clust_9="74.11153"></scales>
<clustering>
<clus scale="   74.112">  1  9  2 -1</clus>
<clus scale="   80.177">  5  6 -1 -1</clus>
<clus scale="   92.426">  7  8 -1 -1</clus>
<clus scale="  163.081">  1  5  2 -1</clus>
<clus scale="   74.112">  1  5  2 -1</clus>
</clustering>
</event>
