<event>
 9    1  0.1399746E-005  0.9400103E+02  0.7546771E-02  0.1299765E+00
          1   -1    0    0  502    0 -0.00000000000E+00  0.00000000000E+00  0.40049214444E+03  0.40049214444E+03  0.00000000000E+00 0. -1.
         21   -1    0    0  501  502  0.00000000000E+00 -0.00000000000E+00 -0.33436039821E+02  0.33436039821E+02  0.00000000000E+00 0. -1.
         23    2    1    2    0    0 -0.83645920327E+01  0.27761095891E+02  0.18226107929E+03  0.20602471647E+03  0.91577496859E+02 0.  0.
         23    2    1    2    0    0  0.29054659431E+02  0.79039356101E+01  0.15367161999E+03  0.17624362148E+03  0.80871514683E+02 0.  0.
        -11    1    4    4    0    0 -0.22080032681E+02 -0.15449308928E+02  0.29592258669E+02  0.40023877407E+02  0.00000000000E+00 0.  1.
         11    1    4    4    0    0  0.51134692112E+02  0.23353244539E+02  0.12407936133E+03  0.13621974407E+03  0.00000000000E+00 0. -1.
        -13    1    3    3    0    0 -0.14168531038E+02  0.55169668805E+02  0.69621772554E+02  0.89953492658E+02  0.00000000000E+00 0. -1.
         13    1    3    3    0    0  0.58039390051E+01 -0.27408572914E+02  0.11263930673E+03  0.11607122382E+03  0.00000000000E+00 0.  1.
          1    1    1    2  501    0 -0.20690067398E+02 -0.35665031501E+02  0.31123405341E+02  0.51659846311E+02  0.00000000000E+00 0. -1.
<scales pt_clust_5="13000.00000" pt_clust_6="13000.00000" pt_clust_7="13000.00000" pt_clust_8="13000.00000" pt_clust_9="41.23195"></scales>
<clustering>
<clus scale="   41.232">  2  9  1 -1</clus>
<clus scale="   80.872">  5  6 -1 -1</clus>
<clus scale="   83.606">  2  5  1 -1</clus>
<clus scale="   91.577">  7  8 -1 -1</clus>
<clus scale="   41.232">  2  5  1 -1</clus>
</clustering>
</event>
<event>
 9    1  0.1399746E-005  0.9927620E+02  0.7546771E-02  0.1283065E+00
          1   -1    0    0  502    0 -0.00000000000E+00  0.00000000000E+00  0.90403198357E+02  0.90403198357E+02  0.00000000000E+00 0. -1.
         21   -1    0    0  501  502  0.00000000000E+00 -0.00000000000E+00 -0.25205414805E+03  0.25205414805E+03  0.00000000000E+00 0.  1.
         23    2    1    2    0    0  0.72010376414E+01  0.33025305054E+02  0.34538463588E+02  0.10150274919E+03  0.89260164172E+02 0.  0.
         23    2    1    2    0    0  0.59209002648E+01 -0.59339258674E+02 -0.14171636304E+03  0.17905207213E+03  0.91760080114E+02 0.  0.
        -11    1    4    4    0    0 -0.24289435430E+02 -0.19060087563E+01 -0.97568815451E+02  0.10056482134E+03  0.00000000000E+00 0.  1.
         11    1    4    4    0    0  0.30210335694E+02 -0.57433249917E+02 -0.44147547585E+02  0.78487250790E+02  0.00000000000E+00 0. -1.
        -11    1    3    3    0    0 -0.30153391475E+02 -0.14779881624E+02  0.20110357157E+02  0.39142028349E+02  0.00000000000E+00 0.  1.
         11    1    3    3    0    0  0.37354429117E+02  0.47805186678E+02  0.14428106431E+02  0.62360720836E+02  0.00000000000E+00 0. -1.
          1    1    1    2  501    0 -0.13121937906E+02  0.26313953619E+02 -0.54473050244E+02  0.61902525089E+02  0.00000000000E+00 0. -1.
<scales pt_clust_5="13000.00000" pt_clust_6="13000.00000" pt_clust_7="13000.00000" pt_clust_8="13000.00000" pt_clust_9="29.40424"></scales>
<clustering>
<clus scale="   29.404">  2  9  1 -1</clus>
<clus scale="   89.260">  7  8 -1 -1</clus>
<clus scale="   91.760">  5  6 -1 -1</clus>
<clus scale="   96.970">  1  7  2 -1</clus>
<clus scale="   29.404">  2  5  1 -1</clus>
</clustering>
</event>
<event>
 9    1  0.1399746E-005  0.1104459E+03  0.7546771E-02  0.1260275E+00
          1   -1    0    0  502    0 -0.00000000000E+00  0.00000000000E+00  0.72088645205E+02  0.72088645205E+02  0.00000000000E+00 0. -1.
         21   -1    0    0  501  502  0.00000000000E+00 -0.00000000000E+00 -0.25824351982E+03  0.25824351982E+03  0.00000000000E+00 0. -1.
         23    2    1    2    0    0 -0.58861469773E+02 -0.32117588434E+02 -0.21712601838E+02  0.11507494088E+03  0.90964788956E+02 0.  0.
         23    2    1    2    0    0  0.55708176648E+02  0.10995352750E+02 -0.94234265379E+02  0.14187291791E+03  0.89574155527E+02 0.  0.
        -13    1    3    3    0    0  0.22853482813E+02 -0.30552275512E+01  0.63560019532E+01  0.23916832000E+02  0.00000000000E+00 0.  1.
         13    1    3    3    0    0 -0.81714952587E+02 -0.29062360883E+02 -0.28068603791E+02  0.91158108883E+02  0.00000000000E+00 0. -1.
        -13    1    4    4    0    0  0.70145739599E+02 -0.12313857399E+02 -0.88953397462E+02  0.11395070332E+03  0.00000000000E+00 0.  1.
         13    1    4    4    0    0 -0.14437562950E+02  0.23309210148E+02 -0.52808679168E+01  0.27922214591E+02  0.00000000000E+00 0. -1.
          1    1    1    2  501    0  0.31532931249E+01  0.21122235685E+02 -0.70208007402E+02  0.73384306233E+02  0.00000000000E+00 0. -1.
<scales pt_clust_5="13000.00000" pt_clust_6="13000.00000" pt_clust_7="13000.00000" pt_clust_8="13000.00000" pt_clust_9="21.35631"></scales>
<clustering>
<clus scale="   21.356">  2  9  1 -1</clus>
<clus scale="   89.574">  7  8 -1 -1</clus>
<clus scale="   90.965">  5  6 -1 -1</clus>
<clus scale="  109.303">  2  7  1 -1</clus>
<clus scale="   21.356">  2  5  1 -1</clus>
</clustering>
</event>
<event>
 9    1  0.1399746E-005  0.9351451E+02  0.7546771E-02  0.1295748E+00
          1   -1    0    0  502    0 -0.00000000000E+00  0.00000000000E+00  0.17450993967E+02  0.17450993967E+02  0.00000000000E+00 0. -1.
         21   -1    0    0  501  502  0.00000000000E+00 -0.00000000000E+00 -0.86383752623E+03  0.86383752623E+03  0.00000000000E+00 0.  1.
         23    2    1    2    0    0 -0.16034389810E+02  0.13576414958E+02 -0.17810385353E+03  0.20065114067E+03  0.89991537984E+02 0.  0.
         23    2    1    2    0    0 -0.17170633815E+02 -0.17900846953E+02 -0.51277637127E+03  0.52156668466E+03  0.92070237465E+02 0.  0.
        -11    1    3    3    0    0 -0.41452715702E+01 -0.37702652177E+02 -0.55480455964E+02  0.67206802122E+02  0.00000000000E+00 0.  1.
         11    1    3    3    0    0 -0.11889118239E+02  0.51279067135E+02 -0.12262339757E+03  0.13344433855E+03  0.00000000000E+00 0. -1.
        -13    1    4    4    0    0  0.33575258178E+02  0.12915032366E+02 -0.19710285565E+03  0.20035875756E+03  0.00000000000E+00 0. -1.
         13    1    4    4    0    0 -0.50745891993E+02 -0.30815879319E+02 -0.31567351562E+03  0.32120792711E+03  0.00000000000E+00 0.  1.
          1    1    1    2  501    0  0.33205023624E+02  0.43244319955E+01 -0.15550630746E+03  0.15907069487E+03  0.00000000000E+00 0. -1.
<scales pt_clust_5="13000.00000" pt_clust_6="13000.00000" pt_clust_7="13000.00000" pt_clust_8="13000.00000" pt_clust_9="33.48543"></scales>
<clustering>
<clus scale="   33.485">  2  9  1 -1</clus>
<clus scale="   89.992">  5  6 -1 -1</clus>
<clus scale="   91.469">  1  5  2 -1</clus>
<clus scale="   92.070">  7  8 -1 -1</clus>
<clus scale="   33.485">  2  5  1 -1</clus>
</clustering>
</event>
<event>
 9    1  0.1399746E-005  0.9862161E+02  0.7546771E-02  0.1284921E+00
         21   -1    0    0  501  502  0.00000000000E+00  0.00000000000E+00  0.22627589225E+02  0.22627589225E+02  0.00000000000E+00 0.  1.
          2   -1    0    0  502    0 -0.00000000000E+00 -0.00000000000E+00 -0.64935544295E+03  0.64935544295E+03  0.00000000000E+00 0. -1.
         23    2    1    2    0    0  0.15513336817E+01 -0.28421006581E+02 -0.32983962369E+03  0.34230447102E+03  0.86994328956E+02 0.  0.
         23    2    1    2    0    0  0.24320138758E+01  0.57727051244E+02 -0.26643598871E+03  0.28722799799E+03  0.90407187837E+02 0.  0.
        -11    1    3    3    0    0 -0.26858587778E+01  0.31188568793E+02 -0.13034660569E+03  0.13405289358E+03  0.00000000000E+00 0.  1.
         11    1    3    3    0    0  0.42371924595E+01 -0.59609575374E+02 -0.19949301800E+03  0.20825157744E+03  0.00000000000E+00 0. -1.
        -13    1    4    4    0    0  0.38383123562E+02  0.37478761425E+01 -0.64686879500E+02  0.75310710589E+02  0.00000000000E+00 0. -1.
         13    1    4    4    0    0 -0.35951109686E+02  0.53979175101E+02 -0.20174910921E+03  0.21191728740E+03  0.00000000000E+00 0.  1.
          2    1    1    2  501    0 -0.39833475575E+01 -0.29306044663E+02 -0.30452241321E+02  0.42450563165E+02  0.00000000000E+00 0. -1.
<scales pt_clust_5="13000.00000" pt_clust_6="13000.00000" pt_clust_7="13000.00000" pt_clust_8="13000.00000" pt_clust_9="29.57552"></scales>
<clustering>
<clus scale="   29.576">  1  9  2 -1</clus>
<clus scale="   86.994">  5  6 -1 -1</clus>
<clus scale="   90.407">  7  8 -1 -1</clus>
<clus scale="   95.503">  2  5  1 -1</clus>
<clus scale="   29.576">  1  5  2 -1</clus>
</clustering>
</event>
<event>
 9    1  0.1399746E-005  0.1146004E+03  0.7546771E-02  0.1252884E+00
         21   -1    0    0  501  502  0.00000000000E+00  0.00000000000E+00  0.42187211785E+03  0.42187211785E+03  0.00000000000E+00 0.  1.
         -3   -1    0    0    0  501 -0.00000000000E+00 -0.00000000000E+00 -0.97997163168E+02  0.97997163168E+02  0.00000000000E+00 0.  1.
         23    2    1    2    0    0  0.63997023460E+02 -0.17343753786E+02  0.97627415865E+01  0.11158304944E+03  0.89213457464E+02 0.  0.
         23    2    1    2    0    0 -0.11007479481E+03 -0.49457743152E+02  0.28582712526E+03  0.32234644336E+03  0.87450301327E+02 0.  0.
        -11    1    4    4    0    0 -0.99842131893E+02 -0.17224739443E+02  0.26219419846E+03  0.28108884833E+03  0.00000000000E+00 0.  1.
         11    1    4    4    0    0 -0.10232662912E+02 -0.32233003708E+02  0.23632926801E+02  0.41257595029E+02  0.00000000000E+00 0. -1.
        -13    1    3    3    0    0 -0.15804164169E+02  0.16609288823E+02  0.96088159910E+01  0.24858990829E+02  0.00000000000E+00 0. -1.
         13    1    3    3    0    0  0.79801187630E+02 -0.33953042609E+02  0.15392559551E+00  0.86724058614E+02  0.00000000000E+00 0.  1.
         -3    1    1    2    0  502  0.46077771345E+02  0.66801496937E+02  0.28285087839E+02  0.85939788220E+02  0.00000000000E+00 0.  1.
<scales pt_clust_5="13000.00000" pt_clust_6="13000.00000" pt_clust_7="13000.00000" pt_clust_8="13000.00000" pt_clust_9="81.15176"></scales>
<clustering>
<clus scale="   81.152">  1  9  2 -1</clus>
<clus scale="   87.450">  5  6 -1 -1</clus>
<clus scale="   89.213">  7  8 -1 -1</clus>
<clus scale="  113.233">  1  5  2 -1</clus>
<clus scale="   81.152">  1  5  2 -1</clus>
</clustering>
</event>
<event>
 9    1  0.1399746E-005  0.1154151E+03  0.7546771E-02  0.1251738E+00
         21   -1    0    0  501  502  0.00000000000E+00  0.00000000000E+00  0.14187976202E+03  0.14187976202E+03  0.00000000000E+00 0.  1.
          2   -1    0    0  502    0 -0.00000000000E+00 -0.00000000000E+00 -0.19467354089E+03  0.19467354089E+03  0.00000000000E+00 0. -1.
         23    2    1    2    0    0  0.52601395098E+01 -0.70478450305E+02 -0.13641121606E+03  0.17932454921E+03  0.92489961928E+02 0.  0.
         23    2    1    2    0    0  0.40913536743E+01  0.44834229696E+02  0.59187750008E+02  0.12059699027E+03  0.94939965163E+02 0.  0.
        -13    1    4    4    0    0  0.33042249076E+02  0.29929858567E+02 -0.85906928452E+01  0.45402496202E+02  0.00000000000E+00 0. -1.
         13    1    4    4    0    0 -0.28950895401E+02  0.14904371129E+02  0.67778442853E+02  0.75194494073E+02  0.00000000000E+00 0.  1.
        -13    1    3    3    0    0 -0.66460593070E+00 -0.50341559335E+02 -0.14730824976E+03  0.15567412998E+03  0.00000000000E+00 0. -1.
         13    1    3    3    0    0  0.59247454405E+01 -0.20136890970E+02  0.10897033698E+02  0.23650419233E+02  0.00000000000E+00 0.  1.
          2    1    1    2  501    0 -0.93514931841E+01  0.25644220609E+02  0.24429687182E+02  0.36631763420E+02  0.00000000000E+00 0. -1.
<scales pt_clust_5="13000.00000" pt_clust_6="13000.00000" pt_clust_7="13000.00000" pt_clust_8="13000.00000" pt_clust_9="27.29609"></scales>
<clustering>
<clus scale="   27.296">  1  9  2 -1</clus>
<clus scale="   92.490">  7  8 -1 -1</clus>
<clus scale="   94.940">  5  6 -1 -1</clus>
<clus scale="  113.408">  2  7  1 -1</clus>
<clus scale="   27.296">  1  5  2 -1</clus>
</clustering>
</event>
<event>
 9    1  0.1399746E-005  0.1187318E+03  0.7546771E-02  0.1249175E+00
         -3   -1    0    0    0  501 -0.00000000000E+00  0.00000000000E+00  0.10125132591E+03  0.10125132591E+03  0.00000000000E+00 0.  1.
         21   -1    0    0  501  502  0.00000000000E+00 -0.00000000000E+00 -0.26860162787E+03  0.26860162787E+03  0.00000000000E+00 0. -1.
         23    2    1    2    0    0 -0.71921733407E+02  0.14845939434E+02  0.27416044425E+02  0.11919602571E+03  0.89793738090E+02 0.  0.
         23    2    1    2    0    0  0.30020242953E+02 -0.22615689685E+02 -0.10025913585E+03  0.14698573263E+03  0.10069869348E+03 0.  0.
        -13    1    4    4    0    0 -0.71610295337E+01  0.30863104182E+02 -0.57416393840E+01  0.32199036733E+02  0.00000000000E+00 0.  1.
         13    1    4    4    0    0  0.37181272487E+02 -0.53478793867E+02 -0.94517496469E+02  0.11478669590E+03  0.00000000000E+00 0. -1.
        -13    1    3    3    0    0 -0.32293740853E+02  0.52236857199E+02  0.17038932212E+02  0.63733038209E+02  0.00000000000E+00 0.  1.
         13    1    3    3    0    0 -0.39627992553E+02 -0.37390917766E+02  0.10377112213E+02  0.55462987506E+02  0.00000000000E+00 0. -1.
         -3    1    1    2    0  502  0.41901490453E+02  0.77697502513E+01 -0.94507210526E+02  0.10367119543E+03  0.00000000000E+00 0.  1.
<scales pt_clust_5="13000.00000" pt_clust_6="13000.00000" pt_clust_7="13000.00000" pt_clust_8="13000.00000" pt_clust_9="42.61577"></scales>
<clustering>
<clus scale="   42.616">  2  9  1 -1</clus>
<clus scale="   89.794">  7  8 -1 -1</clus>
<clus scale="  100.699">  5  6 -1 -1</clus>
<clus scale="  109.635">  1  7  2 -1</clus>
<clus scale="   42.616">  2  5  1 -1</clus>
</clustering>
</event>
<event>
 9    1  0.1399746E-005  0.1041280E+03  0.7546771E-02  0.1275133E+00
          2   -1    0    0  502    0 -0.00000000000E+00  0.00000000000E+00  0.44868820607E+03  0.44868820607E+03  0.00000000000E+00 0. -1.
         21   -1    0    0  501  502  0.00000000000E+00 -0.00000000000E+00 -0.11515938207E+03  0.11515938207E+03  0.00000000000E+00 0.  1.
         23    2    1    2    0    0  0.18878640044E+02 -0.32317763884E+02  0.35259571062E+03  0.36576487788E+03  0.89773993075E+02 0.  0.
         23    2    1    2    0    0  0.87079540276E+01  0.55071468909E+02  0.48460937789E+02  0.12167094196E+03  0.96678128215E+02 0.  0.
        -11    1    3    3    0    0  0.30321330760E+02 -0.56039362599E+02  0.30282131658E+03  0.30945200441E+03  0.00000000000E+00 0. -1.
         11    1    3    3    0    0 -0.11442690716E+02  0.23721598715E+02  0.49774394037E+02  0.56312873468E+02  0.00000000000E+00 0.  1.
        -11    1    4    4    0    0  0.29782575350E+02 -0.35426390738E+01  0.51183601477E+02  0.59323799155E+02  0.00000000000E+00 0. -1.
         11    1    4    4    0    0 -0.21074621322E+02  0.58614107983E+02 -0.27226636873E+01  0.62347142806E+02  0.00000000000E+00 0.  1.
          2    1    1    2  501    0 -0.27586594072E+02 -0.22753705025E+02 -0.67527824411E+02  0.76411768298E+02  0.00000000000E+00 0. -1.
<scales pt_clust_5="13000.00000" pt_clust_6="13000.00000" pt_clust_7="13000.00000" pt_clust_8="13000.00000" pt_clust_9="35.75963"></scales>
<clustering>
<clus scale="   35.760">  2  9  1 -1</clus>
<clus scale="   89.774">  5  6 -1 -1</clus>
<clus scale="   96.678">  7  8 -1 -1</clus>
<clus scale="   97.751">  1  5  2 -1</clus>
<clus scale="   35.760">  2  5  1 -1</clus>
</clustering>
</event>
<event>
 9    1  0.1399746E-005  0.2479219E+03  0.7546771E-02  0.1114920E+00
         21   -1    0    0  501  502  0.00000000000E+00  0.00000000000E+00  0.22680161067E+03  0.22680161067E+03  0.00000000000E+00 0.  1.
         -4   -1    0    0    0  501 -0.00000000000E+00 -0.00000000000E+00 -0.65365534842E+03  0.65365534842E+03  0.00000000000E+00 0.  1.
         23    2    1    2    0    0  0.17772579633E+03 -0.17315908400E+03 -0.33886736152E+03  0.43001354714E+03  0.92249850777E+02 0.  0.
         23    2    1    2    0    0 -0.90813162024E+02  0.19723727306E+03 -0.19917137497E+03  0.30728032616E+03  0.87191685148E+02 0.  0.
        -11    1    4    4    0    0 -0.14643323383E+02  0.13406038730E+03 -0.12069257870E+03  0.18097876372E+03  0.00000000000E+00 0. -1.
         11    1    4    4    0    0 -0.76169838641E+02  0.63176885762E+02 -0.78478796261E+02  0.12630156244E+03  0.00000000000E+00 0.  1.
        -13    1    3    3    0    0  0.97337101038E+02 -0.34449188158E+02 -0.15264258996E+03  0.18428515424E+03  0.00000000000E+00 0.  1.
         13    1    3    3    0    0  0.80388695288E+02 -0.13870989584E+03 -0.18622477157E+03  0.24572839291E+03  0.00000000000E+00 0. -1.
         -4    1    1    2    0  502 -0.86912634302E+02 -0.24078189057E+02  0.11118499874E+03  0.14316308579E+03  0.00000000000E+00 0.  1.
<scales pt_clust_5="13000.00000" pt_clust_6="13000.00000" pt_clust_7="13000.00000" pt_clust_8="13000.00000" pt_clust_9="90.18628"></scales>
<clustering>
<clus scale="   87.192">  5  6 -1 -1</clus>
<clus scale="   90.186">  1  9  2 -1</clus>
<clus scale="   92.250">  7  8 -1 -1</clus>
<clus scale="  246.085">  1  5  2 -1</clus>
<clus scale="   90.186">  1  5  2 -1</clus>
</clustering>
</event>
<event>
 9    1  0.1399746E-005  0.1038668E+03  0.7546771E-02  0.1273035E+00
         21   -1    0    0  501  502  0.00000000000E+00  0.00000000000E+00  0.66062974113E+02  0.66062974113E+02  0.00000000000E+00 0.  1.
         -1   -1    0    0    0  501 -0.00000000000E+00 -0.00000000000E+00 -0.24487495837E+03  0.24487495837E+03  0.00000000000E+00 0.  1.
         23    2    1    2    0    0  0.47681123228E+02 -0.26698116036E+02 -0.13397151054E+03  0.17194202685E+03  0.92894650259E+02 0.  0.
         23    2    1    2    0    0 -0.30673318754E+02  0.16028155737E+02 -0.59233936543E+02  0.11429195376E+03  0.91412456461E+02 0.  0.
        -11    1    4    4    0    0 -0.45973993396E+02  0.31850613427E+02 -0.70155313664E+02  0.89720887644E+02  0.00000000000E+00 0.  1.
         11    1    4    4    0    0  0.15300674642E+02 -0.15822457690E+02  0.10921377121E+02  0.24571066116E+02  0.00000000000E+00 0. -1.
        -13    1    3    3    0    0  0.31128364681E+02  0.13080402643E+02 -0.12290464724E+03  0.12745832391E+03  0.00000000000E+00 0.  1.
         13    1    3    3    0    0  0.16552758547E+02 -0.39778518679E+02 -0.11066863308E+02  0.44483702940E+02  0.00000000000E+00 0. -1.
         -1    1    1    2    0  502 -0.17007804474E+02  0.10669960299E+02  0.14393462833E+02  0.24703951873E+02  0.00000000000E+00 0.  1.
<scales pt_clust_5="13000.00000" pt_clust_6="13000.00000" pt_clust_7="13000.00000" pt_clust_8="13000.00000" pt_clust_9="20.07769"></scales>
<clustering>
<clus scale="   20.078">  1  9  2 -1</clus>
<clus scale="   91.412">  5  6 -1 -1</clus>
<clus scale="   92.895">  7  8 -1 -1</clus>
<clus scale="  102.543">  1  5  2 -1</clus>
<clus scale="   20.078">  1  5  2 -1</clus>
</clustering>
</event>
<event>
 9    1  0.1399746E-005  0.1295443E+03  0.7546771E-02  0.1229167E+00
         -4   -1    0    0    0  501 -0.00000000000E+00  0.00000000000E+00  0.22790452994E+03  0.22790452994E+03  0.00000000000E+00 0.  1.
         21   -1    0    0  501  502  0.00000000000E+00 -0.00000000000E+00 -0.98345817872E+02  0.98345817872E+02  0.00000000000E+00 0. -1.
         23    2    1    2    0    0  0.49784121022E+02  0.67206789242E+02  0.52437596827E+02  0.13221659679E+03  0.87956328253E+02 0.  0.
         23    2    1    2    0    0 -0.51185950551E+02 -0.88849999681E+02  0.28213903704E+02  0.14053319939E+03  0.91865291557E+02 0.  0.
        -13    1    3    3    0    0  0.10896456910E+02 -0.21509033080E+02  0.14832206533E+02  0.28308402072E+02  0.00000000000E+00 0.  1.
         13    1    3    3    0    0  0.38887664112E+02  0.88715822323E+02  0.37605390295E+02  0.10390819472E+03  0.00000000000E+00 0. -1.
        -13    1    4    4    0    0 -0.26964161569E+02  0.14855070487E+02  0.10787333865E+02  0.32620633044E+02  0.00000000000E+00 0. -1.
         13    1    4    4    0    0 -0.24221788982E+02 -0.10370507017E+03  0.17426569839E+02  0.10791256635E+03  0.00000000000E+00 0.  1.
         -4    1    1    2    0  502  0.14018295288E+01  0.21643210439E+02  0.48907211540E+02  0.53500551630E+02  0.00000000000E+00 0.  1.
<scales pt_clust_5="13000.00000" pt_clust_6="13000.00000" pt_clust_7="13000.00000" pt_clust_8="13000.00000" pt_clust_9="21.68857"></scales>
<clustering>
<clus scale="   21.689">  2  9  1 -1</clus>
<clus scale="   87.956">  5  6 -1 -1</clus>
<clus scale="   91.865">  7  8 -1 -1</clus>
<clus scale="  126.802">  1  5  2 -1</clus>
<clus scale="   21.689">  2  5  1 -1</clus>
</clustering>
</event>
<event>
 9    1  0.1399746E-005  0.9233563E+02  0.7546771E-02  0.1307461E+00
         21   -1    0    0  501  502  0.00000000000E+00  0.00000000000E+00  0.24323350747E+03  0.24323350747E+03  0.00000000000E+00 0. -1.
          2   -1    0    0  502    0 -0.00000000000E+00 -0.00000000000E+00 -0.20103836193E+03  0.20103836193E+03  0.00000000000E+00 0. -1.
         23    2    1    2    0    0  0.10610069868E+02 -0.16366633505E+00 -0.95312548683E+02  0.12204577822E+03  0.75485691856E+02 0.  0.
         23    2    1    2    0    0  0.24775637365E+01 -0.34407001149E+02 -0.64364600697E+02  0.11699733915E+03  0.91408946466E+02 0.  0.
        -11    1    4    4    0    0  0.17377853766E+02 -0.61750853074E+02 -0.54945264131E+02  0.84463836684E+02  0.00000000000E+00 0. -1.
         11    1    4    4    0    0 -0.14900290029E+02  0.27343851925E+02 -0.94193365659E+01  0.32533502461E+02  0.00000000000E+00 0.  1.
        -13    1    3    3    0    0  0.20581846783E+02 -0.25642891554E+02 -0.13091128317E+02  0.35391354098E+02  0.00000000000E+00 0. -1.
         13    1    3    3    0    0 -0.99717769147E+01  0.25479225219E+02 -0.82221420366E+02  0.86654424120E+02  0.00000000000E+00 0.  1.
          2    1    1    2  501    0 -0.13087633605E+02  0.34570667484E+02  0.20187229492E+03  0.20522875203E+03  0.00000000000E+00 0. -1.
<scales pt_clust_5="13000.00000" pt_clust_6="13000.00000" pt_clust_7="13000.00000" pt_clust_8="13000.00000" pt_clust_9="36.96508"></scales>
<clustering>
<clus scale="   36.965">  1  9  2 -1</clus>
<clus scale="   75.486">  7  8 -1 -1</clus>
<clus scale="   76.605">  2  7  1 -1</clus>
<clus scale="   91.409">  5  6 -1 -1</clus>
<clus scale="   36.965">  1  5  2 -1</clus>
</clustering>
</event>
<event>
 9    1  0.1399746E-005  0.1217568E+03  0.7546771E-02  0.1241598E+00
          1   -1    0    0  502    0 -0.00000000000E+00  0.00000000000E+00  0.61911991819E+03  0.61911991819E+03  0.00000000000E+00 0. -1.
         21   -1    0    0  501  502  0.00000000000E+00 -0.00000000000E+00 -0.10204389778E+03  0.10204389778E+03  0.00000000000E+00 0. -1.
         23    2    1    2    0    0 -0.53323432338E+02 -0.29023593684E+02  0.27606915338E+03  0.29561542210E+03  0.86536367544E+02 0.  0.
         23    2    1    2    0    0  0.92175668370E+02  0.71072628695E+02  0.30546694429E+03  0.33933517475E+03  0.91052920752E+02 0.  0.
        -11    1    3    3    0    0  0.23182967270E+01  0.26410048895E+02  0.84810786047E+02  0.88857946253E+02  0.00000000000E+00 0. -1.
         11    1    3    3    0    0 -0.55641729065E+02 -0.55433642580E+02  0.19125836733E+03  0.20675747584E+03  0.00000000000E+00 0.  1.
        -11    1    4    4    0    0 -0.16058726244E+02  0.18438561097E+02  0.81371248639E+02  0.84965542010E+02  0.00000000000E+00 0.  1.
         11    1    4    4    0    0  0.10823439461E+03  0.52634067599E+02  0.22409569566E+03  0.25436963274E+03  0.00000000000E+00 0. -1.
          1    1    1    2  501    0 -0.38852236032E+02 -0.42049035011E+02 -0.64460077270E+02  0.86213219124E+02  0.00000000000E+00 0. -1.
<scales pt_clust_5="13000.00000" pt_clust_6="13000.00000" pt_clust_7="13000.00000" pt_clust_8="13000.00000" pt_clust_9="57.25048"></scales>
<clustering>
<clus scale="   57.250">  2  9  1 -1</clus>
<clus scale="   86.536">  5  6 -1 -1</clus>
<clus scale="   91.053">  7  8 -1 -1</clus>
<clus scale="  118.417">  1  5  2 -1</clus>
<clus scale="   57.250">  2  5  1 -1</clus>
</clustering>
</event>
<event>
 9    1  0.1399746E-005  0.9896307E+02  0.7546771E-02  0.1282753E+00
         21   -1    0    0  501  502  0.00000000000E+00  0.00000000000E+00  0.91635973405E+02  0.91635973405E+02  0.00000000000E+00 0.  1.
          1   -1    0    0  502    0 -0.00000000000E+00 -0.00000000000E+00 -0.25094420492E+03  0.25094420492E+03  0.00000000000E+00 0. -1.
         23    2    1    2    0    0 -0.37472881518E+02 -0.11829871828E+01 -0.17521978468E+03  0.20015273571E+03  0.89182556382E+02 0.  0.
         23    2    1    2    0    0  0.59412981477E+02  0.21132993704E+02  0.20298923905E+01  0.10968494343E+03  0.89722686999E+02 0.  0.
        -11    1    3    3    0    0  0.18424848656E+02 -0.22069243751E+02 -0.23540074839E+02  0.37157256239E+02  0.00000000000E+00 0.  1.
         11    1    3    3    0    0 -0.55897730174E+02  0.20886256569E+02 -0.15167970984E+03  0.16299547948E+03  0.00000000000E+00 0. -1.
        -13    1    4    4    0    0 -0.36720033450E+00  0.38240793953E+02  0.22318445980E+02  0.44278732922E+02  0.00000000000E+00 0. -1.
         13    1    4    4    0    0  0.59780181812E+02 -0.17107800249E+02 -0.20288553590E+02  0.65406210512E+02  0.00000000000E+00 0.  1.
          1    1    1    2  501    0 -0.21940099959E+02 -0.19950006521E+02  0.13881660775E+02  0.32742499176E+02  0.00000000000E+00 0. -1.
<scales pt_clust_5="13000.00000" pt_clust_6="13000.00000" pt_clust_7="13000.00000" pt_clust_8="13000.00000" pt_clust_9="29.65419"></scales>
<clustering>
<clus scale="   29.654">  1  9  2 -1</clus>
<clus scale="   89.183">  5  6 -1 -1</clus>
<clus scale="   89.723">  7  8 -1 -1</clus>
<clus scale="   98.474">  2  5  1 -1</clus>
<clus scale="   29.654">  1  5  2 -1</clus>
</clustering>
</event>
<event>
 9    1  0.1399746E-005  0.1110582E+03  0.7546771E-02  0.1258952E+00
          1   -1    0    0  502    0 -0.00000000000E+00  0.00000000000E+00  0.55792849580E+03  0.55792849580E+03  0.00000000000E+00 0. -1.
         21   -1    0    0  501  502  0.00000000000E+00 -0.00000000000E+00 -0.52753350702E+02  0.52753350702E+02  0.00000000000E+00 0.  1.
         23    2    1    2    0    0 -0.11518691225E+02  0.33553844083E+02  0.11269065791E+03  0.14919836666E+03  0.91117657640E+02 0.  0.
         23    2    1    2    0    0  0.53610373158E+02 -0.91733952185E+02  0.13762705817E+03  0.19670254436E+03  0.91986377932E+02 0.  0.
        -11    1    3    3    0    0 -0.25319103045E+02  0.56162296575E+02  0.44363998608E+02  0.75917224054E+02  0.00000000000E+00 0. -1.
         11    1    3    3    0    0  0.13800411821E+02 -0.22608452492E+02  0.68326659298E+02  0.73281142604E+02  0.00000000000E+00 0.  1.
        -13    1    4    4    0    0  0.98705973563E+01 -0.90604614751E+02  0.65112380818E+02  0.11201003099E+03  0.00000000000E+00 0.  1.
         13    1    4    4    0    0  0.43739775802E+02 -0.11293374337E+01  0.72514677352E+02  0.84692513374E+02  0.00000000000E+00 0. -1.
          1    1    1    2  501    0 -0.42091681933E+02  0.58180108102E+02  0.25485742902E+03  0.26478093548E+03  0.00000000000E+00 0. -1.
<scales pt_clust_5="13000.00000" pt_clust_6="13000.00000" pt_clust_7="13000.00000" pt_clust_8="13000.00000" pt_clust_9="71.80975"></scales>
<clustering>
<clus scale="   71.810">  2  9  1 -1</clus>
<clus scale="   91.118">  5  6 -1 -1</clus>
<clus scale="   91.986">  7  8 -1 -1</clus>
<clus scale="  110.340">  1  5  2 -1</clus>
<clus scale="   71.810">  2  5  1 -1</clus>
</clustering>
</event>
<event>
 9    1  0.1399746E-005  0.9575270E+02  0.7546771E-02  0.1291891E+00
          2   -1    0    0  502    0 -0.00000000000E+00  0.00000000000E+00  0.29296317127E+03  0.29296317127E+03  0.00000000000E+00 0. -1.
         21   -1    0    0  501  502  0.00000000000E+00 -0.00000000000E+00 -0.97380326711E+02  0.97380326711E+02  0.00000000000E+00 0. -1.
         23    2    1    2    0    0  0.14351855566E+02  0.16821461811E+02  0.20092708496E+03  0.22113851774E+03  0.89675042357E+02 0.  0.
         23    2    1    2    0    0 -0.17079463030E+02  0.71565298128E+01  0.50571336843E+02  0.10830394820E+03  0.93964680119E+02 0.  0.
        -13    1    3    3    0    0  0.12934840619E+02 -0.36471495555E+02  0.94148768550E+02  0.10179130960E+03  0.00000000000E+00 0. -1.
         13    1    3    3    0    0  0.14170149469E+01  0.53292957366E+02  0.10677831641E+03  0.11934720815E+03  0.00000000000E+00 0.  1.
        -13    1    4    4    0    0  0.34906655585E+01  0.43260648920E+02  0.72213516970E+00  0.43407257115E+02  0.00000000000E+00 0.  1.
         13    1    4    4    0    0 -0.20570128588E+02 -0.36104119108E+02  0.49849201673E+02  0.64896691088E+02  0.00000000000E+00 0. -1.
          2    1    1    2  501    0  0.27276074637E+01 -0.23977991624E+02 -0.55915577245E+02  0.60901032039E+02  0.00000000000E+00 0. -1.
<scales pt_clust_5="13000.00000" pt_clust_6="13000.00000" pt_clust_7="13000.00000" pt_clust_8="13000.00000" pt_clust_9="24.13263"></scales>
<clustering>
<clus scale="   24.133">  2  9  1 -1</clus>
<clus scale="   89.675">  5  6 -1 -1</clus>
<clus scale="   91.547">  1  5  2 -1</clus>
<clus scale="   93.965">  7  8 -1 -1</clus>
<clus scale="   24.133">  2  5  1 -1</clus>
</clustering>
</event>
<event>
 9    1  0.1399746E-005  0.9888384E+02  0.7546771E-02  0.1283503E+00
         21   -1    0    0  501  502  0.00000000000E+00  0.00000000000E+00  0.55447186015E+02  0.55447186015E+02  0.00000000000E+00 0. -1.
          1   -1    0    0  502    0 -0.00000000000E+00 -0.00000000000E+00 -0.32134061597E+03  0.32134061597E+03  0.00000000000E+00 0. -1.
         23    2    1    2    0    0 -0.28249412671E+02  0.27308117821E+02 -0.21712476350E+03  0.23978652899E+03  0.93865083747E+02 0.  0.
         23    2    1    2    0    0  0.15537691651E+02  0.38148439578E+01 -0.42551520586E+02  0.10281239317E+03  0.92215960592E+02 0.  0.
        -11    1    3    3    0    0 -0.52654040990E+02  0.44286296754E+01 -0.63729118583E+02  0.82785634918E+02  0.00000000000E+00 0. -1.
         11    1    3    3    0    0  0.24404628319E+02  0.22879488146E+02 -0.15339564492E+03  0.15700089407E+03  0.00000000000E+00 0.  1.
        -13    1    4    4    0    0  0.52433881528E+01 -0.31980667749E+02  0.13833007415E+02  0.35236462977E+02  0.00000000000E+00 0.  1.
         13    1    4    4    0    0  0.10294303498E+02  0.35795511707E+02 -0.56384528002E+02  0.67575930188E+02  0.00000000000E+00 0. -1.
          1    1    1    2  501    0  0.12711721020E+02 -0.31122961779E+02 -0.62171458733E+01  0.34188879830E+02  0.00000000000E+00 0. -1.
<scales pt_clust_5="13000.00000" pt_clust_6="13000.00000" pt_clust_7="13000.00000" pt_clust_8="13000.00000" pt_clust_9="33.61884"></scales>
<clustering>
<clus scale="   33.619">  1  9  2 -1</clus>
<clus scale="   92.216">  7  8 -1 -1</clus>
<clus scale="   93.865">  5  6 -1 -1</clus>
<clus scale="   97.320">  1  7  2 -1</clus>
<clus scale="   33.619">  1  5  2 -1</clus>
</clustering>
</event>
<event>
 9    1  0.1975616E-005  0.9523395E+02  0.7546771E-02  0.1291012E+00
         -1   -1    0    0    0  501 -0.00000000000E+00  0.00000000000E+00  0.29242311942E+03  0.29242311942E+03  0.00000000000E+00 0.  1.
         21   -1    0    0  501  502  0.00000000000E+00 -0.00000000000E+00 -0.30075982239E+03  0.30075982239E+03  0.00000000000E+00 0.  1.
         23    2    1    2    0    0 -0.27286632215E+02 -0.35313450890E+01  0.24404483613E+03  0.26213718211E+03  0.91656911953E+02 0.  0.
         23    2    1    2    0    0 -0.52847298776E+01  0.13891353433E+02 -0.19309644187E+02  0.95481051810E+02  0.92319395719E+02 0.  0.
        -11    1    3    3    0    0 -0.60403005257E+02  0.62320393411E+01  0.14308309767E+03  0.15543530551E+03  0.00000000000E+00 0.  1.
         11    1    3    3    0    0  0.33116373042E+02 -0.97633844301E+01  0.10096173846E+03  0.10670187661E+03  0.00000000000E+00 0. -1.
        -13    1    4    4    0    0  0.44547409462E+01 -0.38709710144E+02 -0.11311453808E+01  0.38981609333E+02  0.00000000000E+00 0. -1.
         13    1    4    4    0    0 -0.97394708238E+01  0.52601063577E+02 -0.18178498806E+02  0.56499442477E+02  0.00000000000E+00 0.  1.
         -1    1    1    2    0  502  0.32571362093E+02 -0.10360008344E+02 -0.23307189492E+03  0.23556470789E+03  0.00000000000E+00 0.  1.
<scales pt_clust_5="13000.00000" pt_clust_6="13000.00000" pt_clust_7="13000.00000" pt_clust_8="13000.00000" pt_clust_9="34.17928"></scales>
<clustering>
<clus scale="   34.179">  2  9  1 -1</clus>
<clus scale="   91.657">  5  6 -1 -1</clus>
<clus scale="   92.319">  7  8 -1 -1</clus>
<clus scale="   94.592">  1  5  2 -1</clus>
<clus scale="   34.179">  2  5  1 -1</clus>
</clustering>
</event>
<event>
 9    1  0.1399746E-005  0.1151376E+03  0.7546771E-02  0.1252061E+00
          2   -1    0    0  502    0 -0.00000000000E+00  0.00000000000E+00  0.49093585451E+03  0.49093585451E+03  0.00000000000E+00 0. -1.
         21   -1    0    0  501  502  0.00000000000E+00 -0.00000000000E+00 -0.54906556445E+02  0.54906556445E+02  0.00000000000E+00 0.  1.
         23    2    1    2    0    0  0.41485463757E+02 -0.44289622947E+02  0.22030391527E+03  0.24646403765E+03  0.92347671159E+02 0.  0.
         23    2    1    2    0    0 -0.29682858702E+02  0.74808686381E+02  0.23288972233E+03  0.26242801105E+03  0.90296326377E+02 0.  0.
        -11    1    3    3    0    0  0.42248737397E+02 -0.65469772520E+02  0.11410462827E+03  0.13817059426E+03  0.00000000000E+00 0.  1.
         11    1    3    3    0    0 -0.76327364039E+00  0.21180149573E+02  0.10619928699E+03  0.10829344339E+03  0.00000000000E+00 0. -1.
        -11    1    4    4    0    0 -0.61097360532E+02  0.35709421244E+02  0.13936655043E+03  0.15630446445E+03  0.00000000000E+00 0. -1.
         11    1    4    4    0    0  0.31414501830E+02  0.39099265137E+02  0.93523171909E+02  0.10612354660E+03  0.00000000000E+00 0.  1.
          2    1    1    2  501    0 -0.11802605055E+02 -0.30519063434E+02 -0.17164339537E+02  0.36950362254E+02  0.00000000000E+00 0. -1.
<scales pt_clust_5="13000.00000" pt_clust_6="13000.00000" pt_clust_7="13000.00000" pt_clust_8="13000.00000" pt_clust_9="32.72178"></scales>
<clustering>
<clus scale="   32.722">  2  9  1 -1</clus>
<clus scale="   90.296">  7  8 -1 -1</clus>
<clus scale="   92.348">  5  6 -1 -1</clus>
<clus scale="  113.499">  2  7  1 -1</clus>
<clus scale="   32.722">  2  5  1 -1</clus>
</clustering>
</event>
<event>
 9    1  0.1399746E-005  0.1605883E+03  0.7546771E-02  0.1188594E+00
         21   -1    0    0  501  502  0.00000000000E+00  0.00000000000E+00  0.48192157008E+03  0.48192157008E+03  0.00000000000E+00 0.  1.
          1   -1    0    0  502    0 -0.00000000000E+00 -0.00000000000E+00 -0.17287809497E+03  0.17287809497E+03  0.00000000000E+00 0. -1.
         23    2    1    2    0    0 -0.95981869194E+02  0.72351064686E+02 -0.44196679315E+02  0.15595448221E+03  0.89001451014E+02 0.  0.
         23    2    1    2    0    0  0.10131810615E+03 -0.18490103703E+03  0.28774397368E+03  0.36851590221E+03  0.92485802484E+02 0.  0.
        -11    1    4    4    0    0  0.43239185691E+02 -0.16191363414E+03  0.21604538322E+03  0.27342505319E+03  0.00000000000E+00 0.  1.
         11    1    4    4    0    0  0.58078920456E+02 -0.22987402888E+02  0.71698590460E+02  0.95090849017E+02  0.00000000000E+00 0. -1.
        -13    1    3    3    0    0 -0.59724525549E+02 -0.59641599209E+01 -0.34186994134E+02  0.69074892136E+02  0.00000000000E+00 0. -1.
         13    1    3    3    0    0 -0.36257343645E+02  0.78315224607E+02 -0.10009685182E+02  0.86879590070E+02  0.00000000000E+00 0.  1.
          1    1    1    2  501    0 -0.53362369534E+01  0.11254997235E+03  0.65496180751E+02  0.13032928064E+03  0.00000000000E+00 0. -1.
<scales pt_clust_5="13000.00000" pt_clust_6="13000.00000" pt_clust_7="13000.00000" pt_clust_8="13000.00000" pt_clust_9="112.67640"></scales>
<clustering>
<clus scale="   89.001">  7  8 -1 -1</clus>
<clus scale="   92.486">  5  6 -1 -1</clus>
<clus scale="  112.676">  1  9  2 -1</clus>
<clus scale="  158.607">  2  7  1 -1</clus>
<clus scale="  112.676">  1  5  2 -1</clus>
</clustering>
</event>
<event>
 9    1  0.1399746E-005  0.9565399E+02  0.7546771E-02  0.1291739E+00
         -3   -1    0    0    0  501 -0.00000000000E+00  0.00000000000E+00  0.18317449631E+03  0.18317449631E+03  0.00000000000E+00 0.  1.
         21   -1    0    0  501  502  0.00000000000E+00 -0.00000000000E+00 -0.68963637006E+02  0.68963637006E+02  0.00000000000E+00 0. -1.
         23    2    1    2    0    0 -0.58782318392E+01  0.20524648297E+02  0.69228437454E+02  0.11853437471E+03  0.93819010010E+02 0.  0.
         23    2    1    2    0    0  0.27479205739E+02  0.20709416602E+01  0.37337036033E+02  0.10142279088E+03  0.90183882725E+02 0.  0.
        -11    1    3    3    0    0 -0.36666648507E+02  0.24131373335E+02  0.75097171494E+02  0.86984777163E+02  0.00000000000E+00 0.  1.
         11    1    3    3    0    0  0.30788416667E+02 -0.36067250378E+01 -0.58687340400E+01  0.31549597551E+02  0.00000000000E+00 0. -1.
        -11    1    4    4    0    0  0.18540170908E+02 -0.43631013814E+02  0.14624629087E+02  0.49611320076E+02  0.00000000000E+00 0. -1.
         11    1    4    4    0    0  0.89390348311E+01  0.45701955474E+02  0.22712406946E+02  0.51811470807E+02  0.00000000000E+00 0.  1.
         -3    1    1    2    0  502 -0.21600973900E+02 -0.22595589957E+02  0.76453858149E+01  0.32180967717E+02  0.00000000000E+00 0.  1.
<scales pt_clust_5="13000.00000" pt_clust_6="13000.00000" pt_clust_7="13000.00000" pt_clust_8="13000.00000" pt_clust_9="31.25960"></scales>
<clustering>
<clus scale="   31.260">  2  9  1 -1</clus>
<clus scale="   90.184">  7  8 -1 -1</clus>
<clus scale="   92.091">  2  7  1 -1</clus>
<clus scale="   93.819">  5  6 -1 -1</clus>
<clus scale="   31.260">  2  5  1 -1</clus>
</clustering>
</event>
<event>
 9    1  0.1399746E-005  0.9528655E+02  0.7546771E-02  0.1291194E+00
          1   -1    0    0  502    0 -0.00000000000E+00  0.00000000000E+00  0.18825987238E+03  0.18825987238E+03  0.00000000000E+00 0. -1.
         21   -1    0    0  501  502  0.00000000000E+00 -0.00000000000E+00 -0.79808053011E+02  0.79808053011E+02  0.00000000000E+00 0.  1.
         23    2    1    2    0    0  0.17216784746E+02  0.16126163645E+02  0.10625598959E+03  0.14141235980E+03  0.90280946769E+02 0.  0.
         23    2    1    2    0    0 -0.13213385071E+02 -0.36879179036E+02 -0.13338196220E+02  0.10042541461E+03  0.91502399038E+02 0.  0.
        -11    1    3    3    0    0  0.32085728581E+02 -0.28800640219E+02  0.68197893874E+02  0.80684097469E+02  0.00000000000E+00 0.  1.
         11    1    3    3    0    0 -0.14868943834E+02  0.44926803864E+02  0.38058095717E+02  0.60728262331E+02  0.00000000000E+00 0. -1.
        -13    1    4    4    0    0 -0.17098493030E+02 -0.59169132542E+02  0.15751442519E+02  0.63572420523E+02  0.00000000000E+00 0. -1.
         13    1    4    4    0    0  0.38851079587E+01  0.22289953506E+02 -0.29089638739E+02  0.36852994087E+02  0.00000000000E+00 0.  1.
          1    1    1    2  501    0 -0.40033996753E+01  0.20753015391E+02  0.15534025998E+02  0.26230150981E+02  0.00000000000E+00 0. -1.
<scales pt_clust_5="13000.00000" pt_clust_6="13000.00000" pt_clust_7="13000.00000" pt_clust_8="13000.00000" pt_clust_9="21.13564"></scales>
<clustering>
<clus scale="   21.136">  2  9  1 -1</clus>
<clus scale="   90.281">  5  6 -1 -1</clus>
<clus scale="   91.502">  7  8 -1 -1</clus>
<clus scale="   94.114">  1  5  2 -1</clus>
<clus scale="   21.136">  2  5  1 -1</clus>
</clustering>
</event>
<event>
 9    1  0.1399746E-005  0.1340955E+03  0.7546771E-02  0.1239047E+00
          2   -1    0    0  502    0 -0.00000000000E+00  0.00000000000E+00  0.95409492495E+02  0.95409492495E+02  0.00000000000E+00 0. -1.
         21   -1    0    0  501  502  0.00000000000E+00 -0.00000000000E+00 -0.46470819018E+03  0.46470819018E+03  0.00000000000E+00 0. -1.
         23    2    1    2    0    0 -0.87507301621E+01  0.12172888716E+02 -0.12314150888E+03  0.15452893156E+03  0.92144478836E+02 0.  0.
         23    2    1    2    0    0  0.67468256580E+02  0.60534560427E+02  0.10104607484E+02  0.13281736460E+03  0.96550249062E+02 0.  0.
        -11    1    3    3    0    0  0.38650266288E+02  0.20871328110E+02 -0.46265720966E+02  0.63796334987E+02  0.00000000000E+00 0. -1.
         11    1    3    3    0    0 -0.47400996450E+02 -0.86984393944E+01 -0.76875787916E+02  0.90732596569E+02  0.00000000000E+00 0.  1.
        -13    1    4    4    0    0 -0.24843358559E+02  0.17160879084E+02 -0.10715826633E+01  0.30213184619E+02  0.00000000000E+00 0.  1.
         13    1    4    4    0    0  0.92311615138E+02  0.43373681343E+02  0.11176190147E+02  0.10260417998E+03  0.00000000000E+00 0. -1.
          2    1    1    2  501    0 -0.58717526418E+02 -0.72707449143E+02 -0.25626179628E+03  0.27277138652E+03  0.00000000000E+00 0. -1.
<scales pt_clust_5="13000.00000" pt_clust_6="13000.00000" pt_clust_7="13000.00000" pt_clust_8="13000.00000" pt_clust_9="93.05722"></scales>
<clustering>
<clus scale="   92.144">  5  6 -1 -1</clus>
<clus scale="   93.356">  1  5  2 -1</clus>
<clus scale="   93.057">  2  9  1 -1</clus>
<clus scale="   96.550">  7  8 -1 -1</clus>
<clus scale="   93.057">  2  5  1 -1</clus>
</clustering>
</event>
<event>
 9    1  0.1399746E-005  0.1419834E+03  0.7546771E-02  0.1242142E+00
         21   -1    0    0  501  502  0.00000000000E+00  0.00000000000E+00  0.76146698240E+02  0.76146698240E+02  0.00000000000E+00 0. -1.
          2   -1    0    0  502    0 -0.00000000000E+00 -0.00000000000E+00 -0.50508853474E+03  0.50508853474E+03  0.00000000000E+00 0. -1.
         23    2    1    2    0    0  0.18584288167E+02  0.64238725104E+01 -0.14655650419E+02  0.75298382307E+02  0.71192811323E+02 0.  0.
         23    2    1    2    0    0  0.40120512398E+02 -0.96570081202E+02 -0.35797319614E+03  0.38451302522E+03  0.93648391943E+02 0.  0.
        -11    1    3    3    0    0 -0.20516135128E+02  0.17147736450E+02 -0.21335302620E+02  0.34207481694E+02  0.00000000000E+00 0.  1.
         11    1    3    3    0    0  0.39100423295E+02 -0.10723863939E+02  0.66796522006E+01  0.41090900613E+02  0.00000000000E+00 0. -1.
        -13    1    4    4    0    0 -0.25615825871E+02 -0.56514678818E+02 -0.18656770747E+03  0.19661533238E+03  0.00000000000E+00 0.  1.
         13    1    4    4    0    0  0.65736338269E+02 -0.40055402384E+02 -0.17140548867E+03  0.18789769284E+03  0.00000000000E+00 0. -1.
          2    1    1    2  501    0 -0.58704800566E+02  0.90146208691E+02 -0.56312989943E+02  0.12142382545E+03  0.00000000000E+00 0. -1.
<scales pt_clust_5="13000.00000" pt_clust_6="13000.00000" pt_clust_7="13000.00000" pt_clust_8="13000.00000" pt_clust_9="106.72054"></scales>
<clustering>
<clus scale="   71.193">  5  6 -1 -1</clus>
<clus scale="   73.858">  2  5  1 -1</clus>
<clus scale="   93.648">  7  8 -1 -1</clus>
<clus scale="  106.721">  1  9  2 -1</clus>
<clus scale="  106.721">  1  5  2 -1</clus>
</clustering>
</event>
<event>
 9    1  0.1399746E-005  0.1022749E+03  0.7546771E-02  0.1277721E+00
         21   -1    0    0  501  502  0.00000000000E+00  0.00000000000E+00  0.40208257954E+02  0.40208257954E+02  0.00000000000E+00 0. -1.
          3   -1    0    0  502    0 -0.00000000000E+00 -0.00000000000E+00 -0.32388089476E+03  0.32388089476E+03  0.00000000000E+00 0. -1.
         23    2    1    2    0    0 -0.59942084310E+01  0.43449673454E+02 -0.13985533396E+03  0.17252596770E+03  0.91004892377E+02 0.  0.
         23    2    1    2    0    0  0.26088303056E+02 -0.45518346374E+02 -0.94870342095E+02  0.13861172598E+03  0.86373082370E+02 0.  0.
        -11    1    4    4    0    0  0.12319742048E+02 -0.61746129310E+02 -0.28872539344E+02  0.69267481960E+02  0.00000000000E+00 0. -1.
         11    1    4    4    0    0  0.13768561008E+02  0.16227782937E+02 -0.65997802751E+02  0.69344244023E+02  0.00000000000E+00 0.  1.
        -13    1    3    3    0    0  0.31491290061E+02  0.82817965639E+00 -0.95285531387E+02  0.10035795795E+03  0.00000000000E+00 0. -1.
         13    1    3    3    0    0 -0.37485498492E+02  0.42621493798E+02 -0.44569802570E+02  0.72168009754E+02  0.00000000000E+00 0.  1.
          3    1    1    2  501    0 -0.20094094625E+02  0.20686729195E+01 -0.48946960755E+02  0.52951459032E+02  0.00000000000E+00 0. -1.
<scales pt_clust_5="13000.00000" pt_clust_6="13000.00000" pt_clust_7="13000.00000" pt_clust_8="13000.00000" pt_clust_9="20.20031"></scales>
<clustering>
<clus scale="   20.200">  1  9  2 -1</clus>
<clus scale="   86.373">  5  6 -1 -1</clus>
<clus scale="   91.005">  7  8 -1 -1</clus>
<clus scale="   98.176">  1  5  2 -1</clus>
<clus scale="   20.200">  1  5  2 -1</clus>
</clustering>
</event>
<event>
 9    1  0.1399746E-005  0.1033643E+03  0.7546771E-02  0.1273395E+00
         -1   -1    0    0    0  501 -0.00000000000E+00  0.00000000000E+00  0.14001083250E+03  0.14001083250E+03  0.00000000000E+00 0.  1.
         21   -1    0    0  501  502  0.00000000000E+00 -0.00000000000E+00 -0.19765639376E+03  0.19765639376E+03  0.00000000000E+00 0. -1.
         23    2    1    2    0    0  0.33676985879E+02 -0.26685614033E+02  0.35112290057E+02  0.10688510483E+03  0.91352566181E+02 0.  0.
         23    2    1    2    0    0 -0.56592048698E+02  0.11791000203E+02  0.24138837629E+02  0.11073302517E+03  0.91309537947E+02 0.  0.
        -13    1    3    3    0    0  0.63195077600E+02 -0.24038990466E+02  0.10628215223E+02  0.68443040949E+02  0.00000000000E+00 0.  1.
         13    1    3    3    0    0 -0.29518091721E+02 -0.26466235671E+01  0.24484074834E+02  0.38442063884E+02  0.00000000000E+00 0. -1.
        -13    1    4    4    0    0 -0.16644384485E+02  0.47881933609E+02 -0.23212244173E+01  0.50745474516E+02  0.00000000000E+00 0.  1.
         13    1    4    4    0    0 -0.39947664214E+02 -0.36090933407E+02  0.26460062047E+02  0.59987550657E+02  0.00000000000E+00 0. -1.
         -1    1    1    2    0  502  0.22915062819E+02  0.14894613830E+02 -0.11689668895E+03  0.12004909626E+03  0.00000000000E+00 0.  1.
<scales pt_clust_5="13000.00000" pt_clust_6="13000.00000" pt_clust_7="13000.00000" pt_clust_8="13000.00000" pt_clust_9="27.33038"></scales>
<clustering>
<clus scale="   27.330">  2  9  1 -1</clus>
<clus scale="   91.310">  7  8 -1 -1</clus>
<clus scale="   91.353">  5  6 -1 -1</clus>
<clus scale="  103.326">  2  7  1 -1</clus>
<clus scale="   27.330">  2  5  1 -1</clus>
</clustering>
</event>
<event>
 9    1  0.1399746E-005  0.1177183E+03  0.7546771E-02  0.1247929E+00
         -1   -1    0    0    0  501 -0.00000000000E+00  0.00000000000E+00  0.10955202506E+03  0.10955202506E+03  0.00000000000E+00 0.  1.
         21   -1    0    0  501  502  0.00000000000E+00 -0.00000000000E+00 -0.45084736787E+03  0.45084736787E+03  0.00000000000E+00 0.  1.
         23    2    1    2    0    0 -0.34604146276E+02  0.59991663884E+02  0.51600148406E+02  0.12628248827E+03  0.92131671284E+02 0.  0.
         23    2    1    2    0    0  0.51511779386E+02 -0.82449578160E+02 -0.20239124247E+03  0.24154978711E+03  0.89065640245E+02 0.  0.
        -13    1    3    3    0    0 -0.61144951169E+02  0.33088389825E+02  0.10268440900E+02  0.70277930200E+02  0.00000000000E+00 0. -1.
         13    1    3    3    0    0  0.26540804893E+02  0.26903274059E+02  0.41331707507E+02  0.56004558072E+02  0.00000000000E+00 0.  1.
        -13    1    4    4    0    0  0.65937431986E+02 -0.25271327320E+02 -0.13217985982E+03  0.14985960184E+03  0.00000000000E+00 0.  1.
         13    1    4    4    0    0 -0.14425652600E+02 -0.57178250840E+02 -0.70211382645E+02  0.91690185271E+02  0.00000000000E+00 0. -1.
         -1    1    1    2    0  502 -0.16907633111E+02  0.22457914276E+02 -0.19050424874E+03  0.19256711755E+03  0.00000000000E+00 0.  1.
<scales pt_clust_5="13000.00000" pt_clust_6="13000.00000" pt_clust_7="13000.00000" pt_clust_8="13000.00000" pt_clust_9="28.11096"></scales>
<clustering>
<clus scale="   28.111">  2  9  1 -1</clus>
<clus scale="   89.066">  7  8 -1 -1</clus>
<clus scale="   92.132">  5  6 -1 -1</clus>
<clus scale="  115.334">  2  7  1 -1</clus>
<clus scale="   28.111">  2  5  1 -1</clus>
</clustering>
</event>
<event>
 9    1  0.1399746E-005  0.1011360E+03  0.7546771E-02  0.1278202E+00
         21   -1    0    0  501  502  0.00000000000E+00  0.00000000000E+00  0.67922502284E+02  0.67922502284E+02  0.00000000000E+00 0. -1.
         -2   -1    0    0    0  501 -0.00000000000E+00 -0.00000000000E+00 -0.37754115628E+03  0.37754115628E+03  0.00000000000E+00 0.  1.
         23    2    1    2    0    0 -0.42714697411E+02 -0.11941538116E+02 -0.30657933625E+03  0.32329400935E+03  0.92525571381E+02 0.  0.
         23    2    1    2    0    0  0.21140505486E+02  0.13072570874E+02 -0.16576724382E+02  0.96674818935E+02  0.91942480624E+02 0.  0.
        -11    1    4    4    0    0 -0.32033491115E+02  0.89414181211E+01  0.12976567510E+02  0.35699927387E+02  0.00000000000E+00 0. -1.
         11    1    4    4    0    0  0.53173996601E+02  0.41311527525E+01 -0.29553291892E+02  0.60974891548E+02  0.00000000000E+00 0.  1.
        -13    1    3    3    0    0 -0.70505743800E+02 -0.18421746078E+02 -0.19654628133E+03  0.20962075599E+03  0.00000000000E+00 0. -1.
         13    1    3    3    0    0  0.27791046389E+02  0.64802079622E+01 -0.11003305492E+03  0.11367325336E+03  0.00000000000E+00 0.  1.
         -2    1    1    2    0  502  0.21574191925E+02 -0.11310327576E+01  0.13537406638E+02  0.25494830276E+02  0.00000000000E+00 0.  1.
<scales pt_clust_5="13000.00000" pt_clust_6="13000.00000" pt_clust_7="13000.00000" pt_clust_8="13000.00000" pt_clust_9="21.60382"></scales>
<clustering>
<clus scale="   21.604">  1  9  2 -1</clus>
<clus scale="   91.942">  5  6 -1 -1</clus>
<clus scale="   92.526">  7  8 -1 -1</clus>
<clus scale="  100.603">  1  5  2 -1</clus>
<clus scale="   21.604">  1  5  2 -1</clus>
</clustering>
</event>
<event>
 9    1  0.1399746E-005  0.1153540E+03  0.7546771E-02  0.1251341E+00
         21   -1    0    0  501  502  0.00000000000E+00  0.00000000000E+00  0.17192606094E+03  0.17192606094E+03  0.00000000000E+00 0.  1.
          1   -1    0    0  502    0 -0.00000000000E+00 -0.00000000000E+00 -0.16899949992E+03  0.16899949992E+03  0.00000000000E+00 0. -1.
         23    2    1    2    0    0 -0.48310338706E+02 -0.55855582147E+02 -0.11459940775E+03  0.16333476128E+03  0.89952682573E+02 0.  0.
         23    2    1    2    0    0  0.23414123202E+02  0.52821751810E+02  0.99276810476E+02  0.14657374860E+03  0.91047350591E+02 0.  0.
        -11    1    4    4    0    0 -0.79026519432E+01  0.66286515043E+02  0.88435746239E+02  0.11080268587E+03  0.00000000000E+00 0.  1.
         11    1    4    4    0    0  0.31316775145E+02 -0.13464763233E+02  0.10841064237E+02  0.35771062721E+02  0.00000000000E+00 0. -1.
        -13    1    3    3    0    0 -0.12349292988E+02 -0.44025703964E+02 -0.11678250352E+03  0.12541499422E+03  0.00000000000E+00 0. -1.
         13    1    3    3    0    0 -0.35961045718E+02 -0.11829878183E+02  0.21830957640E+01  0.37919767063E+02  0.00000000000E+00 0.  1.
          1    1    1    2  501    0  0.24896215504E+02  0.30338303373E+01  0.18249158295E+02  0.31017050979E+02  0.00000000000E+00 0. -1.
<scales pt_clust_5="13000.00000" pt_clust_6="13000.00000" pt_clust_7="13000.00000" pt_clust_8="13000.00000" pt_clust_9="25.08038"></scales>
<clustering>
<clus scale="   25.080">  1  9  2 -1</clus>
<clus scale="   89.953">  7  8 -1 -1</clus>
<clus scale="   91.047">  5  6 -1 -1</clus>
<clus scale="  114.492">  2  7  1 -1</clus>
<clus scale="   25.080">  1  5  2 -1</clus>
</clustering>
</event>
<event>
 9    1  0.1399746E-005  0.1147127E+03  0.7546771E-02  0.1253117E+00
         21   -1    0    0  501  502  0.00000000000E+00  0.00000000000E+00  0.11930259993E+03  0.11930259993E+03  0.00000000000E+00 0.  1.
          1   -1    0    0  502    0 -0.00000000000E+00 -0.00000000000E+00 -0.16972036020E+03  0.16972036020E+03  0.00000000000E+00 0. -1.
         23    2    1    2    0    0 -0.68933736663E+01  0.48891413568E+02 -0.27848103939E+02  0.10549359011E+03  0.88969049343E+02 0.  0.
         23    2    1    2    0    0  0.18240599260E+02 -0.90762910330E+02 -0.40499964551E+02  0.13658815441E+03  0.91899137335E+02 0.  0.
        -11    1    4    4    0    0 -0.27729605654E+02 -0.36256112176E+02 -0.46340773097E+02  0.65045399154E+02  0.00000000000E+00 0. -1.
         11    1    4    4    0    0  0.45970204914E+02 -0.54506798154E+02  0.58408085460E+01  0.71542755254E+02  0.00000000000E+00 0.  1.
        -11    1    3    3    0    0  0.36460844717E+02  0.20321068583E+02  0.78645544221E+01  0.42475760642E+02  0.00000000000E+00 0.  1.
         11    1    3    3    0    0 -0.43354218383E+02  0.28570344985E+02 -0.35712658361E+02  0.63017829472E+02  0.00000000000E+00 0. -1.
          1    1    1    2  501    0 -0.11347225594E+02  0.41871496763E+02  0.17930308217E+02  0.46941215606E+02  0.00000000000E+00 0. -1.
<scales pt_clust_5="13000.00000" pt_clust_6="13000.00000" pt_clust_7="13000.00000" pt_clust_8="13000.00000" pt_clust_9="43.38181"></scales>
<clustering>
<clus scale="   43.382">  1  9  2 -1</clus>
<clus scale="   88.969">  7  8 -1 -1</clus>
<clus scale="   91.899">  5  6 -1 -1</clus>
<clus scale="  112.379">  2  7  1 -1</clus>
<clus scale="   43.382">  1  5  2 -1</clus>
</clustering>
</event>
<event>
 9    1  0.1399746E-005  0.9462567E+02  0.7546771E-02  0.1292466E+00
          2   -1    0    0  502    0 -0.00000000000E+00  0.00000000000E+00  0.19770993807E+03  0.19770993807E+03  0.00000000000E+00 0. -1.
         21   -1    0    0  501  502  0.00000000000E+00 -0.00000000000E+00 -0.20282090306E+03  0.20282090306E+03  0.00000000000E+00 0. -1.
         23    2    1    2    0    0 -0.15112282917E+02 -0.57823296276E+01  0.11443723566E+03  0.14784136014E+03  0.92192030199E+02 0.  0.
         23    2    1    2    0    0  0.34037070543E+02 -0.26805176552E+01  0.29722557989E+02  0.10198604123E+03  0.91389358279E+02 0.  0.
        -11    1    4    4    0    0  0.28138056601E+02  0.38812737980E+02 -0.41222066490E+01  0.48116228515E+02  0.00000000000E+00 0.  1.
         11    1    4    4    0    0  0.58990139414E+01 -0.41493255635E+02  0.33844764638E+02  0.53869812716E+02  0.00000000000E+00 0. -1.
        -13    1    3    3    0    0 -0.43970843690E+02 -0.18547645590E+02  0.10429649123E+03  0.11469615658E+03  0.00000000000E+00 0.  1.
         13    1    3    3    0    0  0.28858560774E+02  0.12765315962E+02  0.10140744432E+02  0.33145203562E+02  0.00000000000E+00 0. -1.
          2    1    1    2  501    0 -0.18924787626E+02  0.84628472828E+01 -0.14927075864E+03  0.15070343976E+03  0.00000000000E+00 0. -1.
<scales pt_clust_5="13000.00000" pt_clust_6="13000.00000" pt_clust_7="13000.00000" pt_clust_8="13000.00000" pt_clust_9="20.73083"></scales>
<clustering>
<clus scale="   20.731">  2  9  1 -1</clus>
<clus scale="   91.389">  5  6 -1 -1</clus>
<clus scale="   92.192">  7  8 -1 -1</clus>
<clus scale="   93.844">  2  5  1 -1</clus>
<clus scale="   20.731">  2  5  1 -1</clus>
</clustering>
</event>
<event>
 9    1  0.1399746E-005  0.1150334E+03  0.7546771E-02  0.1253941E+00
         21   -1    0    0  501  502  0.00000000000E+00  0.00000000000E+00  0.18805416269E+03  0.18805416269E+03  0.00000000000E+00 0. -1.
         -3   -1    0    0    0  501 -0.00000000000E+00 -0.00000000000E+00 -0.86320273160E+02  0.86320273160E+02  0.00000000000E+00 0.  1.
         23    2    1    2    0    0 -0.53927212669E+02 -0.30429688561E+01  0.30990904943E+02  0.11468669739E+03  0.96307831679E+02 0.  0.
         23    2    1    2    0    0  0.73561278210E+02 -0.13006035270E+02  0.50541165590E+02  0.12726582375E+03  0.89787314633E+02 0.  0.
        -13    1    3    3    0    0  0.32805343142E+01  0.23146425292E+02  0.44562322432E+02  0.50322157046E+02  0.00000000000E+00 0. -1.
         13    1    3    3    0    0 -0.57207746984E+02 -0.26189394148E+02 -0.13571417489E+02  0.64364540342E+02  0.00000000000E+00 0.  1.
        -13    1    4    4    0    0 -0.11157580903E+02 -0.28229154756E+02  0.17699905049E+02  0.35137777798E+02  0.00000000000E+00 0.  1.
         13    1    4    4    0    0  0.84718859113E+02  0.15223119485E+02  0.32841260542E+02  0.92128045948E+02  0.00000000000E+00 0. -1.
         -3    1    1    2    0  502 -0.19634065540E+02  0.16049004127E+02  0.20201818994E+02  0.32421914715E+02  0.00000000000E+00 0.  1.
<scales pt_clust_5="13000.00000" pt_clust_6="13000.00000" pt_clust_7="13000.00000" pt_clust_8="13000.00000" pt_clust_9="25.35877"></scales>
<clustering>
<clus scale="   25.359">  1  9  2 -1</clus>
<clus scale="   89.787">  7  8 -1 -1</clus>
<clus scale="   96.308">  5  6 -1 -1</clus>
<clus scale="  109.632">  1  7  2 -1</clus>
<clus scale="   25.359">  1  5  2 -1</clus>
</clustering>
</event>
<event>
 9    1  0.1399746E-005  0.9377773E+02  0.7546771E-02  0.1294225E+00
         21   -1    0    0  501  502  0.00000000000E+00  0.00000000000E+00  0.32944627780E+03  0.32944627780E+03  0.00000000000E+00 0. -1.
         -4   -1    0    0    0  501 -0.00000000000E+00 -0.00000000000E+00 -0.38220807828E+02  0.38220807828E+02  0.00000000000E+00 0.  1.
         23    2    1    2    0    0  0.48633631229E+01  0.12574373902E+02  0.10512783201E+03  0.13999220603E+03  0.91455942986E+02 0.  0.
         23    2    1    2    0    0  0.23048192093E+02 -0.26146581602E+02  0.11932578640E+03  0.15404241462E+03  0.90970101214E+02 0.  0.
        -11    1    3    3    0    0  0.46001860355E+02  0.10972317579E+02  0.76173766008E+02  0.89660501543E+02  0.00000000000E+00 0. -1.
         11    1    3    3    0    0 -0.41138497232E+02  0.16020563236E+01  0.28954066002E+02  0.50331704492E+02  0.00000000000E+00 0.  1.
        -13    1    4    4    0    0 -0.12381500049E+02 -0.52061398146E+02  0.66625152490E+02  0.85455261188E+02  0.00000000000E+00 0.  1.
         13    1    4    4    0    0  0.35429692142E+02  0.25914816545E+02  0.52700633907E+02  0.68587153433E+02  0.00000000000E+00 0. -1.
         -4    1    1    2    0  502 -0.27911555216E+02  0.13572207699E+02  0.66771851569E+02  0.73632464975E+02  0.00000000000E+00 0.  1.
<scales pt_clust_5="13000.00000" pt_clust_6="13000.00000" pt_clust_7="13000.00000" pt_clust_8="13000.00000" pt_clust_9="31.03643"></scales>
<clustering>
<clus scale="   31.036">  1  9  2 -1</clus>
<clus scale="   90.970">  7  8 -1 -1</clus>
<clus scale="   91.456">  5  6 -1 -1</clus>
<clus scale="   93.304">  1  7  2 -1</clus>
<clus scale="   31.036">  1  5  2 -1</clus>
</clustering>
</event>
<event>
 9    1  0.1399746E-005  0.1000578E+03  0.7546771E-02  0.1281072E+00
         21   -1    0    0  501  502  0.00000000000E+00  0.00000000000E+00  0.63897110058E+02  0.63897110058E+02  0.00000000000E+00 0. -1.
         -4   -1    0    0    0  501 -0.00000000000E+00 -0.00000000000E+00 -0.44790578997E+03  0.44790578997E+03  0.00000000000E+00 0.  1.
         23    2    1    2    0    0  0.32148356903E+02  0.22505454578E+02 -0.36927989190E+03  0.38270381183E+03  0.92490846524E+02 0.  0.
         23    2    1    2    0    0 -0.39290983861E+02  0.47564053101E+01 -0.41807726985E+01  0.99007781286E+02  0.90656809400E+02 0.  0.
        -11    1    3    3    0    0 -0.24546297304E+02 -0.15632649969E+02 -0.71715621254E+02  0.77395289186E+02  0.00000000000E+00 0. -1.
         11    1    3    3    0    0  0.56694654207E+02  0.38138104547E+02 -0.29756427065E+03  0.30530852264E+03  0.00000000000E+00 0.  1.
        -13    1    4    4    0    0 -0.42801733818E+02  0.41915290770E+02 -0.11424827542E+02  0.60986938786E+02  0.00000000000E+00 0.  1.
         13    1    4    4    0    0  0.35107499570E+01 -0.37158885459E+02  0.72440548434E+01  0.38020842500E+02  0.00000000000E+00 0. -1.
         -4    1    1    2    0  502  0.71426269582E+01 -0.27261859888E+02 -0.10548015310E+02  0.30091306908E+02  0.00000000000E+00 0.  1.
<scales pt_clust_5="13000.00000" pt_clust_6="13000.00000" pt_clust_7="13000.00000" pt_clust_8="13000.00000" pt_clust_9="28.18202"></scales>
<clustering>
<clus scale="   28.182">  1  9  2 -1</clus>
<clus scale="   90.657">  7  8 -1 -1</clus>
<clus scale="   92.491">  5  6 -1 -1</clus>
<clus scale="   98.365">  1  7  2 -1</clus>
<clus scale="   28.182">  1  5  2 -1</clus>
</clustering>
</event>
<event>
 9    1  0.1399746E-005  0.1323695E+03  0.7546771E-02  0.1242472E+00
          1   -1    0    0  502    0 -0.00000000000E+00  0.00000000000E+00  0.13164864808E+03  0.13164864808E+03  0.00000000000E+00 0. -1.
         21   -1    0    0  501  502  0.00000000000E+00 -0.00000000000E+00 -0.30966100501E+03  0.30966100501E+03  0.00000000000E+00 0.  1.
         23    2    1    2    0    0  0.77994695201E+01  0.21681640214E+02  0.33208816268E+02  0.96440095645E+02  0.87561071961E+02 0.  0.
         23    2    1    2    0    0  0.16515401390E+02  0.91506838373E+02 -0.18749022765E+03  0.22669171515E+03  0.87122260652E+02 0.  0.
        -11    1    4    4    0    0  0.75207651388E+01  0.59713182070E+02 -0.18384991440E+03  0.19345029606E+03  0.00000000000E+00 0.  1.
         11    1    4    4    0    0  0.89946362516E+01  0.31793656303E+02 -0.36403132493E+01  0.33241419088E+02  0.00000000000E+00 0. -1.
        -11    1    3    3    0    0 -0.32471334374E+02  0.19396465397E+02  0.40539007571E+02  0.55443859541E+02  0.00000000000E+00 0.  1.
         11    1    3    3    0    0  0.40270803894E+02  0.22851748168E+01 -0.73301913028E+01  0.40996236105E+02  0.00000000000E+00 0. -1.
          1    1    1    2  501    0 -0.24314870910E+02 -0.11318847859E+03 -0.23730945549E+02  0.11817784229E+03  0.00000000000E+00 0. -1.
<scales pt_clust_5="13000.00000" pt_clust_6="13000.00000" pt_clust_7="13000.00000" pt_clust_8="13000.00000" pt_clust_9="99.65646"></scales>
<clustering>
<clus scale="   87.122">  5  6 -1 -1</clus>
<clus scale="   87.561">  7  8 -1 -1</clus>
<clus scale="   90.542">  1  7  2 -1</clus>
<clus scale="   99.656">  2  9  1 -1</clus>
<clus scale="   99.656">  2  5  1 -1</clus>
</clustering>
</event>
<event>
 9    1  0.1399746E-005  0.1220258E+03  0.7546771E-02  0.1240450E+00
         21   -1    0    0  501  502  0.00000000000E+00  0.00000000000E+00  0.14590577999E+03  0.14590577999E+03  0.00000000000E+00 0.  1.
          2   -1    0    0  502    0 -0.00000000000E+00 -0.00000000000E+00 -0.41761148412E+03  0.41761148412E+03  0.00000000000E+00 0. -1.
         23    2    1    2    0    0  0.34063312724E+02  0.64409978759E+02 -0.30075992732E+03  0.32320833343E+03  0.93263810146E+02 0.  0.
         23    2    1    2    0    0 -0.70423240559E+02 -0.61755651379E+02 -0.58175718992E+02  0.14576712713E+03  0.95343839774E+02 0.  0.
        -11    1    3    3    0    0  0.65200810092E+02  0.56376483892E+02 -0.21880389652E+03  0.23516929796E+03  0.00000000000E+00 0. -1.
         11    1    3    3    0    0 -0.31137497368E+02  0.80334948669E+01 -0.81956030798E+02  0.88039035469E+02  0.00000000000E+00 0.  1.
        -11    1    4    4    0    0 -0.11462810305E+02 -0.68369484195E+02 -0.11486209378E+02  0.70268879279E+02  0.00000000000E+00 0.  1.
         11    1    4    4    0    0 -0.58960430254E+02  0.66138328160E+01 -0.46689509614E+02  0.75498247849E+02  0.00000000000E+00 0. -1.
          2    1    1    2  501    0  0.36359927835E+02 -0.26543273798E+01  0.87229942180E+02  0.94541803551E+02  0.00000000000E+00 0. -1.
<scales pt_clust_5="13000.00000" pt_clust_6="13000.00000" pt_clust_7="13000.00000" pt_clust_8="13000.00000" pt_clust_9="36.45668"></scales>
<clustering>
<clus scale="   36.457">  1  9  2 -1</clus>
<clus scale="   93.264">  5  6 -1 -1</clus>
<clus scale="   95.344">  7  8 -1 -1</clus>
<clus scale="  120.408">  2  5  1 -1</clus>
<clus scale="   36.457">  1  5  2 -1</clus>
</clustering>
</event>
<event>
 9    1  0.1399746E-005  0.9847988E+02  0.7546771E-02  0.1286010E+00
         21   -1    0    0  501  502  0.00000000000E+00  0.00000000000E+00  0.10777393089E+03  0.10777393089E+03  0.00000000000E+00 0.  1.
          2   -1    0    0  502    0 -0.00000000000E+00 -0.00000000000E+00 -0.30392239880E+03  0.30392239880E+03  0.00000000000E+00 0. -1.
         23    2    1    2    0    0  0.33875502370E+02 -0.19060006539E+01 -0.20839035068E+03  0.23202183901E+03  0.96210254256E+02 0.  0.
         23    2    1    2    0    0  0.43160120930E+02  0.76524688604E+01  0.13421306921E+02  0.10241583295E+03  0.91583377534E+02 0.  0.
        -11    1    4    4    0    0  0.56331965996E+02  0.33192530646E+02  0.26867822959E+02  0.70688856224E+02  0.00000000000E+00 0.  1.
         11    1    4    4    0    0 -0.13171845066E+02 -0.25540061786E+02 -0.13446516038E+02  0.31726976724E+02  0.00000000000E+00 0. -1.
        -11    1    3    3    0    0  0.16011390030E+02  0.47090124557E+02 -0.10755658093E+03  0.11850005292E+03  0.00000000000E+00 0. -1.
         11    1    3    3    0    0  0.17864112340E+02 -0.48996125211E+02 -0.10083376975E+03  0.11352178609E+03  0.00000000000E+00 0.  1.
          2    1    1    2  501    0 -0.77035623300E+02 -0.57464682064E+01 -0.11794241546E+01  0.77258657738E+02  0.00000000000E+00 0. -1.
<scales pt_clust_5="13000.00000" pt_clust_6="13000.00000" pt_clust_7="13000.00000" pt_clust_8="13000.00000" pt_clust_9="77.24965"></scales>
<clustering>
<clus scale="   77.250">  1  9  2 -1</clus>
<clus scale="   91.583">  5  6 -1 -1</clus>
<clus scale="   93.965">  1  5  2 -1</clus>
<clus scale="   96.210">  7  8 -1 -1</clus>
<clus scale="   77.250">  1  5  2 -1</clus>
</clustering>
</event>
<event>
 9    1  0.1399746E-005  0.1098467E+03  0.7546771E-02  0.1261106E+00
         21   -1    0    0  501  502  0.00000000000E+00  0.00000000000E+00  0.21834401581E+03  0.21834401581E+03  0.00000000000E+00 0. -1.
         -1   -1    0    0    0  501 -0.00000000000E+00 -0.00000000000E+00 -0.13272515990E+03  0.13272515990E+03  0.00000000000E+00 0.  1.
         23    2    1    2    0    0 -0.41843521027E+02  0.22459857642E+02 -0.20399440147E+02  0.10476929040E+03  0.91132549597E+02 0.  0.
         23    2    1    2    0    0  0.62250529415E+02 -0.44591176306E+02 -0.16024857473E+02  0.12059876128E+03  0.91781064212E+02 0.  0.
        -13    1    4    4    0    0 -0.16082300234E+02 -0.26179092790E+02 -0.25029287709E+02  0.39628910196E+02  0.00000000000E+00 0.  1.
         13    1    4    4    0    0  0.78332829650E+02 -0.18412083516E+02  0.90044302363E+01  0.80969851082E+02  0.00000000000E+00 0. -1.
        -13    1    3    3    0    0  0.18533433547E+02 -0.12781139222E+02  0.14352230491E+02  0.26698917561E+02  0.00000000000E+00 0. -1.
         13    1    3    3    0    0 -0.60376954574E+02  0.35240996864E+02 -0.34751670639E+02  0.78070372843E+02  0.00000000000E+00 0.  1.
         -1    1    1    2    0  502 -0.20407008389E+02  0.22131318663E+02  0.12204315353E+03  0.12570112402E+03  0.00000000000E+00 0.  1.
<scales pt_clust_5="13000.00000" pt_clust_6="13000.00000" pt_clust_7="13000.00000" pt_clust_8="13000.00000" pt_clust_9="30.10384"></scales>
<clustering>
<clus scale="   30.104">  1  9  2 -1</clus>
<clus scale="   91.133">  7  8 -1 -1</clus>
<clus scale="   91.781">  5  6 -1 -1</clus>
<clus scale="  109.305">  2  7  1 -1</clus>
<clus scale="   30.104">  1  5  2 -1</clus>
</clustering>
</event>
<event>
 9    1  0.1399746E-005  0.2424099E+03  0.7546771E-02  0.1154682E+00
          1   -1    0    0  502    0 -0.00000000000E+00  0.00000000000E+00  0.10992125438E+04  0.10992125438E+04  0.00000000000E+00 0. -1.
         21   -1    0    0  501  502  0.00000000000E+00 -0.00000000000E+00 -0.11680079094E+03  0.11680079094E+03  0.00000000000E+00 0. -1.
         23    2    1    2    0    0  0.33596506269E+01 -0.37564361285E+02  0.64912656757E+02  0.11918363443E+03  0.92567365833E+02 0.  0.
         23    2    1    2    0    0 -0.10392331596E+03 -0.16848373988E+03  0.81820561911E+03  0.84697361101E+03  0.93365070567E+02 0.  0.
        -11    1    4    4    0    0 -0.56783539808E+02 -0.25955047983E+02  0.34245013973E+03  0.34809500586E+03  0.00000000000E+00 0.  1.
         11    1    4    4    0    0 -0.47139776148E+02 -0.14252869190E+03  0.47575547938E+03  0.49887860515E+03  0.00000000000E+00 0. -1.
        -13    1    3    3    0    0  0.20490859469E+02  0.26161457362E+02  0.28718390469E+02  0.43920873446E+02  0.00000000000E+00 0.  1.
         13    1    3    3    0    0 -0.17131208842E+02 -0.63725818648E+02  0.36194266288E+02  0.75262760983E+02  0.00000000000E+00 0. -1.
          1    1    1    2  501    0  0.10056366533E+03  0.20604810117E+03  0.99293476962E+02  0.24985608927E+03  0.00000000000E+00 0. -1.
<scales pt_clust_5="13000.00000" pt_clust_6="13000.00000" pt_clust_7="13000.00000" pt_clust_8="13000.00000" pt_clust_9="223.70854"></scales>
<clustering>
<clus scale="   92.567">  7  8 -1 -1</clus>
<clus scale="   93.365">  5  6 -1 -1</clus>
<clus scale="   99.955">  1  7  2 -1</clus>
<clus scale="  223.709">  2  9  1 -1</clus>
<clus scale="  223.709">  2  5  1 -1</clus>
</clustering>
</event>
<event>
 9    1  0.1399746E-005  0.2163275E+03  0.7546771E-02  0.1139056E+00
         21   -1    0    0  501  502  0.00000000000E+00  0.00000000000E+00  0.41374416592E+03  0.41374416592E+03  0.00000000000E+00 0. -1.
          1   -1    0    0  502    0 -0.00000000000E+00 -0.00000000000E+00 -0.19199578087E+03  0.19199578087E+03  0.00000000000E+00 0. -1.
         23    2    1    2    0    0  0.13560378832E+03  0.10290058846E+03  0.25509556626E+02  0.19530043667E+03  0.92274615003E+02 0.  0.
         23    2    1    2    0    0 -0.20382406487E+03 -0.44748868465E+02  0.58714939595E+02  0.24627968352E+03  0.11687398227E+03 0.  0.
        -11    1    4    4    0    0 -0.74917960220E+02  0.25445710824E+02  0.60319678851E+02  0.99491952536E+02  0.00000000000E+00 0.  1.
         11    1    4    4    0    0 -0.12890610465E+03 -0.70194579289E+02 -0.16047392559E+01  0.14678773098E+03  0.00000000000E+00 0. -1.
        -13    1    3    3    0    0  0.10351577699E+03  0.10299908934E+03 -0.11303681871E+02  0.14646536012E+03  0.00000000000E+00 0. -1.
         13    1    3    3    0    0  0.32088011332E+02 -0.98500882376E-01  0.36813238497E+02  0.48835076557E+02  0.00000000000E+00 0.  1.
          1    1    1    2  501    0  0.68220276550E+02 -0.58151719992E+02  0.13752388883E+03  0.16415982660E+03  0.00000000000E+00 0. -1.
<scales pt_clust_5="13000.00000" pt_clust_6="13000.00000" pt_clust_7="13000.00000" pt_clust_8="13000.00000" pt_clust_9="89.64167"></scales>
<clustering>
<clus scale="   89.642">  1  9  2 -1</clus>
<clus scale="   92.275">  7  8 -1 -1</clus>
<clus scale="  116.874">  5  6 -1 -1</clus>
<clus scale="  204.090">  2  7  1 -1</clus>
<clus scale="   89.642">  1  5  2 -1</clus>
</clustering>
</event>
<event>
 9    1  0.1399746E-005  0.1053878E+03  0.7546771E-02  0.1269413E+00
         -1   -1    0    0    0  501 -0.00000000000E+00  0.00000000000E+00  0.24907037073E+03  0.24907037073E+03  0.00000000000E+00 0.  1.
         21   -1    0    0  501  502  0.00000000000E+00 -0.00000000000E+00 -0.94811439857E+02  0.94811439857E+02  0.00000000000E+00 0.  1.
         23    2    1    2    0    0 -0.25364343399E+02  0.24761048845E+02  0.77180424634E+02  0.12427901364E+03  0.90730346792E+02 0.  0.
         23    2    1    2    0    0  0.36995937882E+02 -0.63172825555E+02  0.11550471734E+03  0.16403902926E+03  0.90597781893E+02 0.  0.
        -11    1    3    3    0    0 -0.76256673459E+01  0.43783773189E+02  0.86007866065E+02  0.96811789686E+02  0.00000000000E+00 0.  1.
         11    1    3    3    0    0 -0.17738676053E+02 -0.19022724344E+02 -0.88274414312E+01  0.27467223955E+02  0.00000000000E+00 0. -1.
        -11    1    4    4    0    0  0.60483747683E+02 -0.67760992348E+02  0.10192444406E+03  0.13652262858E+03  0.00000000000E+00 0. -1.
         11    1    4    4    0    0 -0.23487809802E+02  0.45881667935E+01  0.13580273276E+02  0.27516400674E+02  0.00000000000E+00 0.  1.
         -1    1    1    2    0  502 -0.11631594483E+02  0.38411776710E+02 -0.38426211100E+02  0.55563767689E+02  0.00000000000E+00 0.  1.
<scales pt_clust_5="13000.00000" pt_clust_6="13000.00000" pt_clust_7="13000.00000" pt_clust_8="13000.00000" pt_clust_9="40.13426"></scales>
<clustering>
<clus scale="   40.134">  2  9  1 -1</clus>
<clus scale="   90.598">  7  8 -1 -1</clus>
<clus scale="   90.730">  5  6 -1 -1</clus>
<clus scale="  105.274">  2  7  1 -1</clus>
<clus scale="   40.134">  2  5  1 -1</clus>
</clustering>
</event>
<event>
 9    1  0.1399746E-005  0.1242961E+03  0.7546771E-02  0.1236766E+00
         21   -1    0    0  501  502  0.00000000000E+00  0.00000000000E+00  0.97231625950E+02  0.97231625950E+02  0.00000000000E+00 0. -1.
          2   -1    0    0  502    0 -0.00000000000E+00 -0.00000000000E+00 -0.41773053198E+03  0.41773053198E+03  0.00000000000E+00 0. -1.
         23    2    1    2    0    0  0.45446564156E+02  0.64812001758E+02 -0.25477786538E+03  0.28137249769E+03  0.89402102888E+02 0.  0.
         23    2    1    2    0    0 -0.10252663998E+03 -0.43283839198E+02 -0.87825580888E+02  0.16870354817E+03  0.91445895841E+02 0.  0.
        -11    1    4    4    0    0 -0.18858525793E+02  0.27133351771E+02 -0.31676650967E+02  0.45774151984E+02  0.00000000000E+00 0. -1.
         11    1    4    4    0    0 -0.83668114188E+02 -0.70417190969E+02 -0.56148929922E+02  0.12292939619E+03  0.00000000000E+00 0.  1.
        -13    1    3    3    0    0 -0.21886109872E+02  0.24559960709E+01 -0.21874045024E+02  0.31040418292E+02  0.00000000000E+00 0.  1.
         13    1    3    3    0    0  0.67332674028E+02  0.62356005687E+02 -0.23290382036E+03  0.25033207940E+03  0.00000000000E+00 0. -1.
          2    1    1    2  501    0  0.57080075825E+02 -0.21528162561E+02  0.22104540245E+02  0.64886112065E+02  0.00000000000E+00 0. -1.
<scales pt_clust_5="13000.00000" pt_clust_6="13000.00000" pt_clust_7="13000.00000" pt_clust_8="13000.00000" pt_clust_9="61.00489"></scales>
<clustering>
<clus scale="   61.005">  1  9  2 -1</clus>
<clus scale="   89.402">  7  8 -1 -1</clus>
<clus scale="   91.446">  5  6 -1 -1</clus>
<clus scale="  122.800">  2  7  1 -1</clus>
<clus scale="   61.005">  1  5  2 -1</clus>
</clustering>
</event>
<event>
 9    1  0.1399746E-005  0.1348749E+03  0.7546771E-02  0.1220972E+00
         -3   -1    0    0    0  501 -0.00000000000E+00  0.00000000000E+00  0.38855804438E+02  0.38855804438E+02  0.00000000000E+00 0.  1.
         21   -1    0    0  501  502  0.00000000000E+00 -0.00000000000E+00 -0.61838700505E+03  0.61838700505E+03  0.00000000000E+00 0. -1.
         23    2    1    2    0    0  0.87706779091E+02 -0.84824974765E+00 -0.20649703246E+03  0.24142457064E+03  0.89171745905E+02 0.  0.
         23    2    1    2    0    0 -0.11229321795E+03  0.24913992055E+02 -0.27361686683E+03  0.31061627722E+03  0.91574057805E+02 0.  0.
        -13    1    4    4    0    0 -0.78306411370E+02  0.59385759097E+02 -0.19300743405E+03  0.21658816229E+03  0.00000000000E+00 0. -1.
         13    1    4    4    0    0 -0.33986806577E+02 -0.34471767042E+02 -0.80609432789E+02  0.94028114938E+02  0.00000000000E+00 0.  1.
        -13    1    3    3    0    0  0.86381770654E+02  0.28443531058E+02 -0.12329786043E+03  0.15320968359E+03  0.00000000000E+00 0.  1.
         13    1    3    3    0    0  0.13250084364E+01 -0.29291780805E+02 -0.83199172025E+02  0.88214887042E+02  0.00000000000E+00 0. -1.
         -3    1    1    2    0  502  0.24586438856E+02 -0.24065742307E+02 -0.99417301318E+02  0.10520196162E+03  0.00000000000E+00 0.  1.
<scales pt_clust_5="13000.00000" pt_clust_6="13000.00000" pt_clust_7="13000.00000" pt_clust_8="13000.00000" pt_clust_9="34.40426"></scales>
<clustering>
<clus scale="   34.404">  2  9  1 -1</clus>
<clus scale="   89.172">  7  8 -1 -1</clus>
<clus scale="   91.574">  5  6 -1 -1</clus>
<clus scale="  133.256">  1  7  2 -1</clus>
<clus scale="   34.404">  2  5  1 -1</clus>
</clustering>
</event>
<event>
 9    1  0.1399746E-005  0.3943272E+03  0.7546771E-02  0.1045808E+00
         21   -1    0    0  501  502  0.00000000000E+00  0.00000000000E+00  0.23122757962E+04  0.23122757962E+04  0.00000000000E+00 0. -1.
          1   -1    0    0  502    0 -0.00000000000E+00 -0.00000000000E+00 -0.10080970711E+03  0.10080970711E+03  0.00000000000E+00 0. -1.
         23    2    1    2    0    0  0.11148835757E+03 -0.33412060477E+03  0.60287100318E+03  0.70404187263E+03  0.90306586334E+02 0.  0.
         23    2    1    2    0    0 -0.63877669371E+02  0.44111328062E+03  0.11808300948E+04  0.12655381651E+04  0.92551886620E+02 0.  0.
        -11    1    3    3    0    0  0.10731499301E+03 -0.21252169756E+03  0.44545012230E+03  0.50508196475E+03  0.00000000000E+00 0. -1.
         11    1    3    3    0    0  0.41733645657E+01 -0.12159890722E+03  0.15742088088E+03  0.19895990788E+03  0.00000000000E+00 0.  1.
        -13    1    4    4    0    0 -0.46462554733E+02  0.37468168712E+03  0.89116292989E+03  0.96784115601E+03  0.00000000000E+00 0. -1.
         13    1    4    4    0    0 -0.17415114638E+02  0.66431593498E+02  0.28966716489E+03  0.29769700913E+03  0.00000000000E+00 0.  1.
          1    1    1    2  501    0 -0.47610688202E+02 -0.10699267585E+03  0.42776499114E+03  0.44350546554E+03  0.00000000000E+00 0. -1.
<scales pt_clust_5="13000.00000" pt_clust_6="13000.00000" pt_clust_7="13000.00000" pt_clust_8="13000.00000" pt_clust_9="117.10769"></scales>
<clustering>
<clus scale="   90.307">  5  6 -1 -1</clus>
<clus scale="   92.552">  7  8 -1 -1</clus>
<clus scale="  117.108">  1  9  2 -1</clus>
<clus scale="  393.806">  2  5  1 -1</clus>
<clus scale="  117.108">  1  5  2 -1</clus>
</clustering>
</event>
<event>
 9    1  0.1399746E-005  0.1076186E+03  0.7546771E-02  0.1267480E+00
          1   -1    0    0  502    0 -0.00000000000E+00  0.00000000000E+00  0.20677213755E+03  0.20677213755E+03  0.00000000000E+00 0. -1.
         21   -1    0    0  501  502  0.00000000000E+00 -0.00000000000E+00 -0.15825024589E+03  0.15825024589E+03  0.00000000000E+00 0.  1.
         23    2    1    2    0    0  0.50693155533E+02  0.50100793130E+01  0.15539698023E+03  0.18825255104E+03  0.93251834267E+02 0.  0.
         23    2    1    2    0    0 -0.70893665534E+02  0.31243580469E+01 -0.66220618080E+02  0.13065025254E+03  0.87456530945E+02 0.  0.
        -13    1    4    4    0    0 -0.55105532060E+02  0.35651070175E+02 -0.67926135380E+02  0.94454107035E+02  0.00000000000E+00 0.  1.
         13    1    4    4    0    0 -0.15788133475E+02 -0.32526712128E+02  0.17055172995E+01  0.36196145509E+02  0.00000000000E+00 0. -1.
        -13    1    3    3    0    0  0.22171511894E+02  0.46477044741E+02  0.10542285440E+03  0.11732719146E+03  0.00000000000E+00 0. -1.
         13    1    3    3    0    0  0.28521643639E+02 -0.41466965428E+02  0.49974125838E+02  0.70925359576E+02  0.00000000000E+00 0.  1.
          1    1    1    2  501    0  0.20200510001E+02 -0.81344373599E+01 -0.40654470492E+02  0.46119579860E+02  0.00000000000E+00 0. -1.
<scales pt_clust_5="13000.00000" pt_clust_6="13000.00000" pt_clust_7="13000.00000" pt_clust_8="13000.00000" pt_clust_9="21.77682"></scales>
<clustering>
<clus scale="   21.777">  2  9  1 -1</clus>
<clus scale="   87.457">  5  6 -1 -1</clus>
<clus scale="   93.252">  7  8 -1 -1</clus>
<clus scale="  102.638">  2  5  1 -1</clus>
<clus scale="   21.777">  2  5  1 -1</clus>
</clustering>
</event>
<event>
 9    1  0.1399746E-005  0.1069982E+03  0.7546771E-02  0.1266325E+00
         21   -1    0    0  501  502  0.00000000000E+00  0.00000000000E+00  0.86301252828E+02  0.86301252828E+02  0.00000000000E+00 0.  1.
          2   -1    0    0  502    0 -0.00000000000E+00 -0.00000000000E+00 -0.26711125030E+03  0.26711125030E+03  0.00000000000E+00 0. -1.
         23    2    1    2    0    0 -0.54397221005E+02 -0.20358522677E+02 -0.19380439249E+03  0.22225569117E+03  0.91999579408E+02 0.  0.
         23    2    1    2    0    0  0.30217156134E+02  0.34270098695E+02  0.81316312436E+01  0.10283978606E+03  0.91773536384E+02 0.  0.
        -11    1    3    3    0    0 -0.33167194756E+02  0.10913001068E+02 -0.12551640317E+02  0.37103909160E+02  0.00000000000E+00 0.  1.
         11    1    3    3    0    0 -0.21230026248E+02 -0.31271523745E+02 -0.18125275217E+03  0.18515178201E+03  0.00000000000E+00 0. -1.
        -11    1    4    4    0    0  0.43769708519E+02  0.52276294486E+02 -0.15778625056E+02  0.69982593248E+02  0.00000000000E+00 0.  1.
         11    1    4    4    0    0 -0.13552552386E+02 -0.18006195791E+02  0.23910256300E+02  0.32857192810E+02  0.00000000000E+00 0. -1.
          2    1    1    2  501    0  0.24180064871E+02 -0.13911576018E+02  0.48627637704E+01  0.28317025902E+02  0.00000000000E+00 0. -1.
<scales pt_clust_5="13000.00000" pt_clust_6="13000.00000" pt_clust_7="13000.00000" pt_clust_8="13000.00000" pt_clust_9="27.89637"></scales>
<clustering>
<clus scale="   27.896">  1  9  2 -1</clus>
<clus scale="   91.774">  7  8 -1 -1</clus>
<clus scale="   92.000">  5  6 -1 -1</clus>
<clus scale="  106.804">  1  7  2 -1</clus>
<clus scale="   27.896">  1  5  2 -1</clus>
</clustering>
</event>
<event>
 9    1  0.1399746E-005  0.9494184E+02  0.7546771E-02  0.1291723E+00
         21   -1    0    0  501  502  0.00000000000E+00  0.00000000000E+00  0.37746808521E+02  0.37746808521E+02  0.00000000000E+00 0.  1.
         -1   -1    0    0    0  501 -0.00000000000E+00 -0.00000000000E+00 -0.31583067966E+03  0.31583067966E+03  0.00000000000E+00 0.  1.
         23    2    1    2    0    0  0.23633237483E+02 -0.28052374436E-01 -0.13645151177E+03  0.16617667774E+03  0.91853919116E+02 0.  0.
         23    2    1    2    0    0 -0.19835782209E+02  0.20523387394E+02 -0.13535530789E+03  0.16563200709E+03  0.91094647017E+02 0.  0.
        -13    1    3    3    0    0  0.32250658004E+02  0.37678330141E+02 -0.10572125739E+03  0.11677647781E+03  0.00000000000E+00 0.  1.
         13    1    3    3    0    0 -0.86174205214E+01 -0.37706382516E+02 -0.30730254382E+02  0.49400199931E+02  0.00000000000E+00 0. -1.
        -13    1    4    4    0    0 -0.39072020209E+02  0.39081091714E+02 -0.12552790300E+03  0.13715396066E+03  0.00000000000E+00 0.  1.
         13    1    4    4    0    0  0.19236237999E+02 -0.18557704320E+02 -0.98274048852E+01  0.28478046435E+02  0.00000000000E+00 0. -1.
         -1    1    1    2    0  502 -0.37974552732E+01 -0.20495335020E+02 -0.62770514816E+01  0.21768803353E+02  0.00000000000E+00 0.  1.
<scales pt_clust_5="13000.00000" pt_clust_6="13000.00000" pt_clust_7="13000.00000" pt_clust_8="13000.00000" pt_clust_9="20.84417"></scales>
<clustering>
<clus scale="   20.844">  1  9  2 -1</clus>
<clus scale="   91.095">  7  8 -1 -1</clus>
<clus scale="   91.854">  5  6 -1 -1</clus>
<clus scale="   94.207">  1  7  2 -1</clus>
<clus scale="   20.844">  1  5  2 -1</clus>
</clustering>
</event>
<event>
 9    1  0.1399746E-005  0.1485111E+03  0.7546771E-02  0.1215596E+00
         21   -1    0    0  501  502  0.00000000000E+00  0.00000000000E+00  0.74183465125E+03  0.74183465125E+03  0.00000000000E+00 0.  1.
         -4   -1    0    0    0  501 -0.00000000000E+00 -0.00000000000E+00 -0.50553882774E+02  0.50553882774E+02  0.00000000000E+00 0.  1.
         23    2    1    2    0    0  0.39871496295E+02  0.51701027220E+02  0.17377996936E+03  0.20662698354E+03  0.90733125954E+02 0.  0.
         23    2    1    2    0    0 -0.57705549978E+02  0.84309748811E+02  0.24959471492E+03  0.28477873600E+03  0.91451312269E+02 0.  0.
        -11    1    4    4    0    0 -0.39880139497E+02 -0.37959074775E+01  0.12414111946E+03  0.13044482351E+03  0.00000000000E+00 0. -1.
         11    1    4    4    0    0 -0.17825410481E+02  0.88105656289E+02  0.12545359546E+03  0.15433391249E+03  0.00000000000E+00 0.  1.
        -13    1    3    3    0    0  0.24291737476E+02 -0.18151710080E+02  0.97152584202E+02  0.10177523130E+03  0.00000000000E+00 0. -1.
         13    1    3    3    0    0  0.15579758818E+02  0.69852737299E+02  0.76627385156E+02  0.10485175224E+03  0.00000000000E+00 0.  1.
         -4    1    1    2    0  502  0.17834053684E+02 -0.13601077603E+03  0.26790608420E+03  0.30098281449E+03  0.00000000000E+00 0.  1.
<scales pt_clust_5="13000.00000" pt_clust_6="13000.00000" pt_clust_7="13000.00000" pt_clust_8="13000.00000" pt_clust_9="117.01369"></scales>
<clustering>
<clus scale="   90.733">  7  8 -1 -1</clus>
<clus scale="   91.451">  5  6 -1 -1</clus>
<clus scale="  111.782">  2  7  1 -1</clus>
<clus scale="  117.014">  1  9  2 -1</clus>
<clus scale="  117.014">  1  5  2 -1</clus>
</clustering>
</event>
<event>
 9    1  0.1399746E-005  0.1152226E+03  0.7546771E-02  0.1252603E+00
         21   -1    0    0  501  502  0.00000000000E+00  0.00000000000E+00  0.85946361093E+02  0.85946361093E+02  0.00000000000E+00 0. -1.
          2   -1    0    0  502    0 -0.00000000000E+00 -0.00000000000E+00 -0.49434104582E+03  0.49434104582E+03  0.00000000000E+00 0. -1.
         23    2    1    2    0    0  0.77707363517E+02 -0.52657138567E+01 -0.29384848608E+03  0.31804162486E+03  0.93473955130E+02 0.  0.
         23    2    1    2    0    0 -0.51248178428E+02  0.23936669009E+02 -0.16868298117E+03  0.19916262849E+03  0.89512370864E+02 0.  0.
        -11    1    3    3    0    0  0.36599815628E+01 -0.35432341997E+02 -0.14234036963E+03  0.14672977595E+03  0.00000000000E+00 0.  1.
         11    1    3    3    0    0  0.74047381954E+02  0.30166628140E+02 -0.15150811645E+03  0.17131184891E+03  0.00000000000E+00 0. -1.
        -13    1    4    4    0    0 -0.26897185417E+02  0.38013943463E+01  0.38511922652E+00  0.27167213680E+02  0.00000000000E+00 0.  1.
         13    1    4    4    0    0 -0.24350993012E+02  0.20135274662E+02 -0.16906810039E+03  0.17199541481E+03  0.00000000000E+00 0. -1.
          2    1    1    2  501    0 -0.26459185088E+02 -0.18670955152E+02  0.54136782515E+02  0.63083153559E+02  0.00000000000E+00 0. -1.
<scales pt_clust_5="13000.00000" pt_clust_6="13000.00000" pt_clust_7="13000.00000" pt_clust_8="13000.00000" pt_clust_9="32.38353"></scales>
<clustering>
<clus scale="   32.384">  1  9  2 -1</clus>
<clus scale="   89.512">  7  8 -1 -1</clus>
<clus scale="   93.474">  5  6 -1 -1</clus>
<clus scale="  112.033">  1  7  2 -1</clus>
<clus scale="   32.384">  1  5  2 -1</clus>
</clustering>
</event>
<event>
 9    1  0.1399746E-005  0.1738012E+03  0.7546771E-02  0.1174035E+00
          4   -1    0    0  502    0 -0.00000000000E+00  0.00000000000E+00  0.50827608089E+03  0.50827608089E+03  0.00000000000E+00 0. -1.
         21   -1    0    0  501  502  0.00000000000E+00 -0.00000000000E+00 -0.17822109685E+03  0.17822109685E+03  0.00000000000E+00 0. -1.
         23    2    1    2    0    0 -0.14551053754E+02 -0.16591584156E+03  0.36537185282E+03  0.41196838149E+03  0.92095368289E+02 0.  0.
         23    2    1    2    0    0  0.71842840349E+02  0.91232329920E+02  0.40992360322E+02  0.15335506078E+03  0.91392939167E+02 0.  0.
        -11    1    4    4    0    0  0.32867966334E+02  0.86960373107E+02 -0.47779063960E+01  0.93087260628E+02  0.00000000000E+00 0.  1.
         11    1    4    4    0    0  0.38974874016E+02  0.42719568136E+01  0.45770266718E+02  0.60267800151E+02  0.00000000000E+00 0. -1.
        -13    1    3    3    0    0  0.15308020229E+02 -0.11940175372E+03  0.31487505985E+03  0.33710149449E+03  0.00000000000E+00 0. -1.
         13    1    3    3    0    0 -0.29859073983E+02 -0.46514087846E+02  0.50496792978E+02  0.74866886995E+02  0.00000000000E+00 0.  1.
          4    1    1    2  501    0 -0.57291786595E+02  0.74683511643E+02 -0.76309229109E+02  0.12117373548E+03  0.00000000000E+00 0. -1.
<scales pt_clust_5="13000.00000" pt_clust_6="13000.00000" pt_clust_7="13000.00000" pt_clust_8="13000.00000" pt_clust_9="94.12744"></scales>
<clustering>
<clus scale="   91.393">  5  6 -1 -1</clus>
<clus scale="   92.095">  7  8 -1 -1</clus>
<clus scale="   94.127">  2  9  1 -1</clus>
<clus scale="  173.430">  2  5  1 -1</clus>
<clus scale="   94.127">  2  5  1 -1</clus>
</clustering>
</event>
<event>
 9    1  0.1399746E-005  0.1344049E+03  0.7546771E-02  0.1237705E+00
         21   -1    0    0  501  502  0.00000000000E+00  0.00000000000E+00  0.97339150291E+03  0.97339150291E+03  0.00000000000E+00 0. -1.
          2   -1    0    0  502    0 -0.00000000000E+00 -0.00000000000E+00 -0.37879553052E+02  0.37879553052E+02  0.00000000000E+00 0. -1.
         23    2    1    2    0    0  0.14668306581E+02  0.19318299293E+02  0.10826604183E+03  0.14422193615E+03  0.92141603782E+02 0.  0.
         23    2    1    2    0    0  0.31661488830E+02  0.74714337883E+02  0.22469026225E+03  0.25544312486E+03  0.90447741433E+02 0.  0.
        -13    1    3    3    0    0  0.33444998094E+02 -0.25787297702E+01  0.14455751087E+01  0.33575399210E+02  0.00000000000E+00 0. -1.
         13    1    3    3    0    0 -0.18776691513E+02  0.21897029064E+02  0.10682046672E+03  0.11064653694E+03  0.00000000000E+00 0.  1.
        -13    1    4    4    0    0  0.41919620108E+01 -0.20620190488E+02  0.26785320757E+02  0.34061976004E+02  0.00000000000E+00 0.  1.
         13    1    4    4    0    0  0.27469526819E+02  0.95334528371E+02  0.19790494149E+03  0.22138114886E+03  0.00000000000E+00 0. -1.
          2    1    1    2  501    0 -0.46329795411E+02 -0.94032637177E+02  0.60255564579E+03  0.61160599495E+03  0.00000000000E+00 0. -1.
<scales pt_clust_5="13000.00000" pt_clust_6="13000.00000" pt_clust_7="13000.00000" pt_clust_8="13000.00000" pt_clust_9="99.41769"></scales>
<clustering>
<clus scale="   90.448">  7  8 -1 -1</clus>
<clus scale="   92.142">  5  6 -1 -1</clus>
<clus scale="   95.281">  2  5  1 -1</clus>
<clus scale="   99.418">  1  9  2 -1</clus>
<clus scale="   99.418">  1  5  2 -1</clus>
</clustering>
</event>
<event>
 9    1  0.1399746E-005  0.1109338E+03  0.7546771E-02  0.1262355E+00
         21   -1    0    0  501  502  0.00000000000E+00  0.00000000000E+00  0.29543961477E+02  0.29543961477E+02  0.00000000000E+00 0.  1.
          2   -1    0    0  502    0 -0.00000000000E+00 -0.00000000000E+00 -0.54525862110E+03  0.54525862110E+03  0.00000000000E+00 0. -1.
         23    2    1    2    0    0 -0.55070231193E+02 -0.87112683860E+01 -0.34310623105E+03  0.35902533275E+03  0.89825871580E+02 0.  0.
         23    2    1    2    0    0  0.42481269711E+02 -0.75802307998E+01 -0.13084497730E+03  0.16921459571E+03  0.98239773725E+02 0.  0.
        -11    1    4    4    0    0  0.73611260589E+02 -0.88714625231E+01 -0.10603736147E+03  0.12938795369E+03  0.00000000000E+00 0.  1.
         11    1    4    4    0    0 -0.31129990878E+02  0.12912317233E+01 -0.24807615831E+02  0.39826642021E+02  0.00000000000E+00 0. -1.
        -13    1    3    3    0    0  0.10426278030E+02 -0.26377697487E+02 -0.44200320888E+02  0.52518173662E+02  0.00000000000E+00 0.  1.
         13    1    3    3    0    0 -0.65496509223E+02  0.17666429101E+02 -0.29890591016E+03  0.30650715908E+03  0.00000000000E+00 0. -1.
          2    1    1    2  501    0  0.12588961482E+02  0.16291499186E+02 -0.41763451271E+02  0.46562654123E+02  0.00000000000E+00 0. -1.
<scales pt_clust_5="13000.00000" pt_clust_6="13000.00000" pt_clust_7="13000.00000" pt_clust_8="13000.00000" pt_clust_9="20.58871"></scales>
<clustering>
<clus scale="   20.589">  1  9  2 -1</clus>
<clus scale="   89.826">  7  8 -1 -1</clus>
<clus scale="   98.240">  5  6 -1 -1</clus>
<clus scale="  103.556">  2  7  1 -1</clus>
<clus scale="   20.589">  1  5  2 -1</clus>
</clustering>
</event>
<event>
 9    1  0.1399746E-005  0.9641040E+02  0.7546771E-02  0.1288312E+00
          1   -1    0    0  502    0 -0.00000000000E+00  0.00000000000E+00  0.61417958015E+03  0.61417958015E+03  0.00000000000E+00 0. -1.
         21   -1    0    0  501  502  0.00000000000E+00 -0.00000000000E+00 -0.60885661317E+02  0.60885661317E+02  0.00000000000E+00 0. -1.
         23    2    1    2    0    0  0.43088001672E+02 -0.40638107182E+02  0.35720302465E+03  0.37340332516E+03  0.91257935458E+02 0.  0.
         23    2    1    2    0    0 -0.10535768882E+02 -0.35064070413E+02  0.19622236258E+03  0.21925751814E+03  0.90720186417E+02 0.  0.
        -11    1    4    4    0    0  0.40234719321E+02 -0.19602875469E+02  0.90287562434E+02  0.10077176835E+03  0.00000000000E+00 0.  1.
         11    1    4    4    0    0 -0.50770488203E+02 -0.15461194944E+02  0.10593480015E+03  0.11848574979E+03  0.00000000000E+00 0. -1.
        -13    1    3    3    0    0 -0.14946626220E+02 -0.45412067330E+02  0.12037195625E+03  0.12951859074E+03  0.00000000000E+00 0. -1.
         13    1    3    3    0    0  0.58034627892E+02  0.47739601481E+01  0.23683106839E+03  0.24388473443E+03  0.00000000000E+00 0.  1.
          1    1    1    2  501    0 -0.32552232789E+02  0.75702177594E+02 -0.13146839934E+00  0.82404398160E+02  0.00000000000E+00 0. -1.
<scales pt_clust_5="13000.00000" pt_clust_6="13000.00000" pt_clust_7="13000.00000" pt_clust_8="13000.00000" pt_clust_9="82.40429"></scales>
<clustering>
<clus scale="   82.404">  2  9  1 -1</clus>
<clus scale="   90.720">  5  6 -1 -1</clus>
<clus scale="   91.258">  7  8 -1 -1</clus>
<clus scale="   95.902">  2  5  1 -1</clus>
<clus scale="   82.404">  2  5  1 -1</clus>
</clustering>
</event>
<event>
 9    1  0.1399746E-005  0.1162186E+03  0.7546771E-02  0.1249588E+00
         21   -1    0    0  501  502  0.00000000000E+00  0.00000000000E+00  0.52949272493E+02  0.52949272493E+02  0.00000000000E+00 0.  1.
          1   -1    0    0  502    0 -0.00000000000E+00 -0.00000000000E+00 -0.54459261749E+03  0.54459261749E+03  0.00000000000E+00 0. -1.
         23    2    1    2    0    0  0.18717760423E+02  0.97368244317E+02 -0.32975486278E+03  0.35629335930E+03  0.91519171739E+02 0.  0.
         23    2    1    2    0    0 -0.13311792915E+02 -0.37131399195E+02 -0.14896195593E+03  0.17940358686E+03  0.91869679579E+02 0.  0.
        -11    1    3    3    0    0 -0.33178485541E+02  0.31007929523E+02 -0.16652839881E+03  0.17260941807E+03  0.00000000000E+00 0. -1.
         11    1    3    3    0    0  0.51896245964E+02  0.66360314794E+02 -0.16322646397E+03  0.18368394123E+03  0.00000000000E+00 0.  1.
        -13    1    4    4    0    0 -0.50209507469E+01  0.25248784662E+02 -0.11445966688E+02  0.28173058527E+02  0.00000000000E+00 0. -1.
         13    1    4    4    0    0 -0.82908421680E+01 -0.62380183857E+02 -0.13751598924E+03  0.15123052833E+03  0.00000000000E+00 0.  1.
          1    1    1    2  501    0 -0.54059675079E+01 -0.60236845122E+02 -0.12926526282E+02  0.61844943824E+02  0.00000000000E+00 0. -1.
<scales pt_clust_5="13000.00000" pt_clust_6="13000.00000" pt_clust_7="13000.00000" pt_clust_8="13000.00000" pt_clust_9="60.47894"></scales>
<clustering>
<clus scale="   60.479">  1  9  2 -1</clus>
<clus scale="   91.519">  5  6 -1 -1</clus>
<clus scale="   91.870">  7  8 -1 -1</clus>
<clus scale="  115.942">  2  5  1 -1</clus>
<clus scale="   60.479">  1  5  2 -1</clus>
</clustering>
</event>
<event>
 9    1  0.1399746E-005  0.1057700E+03  0.7546771E-02  0.1274038E+00
         21   -1    0    0  501  502  0.00000000000E+00  0.00000000000E+00  0.73083228545E+02  0.73083228545E+02  0.00000000000E+00 0. -1.
          2   -1    0    0  502    0 -0.00000000000E+00 -0.00000000000E+00 -0.22419842404E+03  0.22419842404E+03  0.00000000000E+00 0. -1.
         23    2    1    2    0    0 -0.61406274779E+01  0.31154479639E+02 -0.11724034084E+03  0.15763361754E+03  0.10047263782E+03 0.  0.
         23    2    1    2    0    0  0.36197536552E+02 -0.22843500627E+02 -0.41731384304E+02  0.10748881843E+03  0.89332247697E+02 0.  0.
        -11    1    3    3    0    0 -0.49543428931E+02 -0.19934917690E+00 -0.72753435678E+02  0.88020756037E+02  0.00000000000E+00 0.  1.
         11    1    3    3    0    0  0.43402801453E+02  0.31353828816E+02 -0.44486905161E+02  0.69612861500E+02  0.00000000000E+00 0. -1.
        -13    1    4    4    0    0  0.28655559067E+02 -0.55099631330E+02 -0.40878720230E+02  0.74351733039E+02  0.00000000000E+00 0. -1.
         13    1    4    4    0    0  0.75419774854E+01  0.32256130703E+02 -0.85266407318E+00  0.33137085393E+02  0.00000000000E+00 0.  1.
          2    1    1    2  501    0 -0.30056909074E+02 -0.83109790113E+01  0.78565296484E+01  0.32159216616E+02  0.00000000000E+00 0. -1.
<scales pt_clust_5="13000.00000" pt_clust_6="13000.00000" pt_clust_7="13000.00000" pt_clust_8="13000.00000" pt_clust_9="31.18477"></scales>
<clustering>
<clus scale="   31.185">  1  9  2 -1</clus>
<clus scale="   89.332">  7  8 -1 -1</clus>
<clus scale="   95.251">  1  7  2 -1</clus>
<clus scale="  100.473">  5  6 -1 -1</clus>
<clus scale="   31.185">  1  5  2 -1</clus>
</clustering>
</event>
<event>
 9    1  0.1399746E-005  0.9431859E+02  0.7546771E-02  0.1292957E+00
         -1   -1    0    0    0  501 -0.00000000000E+00  0.00000000000E+00  0.30874969528E+03  0.30874969528E+03  0.00000000000E+00 0.  1.
         21   -1    0    0  501  502  0.00000000000E+00 -0.00000000000E+00 -0.48749576680E+02  0.48749576680E+02  0.00000000000E+00 0. -1.
         23    2    1    2    0    0 -0.22372382603E+01  0.17855496362E+02  0.13158344103E+03  0.16120434714E+03  0.91371853421E+02 0.  0.
         23    2    1    2    0    0  0.28754621463E+02 -0.17624981982E+02  0.13749748071E+03  0.16826483859E+03  0.90939707814E+02 0.  0.
        -11    1    3    3    0    0  0.41817158934E+02  0.79533641517E+01  0.91123951410E+02  0.10057586839E+03  0.00000000000E+00 0. -1.
         11    1    3    3    0    0 -0.44054397195E+02  0.99021322098E+01  0.40459489620E+02  0.60628478744E+02  0.00000000000E+00 0.  1.
        -13    1    4    4    0    0 -0.22420286610E+02 -0.51179390926E+01  0.22348454671E+01  0.23105347573E+02  0.00000000000E+00 0.  1.
         13    1    4    4    0    0  0.51174908072E+02 -0.12507042889E+02  0.13526263524E+03  0.14515949101E+03  0.00000000000E+00 0. -1.
         -1    1    1    2    0  502 -0.26517383203E+02 -0.23051437947E+00 -0.90808031400E+01  0.28030086237E+02  0.00000000000E+00 0.  1.
<scales pt_clust_5="13000.00000" pt_clust_6="13000.00000" pt_clust_7="13000.00000" pt_clust_8="13000.00000" pt_clust_9="26.51839"></scales>
<clustering>
<clus scale="   26.518">  2  9  1 -1</clus>
<clus scale="   90.940">  7  8 -1 -1</clus>
<clus scale="   91.372">  5  6 -1 -1</clus>
<clus scale="   93.900">  2  7  1 -1</clus>
<clus scale="   26.518">  2  5  1 -1</clus>
</clustering>
</event>
<event>
 9    1  0.1399746E-005  0.1770021E+03  0.7546771E-02  0.1171241E+00
          2   -1    0    0  502    0 -0.00000000000E+00  0.00000000000E+00  0.11350281293E+04  0.11350281293E+04  0.00000000000E+00 0. -1.
         21   -1    0    0  501  502  0.00000000000E+00 -0.00000000000E+00 -0.37484138711E+02  0.37484138711E+02  0.00000000000E+00 0.  1.
         23    2    1    2    0    0  0.12190696842E+03 -0.67109907215E+02  0.52804678802E+03  0.55398461239E+03  0.93276426976E+02 0.  0.
         23    2    1    2    0    0 -0.13147365605E+03  0.99552995880E+02  0.54606050987E+03  0.57737727190E+03  0.89366170548E+02 0.  0.
        -11    1    3    3    0    0  0.10343145634E+03 -0.12785383685E+02  0.26510363843E+03  0.28485342074E+03  0.00000000000E+00 0.  1.
         11    1    3    3    0    0  0.18475512078E+02 -0.54324523530E+02  0.26294314959E+03  0.26913119165E+03  0.00000000000E+00 0. -1.
        -11    1    4    4    0    0 -0.56527407940E+02  0.25517543937E+02  0.89950881384E+02  0.10925957147E+03  0.00000000000E+00 0.  1.
         11    1    4    4    0    0 -0.74946248110E+02  0.74035451942E+02  0.45610962849E+03  0.46811770043E+03  0.00000000000E+00 0. -1.
          2    1    1    2  501    0  0.95666876292E+01 -0.32443088664E+02  0.23436692646E+02  0.41150383673E+02  0.00000000000E+00 0. -1.
<scales pt_clust_5="13000.00000" pt_clust_6="13000.00000" pt_clust_7="13000.00000" pt_clust_8="13000.00000" pt_clust_9="33.82419"></scales>
<clustering>
<clus scale="   33.824">  2  9  1 -1</clus>
<clus scale="   89.366">  7  8 -1 -1</clus>
<clus scale="   93.276">  5  6 -1 -1</clus>
<clus scale="  174.973">  2  7  1 -1</clus>
<clus scale="   33.824">  2  5  1 -1</clus>
</clustering>
</event>
<event>
 9    1  0.1399746E-005  0.9533552E+02  0.7546771E-02  0.1292600E+00
          2   -1    0    0  502    0 -0.00000000000E+00  0.00000000000E+00  0.52461434301E+03  0.52461434301E+03  0.00000000000E+00 0.  1.
         21   -1    0    0  501  502  0.00000000000E+00 -0.00000000000E+00 -0.75010965576E+02  0.75010965576E+02  0.00000000000E+00 0.  1.
         23    2    1    2    0    0 -0.58701857080E+01  0.11823002703E+01  0.36846375745E+03  0.38044655745E+03  0.94541978050E+02 0.  0.
         23    2    1    2    0    0  0.26075717730E+02  0.19780580974E+02  0.13026467878E+03  0.16207378360E+03  0.90707278392E+02 0.  0.
        -11    1    3    3    0    0 -0.41854146657E+02  0.23142453043E+02  0.13533653571E+03  0.14353856842E+03  0.00000000000E+00 0. -1.
         11    1    3    3    0    0  0.35983960949E+02 -0.21960152773E+02  0.23312722174E+03  0.23690798904E+03  0.00000000000E+00 0.  1.
        -13    1    4    4    0    0  0.30960978917E+02 -0.14124165531E+02  0.12224407740E+03  0.12689242975E+03  0.00000000000E+00 0.  1.
         13    1    4    4    0    0 -0.48852611867E+01  0.33904746505E+02  0.80206013817E+01  0.35181353853E+02  0.00000000000E+00 0. -1.
          2    1    1    2  501    0 -0.20205532022E+02 -0.20962881244E+02 -0.49125058799E+02  0.57104967528E+02  0.00000000000E+00 0.  1.
<scales pt_clust_5="13000.00000" pt_clust_6="13000.00000" pt_clust_7="13000.00000" pt_clust_8="13000.00000" pt_clust_9="29.11539"></scales>
<clustering>
<clus scale="   29.115">  2  9  1 -1</clus>
<clus scale="   90.707">  7  8 -1 -1</clus>
<clus scale="   91.534">  2  7  1 -1</clus>
<clus scale="   94.542">  5  6 -1 -1</clus>
<clus scale="   29.115">  2  5  1 -1</clus>
</clustering>
</event>
<event>
 9    1  0.1399746E-005  0.1115632E+03  0.7546771E-02  0.1258528E+00
          1   -1    0    0  502    0 -0.00000000000E+00  0.00000000000E+00  0.15513457421E+03  0.15513457421E+03  0.00000000000E+00 0. -1.
         21   -1    0    0  501  502  0.00000000000E+00 -0.00000000000E+00 -0.31074318286E+03  0.31074318286E+03  0.00000000000E+00 0.  1.
         23    2    1    2    0    0  0.30955520637E+02  0.45048964333E+02  0.60211520438E+02  0.12465392417E+03  0.94474971141E+02 0.  0.
         23    2    1    2    0    0 -0.65598876599E+02 -0.32055680349E+02  0.45145287065E+01  0.11780416285E+03  0.92339918573E+02 0.  0.
        -11    1    4    4    0    0 -0.73265396702E+02  0.10777725943E+02  0.57095837143E+01  0.74273663411E+02  0.00000000000E+00 0.  1.
         11    1    4    4    0    0  0.76665201025E+01 -0.42833406292E+02 -0.11950550079E+01  0.43530499440E+02  0.00000000000E+00 0. -1.
        -13    1    3    3    0    0  0.47852477723E+02  0.13554414943E+02  0.71567673309E+02  0.87152244099E+02  0.00000000000E+00 0. -1.
         13    1    3    3    0    0 -0.16896957086E+02  0.31494549390E+02 -0.11356152871E+02  0.37501680071E+02  0.00000000000E+00 0.  1.
          1    1    1    2  501    0  0.34643355962E+02 -0.12993283985E+02 -0.22033465779E+03  0.22341967005E+03  0.00000000000E+00 0. -1.
<scales pt_clust_5="13000.00000" pt_clust_6="13000.00000" pt_clust_7="13000.00000" pt_clust_8="13000.00000" pt_clust_9="36.99983"></scales>
<clustering>
<clus scale="   37.000">  2  9  1 -1</clus>
<clus scale="   92.340">  5  6 -1 -1</clus>
<clus scale="   94.475">  7  8 -1 -1</clus>
<clus scale="  109.761">  2  5  1 -1</clus>
<clus scale="   37.000">  2  5  1 -1</clus>
</clustering>
</event>
<event>
 9    1  0.1399746E-005  0.1802639E+03  0.7546771E-02  0.1193679E+00
         21   -1    0    0  501  502  0.00000000000E+00  0.00000000000E+00  0.19597034551E+03  0.19597034551E+03  0.00000000000E+00 0. -1.
          1   -1    0    0  502    0 -0.00000000000E+00 -0.00000000000E+00 -0.38585357721E+03  0.38585357721E+03  0.00000000000E+00 0. -1.
         23    2    1    2    0    0  0.39144850739E+02  0.73570196982E+01 -0.15170846060E+03  0.18183449106E+03  0.91988477778E+02 0.  0.
         23    2    1    2    0    0 -0.16502421252E+03 -0.90452016709E+02 -0.10879835102E+03  0.23344189404E+03  0.85108628615E+02 0.  0.
        -11    1    3    3    0    0  0.34512833259E+00  0.37900662707E+02 -0.11270989762E+03  0.11891215399E+03  0.00000000000E+00 0.  1.
         11    1    3    3    0    0  0.38799722407E+02 -0.30543643009E+02 -0.38998562982E+02  0.62922337065E+02  0.00000000000E+00 0. -1.
        -13    1    4    4    0    0 -0.11472670430E+03 -0.15001277975E+02 -0.65488533564E+02  0.13295113030E+03  0.00000000000E+00 0. -1.
         13    1    4    4    0    0 -0.50297508217E+02 -0.75450738735E+02 -0.43309817454E+02  0.10049076374E+03  0.00000000000E+00 0.  1.
          1    1    1    2  501    0  0.12587936178E+03  0.83094997011E+02  0.70623579913E+02  0.16654753763E+03  0.00000000000E+00 0. -1.
<scales pt_clust_5="13000.00000" pt_clust_6="13000.00000" pt_clust_7="13000.00000" pt_clust_8="13000.00000" pt_clust_9="158.90748"></scales>
<clustering>
<clus scale="   85.109">  7  8 -1 -1</clus>
<clus scale="   91.988">  5  6 -1 -1</clus>
<clus scale="  100.241">  2  5  1 -1</clus>
<clus scale="  158.907">  1  9  2 -1</clus>
<clus scale="  158.907">  1  5  2 -1</clus>
</clustering>
</event>
<event>
 9    1  0.1399746E-005  0.1496200E+03  0.7546771E-02  0.1202378E+00
          2   -1    0    0  502    0 -0.00000000000E+00  0.00000000000E+00  0.40946490710E+03  0.40946490710E+03  0.00000000000E+00 0. -1.
         21   -1    0    0  501  502  0.00000000000E+00 -0.00000000000E+00 -0.14766988070E+03  0.14766988070E+03  0.00000000000E+00 0.  1.
         23    2    1    2    0    0 -0.10012191319E+03  0.57057679352E+02  0.29055368491E+03  0.32695494871E+03  0.95906821430E+02 0.  0.
         23    2    1    2    0    0  0.12002819675E+03 -0.14102707268E+02  0.31932416069E+02  0.15320714079E+03  0.88583827098E+02 0.  0.
        -11    1    3    3    0    0 -0.77755009999E+02 -0.10388273161E+02  0.14015733278E+03  0.16061704683E+03  0.00000000000E+00 0. -1.
         11    1    3    3    0    0 -0.22366903191E+02  0.67445952513E+02  0.15039635213E+03  0.16633790188E+03  0.00000000000E+00 0.  1.
        -11    1    4    4    0    0  0.85709341797E+02  0.28113542123E+02  0.15834448386E+00  0.90202481091E+02  0.00000000000E+00 0.  1.
         11    1    4    4    0    0  0.34318854957E+02 -0.42216249390E+02  0.31774071585E+02  0.63004659695E+02  0.00000000000E+00 0. -1.
          2    1    1    2  501    0 -0.19906283564E+02 -0.42954972084E+02 -0.60691074572E+02  0.76972698308E+02  0.00000000000E+00 0. -1.
<scales pt_clust_5="13000.00000" pt_clust_6="13000.00000" pt_clust_7="13000.00000" pt_clust_8="13000.00000" pt_clust_9="47.34332"></scales>
<clustering>
<clus scale="   47.343">  2  9  1 -1</clus>
<clus scale="   88.584">  7  8 -1 -1</clus>
<clus scale="   95.907">  5  6 -1 -1</clus>
<clus scale="  145.035">  2  7  1 -1</clus>
<clus scale="   47.343">  2  5  1 -1</clus>
</clustering>
</event>
<event>
 9    1  0.1399746E-005  0.9710787E+02  0.7546771E-02  0.1287642E+00
         21   -1    0    0  501  502  0.00000000000E+00  0.00000000000E+00  0.66594887405E+02  0.66594887405E+02  0.00000000000E+00 0. -1.
         -1   -1    0    0    0  501 -0.00000000000E+00 -0.00000000000E+00 -0.33391032184E+03  0.33391032184E+03  0.00000000000E+00 0.  1.
         23    2    1    2    0    0 -0.83744096707E+01 -0.15137954352E+02 -0.20898424286E+03  0.22958547423E+03  0.93465436470E+02 0.  0.
         23    2    1    2    0    0  0.16217195949E+02  0.45973340170E+02 -0.81346180774E+02  0.13165117197E+03  0.91314207573E+02 0.  0.
        -11    1    3    3    0    0 -0.25313306351E+02 -0.38876614169E+02 -0.51044828527E+02  0.68976293949E+02  0.00000000000E+00 0.  1.
         11    1    3    3    0    0  0.16938896680E+02  0.23738659817E+02 -0.15793941433E+03  0.16060918028E+03  0.00000000000E+00 0. -1.
        -13    1    4    4    0    0 -0.49952630885E+01 -0.22881637367E+02 -0.59177531228E+00  0.23428021255E+02  0.00000000000E+00 0.  1.
         13    1    4    4    0    0  0.21212459038E+02  0.68854977536E+02 -0.80754405462E+02  0.10822315072E+03  0.00000000000E+00 0. -1.
         -1    1    1    2    0  502 -0.78427862784E+01 -0.30835385818E+02  0.23014989201E+02  0.39268563038E+02  0.00000000000E+00 0.  1.
<scales pt_clust_5="13000.00000" pt_clust_6="13000.00000" pt_clust_7="13000.00000" pt_clust_8="13000.00000" pt_clust_9="31.81714"></scales>
<clustering>
<clus scale="   31.817">  1  9  2 -1</clus>
<clus scale="   91.314">  7  8 -1 -1</clus>
<clus scale="   93.465">  5  6 -1 -1</clus>
<clus scale="   95.039">  1  7  2 -1</clus>
<clus scale="   31.817">  1  5  2 -1</clus>
</clustering>
</event>
<event>
 9    1  0.1399746E-005  0.1073990E+03  0.7546771E-02  0.1267511E+00
         -4   -1    0    0    0  501 -0.00000000000E+00  0.00000000000E+00  0.52085863769E+03  0.52085863769E+03  0.00000000000E+00 0.  1.
         21   -1    0    0  501  502  0.00000000000E+00 -0.00000000000E+00 -0.86104161842E+02  0.86104161842E+02  0.00000000000E+00 0.  1.
         23    2    1    2    0    0 -0.64424727371E+02 -0.26254443181E+02  0.30379030563E+03  0.32579149888E+03  0.94930025067E+02 0.  0.
         23    2    1    2    0    0  0.30180794184E+02 -0.44696471284E+02  0.16479302526E+03  0.19543291569E+03  0.90158906804E+02 0.  0.
        -11    1    3    3    0    0  0.11840739312E+02 -0.37561736447E+02  0.12578603694E+03  0.13180748932E+03  0.00000000000E+00 0. -1.
         11    1    3    3    0    0 -0.76265466683E+02  0.11307293266E+02  0.17800426870E+03  0.19398400956E+03  0.00000000000E+00 0.  1.
        -11    1    4    4    0    0 -0.65205500472E+01 -0.59763234867E+02  0.12759451974E+03  0.14104794675E+03  0.00000000000E+00 0.  1.
         11    1    4    4    0    0  0.36701344231E+02  0.15066763583E+02  0.37198505523E+02  0.54384968937E+02  0.00000000000E+00 0. -1.
         -4    1    1    2    0  502  0.34243933187E+02  0.70950914465E+02 -0.33828855047E+02  0.85738384971E+02  0.00000000000E+00 0.  1.
<scales pt_clust_5="13000.00000" pt_clust_6="13000.00000" pt_clust_7="13000.00000" pt_clust_8="13000.00000" pt_clust_9="78.78248"></scales>
<clustering>
<clus scale="   78.782">  2  9  1 -1</clus>
<clus scale="   90.159">  7  8 -1 -1</clus>
<clus scale="   94.930">  5  6 -1 -1</clus>
<clus scale="  103.206">  2  7  1 -1</clus>
<clus scale="   78.782">  2  5  1 -1</clus>
</clustering>
</event>
<event>
 9    1  0.1399746E-005  0.1124402E+03  0.7546771E-02  0.1256654E+00
          1   -1    0    0  502    0 -0.00000000000E+00  0.00000000000E+00  0.19425282161E+03  0.19425282161E+03  0.00000000000E+00 0. -1.
         21   -1    0    0  501  502  0.00000000000E+00 -0.00000000000E+00 -0.10088366421E+03  0.10088366421E+03  0.00000000000E+00 0.  1.
         23    2    1    2    0    0  0.30872496938E+02  0.67148893636E+02  0.98751982470E+02  0.15256533236E+03  0.89789429297E+02 0.  0.
         23    2    1    2    0    0 -0.42451128542E+02 -0.41922611406E+02  0.15699897776E+02  0.10771557674E+03  0.88298103158E+02 0.  0.
        -13    1    4    4    0    0  0.23840246808E+02 -0.35935233482E+01 -0.11159497118E+02  0.26566993692E+02  0.00000000000E+00 0. -1.
         13    1    4    4    0    0 -0.66291375350E+02 -0.38329088058E+02  0.26859394894E+02  0.81148583052E+02  0.00000000000E+00 0.  1.
        -13    1    3    3    0    0 -0.12733607318E+02 -0.17132581442E+02  0.19952992918E+02  0.29219719858E+02  0.00000000000E+00 0.  1.
         13    1    3    3    0    0  0.43606104256E+02  0.84281475078E+02  0.78798989552E+02  0.12334561250E+03  0.00000000000E+00 0. -1.
          1    1    1    2  501    0  0.11578631604E+02 -0.25226282229E+02 -0.21082722854E+02  0.34855576711E+02  0.00000000000E+00 0. -1.
<scales pt_clust_5="13000.00000" pt_clust_6="13000.00000" pt_clust_7="13000.00000" pt_clust_8="13000.00000" pt_clust_9="27.75662"></scales>
<clustering>
<clus scale="   27.757">  2  9  1 -1</clus>
<clus scale="   88.298">  5  6 -1 -1</clus>
<clus scale="   89.789">  7  8 -1 -1</clus>
<clus scale="  111.253">  2  5  1 -1</clus>
<clus scale="   27.757">  2  5  1 -1</clus>
</clustering>
</event>
<event>
 9    1  0.1399746E-005  0.9206730E+02  0.7546771E-02  0.1297997E+00
         21   -1    0    0  501  502  0.00000000000E+00  0.00000000000E+00  0.12820985193E+03  0.12820985193E+03  0.00000000000E+00 0.  1.
          4   -1    0    0  502    0 -0.00000000000E+00 -0.00000000000E+00 -0.17203279297E+03  0.17203279297E+03  0.00000000000E+00 0. -1.
         23    2    1    2    0    0 -0.10565854949E+02 -0.24386847963E+01 -0.11113762673E+03  0.14441407577E+03  0.91576573053E+02 0.  0.
         23    2    1    2    0    0 -0.67679885822E+01  0.13511309292E+02  0.82778038567E+01  0.93311223044E+02  0.91706603694E+02 0.  0.
        -11    1    3    3    0    0 -0.40210827649E+02 -0.19101224470E+02 -0.23348520903E+02  0.50268487791E+02  0.00000000000E+00 0.  1.
         11    1    3    3    0    0  0.29644972700E+02  0.16662539674E+02 -0.87789105824E+02  0.94145587980E+02  0.00000000000E+00 0. -1.
        -13    1    4    4    0    0  0.35442917365E+02  0.23562977431E+02 -0.13647415870E+02  0.44695259891E+02  0.00000000000E+00 0. -1.
         13    1    4    4    0    0 -0.42210905947E+02 -0.10051668139E+02  0.21925219727E+02  0.48615963153E+02  0.00000000000E+00 0.  1.
          4    1    1    2  501    0  0.17333843531E+02 -0.11072624496E+02  0.59036881835E+02  0.62517346086E+02  0.00000000000E+00 0. -1.
<scales pt_clust_5="13000.00000" pt_clust_6="13000.00000" pt_clust_7="13000.00000" pt_clust_8="13000.00000" pt_clust_9="20.56855"></scales>
<clustering>
<clus scale="   20.569">  1  9  2 -1</clus>
<clus scale="   91.577">  5  6 -1 -1</clus>
<clus scale="   91.707">  7  8 -1 -1</clus>
<clus scale="   91.938">  2  5  1 -1</clus>
<clus scale="   20.569">  1  5  2 -1</clus>
</clustering>
</event>
<event>
 9    1  0.1399746E-005  0.1041834E+03  0.7546771E-02  0.1274692E+00
          1   -1    0    0  502    0 -0.00000000000E+00  0.00000000000E+00  0.24983248143E+03  0.24983248143E+03  0.00000000000E+00 0. -1.
         21   -1    0    0  501  502  0.00000000000E+00 -0.00000000000E+00 -0.79858544681E+02  0.79858544681E+02  0.00000000000E+00 0.  1.
         23    2    1    2    0    0 -0.91247637033E+01  0.62163200654E+02  0.11833226586E+03  0.16160996749E+03  0.90375503437E+02 0.  0.
         23    2    1    2    0    0  0.12815679523E+02 -0.13836254499E+01  0.43174177069E+02  0.10660359874E+03  0.96613465090E+02 0.  0.
        -11    1    3    3    0    0  0.66393471281E+01  0.34440195898E+02  0.12430965324E+03  0.12916306713E+03  0.00000000000E+00 0. -1.
         11    1    3    3    0    0 -0.15764110831E+02  0.27723004756E+02 -0.59773873779E+01  0.32446900358E+02  0.00000000000E+00 0.  1.
        -13    1    4    4    0    0 -0.25959188128E+02  0.16968936982E+02 -0.14896907155E+02  0.34405553525E+02  0.00000000000E+00 0.  1.
         13    1    4    4    0    0  0.38774867652E+02 -0.18352562432E+02  0.58071084224E+02  0.72198045210E+02  0.00000000000E+00 0. -1.
          1    1    1    2  501    0 -0.36909158200E+01 -0.60779575204E+02  0.84674938182E+01  0.61477459879E+02  0.00000000000E+00 0. -1.
<scales pt_clust_5="13000.00000" pt_clust_6="13000.00000" pt_clust_7="13000.00000" pt_clust_8="13000.00000" pt_clust_9="60.89154"></scales>
<clustering>
<clus scale="   60.892">  2  9  1 -1</clus>
<clus scale="   90.376">  5  6 -1 -1</clus>
<clus scale="   96.613">  7  8 -1 -1</clus>
<clus scale="   98.426">  1  5  2 -1</clus>
<clus scale="   60.892">  2  5  1 -1</clus>
</clustering>
</event>
<event>
 9    1  0.1399746E-005  0.9855872E+02  0.7546771E-02  0.1285171E+00
          1   -1    0    0  502    0 -0.00000000000E+00  0.00000000000E+00  0.24422762298E+03  0.24422762298E+03  0.00000000000E+00 0. -1.
         21   -1    0    0  501  502  0.00000000000E+00 -0.00000000000E+00 -0.13412233443E+03  0.13412233443E+03  0.00000000000E+00 0.  1.
         23    2    1    2    0    0  0.18962873715E+02 -0.21086292234E+02  0.12175912283E+03  0.15302594862E+03  0.88246442765E+02 0.  0.
         23    2    1    2    0    0  0.29847011448E+02  0.95623812231E+02 -0.89966062326E+01  0.13618755363E+03  0.91822400763E+02 0.  0.
        -11    1    4    4    0    0 -0.21750354971E+02 -0.37292706668E+01 -0.10006991719E+02  0.24230668260E+02  0.00000000000E+00 0. -1.
         11    1    4    4    0    0  0.51597366419E+02  0.99353082898E+02  0.10103854868E+01  0.11195688537E+03  0.00000000000E+00 0.  1.
        -11    1    3    3    0    0  0.10898990545E+02  0.27800950601E+02  0.88367791368E+02  0.93276724859E+02  0.00000000000E+00 0.  1.
         11    1    3    3    0    0  0.80638831695E+01 -0.48887242835E+02  0.33391331460E+02  0.59749223765E+02  0.00000000000E+00 0. -1.
          1    1    1    2  501    0 -0.48809885162E+02 -0.74537519997E+02 -0.26572280460E+01  0.89136455156E+02  0.00000000000E+00 0. -1.
<scales pt_clust_5="13000.00000" pt_clust_6="13000.00000" pt_clust_7="13000.00000" pt_clust_8="13000.00000" pt_clust_9="89.09684"></scales>
<clustering>
<clus scale="   88.246">  7  8 -1 -1</clus>
<clus scale="   89.097">  2  9  1 -1</clus>
<clus scale="   91.822">  5  6 -1 -1</clus>
<clus scale="   95.236">  1  7  2 -1</clus>
<clus scale="   89.097">  2  5  1 -1</clus>
</clustering>
</event>
<event>
 9    1  0.1399746E-005  0.1040584E+03  0.7546771E-02  0.1272624E+00
         21   -1    0    0  501  502  0.00000000000E+00  0.00000000000E+00  0.18105713885E+03  0.18105713885E+03  0.00000000000E+00 0. -1.
         -3   -1    0    0    0  501 -0.00000000000E+00 -0.00000000000E+00 -0.84308673438E+02  0.84308673438E+02  0.00000000000E+00 0.  1.
         23    2    1    2    0    0 -0.67075382253E+01  0.37917680215E+02  0.53393595413E+02  0.11386822887E+03  0.92910472888E+02 0.  0.
         23    2    1    2    0    0 -0.20405460210E+02 -0.54835114170E+02  0.48841988280E+02  0.11907193427E+03  0.91483950281E+02 0.  0.
        -13    1    4    4    0    0 -0.16445302708E+02  0.21221478002E+02  0.30695933612E+02  0.40780380700E+02  0.00000000000E+00 0.  1.
         13    1    4    4    0    0 -0.39601575013E+01 -0.76056592172E+02  0.18146054669E+02  0.78291553569E+02  0.00000000000E+00 0. -1.
        -13    1    3    3    0    0 -0.34245804853E+02  0.68434636678E+01  0.62283849928E+02  0.71406485047E+02  0.00000000000E+00 0. -1.
         13    1    3    3    0    0  0.27538266627E+02  0.31074216548E+02 -0.88902545152E+01  0.42461743820E+02  0.00000000000E+00 0.  1.
         -3    1    1    2    0  502  0.27112998435E+02  0.16917433954E+02 -0.54871182834E+01  0.32425649150E+02  0.00000000000E+00 0.  1.
<scales pt_clust_5="13000.00000" pt_clust_6="13000.00000" pt_clust_7="13000.00000" pt_clust_8="13000.00000" pt_clust_9="31.95802"></scales>
<clustering>
<clus scale="   31.958">  1  9  2 -1</clus>
<clus scale="   91.484">  5  6 -1 -1</clus>
<clus scale="   92.910">  7  8 -1 -1</clus>
<clus scale="  102.787">  1  5  2 -1</clus>
<clus scale="   31.958">  1  5  2 -1</clus>
</clustering>
</event>
<event>
 9    1  0.1399746E-005  0.9868197E+02  0.7546771E-02  0.1283178E+00
          1   -1    0    0  502    0 -0.00000000000E+00  0.00000000000E+00  0.60762000294E+03  0.60762000294E+03  0.00000000000E+00 0. -1.
         21   -1    0    0  501  502  0.00000000000E+00 -0.00000000000E+00 -0.46750247317E+02  0.46750247317E+02  0.00000000000E+00 0. -1.
         23    2    1    2    0    0 -0.34699706740E+02  0.31700318073E+02  0.43977472653E+03  0.45164587486E+03  0.91505225909E+02 0.  0.
         23    2    1    2    0    0 -0.39476373803E+01  0.16894166093E+02  0.41583203387E+02  0.10184240711E+03  0.91332997286E+02 0.  0.
        -13    1    3    3    0    0 -0.65298589502E+02  0.30302782597E+02  0.29361569375E+03  0.30231166045E+03  0.00000000000E+00 0. -1.
         13    1    3    3    0    0  0.30598882763E+02  0.13975354766E+01  0.14615903278E+03  0.14933421441E+03  0.00000000000E+00 0.  1.
        -13    1    4    4    0    0  0.12975120209E+02 -0.27837767414E+02  0.44338652560E+02  0.53937103647E+02  0.00000000000E+00 0.  1.
         13    1    4    4    0    0 -0.16922757589E+02  0.44731933507E+02 -0.27554491729E+01  0.47905303463E+02  0.00000000000E+00 0. -1.
          1    1    1    2  501    0  0.38647344120E+02 -0.48594484166E+02  0.79511825712E+02  0.10088196829E+03  0.00000000000E+00 0. -1.
<scales pt_clust_5="13000.00000" pt_clust_6="13000.00000" pt_clust_7="13000.00000" pt_clust_8="13000.00000" pt_clust_9="62.08898"></scales>
<clustering>
<clus scale="   62.089">  2  9  1 -1</clus>
<clus scale="   91.333">  7  8 -1 -1</clus>
<clus scale="   91.505">  5  6 -1 -1</clus>
<clus scale="   98.522">  2  7  1 -1</clus>
<clus scale="   62.089">  2  5  1 -1</clus>
</clustering>
</event>
<event>
 9    1  0.1399746E-005  0.1494150E+03  0.7546771E-02  0.1213088E+00
         -4   -1    0    0    0  501 -0.00000000000E+00  0.00000000000E+00  0.20888727813E+03  0.20888727813E+03  0.00000000000E+00 0.  1.
         21   -1    0    0  501  502  0.00000000000E+00 -0.00000000000E+00 -0.20434061292E+03  0.20434061292E+03  0.00000000000E+00 0.  1.
         23    2    1    2    0    0 -0.69408764268E+02  0.79625737366E+01  0.11206067894E+02  0.11629998798E+03  0.92299144683E+02 0.  0.
         23    2    1    2    0    0 -0.17623587574E+01  0.10067950789E+03  0.63163220889E+02  0.14947069092E+03  0.90622435145E+02 0.  0.
        -11    1    4    4    0    0  0.44100243009E+02  0.49316700299E+02  0.24856606286E+02  0.70674035104E+02  0.00000000000E+00 0. -1.
         11    1    4    4    0    0 -0.45862601766E+02  0.51362807595E+02  0.38306614604E+02  0.78796655812E+02  0.00000000000E+00 0.  1.
        -13    1    3    3    0    0 -0.61325770854E+02 -0.32107018064E+02 -0.10505792637E+02  0.70014873125E+02  0.00000000000E+00 0. -1.
         13    1    3    3    0    0 -0.80829934147E+01  0.40069591801E+02  0.21711860531E+02  0.46285114857E+02  0.00000000000E+00 0.  1.
         -4    1    1    2    0  502  0.71171123026E+02 -0.10864208163E+03 -0.69822623565E+02  0.14745721215E+03  0.00000000000E+00 0.  1.
<scales pt_clust_5="13000.00000" pt_clust_6="13000.00000" pt_clust_7="13000.00000" pt_clust_8="13000.00000" pt_clust_9="118.79569"></scales>
<clustering>
<clus scale="   90.622">  5  6 -1 -1</clus>
<clus scale="   92.299">  7  8 -1 -1</clus>
<clus scale="  115.759">  1  7  2 -1</clus>
<clus scale="  118.796">  2  9  1 -1</clus>
<clus scale="  118.796">  2  5  1 -1</clus>
</clustering>
</event>
<event>
 9    1  0.1399746E-005  0.1123190E+03  0.7546771E-02  0.1258450E+00
          1   -1    0    0  502    0 -0.00000000000E+00  0.00000000000E+00  0.34870957468E+03  0.34870957468E+03  0.00000000000E+00 0. -1.
         21   -1    0    0  501  502  0.00000000000E+00 -0.00000000000E+00 -0.97275019300E+02  0.97275019300E+02  0.00000000000E+00 0.  1.
         23    2    1    2    0    0 -0.58861371568E+02  0.99657337222E+01  0.26682255485E+03  0.28725707205E+03  0.88081625521E+02 0.  0.
         23    2    1    2    0    0  0.71781216003E+02 -0.40200018359E+02 -0.17030661298E+02  0.12580742646E+03  0.93642301776E+02 0.  0.
        -11    1    4    4    0    0  0.55491746530E+02 -0.69466267513E+02 -0.15854300190E+01  0.88923618030E+02  0.00000000000E+00 0.  1.
         11    1    4    4    0    0  0.16289469473E+02  0.29266249154E+02 -0.15445231279E+02  0.36883808433E+02  0.00000000000E+00 0. -1.
        -13    1    3    3    0    0 -0.70726318629E+02 -0.15849837924E+02  0.14426180692E+03  0.16144627108E+03  0.00000000000E+00 0.  1.
         13    1    3    3    0    0  0.11864947060E+02  0.25815571647E+02  0.12256074793E+03  0.12581080097E+03  0.00000000000E+00 0. -1.
          1    1    1    2  501    0 -0.12919844435E+02  0.30234284637E+02  0.16426618276E+01  0.32920095468E+02  0.00000000000E+00 0. -1.
<scales pt_clust_5="13000.00000" pt_clust_6="13000.00000" pt_clust_7="13000.00000" pt_clust_8="13000.00000" pt_clust_9="32.87909"></scales>
<clustering>
<clus scale="   32.879">  2  9  1 -1</clus>
<clus scale="   88.082">  7  8 -1 -1</clus>
<clus scale="   93.642">  5  6 -1 -1</clus>
<clus scale="  107.727">  1  7  2 -1</clus>
<clus scale="   32.879">  2  5  1 -1</clus>
</clustering>
</event>
<event>
 9    1  0.1399746E-005  0.9786524E+02  0.7546771E-02  0.1285269E+00
         21   -1    0    0  501  502  0.00000000000E+00  0.00000000000E+00  0.49439537144E+02  0.49439537144E+02  0.00000000000E+00 0.  1.
          1   -1    0    0  502    0 -0.00000000000E+00 -0.00000000000E+00 -0.37836520244E+03  0.37836520244E+03  0.00000000000E+00 0. -1.
         23    2    1    2    0    0 -0.18734677451E+02 -0.11052990319E+02 -0.17839592160E+03  0.20135155398E+03  0.90797503897E+02 0.  0.
         23    2    1    2    0    0  0.21862601562E+02  0.54666416954E+02 -0.14649522311E+03  0.18254199969E+03  0.91620635049E+02 0.  0.
        -11    1    3    3    0    0  0.17013019198E+02  0.27232641618E+02 -0.11349571234E+03  0.11795056723E+03  0.00000000000E+00 0.  1.
         11    1    3    3    0    0 -0.35747696649E+02 -0.38285631937E+02 -0.64900209258E+02  0.83400986746E+02  0.00000000000E+00 0. -1.
        -13    1    4    4    0    0  0.39875306835E+02  0.71477174193E+02 -0.94585368784E+02  0.12508164739E+03  0.00000000000E+00 0.  1.
         13    1    4    4    0    0 -0.18012705273E+02 -0.16810757239E+02 -0.51909854324E+02  0.57460352298E+02  0.00000000000E+00 0. -1.
          1    1    1    2  501    0 -0.31279241114E+01 -0.43613426635E+02 -0.40345205902E+01  0.43911185915E+02  0.00000000000E+00 0. -1.
<scales pt_clust_5="13000.00000" pt_clust_6="13000.00000" pt_clust_7="13000.00000" pt_clust_8="13000.00000" pt_clust_9="43.72545"></scales>
<clustering>
<clus scale="   43.725">  1  9  2 -1</clus>
<clus scale="   90.798">  5  6 -1 -1</clus>
<clus scale="   91.621">  7  8 -1 -1</clus>
<clus scale="   97.095">  2  5  1 -1</clus>
<clus scale="   43.725">  1  5  2 -1</clus>
</clustering>
</event>
<event>
 9    1  0.1399746E-005  0.1296437E+03  0.7546771E-02  0.1228448E+00
          1   -1    0    0  502    0 -0.00000000000E+00  0.00000000000E+00  0.48738283643E+03  0.48738283643E+03  0.00000000000E+00 0. -1.
         21   -1    0    0  501  502  0.00000000000E+00 -0.00000000000E+00 -0.10339280411E+03  0.10339280411E+03  0.00000000000E+00 0. -1.
         23    2    1    2    0    0  0.71963421996E+01 -0.10254587264E+03  0.40284721235E+03  0.42511566948E+03  0.88713091499E+02 0.  0.
         23    2    1    2    0    0  0.15557576394E+02  0.44523987718E+02 -0.76208930064E+01  0.10233119335E+03  0.90494040999E+02 0.  0.
        -11    1    3    3    0    0 -0.38328975720E+02 -0.33440737663E+02  0.11812779218E+03  0.12861402956E+03  0.00000000000E+00 0.  1.
         11    1    3    3    0    0  0.45525317919E+02 -0.69105134972E+02  0.28471942017E+03  0.29650163991E+03  0.00000000000E+00 0. -1.
        -11    1    4    4    0    0  0.45494825179E+02  0.48088380337E+02  0.10691784952E+02  0.67056585858E+02  0.00000000000E+00 0.  1.
         11    1    4    4    0    0 -0.29937248785E+02 -0.35643926196E+01 -0.18312677958E+02  0.35274607490E+02  0.00000000000E+00 0. -1.
          1    1    1    2  501    0 -0.22753918594E+02  0.58021884918E+02 -0.11236287024E+02  0.63328777715E+02  0.00000000000E+00 0. -1.
<scales pt_clust_5="13000.00000" pt_clust_6="13000.00000" pt_clust_7="13000.00000" pt_clust_8="13000.00000" pt_clust_9="62.32399"></scales>
<clustering>
<clus scale="   62.324">  2  9  1 -1</clus>
<clus scale="   88.713">  5  6 -1 -1</clus>
<clus scale="   90.494">  7  8 -1 -1</clus>
<clus scale="  128.407">  1  5  2 -1</clus>
<clus scale="   62.324">  2  5  1 -1</clus>
</clustering>
</event>
<event>
 9    1  0.1399746E-005  0.1052114E+03  0.7546771E-02  0.1270215E+00
          1   -1    0    0  502    0 -0.00000000000E+00  0.00000000000E+00  0.48549017027E+03  0.48549017027E+03  0.00000000000E+00 0. -1.
         21   -1    0    0  501  502  0.00000000000E+00 -0.00000000000E+00 -0.65888893329E+02  0.65888893329E+02  0.00000000000E+00 0.  1.
         23    2    1    2    0    0 -0.49401594583E+02  0.18246952164E+02  0.40304069595E+03  0.41679027965E+03  0.92189293384E+02 0.  0.
         23    2    1    2    0    0  0.42145148122E+02  0.10925348852E+02  0.13403869847E+01  0.10089407416E+03  0.91006817356E+02 0.  0.
        -11    1    4    4    0    0  0.11948725120E+02  0.30677639664E+02  0.37438004702E+02  0.49854726991E+02  0.00000000000E+00 0. -1.
         11    1    4    4    0    0  0.30196423002E+02 -0.19752290812E+02 -0.36097617717E+02  0.51039347167E+02  0.00000000000E+00 0.  1.
        -13    1    3    3    0    0 -0.66101906031E+02  0.38640608715E+02  0.33895539426E+03  0.34749578116E+03  0.00000000000E+00 0. -1.
         13    1    3    3    0    0  0.16700311448E+02 -0.20393656551E+02  0.64085301687E+02  0.69294498499E+02  0.00000000000E+00 0.  1.
          1    1    1    2  501    0  0.72564464610E+01 -0.29172301016E+02  0.15220194010E+02  0.33694709786E+02  0.00000000000E+00 0. -1.
<scales pt_clust_5="13000.00000" pt_clust_6="13000.00000" pt_clust_7="13000.00000" pt_clust_8="13000.00000" pt_clust_9="30.06126"></scales>
<clustering>
<clus scale="   30.061">  2  9  1 -1</clus>
<clus scale="   91.007">  5  6 -1 -1</clus>
<clus scale="   92.189">  7  8 -1 -1</clus>
<clus scale="  104.177">  2  5  1 -1</clus>
<clus scale="   30.061">  2  5  1 -1</clus>
</clustering>
</event>
<event>
 9    1  0.1399746E-005  0.9403376E+02  0.7546771E-02  0.1293388E+00
          1   -1    0    0  502    0 -0.00000000000E+00  0.00000000000E+00  0.35497756076E+02  0.35497756076E+02  0.00000000000E+00 0. -1.
         21   -1    0    0  501  502  0.00000000000E+00 -0.00000000000E+00 -0.49848666473E+03  0.49848666473E+03  0.00000000000E+00 0.  1.
         23    2    1    2    0    0 -0.77869187507E+01 -0.34135082309E+02 -0.91508239253E+02  0.13389681978E+03  0.91262043298E+02 0.  0.
         23    2    1    2    0    0 -0.26893318503E+02  0.46406610298E-01 -0.19436685387E+03  0.21641925776E+03  0.91299334683E+02 0.  0.
        -11    1    3    3    0    0 -0.27642266118E+02 -0.13256262263E+02 -0.99402441309E+02  0.10402244327E+03  0.00000000000E+00 0.  1.
         11    1    3    3    0    0  0.19855347367E+02 -0.20878820046E+02  0.78942020557E+01  0.29874376507E+02  0.00000000000E+00 0. -1.
        -13    1    4    4    0    0  0.33753680665E+02 -0.38466103438E+01 -0.60040996060E+02  0.68985712850E+02  0.00000000000E+00 0. -1.
         13    1    4    4    0    0 -0.60646999168E+02  0.38930169541E+01 -0.13432585781E+03  0.14743354491E+03  0.00000000000E+00 0.  1.
          1    1    1    2  501    0  0.34680237254E+02  0.34088675699E+02 -0.17711381553E+03  0.18366834327E+03  0.00000000000E+00 0. -1.
<scales pt_clust_5="13000.00000" pt_clust_6="13000.00000" pt_clust_7="13000.00000" pt_clust_8="13000.00000" pt_clust_9="48.62876"></scales>
<clustering>
<clus scale="   48.629">  2  9  1 -1</clus>
<clus scale="   91.262">  5  6 -1 -1</clus>
<clus scale="   91.299">  7  8 -1 -1</clus>
<clus scale="   93.998">  1  5  2 -1</clus>
<clus scale="   48.629">  2  5  1 -1</clus>
</clustering>
</event>
<event>
 9    1  0.1506934E-005  0.9252780E+02  0.7546771E-02  0.1297567E+00
          1   -1    0    0  502    0 -0.00000000000E+00  0.00000000000E+00  0.39224356558E+03  0.39224356558E+03  0.00000000000E+00 0. -1.
         21   -1    0    0  501  502  0.00000000000E+00 -0.00000000000E+00 -0.90768427878E+02  0.90768427878E+02  0.00000000000E+00 0. -1.
         23    2    1    2    0    0 -0.15000732144E+02  0.78054031466E+01  0.30614588243E+03  0.31963561276E+03  0.90308788814E+02 0.  0.
         23    2    1    2    0    0 -0.22804744366E+02 -0.22333481772E+02  0.38370736606E+02  0.10427571879E+03  0.91554744981E+02 0.  0.
        -11    1    3    3    0    0 -0.42294990982E+02 -0.23861524356E+02  0.13536264752E+03  0.14380989170E+03  0.00000000000E+00 0. -1.
         11    1    3    3    0    0  0.27294258838E+02  0.31666927503E+02  0.17078323491E+03  0.17582572106E+03  0.00000000000E+00 0.  1.
        -13    1    4    4    0    0  0.15557183043E+02  0.16116549771E+02 -0.15919362011E+02  0.27480815264E+02  0.00000000000E+00 0.  1.
         13    1    4    4    0    0 -0.38361927410E+02 -0.38450031543E+02  0.54290098617E+02  0.76794903529E+02  0.00000000000E+00 0. -1.
          1    1    1    2  501    0  0.37805476510E+02  0.14528078625E+02 -0.43041481326E+02  0.59100661904E+02  0.00000000000E+00 0. -1.
<scales pt_clust_5="13000.00000" pt_clust_6="13000.00000" pt_clust_7="13000.00000" pt_clust_8="13000.00000" pt_clust_9="40.50085"></scales>
<clustering>
<clus scale="   40.501">  2  9  1 -1</clus>
<clus scale="   90.309">  5  6 -1 -1</clus>
<clus scale="   91.295">  1  5  2 -1</clus>
<clus scale="   91.555">  7  8 -1 -1</clus>
<clus scale="   40.501">  2  5  1 -1</clus>
</clustering>
</event>
<event>
 9    1  0.1399746E-005  0.9446336E+02  0.7546771E-02  0.1294633E+00
         -4   -1    0    0    0  501 -0.00000000000E+00  0.00000000000E+00  0.64648109622E+03  0.64648109622E+03  0.00000000000E+00 0.  1.
         21   -1    0    0  501  502  0.00000000000E+00 -0.00000000000E+00 -0.20101148928E+02  0.20101148928E+02  0.00000000000E+00 0.  1.
         23    2    1    2    0    0 -0.63616180416E+01  0.74213238367E+01  0.35262952232E+03  0.36375810113E+03  0.88751506426E+02 0.  0.
         23    2    1    2    0    0  0.35269752260E+02 -0.12485281626E+02  0.20506154996E+03  0.22812819070E+03  0.92695169436E+02 0.  0.
        -13    1    3    3    0    0  0.40437722470E+02  0.11020756645E+02  0.14847624830E+03  0.15427852341E+03  0.00000000000E+00 0.  1.
         13    1    3    3    0    0 -0.46799340511E+02 -0.35994328079E+01  0.20415327403E+03  0.20947957773E+03  0.00000000000E+00 0. -1.
        -13    1    4    4    0    0 -0.19253591604E+02 -0.35047298721E+02  0.98744172063E+02  0.10653368225E+03  0.00000000000E+00 0. -1.
         13    1    4    4    0    0  0.54523343864E+02  0.22562017095E+02  0.10631737790E+03  0.12159450845E+03  0.00000000000E+00 0.  1.
         -4    1    1    2    0  502 -0.28908134218E+02  0.50639577892E+01  0.68688874999E+02  0.74695953311E+02  0.00000000000E+00 0.  1.
<scales pt_clust_5="13000.00000" pt_clust_6="13000.00000" pt_clust_7="13000.00000" pt_clust_8="13000.00000" pt_clust_9="29.34832"></scales>
<clustering>
<clus scale="   29.348">  2  9  1 -1</clus>
<clus scale="   88.752">  5  6 -1 -1</clus>
<clus scale="   90.597">  1  5  2 -1</clus>
<clus scale="   92.695">  7  8 -1 -1</clus>
<clus scale="   29.348">  2  5  1 -1</clus>
</clustering>
</event>
<event>
 9    1  0.1399746E-005  0.9944758E+02  0.7546771E-02  0.1282438E+00
         21   -1    0    0  501  502  0.00000000000E+00  0.00000000000E+00  0.59612338688E+02  0.59612338688E+02  0.00000000000E+00 0. -1.
         -1   -1    0    0    0  501 -0.00000000000E+00 -0.00000000000E+00 -0.25867882332E+03  0.25867882332E+03  0.00000000000E+00 0.  1.
         23    2    1    2    0    0  0.31334770173E+02  0.17962923665E+02 -0.14077586106E+03  0.17171820735E+03  0.91459090459E+02 0.  0.
         23    2    1    2    0    0 -0.23369861846E+02 -0.45919420757E+02 -0.34031897397E+02  0.10871147965E+03  0.89472186308E+02 0.  0.
        -11    1    4    4    0    0 -0.73480013406E+01 -0.72143177199E+02 -0.23841386920E+02  0.76335069727E+02  0.00000000000E+00 0.  1.
         11    1    4    4    0    0 -0.16021860505E+02  0.26223756442E+02 -0.10190510477E+02  0.32376409927E+02  0.00000000000E+00 0. -1.
        -13    1    3    3    0    0 -0.31795878757E+02  0.14034404775E+02 -0.43387386161E+02  0.55591435502E+02  0.00000000000E+00 0.  1.
         13    1    3    3    0    0  0.63130648930E+02  0.39285188905E+01 -0.97388474902E+02  0.11612677184E+03  0.00000000000E+00 0. -1.
         -1    1    1    2    0  502 -0.79649083275E+01  0.27956497092E+02 -0.24258726172E+02  0.37861475009E+02  0.00000000000E+00 0.  1.
<scales pt_clust_5="13000.00000" pt_clust_6="13000.00000" pt_clust_7="13000.00000" pt_clust_8="13000.00000" pt_clust_9="29.06899"></scales>
<clustering>
<clus scale="   29.069">  1  9  2 -1</clus>
<clus scale="   89.472">  5  6 -1 -1</clus>
<clus scale="   91.459">  7  8 -1 -1</clus>
<clus scale="   97.623">  1  5  2 -1</clus>
<clus scale="   29.069">  1  5  2 -1</clus>
</clustering>
</event>
<event>
 9    1  0.1399746E-005  0.3112428E+03  0.7546771E-02  0.1080157E+00
          2   -1    0    0  502    0 -0.00000000000E+00  0.00000000000E+00  0.15939736645E+04  0.15939736645E+04  0.00000000000E+00 0. -1.
         21   -1    0    0  501  502  0.00000000000E+00 -0.00000000000E+00 -0.26333547965E+03  0.26333547965E+03  0.00000000000E+00 0. -1.
         23    2    1    2    0    0  0.30780019892E+03 -0.88598427448E+02  0.14255690928E+04  0.14632409511E+04  0.78969605529E+02 0.  0.
         23    2    1    2    0    0 -0.18369981889E+03  0.42308874771E+02  0.30508395870E+02  0.21164383620E+03  0.91250681306E+02 0.  0.
        -11    1    3    3    0    0  0.15785896300E+03 -0.52602352379E+02  0.56605036710E+03  0.58999955743E+03  0.00000000000E+00 0. -1.
         11    1    3    3    0    0  0.14994123592E+03 -0.35996075069E+02  0.85951872573E+03  0.87324139362E+03  0.00000000000E+00 0.  1.
        -13    1    4    4    0    0 -0.11165464774E+03 -0.19055653003E+02  0.38940205800E+01  0.11333596812E+03  0.00000000000E+00 0.  1.
         13    1    4    4    0    0 -0.72045171157E+02  0.61364527774E+02  0.26614375290E+02  0.98307868088E+02  0.00000000000E+00 0. -1.
          2    1    1    2  501    0 -0.12410038003E+03  0.46289552677E+02 -0.12543930389E+03  0.18242435685E+03  0.00000000000E+00 0. -1.
<scales pt_clust_5="13000.00000" pt_clust_6="13000.00000" pt_clust_7="13000.00000" pt_clust_8="13000.00000" pt_clust_9="132.45236"></scales>
<clustering>
<clus scale="   78.970">  5  6 -1 -1</clus>
<clus scale="   91.251">  7  8 -1 -1</clus>
<clus scale="  132.452">  2  9  1 -1</clus>
<clus scale="  307.866">  1  5  2 -1</clus>
<clus scale="  132.452">  2  5  1 -1</clus>
</clustering>
</event>
<event>
 9    1  0.1399746E-005  0.9478768E+02  0.7546771E-02  0.1293222E+00
         21   -1    0    0  501  502  0.00000000000E+00  0.00000000000E+00  0.22189461196E+03  0.22189461196E+03  0.00000000000E+00 0. -1.
          1   -1    0    0  502    0 -0.00000000000E+00 -0.00000000000E+00 -0.19223700940E+03  0.19223700940E+03  0.00000000000E+00 0. -1.
         23    2    1    2    0    0 -0.24532625761E+02 -0.53504567065E+02 -0.10249966880E+03  0.14694229256E+03  0.87299867208E+02 0.  0.
         23    2    1    2    0    0  0.37074332419E+01 -0.34577585539E+02 -0.11568740164E+02  0.97338451154E+02  0.90175295071E+02 0.  0.
        -11    1    3    3    0    0 -0.14122048637E+02 -0.77441994940E+02 -0.70759658689E+02  0.10584717349E+03  0.00000000000E+00 0. -1.
         11    1    3    3    0    0 -0.10410577123E+02  0.23937427876E+02 -0.31740010108E+02  0.41095119065E+02  0.00000000000E+00 0.  1.
        -13    1    4    4    0    0 -0.42036051232E+02 -0.27431326306E+02 -0.32596792636E+01  0.50300425197E+02  0.00000000000E+00 0. -1.
         13    1    4    4    0    0  0.45743484474E+02 -0.71462592328E+01 -0.83090609005E+01  0.47038025957E+02  0.00000000000E+00 0.  1.
          1    1    1    2  501    0  0.20825192519E+02  0.88082152603E+02  0.14372601153E+03  0.16985087765E+03  0.00000000000E+00 0. -1.
<scales pt_clust_5="13000.00000" pt_clust_6="13000.00000" pt_clust_7="13000.00000" pt_clust_8="13000.00000" pt_clust_9="90.51052"></scales>
<clustering>
<clus scale="   87.300">  5  6 -1 -1</clus>
<clus scale="   90.175">  7  8 -1 -1</clus>
<clus scale="   90.511">  1  9  2 -1</clus>
<clus scale="   92.056">  2  5  1 -1</clus>
<clus scale="   90.511">  1  5  2 -1</clus>
</clustering>
</event>
<event>
 9    1  0.1399746E-005  0.1514406E+03  0.7546771E-02  0.1200135E+00
          1   -1    0    0  502    0 -0.00000000000E+00  0.00000000000E+00  0.37556534629E+03  0.37556534629E+03  0.00000000000E+00 0. -1.
         21   -1    0    0  501  502  0.00000000000E+00 -0.00000000000E+00 -0.97764535943E+02  0.97764535943E+02  0.00000000000E+00 0.  1.
         23    2    1    2    0    0  0.77637266630E+02  0.61081435916E+02  0.17817899356E+03  0.22685256037E+03  0.99778972816E+02 0.  0.
         23    2    1    2    0    0 -0.10931915034E+03 -0.99864181871E+02  0.85412172814E+02  0.19442199436E+03  0.92634449180E+02 0.  0.
        -13    1    4    4    0    0 -0.67250129884E+02 -0.10754977536E+03  0.83004067486E+02  0.15158894870E+03  0.00000000000E+00 0.  1.
         13    1    4    4    0    0 -0.42069020459E+02  0.76855934853E+01  0.24081053283E+01  0.42833045664E+02  0.00000000000E+00 0. -1.
        -13    1    3    3    0    0  0.39155758568E+02  0.65462147603E+02  0.45908518426E+02  0.89028412667E+02  0.00000000000E+00 0.  1.
         13    1    3    3    0    0  0.38481508062E+02 -0.43807116876E+01  0.13227047513E+03  0.13782414770E+03  0.00000000000E+00 0. -1.
          1    1    1    2  501    0  0.31681883713E+02  0.38782745955E+02  0.14209643972E+02  0.52055327501E+02  0.00000000000E+00 0. -1.
<scales pt_clust_5="13000.00000" pt_clust_6="13000.00000" pt_clust_7="13000.00000" pt_clust_8="13000.00000" pt_clust_9="50.07837"></scales>
<clustering>
<clus scale="   50.078">  2  9  1 -1</clus>
<clus scale="   92.634">  5  6 -1 -1</clus>
<clus scale="   99.779">  7  8 -1 -1</clus>
<clus scale="  146.832">  2  5  1 -1</clus>
<clus scale="   50.078">  2  5  1 -1</clus>
</clustering>
</event>
<event>
 9    1  0.1399746E-005  0.1543922E+03  0.7546771E-02  0.1201673E+00
          4   -1    0    0  502    0 -0.00000000000E+00  0.00000000000E+00  0.19545687093E+03  0.19545687093E+03  0.00000000000E+00 0. -1.
         21   -1    0    0  501  502  0.00000000000E+00 -0.00000000000E+00 -0.14722009846E+03  0.14722009846E+03  0.00000000000E+00 0. -1.
         23    2    1    2    0    0  0.77066683523E+02  0.74054549946E+02  0.90263775237E+02  0.18377720133E+03  0.11917701344E+03 0.  0.
         23    2    1    2    0    0 -0.70425389267E+02 -0.46797628482E+02 -0.27967365660E+02  0.12751952024E+03  0.91265004332E+02 0.  0.
        -11    1    3    3    0    0  0.70152116735E+02  0.25443366976E+02 -0.68694649048E+01  0.74939134993E+02  0.00000000000E+00 0.  1.
         11    1    3    3    0    0  0.69145667882E+01  0.48611182970E+02  0.97133240141E+02  0.10883806634E+03  0.00000000000E+00 0. -1.
        -13    1    4    4    0    0 -0.90304677168E+02 -0.25501829966E+02 -0.12892842291E+02  0.94718020632E+02  0.00000000000E+00 0.  1.
         13    1    4    4    0    0  0.19879287901E+02 -0.21295798516E+02 -0.15074523369E+02  0.32801499610E+02  0.00000000000E+00 0. -1.
          4    1    1    2  501    0 -0.66412942554E+01 -0.27256921464E+02 -0.14059637106E+02  0.31380247811E+02  0.00000000000E+00 0. -1.
<scales pt_clust_5="13000.00000" pt_clust_6="13000.00000" pt_clust_7="13000.00000" pt_clust_8="13000.00000" pt_clust_9="28.05435"></scales>
<clustering>
<clus scale="   28.054">  2  9  1 -1</clus>
<clus scale="   91.265">  7  8 -1 -1</clus>
<clus scale="  119.177">  5  6 -1 -1</clus>
<clus scale="  134.027">  2  7  1 -1</clus>
<clus scale="   28.054">  2  5  1 -1</clus>
</clustering>
</event>
<event>
 9    1  0.1399746E-005  0.9835060E+02  0.7546771E-02  0.1283819E+00
          1   -1    0    0  502    0 -0.00000000000E+00  0.00000000000E+00  0.60621937118E+02  0.60621937118E+02  0.00000000000E+00 0. -1.
         21   -1    0    0  501  502  0.00000000000E+00 -0.00000000000E+00 -0.23843965751E+03  0.23843965751E+03  0.00000000000E+00 0.  1.
         23    2    1    2    0    0 -0.71114369115E+01 -0.40578130425E+02 -0.37222886360E+02  0.10500183771E+03  0.89121745098E+02 0.  0.
         23    2    1    2    0    0 -0.13733541693E+02  0.42941416968E+02 -0.74115853850E+02  0.12434926228E+03  0.89089863509E+02 0.  0.
        -11    1    3    3    0    0  0.39822238267E+02 -0.73192104513E+01 -0.18430875870E+02  0.44486837239E+02  0.00000000000E+00 0. -1.
         11    1    3    3    0    0 -0.46933675178E+02 -0.33258919973E+02 -0.18792010490E+02  0.60515000469E+02  0.00000000000E+00 0.  1.
        -13    1    4    4    0    0 -0.55462157555E+01 -0.26430599875E+02 -0.35267261264E+02  0.44419779784E+02  0.00000000000E+00 0.  1.
         13    1    4    4    0    0 -0.81873259376E+01  0.69372016843E+02 -0.38848592586E+02  0.79929482501E+02  0.00000000000E+00 0. -1.
          1    1    1    2  501    0  0.20844978605E+02 -0.23632865436E+01 -0.66478980187E+02  0.69710494640E+02  0.00000000000E+00 0. -1.
<scales pt_clust_5="13000.00000" pt_clust_6="13000.00000" pt_clust_7="13000.00000" pt_clust_8="13000.00000" pt_clust_9="20.97852"></scales>
<clustering>
<clus scale="   20.979">  2  9  1 -1</clus>
<clus scale="   89.090">  7  8 -1 -1</clus>
<clus scale="   89.122">  5  6 -1 -1</clus>
<clus scale="   98.322">  2  7  1 -1</clus>
<clus scale="   20.979">  2  5  1 -1</clus>
</clustering>
</event>
<event>
 9    1  0.1399746E-005  0.1084733E+03  0.7546771E-02  0.1263860E+00
         -1   -1    0    0    0  501 -0.00000000000E+00  0.00000000000E+00  0.14962951432E+03  0.14962951432E+03  0.00000000000E+00 0.  1.
         21   -1    0    0  501  502  0.00000000000E+00 -0.00000000000E+00 -0.25857249372E+03  0.25857249372E+03  0.00000000000E+00 0.  1.
         23    2    1    2    0    0  0.12053349929E+02 -0.60851657873E+02  0.96992572621E+02  0.14777357076E+03  0.92635098966E+02 0.  0.
         23    2    1    2    0    0 -0.34644460863E+02  0.67239049596E+01 -0.11843577991E+03  0.15508907119E+03  0.93702382424E+02 0.  0.
        -11    1    3    3    0    0  0.18370306261E+01  0.24643327260E+02  0.15187993715E+02  0.29005920310E+02  0.00000000000E+00 0. -1.
         11    1    3    3    0    0  0.10216319303E+02 -0.85494985133E+02  0.81804578905E+02  0.11876765045E+03  0.00000000000E+00 0.  1.
        -13    1    4    4    0    0 -0.87195382746E+00  0.47209168725E+02 -0.60715067470E+02  0.76914142607E+02  0.00000000000E+00 0.  1.
         13    1    4    4    0    0 -0.33772507036E+02 -0.40485263765E+02 -0.57720712440E+02  0.78174928578E+02  0.00000000000E+00 0. -1.
         -1    1    1    2    0  502  0.22591110934E+02  0.54127752913E+02 -0.87499772120E+02  0.10533936610E+03  0.00000000000E+00 0.  1.
<scales pt_clust_5="13000.00000" pt_clust_6="13000.00000" pt_clust_7="13000.00000" pt_clust_8="13000.00000" pt_clust_9="58.65298"></scales>
<clustering>
<clus scale="   58.653">  2  9  1 -1</clus>
<clus scale="   92.635">  5  6 -1 -1</clus>
<clus scale="   93.702">  7  8 -1 -1</clus>
<clus scale="  107.553">  1  5  2 -1</clus>
<clus scale="   58.653">  2  5  1 -1</clus>
</clustering>
</event>
<event>
 9    1  0.1399746E-005  0.9299352E+02  0.7546771E-02  0.1296480E+00
          1   -1    0    0  502    0 -0.00000000000E+00  0.00000000000E+00  0.43219818573E+03  0.43219818573E+03  0.00000000000E+00 0. -1.
         21   -1    0    0  501  502  0.00000000000E+00 -0.00000000000E+00 -0.38103548992E+02  0.38103548992E+02  0.00000000000E+00 0.  1.
         23    2    1    2    0    0 -0.10430497989E+01 -0.16414015525E+02  0.31368597137E+03  0.32679252512E+03  0.90133001614E+02 0.  0.
         23    2    1    2    0    0 -0.19613259196E+02  0.18266176470E+02  0.77044714750E+02  0.12249897959E+03  0.91388067005E+02 0.  0.
        -11    1    4    4    0    0 -0.27091814242E+02  0.48232001040E+02  0.72632527207E+02  0.91300472790E+02  0.00000000000E+00 0. -1.
         11    1    4    4    0    0  0.74785550454E+01 -0.29965824570E+02  0.44121875433E+01  0.31198506801E+02  0.00000000000E+00 0.  1.
        -13    1    3    3    0    0 -0.40148449581E+02 -0.22036527152E+01  0.22824018905E+03  0.23175490930E+03  0.00000000000E+00 0. -1.
         13    1    3    3    0    0  0.39105399782E+02 -0.14210362809E+02  0.85445782325E+02  0.95037615818E+02  0.00000000000E+00 0.  1.
          1    1    1    2  501    0  0.20656308995E+02 -0.18521609456E+01  0.33639506195E+01  0.21010230014E+02  0.00000000000E+00 0. -1.
<scales pt_clust_5="13000.00000" pt_clust_6="13000.00000" pt_clust_7="13000.00000" pt_clust_8="13000.00000" pt_clust_9="20.73918"></scales>
<clustering>
<clus scale="   20.739">  2  9  1 -1</clus>
<clus scale="   90.133">  7  8 -1 -1</clus>
<clus scale="   91.388">  5  6 -1 -1</clus>
<clus scale="   91.760">  1  7  2 -1</clus>
<clus scale="   20.739">  2  5  1 -1</clus>
</clustering>
</event>
<event>
 9    1  0.1399746E-005  0.1036844E+03  0.7546771E-02  0.1273584E+00
          3   -1    0    0  502    0 -0.00000000000E+00  0.00000000000E+00  0.26092232002E+03  0.26092232002E+03  0.00000000000E+00 0. -1.
         21   -1    0    0  501  502  0.00000000000E+00 -0.00000000000E+00 -0.15054370629E+03  0.15054370629E+03  0.00000000000E+00 0.  1.
         23    2    1    2    0    0 -0.11765369069E+02 -0.44462698623E+02  0.19269651817E+03  0.22012682359E+03  0.95961007032E+02 0.  0.
         23    2    1    2    0    0  0.13986615332E+02  0.14037435886E+02  0.74868857735E+01  0.96494430108E+02  0.94140568134E+02 0.  0.
        -11    1    4    4    0    0  0.35109089726E+02  0.38414367957E+02 -0.18334739915E+02  0.55176757196E+02  0.00000000000E+00 0.  1.
         11    1    4    4    0    0 -0.21122474393E+02 -0.24376932071E+02  0.25821625688E+02  0.41317672912E+02  0.00000000000E+00 0. -1.
        -13    1    3    3    0    0 -0.45486127883E+02 -0.18203731353E+02  0.15691859341E+03  0.16438919862E+03  0.00000000000E+00 0. -1.
         13    1    3    3    0    0  0.33720758814E+02 -0.26258967270E+02  0.35777924757E+02  0.55737624967E+02  0.00000000000E+00 0.  1.
          3    1    1    2  501    0 -0.22212462630E+01  0.30425262737E+02 -0.89804790212E+02  0.94844772616E+02  0.00000000000E+00 0. -1.
<scales pt_clust_5="13000.00000" pt_clust_6="13000.00000" pt_clust_7="13000.00000" pt_clust_8="13000.00000" pt_clust_9="30.50624"></scales>
<clustering>
<clus scale="   30.506">  2  9  1 -1</clus>
<clus scale="   94.141">  5  6 -1 -1</clus>
<clus scale="   95.961">  7  8 -1 -1</clus>
<clus scale="  102.002">  2  5  1 -1</clus>
<clus scale="   30.506">  2  5  1 -1</clus>
</clustering>
</event>
<event>
 9    1  0.1399746E-005  0.9569958E+02  0.7546771E-02  0.1293337E+00
         -1   -1    0    0    0  501 -0.00000000000E+00  0.00000000000E+00  0.39488197911E+03  0.39488197911E+03  0.00000000000E+00 0.  1.
         21   -1    0    0  501  502  0.00000000000E+00 -0.00000000000E+00 -0.76535028878E+02  0.76535028878E+02  0.00000000000E+00 0. -1.
         23    2    1    2    0    0  0.17006268223E-01  0.31003775219E+01  0.26096153665E+03  0.27782047369E+03  0.95255862595E+02 0.  0.
         23    2    1    2    0    0 -0.61366872090E+02 -0.11195367607E+02 -0.10109488771E+01  0.10851145894E+03  0.88783362505E+02 0.  0.
        -13    1    3    3    0    0 -0.24523137389E+02 -0.27154435021E+02  0.21257547461E+03  0.21570136767E+03  0.00000000000E+00 0. -1.
         13    1    3    3    0    0  0.24540143657E+02  0.30254812543E+02  0.48386062043E+02  0.62119106020E+02  0.00000000000E+00 0.  1.
        -13    1    4    4    0    0  0.19681029663E+02 -0.16001924536E+02 -0.90329765899E+01  0.26925808874E+02  0.00000000000E+00 0.  1.
         13    1    4    4    0    0 -0.81047901753E+02  0.48065569286E+01  0.80220277128E+01  0.81585650066E+02  0.00000000000E+00 0. -1.
         -1    1    1    2    0  502  0.61349865821E+02  0.80949900850E+01  0.58396362456E+02  0.85085075359E+02  0.00000000000E+00 0.  1.
<scales pt_clust_5="13000.00000" pt_clust_6="13000.00000" pt_clust_7="13000.00000" pt_clust_8="13000.00000" pt_clust_9="61.88165"></scales>
<clustering>
<clus scale="   61.882">  2  9  1 -1</clus>
<clus scale="   88.783">  7  8 -1 -1</clus>
<clus scale="   89.259">  2  7  1 -1</clus>
<clus scale="   95.256">  5  6 -1 -1</clus>
<clus scale="   61.882">  2  5  1 -1</clus>
</clustering>
</event>
<event>
 9    1  0.1399746E-005  0.1504054E+03  0.7546771E-02  0.1200788E+00
         21   -1    0    0  501  502  0.00000000000E+00  0.00000000000E+00  0.31292919206E+03  0.31292919206E+03  0.00000000000E+00 0.  1.
          1   -1    0    0  502    0 -0.00000000000E+00 -0.00000000000E+00 -0.23036938202E+03  0.23036938202E+03  0.00000000000E+00 0. -1.
         23    2    1    2    0    0  0.88053271408E+01  0.11623903690E+03 -0.16876660131E+03  0.22312734485E+03  0.87832788963E+02 0.  0.
         23    2    1    2    0    0 -0.23367572685E+02 -0.13910634322E+03  0.23258952815E+03  0.28721605535E+03  0.92187611243E+02 0.  0.
        -11    1    4    4    0    0 -0.51227550980E+02 -0.58526339170E+02  0.14755409190E+03  0.16679869422E+03  0.00000000000E+00 0.  1.
         11    1    4    4    0    0  0.27859978295E+02 -0.80580004048E+02  0.85035436252E+02  0.12041736113E+03  0.00000000000E+00 0. -1.
        -13    1    3    3    0    0  0.42968516611E+01  0.26375896658E+02  0.52418584908E+01  0.27232846695E+02  0.00000000000E+00 0.  1.
         13    1    3    3    0    0  0.45084754797E+01  0.89863140244E+02 -0.17400845980E+03  0.19589449816E+03  0.00000000000E+00 0. -1.
          1    1    1    2  501    0  0.14562245544E+02  0.22867306316E+02  0.18736883194E+02  0.32955173877E+02  0.00000000000E+00 0. -1.
<scales pt_clust_5="13000.00000" pt_clust_6="13000.00000" pt_clust_7="13000.00000" pt_clust_8="13000.00000" pt_clust_9="27.11038"></scales>
<clustering>
<clus scale="   27.110">  1  9  2 -1</clus>
<clus scale="   87.833">  7  8 -1 -1</clus>
<clus scale="   92.188">  5  6 -1 -1</clus>
<clus scale="  147.776">  2  7  1 -1</clus>
<clus scale="   27.110">  1  5  2 -1</clus>
</clustering>
</event>
<event>
 9    1  0.1399746E-005  0.9446807E+02  0.7546771E-02  0.1294393E+00
         21   -1    0    0  501  502  0.00000000000E+00  0.00000000000E+00  0.13863225280E+03  0.13863225280E+03  0.00000000000E+00 0.  1.
          1   -1    0    0  502    0 -0.00000000000E+00 -0.00000000000E+00 -0.18312981545E+03  0.18312981545E+03  0.00000000000E+00 0. -1.
         23    2    1    2    0    0 -0.22798075094E+02 -0.34625976181E+01 -0.13541196833E+03  0.16525762454E+03  0.91880027706E+02 0.  0.
         23    2    1    2    0    0  0.10917582752E+02  0.25109552806E+02  0.41644646429E+02  0.10139322940E+03  0.88298511525E+02 0.  0.
        -11    1    4    4    0    0  0.28169262422E+02 -0.73535026745E+01  0.55040826186E+02  0.62266153681E+02  0.00000000000E+00 0.  1.
         11    1    4    4    0    0 -0.17251679670E+02  0.32463055481E+02 -0.13396179757E+02  0.39127075724E+02  0.00000000000E+00 0. -1.
        -13    1    3    3    0    0  0.35581266470E+02  0.15169395628E+01 -0.42949445949E+02  0.55794108440E+02  0.00000000000E+00 0.  1.
         13    1    3    3    0    0 -0.58379341564E+02 -0.49795371809E+01 -0.92462522378E+02  0.10946351610E+03  0.00000000000E+00 0. -1.
          1    1    1    2  501    0  0.11880492342E+02 -0.21646955188E+02  0.49269759240E+02  0.55111214311E+02  0.00000000000E+00 0. -1.
<scales pt_clust_5="13000.00000" pt_clust_6="13000.00000" pt_clust_7="13000.00000" pt_clust_8="13000.00000" pt_clust_9="24.69285"></scales>
<clustering>
<clus scale="   24.693">  1  9  2 -1</clus>
<clus scale="   88.299">  5  6 -1 -1</clus>
<clus scale="   90.988">  1  5  2 -1</clus>
<clus scale="   91.880">  7  8 -1 -1</clus>
<clus scale="   24.693">  1  5  2 -1</clus>
</clustering>
</event>
<event>
 9    1  0.1399746E-005  0.9340417E+02  0.7546771E-02  0.1294958E+00
          1   -1    0    0  502    0 -0.00000000000E+00  0.00000000000E+00  0.35712090450E+03  0.35712090450E+03  0.00000000000E+00 0. -1.
         21   -1    0    0  501  502  0.00000000000E+00 -0.00000000000E+00 -0.92965682232E+02  0.92965682232E+02  0.00000000000E+00 0.  1.
         23    2    1    2    0    0 -0.10302731458E+02  0.23314828694E+02  0.30066521685E+03  0.31465050570E+03  0.89194397791E+02 0.  0.
         23    2    1    2    0    0  0.55793021689E+01 -0.47790979942E+02 -0.14428583417E+02  0.10213470744E+03  0.88928106180E+02 0.  0.
        -11    1    3    3    0    0 -0.44182680926E+02 -0.87630162528E+01  0.12397857163E+03  0.13190749020E+03  0.00000000000E+00 0.  1.
         11    1    3    3    0    0  0.33879949468E+02  0.32077844947E+02  0.17668664522E+03  0.18274301549E+03  0.00000000000E+00 0. -1.
        -11    1    4    4    0    0  0.32648183778E+02 -0.62293270712E+02 -0.82775848038E+01  0.70815774303E+02  0.00000000000E+00 0. -1.
         11    1    4    4    0    0 -0.27068881609E+02  0.14502290770E+02 -0.61509986136E+01  0.31318933141E+02  0.00000000000E+00 0.  1.
          1    1    1    2  501    0  0.47234292895E+01  0.24476151248E+02 -0.22081411165E+02  0.33301373593E+02  0.00000000000E+00 0. -1.
<scales pt_clust_5="13000.00000" pt_clust_6="13000.00000" pt_clust_7="13000.00000" pt_clust_8="13000.00000" pt_clust_9="24.92775"></scales>
<clustering>
<clus scale="   24.928">  2  9  1 -1</clus>
<clus scale="   88.928">  7  8 -1 -1</clus>
<clus scale="   89.194">  5  6 -1 -1</clus>
<clus scale="   93.150">  2  7  1 -1</clus>
<clus scale="   24.928">  2  5  1 -1</clus>
</clustering>
</event>
<event>
 9    1  0.1399746E-005  0.1599260E+03  0.7546771E-02  0.1188903E+00
         21   -1    0    0  501  502  0.00000000000E+00  0.00000000000E+00  0.13594324541E+03  0.13594324541E+03  0.00000000000E+00 0. -1.
          1   -1    0    0  502    0 -0.00000000000E+00 -0.00000000000E+00 -0.55854094623E+03  0.55854094623E+03  0.00000000000E+00 0. -1.
         23    2    1    2    0    0  0.72958011082E+02  0.10188997263E+03 -0.42252907185E+03  0.45006676856E+03  0.91240570450E+02 0.  0.
         23    2    1    2    0    0 -0.11211191631E+03 -0.13024622150E+03 -0.12121876037E+02  0.19459387534E+03  0.90480254475E+02 0.  0.
        -11    1    4    4    0    0  0.50972620007E+01 -0.44843735067E+02  0.13964879585E+02  0.47243629374E+02  0.00000000000E+00 0.  1.
         11    1    4    4    0    0 -0.11720917831E+03 -0.85402486429E+02 -0.26086755622E+02  0.14735024597E+03  0.00000000000E+00 0. -1.
        -11    1    3    3    0    0  0.92239976141E+02  0.71082252783E+02 -0.35135345696E+03  0.37014882356E+03  0.00000000000E+00 0. -1.
         11    1    3    3    0    0 -0.19281965059E+02  0.30807719843E+02 -0.71175614890E+02  0.79917945002E+02  0.00000000000E+00 0.  1.
          1    1    1    2  501    0  0.39153905225E+02  0.28356248869E+02  0.12053247076E+02  0.49823547740E+02  0.00000000000E+00 0. -1.
<scales pt_clust_5="13000.00000" pt_clust_6="13000.00000" pt_clust_7="13000.00000" pt_clust_8="13000.00000" pt_clust_9="48.34362"></scales>
<clustering>
<clus scale="   48.344">  1  9  2 -1</clus>
<clus scale="   90.480">  5  6 -1 -1</clus>
<clus scale="   91.241">  7  8 -1 -1</clus>
<clus scale="  159.493">  1  5  2 -1</clus>
<clus scale="   48.344">  1  5  2 -1</clus>
</clustering>
</event>
<event>
 9    1  0.1399746E-005  0.1524037E+03  0.7546771E-02  0.1198013E+00
          1   -1    0    0  502    0 -0.00000000000E+00  0.00000000000E+00  0.59624439282E+03  0.59624439282E+03  0.00000000000E+00 0. -1.
         21   -1    0    0  501  502  0.00000000000E+00 -0.00000000000E+00 -0.72534287188E+02  0.72534287188E+02  0.00000000000E+00 0. -1.
         23    2    1    2    0    0 -0.21687974450E+02  0.11136685794E+03  0.33026034683E+03  0.36082076298E+03  0.90811788996E+02 0.  0.
         23    2    1    2    0    0  0.11472525889E+02 -0.13280340806E+03  0.21915573314E+03  0.27296251466E+03  0.93332389864E+02 0.  0.
        -11    1    3    3    0    0 -0.43060061852E+02  0.82372377878E+02  0.29904475615E+03  0.31315673990E+03  0.00000000000E+00 0. -1.
         11    1    3    3    0    0  0.21372087402E+02  0.28994480062E+02  0.31215590680E+02  0.47664023073E+02  0.00000000000E+00 0.  1.
        -13    1    4    4    0    0  0.31097370163E+02 -0.12241990973E+03  0.21643371945E+03  0.25059376617E+03  0.00000000000E+00 0. -1.
         13    1    4    4    0    0 -0.19624844274E+02 -0.10383498335E+02  0.27220136917E+01  0.22368748490E+02  0.00000000000E+00 0.  1.
          1    1    1    2  501    0  0.10215448562E+02  0.21436550124E+02 -0.25705974340E+02  0.34995402374E+02  0.00000000000E+00 0. -1.
<scales pt_clust_5="13000.00000" pt_clust_6="13000.00000" pt_clust_7="13000.00000" pt_clust_8="13000.00000" pt_clust_9="23.74618"></scales>
<clustering>
<clus scale="   23.746">  2  9  1 -1</clus>
<clus scale="   90.812">  5  6 -1 -1</clus>
<clus scale="   93.332">  7  8 -1 -1</clus>
<clus scale="  150.873">  1  5  2 -1</clus>
<clus scale="   23.746">  2  5  1 -1</clus>
</clustering>
</event>
<event>
 9    1  0.1420932E-005  0.9984611E+02  0.7546771E-02  0.1281949E+00
         21   -1    0    0  501  502  0.00000000000E+00  0.00000000000E+00  0.19427447969E+03  0.19427447969E+03  0.00000000000E+00 0.  1.
         -3   -1    0    0    0  501 -0.00000000000E+00 -0.00000000000E+00 -0.18072706885E+03  0.18072706885E+03  0.00000000000E+00 0.  1.
         23    2    1    2    0    0 -0.19098663228E+02 -0.42619433735E+02 -0.13110683570E+03  0.16513857892E+03  0.88885166419E+02 0.  0.
         23    2    1    2    0    0 -0.71341289796E+01  0.12720335168E+02  0.46096239669E+02  0.10358128633E+03  0.91605222796E+02 0.  0.
        -11    1    4    4    0    0  0.45257710531E+01 -0.37733703623E+02  0.32592292716E+02  0.50065682230E+02  0.00000000000E+00 0.  1.
         11    1    4    4    0    0 -0.11659900033E+02  0.50454038791E+02  0.13503946953E+02  0.53515604102E+02  0.00000000000E+00 0. -1.
        -11    1    3    3    0    0 -0.64433626935E+01 -0.69906622211E+02 -0.95506255398E+02  0.11853226384E+03  0.00000000000E+00 0.  1.
         11    1    3    3    0    0 -0.12655300534E+02  0.27287188476E+02 -0.35600580306E+02  0.46606315073E+02  0.00000000000E+00 0. -1.
         -3    1    1    2    0  502  0.26232792207E+02  0.29899098567E+02  0.98558006883E+02  0.10628168329E+03  0.00000000000E+00 0.  1.
<scales pt_clust_5="13000.00000" pt_clust_6="13000.00000" pt_clust_7="13000.00000" pt_clust_8="13000.00000" pt_clust_9="39.77582"></scales>
<clustering>
<clus scale="   39.776">  1  9  2 -1</clus>
<clus scale="   88.885">  7  8 -1 -1</clus>
<clus scale="   91.605">  5  6 -1 -1</clus>
<clus scale="   97.357">  2  7  1 -1</clus>
<clus scale="   39.776">  1  5  2 -1</clus>
</clustering>
</event>
<event>
 9    1  0.1399746E-005  0.1599586E+03  0.7546771E-02  0.1188803E+00
          2   -1    0    0  502    0 -0.00000000000E+00  0.00000000000E+00  0.11304966018E+04  0.11304966018E+04  0.00000000000E+00 0. -1.
         21   -1    0    0  501  502  0.00000000000E+00 -0.00000000000E+00 -0.90481878288E+02  0.90481878288E+02  0.00000000000E+00 0. -1.
         23    2    1    2    0    0  0.11473193140E+03 -0.55031342824E+02  0.67513269327E+03  0.69306164450E+03  0.91314975701E+02 0.  0.
         23    2    1    2    0    0 -0.13734663209E+03  0.28904319347E+02  0.42594802535E+03  0.45775201676E+03  0.91682231227E+02 0.  0.
        -11    1    4    4    0    0 -0.21513963962E+02 -0.26892991498E+02  0.52469980889E+02  0.62762907291E+02  0.00000000000E+00 0.  1.
         11    1    4    4    0    0 -0.11583266813E+03  0.55797310845E+02  0.37347804447E+03  0.39498910947E+03  0.00000000000E+00 0. -1.
        -13    1    3    3    0    0  0.10927434165E+03 -0.91137785138E+01  0.44311222261E+03  0.45647824102E+03  0.00000000000E+00 0.  1.
         13    1    3    3    0    0  0.54575897529E+01 -0.45917564310E+02  0.23202047066E+03  0.23658340348E+03  0.00000000000E+00 0. -1.
          2    1    1    2  501    0  0.22614700691E+02  0.26127023477E+02 -0.61065995103E+02  0.70164818827E+02  0.00000000000E+00 0. -1.
<scales pt_clust_5="13000.00000" pt_clust_6="13000.00000" pt_clust_7="13000.00000" pt_clust_8="13000.00000" pt_clust_9="34.55497"></scales>
<clustering>
<clus scale="   34.555">  2  9  1 -1</clus>
<clus scale="   91.315">  7  8 -1 -1</clus>
<clus scale="   91.682">  5  6 -1 -1</clus>
<clus scale="  159.748">  1  7  2 -1</clus>
<clus scale="   34.555">  2  5  1 -1</clus>
</clustering>
</event>
<event>
 9    1  0.1399746E-005  0.1482393E+03  0.7546771E-02  0.1204725E+00
         21   -1    0    0  501  502  0.00000000000E+00  0.00000000000E+00  0.49320269512E+02  0.49320269512E+02  0.00000000000E+00 0. -1.
          1   -1    0    0  502    0 -0.00000000000E+00 -0.00000000000E+00 -0.80069019523E+03  0.80069019523E+03  0.00000000000E+00 0. -1.
         23    2    1    2    0    0 -0.99157805933E+02 -0.52089729120E+02 -0.41644798261E+03  0.44281530590E+03  0.10055278493E+03 0.  0.
         23    2    1    2    0    0  0.75661601391E+02  0.77706322651E+02 -0.34343729616E+03  0.37140699419E+03  0.90725015503E+02 0.  0.
        -11    1    4    4    0    0 -0.14276787339E+02  0.20126273613E+02 -0.13466385634E+03  0.13690598143E+03  0.00000000000E+00 0. -1.
         11    1    4    4    0    0  0.89938388730E+02  0.57580049038E+02 -0.20877343982E+03  0.23450101276E+03  0.00000000000E+00 0.  1.
        -13    1    3    3    0    0 -0.67409274213E+02 -0.78960315597E+02 -0.34345369190E+03  0.35880242498E+03  0.00000000000E+00 0. -1.
         13    1    3    3    0    0 -0.31748531720E+02  0.26870586477E+02 -0.72994290712E+02  0.84012880921E+02  0.00000000000E+00 0.  1.
          1    1    1    2  501    0  0.23496204542E+02 -0.25616593531E+02  0.85153530476E+01  0.35788164657E+02  0.00000000000E+00 0. -1.
<scales pt_clust_5="13000.00000" pt_clust_6="13000.00000" pt_clust_7="13000.00000" pt_clust_8="13000.00000" pt_clust_9="34.76034"></scales>
<clustering>
<clus scale="   34.760">  1  9  2 -1</clus>
<clus scale="   90.725">  5  6 -1 -1</clus>
<clus scale="  100.553">  7  8 -1 -1</clus>
<clus scale="  141.757">  1  5  2 -1</clus>
<clus scale="   34.760">  1  5  2 -1</clus>
</clustering>
</event>
<event>
 9    1  0.1399746E-005  0.9776380E+02  0.7546771E-02  0.1285482E+00
         21   -1    0    0  501  502  0.00000000000E+00  0.00000000000E+00  0.63529703510E+02  0.63529703510E+02  0.00000000000E+00 0.  1.
          1   -1    0    0  502    0 -0.00000000000E+00 -0.00000000000E+00 -0.40557502481E+03  0.40557502481E+03  0.00000000000E+00 0. -1.
         23    2    1    2    0    0 -0.36318645057E+01  0.35696965151E+02 -0.32936416400E+03  0.34359554156E+03  0.91047679239E+02 0.  0.
         23    2    1    2    0    0 -0.19857211270E+02 -0.34956148388E+02  0.42237373155E-01  0.98785222561E+02  0.90234568005E+02 0.  0.
        -13    1    3    3    0    0 -0.17273602383E+02  0.61107911236E+02 -0.27291211472E+03  0.28020274181E+03  0.00000000000E+00 0. -1.
         13    1    3    3    0    0  0.13641737877E+02 -0.25410946085E+02 -0.56452049279E+02  0.63392799757E+02  0.00000000000E+00 0.  1.
        -13    1    4    4    0    0  0.23504767144E+02 -0.45083031299E+02  0.12868972150E+02  0.52445821891E+02  0.00000000000E+00 0.  1.
         13    1    4    4    0    0 -0.43361978415E+02  0.10126882910E+02 -0.12826734777E+02  0.46339400671E+02  0.00000000000E+00 0. -1.
          1    1    1    2  501    0  0.23489075776E+02 -0.74081676239E+00 -0.12723394673E+02  0.26723964195E+02  0.00000000000E+00 0. -1.
<scales pt_clust_5="13000.00000" pt_clust_6="13000.00000" pt_clust_7="13000.00000" pt_clust_8="13000.00000" pt_clust_9="23.50076"></scales>
<clustering>
<clus scale="   23.501">  1  9  2 -1</clus>
<clus scale="   90.235">  7  8 -1 -1</clus>
<clus scale="   91.048">  5  6 -1 -1</clus>
<clus scale="   97.007">  1  7  2 -1</clus>
<clus scale="   23.501">  1  5  2 -1</clus>
</clustering>
</event>
<event>
 9    1  0.1399746E-005  0.2182265E+03  0.7546771E-02  0.1135262E+00
         21   -1    0    0  501  502  0.00000000000E+00  0.00000000000E+00  0.94269387953E+02  0.94269387953E+02  0.00000000000E+00 0. -1.
          2   -1    0    0  502    0 -0.00000000000E+00 -0.00000000000E+00 -0.72599579897E+03  0.72599579897E+03  0.00000000000E+00 0. -1.
         23    2    1    2    0    0 -0.77495176010E+02 -0.17435104557E+03 -0.29631446819E+03  0.36383071705E+03  0.90370001751E+02 0.  0.
         23    2    1    2    0    0  0.12328626631E+03  0.16797120434E+03 -0.34101488304E+03  0.40986281257E+03  0.91008492610E+02 0.  0.
        -11    1    3    3    0    0  0.11767238053E+02 -0.81172577534E+02 -0.11089798398E+03  0.13793410777E+03  0.00000000000E+00 0.  1.
         11    1    3    3    0    0 -0.89262414063E+02 -0.93178468037E+02 -0.18541648420E+03  0.22589660928E+03  0.00000000000E+00 0. -1.
        -13    1    4    4    0    0 -0.11228651711E+01  0.34439666286E+02 -0.18052242402E+02  0.38900319997E+02  0.00000000000E+00 0.  1.
         13    1    4    4    0    0  0.12440913148E+03  0.13353153806E+03 -0.32296264063E+03  0.37096249257E+03  0.00000000000E+00 0. -1.
          2    1    1    2  501    0 -0.45791090296E+02  0.63798412297E+01  0.56029402104E+01  0.46571657299E+02  0.00000000000E+00 0. -1.
<scales pt_clust_5="13000.00000" pt_clust_6="13000.00000" pt_clust_7="13000.00000" pt_clust_8="13000.00000" pt_clust_9="46.23339"></scales>
<clustering>
<clus scale="   46.233">  1  9  2 -1</clus>
<clus scale="   90.370">  5  6 -1 -1</clus>
<clus scale="   91.008">  7  8 -1 -1</clus>
<clus scale="  217.961">  2  5  1 -1</clus>
<clus scale="   46.233">  1  5  2 -1</clus>
</clustering>
</event>
<event>
 9    1  0.1399746E-005  0.1062120E+03  0.7546771E-02  0.1268384E+00
         21   -1    0    0  501  502  0.00000000000E+00  0.00000000000E+00  0.12475458241E+03  0.12475458241E+03  0.00000000000E+00 0.  1.
         -3   -1    0    0    0  501 -0.00000000000E+00 -0.00000000000E+00 -0.51349080583E+03  0.51349080583E+03  0.00000000000E+00 0.  1.
         23    2    1    2    0    0 -0.25875452805E+02 -0.46286148171E+02 -0.42060033888E+03  0.43400505737E+03  0.92972029074E+02 0.  0.
         23    2    1    2    0    0 -0.16489223899E+02  0.35757891016E+02  0.88153324512E+02  0.13300771835E+03  0.91485098474E+02 0.  0.
        -13    1    4    4    0    0  0.16089863222E+02  0.28483717880E+02  0.93629631034E+02  0.99180208159E+02  0.00000000000E+00 0.  1.
         13    1    4    4    0    0 -0.32579087121E+02  0.72741731366E+01 -0.54763065223E+01  0.33827510189E+02  0.00000000000E+00 0. -1.
        -13    1    3    3    0    0 -0.24196805528E+02  0.21245351035E+02 -0.71318340678E+02  0.78250597796E+02  0.00000000000E+00 0.  1.
         13    1    3    3    0    0 -0.16786472764E+01 -0.67531499206E+02 -0.34928199820E+03  0.35575445958E+03  0.00000000000E+00 0. -1.
         -3    1    1    2    0  502  0.42364676704E+02  0.10528257155E+02 -0.56289209049E+02  0.71232612519E+02  0.00000000000E+00 0.  1.
<scales pt_clust_5="13000.00000" pt_clust_6="13000.00000" pt_clust_7="13000.00000" pt_clust_8="13000.00000" pt_clust_9="43.65332"></scales>
<clustering>
<clus scale="   43.653">  1  9  2 -1</clus>
<clus scale="   91.485">  5  6 -1 -1</clus>
<clus scale="   92.972">  7  8 -1 -1</clus>
<clus scale="  104.913">  1  5  2 -1</clus>
<clus scale="   43.653">  1  5  2 -1</clus>
</clustering>
</event>
<event>
 9    1  0.1399746E-005  0.1496175E+03  0.7546771E-02  0.1201685E+00
         21   -1    0    0  501  502  0.00000000000E+00  0.00000000000E+00  0.56226422498E+02  0.56226422498E+02  0.00000000000E+00 0. -1.
          2   -1    0    0  502    0 -0.00000000000E+00 -0.00000000000E+00 -0.78604869620E+03  0.78604869620E+03  0.00000000000E+00 0. -1.
         23    2    1    2    0    0 -0.80119291426E+01  0.12363193102E+03 -0.56085962031E+03  0.58102668898E+03  0.87632495369E+02 0.  0.
         23    2    1    2    0    0  0.25692830631E+02 -0.10325163204E+03 -0.18315079007E+03  0.23076443251E+03  0.91580512885E+02 0.  0.
        -13    1    4    4    0    0  0.27224463824E+02 -0.36947484829E+01 -0.68899336465E+01  0.28324790952E+02  0.00000000000E+00 0.  1.
         13    1    4    4    0    0 -0.15316331923E+01 -0.99556883561E+02 -0.17626085643E+03  0.20243964155E+03  0.00000000000E+00 0. -1.
        -13    1    3    3    0    0 -0.34461083906E+02  0.23429962574E+02 -0.94320644226E+02  0.10311601901E+03  0.00000000000E+00 0.  1.
         13    1    3    3    0    0  0.26449154763E+02  0.10020196845E+03 -0.46653897608E+03  0.47791066997E+03  0.00000000000E+00 0. -1.
          2    1    1    2  501    0 -0.17680901489E+02 -0.20380298975E+02  0.14188136673E+02  0.30483997211E+02  0.00000000000E+00 0. -1.
<scales pt_clust_5="13000.00000" pt_clust_6="13000.00000" pt_clust_7="13000.00000" pt_clust_8="13000.00000" pt_clust_9="26.98094"></scales>
<clustering>
<clus scale="   26.981">  1  9  2 -1</clus>
<clus scale="   87.632">  7  8 -1 -1</clus>
<clus scale="   91.581">  5  6 -1 -1</clus>
<clus scale="  147.234">  2  7  1 -1</clus>
<clus scale="   26.981">  1  5  2 -1</clus>
</clustering>
</event>
<event>
 9    1  0.1399746E-005  0.9492039E+02  0.7546771E-02  0.1292287E+00
         -1   -1    0    0    0  501 -0.00000000000E+00  0.00000000000E+00  0.11082756829E+03  0.11082756829E+03  0.00000000000E+00 0.  1.
         21   -1    0    0  501  502  0.00000000000E+00 -0.00000000000E+00 -0.22091496579E+03  0.22091496579E+03  0.00000000000E+00 0. -1.
         23    2    1    2    0    0  0.31785988900E+02  0.12806512331E+02  0.34204104895E+02  0.10323658358E+03  0.91178481828E+02 0.  0.
         23    2    1    2    0    0  0.41495142488E+02 -0.99205688386E+01 -0.99188373222E+02  0.14240865003E+03  0.92852709630E+02 0.  0.
        -11    1    3    3    0    0  0.59301484211E+02  0.21667703452E+02  0.38594530918E+02  0.73997927128E+02  0.00000000000E+00 0. -1.
         11    1    3    3    0    0 -0.27515495310E+02 -0.88611911207E+01 -0.43904260231E+01  0.29238656448E+02  0.00000000000E+00 0.  1.
        -11    1    4    4    0    0  0.12578398899E+02  0.36217328004E+02 -0.13042853811E+02  0.40497246846E+02  0.00000000000E+00 0.  1.
         11    1    4    4    0    0  0.28916743589E+02 -0.46137896843E+02 -0.86145519411E+02  0.10191140319E+03  0.00000000000E+00 0. -1.
         -1    1    1    2    0  502 -0.73281131388E+02 -0.28859434925E+01 -0.45103129167E+02  0.86097300469E+02  0.00000000000E+00 0.  1.
<scales pt_clust_5="13000.00000" pt_clust_6="13000.00000" pt_clust_7="13000.00000" pt_clust_8="13000.00000" pt_clust_9="73.33794"></scales>
<clustering>
<clus scale="   73.338">  2  9  1 -1</clus>
<clus scale="   91.178">  5  6 -1 -1</clus>
<clus scale="   92.853">  7  8 -1 -1</clus>
<clus scale="   93.283">  1  5  2 -1</clus>
<clus scale="   73.338">  2  5  1 -1</clus>
</clustering>
</event>
<event>
 9    1  0.1399746E-005  0.1362889E+03  0.7546771E-02  0.1218444E+00
         21   -1    0    0  501  502  0.00000000000E+00  0.00000000000E+00  0.45360636714E+03  0.45360636714E+03  0.00000000000E+00 0.  1.
          3   -1    0    0  502    0 -0.00000000000E+00 -0.00000000000E+00 -0.69215732504E+02  0.69215732504E+02  0.00000000000E+00 0. -1.
         23    2    1    2    0    0 -0.58105419281E+02  0.75554534105E+02  0.48016652670E+02  0.14021921012E+03  0.90945591314E+02 0.  0.
         23    2    1    2    0    0  0.86199030483E+02 -0.84579925049E+02  0.25984065205E+03  0.30057814167E+03  0.90807588979E+02 0.  0.
        -13    1    3    3    0    0  0.23314925508E+02  0.97467045478E+01  0.18898978051E+02  0.31555591776E+02  0.00000000000E+00 0.  1.
         13    1    3    3    0    0 -0.81420344788E+02  0.65807829558E+02  0.29117674619E+02  0.10866361834E+03  0.00000000000E+00 0. -1.
        -13    1    4    4    0    0  0.19383875833E+02 -0.76362311109E+02  0.17766027747E+03  0.19434534054E+03  0.00000000000E+00 0. -1.
         13    1    4    4    0    0  0.66815154649E+02 -0.82176139400E+01  0.82180374579E+02  0.10623280113E+03  0.00000000000E+00 0.  1.
          3    1    1    2  501    0 -0.28093611202E+02  0.90253909440E+01  0.76533329923E+02  0.82024747858E+02  0.00000000000E+00 0. -1.
<scales pt_clust_5="13000.00000" pt_clust_6="13000.00000" pt_clust_7="13000.00000" pt_clust_8="13000.00000" pt_clust_9="29.50777"></scales>
<clustering>
<clus scale="   29.508">  1  9  2 -1</clus>
<clus scale="   90.808">  7  8 -1 -1</clus>
<clus scale="   90.946">  5  6 -1 -1</clus>
<clus scale="  136.197">  1  7  2 -1</clus>
<clus scale="   29.508">  1  5  2 -1</clus>
</clustering>
</event>
<event>
 9    1  0.1399746E-005  0.9853366E+02  0.7546771E-02  0.1283434E+00
         21   -1    0    0  501  502  0.00000000000E+00  0.00000000000E+00  0.12610977838E+03  0.12610977838E+03  0.00000000000E+00 0. -1.
          2   -1    0    0  502    0 -0.00000000000E+00 -0.00000000000E+00 -0.24102425642E+03  0.24102425642E+03  0.00000000000E+00 0. -1.
         23    2    1    2    0    0 -0.49513116497E+02 -0.15928277574E+02 -0.11848867610E+03  0.15787574182E+03  0.90442936487E+02 0.  0.
         23    2    1    2    0    0  0.22583530999E+02  0.98060046257E+01 -0.78728443320E+02  0.12244579630E+03  0.90491058372E+02 0.  0.
        -11    1    3    3    0    0 -0.73833167355E+02 -0.18585482361E+02 -0.69361705481E+02  0.10299418888E+03  0.00000000000E+00 0. -1.
         11    1    3    3    0    0  0.24320050858E+02  0.26572047874E+01 -0.49126970616E+02  0.54881552938E+02  0.00000000000E+00 0.  1.
        -11    1    4    4    0    0 -0.23308827362E+02 -0.23537013652E+02 -0.46843885571E+02  0.57372833816E+02  0.00000000000E+00 0. -1.
         11    1    4    4    0    0  0.45892358361E+02  0.33343018278E+02 -0.31884557749E+02  0.65072962486E+02  0.00000000000E+00 0.  1.
          2    1    1    2  501    0  0.26929585498E+02  0.61222729483E+01  0.82302641384E+02  0.86812496681E+02  0.00000000000E+00 0. -1.
<scales pt_clust_5="13000.00000" pt_clust_6="13000.00000" pt_clust_7="13000.00000" pt_clust_8="13000.00000" pt_clust_9="27.61675"></scales>
<clustering>
<clus scale="   27.617">  1  9  2 -1</clus>
<clus scale="   90.443">  5  6 -1 -1</clus>
<clus scale="   90.491">  7  8 -1 -1</clus>
<clus scale="   98.489">  2  5  1 -1</clus>
<clus scale="   27.617">  1  5  2 -1</clus>
</clustering>
</event>
<event>
 9    1  0.1399746E-005  0.1163585E+03  0.7546771E-02  0.1250038E+00
         -1   -1    0    0    0  501 -0.00000000000E+00  0.00000000000E+00  0.44820015515E+02  0.44820015515E+02  0.00000000000E+00 0.  1.
         21   -1    0    0  501  502  0.00000000000E+00 -0.00000000000E+00 -0.60547176790E+03  0.60547176790E+03  0.00000000000E+00 0. -1.
         23    2    1    2    0    0  0.16333425744E+02 -0.59680891265E+02 -0.78760890028E+02  0.13656225332E+03  0.92829853249E+02 0.  0.
         23    2    1    2    0    0 -0.76239637061E+01  0.93573472931E+02 -0.28052177925E+03  0.30934247216E+03  0.90477493278E+02 0.  0.
        -11    1    3    3    0    0  0.48953807283E+02 -0.57060076113E+02 -0.69904680979E+02  0.10265959262E+03  0.00000000000E+00 0.  1.
         11    1    3    3    0    0 -0.32620381538E+02 -0.26208151513E+01 -0.88562090484E+01  0.33902660699E+02  0.00000000000E+00 0. -1.
        -13    1    4    4    0    0 -0.32113657989E+02  0.17062610576E+01 -0.10381683137E+03  0.10868363645E+03  0.00000000000E+00 0.  1.
         13    1    4    4    0    0  0.24489694283E+02  0.91867211873E+02 -0.17670494788E+03  0.20065883571E+03  0.00000000000E+00 0. -1.
         -1    1    1    2    0  502 -0.87094620384E+01 -0.33892581666E+02 -0.20136908310E+03  0.20438705793E+03  0.00000000000E+00 0.  1.
<scales pt_clust_5="13000.00000" pt_clust_6="13000.00000" pt_clust_7="13000.00000" pt_clust_8="13000.00000" pt_clust_9="34.99374"></scales>
<clustering>
<clus scale="   34.994">  2  9  1 -1</clus>
<clus scale="   90.477">  7  8 -1 -1</clus>
<clus scale="   92.830">  5  6 -1 -1</clus>
<clus scale="  114.491">  2  7  1 -1</clus>
<clus scale="   34.994">  2  5  1 -1</clus>
</clustering>
</event>
<event>
 9    1  0.1399746E-005  0.9617311E+02  0.7546771E-02  0.1290900E+00
         -1   -1    0    0    0  501 -0.00000000000E+00  0.00000000000E+00  0.18391556822E+03  0.18391556822E+03  0.00000000000E+00 0.  1.
         21   -1    0    0  501  502  0.00000000000E+00 -0.00000000000E+00 -0.40531407487E+03  0.40531407487E+03  0.00000000000E+00 0.  1.
         23    2    1    2    0    0 -0.22127806899E+02  0.32029335424E+02  0.12856418504E+03  0.16251382749E+03  0.91468444203E+02 0.  0.
         23    2    1    2    0    0 -0.21696748800E+02 -0.11357835443E+02 -0.19302749015E+02  0.92524402956E+02  0.87111535909E+02 0.  0.
        -11    1    4    4    0    0  0.11198087934E+00 -0.39917546864E+02 -0.35209138736E+02  0.53226934327E+02  0.00000000000E+00 0. -1.
         11    1    4    4    0    0 -0.21808729679E+02  0.28559711421E+02  0.15906389721E+02  0.39297468629E+02  0.00000000000E+00 0.  1.
        -13    1    3    3    0    0 -0.55514790472E+01 -0.27195391743E+02  0.78337509403E+02  0.83109407597E+02  0.00000000000E+00 0. -1.
         13    1    3    3    0    0 -0.16576327851E+02  0.59224727167E+02  0.50226675633E+02  0.79404419890E+02  0.00000000000E+00 0.  1.
         -1    1    1    2    0  502  0.43824555698E+02 -0.20671499981E+02 -0.33065994268E+03  0.33419141265E+03  0.00000000000E+00 0.  1.
<scales pt_clust_5="13000.00000" pt_clust_6="13000.00000" pt_clust_7="13000.00000" pt_clust_8="13000.00000" pt_clust_9="48.45516"></scales>
<clustering>
<clus scale="   48.455">  2  9  1 -1</clus>
<clus scale="   87.112">  5  6 -1 -1</clus>
<clus scale="   91.468">  7  8 -1 -1</clus>
<clus scale="   92.039">  2  5  1 -1</clus>
<clus scale="   48.455">  2  5  1 -1</clus>
</clustering>
</event>
<event>
 9    1  0.1399746E-005  0.1734350E+03  0.7546771E-02  0.1174795E+00
         -1   -1    0    0    0  501 -0.00000000000E+00  0.00000000000E+00  0.20594723619E+03  0.20594723619E+03  0.00000000000E+00 0.  1.
         21   -1    0    0  501  502  0.00000000000E+00 -0.00000000000E+00 -0.21776060866E+03  0.21776060866E+03  0.00000000000E+00 0.  1.
         23    2    1    2    0    0  0.11409566346E+03  0.61797750465E+02  0.24058726667E+02  0.16154033772E+03  0.93164778743E+02 0.  0.
         23    2    1    2    0    0 -0.17005439676E+03 -0.38967439974E+02 -0.98639395414E+01  0.19637216326E+03  0.89597823442E+02 0.  0.
        -13    1    3    3    0    0  0.91902204769E+02  0.25282832280E+02  0.53825225546E+02  0.10946411172E+03  0.00000000000E+00 0.  1.
         13    1    3    3    0    0  0.22193458694E+02  0.36514918185E+02 -0.29766498880E+02  0.52076226000E+02  0.00000000000E+00 0. -1.
        -13    1    4    4    0    0 -0.11265258766E+03 -0.28762153694E+02  0.36523105623E+02  0.12186797872E+03  0.00000000000E+00 0.  1.
         13    1    4    4    0    0 -0.57401809100E+02 -0.10205286279E+02 -0.46387045165E+02  0.74504184547E+02  0.00000000000E+00 0. -1.
         -1    1    1    2    0  502  0.55958733297E+02 -0.22830310492E+02 -0.26008159588E+02  0.65795343867E+02  0.00000000000E+00 0.  1.
<scales pt_clust_5="13000.00000" pt_clust_6="13000.00000" pt_clust_7="13000.00000" pt_clust_8="13000.00000" pt_clust_9="60.43677"></scales>
<clustering>
<clus scale="   60.437">  2  9  1 -1</clus>
<clus scale="   89.598">  7  8 -1 -1</clus>
<clus scale="   93.165">  5  6 -1 -1</clus>
<clus scale="  171.545">  2  7  1 -1</clus>
<clus scale="   60.437">  2  5  1 -1</clus>
</clustering>
</event>
<event>
 9    1  0.1399746E-005  0.1188603E+03  0.7546771E-02  0.1245496E+00
         -1   -1    0    0    0  501 -0.00000000000E+00  0.00000000000E+00  0.19420527912E+03  0.19420527912E+03  0.00000000000E+00 0.  1.
         21   -1    0    0  501  502  0.00000000000E+00 -0.00000000000E+00 -0.89501277112E+02  0.89501277112E+02  0.00000000000E+00 0. -1.
         23    2    1    2    0    0  0.51653301846E+02 -0.42311008439E+02  0.68998881490E+02  0.13226425796E+03  0.90965395950E+02 0.  0.
         23    2    1    2    0    0 -0.66472221425E+02  0.56038631614E+02  0.31492514854E+02  0.13080752030E+03  0.92519967684E+02 0.  0.
        -13    1    3    3    0    0  0.15916641903E+02 -0.60491832837E+02  0.67663708581E+02  0.92146507196E+02  0.00000000000E+00 0.  1.
         13    1    3    3    0    0  0.35736659943E+02  0.18180824399E+02  0.13351729088E+01  0.40117750764E+02  0.00000000000E+00 0. -1.
        -13    1    4    4    0    0 -0.26077434843E+02 -0.15981010073E+02 -0.17055522610E+02  0.35018796987E+02  0.00000000000E+00 0.  1.
         13    1    4    4    0    0 -0.40394786582E+02  0.72019641687E+02  0.48548037464E+02  0.95788723310E+02  0.00000000000E+00 0. -1.
         -1    1    1    2    0  502  0.14818919579E+02 -0.13727623175E+02  0.42126056615E+01  0.20634777972E+02  0.00000000000E+00 0.  1.
<scales pt_clust_5="13000.00000" pt_clust_6="13000.00000" pt_clust_7="13000.00000" pt_clust_8="13000.00000" pt_clust_9="20.20020"></scales>
<clustering>
<clus scale="   20.200">  2  9  1 -1</clus>
<clus scale="   90.965">  5  6 -1 -1</clus>
<clus scale="   92.520">  7  8 -1 -1</clus>
<clus scale="  117.654">  1  5  2 -1</clus>
<clus scale="   20.200">  2  5  1 -1</clus>
</clustering>
</event>
<event>
 9    1  0.1399746E-005  0.1317276E+03  0.7546771E-02  0.1225375E+00
          2   -1    0    0  502    0 -0.00000000000E+00  0.00000000000E+00  0.28086701359E+03  0.28086701359E+03  0.00000000000E+00 0. -1.
         21   -1    0    0  501  502  0.00000000000E+00 -0.00000000000E+00 -0.15009955767E+03  0.15009955767E+03  0.00000000000E+00 0.  1.
         23    2    1    2    0    0  0.90376886536E+02  0.25000744421E+02  0.19731636576E+03  0.23612806340E+03  0.89608567044E+02 0.  0.
         23    2    1    2    0    0 -0.10248448871E+03  0.20267394043E+01 -0.18778724367E+02  0.13863290731E+03  0.91429012909E+02 0.  0.
        -11    1    3    3    0    0  0.29490038930E+02 -0.30566750285E+02  0.39122016559E+02  0.57745309755E+02  0.00000000000E+00 0.  1.
         11    1    3    3    0    0  0.60886847607E+02  0.55567494706E+02  0.15819434920E+03  0.17838275365E+03  0.00000000000E+00 0. -1.
        -13    1    4    4    0    0 -0.48230708629E+02  0.46581420216E+02 -0.65462287738E+01  0.67371233293E+02  0.00000000000E+00 0. -1.
         13    1    4    4    0    0 -0.54253780076E+02 -0.44554680812E+02 -0.12232495593E+02  0.71261674013E+02  0.00000000000E+00 0.  1.
          2    1    1    2  501    0  0.12107602169E+02 -0.27027483825E+02 -0.47770185481E+02  0.56205600550E+02  0.00000000000E+00 0. -1.
<scales pt_clust_5="13000.00000" pt_clust_6="13000.00000" pt_clust_7="13000.00000" pt_clust_8="13000.00000" pt_clust_9="29.61552"></scales>
<clustering>
<clus scale="   29.616">  2  9  1 -1</clus>
<clus scale="   89.609">  5  6 -1 -1</clus>
<clus scale="   91.429">  7  8 -1 -1</clus>
<clus scale="  130.471">  1  5  2 -1</clus>
<clus scale="   29.616">  2  5  1 -1</clus>
</clustering>
</event>
<event>
 9    1  0.1399746E-005  0.1106674E+03  0.7546771E-02  0.1261319E+00
         21   -1    0    0  501  502  0.00000000000E+00  0.00000000000E+00  0.47443859878E+03  0.47443859878E+03  0.00000000000E+00 0.  1.
         -3   -1    0    0    0  501 -0.00000000000E+00 -0.00000000000E+00 -0.48654722395E+02  0.48654722395E+02  0.00000000000E+00 0.  1.
         23    2    1    2    0    0  0.20695587408E+02  0.66694887693E+00  0.14261895127E+03  0.17342338503E+03  0.96471514218E+02 0.  0.
         23    2    1    2    0    0 -0.85133269582E+02 -0.30254333884E+02  0.14147186237E+03  0.19122577479E+03  0.91597002108E+02 0.  0.
        -11    1    3    3    0    0  0.59553826517E+02 -0.22047789434E+01  0.82203041958E+02  0.10153255345E+03  0.00000000000E+00 0.  1.
         11    1    3    3    0    0 -0.38858239110E+02  0.28717278203E+01  0.60415909308E+02  0.71890831577E+02  0.00000000000E+00 0. -1.
        -13    1    4    4    0    0 -0.76618717149E+02  0.81034015972E+01  0.50472806758E+02  0.92106444709E+02  0.00000000000E+00 0.  1.
         13    1    4    4    0    0 -0.85145524326E+01 -0.38357735481E+02  0.90999055610E+02  0.99119330084E+02  0.00000000000E+00 0. -1.
         -3    1    1    2    0  502  0.64437682174E+02  0.29587385007E+02  0.14169306276E+03  0.15844416136E+03  0.00000000000E+00 0.  1.
<scales pt_clust_5="13000.00000" pt_clust_6="13000.00000" pt_clust_7="13000.00000" pt_clust_8="13000.00000" pt_clust_9="70.90577"></scales>
<clustering>
<clus scale="   70.906">  1  9  2 -1</clus>
<clus scale="   91.597">  7  8 -1 -1</clus>
<clus scale="   96.472">  5  6 -1 -1</clus>
<clus scale="  106.445">  1  7  2 -1</clus>
<clus scale="   70.906">  1  5  2 -1</clus>
</clustering>
</event>
<event>
 9    1  0.1399746E-005  0.9631146E+02  0.7546771E-02  0.1289134E+00
          1   -1    0    0  502    0 -0.00000000000E+00  0.00000000000E+00  0.19877978264E+03  0.19877978264E+03  0.00000000000E+00 0. -1.
         21   -1    0    0  501  502  0.00000000000E+00 -0.00000000000E+00 -0.18007247202E+03  0.18007247202E+03  0.00000000000E+00 0. -1.
         23    2    1    2    0    0 -0.17662940278E+02  0.11037794993E+01  0.70921948200E+02  0.11732301771E+03  0.91769112237E+02 0.  0.
         23    2    1    2    0    0  0.38004531149E+02 -0.17922775343E+02  0.79437692450E+02  0.12725714400E+03  0.90102516360E+02 0.  0.
        -13    1    3    3    0    0  0.27965926257E+02  0.15099697410E+02  0.60694800539E+02  0.68512427382E+02  0.00000000000E+00 0. -1.
         13    1    3    3    0    0 -0.45628866535E+02 -0.13995917911E+02  0.10227147661E+02  0.48810590333E+02  0.00000000000E+00 0.  1.
        -13    1    4    4    0    0  0.16975418267E+02 -0.54577139662E+02  0.46232836369E+02  0.73513972534E+02  0.00000000000E+00 0. -1.
         13    1    4    4    0    0  0.21029112882E+02  0.36654364320E+02  0.33204856081E+02  0.53743171470E+02  0.00000000000E+00 0.  1.
          1    1    1    2  501    0 -0.20341590871E+02  0.16818995843E+02 -0.13165233003E+03  0.13427209294E+03  0.00000000000E+00 0. -1.
<scales pt_clust_5="13000.00000" pt_clust_6="13000.00000" pt_clust_7="13000.00000" pt_clust_8="13000.00000" pt_clust_9="26.39430"></scales>
<clustering>
<clus scale="   26.394">  2  9  1 -1</clus>
<clus scale="   90.103">  7  8 -1 -1</clus>
<clus scale="   91.769">  5  6 -1 -1</clus>
<clus scale="   94.725">  2  7  1 -1</clus>
<clus scale="   26.394">  2  5  1 -1</clus>
</clustering>
</event>
<event>
 9    1  0.1399746E-005  0.1692384E+03  0.7546771E-02  0.1197924E+00
          1   -1    0    0  502    0 -0.00000000000E+00  0.00000000000E+00  0.24821291158E+03  0.24821291158E+03  0.00000000000E+00 0. -1.
         21   -1    0    0  501  502  0.00000000000E+00 -0.00000000000E+00 -0.22061104319E+03  0.22061104319E+03  0.00000000000E+00 0. -1.
         23    2    1    2    0    0  0.59085384641E+02  0.19153901133E+01  0.38315747583E+02  0.11685478895E+03  0.93231935465E+02 0.  0.
         23    2    1    2    0    0  0.24083359760E+02 -0.12181627371E+03  0.83642284547E+02  0.17819820286E+03  0.96640338270E+02 0.  0.
        -11    1    4    4    0    0 -0.19521538886E+02 -0.60043677962E+01 -0.10259030052E+02  0.22855866003E+02  0.00000000000E+00 0.  1.
         11    1    4    4    0    0  0.43604898646E+02 -0.11581190591E+03  0.93901314600E+02  0.15534233686E+03  0.00000000000E+00 0. -1.
        -13    1    3    3    0    0  0.77455220082E+02 -0.88133276403E+01  0.60265360220E+01  0.78187626889E+02  0.00000000000E+00 0. -1.
         13    1    3    3    0    0 -0.18369835441E+02  0.10728717754E+02  0.32289211561E+02  0.38667162063E+02  0.00000000000E+00 0.  1.
          1    1    1    2  501    0 -0.83168744401E+02  0.11990088359E+03 -0.94356163739E+02  0.17377096296E+03  0.00000000000E+00 0. -1.
<scales pt_clust_5="13000.00000" pt_clust_6="13000.00000" pt_clust_7="13000.00000" pt_clust_8="13000.00000" pt_clust_9="138.93262"></scales>
<clustering>
<clus scale="   93.232">  7  8 -1 -1</clus>
<clus scale="   96.640">  5  6 -1 -1</clus>
<clus scale="  110.394">  1  7  2 -1</clus>
<clus scale="  138.933">  2  9  1 -1</clus>
<clus scale="  138.933">  2  5  1 -1</clus>
</clustering>
</event>
<event>
 9    1  0.1399746E-005  0.1358709E+03  0.7546771E-02  0.1219305E+00
          2   -1    0    0  502    0 -0.00000000000E+00  0.00000000000E+00  0.29752101974E+03  0.29752101974E+03  0.00000000000E+00 0. -1.
         21   -1    0    0  501  502  0.00000000000E+00 -0.00000000000E+00 -0.19532501194E+03  0.19532501194E+03  0.00000000000E+00 0. -1.
         23    2    1    2    0    0 -0.94194940634E+02  0.33290440628E+02  0.17955030326E+03  0.22555519400E+03  0.93037056381E+02 0.  0.
         23    2    1    2    0    0  0.50773851073E+02 -0.11787568361E+03 -0.67854902169E+02  0.17173827194E+03  0.91744675931E+02 0.  0.
        -11    1    3    3    0    0 -0.68810549037E+02  0.45905641422E+02  0.58710988554E+02  0.10143569268E+03  0.00000000000E+00 0.  1.
         11    1    3    3    0    0 -0.25384391597E+02 -0.12615200794E+02  0.12083931471E+03  0.12411950131E+03  0.00000000000E+00 0. -1.
        -13    1    4    4    0    0 -0.25592335054E+02 -0.36259684756E+02 -0.30651140131E+02  0.53937229661E+02  0.00000000000E+00 0.  1.
         13    1    4    4    0    0  0.76366186128E+02 -0.81615998852E+02 -0.37203762037E+02  0.11780104228E+03  0.00000000000E+00 0. -1.
          2    1    1    2  501    0  0.43421089561E+02  0.84585242980E+02 -0.94993932889E+01  0.95552565750E+02  0.00000000000E+00 0. -1.
<scales pt_clust_5="13000.00000" pt_clust_6="13000.00000" pt_clust_7="13000.00000" pt_clust_8="13000.00000" pt_clust_9="95.07920"></scales>
<clustering>
<clus scale="   91.745">  7  8 -1 -1</clus>
<clus scale="   93.037">  5  6 -1 -1</clus>
<clus scale="   95.079">  2  9  1 -1</clus>
<clus scale="  134.989">  2  7  1 -1</clus>
<clus scale="   95.079">  2  5  1 -1</clus>
</clustering>
</event>
<event>
 9    1  0.1399746E-005  0.1001552E+03  0.7546771E-02  0.1281853E+00
         21   -1    0    0  501  502  0.00000000000E+00  0.00000000000E+00  0.54963582709E+02  0.54963582709E+02  0.00000000000E+00 0. -1.
         -3   -1    0    0    0  501 -0.00000000000E+00 -0.00000000000E+00 -0.37006408254E+03  0.37006408254E+03  0.00000000000E+00 0.  1.
         23    2    1    2    0    0 -0.26547932878E+02 -0.49978279217E+01 -0.21310255103E+03  0.23277074271E+03  0.89664655158E+02 0.  0.
         23    2    1    2    0    0  0.66932326639E+02 -0.18218841052E+02 -0.73671837998E+02  0.13773828782E+03  0.93447491674E+02 0.  0.
        -13    1    4    4    0    0 -0.84033544493E+01 -0.22871260047E+02  0.88315966557E+01  0.25917330141E+02  0.00000000000E+00 0.  1.
         13    1    4    4    0    0  0.75335681088E+02  0.46524189953E+01 -0.82503434654E+02  0.11182095768E+03  0.00000000000E+00 0. -1.
        -13    1    3    3    0    0 -0.48646024049E+01  0.37635151086E+02 -0.49818710187E+02  0.62625656392E+02  0.00000000000E+00 0. -1.
         13    1    3    3    0    0 -0.21683330473E+02 -0.42632979008E+02 -0.16328384084E+03  0.17014508632E+03  0.00000000000E+00 0.  1.
         -3    1    1    2    0  502 -0.40384393761E+02  0.23216668973E+02 -0.28326110807E+02  0.54518634715E+02  0.00000000000E+00 0.  1.
<scales pt_clust_5="13000.00000" pt_clust_6="13000.00000" pt_clust_7="13000.00000" pt_clust_8="13000.00000" pt_clust_9="46.58232"></scales>
<clustering>
<clus scale="   46.582">  1  9  2 -1</clus>
<clus scale="   89.665">  7  8 -1 -1</clus>
<clus scale="   93.447">  5  6 -1 -1</clus>
<clus scale="   96.635">  2  7  1 -1</clus>
<clus scale="   46.582">  1  5  2 -1</clus>
</clustering>
</event>
<event>
 9    1  0.1399746E-005  0.1618056E+03  0.7546771E-02  0.1202115E+00
          4   -1    0    0  502    0 -0.00000000000E+00  0.00000000000E+00  0.74181854082E+03  0.74181854082E+03  0.00000000000E+00 0. -1.
         21   -1    0    0  501  502  0.00000000000E+00 -0.00000000000E+00 -0.20155242773E+03  0.20155242773E+03  0.00000000000E+00 0. -1.
         23    2    1    2    0    0 -0.60105077582E+02  0.34327723751E+02  0.28680570968E+03  0.30912451776E+03  0.92246622744E+02 0.  0.
         23    2    1    2    0    0 -0.74293237871E+02 -0.67816292099E+02  0.40640988576E+03  0.42790223459E+03  0.88390002000E+02 0.  0.
        -11    1    3    3    0    0 -0.56816611882E+02 -0.10866101749E+02  0.22603560763E+03  0.23332015659E+03  0.00000000000E+00 0.  1.
         11    1    3    3    0    0 -0.32884657000E+01  0.45193825501E+02  0.60770102049E+02  0.75804361174E+02  0.00000000000E+00 0. -1.
        -13    1    4    4    0    0 -0.26074075438E+02  0.14213627700E+01  0.21417096237E+02  0.33772321408E+02  0.00000000000E+00 0.  1.
         13    1    4    4    0    0 -0.48219162433E+02 -0.69237654869E+02  0.38499278952E+03  0.39412991318E+03  0.00000000000E+00 0. -1.
          4    1    1    2  501    0  0.13439831545E+03  0.33488568348E+02 -0.15294948235E+03  0.20634421620E+03  0.00000000000E+00 0. -1.
<scales pt_clust_5="13000.00000" pt_clust_6="13000.00000" pt_clust_7="13000.00000" pt_clust_8="13000.00000" pt_clust_9="135.52951"></scales>
<clustering>
<clus scale="   88.390">  7  8 -1 -1</clus>
<clus scale="   92.247">  5  6 -1 -1</clus>
<clus scale="  115.328">  1  5  2 -1</clus>
<clus scale="  135.530">  2  9  1 -1</clus>
<clus scale="  135.530">  2  5  1 -1</clus>
</clustering>
</event>
<event>
 9    1  0.1399746E-005  0.1368086E+03  0.7546771E-02  0.1234278E+00
         21   -1    0    0  501  502  0.00000000000E+00  0.00000000000E+00  0.86521708882E+03  0.86521708882E+03  0.00000000000E+00 0. -1.
          2   -1    0    0  502    0 -0.00000000000E+00 -0.00000000000E+00 -0.33096048228E+02  0.33096048228E+02  0.00000000000E+00 0. -1.
         23    2    1    2    0    0  0.28182418777E+02  0.20041794942E+02  0.26604851547E+03  0.28314681660E+03  0.90522841849E+02 0.  0.
         23    2    1    2    0    0  0.33918548723E+02 -0.99009645748E+02  0.30762867742E+03  0.33788365954E+03  0.92609860767E+02 0.  0.
        -13    1    3    3    0    0 -0.16893613071E+02  0.41498484249E+02  0.15594912055E+03  0.16225796300E+03  0.00000000000E+00 0.  1.
         13    1    3    3    0    0  0.45076031848E+02 -0.21456689307E+02  0.11009939492E+03  0.12088885360E+03  0.00000000000E+00 0. -1.
        -13    1    4    4    0    0  0.93176307803E+01 -0.43095734233E+02  0.25015161556E+03  0.25400765996E+03  0.00000000000E+00 0.  1.
         13    1    4    4    0    0  0.24600917943E+02 -0.55913911515E+02  0.57477061866E+02  0.83875999579E+02  0.00000000000E+00 0. -1.
          2    1    1    2  501    0 -0.62100967500E+02  0.78967850806E+02  0.25844384770E+03  0.27728266091E+03  0.00000000000E+00 0. -1.
<scales pt_clust_5="13000.00000" pt_clust_6="13000.00000" pt_clust_7="13000.00000" pt_clust_8="13000.00000" pt_clust_9="100.69758"></scales>
<clustering>
<clus scale="   90.523">  5  6 -1 -1</clus>
<clus scale="   92.610">  7  8 -1 -1</clus>
<clus scale="   96.904">  2  5  1 -1</clus>
<clus scale="  100.698">  1  9  2 -1</clus>
<clus scale="  100.698">  1  5  2 -1</clus>
</clustering>
</event>
<event>
 9    1  0.1399746E-005  0.1229947E+03  0.7546771E-02  0.1239023E+00
         21   -1    0    0  501  502  0.00000000000E+00  0.00000000000E+00  0.12746732340E+03  0.12746732340E+03  0.00000000000E+00 0. -1.
          1   -1    0    0  502    0 -0.00000000000E+00 -0.00000000000E+00 -0.57260077147E+03  0.57260077147E+03  0.00000000000E+00 0. -1.
         23    2    1    2    0    0 -0.47608863840E+02  0.85982075832E+02 -0.28533653878E+03  0.31552162273E+03  0.92072975215E+02 0.  0.
         23    2    1    2    0    0  0.91256293991E+02  0.14589251952E+02 -0.22205885240E+03  0.25846618150E+03  0.94625977319E+02 0.  0.
        -11    1    3    3    0    0  0.78268089048E+01  0.57023304175E+02 -0.66630903215E+02  0.88048812711E+02  0.00000000000E+00 0. -1.
         11    1    3    3    0    0 -0.55435672745E+02  0.28958771657E+02 -0.21870563556E+03  0.22747281002E+03  0.00000000000E+00 0.  1.
        -13    1    4    4    0    0  0.32978117629E+01  0.27630702284E+02 -0.11963726501E+03  0.12283080416E+03  0.00000000000E+00 0. -1.
         13    1    4    4    0    0  0.87958482229E+02 -0.13041450332E+02 -0.10242158739E+03  0.13563537734E+03  0.00000000000E+00 0.  1.
          1    1    1    2  501    0 -0.43647430151E+02 -0.10057132778E+03  0.62261943110E+02  0.12608029065E+03  0.00000000000E+00 0. -1.
<scales pt_clust_5="13000.00000" pt_clust_6="13000.00000" pt_clust_7="13000.00000" pt_clust_8="13000.00000" pt_clust_9="109.63435"></scales>
<clustering>
<clus scale="   92.073">  5  6 -1 -1</clus>
<clus scale="   94.626">  7  8 -1 -1</clus>
<clus scale="  109.634">  1  9  2 -1</clus>
<clus scale="  121.042">  2  5  1 -1</clus>
<clus scale="  109.634">  1  5  2 -1</clus>
</clustering>
</event>
<event>
 9    1  0.1399746E-005  0.9310786E+02  0.7546771E-02  0.1304084E+00
         21   -1    0    0  501  502  0.00000000000E+00  0.00000000000E+00  0.79374189122E+02  0.79374189122E+02  0.00000000000E+00 0.  1.
         -1   -1    0    0    0  501 -0.00000000000E+00 -0.00000000000E+00 -0.26541614246E+03  0.26541614246E+03  0.00000000000E+00 0.  1.
         23    2    1    2    0    0 -0.45327823523E+02  0.25795958812E+02 -0.62743732357E+02  0.11217280080E+03  0.76979985797E+02 0.  0.
         23    2    1    2    0    0 -0.27131017222E+02  0.17714347921E+02 -0.19114729788E+02  0.98462284027E+02  0.90992078024E+02 0.  0.
        -11    1    3    3    0    0 -0.25892022501E+02  0.19190924384E+01 -0.74747518177E+02  0.79128194840E+02  0.00000000000E+00 0. -1.
         11    1    3    3    0    0 -0.19435801022E+02  0.23876866373E+02  0.12003785820E+02  0.33044605962E+02  0.00000000000E+00 0.  1.
        -11    1    4    4    0    0 -0.39799718517E+02 -0.12826458799E+01 -0.47532126930E+02  0.62007788744E+02  0.00000000000E+00 0.  1.
         11    1    4    4    0    0  0.12668701294E+02  0.18996993800E+02  0.28417397142E+02  0.36454495282E+02  0.00000000000E+00 0. -1.
         -1    1    1    2    0  502  0.72458840745E+02 -0.43510306732E+02 -0.10418349119E+03  0.13415524675E+03  0.00000000000E+00 0.  1.
<scales pt_clust_5="13000.00000" pt_clust_6="13000.00000" pt_clust_7="13000.00000" pt_clust_8="13000.00000" pt_clust_9="84.51886"></scales>
<clustering>
<clus scale="   76.980">  5  6 -1 -1</clus>
<clus scale="   84.519">  1  9  2 -1</clus>
<clus scale="   79.470">  2  5  1 -1</clus>
<clus scale="   90.992">  7  8 -1 -1</clus>
<clus scale="   84.519">  1  5  2 -1</clus>
</clustering>
</event>
<event>
 9    1  0.1399746E-005  0.1388727E+03  0.7546771E-02  0.1214903E+00
         21   -1    0    0  501  502  0.00000000000E+00  0.00000000000E+00  0.46909382045E+03  0.46909382045E+03  0.00000000000E+00 0.  1.
          4   -1    0    0  502    0 -0.00000000000E+00 -0.00000000000E+00 -0.18345893842E+03  0.18345893842E+03  0.00000000000E+00 0. -1.
         23    2    1    2    0    0 -0.92905586319E+00  0.10887022965E+03 -0.13165211920E+03  0.19272953341E+03  0.89212120858E+02 0.  0.
         23    2    1    2    0    0 -0.53669751269E+02 -0.81208829435E+02  0.29046770500E+03  0.31900661886E+03  0.88985499081E+02 0.  0.
        -11    1    4    4    0    0  0.22978839918E+02 -0.92379987775E+01  0.79865474251E+02  0.83617352761E+02  0.00000000000E+00 0. -1.
         11    1    4    4    0    0 -0.76648591187E+02 -0.71970830657E+02  0.21060223075E+03  0.23538926610E+03  0.00000000000E+00 0.  1.
        -11    1    3    3    0    0  0.33170077811E+01  0.42019478627E+02  0.30817455703E+01  0.42262705551E+02  0.00000000000E+00 0.  1.
         11    1    3    3    0    0 -0.42460636443E+01  0.66850751027E+02 -0.13473386477E+03  0.15046682786E+03  0.00000000000E+00 0. -1.
          4    1    1    2  501    0  0.54598807132E+02 -0.27661400219E+02  0.12681929623E+03  0.14081660661E+03  0.00000000000E+00 0. -1.
<scales pt_clust_5="13000.00000" pt_clust_6="13000.00000" pt_clust_7="13000.00000" pt_clust_8="13000.00000" pt_clust_9="61.20607"></scales>
<clustering>
<clus scale="   61.206">  1  9  2 -1</clus>
<clus scale="   88.985">  5  6 -1 -1</clus>
<clus scale="   89.212">  7  8 -1 -1</clus>
<clus scale="  138.727">  1  5  2 -1</clus>
<clus scale="   61.206">  1  5  2 -1</clus>
</clustering>
</event>
<event>
 9    1  0.1399746E-005  0.2218117E+03  0.7546771E-02  0.1132976E+00
         21   -1    0    0  501  502  0.00000000000E+00  0.00000000000E+00  0.19330378614E+03  0.19330378614E+03  0.00000000000E+00 0. -1.
          1   -1    0    0  502    0 -0.00000000000E+00 -0.00000000000E+00 -0.51340897134E+03  0.51340897134E+03  0.00000000000E+00 0. -1.
         23    2    1    2    0    0 -0.10233636301E+03  0.14408786534E+03 -0.19883357905E+03  0.27932142267E+03  0.85156449380E+02 0.  0.
         23    2    1    2    0    0  0.84112820740E+02 -0.26129625502E+03 -0.10492331286E+03  0.30765340933E+03  0.91055033844E+02 0.  0.
        -13    1    3    3    0    0 -0.10757652461E+03  0.10061554460E+03 -0.12364903678E+03  0.19231557596E+03  0.00000000000E+00 0.  1.
         13    1    3    3    0    0  0.52401616002E+01  0.43472320736E+02 -0.75184542272E+02  0.87005846702E+02  0.00000000000E+00 0. -1.
        -13    1    4    4    0    0  0.39963924170E+02 -0.75359540425E+02  0.80046034756E+01  0.85675254566E+02  0.00000000000E+00 0.  1.
         13    1    4    4    0    0  0.44148896570E+02 -0.18593671460E+03 -0.11292791634E+03  0.22197815477E+03  0.00000000000E+00 0. -1.
          1    1    1    2  501    0  0.18223542265E+02  0.11720838968E+03 -0.16348293290E+02  0.11973792548E+03  0.00000000000E+00 0. -1.
<scales pt_clust_5="13000.00000" pt_clust_6="13000.00000" pt_clust_7="13000.00000" pt_clust_8="13000.00000" pt_clust_9="118.61663"></scales>
<clustering>
<clus scale="   85.156">  5  6 -1 -1</clus>
<clus scale="   91.055">  7  8 -1 -1</clus>
<clus scale="  118.617">  1  9  2 -1</clus>
<clus scale="  219.456">  2  5  1 -1</clus>
<clus scale="  118.617">  1  5  2 -1</clus>
</clustering>
</event>
<event>
 9    1  0.1399746E-005  0.2448430E+03  0.7546771E-02  0.1116729E+00
         -2   -1    0    0    0  501 -0.00000000000E+00  0.00000000000E+00  0.23022492729E+03  0.23022492729E+03  0.00000000000E+00 0.  1.
         21   -1    0    0  501  502  0.00000000000E+00 -0.00000000000E+00 -0.63609023044E+03  0.63609023044E+03  0.00000000000E+00 0.  1.
         23    2    1    2    0    0  0.22386545048E+03 -0.30405564241E+02 -0.16637261659E+02  0.24396238334E+03  0.90557207081E+02 0.  0.
         23    2    1    2    0    0 -0.22963375829E+03 -0.36760486271E+02 -0.24551886019E+02  0.25149801835E+03  0.92549780261E+02 0.  0.
        -13    1    3    3    0    0  0.19347855907E+03 -0.46497151045E+02  0.11807374726E+02  0.19933728195E+03  0.00000000000E+00 0.  1.
         13    1    3    3    0    0  0.30386891406E+02  0.16091586804E+02 -0.28444636385E+02  0.44625101392E+02  0.00000000000E+00 0. -1.
        -13    1    4    4    0    0 -0.62001502308E+02 -0.47708955772E+02  0.13149567195E+02  0.79329955671E+02  0.00000000000E+00 0. -1.
         13    1    4    4    0    0 -0.16763225599E+03  0.10948469501E+02 -0.37701453214E+02  0.17216806268E+03  0.00000000000E+00 0.  1.
         -2    1    1    2    0  502  0.57683078156E+01  0.67166050512E+02 -0.36467615547E+03  0.37085475605E+03  0.00000000000E+00 0.  1.
<scales pt_clust_5="13000.00000" pt_clust_6="13000.00000" pt_clust_7="13000.00000" pt_clust_8="13000.00000" pt_clust_9="67.41329"></scales>
<clustering>
<clus scale="   67.413">  2  9  1 -1</clus>
<clus scale="   90.557">  5  6 -1 -1</clus>
<clus scale="   92.550">  7  8 -1 -1</clus>
<clus scale="  244.097">  1  5  2 -1</clus>
<clus scale="   67.413">  2  5  1 -1</clus>
</clustering>
</event>
<event>
 9    1  0.1399746E-005  0.1026206E+03  0.7546771E-02  0.1275629E+00
          2   -1    0    0  502    0 -0.00000000000E+00  0.00000000000E+00  0.27123627687E+03  0.27123627687E+03  0.00000000000E+00 0. -1.
         21   -1    0    0  501  502  0.00000000000E+00 -0.00000000000E+00 -0.56303781433E+02  0.56303781433E+02  0.00000000000E+00 0.  1.
         23    2    1    2    0    0  0.50501706444E+02  0.20481888642E+02  0.15657351901E+03  0.18918110099E+03  0.91127888161E+02 0.  0.
         23    2    1    2    0    0 -0.36081199009E+02 -0.49395004790E+01  0.64653739267E+02  0.11624242721E+03  0.89475942553E+02 0.  0.
        -11    1    3    3    0    0  0.30980196455E+02 -0.32615648635E+02  0.42669914340E+02  0.62002215267E+02  0.00000000000E+00 0. -1.
         11    1    3    3    0    0  0.19521509989E+02  0.53097537277E+02  0.11390360467E+03  0.12717888572E+03  0.00000000000E+00 0.  1.
        -13    1    4    4    0    0 -0.11360567735E+02  0.41685143698E+02  0.22577660090E+02  0.48748994241E+02  0.00000000000E+00 0.  1.
         13    1    4    4    0    0 -0.24720631274E+02 -0.46624644177E+02  0.42076079177E+02  0.67493432970E+02  0.00000000000E+00 0. -1.
          2    1    1    2  501    0 -0.14420507435E+02 -0.15542388163E+02 -0.62947628401E+01  0.22116530101E+02  0.00000000000E+00 0. -1.
<scales pt_clust_5="13000.00000" pt_clust_6="13000.00000" pt_clust_7="13000.00000" pt_clust_8="13000.00000" pt_clust_9="21.20181"></scales>
<clustering>
<clus scale="   21.202">  2  9  1 -1</clus>
<clus scale="   89.476">  7  8 -1 -1</clus>
<clus scale="   91.128">  5  6 -1 -1</clus>
<clus scale="  101.157">  2  7  1 -1</clus>
<clus scale="   21.202">  2  5  1 -1</clus>
</clustering>
</event>
<event>
 9    1  0.1399746E-005  0.1132884E+03  0.7546771E-02  0.1258510E+00
         21   -1    0    0  501  502  0.00000000000E+00  0.00000000000E+00  0.29944655636E+02  0.29944655636E+02  0.00000000000E+00 0.  1.
         -1   -1    0    0    0  501 -0.00000000000E+00 -0.00000000000E+00 -0.65690105746E+03  0.65690105746E+03  0.00000000000E+00 0.  1.
         23    2    1    2    0    0 -0.10772344104E+02 -0.38601376039E+02 -0.31456880452E+03  0.32996614163E+03  0.91203137093E+02 0.  0.
         23    2    1    2    0    0  0.42990465627E+02  0.60562009762E+02 -0.27801528932E+03  0.30490138042E+03  0.10077903317E+03 0.  0.
        -11    1    4    4    0    0  0.42160918645E+02 -0.15385029952E+02 -0.14433140288E+03  0.15114825855E+03  0.00000000000E+00 0. -1.
         11    1    4    4    0    0  0.82954698204E+00  0.75947039715E+02 -0.13368388645E+03  0.15375312187E+03  0.00000000000E+00 0.  1.
        -13    1    3    3    0    0 -0.45613449920E+02 -0.14084947407E+02 -0.23407646036E+03  0.23889487615E+03  0.00000000000E+00 0. -1.
         13    1    3    3    0    0  0.34841105817E+02 -0.24516428631E+02 -0.80492344157E+02  0.91071265475E+02  0.00000000000E+00 0.  1.
         -1    1    1    2    0  502 -0.32218121523E+02 -0.21960633724E+02 -0.34372307984E+02  0.51978191044E+02  0.00000000000E+00 0.  1.
<scales pt_clust_5="13000.00000" pt_clust_6="13000.00000" pt_clust_7="13000.00000" pt_clust_8="13000.00000" pt_clust_9="38.99073"></scales>
<clustering>
<clus scale="   38.991">  1  9  2 -1</clus>
<clus scale="   91.203">  7  8 -1 -1</clus>
<clus scale="  100.779">  5  6 -1 -1</clus>
<clus scale="  104.861">  2  7  1 -1</clus>
<clus scale="   38.991">  1  5  2 -1</clus>
</clustering>
</event>
<event>
 9    1  0.1399746E-005  0.1366106E+03  0.7546771E-02  0.1218271E+00
          1   -1    0    0  502    0 -0.00000000000E+00  0.00000000000E+00  0.42858103799E+03  0.42858103799E+03  0.00000000000E+00 0. -1.
         21   -1    0    0  501  502  0.00000000000E+00 -0.00000000000E+00 -0.10909897176E+03  0.10909897176E+03  0.00000000000E+00 0.  1.
         23    2    1    2    0    0 -0.56520578685E+02 -0.76243782280E+02  0.28447895152E+03  0.31358047168E+03  0.91633772217E+02 0.  0.
         23    2    1    2    0    0  0.95708991159E+02  0.10058178779E+03 -0.91673405040E+00  0.16563325960E+03  0.90314059045E+02 0.  0.
        -11    1    4    4    0    0  0.57957191421E+02  0.41202991846E+01  0.16933500900E+02  0.60520710137E+02  0.00000000000E+00 0.  1.
         11    1    4    4    0    0  0.37751799738E+02  0.96461488601E+02 -0.17850234950E+02  0.10511254946E+03  0.00000000000E+00 0. -1.
        -13    1    3    3    0    0 -0.55631954101E+02 -0.13388235185E+02  0.20157295526E+03  0.20953714575E+03  0.00000000000E+00 0.  1.
         13    1    3    3    0    0 -0.88862458455E+00 -0.62855547095E+02  0.82905996262E+02  0.10404332593E+03  0.00000000000E+00 0. -1.
          1    1    1    2  501    0 -0.39188412474E+02 -0.24338005505E+02  0.35919848761E+02  0.58466278479E+02  0.00000000000E+00 0. -1.
<scales pt_clust_5="13000.00000" pt_clust_6="13000.00000" pt_clust_7="13000.00000" pt_clust_8="13000.00000" pt_clust_9="46.13103"></scales>
<clustering>
<clus scale="   46.131">  2  9  1 -1</clus>
<clus scale="   90.314">  5  6 -1 -1</clus>
<clus scale="   91.634">  7  8 -1 -1</clus>
<clus scale="  135.729">  2  5  1 -1</clus>
<clus scale="   46.131">  2  5  1 -1</clus>
</clustering>
</event>
<event>
 9    1  0.1399746E-005  0.1127450E+03  0.7546771E-02  0.1255624E+00
          3   -1    0    0  502    0 -0.00000000000E+00  0.00000000000E+00  0.44271841412E+03  0.44271841412E+03  0.00000000000E+00 0. -1.
         21   -1    0    0  501  502  0.00000000000E+00 -0.00000000000E+00 -0.35300034831E+02  0.35300034831E+02  0.00000000000E+00 0.  1.
         23    2    1    2    0    0 -0.62168825440E+01  0.57891046804E+02  0.19409015106E+03  0.22182260044E+03  0.90245533956E+02 0.  0.
         23    2    1    2    0    0  0.12478383414E+02 -0.78474030098E+02  0.18053106290E+03  0.21697188074E+03  0.90396066866E+02 0.  0.
        -11    1    4    4    0    0  0.31803785378E+02  0.51049387329E+01  0.31730164519E+02  0.45214428054E+02  0.00000000000E+00 0. -1.
         11    1    4    4    0    0 -0.19325401964E+02 -0.83578968831E+02  0.14880089838E+03  0.17175745268E+03  0.00000000000E+00 0.  1.
        -13    1    3    3    0    0 -0.47295698793E+02  0.35650378997E+02  0.12628656368E+03  0.13948522794E+03  0.00000000000E+00 0.  1.
         13    1    3    3    0    0  0.41078816249E+02  0.22240667807E+02  0.67803587378E+02  0.82337372500E+02  0.00000000000E+00 0. -1.
          3    1    1    2  501    0 -0.62615008701E+01  0.20582983294E+02  0.32797165326E+02  0.39223967773E+02  0.00000000000E+00 0. -1.
<scales pt_clust_5="13000.00000" pt_clust_6="13000.00000" pt_clust_7="13000.00000" pt_clust_8="13000.00000" pt_clust_9="21.51431"></scales>
<clustering>
<clus scale="   21.514">  2  9  1 -1</clus>
<clus scale="   90.246">  7  8 -1 -1</clus>
<clus scale="   90.396">  5  6 -1 -1</clus>
<clus scale="  112.624">  1  7  2 -1</clus>
<clus scale="   21.514">  2  5  1 -1</clus>
</clustering>
</event>
<event>
 9    1  0.1399746E-005  0.1073783E+03  0.7546771E-02  0.1266640E+00
         21   -1    0    0  501  502  0.00000000000E+00  0.00000000000E+00  0.93346993994E+02  0.93346993994E+02  0.00000000000E+00 0. -1.
         -3   -1    0    0    0  501 -0.00000000000E+00 -0.00000000000E+00 -0.20008616534E+03  0.20008616534E+03  0.00000000000E+00 0.  1.
         23    2    1    2    0    0  0.21721526240E+02  0.35544716594E+02 -0.63116959032E+02  0.11895058509E+03  0.91816336220E+02 0.  0.
         23    2    1    2    0    0 -0.24467909363E+02 -0.56147256113E+02 -0.76108854282E+02  0.13591588965E+03  0.94495388249E+02 0.  0.
        -11    1    3    3    0    0 -0.10962231866E+02  0.59241686643E+02 -0.41494602468E+02  0.73154288991E+02  0.00000000000E+00 0.  1.
         11    1    3    3    0    0  0.32683758106E+02 -0.23696970048E+02 -0.21622356564E+02  0.45796296104E+02  0.00000000000E+00 0. -1.
        -13    1    4    4    0    0  0.50843251039E+01 -0.52150751773E+02 -0.89117927708E+02  0.10338063799E+03  0.00000000000E+00 0.  1.
         13    1    4    4    0    0 -0.29552234467E+02 -0.39965043402E+01  0.13009073425E+02  0.32535251656E+02  0.00000000000E+00 0. -1.
         -3    1    1    2    0  502  0.27463831231E+01  0.20602539519E+02  0.32486641964E+02  0.38566684599E+02  0.00000000000E+00 0.  1.
<scales pt_clust_5="13000.00000" pt_clust_6="13000.00000" pt_clust_7="13000.00000" pt_clust_8="13000.00000" pt_clust_9="20.78478"></scales>
<clustering>
<clus scale="   20.785">  1  9  2 -1</clus>
<clus scale="   91.816">  5  6 -1 -1</clus>
<clus scale="   94.495">  7  8 -1 -1</clus>
<clus scale="  105.028">  2  5  1 -1</clus>
<clus scale="   20.785">  1  5  2 -1</clus>
</clustering>
</event>
<event>
 9    1  0.1399746E-005  0.1416065E+03  0.7546771E-02  0.1212041E+00
          1   -1    0    0  502    0 -0.00000000000E+00  0.00000000000E+00  0.18751835460E+03  0.18751835460E+03  0.00000000000E+00 0. -1.
         21   -1    0    0  501  502  0.00000000000E+00 -0.00000000000E+00 -0.26501621588E+03  0.26501621588E+03  0.00000000000E+00 0.  1.
         23    2    1    2    0    0  0.46261438363E+02 -0.10652993938E+03  0.12051658241E+03  0.18892467232E+03  0.87632964751E+02 0.  0.
         23    2    1    2    0    0 -0.34299377553E+02  0.86918866993E+02 -0.92745015010E+02  0.15586326168E+03  0.83428902616E+02 0.  0.
        -13    1    4    4    0    0  0.42732425420E+01  0.67228100222E+02 -0.18412486095E+02  0.69834788648E+02  0.00000000000E+00 0. -1.
         13    1    4    4    0    0 -0.38572620095E+02  0.19690766771E+02 -0.74332528915E+02  0.86028473030E+02  0.00000000000E+00 0.  1.
        -13    1    3    3    0    0 -0.14618401106E+02 -0.27458051919E+02 -0.16853709419E+01  0.31152571985E+02  0.00000000000E+00 0.  1.
         13    1    3    3    0    0  0.60879839469E+02 -0.79071887462E+02  0.12220195335E+03  0.15777210033E+03  0.00000000000E+00 0. -1.
          1    1    1    2  501    0 -0.11962060810E+02  0.19611072387E+02 -0.10526942868E+03  0.10774663648E+03  0.00000000000E+00 0. -1.
<scales pt_clust_5="13000.00000" pt_clust_6="13000.00000" pt_clust_7="13000.00000" pt_clust_8="13000.00000" pt_clust_9="22.97140"></scales>
<clustering>
<clus scale="   22.971">  2  9  1 -1</clus>
<clus scale="   83.429">  5  6 -1 -1</clus>
<clus scale="   87.633">  7  8 -1 -1</clus>
<clus scale="  139.044">  2  5  1 -1</clus>
<clus scale="   22.971">  2  5  1 -1</clus>
</clustering>
</event>
<event>
 9    1  0.1399746E-005  0.1039297E+03  0.7546771E-02  0.1273209E+00
         -1   -1    0    0    0  501 -0.00000000000E+00  0.00000000000E+00  0.14167329159E+03  0.14167329159E+03  0.00000000000E+00 0.  1.
         21   -1    0    0  501  502  0.00000000000E+00 -0.00000000000E+00 -0.15991618520E+03  0.15991618520E+03  0.00000000000E+00 0.  1.
         23    2    1    2    0    0 -0.40996695957E+02 -0.24233557925E+01  0.67252775172E+02  0.11986282841E+03  0.90319212420E+02 0.  0.
         23    2    1    2    0    0  0.63707311862E+02  0.69428095684E+01 -0.22675247584E+02  0.11477440529E+03  0.92477959897E+02 0.  0.
        -13    1    3    3    0    0 -0.25155138377E+02  0.27363036562E+02  0.76353591269E+02  0.84919889639E+02  0.00000000000E+00 0. -1.
         13    1    3    3    0    0 -0.15841557580E+02 -0.29786392354E+02 -0.91008160962E+01  0.34942938766E+02  0.00000000000E+00 0.  1.
        -13    1    4    4    0    0  0.26728316325E+02 -0.24549500715E+02  0.27049756788E+02  0.45263343019E+02  0.00000000000E+00 0.  1.
         13    1    4    4    0    0  0.36978995538E+02  0.31492310283E+02 -0.49725004372E+02  0.69511062269E+02  0.00000000000E+00 0. -1.
         -1    1    1    2    0  502 -0.22710615905E+02 -0.45194537759E+01 -0.62820421198E+02  0.66952243105E+02  0.00000000000E+00 0.  1.
<scales pt_clust_5="13000.00000" pt_clust_6="13000.00000" pt_clust_7="13000.00000" pt_clust_8="13000.00000" pt_clust_9="23.15594"></scales>
<clustering>
<clus scale="   23.156">  2  9  1 -1</clus>
<clus scale="   90.319">  5  6 -1 -1</clus>
<clus scale="   92.478">  7  8 -1 -1</clus>
<clus scale="  102.014">  1  5  2 -1</clus>
<clus scale="   23.156">  2  5  1 -1</clus>
</clustering>
</event>
<event>
 9    1  0.1399746E-005  0.1489108E+03  0.7546771E-02  0.1202029E+00
         21   -1    0    0  501  502  0.00000000000E+00  0.00000000000E+00  0.77921260828E+02  0.77921260828E+02  0.00000000000E+00 0.  1.
          1   -1    0    0  502    0 -0.00000000000E+00 -0.00000000000E+00 -0.62793659306E+03  0.62793659306E+03  0.00000000000E+00 0. -1.
         23    2    1    2    0    0  0.32942386864E+02  0.14198823060E+03 -0.41344575015E+03  0.44791917652E+03  0.91914862259E+02 0.  0.
         23    2    1    2    0    0 -0.42812612990E+02 -0.41051869124E+02 -0.33935064457E+02  0.11364933389E+03  0.90809728026E+02 0.  0.
        -11    1    4    4    0    0 -0.40896431328E+02  0.50773146796E+01 -0.49973602040E+02  0.64773899995E+02  0.00000000000E+00 0. -1.
         11    1    4    4    0    0 -0.19161816619E+01 -0.46129183804E+02  0.16038537582E+02  0.48875433894E+02  0.00000000000E+00 0.  1.
        -11    1    3    3    0    0 -0.30031150093E+02  0.39139458789E+02 -0.88572797370E+02  0.10138494782E+03  0.00000000000E+00 0. -1.
         11    1    3    3    0    0  0.62973536957E+02  0.10284877181E+03 -0.32487295278E+03  0.34653422871E+03  0.00000000000E+00 0.  1.
          1    1    1    2  501    0  0.98702261267E+01 -0.10093636147E+03 -0.10263451763E+03  0.14428934347E+03  0.00000000000E+00 0. -1.
<scales pt_clust_5="13000.00000" pt_clust_6="13000.00000" pt_clust_7="13000.00000" pt_clust_8="13000.00000" pt_clust_9="101.41780"></scales>
<clustering>
<clus scale="   90.810">  5  6 -1 -1</clus>
<clus scale="   91.915">  7  8 -1 -1</clus>
<clus scale="  101.418">  1  9  2 -1</clus>
<clus scale="  148.231">  1  5  2 -1</clus>
<clus scale="  101.418">  1  5  2 -1</clus>
</clustering>
</event>
<event>
 9    1  0.1399746E-005  0.9337585E+02  0.7546771E-02  0.1294945E+00
         21   -1    0    0  501  502  0.00000000000E+00  0.00000000000E+00  0.28153217727E+02  0.28153217727E+02  0.00000000000E+00 0. -1.
         -1   -1    0    0    0  501 -0.00000000000E+00 -0.00000000000E+00 -0.51856189843E+03  0.51856189843E+03  0.00000000000E+00 0.  1.
         23    2    1    2    0    0 -0.45693164061E+02 -0.11100304068E+02 -0.24842304977E+03  0.26833551606E+03  0.89882453957E+02 0.  0.
         23    2    1    2    0    0  0.21473430477E+00 -0.12221377897E+01 -0.16965800565E+03  0.19205801806E+03  0.90005020348E+02 0.  0.
        -11    1    3    3    0    0 -0.23999750694E+02 -0.49403579253E+02 -0.16663825234E+03  0.17545657246E+03  0.00000000000E+00 0.  1.
         11    1    3    3    0    0 -0.21693413367E+02  0.38303275185E+02 -0.81784797429E+02  0.92878943598E+02  0.00000000000E+00 0. -1.
        -11    1    4    4    0    0  0.43961575777E+02  0.91739738561E+01 -0.90126132761E+02  0.10069509297E+03  0.00000000000E+00 0.  1.
         11    1    4    4    0    0 -0.43746841472E+02 -0.10396111646E+02 -0.79531872893E+02  0.91362925095E+02  0.00000000000E+00 0. -1.
         -1    1    1    2    0  502  0.45478429756E+02  0.12322441858E+02 -0.72327625276E+02  0.86321582032E+02  0.00000000000E+00 0.  1.
<scales pt_clust_5="13000.00000" pt_clust_6="13000.00000" pt_clust_7="13000.00000" pt_clust_8="13000.00000" pt_clust_9="47.11826"></scales>
<clustering>
<clus scale="   47.118">  1  9  2 -1</clus>
<clus scale="   89.882">  5  6 -1 -1</clus>
<clus scale="   90.005">  7  8 -1 -1</clus>
<clus scale="   93.258">  2  5  1 -1</clus>
<clus scale="   47.118">  1  5  2 -1</clus>
</clustering>
</event>
<event>
 9    1  0.1399746E-005  0.1270354E+03  0.7546771E-02  0.1232271E+00
          1   -1    0    0  502    0 -0.00000000000E+00  0.00000000000E+00  0.54558188357E+03  0.54558188357E+03  0.00000000000E+00 0. -1.
         21   -1    0    0  501  502  0.00000000000E+00 -0.00000000000E+00 -0.96212249932E+02  0.96212249932E+02  0.00000000000E+00 0. -1.
         23    2    1    2    0    0 -0.68694687346E+02 -0.39425725251E+02  0.19498088717E+03  0.22970396233E+03  0.92048987327E+02 0.  0.
         23    2    1    2    0    0  0.30473234577E+01  0.12613501891E+03  0.26029176623E+03  0.30317312184E+03  0.90789917174E+02 0.  0.
        -11    1    4    4    0    0 -0.30735779090E+02  0.43287936512E+02  0.43467339521E+02  0.68614453061E+02  0.00000000000E+00 0.  1.
         11    1    4    4    0    0  0.33783102548E+02  0.82847082401E+02  0.21682442671E+03  0.23455866877E+03  0.00000000000E+00 0. -1.
        -13    1    3    3    0    0 -0.83572284505E+02 -0.14113205355E+02  0.17422660497E+03  0.19374833981E+03  0.00000000000E+00 0. -1.
         13    1    3    3    0    0  0.14877597159E+02 -0.25312519896E+02  0.20754282202E+02  0.35955622515E+02  0.00000000000E+00 0.  1.
          1    1    1    2  501    0  0.65647363889E+02 -0.86709293662E+02 -0.59030197639E+01  0.10891704933E+03  0.00000000000E+00 0. -1.
<scales pt_clust_5="13000.00000" pt_clust_6="13000.00000" pt_clust_7="13000.00000" pt_clust_8="13000.00000" pt_clust_9="108.75697"></scales>
<clustering>
<clus scale="   90.790">  5  6 -1 -1</clus>
<clus scale="   92.049">  7  8 -1 -1</clus>
<clus scale="  108.757">  2  9  1 -1</clus>
<clus scale="  126.126">  2  5  1 -1</clus>
<clus scale="  108.757">  2  5  1 -1</clus>
</clustering>
</event>
<event>
 9    1  0.1399746E-005  0.9128082E+02  0.7546771E-02  0.1301671E+00
         -1   -1    0    0    0  501 -0.00000000000E+00  0.00000000000E+00  0.21989798258E+03  0.21989798258E+03  0.00000000000E+00 0.  1.
         21   -1    0    0  501  502  0.00000000000E+00 -0.00000000000E+00 -0.45626241748E+03  0.45626241748E+03  0.00000000000E+00 0.  1.
         23    2    1    2    0    0  0.13123780113E+02  0.22993511811E+02  0.13410718944E+03  0.16217277262E+03  0.87260155459E+02 0.  0.
         23    2    1    2    0    0 -0.93057186941E+01  0.61641011922E+02  0.22400116216E+02  0.11208492189E+03  0.90416003881E+02 0.  0.
        -11    1    4    4    0    0  0.24476765472E+02  0.68817283169E+02  0.25608850989E+02  0.77399895089E+02  0.00000000000E+00 0.  1.
         11    1    4    4    0    0 -0.33782484166E+02 -0.71762712475E+01 -0.32087347737E+01  0.34685026803E+02  0.00000000000E+00 0. -1.
        -11    1    3    3    0    0  0.15101088290E+02 -0.27857694135E+02  0.20641401286E+02  0.37817475288E+02  0.00000000000E+00 0.  1.
         11    1    3    3    0    0 -0.19773081763E+01  0.50851205946E+02  0.11346578815E+03  0.12435529733E+03  0.00000000000E+00 0. -1.
         -1    1    1    2    0  502 -0.38180614193E+01 -0.84634523733E+02 -0.39287174056E+03  0.40190270555E+03  0.00000000000E+00 0.  1.
<scales pt_clust_5="13000.00000" pt_clust_6="13000.00000" pt_clust_7="13000.00000" pt_clust_8="13000.00000" pt_clust_9="84.72060"></scales>
<clustering>
<clus scale="   84.721">  2  9  1 -1</clus>
<clus scale="   87.260">  7  8 -1 -1</clus>
<clus scale="   88.156">  1  7  2 -1</clus>
<clus scale="   90.416">  5  6 -1 -1</clus>
<clus scale="   84.721">  2  5  1 -1</clus>
</clustering>
</event>
<event>
 9    1  0.1399746E-005  0.1737636E+03  0.7546771E-02  0.1174403E+00
          1   -1    0    0  502    0 -0.00000000000E+00  0.00000000000E+00  0.84702767567E+03  0.84702767567E+03  0.00000000000E+00 0. -1.
         21   -1    0    0  501  502  0.00000000000E+00 -0.00000000000E+00 -0.49738092542E+02  0.49738092542E+02  0.00000000000E+00 0. -1.
         23    2    1    2    0    0 -0.11359527066E+03  0.85293460204E+02  0.50005105161E+03  0.52787427739E+03  0.91767851933E+02 0.  0.
         23    2    1    2    0    0  0.13365397854E+03 -0.84095748088E+02  0.29810408096E+03  0.34877842413E+03  0.88571243769E+02 0.  0.
        -11    1    4    4    0    0  0.11647954484E+03 -0.50883048402E+02  0.15288251241E+03  0.19882060150E+03  0.00000000000E+00 0. -1.
         11    1    4    4    0    0  0.17174433701E+02 -0.33212699686E+02  0.14522156856E+03  0.14995782263E+03  0.00000000000E+00 0.  1.
        -13    1    3    3    0    0 -0.53817633846E+02 -0.62115504454E+01  0.10733791706E+03  0.12023456038E+03  0.00000000000E+00 0. -1.
         13    1    3    3    0    0 -0.59777636816E+02  0.91505010650E+02  0.39271313455E+03  0.40763971701E+03  0.00000000000E+00 0.  1.
          1    1    1    2  501    0 -0.20058707875E+02 -0.11977121165E+01 -0.86554944557E+00  0.20113066692E+02  0.00000000000E+00 0. -1.
<scales pt_clust_5="13000.00000" pt_clust_6="13000.00000" pt_clust_7="13000.00000" pt_clust_8="13000.00000" pt_clust_9="20.09443"></scales>
<clustering>
<clus scale="   20.094">  2  9  1 -1</clus>
<clus scale="   88.571">  5  6 -1 -1</clus>
<clus scale="   91.768">  7  8 -1 -1</clus>
<clus scale="  172.097">  2  5  1 -1</clus>
<clus scale="   20.094">  2  5  1 -1</clus>
</clustering>
</event>
<event>
 9    1  0.1399746E-005  0.9327193E+02  0.7546771E-02  0.1296962E+00
         -2   -1    0    0    0  501 -0.00000000000E+00  0.00000000000E+00  0.11160016326E+03  0.11160016326E+03  0.00000000000E+00 0.  1.
         21   -1    0    0  501  502  0.00000000000E+00 -0.00000000000E+00 -0.25452008286E+03  0.25452008286E+03  0.00000000000E+00 0.  1.
         23    2    1    2    0    0  0.42206594148E+01 -0.95371090010E+01  0.57828771580E+02  0.10938874698E+03  0.92265707221E+02 0.  0.
         23    2    1    2    0    0  0.14290864541E+02  0.26843464202E+02 -0.55482518361E+02  0.10927151333E+03  0.89090703233E+02 0.  0.
        -11    1    3    3    0    0  0.43211653931E+02 -0.28479285671E+01  0.52989576270E+01  0.43628393100E+02  0.00000000000E+00 0. -1.
         11    1    3    3    0    0 -0.38990994516E+02 -0.66891804339E+01  0.52529813953E+02  0.65760353878E+02  0.00000000000E+00 0.  1.
        -13    1    4    4    0    0  0.34442612894E+02 -0.76776107014E+01 -0.59417031185E+02  0.69105881688E+02  0.00000000000E+00 0. -1.
         13    1    4    4    0    0 -0.20151748353E+02  0.34521074904E+02  0.39345128244E+01  0.40165631644E+02  0.00000000000E+00 0.  1.
         -2    1    1    2    0  502 -0.18511523955E+02 -0.17306355201E+02 -0.14526617282E+03  0.14745998581E+03  0.00000000000E+00 0.  1.
<scales pt_clust_5="13000.00000" pt_clust_6="13000.00000" pt_clust_7="13000.00000" pt_clust_8="13000.00000" pt_clust_9="25.34140"></scales>
<clustering>
<clus scale="   25.341">  2  9  1 -1</clus>
<clus scale="   89.091">  7  8 -1 -1</clus>
<clus scale="   90.132">  2  7  1 -1</clus>
<clus scale="   92.266">  5  6 -1 -1</clus>
<clus scale="   25.341">  2  5  1 -1</clus>
</clustering>
</event>
<event>
 9    1  0.1399746E-005  0.1036200E+03  0.7546771E-02  0.1278750E+00
         21   -1    0    0  501  502  0.00000000000E+00  0.00000000000E+00  0.42220124371E+03  0.42220124371E+03  0.00000000000E+00 0. -1.
         -1   -1    0    0    0  501 -0.00000000000E+00 -0.00000000000E+00 -0.41286933376E+02  0.41286933376E+02  0.00000000000E+00 0.  1.
         23    2    1    2    0    0 -0.24832645311E+02  0.37415367696E+01  0.10376085828E+03  0.14767577406E+03  0.10203508789E+03 0.  0.
         23    2    1    2    0    0 -0.84045503314E+00  0.31380729582E+02  0.12552268661E+03  0.15806396182E+03  0.90789947789E+02 0.  0.
        -11    1    3    3    0    0 -0.58891424360E+02 -0.12947962542E+02  0.36575435519E+02  0.70523840512E+02  0.00000000000E+00 0. -1.
         11    1    3    3    0    0  0.34058779049E+02  0.16689499311E+02  0.67185422765E+02  0.77151933544E+02  0.00000000000E+00 0.  1.
        -13    1    4    4    0    0  0.11802650458E+02  0.53709253814E+02  0.37963126358E+02  0.66822043264E+02  0.00000000000E+00 0.  1.
         13    1    4    4    0    0 -0.12643105491E+02 -0.22328524231E+02  0.87559560251E+02  0.91241918559E+02  0.00000000000E+00 0. -1.
         -1    1    1    2    0  502  0.25673100344E+02 -0.35122266352E+02  0.15163076545E+03  0.15774844121E+03  0.00000000000E+00 0.  1.
<scales pt_clust_5="13000.00000" pt_clust_6="13000.00000" pt_clust_7="13000.00000" pt_clust_8="13000.00000" pt_clust_9="43.50496"></scales>
<clustering>
<clus scale="   43.505">  1  9  2 -1</clus>
<clus scale="   90.790">  7  8 -1 -1</clus>
<clus scale="   92.568">  1  7  2 -1</clus>
<clus scale="  102.035">  5  6 -1 -1</clus>
<clus scale="   43.505">  1  5  2 -1</clus>
</clustering>
</event>
<event>
 9    1  0.1399746E-005  0.9058398E+02  0.7546771E-02  0.1301735E+00
          1   -1    0    0  502    0 -0.00000000000E+00  0.00000000000E+00  0.85788575443E+02  0.85788575443E+02  0.00000000000E+00 0. -1.
         21   -1    0    0  501  502  0.00000000000E+00 -0.00000000000E+00 -0.20176077504E+03  0.20176077504E+03  0.00000000000E+00 0.  1.
         23    2    1    2    0    0  0.74652943550E+01 -0.44958278344E+01  0.79021573844E+01  0.90079747026E+02  0.89308306698E+02 0.  0.
         23    2    1    2    0    0  0.37467909957E+02  0.29338475646E+02 -0.91664475001E+02  0.13685915471E+03  0.89796780683E+02 0.  0.
        -13    1    4    4    0    0  0.57516586736E+02 -0.34868043623E+00 -0.81259237228E+02  0.99555727925E+02  0.00000000000E+00 0.  1.
         13    1    4    4    0    0 -0.20048676779E+02  0.29687156082E+02 -0.10405237773E+02  0.37303426785E+02  0.00000000000E+00 0. -1.
        -13    1    3    3    0    0 -0.88458994106E+01 -0.44692735272E+02  0.10017105853E+02  0.46647968146E+02  0.00000000000E+00 0. -1.
         13    1    3    3    0    0  0.16311193766E+02  0.40196907438E+02 -0.21149484685E+01  0.43431778880E+02  0.00000000000E+00 0.  1.
          1    1    1    2  501    0 -0.44933204312E+02 -0.24842647811E+02 -0.32209881976E+02  0.60610448744E+02  0.00000000000E+00 0. -1.
<scales pt_clust_5="13000.00000" pt_clust_6="13000.00000" pt_clust_7="13000.00000" pt_clust_8="13000.00000" pt_clust_9="51.34345"></scales>
<clustering>
<clus scale="   51.343">  2  9  1 -1</clus>
<clus scale="   89.308">  7  8 -1 -1</clus>
<clus scale="   89.797">  5  6 -1 -1</clus>
<clus scale="   90.100">  1  7  2 -1</clus>
<clus scale="   51.343">  2  5  1 -1</clus>
</clustering>
</event>
<event>
 9    1  0.1399746E-005  0.1174714E+03  0.7546771E-02  0.1247605E+00
         21   -1    0    0  501  502  0.00000000000E+00  0.00000000000E+00  0.41395467162E+02  0.41395467162E+02  0.00000000000E+00 0. -1.
          2   -1    0    0  502    0 -0.00000000000E+00 -0.00000000000E+00 -0.74894055845E+03  0.74894055845E+03  0.00000000000E+00 0. -1.
         23    2    1    2    0    0  0.31860625522E+02  0.48909548894E+02 -0.31887394968E+03  0.33676901201E+03  0.91244332607E+02 0.  0.
         23    2    1    2    0    0 -0.45724943881E+02 -0.76714496951E+02 -0.40033240167E+03  0.42038088026E+03  0.92076968504E+02 0.  0.
        -13    1    3    3    0    0 -0.27573394962E+02  0.36958449904E+02 -0.16681371163E+03  0.17306944709E+03  0.00000000000E+00 0.  1.
         13    1    3    3    0    0  0.59434020484E+02  0.11951098989E+02 -0.15206023806E+03  0.16369956492E+03  0.00000000000E+00 0. -1.
        -13    1    4    4    0    0 -0.65977841367E+01 -0.87197291473E+02 -0.25942852520E+03  0.27377008252E+03  0.00000000000E+00 0. -1.
         13    1    4    4    0    0 -0.39127159744E+02  0.10482794522E+02 -0.14090387646E+03  0.14661079774E+03  0.00000000000E+00 0.  1.
          2    1    1    2  501    0  0.13864318358E+02  0.27804948058E+02  0.11661260060E+02  0.33186133342E+02  0.00000000000E+00 0. -1.
<scales pt_clust_5="13000.00000" pt_clust_6="13000.00000" pt_clust_7="13000.00000" pt_clust_8="13000.00000" pt_clust_9="31.06983"></scales>
<clustering>
<clus scale="   31.070">  1  9  2 -1</clus>
<clus scale="   91.244">  5  6 -1 -1</clus>
<clus scale="   92.077">  7  8 -1 -1</clus>
<clus scale="  116.820">  2  5  1 -1</clus>
<clus scale="   31.070">  1  5  2 -1</clus>
</clustering>
</event>
<event>
 9    1  0.1399746E-005  0.1151778E+03  0.7546771E-02  0.1256382E+00
         -1   -1    0    0    0  501 -0.00000000000E+00  0.00000000000E+00  0.44501091509E+03  0.44501091509E+03  0.00000000000E+00 0.  1.
         21   -1    0    0  501  502  0.00000000000E+00 -0.00000000000E+00 -0.46026335244E+02  0.46026335244E+02  0.00000000000E+00 0.  1.
         23    2    1    2    0    0 -0.34994862591E+02  0.53969510794E+02  0.29365509014E+03  0.31419916173E+03  0.91380811789E+02 0.  0.
         23    2    1    2    0    0  0.46377836821E+02 -0.74651449430E+02  0.76632313725E+02  0.13967839811E+03  0.76901240190E+02 0.  0.
        -11    1    4    4    0    0  0.23480428832E+02 -0.81055742660E+02  0.34232462723E+02  0.91067148085E+02  0.00000000000E+00 0.  1.
         11    1    4    4    0    0  0.22897407989E+02  0.64042932302E+01  0.42399851002E+02  0.48611250029E+02  0.00000000000E+00 0. -1.
        -11    1    3    3    0    0 -0.53958705645E+02  0.67892841112E+02  0.24989918058E+03  0.26451952715E+03  0.00000000000E+00 0.  1.
         11    1    3    3    0    0  0.18963843053E+02 -0.13923330318E+02  0.43755909559E+02  0.49679634578E+02  0.00000000000E+00 0. -1.
         -1    1    1    2    0  502 -0.11382974229E+02  0.20681938636E+02  0.28697175985E+02  0.37159690493E+02  0.00000000000E+00 0.  1.
<scales pt_clust_5="13000.00000" pt_clust_6="13000.00000" pt_clust_7="13000.00000" pt_clust_8="13000.00000" pt_clust_9="23.60751"></scales>
<clustering>
<clus scale="   23.608">  2  9  1 -1</clus>
<clus scale="   76.901">  5  6 -1 -1</clus>
<clus scale="   91.381">  7  8 -1 -1</clus>
<clus scale="  104.064">  2  5  1 -1</clus>
<clus scale="   23.608">  2  5  1 -1</clus>
</clustering>
</event>
<event>
 9    1  0.1399746E-005  0.9914813E+02  0.7546771E-02  0.1282437E+00
         21   -1    0    0  501  502  0.00000000000E+00  0.00000000000E+00  0.80989686628E+02  0.80989686628E+02  0.00000000000E+00 0. -1.
          2   -1    0    0  502    0 -0.00000000000E+00 -0.00000000000E+00 -0.39679558414E+03  0.39679558414E+03  0.00000000000E+00 0. -1.
         23    2    1    2    0    0 -0.56284724253E+01  0.18846889716E+02 -0.17396001569E+03  0.19772222715E+03  0.91897263825E+02 0.  0.
         23    2    1    2    0    0  0.34027697548E+02 -0.49034593695E+02 -0.18844433322E+03  0.21769935922E+03  0.91211121596E+02 0.  0.
        -13    1    4    4    0    0 -0.29684372302E+02 -0.97341401648E+01 -0.34644837864E+02  0.46649546990E+02  0.00000000000E+00 0.  1.
         13    1    4    4    0    0  0.63712069850E+02 -0.39300453530E+02 -0.15379949536E+03  0.17104981223E+03  0.00000000000E+00 0. -1.
        -13    1    3    3    0    0 -0.39701230584E+02 -0.13159527630E+02 -0.11568571254E+03  0.12301440958E+03  0.00000000000E+00 0.  1.
         13    1    3    3    0    0  0.34072758159E+02  0.32006417346E+02 -0.58274303148E+02  0.74707817578E+02  0.00000000000E+00 0. -1.
          2    1    1    2  501    0 -0.28399225122E+02  0.30187703979E+02  0.46598451395E+02  0.62363684396E+02  0.00000000000E+00 0. -1.
<scales pt_clust_5="13000.00000" pt_clust_6="13000.00000" pt_clust_7="13000.00000" pt_clust_8="13000.00000" pt_clust_9="41.44651"></scales>
<clustering>
<clus scale="   41.447">  1  9  2 -1</clus>
<clus scale="   91.211">  5  6 -1 -1</clus>
<clus scale="   91.897">  7  8 -1 -1</clus>
<clus scale="   98.513">  1  5  2 -1</clus>
<clus scale="   41.447">  1  5  2 -1</clus>
</clustering>
</event>
<event>
 9    1  0.1399746E-005  0.9950601E+02  0.7546771E-02  0.1281409E+00
          1   -1    0    0  502    0 -0.00000000000E+00  0.00000000000E+00  0.37845156290E+03  0.37845156290E+03  0.00000000000E+00 0. -1.
         21   -1    0    0  501  502  0.00000000000E+00 -0.00000000000E+00 -0.11015320322E+03  0.11015320322E+03  0.00000000000E+00 0. -1.
         23    2    1    2    0    0  0.93058348932E+01 -0.14839322217E+02  0.15270171073E+03  0.17885950202E+03  0.91466414366E+02 0.  0.
         23    2    1    2    0    0 -0.70985949225E+02  0.13232415790E+02  0.18385254495E+03  0.21773501472E+03  0.91611552410E+02 0.  0.
        -13    1    3    3    0    0  0.42249947878E+02 -0.51322299127E+01  0.31674205928E+02  0.53053305276E+02  0.00000000000E+00 0.  1.
         13    1    3    3    0    0 -0.32944112985E+02 -0.97070923040E+01  0.12102750480E+03  0.12580619674E+03  0.00000000000E+00 0. -1.
        -13    1    4    4    0    0 -0.64321787786E+02  0.38815790885E+02  0.17399306875E+03  0.18951924962E+03  0.00000000000E+00 0.  1.
         13    1    4    4    0    0 -0.66641614389E+01 -0.25583375095E+02  0.98594762045E+01  0.28215765096E+02  0.00000000000E+00 0. -1.
          1    1    1    2  501    0  0.61680114332E+02  0.16069064265E+01 -0.68255895996E+02  0.92010249378E+02  0.00000000000E+00 0. -1.
<scales pt_clust_5="13000.00000" pt_clust_6="13000.00000" pt_clust_7="13000.00000" pt_clust_8="13000.00000" pt_clust_9="61.70104"></scales>
<clustering>
<clus scale="   61.701">  2  9  1 -1</clus>
<clus scale="   91.466">  5  6 -1 -1</clus>
<clus scale="   91.612">  7  8 -1 -1</clus>
<clus scale="   99.372">  1  5  2 -1</clus>
<clus scale="   61.701">  2  5  1 -1</clus>
</clustering>
</event>
<event>
 9    1  0.1399746E-005  0.1039075E+03  0.7546771E-02  0.1273499E+00
         21   -1    0    0  501  502  0.00000000000E+00  0.00000000000E+00  0.86252683942E+02  0.86252683942E+02  0.00000000000E+00 0.  1.
          4   -1    0    0  502    0 -0.00000000000E+00 -0.00000000000E+00 -0.22137200989E+03  0.22137200989E+03  0.00000000000E+00 0. -1.
         23    2    1    2    0    0 -0.33896125949E+02 -0.10901062520E+02 -0.94725365701E+02  0.13679174789E+03  0.92039702660E+02 0.  0.
         23    2    1    2    0    0  0.57688842729E+02  0.51055854065E+02 -0.38646016771E+02  0.12412581627E+03  0.89325253104E+02 0.  0.
        -11    1    3    3    0    0 -0.13638375032E+02  0.38402430292E+02 -0.21082981193E+02  0.45882938243E+02  0.00000000000E+00 0. -1.
         11    1    3    3    0    0 -0.20257750918E+02 -0.49303492812E+02 -0.73642384508E+02  0.90908809649E+02  0.00000000000E+00 0.  1.
        -13    1    4    4    0    0  0.55418003851E+02  0.75347669485E+02 -0.29598048695E+02  0.98104387946E+02  0.00000000000E+00 0. -1.
         13    1    4    4    0    0  0.22708388783E+01 -0.24291815420E+02 -0.90479680758E+01  0.26021428322E+02  0.00000000000E+00 0.  1.
          4    1    1    2  501    0 -0.23792716780E+02 -0.40154791545E+02 -0.17479434758E+01  0.46707129672E+02  0.00000000000E+00 0. -1.
<scales pt_clust_5="13000.00000" pt_clust_6="13000.00000" pt_clust_7="13000.00000" pt_clust_8="13000.00000" pt_clust_9="46.67441"></scales>
<clustering>
<clus scale="   46.674">  1  9  2 -1</clus>
<clus scale="   89.325">  7  8 -1 -1</clus>
<clus scale="   92.040">  5  6 -1 -1</clus>
<clus scale="  101.511">  1  7  2 -1</clus>
<clus scale="   46.674">  1  5  2 -1</clus>
</clustering>
</event>
<event>
 9    1  0.1399746E-005  0.1340872E+03  0.7546771E-02  0.1221960E+00
         -3   -1    0    0    0  501 -0.00000000000E+00  0.00000000000E+00  0.42261152954E+03  0.42261152954E+03  0.00000000000E+00 0.  1.
         21   -1    0    0  501  502  0.00000000000E+00 -0.00000000000E+00 -0.83453298615E+02  0.83453298615E+02  0.00000000000E+00 0. -1.
         23    2    1    2    0    0  0.73041671011E+02  0.80792474064E+02  0.24276737862E+03  0.28045350148E+03  0.88632143144E+02 0.  0.
         23    2    1    2    0    0 -0.51767158055E+02 -0.68742267447E+02  0.13245620562E+03  0.18203929332E+03  0.90489335932E+02 0.  0.
        -11    1    4    4    0    0 -0.34740403748E+01 -0.63692057495E+02  0.34051105822E+02  0.72306465494E+02  0.00000000000E+00 0. -1.
         11    1    4    4    0    0 -0.48293117680E+02 -0.50502099522E+01  0.98405099803E+02  0.10973282783E+03  0.00000000000E+00 0.  1.
        -13    1    3    3    0    0  0.39444086188E+02  0.17406576853E+02  0.18012705972E+03  0.18521496293E+03  0.00000000000E+00 0.  1.
         13    1    3    3    0    0  0.33597584822E+02  0.63385897211E+02  0.62640318908E+02  0.95238538544E+02  0.00000000000E+00 0. -1.
         -3    1    1    2    0  502 -0.21274512955E+02 -0.12050206616E+02 -0.36065353319E+02  0.43572033359E+02  0.00000000000E+00 0.  1.
<scales pt_clust_5="13000.00000" pt_clust_6="13000.00000" pt_clust_7="13000.00000" pt_clust_8="13000.00000" pt_clust_9="24.45020"></scales>
<clustering>
<clus scale="   24.450">  2  9  1 -1</clus>
<clus scale="   88.632">  7  8 -1 -1</clus>
<clus scale="   90.489">  5  6 -1 -1</clus>
<clus scale="  132.841">  1  7  2 -1</clus>
<clus scale="   24.450">  2  5  1 -1</clus>
</clustering>
</event>
<event>
 9    1  0.1484580E-005  0.9678590E+02  0.7546771E-02  0.1288085E+00
         21   -1    0    0  501  502  0.00000000000E+00  0.00000000000E+00  0.54018278414E+02  0.54018278414E+02  0.00000000000E+00 0.  1.
         -2   -1    0    0    0  501 -0.00000000000E+00 -0.00000000000E+00 -0.40712178613E+03  0.40712178613E+03  0.00000000000E+00 0.  1.
         23    2    1    2    0    0 -0.27440189061E+02  0.65381362654E+01 -0.31033840202E+03  0.32486503500E+03  0.91824049137E+02 0.  0.
         23    2    1    2    0    0  0.33657619853E+02 -0.32795350508E+02 -0.39628169997E+02  0.10911001324E+03  0.90145619651E+02 0.  0.
        -13    1    3    3    0    0 -0.28349781315E+01  0.41016872103E+02 -0.23379892619E+03  0.23738651770E+03  0.00000000000E+00 0. -1.
         13    1    3    3    0    0 -0.24605210929E+02 -0.34478735837E+02 -0.76539475830E+02  0.87478517306E+02  0.00000000000E+00 0.  1.
        -13    1    4    4    0    0 -0.76286814880E+01  0.25062764300E+02  0.27746049760E+01  0.26344588977E+02  0.00000000000E+00 0. -1.
         13    1    4    4    0    0  0.41286301341E+02 -0.57858114808E+02 -0.42402774973E+02  0.82765424260E+02  0.00000000000E+00 0.  1.
         -2    1    1    2    0  502 -0.62174307924E+01  0.26257214242E+02 -0.31369357084E+01  0.27165016309E+02  0.00000000000E+00 0.  1.
<scales pt_clust_5="13000.00000" pt_clust_6="13000.00000" pt_clust_7="13000.00000" pt_clust_8="13000.00000" pt_clust_9="26.98329"></scales>
<clustering>
<clus scale="   26.983">  1  9  2 -1</clus>
<clus scale="   90.146">  7  8 -1 -1</clus>
<clus scale="   91.824">  5  6 -1 -1</clus>
<clus scale="   95.195">  1  7  2 -1</clus>
<clus scale="   26.983">  1  5  2 -1</clus>
</clustering>
</event>
<event>
 9    1  0.1399746E-005  0.1269580E+03  0.7546771E-02  0.1232603E+00
         -2   -1    0    0    0  501 -0.00000000000E+00  0.00000000000E+00  0.86747675340E+02  0.86747675340E+02  0.00000000000E+00 0.  1.
         21   -1    0    0  501  502  0.00000000000E+00 -0.00000000000E+00 -0.26403060808E+03  0.26403060808E+03  0.00000000000E+00 0. -1.
         23    2    1    2    0    0 -0.53972020203E+02 -0.70756289707E+02 -0.32425030271E+02  0.13197122482E+03  0.91899891706E+02 0.  0.
         23    2    1    2    0    0  0.71513676101E+02  0.41888482237E+02 -0.13380028116E+03  0.18326369088E+03  0.93884047319E+02 0.  0.
        -13    1    3    3    0    0 -0.38500389512E+02 -0.91590259886E+02 -0.36210389238E+02  0.10574614881E+03  0.00000000000E+00 0.  1.
         13    1    3    3    0    0 -0.15471630692E+02  0.20833970179E+02  0.37853589666E+01  0.26225076018E+02  0.00000000000E+00 0. -1.
        -13    1    4    4    0    0  0.52260854152E+02 -0.91286879666E+01 -0.19320827915E+02  0.56460820150E+02  0.00000000000E+00 0.  1.
         13    1    4    4    0    0  0.19252821949E+02  0.51017170204E+02 -0.11447945325E+03  0.12680287073E+03  0.00000000000E+00 0. -1.
         -2    1    1    2    0  502 -0.17541655898E+02  0.28867807470E+02 -0.11057621305E+02  0.35543367718E+02  0.00000000000E+00 0.  1.
<scales pt_clust_5="13000.00000" pt_clust_6="13000.00000" pt_clust_7="13000.00000" pt_clust_8="13000.00000" pt_clust_9="33.77960"></scales>
<clustering>
<clus scale="   33.780">  2  9  1 -1</clus>
<clus scale="   91.900">  5  6 -1 -1</clus>
<clus scale="   93.884">  7  8 -1 -1</clus>
<clus scale="  125.498">  1  5  2 -1</clus>
<clus scale="   33.780">  2  5  1 -1</clus>
</clustering>
</event>
<event>
 9    1  0.1399746E-005  0.1083517E+03  0.7546771E-02  0.1272287E+00
         21   -1    0    0  501  502  0.00000000000E+00  0.00000000000E+00  0.19555580733E+02  0.19555580733E+02  0.00000000000E+00 0.  1.
          2   -1    0    0  502    0 -0.00000000000E+00 -0.00000000000E+00 -0.74993025304E+03  0.74993025304E+03  0.00000000000E+00 0. -1.
         23    2    1    2    0    0 -0.52196030508E+02 -0.14523134852E+02 -0.41894751922E+03  0.42859012435E+03  0.72367974835E+02 0.  0.
         23    2    1    2    0    0  0.64305977484E+02 -0.79452791162E+01 -0.24934620341E+03  0.27377250364E+03  0.92625419801E+02 0.  0.
        -11    1    4    4    0    0 -0.19634142076E+02  0.15119345297E+02 -0.40076924551E+02  0.47119571504E+02  0.00000000000E+00 0. -1.
         11    1    4    4    0    0  0.83940119560E+02 -0.23064624413E+02 -0.20926927886E+03  0.22665293214E+03  0.00000000000E+00 0.  1.
        -13    1    3    3    0    0 -0.76006234826E+01 -0.37008094272E+02 -0.13082378171E+03  0.13616985856E+03  0.00000000000E+00 0.  1.
         13    1    3    3    0    0 -0.44595407025E+02  0.22484959420E+02 -0.28812373751E+03  0.29242026579E+03  0.00000000000E+00 0. -1.
          2    1    1    2  501    0 -0.12109946977E+02  0.22468413968E+02 -0.62080949669E+02  0.67123205777E+02  0.00000000000E+00 0. -1.
<scales pt_clust_5="13000.00000" pt_clust_6="13000.00000" pt_clust_7="13000.00000" pt_clust_8="13000.00000" pt_clust_9="25.52411"></scales>
<clustering>
<clus scale="   25.524">  1  9  2 -1</clus>
<clus scale="   72.368">  7  8 -1 -1</clus>
<clus scale="   91.639">  2  7  1 -1</clus>
<clus scale="   92.625">  5  6 -1 -1</clus>
<clus scale="   25.524">  1  5  2 -1</clus>
</clustering>
</event>
<event>
 9    1  0.1399746E-005  0.1083870E+03  0.7546771E-02  0.1265598E+00
          2   -1    0    0  502    0 -0.00000000000E+00  0.00000000000E+00  0.91784105961E+02  0.91784105961E+02  0.00000000000E+00 0. -1.
         21   -1    0    0  501  502  0.00000000000E+00 -0.00000000000E+00 -0.52653890840E+03  0.52653890840E+03  0.00000000000E+00 0. -1.
         23    2    1    2    0    0 -0.59102069344E+02  0.22264282525E+02 -0.83251064311E+01  0.10939853083E+03  0.88938058640E+02 0.  0.
         23    2    1    2    0    0 -0.32205080424E+01 -0.72093157674E+02 -0.57696873098E+02  0.13165678660E+03  0.93791178891E+02 0.  0.
        -11    1    4    4    0    0 -0.20561374017E+02  0.16331706822E+02 -0.34629658326E+01  0.26485597625E+02  0.00000000000E+00 0.  1.
         11    1    4    4    0    0  0.17340865975E+02 -0.88424864495E+02 -0.54233907266E+02  0.10517118898E+03  0.00000000000E+00 0. -1.
        -13    1    3    3    0    0 -0.17917110294E+02  0.54116891429E+02 -0.51007319900E+01  0.57233541268E+02  0.00000000000E+00 0.  1.
         13    1    3    3    0    0 -0.41184959049E+02 -0.31852608905E+02 -0.32243744411E+01  0.52164989566E+02  0.00000000000E+00 0. -1.
          2    1    1    2  501    0  0.62322577386E+02  0.49828875149E+02 -0.36873282291E+03  0.37726769692E+03  0.00000000000E+00 0. -1.
<scales pt_clust_5="13000.00000" pt_clust_6="13000.00000" pt_clust_7="13000.00000" pt_clust_8="13000.00000" pt_clust_9="79.79361"></scales>
<clustering>
<clus scale="   79.794">  2  9  1 -1</clus>
<clus scale="   88.938">  7  8 -1 -1</clus>
<clus scale="   93.791">  5  6 -1 -1</clus>
<clus scale="  104.216">  1  7  2 -1</clus>
<clus scale="   79.794">  2  5  1 -1</clus>
</clustering>
</event>
<event>
 9    1  0.1399746E-005  0.9768186E+02  0.7546771E-02  0.1287334E+00
          3   -1    0    0  502    0 -0.00000000000E+00  0.00000000000E+00  0.12182699924E+03  0.12182699924E+03  0.00000000000E+00 0. -1.
         21   -1    0    0  501  502  0.00000000000E+00 -0.00000000000E+00 -0.12553028890E+03  0.12553028890E+03  0.00000000000E+00 0. -1.
         23    2    1    2    0    0  0.17833215066E+02 -0.68454873593E+01  0.15299006849E+02  0.95527417273E+02  0.92339285158E+02 0.  0.
         23    2    1    2    0    0 -0.24532359071E+02  0.42491821227E+02  0.14938723474E+02  0.10215560704E+03  0.88347105660E+02 0.  0.
        -11    1    3    3    0    0 -0.16212777529E+02  0.23812458788E+02  0.35277637330E+02  0.45545571072E+02  0.00000000000E+00 0. -1.
         11    1    3    3    0    0  0.34045992595E+02 -0.30657946147E+02 -0.19978630481E+02  0.49981846201E+02  0.00000000000E+00 0.  1.
        -13    1    4    4    0    0 -0.12808887854E+02  0.66851800421E+02 -0.54635037982E+01  0.68286753484E+02  0.00000000000E+00 0. -1.
         13    1    4    4    0    0 -0.11723471217E+02 -0.24359979194E+02  0.20402227273E+02  0.33868853559E+02  0.00000000000E+00 0.  1.
          3    1    1    2  501    0  0.66991440050E+01 -0.35646333868E+02 -0.33941019984E+02  0.49674263821E+02  0.00000000000E+00 0. -1.
<scales pt_clust_5="13000.00000" pt_clust_6="13000.00000" pt_clust_7="13000.00000" pt_clust_8="13000.00000" pt_clust_9="36.27037"></scales>
<clustering>
<clus scale="   36.270">  2  9  1 -1</clus>
<clus scale="   88.347">  7  8 -1 -1</clus>
<clus scale="   92.339">  5  6 -1 -1</clus>
<clus scale="   93.917">  2  7  1 -1</clus>
<clus scale="   36.270">  2  5  1 -1</clus>
</clustering>
</event>
<event>
 9    1  0.1399746E-005  0.9489232E+02  0.7546771E-02  0.1291955E+00
         -4   -1    0    0    0  501 -0.00000000000E+00  0.00000000000E+00  0.19258811235E+03  0.19258811235E+03  0.00000000000E+00 0.  1.
         21   -1    0    0  501  502  0.00000000000E+00 -0.00000000000E+00 -0.64581637414E+02  0.64581637414E+02  0.00000000000E+00 0. -1.
         23    2    1    2    0    0  0.84061016820E+01  0.27985511646E+02  0.10178034456E+03  0.14022342428E+03  0.91921263970E+02 0.  0.
         23    2    1    2    0    0  0.81701566888E+01 -0.15000064801E+02  0.25004727361E+02  0.95854004690E+02  0.90945040659E+02 0.  0.
        -11    1    4    4    0    0  0.33734062716E+02 -0.39752135137E+02  0.29635296005E+02  0.59970576157E+02  0.00000000000E+00 0.  1.
         11    1    4    4    0    0 -0.25563906028E+02  0.24752070336E+02 -0.46305686436E+01  0.35883428533E+02  0.00000000000E+00 0. -1.
        -13    1    3    3    0    0 -0.17501779668E+02 -0.19436402321E+02  0.13640481804E+01  0.26190583311E+02  0.00000000000E+00 0. -1.
         13    1    3    3    0    0  0.25907881350E+02  0.47421913967E+02  0.10041629638E+03  0.11403284097E+03  0.00000000000E+00 0.  1.
         -4    1    1    2    0  502 -0.16576258371E+02 -0.12985446846E+02  0.12214030181E+01  0.21092320799E+02  0.00000000000E+00 0.  1.
<scales pt_clust_5="13000.00000" pt_clust_6="13000.00000" pt_clust_7="13000.00000" pt_clust_8="13000.00000" pt_clust_9="21.05693"></scales>
<clustering>
<clus scale="   21.057">  2  9  1 -1</clus>
<clus scale="   90.945">  5  6 -1 -1</clus>
<clus scale="   91.921">  7  8 -1 -1</clus>
<clus scale="   93.947">  2  5  1 -1</clus>
<clus scale="   21.057">  2  5  1 -1</clus>
</clustering>
</event>
<event>
 9    1  0.1399746E-005  0.1145230E+03  0.7546771E-02  0.1252646E+00
         -3   -1    0    0    0  501 -0.00000000000E+00  0.00000000000E+00  0.19112985383E+03  0.19112985383E+03  0.00000000000E+00 0.  1.
         21   -1    0    0  501  502  0.00000000000E+00 -0.00000000000E+00 -0.15909966175E+03  0.15909966175E+03  0.00000000000E+00 0.  1.
         23    2    1    2    0    0  0.49086074728E+02  0.31078629487E+01  0.63417477567E+02  0.12287010529E+03  0.93038619769E+02 0.  0.
         23    2    1    2    0    0 -0.10958077024E+03 -0.45814275672E+02 -0.12854315243E+02  0.15102516595E+03  0.92393042310E+02 0.  0.
        -11    1    3    3    0    0  0.23998551814E+02  0.25891067681E+02  0.78274767657E+02  0.85867439269E+02  0.00000000000E+00 0.  1.
         11    1    3    3    0    0  0.25087522914E+02 -0.22783204732E+02 -0.14857290090E+02  0.37002666021E+02  0.00000000000E+00 0. -1.
        -13    1    4    4    0    0 -0.14005306589E+02 -0.51740543366E+02 -0.13450259784E+02  0.55264291624E+02  0.00000000000E+00 0. -1.
         13    1    4    4    0    0 -0.95575463655E+02  0.59262676948E+01  0.59594454142E+00  0.95760874325E+02  0.00000000000E+00 0.  1.
         -3    1    1    2    0  502  0.60494695515E+02  0.42706412723E+02 -0.18532970240E+02  0.76334244341E+02  0.00000000000E+00 0.  1.
<scales pt_clust_5="13000.00000" pt_clust_6="13000.00000" pt_clust_7="13000.00000" pt_clust_8="13000.00000" pt_clust_9="74.05029"></scales>
<clustering>
<clus scale="   74.050">  2  9  1 -1</clus>
<clus scale="   92.393">  7  8 -1 -1</clus>
<clus scale="   93.039">  5  6 -1 -1</clus>
<clus scale="  113.999">  2  7  1 -1</clus>
<clus scale="   74.050">  2  5  1 -1</clus>
</clustering>
</event>
<event>
 9    1  0.1399746E-005  0.1150697E+03  0.7546771E-02  0.1252568E+00
          2   -1    0    0  502    0 -0.00000000000E+00  0.00000000000E+00  0.76008763193E+03  0.76008763193E+03  0.00000000000E+00 0. -1.
         21   -1    0    0  501  502  0.00000000000E+00 -0.00000000000E+00 -0.26226400327E+02  0.26226400327E+02  0.00000000000E+00 0.  1.
         23    2    1    2    0    0 -0.36967082654E+02 -0.50996496016E+02  0.45687250169E+03  0.46976808537E+03  0.89344073233E+02 0.  0.
         23    2    1    2    0    0  0.64824973894E+02  0.52299794660E+02  0.23838518795E+03  0.26892248477E+03  0.92489238415E+02 0.  0.
        -13    1    4    4    0    0  0.34221728511E+02 -0.31348003040E+01  0.17846867254E+03  0.18174713410E+03  0.00000000000E+00 0. -1.
         13    1    4    4    0    0  0.30603245383E+02  0.55434594964E+02  0.59916515410E+02  0.87175350677E+02  0.00000000000E+00 0.  1.
        -13    1    3    3    0    0 -0.52267855569E+02  0.38150896424E+01  0.21882822287E+03  0.22501616555E+03  0.00000000000E+00 0. -1.
         13    1    3    3    0    0  0.15300772914E+02 -0.54811585658E+02  0.23804427882E+03  0.24475191982E+03  0.00000000000E+00 0.  1.
          2    1    1    2  501    0 -0.27857891240E+02 -0.13032986444E+01  0.38603541964E+02  0.47623462115E+02  0.00000000000E+00 0. -1.
<scales pt_clust_5="13000.00000" pt_clust_6="13000.00000" pt_clust_7="13000.00000" pt_clust_8="13000.00000" pt_clust_9="27.88836"></scales>
<clustering>
<clus scale="   27.888">  2  9  1 -1</clus>
<clus scale="   89.344">  7  8 -1 -1</clus>
<clus scale="   92.489">  5  6 -1 -1</clus>
<clus scale="  112.557">  1  7  2 -1</clus>
<clus scale="   27.888">  2  5  1 -1</clus>
</clustering>
</event>
<event>
 9    1  0.1399746E-005  0.2909319E+03  0.7546771E-02  0.1089864E+00
         21   -1    0    0  501  502  0.00000000000E+00  0.00000000000E+00  0.52681556413E+03  0.52681556413E+03  0.00000000000E+00 0.  1.
          2   -1    0    0  502    0 -0.00000000000E+00 -0.00000000000E+00 -0.24992176636E+03  0.24992176636E+03  0.00000000000E+00 0. -1.
         23    2    1    2    0    0 -0.24697954887E+03 -0.10733050677E+03 -0.36631841197E+02  0.28674112753E+03  0.91432199924E+02 0.  0.
         23    2    1    2    0    0  0.25211436366E+03  0.14950160385E+03  0.19410878285E+03  0.36324781727E+03  0.91424150263E+02 0.  0.
        -11    1    4    4    0    0  0.17075197337E+03  0.95699538124E+02  0.17762916192E+03  0.26432320588E+03  0.00000000000E+00 0. -1.
         11    1    4    4    0    0  0.81362390293E+02  0.53802065731E+02  0.16479620931E+02  0.98924611382E+02  0.00000000000E+00 0.  1.
        -13    1    3    3    0    0 -0.15959313959E+03 -0.10711557163E+03 -0.49329708034E+02  0.19843673043E+03  0.00000000000E+00 0.  1.
         13    1    3    3    0    0 -0.87386409282E+02 -0.21493513832E+00  0.12697866837E+02  0.88304397096E+02  0.00000000000E+00 0. -1.
          2    1    1    2  501    0 -0.51348147895E+01 -0.42171097082E+02  0.11941685611E+03  0.12674838569E+03  0.00000000000E+00 0. -1.
<scales pt_clust_5="13000.00000" pt_clust_6="13000.00000" pt_clust_7="13000.00000" pt_clust_8="13000.00000" pt_clust_9="42.48256"></scales>
<clustering>
<clus scale="   42.483">  1  9  2 -1</clus>
<clus scale="   91.424">  5  6 -1 -1</clus>
<clus scale="   91.432">  7  8 -1 -1</clus>
<clus scale="  290.929">  1  5  2 -1</clus>
<clus scale="   42.483">  1  5  2 -1</clus>
</clustering>
</event>
<event>
 9    1  0.1399746E-005  0.3045502E+03  0.7546771E-02  0.1122795E+00
         -3   -1    0    0    0  501 -0.00000000000E+00  0.00000000000E+00  0.81174205141E+02  0.81174205141E+02  0.00000000000E+00 0.  1.
         21   -1    0    0  501  502  0.00000000000E+00 -0.00000000000E+00 -0.20179523390E+04  0.20179523390E+04  0.00000000000E+00 0.  1.
         23    2    1    2    0    0 -0.25492757677E+02 -0.54005195813E+02 -0.34390366694E+03  0.36075720581E+03  0.91156939062E+02 0.  0.
         23    2    1    2    0    0  0.27598447184E+03 -0.94967769372E+02 -0.36432144606E+03  0.47572070618E+03  0.91617510936E+02 0.  0.
        -11    1    3    3    0    0  0.16899445367E+02 -0.49056479614E+02 -0.27388178064E+03  0.27875322278E+03  0.00000000000E+00 0.  1.
         11    1    3    3    0    0 -0.42392203044E+02 -0.49487161988E+01 -0.70021886302E+02  0.82003983027E+02  0.00000000000E+00 0. -1.
        -13    1    4    4    0    0  0.26362310211E+03 -0.66882073051E+02 -0.34556664073E+03  0.43975749550E+03  0.00000000000E+00 0.  1.
         13    1    4    4    0    0  0.12361369729E+02 -0.28085696321E+02 -0.18754805335E+02  0.35963210682E+02  0.00000000000E+00 0. -1.
         -3    1    1    2    0  502 -0.25049171416E+03  0.14897296519E+03 -0.12285530208E+04  0.12626486321E+04  0.00000000000E+00 0.  1.
<scales pt_clust_5="13000.00000" pt_clust_6="13000.00000" pt_clust_7="13000.00000" pt_clust_8="13000.00000" pt_clust_9="290.44289"></scales>
<clustering>
<clus scale="   91.157">  5  6 -1 -1</clus>
<clus scale="   91.618">  7  8 -1 -1</clus>
<clus scale="  108.977">  1  5  2 -1</clus>
<clus scale="  290.443">  2  9  1 -1</clus>
<clus scale="  290.443">  2  5  1 -1</clus>
</clustering>
</event>
<event>
 9    1  0.1399746E-005  0.1558200E+03  0.7546771E-02  0.1193547E+00
         21   -1    0    0  501  502  0.00000000000E+00  0.00000000000E+00  0.18933572663E+03  0.18933572663E+03  0.00000000000E+00 0. -1.
          2   -1    0    0  502    0 -0.00000000000E+00 -0.00000000000E+00 -0.34537148715E+03  0.34537148715E+03  0.00000000000E+00 0. -1.
         23    2    1    2    0    0 -0.99106649095E+02  0.78194241122E+02 -0.23618786285E+03  0.28270406302E+03  0.90556134273E+02 0.  0.
         23    2    1    2    0    0  0.13088752227E+03 -0.42914914262E+02  0.10801533017E+03  0.19694850273E+03  0.90267202366E+02 0.  0.
        -11    1    3    3    0    0 -0.54044576567E+02  0.34403621944E+02 -0.37314592035E+02  0.74140435917E+02  0.00000000000E+00 0.  1.
         11    1    3    3    0    0 -0.45062072528E+02  0.43790619178E+02 -0.19887327081E+03  0.20856362711E+03  0.00000000000E+00 0. -1.
        -13    1    4    4    0    0  0.13922548217E+03 -0.20489035147E+02  0.90872386177E+02  0.16751515161E+03  0.00000000000E+00 0. -1.
         13    1    4    4    0    0 -0.83379599063E+01 -0.22425879115E+02  0.17142943992E+02  0.29433351121E+02  0.00000000000E+00 0.  1.
          2    1    1    2  501    0 -0.31780873173E+02 -0.35279326860E+02 -0.27863227841E+02  0.55054648025E+02  0.00000000000E+00 0. -1.
<scales pt_clust_5="13000.00000" pt_clust_6="13000.00000" pt_clust_7="13000.00000" pt_clust_8="13000.00000" pt_clust_9="47.48323"></scales>
<clustering>
<clus scale="   47.483">  1  9  2 -1</clus>
<clus scale="   90.267">  7  8 -1 -1</clus>
<clus scale="   90.556">  5  6 -1 -1</clus>
<clus scale="  155.652">  1  7  2 -1</clus>
<clus scale="   47.483">  1  5  2 -1</clus>
</clustering>
</event>
<event>
 9    1  0.1399746E-005  0.1073018E+03  0.7546771E-02  0.1265843E+00
         21   -1    0    0  501  502  0.00000000000E+00  0.00000000000E+00  0.17498320096E+03  0.17498320096E+03  0.00000000000E+00 0. -1.
          1   -1    0    0  502    0 -0.00000000000E+00 -0.00000000000E+00 -0.12763799072E+03  0.12763799072E+03  0.00000000000E+00 0. -1.
         23    2    1    2    0    0 -0.41908134117E+02 -0.22738269509E+02 -0.26134574209E+02  0.10557953086E+03  0.90502490361E+02 0.  0.
         23    2    1    2    0    0  0.58677698417E+02  0.41345415143E+02 -0.44110809961E+01  0.11522215780E+03  0.90023176831E+02 0.  0.
        -11    1    4    4    0    0  0.61011164061E+02  0.61612466270E+02 -0.20665429928E+02  0.89137635901E+02  0.00000000000E+00 0. -1.
         11    1    4    4    0    0 -0.23334656437E+01 -0.20267051127E+02  0.16254348932E+02  0.26084521895E+02  0.00000000000E+00 0.  1.
        -13    1    3    3    0    0 -0.19516256387E+01  0.31701355996E+02 -0.20528439389E+02  0.37818006800E+02  0.00000000000E+00 0.  1.
         13    1    3    3    0    0 -0.39956508478E+02 -0.54439625505E+02 -0.56061348197E+01  0.67761524057E+02  0.00000000000E+00 0. -1.
          1    1    1    2  501    0 -0.16769564300E+02 -0.18607145634E+02  0.77890865450E+02  0.81819503029E+02  0.00000000000E+00 0. -1.
<scales pt_clust_5="13000.00000" pt_clust_6="13000.00000" pt_clust_7="13000.00000" pt_clust_8="13000.00000" pt_clust_9="25.04884"></scales>
<clustering>
<clus scale="   25.049">  1  9  2 -1</clus>
<clus scale="   90.023">  5  6 -1 -1</clus>
<clus scale="   90.502">  7  8 -1 -1</clus>
<clus scale="  106.898">  1  5  2 -1</clus>
<clus scale="   25.049">  1  5  2 -1</clus>
</clustering>
</event>
<event>
 9    1  0.1399746E-005  0.1016015E+03  0.7546771E-02  0.1277647E+00
          2   -1    0    0  502    0 -0.00000000000E+00  0.00000000000E+00  0.17590056143E+03  0.17590056143E+03  0.00000000000E+00 0. -1.
         21   -1    0    0  501  502  0.00000000000E+00 -0.00000000000E+00 -0.24729780289E+03  0.24729780289E+03  0.00000000000E+00 0. -1.
         23    2    1    2    0    0 -0.25999300429E+02  0.21920818352E+02  0.57157224759E+02  0.11037413328E+03  0.88085271495E+02 0.  0.
         23    2    1    2    0    0  0.71606135929E+02 -0.87150865383E+01  0.51932346817E+02  0.12619662196E+03  0.89583633054E+02 0.  0.
        -11    1    4    4    0    0  0.23991988129E+02  0.17089628688E+01  0.70151945702E+02  0.74160849066E+02  0.00000000000E+00 0. -1.
         11    1    4    4    0    0  0.47614147800E+02 -0.10424049407E+02 -0.18219598885E+02  0.52035772890E+02  0.00000000000E+00 0.  1.
        -13    1    3    3    0    0  0.62812794168E+01  0.24574651321E+02  0.70816715855E+02  0.75222172284E+02  0.00000000000E+00 0. -1.
         13    1    3    3    0    0 -0.32280579845E+02 -0.26538329697E+01 -0.13659491096E+02  0.35151960992E+02  0.00000000000E+00 0.  1.
          2    1    1    2  501    0 -0.45606835500E+02 -0.13205731813E+02 -0.18048681303E+03  0.18662760909E+03  0.00000000000E+00 0. -1.
<scales pt_clust_5="13000.00000" pt_clust_6="13000.00000" pt_clust_7="13000.00000" pt_clust_8="13000.00000" pt_clust_9="47.48026"></scales>
<clustering>
<clus scale="   47.480">  2  9  1 -1</clus>
<clus scale="   88.085">  7  8 -1 -1</clus>
<clus scale="   89.584">  5  6 -1 -1</clus>
<clus scale="  100.283">  1  7  2 -1</clus>
<clus scale="   47.480">  2  5  1 -1</clus>
</clustering>
</event>
<event>
 9    1  0.1399746E-005  0.1427053E+03  0.7546771E-02  0.1209736E+00
         21   -1    0    0  501  502  0.00000000000E+00  0.00000000000E+00  0.50854398114E+03  0.50854398114E+03  0.00000000000E+00 0.  1.
          1   -1    0    0  502    0 -0.00000000000E+00 -0.00000000000E+00 -0.84226168490E+02  0.84226168490E+02  0.00000000000E+00 0. -1.
         23    2    1    2    0    0  0.74863600719E+02 -0.73123563039E+02  0.13844786193E+02  0.14019616614E+03  0.92258727020E+02 0.  0.
         23    2    1    2    0    0 -0.78190178592E+02  0.10037794793E+03  0.29921895093E+03  0.33798193780E+03  0.92251684095E+02 0.  0.
        -11    1    4    4    0    0 -0.35452341309E+02 -0.73662295132E+01  0.39577976693E+02  0.53642763544E+02  0.00000000000E+00 0. -1.
         11    1    4    4    0    0 -0.42737837283E+02  0.10774417745E+03  0.25964097424E+03  0.28433917425E+03  0.00000000000E+00 0.  1.
        -13    1    3    3    0    0  0.65235687972E+02 -0.72870329153E+01  0.29306528780E+02  0.71886497084E+02  0.00000000000E+00 0.  1.
         13    1    3    3    0    0  0.96279127471E+01 -0.65836530124E+02 -0.15461742587E+02  0.68309669055E+02  0.00000000000E+00 0. -1.
          1    1    1    2  501    0  0.33265778728E+01 -0.27254384894E+02  0.11125407552E+03  0.11459204570E+03  0.00000000000E+00 0. -1.
<scales pt_clust_5="13000.00000" pt_clust_6="13000.00000" pt_clust_7="13000.00000" pt_clust_8="13000.00000" pt_clust_9="27.45665"></scales>
<clustering>
<clus scale="   27.457">  1  9  2 -1</clus>
<clus scale="   92.252">  5  6 -1 -1</clus>
<clus scale="   92.259">  7  8 -1 -1</clus>
<clus scale="  142.701">  1  5  2 -1</clus>
<clus scale="   27.457">  1  5  2 -1</clus>
</clustering>
</event>
<event>
 9    1  0.1399746E-005  0.9910137E+02  0.7546771E-02  0.1282335E+00
         -1   -1    0    0    0  501 -0.00000000000E+00  0.00000000000E+00  0.33643975700E+03  0.33643975700E+03  0.00000000000E+00 0.  1.
         21   -1    0    0  501  502  0.00000000000E+00 -0.00000000000E+00 -0.73738974981E+02  0.73738974981E+02  0.00000000000E+00 0. -1.
         23    2    1    2    0    0  0.27159640290E+02  0.14371681505E+02  0.20070701995E+03  0.22251474961E+03  0.91023703777E+02 0.  0.
         23    2    1    2    0    0 -0.37012453339E+02 -0.46347706394E+02  0.92135251076E+02  0.14263006790E+03  0.91303889226E+02 0.  0.
        -11    1    4    4    0    0 -0.53434573518E+02  0.55510404853E+01  0.53961156766E+02  0.76143772806E+02  0.00000000000E+00 0.  1.
         11    1    4    4    0    0  0.16422120179E+02 -0.51898746879E+02  0.38174094310E+02  0.66486295093E+02  0.00000000000E+00 0. -1.
        -13    1    3    3    0    0 -0.22014876682E+02 -0.85445223174E+01  0.13617652880E+03  0.13820893840E+03  0.00000000000E+00 0. -1.
         13    1    3    3    0    0  0.49174516971E+02  0.22916203822E+02  0.64530491146E+02  0.84305811215E+02  0.00000000000E+00 0.  1.
         -1    1    1    2    0  502  0.98528130492E+01  0.31976024889E+02 -0.30141489007E+02  0.45033914467E+02  0.00000000000E+00 0.  1.
<scales pt_clust_5="13000.00000" pt_clust_6="13000.00000" pt_clust_7="13000.00000" pt_clust_8="13000.00000" pt_clust_9="33.45959"></scales>
<clustering>
<clus scale="   33.460">  2  9  1 -1</clus>
<clus scale="   91.024">  7  8 -1 -1</clus>
<clus scale="   91.304">  5  6 -1 -1</clus>
<clus scale="   98.843">  1  7  2 -1</clus>
<clus scale="   33.460">  2  5  1 -1</clus>
</clustering>
</event>
<event>
 9    1  0.1399746E-005  0.1871480E+03  0.7546771E-02  0.1165397E+00
         -1   -1    0    0    0  501 -0.00000000000E+00  0.00000000000E+00  0.85057273438E+02  0.85057273438E+02  0.00000000000E+00 0.  1.
         21   -1    0    0  501  502  0.00000000000E+00 -0.00000000000E+00 -0.68533125786E+03  0.68533125786E+03  0.00000000000E+00 0. -1.
         23    2    1    2    0    0 -0.15444752436E+03 -0.19986343405E+02 -0.87850513668E+02  0.21548126337E+03  0.12025377503E+03 0.  0.
         23    2    1    2    0    0  0.12012661414E+03 -0.17330396235E+02 -0.29236522452E+03  0.32908411660E+03  0.89934338475E+02 0.  0.
        -11    1    3    3    0    0 -0.15693954388E+03  0.17294943691E+02 -0.81141512264E+02  0.17751923987E+03  0.00000000000E+00 0. -1.
         11    1    3    3    0    0  0.24920195194E+01 -0.37281287096E+02 -0.67090014038E+01  0.37962023505E+02  0.00000000000E+00 0.  1.
        -11    1    4    4    0    0  0.23783265736E+02  0.33935344010E+02 -0.69098308612E+02  0.80571878191E+02  0.00000000000E+00 0. -1.
         11    1    4    4    0    0  0.96343348399E+02 -0.51265740244E+02 -0.22326691590E+03  0.24851223841E+03  0.00000000000E+00 0.  1.
         -1    1    1    2    0  502  0.34320910224E+02  0.37316739639E+02 -0.22005824624E+03  0.22582315132E+03  0.00000000000E+00 0.  1.
<scales pt_clust_5="13000.00000" pt_clust_6="13000.00000" pt_clust_7="13000.00000" pt_clust_8="13000.00000" pt_clust_9="50.69974"></scales>
<clustering>
<clus scale="   50.700">  2  9  1 -1</clus>
<clus scale="   89.934">  7  8 -1 -1</clus>
<clus scale="  120.254">  5  6 -1 -1</clus>
<clus scale="  169.268">  2  7  1 -1</clus>
<clus scale="   50.700">  2  5  1 -1</clus>
</clustering>
</event>
<event>
 9    1  0.1399746E-005  0.1128033E+03  0.7546771E-02  0.1258868E+00
          1   -1    0    0  502    0 -0.00000000000E+00  0.00000000000E+00  0.42477764257E+03  0.42477764257E+03  0.00000000000E+00 0. -1.
         21   -1    0    0  501  502  0.00000000000E+00 -0.00000000000E+00 -0.68551190840E+02  0.68551190840E+02  0.00000000000E+00 0. -1.
         23    2    1    2    0    0  0.40389415553E+02 -0.15339890291E+02  0.28907234293E+03  0.30908098305E+03  0.10050680332E+03 0.  0.
         23    2    1    2    0    0 -0.67328550810E+02  0.37027019750E+02  0.83282937565E+02  0.14608782271E+03  0.92203418098E+02 0.  0.
        -11    1    3    3    0    0  0.98153734751E+01 -0.49707789304E+02  0.77693483621E+02  0.92754963593E+02  0.00000000000E+00 0.  1.
         11    1    3    3    0    0  0.30574042078E+02  0.34367899013E+02  0.21137885931E+03  0.21632601946E+03  0.00000000000E+00 0. -1.
        -11    1    4    4    0    0 -0.18835839641E+02  0.38086706053E+02 -0.75122866753E+01  0.43148817875E+02  0.00000000000E+00 0.  1.
         11    1    4    4    0    0 -0.48492711169E+02 -0.10596863026E+01  0.90795224240E+02  0.10293900483E+03  0.00000000000E+00 0. -1.
          1    1    1    2  501    0  0.26939135257E+02 -0.21687129459E+02 -0.16128828768E+02  0.38160027647E+02  0.00000000000E+00 0. -1.
<scales pt_clust_5="13000.00000" pt_clust_6="13000.00000" pt_clust_7="13000.00000" pt_clust_8="13000.00000" pt_clust_9="34.58394"></scales>
<clustering>
<clus scale="   34.584">  2  9  1 -1</clus>
<clus scale="   92.203">  7  8 -1 -1</clus>
<clus scale="  100.507">  5  6 -1 -1</clus>
<clus scale="  105.472">  2  7  1 -1</clus>
<clus scale="   34.584">  2  5  1 -1</clus>
</clustering>
</event>
<event>
 9    1  0.1399746E-005  0.1034699E+03  0.7546771E-02  0.1273320E+00
         21   -1    0    0  501  502  0.00000000000E+00  0.00000000000E+00  0.46529240087E+02  0.46529240087E+02  0.00000000000E+00 0. -1.
         -3   -1    0    0    0  501 -0.00000000000E+00 -0.00000000000E+00 -0.29286359272E+03  0.29286359272E+03  0.00000000000E+00 0.  1.
         23    2    1    2    0    0 -0.26552543777E+02  0.47195946436E+02 -0.12192571569E+03  0.16252575298E+03  0.92823732393E+02 0.  0.
         23    2    1    2    0    0  0.65652606506E+01 -0.36737182177E+02 -0.83136331939E+02  0.12983219493E+03  0.92477164479E+02 0.  0.
        -13    1    4    4    0    0 -0.36832715853E+02 -0.22810460799E+02 -0.11327771124E+02  0.44780402830E+02  0.00000000000E+00 0. -1.
         13    1    4    4    0    0  0.43397976504E+02 -0.13926721378E+02 -0.71808560814E+02  0.85051792099E+02  0.00000000000E+00 0.  1.
        -13    1    3    3    0    0  0.35262716183E+01  0.48008456019E+02 -0.12334187283E+03  0.13240265871E+03  0.00000000000E+00 0.  1.
         13    1    3    3    0    0 -0.30078815395E+02 -0.81250958286E+00  0.14161571410E+01  0.30123094270E+02  0.00000000000E+00 0. -1.
         -3    1    1    2    0  502  0.19987283126E+02 -0.10458764259E+02 -0.41272305003E+02  0.47034884893E+02  0.00000000000E+00 0.  1.
<scales pt_clust_5="13000.00000" pt_clust_6="13000.00000" pt_clust_7="13000.00000" pt_clust_8="13000.00000" pt_clust_9="22.55832"></scales>
<clustering>
<clus scale="   22.558">  1  9  2 -1</clus>
<clus scale="   92.477">  5  6 -1 -1</clus>
<clus scale="   92.824">  7  8 -1 -1</clus>
<clus scale="  103.159">  1  5  2 -1</clus>
<clus scale="   22.558">  1  5  2 -1</clus>
</clustering>
</event>
<event>
 9    1  0.1399746E-005  0.9480700E+02  0.7546771E-02  0.1293978E+00
          1   -1    0    0  502    0 -0.00000000000E+00  0.00000000000E+00  0.30982288797E+03  0.30982288797E+03  0.00000000000E+00 0. -1.
         21   -1    0    0  501  502  0.00000000000E+00 -0.00000000000E+00 -0.16493534172E+03  0.16493534172E+03  0.00000000000E+00 0. -1.
         23    2    1    2    0    0  0.29524928022E+01  0.42709501057E+01  0.16111926664E+03  0.18463408161E+03  0.90018707945E+02 0.  0.
         23    2    1    2    0    0  0.33116501150E+02  0.14393258251E+02  0.11488832682E+03  0.15285874173E+03  0.94141376400E+02 0.  0.
        -11    1    3    3    0    0 -0.16626607763E+02 -0.34066154924E+02  0.35848547307E+02  0.52173416038E+02  0.00000000000E+00 0.  1.
         11    1    3    3    0    0  0.19579100566E+02  0.38337105030E+02  0.12527071933E+03  0.13246066557E+03  0.00000000000E+00 0. -1.
        -13    1    4    4    0    0  0.57336196020E+02 -0.17755652259E+02  0.76501408297E+02  0.97237688334E+02  0.00000000000E+00 0. -1.
         13    1    4    4    0    0 -0.24219694869E+02  0.32148910510E+02  0.38386918527E+02  0.55621053393E+02  0.00000000000E+00 0.  1.
          1    1    1    2  501    0 -0.36068993953E+02 -0.18664208357E+02 -0.13112004722E+03  0.13726540635E+03  0.00000000000E+00 0. -1.
<scales pt_clust_5="13000.00000" pt_clust_6="13000.00000" pt_clust_7="13000.00000" pt_clust_8="13000.00000" pt_clust_9="40.61188"></scales>
<clustering>
<clus scale="   40.612">  2  9  1 -1</clus>
<clus scale="   90.019">  5  6 -1 -1</clus>
<clus scale="   90.715">  1  5  2 -1</clus>
<clus scale="   94.141">  7  8 -1 -1</clus>
<clus scale="   40.612">  2  5  1 -1</clus>
</clustering>
</event>
<event>
 9    1  0.1399746E-005  0.1016923E+03  0.7546771E-02  0.1277976E+00
         21   -1    0    0  501  502  0.00000000000E+00  0.00000000000E+00  0.12325164910E+03  0.12325164910E+03  0.00000000000E+00 0.  1.
          1   -1    0    0  502    0 -0.00000000000E+00 -0.00000000000E+00 -0.27087111208E+03  0.27087111208E+03  0.00000000000E+00 0. -1.
         23    2    1    2    0    0 -0.29637126798E+02 -0.22165737288E+02 -0.15762446019E+03  0.18457870697E+03  0.88623639176E+02 0.  0.
         23    2    1    2    0    0  0.51889871743E+02  0.37149905010E+02 -0.65681356304E+02  0.12924377994E+03  0.91198902707E+02 0.  0.
        -11    1    4    4    0    0  0.62112297894E+02  0.54923978748E+02 -0.30157688882E+02  0.88227360778E+02  0.00000000000E+00 0.  1.
         11    1    4    4    0    0 -0.10222426150E+02 -0.17774073738E+02 -0.35523667421E+02  0.41016419160E+02  0.00000000000E+00 0. -1.
        -13    1    3    3    0    0 -0.49415554319E+02 -0.11827940288E+02 -0.15374890296E+03  0.16192752188E+03  0.00000000000E+00 0. -1.
         13    1    3    3    0    0  0.19778427521E+02 -0.10337797001E+02 -0.38755572285E+01  0.22651185087E+02  0.00000000000E+00 0.  1.
          1    1    1    2  501    0 -0.22252744945E+02 -0.14984167722E+02  0.75686353511E+02  0.80300274269E+02  0.00000000000E+00 0. -1.
<scales pt_clust_5="13000.00000" pt_clust_6="13000.00000" pt_clust_7="13000.00000" pt_clust_8="13000.00000" pt_clust_9="26.82741"></scales>
<clustering>
<clus scale="   26.827">  1  9  2 -1</clus>
<clus scale="   88.624">  7  8 -1 -1</clus>
<clus scale="   91.199">  5  6 -1 -1</clus>
<clus scale="   99.389">  2  7  1 -1</clus>
<clus scale="   26.827">  1  5  2 -1</clus>
</clustering>
</event>
<event>
 9    1  0.1399746E-005  0.1035018E+03  0.7546771E-02  0.1273775E+00
          2   -1    0    0  502    0 -0.00000000000E+00  0.00000000000E+00  0.41796347797E+03  0.41796347797E+03  0.00000000000E+00 0. -1.
         21   -1    0    0  501  502  0.00000000000E+00 -0.00000000000E+00 -0.38509520913E+02  0.38509520913E+02  0.00000000000E+00 0.  1.
         23    2    1    2    0    0 -0.29793815975E+02  0.25847734538E+02  0.23921713836E+03  0.25934943532E+03  0.92095132690E+02 0.  0.
         23    2    1    2    0    0  0.42665418571E+02 -0.49421234990E+02  0.11377742414E+03  0.15942094247E+03  0.90592153323E+02 0.  0.
        -11    1    4    4    0    0 -0.88826696035E+01 -0.36310510363E+02  0.41998252242E+01  0.37616399535E+02  0.00000000000E+00 0.  1.
         11    1    4    4    0    0  0.51548088175E+02 -0.13110724627E+02  0.10957759892E+03  0.12180454294E+03  0.00000000000E+00 0. -1.
        -13    1    3    3    0    0  0.11506534270E+02 -0.22001399031E+02  0.22170979619E+02  0.33286847665E+02  0.00000000000E+00 0.  1.
         13    1    3    3    0    0 -0.41300350244E+02  0.47849133568E+02  0.21704615874E+03  0.22606258766E+03  0.00000000000E+00 0. -1.
          2    1    1    2  501    0 -0.12871602597E+02  0.23573500452E+02  0.26459394549E+02  0.37702621087E+02  0.00000000000E+00 0. -1.
<scales pt_clust_5="13000.00000" pt_clust_6="13000.00000" pt_clust_7="13000.00000" pt_clust_8="13000.00000" pt_clust_9="26.85867"></scales>
<clustering>
<clus scale="   26.859">  2  9  1 -1</clus>
<clus scale="   90.592">  5  6 -1 -1</clus>
<clus scale="   92.095">  7  8 -1 -1</clus>
<clus scale="  102.167">  2  5  1 -1</clus>
<clus scale="   26.859">  2  5  1 -1</clus>
</clustering>
</event>
<event>
 9    1  0.1399746E-005  0.1239545E+03  0.7546771E-02  0.1237219E+00
          1   -1    0    0  502    0 -0.00000000000E+00  0.00000000000E+00  0.25264494409E+03  0.25264494409E+03  0.00000000000E+00 0. -1.
         21   -1    0    0  501  502  0.00000000000E+00 -0.00000000000E+00 -0.39985480277E+03  0.39985480277E+03  0.00000000000E+00 0. -1.
         23    2    1    2    0    0  0.33947216090E+02  0.67309411908E+02  0.16788607480E+03  0.20613972026E+03  0.92870230673E+02 0.  0.
         23    2    1    2    0    0 -0.17147024670E+02 -0.11570522286E+03 -0.23318540696E+02  0.15011950289E+03  0.91161350113E+02 0.  0.
        -13    1    4    4    0    0 -0.81619052706E+01 -0.54705259286E+02  0.34832750716E+02  0.65365148310E+02  0.00000000000E+00 0. -1.
         13    1    4    4    0    0 -0.89851193995E+01 -0.60999963574E+02 -0.58151291412E+02  0.84754354576E+02  0.00000000000E+00 0.  1.
        -13    1    3    3    0    0  0.35880821601E+02  0.89973028150E+02  0.13674836636E+03  0.16757892128E+03  0.00000000000E+00 0. -1.
         13    1    3    3    0    0 -0.19336055111E+01 -0.22663616243E+02  0.31137708443E+02  0.38560798988E+02  0.00000000000E+00 0.  1.
          1    1    1    2  501    0 -0.16800191420E+02  0.48395810952E+02 -0.29177739278E+03  0.29624052371E+03  0.00000000000E+00 0. -1.
<scales pt_clust_5="13000.00000" pt_clust_6="13000.00000" pt_clust_7="13000.00000" pt_clust_8="13000.00000" pt_clust_9="51.22891"></scales>
<clustering>
<clus scale="   51.229">  2  9  1 -1</clus>
<clus scale="   91.161">  5  6 -1 -1</clus>
<clus scale="   92.870">  7  8 -1 -1</clus>
<clus scale="  122.679">  2  5  1 -1</clus>
<clus scale="   51.229">  2  5  1 -1</clus>
</clustering>
</event>
<event>
 9    1  0.1399746E-005  0.9315541E+02  0.7546771E-02  0.1297425E+00
         21   -1    0    0  501  502  0.00000000000E+00  0.00000000000E+00  0.17430187949E+03  0.17430187949E+03  0.00000000000E+00 0. -1.
         -4   -1    0    0    0  501 -0.00000000000E+00 -0.00000000000E+00 -0.96010995892E+02  0.96010995892E+02  0.00000000000E+00 0.  1.
         23    2    1    2    0    0  0.43521665199E+01  0.20928002117E+02 -0.80364610556E+01  0.93869387033E+02  0.91049187199E+02 0.  0.
         23    2    1    2    0    0 -0.22808966210E+02 -0.77957747645E+01  0.37832903585E+01  0.90847753938E+02  0.87509874105E+02 0.  0.
        -11    1    4    4    0    0  0.67614023196E+01 -0.43390543281E+02  0.69659016988E+01  0.44463238681E+02  0.00000000000E+00 0.  1.
         11    1    4    4    0    0 -0.29570368530E+02  0.35594768516E+02 -0.31826113403E+01  0.46384515257E+02  0.00000000000E+00 0. -1.
        -11    1    3    3    0    0 -0.28589438827E+02 -0.23952626261E+02 -0.82398032375E+01  0.38196579358E+02  0.00000000000E+00 0.  1.
         11    1    3    3    0    0  0.32941605347E+02  0.44880628378E+02  0.20334218186E+00  0.55672807675E+02  0.00000000000E+00 0. -1.
         -4    1    1    2    0  502  0.18456799690E+02 -0.13132227352E+02  0.82544054298E+02  0.85595734414E+02  0.00000000000E+00 0.  1.
<scales pt_clust_5="13000.00000" pt_clust_6="13000.00000" pt_clust_7="13000.00000" pt_clust_8="13000.00000" pt_clust_9="22.65191"></scales>
<clustering>
<clus scale="   22.652">  1  9  2 -1</clus>
<clus scale="   87.510">  5  6 -1 -1</clus>
<clus scale="   89.699">  1  5  2 -1</clus>
<clus scale="   91.049">  7  8 -1 -1</clus>
<clus scale="   22.652">  1  5  2 -1</clus>
</clustering>
</event>
<event>
 9    1  0.1399746E-005  0.2122936E+03  0.7546771E-02  0.1140147E+00
          1   -1    0    0  502    0 -0.00000000000E+00  0.00000000000E+00  0.12713982988E+04  0.12713982988E+04  0.00000000000E+00 0. -1.
         21   -1    0    0  501  502  0.00000000000E+00 -0.00000000000E+00 -0.66152102009E+02  0.66152102009E+02  0.00000000000E+00 0.  1.
         23    2    1    2    0    0  0.44603161407E+02  0.17969499866E+03  0.94708975087E+03  0.96972666562E+03  0.95451952640E+02 0.  0.
         23    2    1    2    0    0 -0.32286698270E+02 -0.20772131025E+03  0.21000440264E+03  0.31076421645E+03  0.91005359657E+02 0.  0.
        -11    1    4    4    0    0 -0.53155932737E+02 -0.14063810999E+03  0.17957040205E+03  0.23420111114E+03  0.00000000000E+00 0. -1.
         11    1    4    4    0    0  0.20869234466E+02 -0.67083200255E+02  0.30434000586E+02  0.76563105314E+02  0.00000000000E+00 0.  1.
        -13    1    3    3    0    0  0.66562908256E+02  0.13218152615E+03  0.80065792547E+03  0.81422090996E+03  0.00000000000E+00 0. -1.
         13    1    3    3    0    0 -0.21959746849E+02  0.47513472504E+02  0.14643182540E+03  0.15550575566E+03  0.00000000000E+00 0.  1.
          1    1    1    2  501    0 -0.12316463136E+02  0.28026311590E+02  0.48152043279E+02  0.57059518728E+02  0.00000000000E+00 0. -1.
<scales pt_clust_5="13000.00000" pt_clust_6="13000.00000" pt_clust_7="13000.00000" pt_clust_8="13000.00000" pt_clust_9="30.61322"></scales>
<clustering>
<clus scale="   30.613">  2  9  1 -1</clus>
<clus scale="   91.005">  5  6 -1 -1</clus>
<clus scale="   95.452">  7  8 -1 -1</clus>
<clus scale="  210.332">  2  5  1 -1</clus>
<clus scale="   30.613">  2  5  1 -1</clus>
</clustering>
</event>
<event>
 9    1  0.1399746E-005  0.9413226E+02  0.7546771E-02  0.1293312E+00
         21   -1    0    0  501  502  0.00000000000E+00  0.00000000000E+00  0.27410321315E+03  0.27410321315E+03  0.00000000000E+00 0. -1.
         -1   -1    0    0    0  501 -0.00000000000E+00 -0.00000000000E+00 -0.90544972313E+02  0.90544972313E+02  0.00000000000E+00 0.  1.
         23    2    1    2    0    0 -0.12050920888E+02 -0.71290354448E+01 -0.26885064708E+02  0.95967607099E+02  0.91054527989E+02 0.  0.
         23    2    1    2    0    0  0.61456796671E+02  0.11020214122E+02  0.10503575962E+03  0.15220383145E+03  0.90747520812E+02 0.  0.
        -11    1    3    3    0    0 -0.16848804116E+02 -0.40668454866E+02 -0.40152059444E+02  0.59581820205E+02  0.00000000000E+00 0. -1.
         11    1    3    3    0    0  0.47978832283E+01  0.33539419421E+02  0.13266994736E+02  0.36385786894E+02  0.00000000000E+00 0.  1.
        -11    1    4    4    0    0  0.18789418148E+02 -0.82949749787E+01 -0.13616305421E+02  0.24642496171E+02  0.00000000000E+00 0.  1.
         11    1    4    4    0    0  0.42667378523E+02  0.19315189101E+02  0.11865206504E+03  0.12756133528E+03  0.00000000000E+00 0. -1.
         -1    1    1    2    0  502 -0.49405875784E+02 -0.38911786775E+01  0.10540754592E+03  0.11647674691E+03  0.00000000000E+00 0.  1.
<scales pt_clust_5="13000.00000" pt_clust_6="13000.00000" pt_clust_7="13000.00000" pt_clust_8="13000.00000" pt_clust_9="49.55887"></scales>
<clustering>
<clus scale="   49.559">  1  9  2 -1</clus>
<clus scale="   90.748">  7  8 -1 -1</clus>
<clus scale="   91.055">  5  6 -1 -1</clus>
<clus scale="   93.835">  1  7  2 -1</clus>
<clus scale="   49.559">  1  5  2 -1</clus>
</clustering>
</event>
<event>
 9    1  0.1399746E-005  0.1285292E+03  0.7546771E-02  0.1233777E+00
         21   -1    0    0  501  502  0.00000000000E+00  0.00000000000E+00  0.18752620844E+03  0.18752620844E+03  0.00000000000E+00 0. -1.
          3   -1    0    0  502    0 -0.00000000000E+00 -0.00000000000E+00 -0.14877377834E+03  0.14877377834E+03  0.00000000000E+00 0. -1.
         23    2    1    2    0    0 -0.62597563838E+02  0.56025510127E+02 -0.69228376995E+02  0.14978825841E+03  0.10289140582E+03 0.  0.
         23    2    1    2    0    0  0.58696844637E+02 -0.26633905246E+02  0.49371320390E+02  0.12082950871E+03  0.89484961965E+02 0.  0.
        -11    1    4    4    0    0  0.40495110346E+01 -0.49374239129E+02  0.12493078973E+02  0.51091007539E+02  0.00000000000E+00 0.  1.
         11    1    4    4    0    0  0.54647333603E+02  0.22740333882E+02  0.36878241417E+02  0.69738501166E+02  0.00000000000E+00 0. -1.
        -11    1    3    3    0    0 -0.98922425708E+01 -0.17414012455E+02 -0.54677301649E+02  0.58229817177E+02  0.00000000000E+00 0.  1.
         11    1    3    3    0    0 -0.52705321267E+02  0.73439522582E+02 -0.14551075346E+02  0.91558441231E+02  0.00000000000E+00 0. -1.
          3    1    1    2  501    0  0.39007192005E+01 -0.29391604880E+02  0.58609486713E+02  0.65682219668E+02  0.00000000000E+00 0. -1.
<scales pt_clust_5="13000.00000" pt_clust_6="13000.00000" pt_clust_7="13000.00000" pt_clust_8="13000.00000" pt_clust_9="29.64932"></scales>
<clustering>
<clus scale="   29.649">  1  9  2 -1</clus>
<clus scale="   89.485">  5  6 -1 -1</clus>
<clus scale="  102.891">  7  8 -1 -1</clus>
<clus scale="  118.071">  1  5  2 -1</clus>
<clus scale="   29.649">  1  5  2 -1</clus>
</clustering>
</event>
<event>
 9    1  0.1399746E-005  0.9820872E+02  0.7546771E-02  0.1284944E+00
         21   -1    0    0  501  502  0.00000000000E+00  0.00000000000E+00  0.29906656395E+02  0.29906656395E+02  0.00000000000E+00 0. -1.
          1   -1    0    0  502    0 -0.00000000000E+00 -0.00000000000E+00 -0.59152641163E+03  0.59152641163E+03  0.00000000000E+00 0. -1.
         23    2    1    2    0    0 -0.50502883940E+02  0.35118286361E+02 -0.34432362125E+03  0.36021275144E+03  0.86085044133E+02 0.  0.
         23    2    1    2    0    0  0.10662726579E+01 -0.26112651164E+02 -0.16478049413E+03  0.18853625761E+03  0.87808323637E+02 0.  0.
        -13    1    4    4    0    0  0.30776784489E+02  0.13097558847E+01 -0.16709994835E+02  0.35044968988E+02  0.00000000000E+00 0.  1.
         13    1    4    4    0    0 -0.29710511831E+02 -0.27422407048E+02 -0.14807049929E+03  0.15349128862E+03  0.00000000000E+00 0. -1.
        -13    1    3    3    0    0 -0.69396045552E+02  0.12720945960E+02 -0.29034319707E+03  0.29879224503E+03  0.00000000000E+00 0. -1.
         13    1    3    3    0    0  0.18893161612E+02  0.22397340401E+02 -0.53980424179E+02  0.61420506407E+02  0.00000000000E+00 0.  1.
          1    1    1    2  501    0  0.49436611282E+02 -0.90056351973E+01 -0.52515639861E+02  0.72684058983E+02  0.00000000000E+00 0. -1.
<scales pt_clust_5="13000.00000" pt_clust_6="13000.00000" pt_clust_7="13000.00000" pt_clust_8="13000.00000" pt_clust_9="50.25017"></scales>
<clustering>
<clus scale="   50.250">  1  9  2 -1</clus>
<clus scale="   86.085">  7  8 -1 -1</clus>
<clus scale="   87.808">  5  6 -1 -1</clus>
<clus scale="   96.671">  2  7  1 -1</clus>
<clus scale="   50.250">  1  5  2 -1</clus>
</clustering>
</event>
<event>
 9    1  0.1399746E-005  0.2128207E+03  0.7546771E-02  0.1159107E+00
         -3   -1    0    0    0  501 -0.00000000000E+00  0.00000000000E+00  0.89281030817E+02  0.89281030817E+02  0.00000000000E+00 0.  1.
         21   -1    0    0  501  502  0.00000000000E+00 -0.00000000000E+00 -0.18865343657E+04  0.18865343657E+04  0.00000000000E+00 0.  1.
         23    2    1    2    0    0 -0.96778669999E+02  0.17836171133E+01 -0.14363914664E+03  0.19587851779E+03  0.91470744101E+02 0.  0.
         23    2    1    2    0    0  0.18527618258E+03 -0.16369904208E+03 -0.25185807987E+03  0.36608801767E+03  0.97279515171E+02 0.  0.
        -11    1    4    4    0    0  0.44107256905E+02  0.35002386466E+01 -0.24690922893E+02  0.50668959488E+02  0.00000000000E+00 0. -1.
         11    1    4    4    0    0  0.14116892568E+03 -0.16719928073E+03 -0.22716715698E+03  0.31541905818E+03  0.00000000000E+00 0.  1.
        -11    1    3    3    0    0 -0.10875429149E+03 -0.16844232862E+02 -0.12778964879E+03  0.16864583730E+03  0.00000000000E+00 0.  1.
         11    1    3    3    0    0  0.11975621492E+02  0.18627849976E+02 -0.15849497850E+02  0.27232680495E+02  0.00000000000E+00 0. -1.
         -3    1    1    2    0  502 -0.88497512586E+02  0.16191542497E+03 -0.14017561084E+04  0.14138488611E+04  0.00000000000E+00 0.  1.
<scales pt_clust_5="13000.00000" pt_clust_6="13000.00000" pt_clust_7="13000.00000" pt_clust_8="13000.00000" pt_clust_9="189.28641"></scales>
<clustering>
<clus scale="   91.471">  7  8 -1 -1</clus>
<clus scale="   97.280">  5  6 -1 -1</clus>
<clus scale="  133.177">  1  7  2 -1</clus>
<clus scale="  189.286">  2  9  1 -1</clus>
<clus scale="  189.286">  2  5  1 -1</clus>
</clustering>
</event>
<event>
 9    1  0.1399746E-005  0.1486019E+03  0.7546771E-02  0.1202602E+00
         21   -1    0    0  501  502  0.00000000000E+00  0.00000000000E+00  0.71082174013E+02  0.71082174013E+02  0.00000000000E+00 0. -1.
          1   -1    0    0  502    0 -0.00000000000E+00 -0.00000000000E+00 -0.68674108974E+03  0.68674108974E+03  0.00000000000E+00 0. -1.
         23    2    1    2    0    0 -0.86123854568E+02  0.16367967091E+02 -0.14177835049E+03  0.19187895077E+03  0.95032638656E+02 0.  0.
         23    2    1    2    0    0  0.13302269765E+03  0.95341169546E+02 -0.28881845873E+03  0.34475114863E+03  0.93017609505E+02 0.  0.
        -11    1    3    3    0    0 -0.59366679118E+02 -0.36039079249E+02 -0.88529527671E+02  0.11251975423E+03  0.00000000000E+00 0.  1.
         11    1    3    3    0    0 -0.26757175450E+02  0.52407046340E+02 -0.53248822818E+02  0.79359196541E+02  0.00000000000E+00 0. -1.
        -13    1    4    4    0    0  0.10033983454E+03  0.52983743786E+02 -0.26067311079E+03  0.28429883959E+03  0.00000000000E+00 0. -1.
         13    1    4    4    0    0  0.32682863107E+02  0.42357425759E+02 -0.28145347939E+02  0.60452309041E+02  0.00000000000E+00 0.  1.
          1    1    1    2  501    0 -0.46898843079E+02 -0.11170913664E+03 -0.18506210650E+03  0.22119316435E+03  0.00000000000E+00 0. -1.
<scales pt_clust_5="13000.00000" pt_clust_6="13000.00000" pt_clust_7="13000.00000" pt_clust_8="13000.00000" pt_clust_9="121.15464"></scales>
<clustering>
<clus scale="   93.018">  7  8 -1 -1</clus>
<clus scale="   95.033">  5  6 -1 -1</clus>
<clus scale="  121.155">  1  9  2 -1</clus>
<clus scale="  147.321">  1  7  2 -1</clus>
<clus scale="  121.155">  1  5  2 -1</clus>
</clustering>
</event>
<event>
 9    1  0.1399746E-005  0.1125769E+03  0.7546771E-02  0.1258289E+00
         21   -1    0    0  501  502  0.00000000000E+00  0.00000000000E+00  0.14220824467E+03  0.14220824467E+03  0.00000000000E+00 0.  1.
          2   -1    0    0  502    0 -0.00000000000E+00 -0.00000000000E+00 -0.11865513446E+03  0.11865513446E+03  0.00000000000E+00 0. -1.
         23    2    1    2    0    0 -0.17380887167E+02  0.68199603768E+02 -0.35644905603E+02  0.11963989771E+03  0.89943674798E+02 0.  0.
         23    2    1    2    0    0  0.33814682939E+02 -0.55231391355E+02  0.40017239376E+02  0.11283076472E+03  0.83279425116E+02 0.  0.
        -11    1    4    4    0    0  0.55356173528E+02 -0.21540789420E+02  0.42071185883E+02  0.72789396468E+02  0.00000000000E+00 0.  1.
         11    1    4    4    0    0 -0.21541490590E+02 -0.33690601935E+02 -0.20539465066E+01  0.40041368256E+02  0.00000000000E+00 0. -1.
        -11    1    3    3    0    0  0.14852571983E+02  0.67306689392E+02 -0.49175785904E+02  0.84670226472E+02  0.00000000000E+00 0.  1.
         11    1    3    3    0    0 -0.32233459150E+02  0.89291437542E+00  0.13530880301E+02  0.34969671240E+02  0.00000000000E+00 0. -1.
          2    1    1    2  501    0 -0.16433795771E+02 -0.12968212413E+02  0.19180776439E+02  0.28392716697E+02  0.00000000000E+00 0. -1.
<scales pt_clust_5="13000.00000" pt_clust_6="13000.00000" pt_clust_7="13000.00000" pt_clust_8="13000.00000" pt_clust_9="20.93428"></scales>
<clustering>
<clus scale="   20.934">  1  9  2 -1</clus>
<clus scale="   83.279">  5  6 -1 -1</clus>
<clus scale="   89.944">  7  8 -1 -1</clus>
<clus scale="  107.327">  1  5  2 -1</clus>
<clus scale="   20.934">  1  5  2 -1</clus>
</clustering>
</event>
<event>
 9    1  0.1399746E-005  0.1024012E+03  0.7546771E-02  0.1275541E+00
         -2   -1    0    0    0  501 -0.00000000000E+00  0.00000000000E+00  0.13007375776E+03  0.13007375776E+03  0.00000000000E+00 0.  1.
         21   -1    0    0  501  502  0.00000000000E+00 -0.00000000000E+00 -0.13065629892E+03  0.13065629892E+03  0.00000000000E+00 0.  1.
         23    2    1    2    0    0  0.38352432065E+02  0.55374322665E+01  0.18551617626E+02  0.10183833380E+03  0.92332613485E+02 0.  0.
         23    2    1    2    0    0 -0.51487457394E+02  0.35817034205E+02 -0.27773340683E+02  0.11464970381E+03  0.91866086905E+02 0.  0.
        -11    1    3    3    0    0  0.90053720016E+01 -0.35842702873E+02 -0.16194966313E+02  0.40349386711E+02  0.00000000000E+00 0. -1.
         11    1    3    3    0    0  0.29347060063E+02  0.41380135139E+02  0.34746583939E+02  0.61488947087E+02  0.00000000000E+00 0.  1.
        -11    1    4    4    0    0 -0.66090996092E+02  0.50349622522E+02 -0.39856649208E+01  0.83180465119E+02  0.00000000000E+00 0.  1.
         11    1    4    4    0    0  0.14603538698E+02 -0.14532588317E+02 -0.23787675763E+02  0.31469238693E+02  0.00000000000E+00 0. -1.
         -2    1    1    2    0  502  0.13135025329E+02 -0.41354466471E+02  0.86391819007E+01  0.44242019070E+02  0.00000000000E+00 0.  1.
<scales pt_clust_5="13000.00000" pt_clust_6="13000.00000" pt_clust_7="13000.00000" pt_clust_8="13000.00000" pt_clust_9="43.39035"></scales>
<clustering>
<clus scale="   43.390">  2  9  1 -1</clus>
<clus scale="   91.866">  7  8 -1 -1</clus>
<clus scale="   92.333">  5  6 -1 -1</clus>
<clus scale="  101.981">  2  7  1 -1</clus>
<clus scale="   43.390">  2  5  1 -1</clus>
</clustering>
</event>
<event>
 9    1  0.1399746E-005  0.9854106E+02  0.7546771E-02  0.1289946E+00
          4   -1    0    0  502    0 -0.00000000000E+00  0.00000000000E+00  0.47030491885E+03  0.47030491885E+03  0.00000000000E+00 0. -1.
         21   -1    0    0  501  502  0.00000000000E+00 -0.00000000000E+00 -0.31449000868E+02  0.31449000868E+02  0.00000000000E+00 0. -1.
         23    2    1    2    0    0 -0.99953398957E+01 -0.77357490110E+01  0.28948030367E+03  0.30599403612E+03  0.98355250468E+02 0.  0.
         23    2    1    2    0    0 -0.19471134144E+00 -0.14860910894E+02  0.14626519511E+03  0.17077747197E+03  0.86893918345E+02 0.  0.
        -11    1    4    4    0    0  0.51005930430E+00 -0.49134246449E+02  0.11201727804E+03  0.12232050079E+03  0.00000000000E+00 0.  1.
         11    1    4    4    0    0 -0.70477064574E+00  0.34273335555E+02  0.34247917072E+02  0.48456971175E+02  0.00000000000E+00 0. -1.
        -13    1    3    3    0    0  0.32662621409E+02  0.18807257109E+02  0.58336306345E+02  0.69452749371E+02  0.00000000000E+00 0.  1.
         13    1    3    3    0    0 -0.42657961304E+02 -0.26543006120E+02  0.23114399733E+03  0.23654128675E+03  0.00000000000E+00 0. -1.
          4    1    1    2  501    0  0.10190051237E+02  0.22596659906E+02  0.31104191933E+01  0.24982411626E+02  0.00000000000E+00 0. -1.
<scales pt_clust_5="13000.00000" pt_clust_6="13000.00000" pt_clust_7="13000.00000" pt_clust_8="13000.00000" pt_clust_9="24.78802"></scales>
<clustering>
<clus scale="   24.788">  2  9  1 -1</clus>
<clus scale="   86.894">  5  6 -1 -1</clus>
<clus scale="   87.104">  2  5  1 -1</clus>
<clus scale="   98.355">  7  8 -1 -1</clus>
<clus scale="   24.788">  2  5  1 -1</clus>
</clustering>
</event>
<event>
 9    1  0.1399746E-005  0.2566483E+03  0.7546771E-02  0.1109405E+00
         21   -1    0    0  501  502  0.00000000000E+00  0.00000000000E+00  0.69795136383E+02  0.69795136383E+02  0.00000000000E+00 0.  1.
          1   -1    0    0  502    0 -0.00000000000E+00 -0.00000000000E+00 -0.13109050283E+04  0.13109050283E+04  0.00000000000E+00 0. -1.
         23    2    1    2    0    0 -0.16785684071E+03  0.19590895857E+03 -0.81448525284E+03  0.85927689187E+03  0.91729552402E+02 0.  0.
         23    2    1    2    0    0  0.10032443485E+03 -0.18927623801E+03 -0.34277462338E+03  0.41355555773E+03  0.87425799355E+02 0.  0.
        -13    1    3    3    0    0 -0.87924154096E+02  0.38383437606E+02 -0.32653383210E+03  0.34033555304E+03  0.00000000000E+00 0.  1.
         13    1    3    3    0    0 -0.79932686616E+02  0.15752552097E+03 -0.48795142074E+03  0.51894133883E+03  0.00000000000E+00 0. -1.
        -13    1    4    4    0    0  0.24506153141E+02 -0.13502542978E+03 -0.18582850801E+03  0.23100790597E+03  0.00000000000E+00 0. -1.
         13    1    4    4    0    0  0.75818281709E+02 -0.54250808228E+02 -0.15694611537E+03  0.18254765176E+03  0.00000000000E+00 0.  1.
          1    1    1    2  501    0  0.67532405862E+02 -0.66327205607E+01 -0.83850015679E+02  0.10786771506E+03  0.00000000000E+00 0. -1.
<scales pt_clust_5="13000.00000" pt_clust_6="13000.00000" pt_clust_7="13000.00000" pt_clust_8="13000.00000" pt_clust_9="67.85734"></scales>
<clustering>
<clus scale="   67.857">  1  9  2 -1</clus>
<clus scale="   87.426">  7  8 -1 -1</clus>
<clus scale="   91.730">  5  6 -1 -1</clus>
<clus scale="  255.142">  1  7  2 -1</clus>
<clus scale="   67.857">  1  5  2 -1</clus>
</clustering>
</event>
<event>
 9    1  0.1399746E-005  0.2355375E+03  0.7546771E-02  0.1122886E+00
          2   -1    0    0  502    0 -0.00000000000E+00  0.00000000000E+00  0.76625243094E+03  0.76625243094E+03  0.00000000000E+00 0. -1.
         21   -1    0    0  501  502  0.00000000000E+00 -0.00000000000E+00 -0.37875478342E+03  0.37875478342E+03  0.00000000000E+00 0. -1.
         23    2    1    2    0    0 -0.17742094836E+03  0.12791134988E+03  0.69834667070E+03  0.73731004809E+03  0.89991822895E+02 0.  0.
         23    2    1    2    0    0  0.14740551548E+03 -0.13107605231E+03 -0.20923219442E+03  0.30169281994E+03  0.91275018141E+02 0.  0.
        -11    1    3    3    0    0 -0.54537414248E+02  0.51198007615E+02  0.38361610982E+03  0.39084125326E+03  0.00000000000E+00 0.  1.
         11    1    3    3    0    0 -0.12288353411E+03  0.76713342265E+02  0.31473056088E+03  0.34646879483E+03  0.00000000000E+00 0. -1.
        -13    1    4    4    0    0  0.22001720490E+02  0.12244998305E+02 -0.38042359864E+02  0.45620574657E+02  0.00000000000E+00 0.  1.
         13    1    4    4    0    0  0.12540379499E+03 -0.14332105062E+03 -0.17118983456E+03  0.25607224528E+03  0.00000000000E+00 0. -1.
          2    1    1    2  501    0  0.30015432885E+02  0.31647024334E+01 -0.10161682877E+03  0.10600434633E+03  0.00000000000E+00 0. -1.
<scales pt_clust_5="13000.00000" pt_clust_6="13000.00000" pt_clust_7="13000.00000" pt_clust_8="13000.00000" pt_clust_9="30.18181"></scales>
<clustering>
<clus scale="   30.182">  2  9  1 -1</clus>
<clus scale="   89.992">  5  6 -1 -1</clus>
<clus scale="   91.275">  7  8 -1 -1</clus>
<clus scale="  235.043">  1  5  2 -1</clus>
<clus scale="   30.182">  2  5  1 -1</clus>
</clustering>
</event>
<event>
 9    1  0.1399746E-005  0.9724075E+02  0.7546771E-02  0.1287114E+00
         21   -1    0    0  501  502  0.00000000000E+00  0.00000000000E+00  0.38615551168E+03  0.38615551168E+03  0.00000000000E+00 0. -1.
          1   -1    0    0  502    0 -0.00000000000E+00 -0.00000000000E+00 -0.77629632659E+02  0.77629632659E+02  0.00000000000E+00 0. -1.
         23    2    1    2    0    0  0.12065827360E+02  0.30125534006E+02  0.11106044584E+01  0.95691241755E+02  0.90013600736E+02 0.  0.
         23    2    1    2    0    0 -0.44640540436E+02 -0.24833306411E+02  0.59611381077E+02  0.11810212426E+03  0.88233349942E+02 0.  0.
        -11    1    4    4    0    0 -0.87790848586E+01 -0.40498547518E+02  0.66511853369E+02  0.78364732633E+02  0.00000000000E+00 0.  1.
         11    1    4    4    0    0 -0.35861455578E+02  0.15665241108E+02 -0.69004722915E+01  0.39737391623E+02  0.00000000000E+00 0. -1.
        -13    1    3    3    0    0  0.28259288310E+02  0.54211147479E+02 -0.14365459782E+02  0.62799700011E+02  0.00000000000E+00 0.  1.
         13    1    3    3    0    0 -0.16193460950E+02 -0.24085613473E+02  0.15476064241E+02  0.32891541744E+02  0.00000000000E+00 0. -1.
          1    1    1    2  501    0  0.32574713076E+02 -0.52922275949E+01  0.24780389348E+03  0.24999177832E+03  0.00000000000E+00 0. -1.
<scales pt_clust_5="13000.00000" pt_clust_6="13000.00000" pt_clust_7="13000.00000" pt_clust_8="13000.00000" pt_clust_9="33.00181"></scales>
<clustering>
<clus scale="   33.002">  1  9  2 -1</clus>
<clus scale="   88.233">  5  6 -1 -1</clus>
<clus scale="   90.014">  7  8 -1 -1</clus>
<clus scale="   95.595">  1  5  2 -1</clus>
<clus scale="   33.002">  1  5  2 -1</clus>
</clustering>
</event>
<event>
 9    1  0.1399746E-005  0.1493687E+03  0.7546771E-02  0.1201834E+00
         -1   -1    0    0    0  501 -0.00000000000E+00  0.00000000000E+00  0.16104695478E+03  0.16104695478E+03  0.00000000000E+00 0.  1.
         21   -1    0    0  501  502  0.00000000000E+00 -0.00000000000E+00 -0.90410895507E+03  0.90410895507E+03  0.00000000000E+00 0.  1.
         23    2    1    2    0    0  0.10476881892E+03  0.53917105894E+02  0.90907354893E+02  0.17508985914E+03  0.92242896064E+02 0.  0.
         23    2    1    2    0    0 -0.40727751472E+02 -0.15777940436E+03 -0.43911275613E+03  0.47678603766E+03  0.89172994432E+02 0.  0.
        -11    1    4    4    0    0 -0.15129448344E+02 -0.15729035516E+03 -0.34898524654E+03  0.38309249319E+03  0.00000000000E+00 0.  1.
         11    1    4    4    0    0 -0.25598303128E+02 -0.48904920292E+00 -0.90127509588E+02  0.93693544477E+02  0.00000000000E+00 0. -1.
        -11    1    3    3    0    0  0.96807441482E+02  0.12822397193E+02  0.90632119453E+02  0.13323016052E+03  0.00000000000E+00 0.  1.
         11    1    3    3    0    0  0.79613774405E+01  0.41094708702E+02  0.27523543993E+00  0.41859698620E+02  0.00000000000E+00 0. -1.
         -1    1    1    2    0  502 -0.64041067450E+02  0.10386229847E+03 -0.39485659906E+03  0.41328001304E+03  0.00000000000E+00 0.  1.
<scales pt_clust_5="13000.00000" pt_clust_6="13000.00000" pt_clust_7="13000.00000" pt_clust_8="13000.00000" pt_clust_9="122.01900"></scales>
<clustering>
<clus scale="   89.173">  5  6 -1 -1</clus>
<clus scale="   92.243">  7  8 -1 -1</clus>
<clus scale="  122.019">  2  9  1 -1</clus>
<clus scale="  147.493">  2  5  1 -1</clus>
<clus scale="  122.019">  2  5  1 -1</clus>
</clustering>
</event>
<event>
 9    1  0.1399746E-005  0.1515679E+03  0.7546771E-02  0.1198645E+00
         21   -1    0    0  501  502  0.00000000000E+00  0.00000000000E+00  0.35571027271E+03  0.35571027271E+03  0.00000000000E+00 0.  1.
         -1   -1    0    0    0  501 -0.00000000000E+00 -0.00000000000E+00 -0.20470045072E+03  0.20470045072E+03  0.00000000000E+00 0.  1.
         23    2    1    2    0    0 -0.10893143805E+03  0.62774708145E+02 -0.86708499191E+02  0.17755541905E+03  0.90558493934E+02 0.  0.
         23    2    1    2    0    0  0.70624668316E+02 -0.96861054400E+02  0.11565640409E+02  0.15096239241E+03  0.91027315946E+02 0.  0.
        -11    1    4    4    0    0  0.32416836518E+02 -0.74267772122E+02 -0.33519620962E+02  0.87693319331E+02  0.00000000000E+00 0.  1.
         11    1    4    4    0    0  0.38207831798E+02 -0.22593282278E+02  0.45085261371E+02  0.63269073075E+02  0.00000000000E+00 0. -1.
        -13    1    3    3    0    0 -0.40456919668E+02  0.71012968523E+02 -0.26254822851E+02  0.85842412422E+02  0.00000000000E+00 0. -1.
         13    1    3    3    0    0 -0.68474518383E+02 -0.82382603782E+01 -0.60453676340E+02  0.91713006628E+02  0.00000000000E+00 0.  1.
         -1    1    1    2    0  502  0.38306769735E+02  0.34086346255E+02  0.22615268077E+03  0.23189291198E+03  0.00000000000E+00 0.  1.
<scales pt_clust_5="13000.00000" pt_clust_6="13000.00000" pt_clust_7="13000.00000" pt_clust_8="13000.00000" pt_clust_9="51.27658"></scales>
<clustering>
<clus scale="   51.277">  1  9  2 -1</clus>
<clus scale="   90.558">  7  8 -1 -1</clus>
<clus scale="   91.027">  5  6 -1 -1</clus>
<clus scale="  151.287">  2  7  1 -1</clus>
<clus scale="   51.277">  1  5  2 -1</clus>
</clustering>
</event>
<event>
 9    1  0.1726898E-005  0.2381494E+03  0.7546771E-02  0.1145537E+00
         21   -1    0    0  501  502  0.00000000000E+00  0.00000000000E+00  0.93075910036E+02  0.93075910036E+02  0.00000000000E+00 0. -1.
          2   -1    0    0  502    0 -0.00000000000E+00 -0.00000000000E+00 -0.19339776178E+04  0.19339776178E+04  0.00000000000E+00 0. -1.
         23    2    1    2    0    0  0.13369021251E+02 -0.93204091670E+02 -0.93376103129E+02  0.16080363451E+03  0.90955916814E+02 0.  0.
         23    2    1    2    0    0  0.11439494908E+03  0.26152776023E+03 -0.15444504833E+04  0.15731697091E+04  0.89736638593E+02 0.  0.
        -13    1    4    4    0    0  0.62259987815E+02  0.53117908518E+02 -0.34008679731E+03  0.34979543735E+03  0.00000000000E+00 0.  1.
         13    1    4    4    0    0  0.52134961262E+02  0.20840985171E+03 -0.12043636860E+04  0.12233742717E+04  0.00000000000E+00 0. -1.
        -13    1    3    3    0    0 -0.34051879773E+02 -0.11410557824E+02 -0.31846734259E+02  0.47999435714E+02  0.00000000000E+00 0.  1.
         13    1    3    3    0    0  0.47420901024E+02 -0.81793533846E+02 -0.61529368870E+02  0.11280419880E+03  0.00000000000E+00 0. -1.
          2    1    1    2  501    0 -0.12776397033E+03 -0.16832366855E+03 -0.20307512128E+03  0.29308018423E+03  0.00000000000E+00 0. -1.
<scales pt_clust_5="13000.00000" pt_clust_6="13000.00000" pt_clust_7="13000.00000" pt_clust_8="13000.00000" pt_clust_9="220.59577"></scales>
<clustering>
<clus scale="   89.737">  5  6 -1 -1</clus>
<clus scale="   90.956">  7  8 -1 -1</clus>
<clus scale="  130.915">  2  7  1 -1</clus>
<clus scale="  220.596">  1  9  2 -1</clus>
<clus scale="  220.596">  1  5  2 -1</clus>
</clustering>
</event>
<event>
 9    1  0.1399746E-005  0.1043144E+03  0.7546771E-02  0.1271708E+00
          1   -1    0    0  502    0 -0.00000000000E+00  0.00000000000E+00  0.18267699680E+03  0.18267699680E+03  0.00000000000E+00 0. -1.
         21   -1    0    0  501  502  0.00000000000E+00 -0.00000000000E+00 -0.33833755425E+03  0.33833755425E+03  0.00000000000E+00 0. -1.
         23    2    1    2    0    0 -0.13967889955E+02  0.50664279399E+02  0.14609327073E+03  0.17997231434E+03  0.91020981203E+02 0.  0.
         23    2    1    2    0    0 -0.36192114939E+02 -0.25445654058E+02 -0.21294018189E+03  0.23597145618E+03  0.91551387619E+02 0.  0.
        -11    1    3    3    0    0 -0.30335471065E+02  0.64895781971E+02  0.67450709954E+02  0.98393605461E+02  0.00000000000E+00 0. -1.
         11    1    3    3    0    0  0.16367581110E+02 -0.14231502572E+02  0.78642560772E+02  0.81578708874E+02  0.00000000000E+00 0.  1.
        -11    1    4    4    0    0 -0.55655215179E+02 -0.35906738943E+02 -0.93965158654E+02  0.11496194118E+03  0.00000000000E+00 0. -1.
         11    1    4    4    0    0  0.19463100239E+02  0.10461084885E+02 -0.11897502323E+03  0.12100951500E+03  0.00000000000E+00 0.  1.
          1    1    1    2  501    0  0.50160004895E+02 -0.25218625341E+02 -0.88813646283E+02  0.10507078053E+03  0.00000000000E+00 0. -1.
<scales pt_clust_5="13000.00000" pt_clust_6="13000.00000" pt_clust_7="13000.00000" pt_clust_8="13000.00000" pt_clust_9="56.14272"></scales>
<clustering>
<clus scale="   56.143">  2  9  1 -1</clus>
<clus scale="   91.021">  5  6 -1 -1</clus>
<clus scale="   91.551">  7  8 -1 -1</clus>
<clus scale="  103.849">  1  5  2 -1</clus>
<clus scale="   56.143">  2  5  1 -1</clus>
</clustering>
</event>
<event>
 9    1  0.1399746E-005  0.9830395E+02  0.7546771E-02  0.1285115E+00
          2   -1    0    0  502    0 -0.00000000000E+00  0.00000000000E+00  0.45345510453E+03  0.45345510453E+03  0.00000000000E+00 0. -1.
         21   -1    0    0  501  502  0.00000000000E+00 -0.00000000000E+00 -0.33263367205E+02  0.33263367205E+02  0.00000000000E+00 0. -1.
         23    2    1    2    0    0  0.31564811545E+02  0.28094755801E+02  0.26117540681E+03  0.28050679364E+03  0.93197722763E+02 0.  0.
         23    2    1    2    0    0 -0.42254708153E+01 -0.18389970408E+02  0.14898328193E+03  0.17551502559E+03  0.90848556941E+02 0.  0.
        -11    1    3    3    0    0 -0.32612965169E+02  0.50048137436E+01  0.66631168349E+02  0.74352984159E+02  0.00000000000E+00 0. -1.
         11    1    3    3    0    0  0.64177776714E+02  0.23089942057E+02  0.19454423846E+03  0.20615380949E+03  0.00000000000E+00 0.  1.
        -13    1    4    4    0    0 -0.34897213293E+01  0.36669816432E+02  0.71867710161E+02  0.80757794397E+02  0.00000000000E+00 0. -1.
         13    1    4    4    0    0 -0.73574948601E+00 -0.55059786840E+02  0.77115571765E+02  0.94757231190E+02  0.00000000000E+00 0.  1.
          2    1    1    2  501    0 -0.27339340729E+02 -0.97047853921E+01  0.10033048594E+02  0.30696652507E+02  0.00000000000E+00 0. -1.
<scales pt_clust_5="13000.00000" pt_clust_6="13000.00000" pt_clust_7="13000.00000" pt_clust_8="13000.00000" pt_clust_9="29.01073"></scales>
<clustering>
<clus scale="   29.011">  2  9  1 -1</clus>
<clus scale="   90.849">  7  8 -1 -1</clus>
<clus scale="   93.198">  5  6 -1 -1</clus>
<clus scale="   96.080">  2  7  1 -1</clus>
<clus scale="   29.011">  2  5  1 -1</clus>
</clustering>
</event>
<event>
 9    1  0.1399746E-005  0.1193702E+03  0.7546771E-02  0.1250069E+00
         21   -1    0    0  501  502  0.00000000000E+00  0.00000000000E+00  0.39032183838E+03  0.39032183838E+03  0.00000000000E+00 0. -1.
         -3   -1    0    0    0  501 -0.00000000000E+00 -0.00000000000E+00 -0.39799496579E+02  0.39799496579E+02  0.00000000000E+00 0.  1.
         23    2    1    2    0    0  0.45631448871E+02 -0.56293902558E+02  0.13560541993E+03  0.17456701738E+03  0.82665476797E+02 0.  0.
         23    2    1    2    0    0 -0.49057216071E+02  0.34673660234E+02  0.17367347961E+03  0.20886178831E+03  0.99256717325E+02 0.  0.
        -11    1    3    3    0    0 -0.14641106831E+02 -0.29137215719E+02  0.85828487139E+02  0.91814315624E+02  0.00000000000E+00 0. -1.
         11    1    3    3    0    0  0.60272555702E+02 -0.27156686839E+02  0.49776932787E+02  0.82752701760E+02  0.00000000000E+00 0.  1.
        -13    1    4    4    0    0  0.24020496674E+02  0.39077359695E+01  0.87380768604E+01  0.25857467936E+02  0.00000000000E+00 0.  1.
         13    1    4    4    0    0 -0.73077712745E+02  0.30765924265E+02  0.16493540275E+03  0.18300432037E+03  0.00000000000E+00 0. -1.
         -3    1    1    2    0  502  0.34257671998E+01  0.21620242324E+02  0.41243442267E+02  0.46692529264E+02  0.00000000000E+00 0.  1.
<scales pt_clust_5="13000.00000" pt_clust_6="13000.00000" pt_clust_7="13000.00000" pt_clust_8="13000.00000" pt_clust_9="21.88997"></scales>
<clustering>
<clus scale="   21.890">  1  9  2 -1</clus>
<clus scale="   82.665">  5  6 -1 -1</clus>
<clus scale="   99.257">  7  8 -1 -1</clus>
<clus scale="  105.976">  2  5  1 -1</clus>
<clus scale="   21.890">  1  5  2 -1</clus>
</clustering>
</event>
<event>
 9    1  0.1399746E-005  0.9496052E+02  0.7546771E-02  0.1294789E+00
         -1   -1    0    0    0  501 -0.00000000000E+00  0.00000000000E+00  0.20776537386E+03  0.20776537386E+03  0.00000000000E+00 0.  1.
         21   -1    0    0  501  502  0.00000000000E+00 -0.00000000000E+00 -0.95151198786E+02  0.95151198786E+02  0.00000000000E+00 0. -1.
         23    2    1    2    0    0 -0.21248157079E+02 -0.18689516391E+02  0.13622312864E+03  0.16646846593E+03  0.91401461530E+02 0.  0.
         23    2    1    2    0    0  0.22335073870E+02 -0.74025564018E+01 -0.48178321217E+02  0.10059240316E+03  0.85111853301E+02 0.  0.
        -11    1    3    3    0    0  0.11315655764E+01  0.25003551541E+02  0.10578740399E+03  0.10870801660E+03  0.00000000000E+00 0.  1.
         11    1    3    3    0    0 -0.22379722655E+02 -0.43693067932E+02  0.30435724647E+02  0.57760449325E+02  0.00000000000E+00 0. -1.
        -13    1    4    4    0    0  0.51375469732E+02 -0.20273934358E+02 -0.38711647744E+02  0.67446741771E+02  0.00000000000E+00 0. -1.
         13    1    4    4    0    0 -0.29040395862E+02  0.12871377956E+02 -0.94666734732E+01  0.33145661390E+02  0.00000000000E+00 0.  1.
         -1    1    1    2    0  502 -0.10869167911E+01  0.26092072792E+02  0.24569367650E+02  0.35855703555E+02  0.00000000000E+00 0.  1.
<scales pt_clust_5="13000.00000" pt_clust_6="13000.00000" pt_clust_7="13000.00000" pt_clust_8="13000.00000" pt_clust_9="26.11471"></scales>
<clustering>
<clus scale="   26.115">  2  9  1 -1</clus>
<clus scale="   85.112">  7  8 -1 -1</clus>
<clus scale="   88.923">  2  7  1 -1</clus>
<clus scale="   91.401">  5  6 -1 -1</clus>
<clus scale="   26.115">  2  5  1 -1</clus>
</clustering>
</event>
<event>
 9    1  0.1399746E-005  0.1217662E+03  0.7546771E-02  0.1240809E+00
         21   -1    0    0  501  502  0.00000000000E+00  0.00000000000E+00  0.35214104001E+03  0.35214104001E+03  0.00000000000E+00 0.  1.
         -3   -1    0    0    0  501 -0.00000000000E+00 -0.00000000000E+00 -0.14164991607E+03  0.14164991607E+03  0.00000000000E+00 0.  1.
         23    2    1    2    0    0 -0.67680587202E+02 -0.46884824167E+02 -0.88264318705E+02  0.14988886394E+03  0.88866376977E+02 0.  0.
         23    2    1    2    0    0  0.34371695851E+02  0.75568522490E+02  0.18750050010E+03  0.22427810192E+03  0.90841699652E+02 0.  0.
        -11    1    3    3    0    0 -0.21773369945E+02  0.15775021836E+02  0.61961203577E+01  0.27592079664E+02  0.00000000000E+00 0. -1.
         11    1    3    3    0    0 -0.45907217257E+02 -0.62659846004E+02 -0.94460439063E+02  0.12229678428E+03  0.00000000000E+00 0.  1.
        -13    1    4    4    0    0  0.45671832315E+02  0.46737678139E+02  0.18127270298E+03  0.19269177375E+03  0.00000000000E+00 0.  1.
         13    1    4    4    0    0 -0.11300136464E+02  0.28830844351E+02  0.62277971150E+01  0.31586328166E+02  0.00000000000E+00 0. -1.
         -3    1    1    2    0  502  0.33308891351E+02 -0.28683698323E+02  0.11125494255E+03  0.11962399021E+03  0.00000000000E+00 0.  1.
<scales pt_clust_5="13000.00000" pt_clust_6="13000.00000" pt_clust_7="13000.00000" pt_clust_8="13000.00000" pt_clust_9="43.95722"></scales>
<clustering>
<clus scale="   43.957">  1  9  2 -1</clus>
<clus scale="   88.866">  5  6 -1 -1</clus>
<clus scale="   90.842">  7  8 -1 -1</clus>
<clus scale="  120.300">  2  5  1 -1</clus>
<clus scale="   43.957">  1  5  2 -1</clus>
</clustering>
</event>
<event>
 9    1  0.1399746E-005  0.1118202E+03  0.7546771E-02  0.1266161E+00
         21   -1    0    0  501  502  0.00000000000E+00  0.00000000000E+00  0.32496754792E+02  0.32496754792E+02  0.00000000000E+00 0.  1.
          2   -1    0    0  502    0 -0.00000000000E+00 -0.00000000000E+00 -0.40426911880E+03  0.40426911880E+03  0.00000000000E+00 0. -1.
         23    2    1    2    0    0 -0.13607680678E+02  0.95658507395E+00 -0.19942651633E+03  0.22785093228E+03  0.10935734039E+03 0.  0.
         23    2    1    2    0    0  0.31657955017E+02 -0.10153689322E+02 -0.15192411476E+03  0.18014957488E+03  0.90926394204E+02 0.  0.
        -13    1    3    3    0    0  0.32554542962E+02  0.11876071267E+01 -0.11829342630E+02  0.34657495946E+02  0.00000000000E+00 0.  1.
         13    1    3    3    0    0 -0.46162223640E+02 -0.23102205273E+00 -0.18759717370E+03  0.19319343634E+03  0.00000000000E+00 0. -1.
        -13    1    4    4    0    0  0.19153304733E+02 -0.49989053810E+02 -0.10088755128E+03  0.11421056250E+03  0.00000000000E+00 0.  1.
         13    1    4    4    0    0  0.12504650284E+02  0.39835364488E+02 -0.51036563474E+02  0.65939012382E+02  0.00000000000E+00 0. -1.
          2    1    1    2  501    0 -0.18050274339E+02  0.91971042479E+01 -0.20421732920E+02  0.28765366428E+02  0.00000000000E+00 0. -1.
<scales pt_clust_5="13000.00000" pt_clust_6="13000.00000" pt_clust_7="13000.00000" pt_clust_8="13000.00000" pt_clust_9="20.25831"></scales>
<clustering>
<clus scale="   20.258">  1  9  2 -1</clus>
<clus scale="   90.926">  7  8 -1 -1</clus>
<clus scale="   93.874">  1  7  2 -1</clus>
<clus scale="  109.357">  5  6 -1 -1</clus>
<clus scale="   20.258">  1  5  2 -1</clus>
</clustering>
</event>
<event>
 9    1  0.1399746E-005  0.1788097E+03  0.7546771E-02  0.1169672E+00
         -1   -1    0    0    0  501 -0.00000000000E+00  0.00000000000E+00  0.12959859557E+04  0.12959859557E+04  0.00000000000E+00 0.  1.
         21   -1    0    0  501  502  0.00000000000E+00 -0.00000000000E+00 -0.44275482338E+02  0.44275482338E+02  0.00000000000E+00 0.  1.
         23    2    1    2    0    0 -0.52305966763E+02 -0.13567203728E+03  0.79748238096E+03  0.81578222864E+03  0.91540596214E+02 0.  0.
         23    2    1    2    0    0  0.43172175844E+02  0.15432737079E+03  0.46483464045E+03  0.50115654951E+03  0.96983864716E+02 0.  0.
        -11    1    3    3    0    0  0.22479259531E+02 -0.80507280462E+01  0.10613642202E+03  0.10878911440E+03  0.00000000000E+00 0. -1.
         11    1    3    3    0    0 -0.74785226294E+02 -0.12762130923E+03  0.69134595894E+03  0.70699311424E+03  0.00000000000E+00 0.  1.
        -11    1    4    4    0    0 -0.21489963467E+02  0.10126866293E+03  0.24722903316E+03  0.26802864671E+03  0.00000000000E+00 0.  1.
         11    1    4    4    0    0  0.64662139311E+02  0.53058707861E+02  0.21760560729E+03  0.23312790280E+03  0.00000000000E+00 0. -1.
         -1    1    1    2    0  502  0.91337909188E+01 -0.18655333511E+02 -0.10606548019E+02  0.23322659922E+02  0.00000000000E+00 0.  1.
<scales pt_clust_5="13000.00000" pt_clust_6="13000.00000" pt_clust_7="13000.00000" pt_clust_8="13000.00000" pt_clust_9="20.77132"></scales>
<clustering>
<clus scale="   20.771">  2  9  1 -1</clus>
<clus scale="   91.541">  5  6 -1 -1</clus>
<clus scale="   96.984">  7  8 -1 -1</clus>
<clus scale="  175.917">  1  5  2 -1</clus>
<clus scale="   20.771">  2  5  1 -1</clus>
</clustering>
</event>
<event>
 9    1  0.1399746E-005  0.1110737E+03  0.7546771E-02  0.1259269E+00
         21   -1    0    0  501  502  0.00000000000E+00  0.00000000000E+00  0.67006026337E+03  0.67006026337E+03  0.00000000000E+00 0.  1.
         -1   -1    0    0    0  501 -0.00000000000E+00 -0.00000000000E+00 -0.77851344547E+02  0.77851344547E+02  0.00000000000E+00 0.  1.
         23    2    1    2    0    0 -0.10347471672E+02 -0.24680517704E+02  0.63617844676E+02  0.11633273763E+03  0.93647624421E+02 0.  0.
         23    2    1    2    0    0 -0.37122658138E+02  0.95973321869E+02  0.52143072856E+02  0.14749336639E+03  0.91904422218E+02 0.  0.
        -13    1    4    4    0    0 -0.78542413628E+01  0.99509035373E+02  0.60662157819E+02  0.11680596997E+03  0.00000000000E+00 0. -1.
         13    1    4    4    0    0 -0.29268416775E+02 -0.35357135031E+01 -0.85190849637E+01  0.30687396421E+02  0.00000000000E+00 0.  1.
        -13    1    3    3    0    0 -0.16000692945E+02 -0.49060262337E+02  0.40988004192E+01  0.51766124833E+02  0.00000000000E+00 0.  1.
         13    1    3    3    0    0  0.56532212730E+01  0.24379744633E+02  0.59519044257E+02  0.64566612799E+02  0.00000000000E+00 0. -1.
         -1    1    1    2    0  502  0.47470129810E+02 -0.71292804166E+02  0.47644800129E+03  0.48408550390E+03  0.00000000000E+00 0.  1.
<scales pt_clust_5="13000.00000" pt_clust_6="13000.00000" pt_clust_7="13000.00000" pt_clust_8="13000.00000" pt_clust_9="85.65090"></scales>
<clustering>
<clus scale="   85.651">  1  9  2 -1</clus>
<clus scale="   91.904">  5  6 -1 -1</clus>
<clus scale="   93.648">  7  8 -1 -1</clus>
<clus scale="  109.608">  1  5  2 -1</clus>
<clus scale="   85.651">  1  5  2 -1</clus>
</clustering>
</event>
<event>
 9    1  0.1399746E-005  0.1358854E+03  0.7546771E-02  0.1231087E+00
         21   -1    0    0  501  502  0.00000000000E+00  0.00000000000E+00  0.13696794625E+03  0.13696794625E+03  0.00000000000E+00 0. -1.
          3   -1    0    0  502    0 -0.00000000000E+00 -0.00000000000E+00 -0.28380636128E+03  0.28380636128E+03  0.00000000000E+00 0. -1.
         23    2    1    2    0    0  0.52352114814E+02 -0.84461843990E+01 -0.13876939156E+03  0.17437748222E+03  0.91315279743E+02 0.  0.
         23    2    1    2    0    0  0.45247507182E+02 -0.57979365572E+02 -0.41580414180E+02  0.12367334260E+03  0.90317335477E+02 0.  0.
        -13    1    4    4    0    0  0.69055140663E+02 -0.20435754855E+02 -0.26102169499E+02  0.76599972461E+02  0.00000000000E+00 0. -1.
         13    1    4    4    0    0 -0.23807633481E+02 -0.37543610717E+02 -0.15478244681E+02  0.47073370137E+02  0.00000000000E+00 0.  1.
        -13    1    3    3    0    0  0.48629286160E+01  0.25403483341E+02 -0.10247231155E+03  0.10568613757E+03  0.00000000000E+00 0.  1.
         13    1    3    3    0    0  0.47489186198E+02 -0.33849667740E+02 -0.36297080006E+02  0.68691344642E+02  0.00000000000E+00 0. -1.
          3    1    1    2  501    0 -0.97599621996E+02  0.66425549971E+02  0.33511390704E+02  0.12272348271E+03  0.00000000000E+00 0. -1.
<scales pt_clust_5="13000.00000" pt_clust_6="13000.00000" pt_clust_7="13000.00000" pt_clust_8="13000.00000" pt_clust_9="101.52644"></scales>
<clustering>
<clus scale="   90.317">  5  6 -1 -1</clus>
<clus scale="   91.315">  7  8 -1 -1</clus>
<clus scale="  105.596">  2  7  1 -1</clus>
<clus scale="  101.526">  1  9  2 -1</clus>
<clus scale="  101.526">  1  5  2 -1</clus>
</clustering>
</event>
<event>
 9    1  0.1399746E-005  0.1058351E+03  0.7546771E-02  0.1269654E+00
         21   -1    0    0  501  502  0.00000000000E+00  0.00000000000E+00  0.78502179697E+02  0.78502179697E+02  0.00000000000E+00 0.  1.
         -1   -1    0    0    0  501 -0.00000000000E+00 -0.00000000000E+00 -0.63062240035E+03  0.63062240035E+03  0.00000000000E+00 0.  1.
         23    2    1    2    0    0 -0.53044900106E+02  0.28088628146E+02 -0.39538656039E+03  0.41064225518E+03  0.93240533823E+02 0.  0.
         23    2    1    2    0    0  0.26068339226E+02 -0.26817642498E+02 -0.21389702324E+03  0.23526049076E+03  0.90536278382E+02 0.  0.
        -11    1    4    4    0    0 -0.15007524654E+02 -0.31565973978E+02 -0.17511805573E+03  0.17857203015E+03  0.00000000000E+00 0.  1.
         11    1    4    4    0    0  0.41075863880E+02  0.47483314800E+01 -0.38778967512E+02  0.56688460613E+02  0.00000000000E+00 0. -1.
        -13    1    3    3    0    0 -0.44556974895E+02  0.61753133109E+02 -0.27533431069E+03  0.28567071272E+03  0.00000000000E+00 0. -1.
         13    1    3    3    0    0 -0.84879252103E+01 -0.33664504964E+02 -0.12005224970E+03  0.12497154246E+03  0.00000000000E+00 0.  1.
         -1    1    1    2    0  502  0.26976560879E+02 -0.12709856479E+01  0.57163362972E+02  0.63221834105E+02  0.00000000000E+00 0.  1.
<scales pt_clust_5="13000.00000" pt_clust_6="13000.00000" pt_clust_7="13000.00000" pt_clust_8="13000.00000" pt_clust_9="27.00649"></scales>
<clustering>
<clus scale="   27.006">  1  9  2 -1</clus>
<clus scale="   90.536">  5  6 -1 -1</clus>
<clus scale="   93.241">  7  8 -1 -1</clus>
<clus scale="  103.461">  1  5  2 -1</clus>
<clus scale="   27.006">  1  5  2 -1</clus>
</clustering>
</event>
<event>
 9    1  0.1399746E-005  0.1241652E+03  0.7546771E-02  0.1237048E+00
         -3   -1    0    0    0  501 -0.00000000000E+00  0.00000000000E+00  0.45696703823E+03  0.45696703823E+03  0.00000000000E+00 0.  1.
         21   -1    0    0  501  502  0.00000000000E+00 -0.00000000000E+00 -0.10146854031E+03  0.10146854031E+03  0.00000000000E+00 0.  1.
         23    2    1    2    0    0 -0.33162914185E+02 -0.60149617472E+02  0.20446905711E+03  0.23331848491E+03  0.88950349769E+02 0.  0.
         23    2    1    2    0    0  0.25416773588E+02  0.16211236901E+03  0.92940704231E+02  0.20751306857E+03  0.86586757395E+02 0.  0.
        -13    1    3    3    0    0 -0.32475026731E+02  0.15040427144E+02  0.84031847936E+02  0.91335607938E+02  0.00000000000E+00 0.  1.
         13    1    3    3    0    0 -0.68788745412E+00 -0.75190044615E+02  0.12043720918E+03  0.14198287697E+03  0.00000000000E+00 0. -1.
        -13    1    4    4    0    0  0.50503819193E+02  0.64930551239E+02  0.60220330280E+02  0.10194655667E+03  0.00000000000E+00 0.  1.
         13    1    4    4    0    0 -0.25087045605E+02  0.97181817773E+02  0.32720373952E+02  0.10556651190E+03  0.00000000000E+00 0. -1.
         -3    1    1    2    0  502  0.77461405968E+01 -0.10196275154E+03  0.58088736577E+02  0.11760402507E+03  0.00000000000E+00 0.  1.
<scales pt_clust_5="13000.00000" pt_clust_6="13000.00000" pt_clust_7="13000.00000" pt_clust_8="13000.00000" pt_clust_9="102.25657"></scales>
<clustering>
<clus scale="   86.587">  7  8 -1 -1</clus>
<clus scale="   88.950">  5  6 -1 -1</clus>
<clus scale="  102.257">  2  9  1 -1</clus>
<clus scale="  122.483">  2  7  1 -1</clus>
<clus scale="  102.257">  2  5  1 -1</clus>
</clustering>
</event>
<event>
 9    1  0.1399746E-005  0.1155126E+03  0.7546771E-02  0.1251141E+00
         21   -1    0    0  501  502  0.00000000000E+00  0.00000000000E+00  0.79131874427E+02  0.79131874427E+02  0.00000000000E+00 0.  1.
         -2   -1    0    0    0  501 -0.00000000000E+00 -0.00000000000E+00 -0.32593768494E+03  0.32593768494E+03  0.00000000000E+00 0.  1.
         23    2    1    2    0    0 -0.11726690092E+01  0.62138913449E+02 -0.17423638478E+03  0.20663791870E+03  0.92077640860E+02 0.  0.
         23    2    1    2    0    0  0.19558139662E+02 -0.82508398828E+02 -0.10012318125E+03  0.15954525604E+03  0.90773788049E+02 0.  0.
        -13    1    4    4    0    0  0.40527670050E+02 -0.53062349441E+02 -0.10357525421E+03  0.12323123895E+03  0.00000000000E+00 0.  1.
         13    1    4    4    0    0 -0.20969530388E+02 -0.29446049387E+02  0.34520729663E+01  0.36314017087E+02  0.00000000000E+00 0. -1.
        -13    1    3    3    0    0 -0.27125699190E+02  0.71453347999E+02 -0.15559857582E+03  0.17335599584E+03  0.00000000000E+00 0.  1.
         13    1    3    3    0    0  0.25953030181E+02 -0.93144345498E+01 -0.18637808968E+02  0.33281922866E+02  0.00000000000E+00 0. -1.
         -2    1    1    2    0  502 -0.18385470653E+02  0.20369485379E+02  0.27553755521E+02  0.38886384623E+02  0.00000000000E+00 0.  1.
<scales pt_clust_5="13000.00000" pt_clust_6="13000.00000" pt_clust_7="13000.00000" pt_clust_8="13000.00000" pt_clust_9="27.43978"></scales>
<clustering>
<clus scale="   27.440">  1  9  2 -1</clus>
<clus scale="   90.774">  5  6 -1 -1</clus>
<clus scale="   92.078">  7  8 -1 -1</clus>
<clus scale="  114.476">  1  5  2 -1</clus>
<clus scale="   27.440">  1  5  2 -1</clus>
</clustering>
</event>
<event>
 9    1  0.1399746E-005  0.1104368E+03  0.7546771E-02  0.1261343E+00
         21   -1    0    0  501  502  0.00000000000E+00  0.00000000000E+00  0.15919684347E+03  0.15919684347E+03  0.00000000000E+00 0. -1.
         -4   -1    0    0    0  501 -0.00000000000E+00 -0.00000000000E+00 -0.11212318857E+03  0.11212318857E+03  0.00000000000E+00 0.  1.
         23    2    1    2    0    0 -0.57223770922E+02 -0.22147959680E+02 -0.16013075997E+02  0.10827760884E+03  0.87764058117E+02 0.  0.
         23    2    1    2    0    0  0.41597965928E+02  0.53153340481E+02  0.58195320443E+02  0.12797926139E+03  0.91849483669E+02 0.  0.
        -11    1    4    4    0    0  0.17102404776E+01  0.58675216669E+02  0.18569903399E+01  0.58729501843E+02  0.00000000000E+00 0.  1.
         11    1    4    4    0    0  0.39887725451E+02 -0.55218761872E+01  0.56338330103E+02  0.69249759545E+02  0.00000000000E+00 0. -1.
        -13    1    3    3    0    0 -0.95004057017E+01 -0.50627588212E+02 -0.75433089479E+01  0.52060656033E+02  0.00000000000E+00 0. -1.
         13    1    3    3    0    0 -0.47723365220E+02  0.28479628533E+02 -0.84697670491E+01  0.56216952809E+02  0.00000000000E+00 0.  1.
         -4    1    1    2    0  502  0.15625804994E+02 -0.31005380802E+02  0.48914104544E+01  0.35063161817E+02  0.00000000000E+00 0.  1.
<scales pt_clust_5="13000.00000" pt_clust_6="13000.00000" pt_clust_7="13000.00000" pt_clust_8="13000.00000" pt_clust_9="34.72032"></scales>
<clustering>
<clus scale="   34.720">  1  9  2 -1</clus>
<clus scale="   87.764">  7  8 -1 -1</clus>
<clus scale="   91.849">  5  6 -1 -1</clus>
<clus scale="  107.063">  2  7  1 -1</clus>
<clus scale="   34.720">  1  5  2 -1</clus>
</clustering>
</event>
<event>
 9    1  0.1399746E-005  0.9260592E+02  0.7546771E-02  0.1298051E+00
         21   -1    0    0  501  502  0.00000000000E+00  0.00000000000E+00  0.86530512888E+02  0.86530512888E+02  0.00000000000E+00 0. -1.
         -2   -1    0    0    0  501 -0.00000000000E+00 -0.00000000000E+00 -0.17487165295E+03  0.17487165295E+03  0.00000000000E+00 0.  1.
         23    2    1    2    0    0 -0.54262417715E+01  0.10718382771E+02 -0.98054741405E+02  0.13476091652E+03  0.91659393854E+02 0.  0.
         23    2    1    2    0    0  0.24599534112E+02 -0.28191770427E+01  0.30240938101E+02  0.97462761610E+02  0.89282645154E+02 0.  0.
        -11    1    4    4    0    0  0.56067146383E+02 -0.79857519301E+01  0.51131092355E+01  0.56863353959E+02  0.00000000000E+00 0. -1.
         11    1    4    4    0    0 -0.31467612271E+02  0.51665748874E+01  0.25127828866E+02  0.40599407651E+02  0.00000000000E+00 0.  1.
        -11    1    3    3    0    0 -0.29958294689E+02  0.26470004811E+02 -0.97746562453E+02  0.10560563928E+03  0.00000000000E+00 0.  1.
         11    1    3    3    0    0  0.24532052918E+02 -0.15751622039E+02 -0.30817895188E+00  0.29155277250E+02  0.00000000000E+00 0. -1.
         -2    1    1    2    0  502 -0.19173292340E+02 -0.78992057286E+01 -0.20527336763E+02  0.29178487707E+02  0.00000000000E+00 0.  1.
<scales pt_clust_5="13000.00000" pt_clust_6="13000.00000" pt_clust_7="13000.00000" pt_clust_8="13000.00000" pt_clust_9="20.73676"></scales>
<clustering>
<clus scale="   20.737">  1  9  2 -1</clus>
<clus scale="   89.283">  5  6 -1 -1</clus>
<clus scale="   90.254">  1  5  2 -1</clus>
<clus scale="   91.659">  7  8 -1 -1</clus>
<clus scale="   20.737">  1  5  2 -1</clus>
</clustering>
</event>
<event>
 9    1  0.1399746E-005  0.2151393E+03  0.7546771E-02  0.1137992E+00
          1   -1    0    0  502    0 -0.00000000000E+00  0.00000000000E+00  0.75740826855E+03  0.75740826855E+03  0.00000000000E+00 0. -1.
         21   -1    0    0  501  502  0.00000000000E+00 -0.00000000000E+00 -0.81881401076E+02  0.81881401076E+02  0.00000000000E+00 0.  1.
         23    2    1    2    0    0  0.10812431174E+03 -0.14829592283E+03  0.38543861306E+03  0.43730496685E+03  0.94816465247E+02 0.  0.
         23    2    1    2    0    0 -0.13700357052E+03  0.15624266473E+03  0.29482138130E+03  0.37166037616E+03  0.89610488884E+02 0.  0.
        -11    1    3    3    0    0 -0.12634685993E+01 -0.60526562375E+02  0.73028095190E+02  0.94858651650E+02  0.00000000000E+00 0.  1.
         11    1    3    3    0    0  0.10938778034E+03 -0.87769360454E+02  0.31241051787E+03  0.34244631520E+03  0.00000000000E+00 0. -1.
        -13    1    4    4    0    0 -0.11879784159E+03  0.97371798738E+02  0.25685924219E+03  0.29928391980E+03  0.00000000000E+00 0.  1.
         13    1    4    4    0    0 -0.18205728931E+02  0.58870865992E+02  0.37962139110E+02  0.72376456354E+02  0.00000000000E+00 0. -1.
          1    1    1    2  501    0  0.28879258779E+02 -0.79467419004E+01 -0.47331268863E+01  0.30324326614E+02  0.00000000000E+00 0. -1.
<scales pt_clust_5="13000.00000" pt_clust_6="13000.00000" pt_clust_7="13000.00000" pt_clust_8="13000.00000" pt_clust_9="29.95267"></scales>
<clustering>
<clus scale="   29.953">  2  9  1 -1</clus>
<clus scale="   89.610">  7  8 -1 -1</clus>
<clus scale="   94.816">  5  6 -1 -1</clus>
<clus scale="  212.896">  2  7  1 -1</clus>
<clus scale="   29.953">  2  5  1 -1</clus>
</clustering>
</event>
<event>
 9    1  0.1399746E-005  0.9445651E+02  0.7546771E-02  0.1294492E+00
          1   -1    0    0  502    0 -0.00000000000E+00  0.00000000000E+00  0.28581546701E+03  0.28581546701E+03  0.00000000000E+00 0. -1.
         21   -1    0    0  501  502  0.00000000000E+00 -0.00000000000E+00 -0.23296045113E+03  0.23296045113E+03  0.00000000000E+00 0. -1.
         23    2    1    2    0    0  0.36082508205E+01 -0.76651381148E+01  0.16455615494E+03  0.18838417698E+03  0.91313176441E+02 0.  0.
         23    2    1    2    0    0  0.21347835932E+02  0.63516090299E+02  0.75370906306E+02  0.13357181005E+03  0.87582139144E+02 0.  0.
        -11    1    4    4    0    0  0.16039128011E+02  0.85695007415E+02  0.63537305482E+02  0.10787899291E+03  0.00000000000E+00 0.  1.
         11    1    4    4    0    0  0.53087079205E+01 -0.22178917116E+02  0.11833600825E+02  0.25692817142E+02  0.00000000000E+00 0. -1.
        -13    1    3    3    0    0  0.31557181931E+02 -0.12108756762E+01  0.15494766064E+03  0.15813317011E+03  0.00000000000E+00 0. -1.
         13    1    3    3    0    0 -0.27948931110E+02 -0.64542624385E+01  0.96084942962E+01  0.30251006867E+02  0.00000000000E+00 0.  1.
          1    1    1    2  501    0 -0.24956086752E+02 -0.55850952184E+02 -0.18707204536E+03  0.19681993111E+03  0.00000000000E+00 0. -1.
<scales pt_clust_5="13000.00000" pt_clust_6="13000.00000" pt_clust_7="13000.00000" pt_clust_8="13000.00000" pt_clust_9="61.17299"></scales>
<clustering>
<clus scale="   61.173">  2  9  1 -1</clus>
<clus scale="   87.582">  5  6 -1 -1</clus>
<clus scale="   90.855">  2  5  1 -1</clus>
<clus scale="   91.313">  7  8 -1 -1</clus>
<clus scale="   61.173">  2  5  1 -1</clus>
</clustering>
</event>
<event>
 9    1  0.1399746E-005  0.1305686E+03  0.7546771E-02  0.1228381E+00
         -3   -1    0    0    0  501 -0.00000000000E+00  0.00000000000E+00  0.86776852467E+02  0.86776852467E+02  0.00000000000E+00 0.  1.
         21   -1    0    0  501  502  0.00000000000E+00 -0.00000000000E+00 -0.22329643918E+03  0.22329643918E+03  0.00000000000E+00 0. -1.
         23    2    1    2    0    0  0.60159096683E+02 -0.71240211476E+02 -0.46478460314E+02  0.13881254365E+03  0.91729986141E+02 0.  0.
         23    2    1    2    0    0 -0.59189764773E+02  0.51016772365E+02 -0.78812013776E+02  0.14810864087E+03  0.98074954345E+02 0.  0.
        -11    1    4    4    0    0 -0.82164998749E+02  0.33442409438E+02 -0.79577515318E+02  0.11917240751E+03  0.00000000000E+00 0.  1.
         11    1    4    4    0    0  0.22975233975E+02  0.17574362926E+02  0.76550154204E+00  0.28936233361E+02  0.00000000000E+00 0. -1.
        -13    1    3    3    0    0  0.55134734130E+02 -0.17388817638E+02 -0.59731913863E+02  0.83127079945E+02  0.00000000000E+00 0. -1.
         13    1    3    3    0    0  0.50243625524E+01 -0.53851393838E+02  0.13253453549E+02  0.55685463708E+02  0.00000000000E+00 0.  1.
         -3    1    1    2    0  502 -0.96933190934E+00  0.20223439111E+02 -0.11229112623E+02  0.23152107121E+02  0.00000000000E+00 0.  1.
<scales pt_clust_5="13000.00000" pt_clust_6="13000.00000" pt_clust_7="13000.00000" pt_clust_8="13000.00000" pt_clust_9="20.24666"></scales>
<clustering>
<clus scale="   20.247">  2  9  1 -1</clus>
<clus scale="   91.730">  7  8 -1 -1</clus>
<clus scale="   98.075">  5  6 -1 -1</clus>
<clus scale="  125.872">  1  7  2 -1</clus>
<clus scale="   20.247">  2  5  1 -1</clus>
</clustering>
</event>
<event>
 9    1  0.1399746E-005  0.9415409E+02  0.7546771E-02  0.1293326E+00
         21   -1    0    0  501  502  0.00000000000E+00  0.00000000000E+00  0.35527833669E+03  0.35527833669E+03  0.00000000000E+00 0.  1.
         -4   -1    0    0    0  501 -0.00000000000E+00 -0.00000000000E+00 -0.67864168402E+02  0.67864168402E+02  0.00000000000E+00 0.  1.
         23    2    1    2    0    0  0.75629764989E+01 -0.88924459336E+01  0.18912697601E+02  0.92705122561E+02  0.90001530045E+02 0.  0.
         23    2    1    2    0    0 -0.43960742322E+02  0.26409842588E+02  0.64203649918E+02  0.12218451673E+03  0.90426328108E+02 0.  0.
        -11    1    3    3    0    0 -0.35580195703E+02 -0.24670982682E+02  0.73939503666E+00  0.43303053215E+02  0.00000000000E+00 0.  1.
         11    1    3    3    0    0  0.43143172202E+02  0.15778536748E+02  0.18173302564E+02  0.49402069346E+02  0.00000000000E+00 0. -1.
        -11    1    4    4    0    0 -0.18394581813E+02  0.27581936681E+02 -0.16847846264E+02  0.37188355635E+02  0.00000000000E+00 0.  1.
         11    1    4    4    0    0 -0.25566160509E+02 -0.11720940928E+01  0.81051496181E+02  0.84996161095E+02  0.00000000000E+00 0. -1.
         -4    1    1    2    0  502  0.36397765823E+02 -0.17517396655E+02  0.20429782077E+03  0.20825286580E+03  0.00000000000E+00 0.  1.
<scales pt_clust_5="13000.00000" pt_clust_6="13000.00000" pt_clust_7="13000.00000" pt_clust_8="13000.00000" pt_clust_9="40.39377"></scales>
<clustering>
<clus scale="   40.394">  1  9  2 -1</clus>
<clus scale="   90.002">  5  6 -1 -1</clus>
<clus scale="   90.426">  7  8 -1 -1</clus>
<clus scale="   93.746">  2  5  1 -1</clus>
<clus scale="   40.394">  1  5  2 -1</clus>
</clustering>
</event>
<event>
 9    1  0.1399746E-005  0.1342644E+03  0.7546771E-02  0.1221507E+00
         21   -1    0    0  501  502  0.00000000000E+00  0.00000000000E+00  0.83635419295E+02  0.83635419295E+02  0.00000000000E+00 0. -1.
          1   -1    0    0  502    0 -0.00000000000E+00 -0.00000000000E+00 -0.45506912651E+03  0.45506912651E+03  0.00000000000E+00 0. -1.
         23    2    1    2    0    0 -0.14914501390E+02  0.10185471589E+03 -0.35538792742E+03  0.38139007423E+03  0.92525587080E+02 0.  0.
         23    2    1    2    0    0  0.19891476721E+02 -0.75367225892E+02 -0.33997020885E+02  0.12493230880E+03  0.91522646201E+02 0.  0.
        -13    1    4    4    0    0 -0.68585449926E+00 -0.92652319550E+02 -0.31836265152E+02  0.97971784168E+02  0.00000000000E+00 0. -1.
         13    1    4    4    0    0  0.20577331220E+02  0.17285093658E+02 -0.21607557333E+01  0.26960524629E+02  0.00000000000E+00 0.  1.
        -13    1    3    3    0    0  0.37826303495E+02  0.38078203983E+02 -0.17230894100E+03  0.18047479049E+03  0.00000000000E+00 0. -1.
         13    1    3    3    0    0 -0.52740804885E+02  0.63776511907E+02 -0.18307898643E+03  0.20091528374E+03  0.00000000000E+00 0.  1.
          1    1    1    2  501    0 -0.49769753304E+01 -0.26487489998E+02  0.17951241087E+02  0.32382162781E+02  0.00000000000E+00 0. -1.
<scales pt_clust_5="13000.00000" pt_clust_6="13000.00000" pt_clust_7="13000.00000" pt_clust_8="13000.00000" pt_clust_9="26.95102"></scales>
<clustering>
<clus scale="   26.951">  1  9  2 -1</clus>
<clus scale="   91.523">  5  6 -1 -1</clus>
<clus scale="   92.526">  7  8 -1 -1</clus>
<clus scale="  133.575">  1  5  2 -1</clus>
<clus scale="   26.951">  1  5  2 -1</clus>
</clustering>
</event>
<event>
 9    1  0.1399746E-005  0.9215915E+02  0.7546771E-02  0.1298218E+00
          1   -1    0    0  502    0 -0.00000000000E+00  0.00000000000E+00  0.11384922395E+03  0.11384922395E+03  0.00000000000E+00 0. -1.
         21   -1    0    0  501  502  0.00000000000E+00 -0.00000000000E+00 -0.19316258790E+03  0.19316258790E+03  0.00000000000E+00 0. -1.
         23    2    1    2    0    0 -0.12383583805E+02 -0.20146215559E+02  0.56579199383E+02  0.10910385959E+03  0.90239809535E+02 0.  0.
         23    2    1    2    0    0 -0.34134690684E+02  0.11382163265E+02 -0.85949238252E+02  0.12909593155E+03  0.89351873172E+02 0.  0.
        -11    1    4    4    0    0  0.21920813916E+02 -0.13249239276E+02 -0.27010436257E+01  0.25755777231E+02  0.00000000000E+00 0.  1.
         11    1    4    4    0    0 -0.56055504600E+02  0.24631402541E+02 -0.83248194626E+02  0.10334015432E+03  0.00000000000E+00 0. -1.
        -13    1    3    3    0    0 -0.49442028883E+01  0.29419822731E+02 -0.44158877488E+01  0.30157439818E+02  0.00000000000E+00 0.  1.
         13    1    3    3    0    0 -0.74393809170E+01 -0.49566038290E+02  0.60995087132E+02  0.78946419770E+02  0.00000000000E+00 0. -1.
          1    1    1    2  501    0  0.46518274489E+02  0.87640522945E+01 -0.49943325084E+02  0.68812020712E+02  0.00000000000E+00 0. -1.
<scales pt_clust_5="13000.00000" pt_clust_6="13000.00000" pt_clust_7="13000.00000" pt_clust_8="13000.00000" pt_clust_9="47.33665"></scales>
<clustering>
<clus scale="   47.337">  2  9  1 -1</clus>
<clus scale="   89.352">  5  6 -1 -1</clus>
<clus scale="   90.240">  7  8 -1 -1</clus>
<clus scale="   91.290">  2  5  1 -1</clus>
<clus scale="   47.337">  2  5  1 -1</clus>
</clustering>
</event>
<event>
 9    1  0.1477407E-005  0.8893061E+02  0.7546771E-02  0.1311222E+00
         -1   -1    0    0    0  501 -0.00000000000E+00  0.00000000000E+00  0.25346191944E+03  0.25346191944E+03  0.00000000000E+00 0.  1.
         21   -1    0    0  501  502  0.00000000000E+00 -0.00000000000E+00 -0.17192223620E+03  0.17192223620E+03  0.00000000000E+00 0.  1.
         23    2    1    2    0    0  0.50762534543E+01 -0.90170569316E+01  0.20860782547E+03  0.22670643278E+03  0.88156146430E+02 0.  0.
         23    2    1    2    0    0  0.15023060504E+02  0.26003530652E+02 -0.18175805313E+02  0.86650655818E+02  0.79221842327E+02 0.  0.
        -13    1    4    4    0    0 -0.24587931471E+02  0.54462180825E+01 -0.31261870727E+02  0.40143894016E+02  0.00000000000E+00 0. -1.
         13    1    4    4    0    0  0.39610991974E+02  0.20557312570E+02  0.13086065414E+02  0.46506761802E+02  0.00000000000E+00 0.  1.
        -13    1    3    3    0    0 -0.19173606805E+02 -0.41568350357E+02  0.13633237671E+03  0.14381262771E+03  0.00000000000E+00 0.  1.
         13    1    3    3    0    0  0.24249860259E+02  0.32551293425E+02  0.72275448762E+02  0.82893805076E+02  0.00000000000E+00 0. -1.
         -1    1    1    2    0  502 -0.20099313958E+02 -0.16986473721E+02 -0.10889233692E+03  0.11202706704E+03  0.00000000000E+00 0.  1.
<scales pt_clust_5="13000.00000" pt_clust_6="13000.00000" pt_clust_7="13000.00000" pt_clust_8="13000.00000" pt_clust_9="26.31583"></scales>
<clustering>
<clus scale="   26.316">  2  9  1 -1</clus>
<clus scale="   79.222">  5  6 -1 -1</clus>
<clus scale="   80.083">  2  5  1 -1</clus>
<clus scale="   88.156">  7  8 -1 -1</clus>
<clus scale="   26.316">  2  5  1 -1</clus>
</clustering>
</event>
<event>
 9    1  0.1399746E-005  0.1171648E+03  0.7546771E-02  0.1248152E+00
         21   -1    0    0  501  502  0.00000000000E+00  0.00000000000E+00  0.73662492060E+02  0.73662492060E+02  0.00000000000E+00 0.  1.
          3   -1    0    0  502    0 -0.00000000000E+00 -0.00000000000E+00 -0.28617684196E+03  0.28617684196E+03  0.00000000000E+00 0. -1.
         23    2    1    2    0    0 -0.55760051918E+02 -0.67075187007E+02 -0.16017591715E+03  0.20465068611E+03  0.92829493095E+02 0.  0.
         23    2    1    2    0    0  0.28707914174E+02  0.39552984193E+02 -0.52483924446E+02  0.11659705593E+03  0.91933281412E+02 0.  0.
        -11    1    3    3    0    0 -0.75303268447E+02 -0.22567420318E+02 -0.10388086139E+03  0.13027319011E+03  0.00000000000E+00 0.  1.
         11    1    3    3    0    0  0.19543216529E+02 -0.44507766689E+02 -0.56295055755E+02  0.74377495994E+02  0.00000000000E+00 0. -1.
        -13    1    4    4    0    0  0.23323625977E+02  0.69682962667E+02 -0.35839698311E+02  0.81756900563E+02  0.00000000000E+00 0.  1.
         13    1    4    4    0    0  0.53842881975E+01 -0.30129978474E+02 -0.16644226135E+02  0.34840155365E+02  0.00000000000E+00 0. -1.
          3    1    1    2  501    0  0.27052137744E+02  0.27522202814E+02  0.14549169105E+00  0.38591591987E+02  0.00000000000E+00 0. -1.
<scales pt_clust_5="13000.00000" pt_clust_6="13000.00000" pt_clust_7="13000.00000" pt_clust_8="13000.00000" pt_clust_9="38.59132"></scales>
<clustering>
<clus scale="   38.591">  1  9  2 -1</clus>
<clus scale="   91.933">  7  8 -1 -1</clus>
<clus scale="   92.829">  5  6 -1 -1</clus>
<clus scale="  116.456">  1  7  2 -1</clus>
<clus scale="   38.591">  1  5  2 -1</clus>
</clustering>
</event>
<event>
 9    1  0.1399746E-005  0.1432856E+03  0.7546771E-02  0.1209332E+00
         -4   -1    0    0    0  501 -0.00000000000E+00  0.00000000000E+00  0.52061768602E+03  0.52061768602E+03  0.00000000000E+00 0.  1.
         21   -1    0    0  501  502  0.00000000000E+00 -0.00000000000E+00 -0.51325785840E+02  0.51325785840E+02  0.00000000000E+00 0. -1.
         23    2    1    2    0    0  0.96634171382E+02  0.66136423408E+02  0.26413878794E+03  0.30269734321E+03  0.90245181098E+02 0.  0.
         23    2    1    2    0    0 -0.94467494435E+02 -0.40863680748E+02  0.20057107317E+03  0.24347014967E+03  0.91951130911E+02 0.  0.
        -13    1    3    3    0    0  0.57449424016E+01  0.21653000077E+02  0.29548982898E+01  0.22596198783E+02  0.00000000000E+00 0. -1.
         13    1    3    3    0    0  0.90889228981E+02  0.44483423331E+02  0.26118388965E+03  0.28010114443E+03  0.00000000000E+00 0.  1.
        -13    1    4    4    0    0 -0.39790137276E+01 -0.47017755449E+02  0.63598695917E+02  0.79191514697E+02  0.00000000000E+00 0. -1.
         13    1    4    4    0    0 -0.90488480708E+02  0.61540747017E+01  0.13697237726E+03  0.16427863497E+03  0.00000000000E+00 0.  1.
         -4    1    1    2    0  502 -0.21666769471E+01 -0.25272742661E+02  0.45820390665E+01  0.25775978984E+02  0.00000000000E+00 0.  1.
<scales pt_clust_5="13000.00000" pt_clust_6="13000.00000" pt_clust_7="13000.00000" pt_clust_8="13000.00000" pt_clust_9="25.36545"></scales>
<clustering>
<clus scale="   25.365">  2  9  1 -1</clus>
<clus scale="   90.245">  5  6 -1 -1</clus>
<clus scale="   91.951">  7  8 -1 -1</clus>
<clus scale="  142.197">  1  5  2 -1</clus>
<clus scale="   25.365">  2  5  1 -1</clus>
</clustering>
</event>
<event>
 9    1  0.1399746E-005  0.1580547E+03  0.7546771E-02  0.1208204E+00
         21   -1    0    0  501  502  0.00000000000E+00  0.00000000000E+00  0.53322882684E+02  0.53322882684E+02  0.00000000000E+00 0. -1.
          2   -1    0    0  502    0 -0.00000000000E+00 -0.00000000000E+00 -0.95560847820E+03  0.95560847820E+03  0.00000000000E+00 0. -1.
         23    2    1    2    0    0  0.47012543873E+02  0.34514446024E+02 -0.48787986573E+03  0.49980561640E+03  0.91528490302E+02 0.  0.
         23    2    1    2    0    0  0.22607730239E+02  0.96910730541E+02 -0.26979859871E+03  0.30168712233E+03  0.91219716906E+02 0.  0.
        -11    1    3    3    0    0 -0.23376134843E+02 -0.93879608796E+01 -0.96820997685E+02  0.10004440555E+03  0.00000000000E+00 0.  1.
         11    1    3    3    0    0  0.70388678716E+02  0.43902406903E+02 -0.39105886804E+03  0.39976121085E+03  0.00000000000E+00 0. -1.
        -13    1    4    4    0    0  0.25936744602E+02 -0.96723643972E+01 -0.68655852362E+02  0.74026315707E+02  0.00000000000E+00 0. -1.
         13    1    4    4    0    0 -0.33290143627E+01  0.10658309494E+03 -0.20114274635E+03  0.22766080662E+03  0.00000000000E+00 0.  1.
          2    1    1    2  501    0 -0.69620274112E+02 -0.13142517656E+03 -0.14460713107E+03  0.20743862215E+03  0.00000000000E+00 0. -1.
<scales pt_clust_5="13000.00000" pt_clust_6="13000.00000" pt_clust_7="13000.00000" pt_clust_8="13000.00000" pt_clust_9="129.07456"></scales>
<clustering>
<clus scale="   91.220">  7  8 -1 -1</clus>
<clus scale="   91.528">  5  6 -1 -1</clus>
<clus scale="  108.531">  2  5  1 -1</clus>
<clus scale="  129.075">  1  9  2 -1</clus>
<clus scale="  129.075">  1  5  2 -1</clus>
</clustering>
</event>
<event>
 9    1  0.1399746E-005  0.9269556E+02  0.7546771E-02  0.1296733E+00
          2   -1    0    0  502    0 -0.00000000000E+00  0.00000000000E+00  0.22073099006E+03  0.22073099006E+03  0.00000000000E+00 0. -1.
         21   -1    0    0  501  502  0.00000000000E+00 -0.00000000000E+00 -0.60107675101E+02  0.60107675101E+02  0.00000000000E+00 0. -1.
         23    2    1    2    0    0  0.20932013121E+02  0.14352976653E+02  0.12252539152E+03  0.15440738212E+03  0.90471050481E+02 0.  0.
         23    2    1    2    0    0 -0.16567624310E+02  0.12630052188E+02  0.35607366678E+02  0.98984341348E+02  0.89977835475E+02 0.  0.
        -11    1    4    4    0    0  0.26188664030E+01  0.48036880907E+02  0.33567535722E+02  0.58661570410E+02  0.00000000000E+00 0. -1.
         11    1    4    4    0    0 -0.19186490713E+02 -0.35406828719E+02  0.20398309565E+01  0.40322770938E+02  0.00000000000E+00 0.  1.
        -11    1    3    3    0    0 -0.25751152797E+02  0.22081558065E+02  0.15315330169E+02  0.37219301648E+02  0.00000000000E+00 0.  1.
         11    1    3    3    0    0  0.46683165918E+02 -0.77285814121E+01  0.10721006135E+03  0.11718808048E+03  0.00000000000E+00 0. -1.
          2    1    1    2  501    0 -0.43643888112E+01 -0.26983028841E+02  0.24905567609E+01  0.27446941690E+02  0.00000000000E+00 0. -1.
<scales pt_clust_5="13000.00000" pt_clust_6="13000.00000" pt_clust_7="13000.00000" pt_clust_8="13000.00000" pt_clust_9="27.33371"></scales>
<clustering>
<clus scale="   27.334">  2  9  1 -1</clus>
<clus scale="   89.978">  5  6 -1 -1</clus>
<clus scale="   90.471">  7  8 -1 -1</clus>
<clus scale="   92.214">  2  5  1 -1</clus>
<clus scale="   27.334">  2  5  1 -1</clus>
</clustering>
</event>
<event>
 9    1  0.1399746E-005  0.9556066E+02  0.7546771E-02  0.1291940E+00
         21   -1    0    0  501  502  0.00000000000E+00  0.00000000000E+00  0.32857281083E+02  0.32857281083E+02  0.00000000000E+00 0.  1.
          2   -1    0    0  502    0 -0.00000000000E+00 -0.00000000000E+00 -0.67356472828E+03  0.67356472828E+03  0.00000000000E+00 0. -1.
         23    2    1    2    0    0 -0.20883700447E+02  0.98701006996E+01 -0.48784652201E+03  0.49634537526E+03  0.88492681483E+02 0.  0.
         23    2    1    2    0    0  0.13072934821E+02 -0.47330087029E+02 -0.98209131336E+02  0.14336024026E+03  0.92174216825E+02 0.  0.
        -13    1    4    4    0    0  0.18499376466E+02 -0.74380548856E+02 -0.76052599037E+02  0.10797541756E+03  0.00000000000E+00 0.  1.
         13    1    4    4    0    0 -0.54264416456E+01  0.27050461826E+02 -0.22156532299E+02  0.35384822699E+02  0.00000000000E+00 0. -1.
        -13    1    3    3    0    0 -0.27531763882E+01  0.48376481407E+02 -0.23525598598E+03  0.24019417743E+03  0.00000000000E+00 0. -1.
         13    1    3    3    0    0 -0.18130524059E+02 -0.38506380707E+02 -0.25259053602E+03  0.25615119782E+03  0.00000000000E+00 0.  1.
          2    1    1    2  501    0  0.78107656259E+01  0.37459986330E+02 -0.54651793858E+02  0.66716393843E+02  0.00000000000E+00 0. -1.
<scales pt_clust_5="13000.00000" pt_clust_6="13000.00000" pt_clust_7="13000.00000" pt_clust_8="13000.00000" pt_clust_9="38.26563"></scales>
<clustering>
<clus scale="   38.266">  1  9  2 -1</clus>
<clus scale="   88.493">  7  8 -1 -1</clus>
<clus scale="   92.015">  2  7  1 -1</clus>
<clus scale="   92.174">  5  6 -1 -1</clus>
<clus scale="   38.266">  1  5  2 -1</clus>
</clustering>
</event>
<event>
 9    1  0.1399746E-005  0.9833401E+02  0.7546771E-02  0.1285896E+00
          2   -1    0    0  502    0 -0.00000000000E+00  0.00000000000E+00  0.33090303036E+03  0.33090303036E+03  0.00000000000E+00 0. -1.
         21   -1    0    0  501  502  0.00000000000E+00 -0.00000000000E+00 -0.69893109011E+02  0.69893109011E+02  0.00000000000E+00 0.  1.
         23    2    1    2    0    0 -0.33967836313E+02  0.30534375693E+02  0.15947055131E+03  0.19053474631E+03  0.93736176659E+02 0.  0.
         23    2    1    2    0    0  0.13571899041E+02  0.42348905045E+02  0.26426454458E+02  0.10363158036E+03  0.89797108813E+02 0.  0.
        -11    1    4    4    0    0  0.19483882506E+02  0.66974485858E+02  0.41022611887E+01  0.69871539130E+02  0.00000000000E+00 0.  1.
         11    1    4    4    0    0 -0.59119834646E+01 -0.24625580814E+02  0.22324193269E+02  0.33760041233E+02  0.00000000000E+00 0. -1.
        -13    1    3    3    0    0 -0.11164942454E+02  0.26077437101E+02  0.16436125192E+03  0.16679121619E+03  0.00000000000E+00 0.  1.
         13    1    3    3    0    0 -0.22802893860E+02  0.44569385924E+01 -0.48907006137E+01  0.23743530119E+02  0.00000000000E+00 0. -1.
          2    1    1    2  501    0  0.20395937272E+02 -0.72883280738E+02  0.75112915583E+02  0.10662981270E+03  0.00000000000E+00 0. -1.
<scales pt_clust_5="13000.00000" pt_clust_6="13000.00000" pt_clust_7="13000.00000" pt_clust_8="13000.00000" pt_clust_9="75.68337"></scales>
<clustering>
<clus scale="   75.683">  2  9  1 -1</clus>
<clus scale="   89.797">  5  6 -1 -1</clus>
<clus scale="   93.736">  7  8 -1 -1</clus>
<clus scale="   94.587">  2  5  1 -1</clus>
<clus scale="   75.683">  2  5  1 -1</clus>
</clustering>
</event>
<event>
 9    1  0.1399746E-005  0.1843093E+03  0.7546771E-02  0.1163713E+00
          1   -1    0    0  502    0 -0.00000000000E+00  0.00000000000E+00  0.66371910809E+03  0.66371910809E+03  0.00000000000E+00 0. -1.
         21   -1    0    0  501  502  0.00000000000E+00 -0.00000000000E+00 -0.73793265968E+02  0.73793265968E+02  0.00000000000E+00 0.  1.
         23    2    1    2    0    0  0.54180935452E+02 -0.13631395440E+03  0.32746289838E+03  0.37020566297E+03  0.91121979516E+02 0.  0.
         23    2    1    2    0    0 -0.92911794855E+02  0.16098263514E+03  0.23760961177E+03  0.31509261922E+03  0.90978132768E+02 0.  0.
        -13    1    4    4    0    0 -0.15401333462E+02  0.40394942189E+02  0.73422534154E+01  0.43850440272E+02  0.00000000000E+00 0.  1.
         13    1    4    4    0    0 -0.77510461393E+02  0.12058769295E+03  0.23026735836E+03  0.27124217895E+03  0.00000000000E+00 0. -1.
        -13    1    3    3    0    0 -0.10532070149E+02 -0.86820074881E+02  0.13089746827E+03  0.15742552876E+03  0.00000000000E+00 0.  1.
         13    1    3    3    0    0  0.64713005601E+02 -0.49493879515E+02  0.19656543011E+03  0.21278013421E+03  0.00000000000E+00 0. -1.
          1    1    1    2  501    0  0.38730859403E+02 -0.24668680740E+02  0.24853331970E+02  0.52214091867E+02  0.00000000000E+00 0. -1.
<scales pt_clust_5="13000.00000" pt_clust_6="13000.00000" pt_clust_7="13000.00000" pt_clust_8="13000.00000" pt_clust_9="45.91975"></scales>
<clustering>
<clus scale="   45.920">  2  9  1 -1</clus>
<clus scale="   90.978">  5  6 -1 -1</clus>
<clus scale="   91.122">  7  8 -1 -1</clus>
<clus scale="  184.238">  2  5  1 -1</clus>
<clus scale="   45.920">  2  5  1 -1</clus>
</clustering>
</event>
<event>
 9    1  0.1399746E-005  0.1790287E+03  0.7546771E-02  0.1171397E+00
         21   -1    0    0  501  502  0.00000000000E+00  0.00000000000E+00  0.32428471930E+03  0.32428471930E+03  0.00000000000E+00 0. -1.
          2   -1    0    0  502    0 -0.00000000000E+00 -0.00000000000E+00 -0.18994611700E+03  0.18994611700E+03  0.00000000000E+00 0. -1.
         23    2    1    2    0    0 -0.14240682728E+03 -0.37404358494E+02 -0.10084869419E+03  0.20929532782E+03  0.10934022425E+03 0.  0.
         23    2    1    2    0    0  0.12396534360E+03  0.92002655820E+01  0.15797629163E+03  0.22069123005E+03  0.91082704194E+02 0.  0.
        -11    1    3    3    0    0 -0.84390357583E+01 -0.47965639965E+02 -0.32285068868E+02  0.58431546390E+02  0.00000000000E+00 0.  1.
         11    1    3    3    0    0 -0.13396779152E+03  0.10561281471E+02 -0.68563625323E+02  0.15086378143E+03  0.00000000000E+00 0. -1.
        -13    1    4    4    0    0  0.70759768279E+02  0.48930816438E+02  0.72864244180E+02  0.11274026647E+03  0.00000000000E+00 0.  1.
         13    1    4    4    0    0  0.53205575320E+02 -0.39730550856E+02  0.85112047445E+02  0.10795096358E+03  0.00000000000E+00 0. -1.
          2    1    1    2  501    0  0.18441483677E+02  0.28204092912E+02  0.77211004860E+02  0.84244278433E+02  0.00000000000E+00 0. -1.
<scales pt_clust_5="13000.00000" pt_clust_6="13000.00000" pt_clust_7="13000.00000" pt_clust_8="13000.00000" pt_clust_9="33.69806"></scales>
<clustering>
<clus scale="   33.698">  1  9  2 -1</clus>
<clus scale="   91.083">  7  8 -1 -1</clus>
<clus scale="  109.340">  5  6 -1 -1</clus>
<clus scale="  168.499">  1  7  2 -1</clus>
<clus scale="   33.698">  1  5  2 -1</clus>
</clustering>
</event>
<event>
 9    1  0.1399746E-005  0.1294049E+03  0.7546771E-02  0.1228839E+00
         21   -1    0    0  501  502  0.00000000000E+00  0.00000000000E+00  0.30153126725E+03  0.30153126725E+03  0.00000000000E+00 0. -1.
          1   -1    0    0  502    0 -0.00000000000E+00 -0.00000000000E+00 -0.39252526673E+03  0.39252526673E+03  0.00000000000E+00 0. -1.
         23    2    1    2    0    0 -0.36860432116E+02 -0.81284624725E+02 -0.32134384105E+03  0.34531905948E+03  0.89540532665E+02 0.  0.
         23    2    1    2    0    0  0.24905265297E+02  0.14356891972E+03  0.22754983946E+03  0.28525441039E+03  0.91426704304E+02 0.  0.
        -11    1    3    3    0    0 -0.62219000321E+02 -0.47553928465E+02 -0.15439794476E+03  0.17312222694E+03  0.00000000000E+00 0. -1.
         11    1    3    3    0    0  0.25358568205E+02 -0.33730696259E+02 -0.16694589628E+03  0.17219683254E+03  0.00000000000E+00 0.  1.
        -13    1    4    4    0    0 -0.86558933756E+01  0.91201963154E+02  0.68242745433E+02  0.11423569879E+03  0.00000000000E+00 0.  1.
         13    1    4    4    0    0  0.33561158673E+02  0.52366956570E+02  0.15930709402E+03  0.17101871160E+03  0.00000000000E+00 0. -1.
          1    1    1    2  501    0  0.11955166819E+02 -0.62284294999E+02  0.28000021123E+01  0.63483064112E+02  0.00000000000E+00 0. -1.
<scales pt_clust_5="13000.00000" pt_clust_6="13000.00000" pt_clust_7="13000.00000" pt_clust_8="13000.00000" pt_clust_9="63.42129"></scales>
<clustering>
<clus scale="   63.421">  1  9  2 -1</clus>
<clus scale="   89.541">  5  6 -1 -1</clus>
<clus scale="   91.427">  7  8 -1 -1</clus>
<clus scale="  128.079">  2  5  1 -1</clus>
<clus scale="   63.421">  1  5  2 -1</clus>
</clustering>
</event>
<event>
 9    1  0.1399746E-005  0.9104185E+02  0.7546771E-02  0.1301507E+00
         21   -1    0    0  501  502  0.00000000000E+00  0.00000000000E+00  0.10431018295E+03  0.10431018295E+03  0.00000000000E+00 0.  1.
          1   -1    0    0  502    0 -0.00000000000E+00 -0.00000000000E+00 -0.13793632685E+03  0.13793632685E+03  0.00000000000E+00 0. -1.
         23    2    1    2    0    0 -0.23880178079E+02 -0.32739947965E+02 -0.48194786375E+02  0.10357552491E+03  0.82237368805E+02 0.  0.
         23    2    1    2    0    0  0.35299165577E+02 -0.33685363337E+00 -0.15280961219E+02  0.92676779605E+02  0.84316861548E+02 0.  0.
        -11    1    3    3    0    0 -0.45183113359E+02 -0.19921098109E+02 -0.58593488168E+02  0.76626110031E+02  0.00000000000E+00 0. -1.
         11    1    3    3    0    0  0.21302935280E+02 -0.12818849855E+02  0.10398701793E+02  0.26949414875E+02  0.00000000000E+00 0.  1.
        -11    1    4    4    0    0 -0.26488005793E+02  0.77887312437E+01  0.28958883937E+01  0.27760852920E+02  0.00000000000E+00 0. -1.
         11    1    4    4    0    0  0.61787171370E+02 -0.81255848771E+01 -0.18176849613E+02  0.64915926685E+02  0.00000000000E+00 0.  1.
          1    1    1    2  501    0 -0.11418987498E+02  0.33076801598E+02  0.29849603697E+02  0.45994205290E+02  0.00000000000E+00 0. -1.
<scales pt_clust_5="13000.00000" pt_clust_6="13000.00000" pt_clust_7="13000.00000" pt_clust_8="13000.00000" pt_clust_9="34.99240"></scales>
<clustering>
<clus scale="   34.992">  1  9  2 -1</clus>
<clus scale="   82.237">  5  6 -1 -1</clus>
<clus scale="   84.317">  7  8 -1 -1</clus>
<clus scale="   89.119">  2  5  1 -1</clus>
<clus scale="   34.992">  1  5  2 -1</clus>
</clustering>
</event>
<event>
 9    1  0.1399746E-005  0.2130792E+03  0.7546771E-02  0.1139178E+00
         21   -1    0    0  501  502  0.00000000000E+00  0.00000000000E+00  0.10870709031E+03  0.10870709031E+03  0.00000000000E+00 0.  1.
          2   -1    0    0  502    0 -0.00000000000E+00 -0.00000000000E+00 -0.57441211422E+03  0.57441211422E+03  0.00000000000E+00 0. -1.
         23    2    1    2    0    0 -0.18113023843E+03 -0.80766586333E+02 -0.36902341978E+03  0.42876153862E+03  0.91251125528E+02 0.  0.
         23    2    1    2    0    0  0.16797555508E+03  0.60052400611E+02 -0.57829266544E+02  0.20840521961E+03  0.90919929444E+02 0.  0.
        -11    1    4    4    0    0  0.13242019719E+03  0.22531958186E+02 -0.48860676379E+01  0.13441231870E+03  0.00000000000E+00 0.  1.
         11    1    4    4    0    0  0.35555357893E+02  0.37520442425E+02 -0.52943198906E+02  0.73992900910E+02  0.00000000000E+00 0. -1.
        -13    1    3    3    0    0 -0.48513506628E+02  0.16219800744E+02 -0.11970055106E+03  0.13017244019E+03  0.00000000000E+00 0.  1.
         13    1    3    3    0    0 -0.13261673180E+03 -0.96986387076E+02 -0.24932286873E+03  0.29858909843E+03  0.00000000000E+00 0. -1.
          2    1    1    2  501    0  0.13154683352E+02  0.20714185722E+02 -0.38852337583E+02  0.45952446288E+02  0.00000000000E+00 0. -1.
<scales pt_clust_5="13000.00000" pt_clust_6="13000.00000" pt_clust_7="13000.00000" pt_clust_8="13000.00000" pt_clust_9="24.53821"></scales>
<clustering>
<clus scale="   24.538">  1  9  2 -1</clus>
<clus scale="   90.920">  5  6 -1 -1</clus>
<clus scale="   91.251">  7  8 -1 -1</clus>
<clus scale="  212.938">  1  5  2 -1</clus>
<clus scale="   24.538">  1  5  2 -1</clus>
</clustering>
</event>
<event>
 9    1  0.1399746E-005  0.9574745E+02  0.7546771E-02  0.1291197E+00
         21   -1    0    0  501  502  0.00000000000E+00  0.00000000000E+00  0.35447649629E+03  0.35447649629E+03  0.00000000000E+00 0.  1.
          2   -1    0    0  502    0 -0.00000000000E+00 -0.00000000000E+00 -0.68924475924E+02  0.68924475924E+02  0.00000000000E+00 0. -1.
         23    2    1    2    0    0 -0.16715603745E+01 -0.18107812444E+02  0.18708488748E+02  0.98610613307E+02  0.95096574701E+02 0.  0.
         23    2    1    2    0    0  0.24195096439E+02 -0.19118556040E+02  0.61631235339E+02  0.11501619765E+03  0.92083628705E+02 0.  0.
        -11    1    4    4    0    0  0.35773925841E+02  0.29814920407E+02  0.33807577225E+02  0.57546985384E+02  0.00000000000E+00 0.  1.
         11    1    4    4    0    0 -0.11578829402E+02 -0.48933476447E+02  0.27823658113E+02  0.57469212265E+02  0.00000000000E+00 0. -1.
        -11    1    3    3    0    0  0.44330054184E+02 -0.60255411451E+01 -0.57887796878E+01  0.45110650853E+02  0.00000000000E+00 0.  1.
         11    1    3    3    0    0 -0.46001614559E+02 -0.12082271299E+02  0.24497268436E+02  0.53499962454E+02  0.00000000000E+00 0. -1.
          2    1    1    2  501    0 -0.22523536064E+02  0.37226368484E+02  0.20521229628E+03  0.20977416125E+03  0.00000000000E+00 0. -1.
<scales pt_clust_5="13000.00000" pt_clust_6="13000.00000" pt_clust_7="13000.00000" pt_clust_8="13000.00000" pt_clust_9="43.50991"></scales>
<clustering>
<clus scale="   43.510">  1  9  2 -1</clus>
<clus scale="   92.084">  5  6 -1 -1</clus>
<clus scale="   92.756">  1  5  2 -1</clus>
<clus scale="   95.097">  7  8 -1 -1</clus>
<clus scale="   43.510">  1  5  2 -1</clus>
</clustering>
</event>
<event>
 9    1  0.1399746E-005  0.1052089E+03  0.7546771E-02  0.1275949E+00
          4   -1    0    0  502    0 -0.00000000000E+00  0.00000000000E+00  0.40938372656E+03  0.40938372656E+03  0.00000000000E+00 0. -1.
         21   -1    0    0  501  502  0.00000000000E+00 -0.00000000000E+00 -0.41712911690E+02  0.41712911690E+02  0.00000000000E+00 0.  1.
         23    2    1    2    0    0 -0.25396797010E+02  0.65098812035E+01  0.21300643073E+03  0.23688163354E+03  0.10026860389E+03 0.  0.
         23    2    1    2    0    0  0.16889198239E+02 -0.46308357713E+02  0.13671107203E+03  0.16973333000E+03  0.87691374068E+02 0.  0.
        -11    1    4    4    0    0  0.45508830960E+02 -0.25859711487E+02  0.37273743731E+02  0.64258153921E+02  0.00000000000E+00 0.  1.
         11    1    4    4    0    0 -0.28619632721E+02 -0.20448646226E+02  0.99437328300E+02  0.10547517608E+03  0.00000000000E+00 0. -1.
        -11    1    3    3    0    0 -0.61707811704E+02  0.77785901400E+01  0.16734110597E+03  0.17852564588E+03  0.00000000000E+00 0. -1.
         11    1    3    3    0    0  0.36311014694E+02 -0.12687089366E+01  0.45665324756E+02  0.58355987658E+02  0.00000000000E+00 0.  1.
          4    1    1    2  501    0  0.85075987711E+01  0.39798476509E+02  0.17953312114E+02  0.44481674712E+02  0.00000000000E+00 0. -1.
<scales pt_clust_5="13000.00000" pt_clust_6="13000.00000" pt_clust_7="13000.00000" pt_clust_8="13000.00000" pt_clust_9="40.69764"></scales>
<clustering>
<clus scale="   40.698">  2  9  1 -1</clus>
<clus scale="   87.691">  5  6 -1 -1</clus>
<clus scale="   93.300">  2  5  1 -1</clus>
<clus scale="  100.269">  7  8 -1 -1</clus>
<clus scale="   40.698">  2  5  1 -1</clus>
</clustering>
</event>
<event>
 9    1  0.1399746E-005  0.2448959E+03  0.7546771E-02  0.1147300E+00
         -1   -1    0    0    0  501 -0.00000000000E+00  0.00000000000E+00  0.28253635021E+03  0.28253635021E+03  0.00000000000E+00 0.  1.
         21   -1    0    0  501  502  0.00000000000E+00 -0.00000000000E+00 -0.32437368167E+03  0.32437368167E+03  0.00000000000E+00 0.  1.
         23    2    1    2    0    0 -0.61499951958E+02  0.29455635781E+02  0.45193326047E+01  0.11552298553E+03  0.93141061022E+02 0.  0.
         23    2    1    2    0    0  0.26340641077E+03  0.15882920856E+02  0.78055076920E+00  0.27915198834E+03  0.91049541047E+02 0.  0.
        -11    1    3    3    0    0 -0.38204410569E+02  0.31360141649E+02  0.46250820624E+02  0.67691756363E+02  0.00000000000E+00 0.  1.
         11    1    3    3    0    0 -0.23295541389E+02 -0.19045058680E+01 -0.41731488019E+02  0.47831229166E+02  0.00000000000E+00 0. -1.
        -11    1    4    4    0    0  0.14326644827E+03 -0.35839547294E+02  0.10053182560E+02  0.14802302128E+03  0.00000000000E+00 0.  1.
         11    1    4    4    0    0  0.12013996250E+03  0.51722468150E+02 -0.92726317911E+01  0.13112896706E+03  0.00000000000E+00 0. -1.
         -1    1    1    2    0  502 -0.20190645881E+03 -0.45338556637E+02 -0.47137214831E+02  0.21223505801E+03  0.00000000000E+00 0.  1.
<scales pt_clust_5="13000.00000" pt_clust_6="13000.00000" pt_clust_7="13000.00000" pt_clust_8="13000.00000" pt_clust_9="227.34115"></scales>
<clustering>
<clus scale="   91.050">  7  8 -1 -1</clus>
<clus scale="   93.141">  5  6 -1 -1</clus>
<clus scale="  115.435">  1  5  2 -1</clus>
<clus scale="  227.341">  2  9  1 -1</clus>
<clus scale="  227.341">  2  5  1 -1</clus>
</clustering>
</event>
<event>
 9    1  0.1399746E-005  0.1313826E+03  0.7546771E-02  0.1225553E+00
          1   -1    0    0  502    0 -0.00000000000E+00  0.00000000000E+00  0.34276278933E+03  0.34276278933E+03  0.00000000000E+00 0. -1.
         21   -1    0    0  501  502  0.00000000000E+00 -0.00000000000E+00 -0.10722302659E+03  0.10722302659E+03  0.00000000000E+00 0. -1.
         23    2    1    2    0    0 -0.22751961684E+02  0.81495648517E+02  0.20015385838E+03  0.23577802574E+03  0.91490534538E+02 0.  0.
         23    2    1    2    0    0  0.48740655402E+02 -0.10978201350E+03  0.66010217546E+02  0.16508163419E+03  0.92015515806E+02 0.  0.
        -11    1    3    3    0    0  0.33044029210E+02  0.31203619823E+02  0.48061929284E+02  0.66147734677E+02  0.00000000000E+00 0. -1.
         11    1    3    3    0    0 -0.55795990894E+02  0.50292028694E+02  0.15209192909E+03  0.16963029106E+03  0.00000000000E+00 0.  1.
        -13    1    4    4    0    0 -0.83388256701E+01 -0.56948654705E+02  0.65643529602E+02  0.87302681888E+02  0.00000000000E+00 0. -1.
         13    1    4    4    0    0  0.57079481072E+02 -0.52833358790E+02  0.36668794363E+00  0.77778952298E+02  0.00000000000E+00 0.  1.
          1    1    1    2  501    0 -0.25988693718E+02  0.28286364978E+02 -0.30624313188E+02  0.49126155998E+02  0.00000000000E+00 0. -1.
<scales pt_clust_5="13000.00000" pt_clust_6="13000.00000" pt_clust_7="13000.00000" pt_clust_8="13000.00000" pt_clust_9="38.41264"></scales>
<clustering>
<clus scale="   38.413">  2  9  1 -1</clus>
<clus scale="   91.491">  5  6 -1 -1</clus>
<clus scale="   92.016">  7  8 -1 -1</clus>
<clus scale="  131.015">  1  5  2 -1</clus>
<clus scale="   38.413">  2  5  1 -1</clus>
</clustering>
</event>
<event>
 9    1  0.1399746E-005  0.1004323E+03  0.7546771E-02  0.1279676E+00
          2   -1    0    0  502    0 -0.00000000000E+00  0.00000000000E+00  0.11777830224E+03  0.11777830224E+03  0.00000000000E+00 0. -1.
         21   -1    0    0  501  502  0.00000000000E+00 -0.00000000000E+00 -0.36611747841E+03  0.36611747841E+03  0.00000000000E+00 0. -1.
         23    2    1    2    0    0 -0.34922504188E+02  0.28092682233E+02  0.54848566592E+02  0.11434298505E+03  0.89761756223E+02 0.  0.
         23    2    1    2    0    0 -0.24842519081E+02 -0.75298760593E+02 -0.11428508206E+03  0.16587538629E+03  0.90368742899E+02 0.  0.
        -13    1    4    4    0    0  0.25889589427E+02 -0.71193196181E+01 -0.58082742996E+02  0.63988753594E+02  0.00000000000E+00 0.  1.
         13    1    4    4    0    0 -0.50732108508E+02 -0.68179440975E+02 -0.56202339067E+02  0.10188663270E+03  0.00000000000E+00 0. -1.
        -13    1    3    3    0    0 -0.31821408572E+02 -0.64895799094E+01  0.69456513715E+02  0.76674141589E+02  0.00000000000E+00 0. -1.
         13    1    3    3    0    0 -0.31010956158E+01  0.34582262142E+02 -0.14607947123E+02  0.37668843466E+02  0.00000000000E+00 0.  1.
          2    1    1    2  501    0  0.59765023269E+02  0.47206078361E+02 -0.18890266070E+03  0.20367740930E+03  0.00000000000E+00 0. -1.
<scales pt_clust_5="13000.00000" pt_clust_6="13000.00000" pt_clust_7="13000.00000" pt_clust_8="13000.00000" pt_clust_9="76.15952"></scales>
<clustering>
<clus scale="   76.160">  2  9  1 -1</clus>
<clus scale="   89.762">  7  8 -1 -1</clus>
<clus scale="   90.369">  5  6 -1 -1</clus>
<clus scale="   99.887">  1  7  2 -1</clus>
<clus scale="   76.160">  2  5  1 -1</clus>
</clustering>
</event>
<event>
 9    1  0.1399746E-005  0.4617288E+03  0.7546771E-02  0.1024291E+00
         21   -1    0    0  501  502  0.00000000000E+00  0.00000000000E+00  0.30050525954E+03  0.30050525954E+03  0.00000000000E+00 0. -1.
          1   -1    0    0  502    0 -0.00000000000E+00 -0.00000000000E+00 -0.17813341786E+04  0.17813341786E+04  0.00000000000E+00 0. -1.
         23    2    1    2    0    0  0.17023503729E+03  0.48129916238E+03 -0.13707225827E+04  0.14655457531E+04  0.91187193289E+02 0.  0.
         23    2    1    2    0    0  0.26565634569E+02 -0.32952705430E+03 -0.13011072220E+03  0.36696367738E+03  0.91867992369E+02 0.  0.
        -11    1    4    4    0    0  0.14501930695E+02 -0.16076412000E+02 -0.31353093018E+02  0.38102145064E+02  0.00000000000E+00 0.  1.
         11    1    4    4    0    0  0.12063703874E+02 -0.31345064230E+03 -0.98757629185E+02  0.32886153231E+03  0.00000000000E+00 0. -1.
        -11    1    3    3    0    0  0.11312971978E+03  0.39961137116E+03 -0.10310950806E+04  0.11115955410E+04  0.00000000000E+00 0. -1.
         11    1    3    3    0    0  0.57105317504E+02  0.81687791213E+02 -0.33962750205E+03  0.35395021213E+03  0.00000000000E+00 0.  1.
          1    1    1    2  501    0 -0.19680067186E+03 -0.15177210807E+03  0.20004385861E+02  0.24933000759E+03  0.00000000000E+00 0. -1.
<scales pt_clust_5="13000.00000" pt_clust_6="13000.00000" pt_clust_7="13000.00000" pt_clust_8="13000.00000" pt_clust_9="248.52621"></scales>
<clustering>
<clus scale="   91.187">  7  8 -1 -1</clus>
<clus scale="   91.868">  5  6 -1 -1</clus>
<clus scale="  248.526">  1  9  2 -1</clus>
<clus scale="  461.594">  2  7  1 -1</clus>
<clus scale="  248.526">  1  5  2 -1</clus>
</clustering>
</event>
<event>
 9    1  0.1399746E-005  0.9695188E+02  0.7546771E-02  0.1287204E+00
          1   -1    0    0  502    0 -0.00000000000E+00  0.00000000000E+00  0.42948054873E+03  0.42948054873E+03  0.00000000000E+00 0. -1.
         21   -1    0    0  501  502  0.00000000000E+00 -0.00000000000E+00 -0.63634117844E+02  0.63634117844E+02  0.00000000000E+00 0. -1.
         23    2    1    2    0    0  0.15205128424E+02  0.37128868613E+02  0.23486000363E+03  0.25530942052E+03  0.91727477251E+02 0.  0.
         23    2    1    2    0    0 -0.10676977826E+02 -0.13095757889E+02  0.16855852121E+03  0.19297493486E+03  0.92422149303E+02 0.  0.
        -11    1    4    4    0    0  0.38488106769E+02  0.32476747945E+01  0.46994644434E+02  0.60830735321E+02  0.00000000000E+00 0. -1.
         11    1    4    4    0    0 -0.49165084596E+02 -0.16343432683E+02  0.12156387677E+03  0.13214419954E+03  0.00000000000E+00 0.  1.
        -11    1    3    3    0    0 -0.25905367917E+02  0.81715388003E+01  0.17742110359E+02  0.32444485098E+02  0.00000000000E+00 0.  1.
         11    1    3    3    0    0  0.41110496341E+02  0.28957329813E+02  0.21711789327E+03  0.22286493542E+03  0.00000000000E+00 0. -1.
          1    1    1    2  501    0 -0.45281505980E+01 -0.24033110724E+02 -0.37572093950E+02  0.44830311204E+02  0.00000000000E+00 0. -1.
<scales pt_clust_5="13000.00000" pt_clust_6="13000.00000" pt_clust_7="13000.00000" pt_clust_8="13000.00000" pt_clust_9="24.45597"></scales>
<clustering>
<clus scale="   24.456">  2  9  1 -1</clus>
<clus scale="   91.727">  7  8 -1 -1</clus>
<clus scale="   92.422">  5  6 -1 -1</clus>
<clus scale="   96.290">  1  7  2 -1</clus>
<clus scale="   24.456">  2  5  1 -1</clus>
</clustering>
</event>
<event>
 9    1  0.1399746E-005  0.1140445E+03  0.7546771E-02  0.1253702E+00
         21   -1    0    0  501  502  0.00000000000E+00  0.00000000000E+00  0.48668503607E+03  0.48668503607E+03  0.00000000000E+00 0. -1.
         -2   -1    0    0    0  501 -0.00000000000E+00 -0.00000000000E+00 -0.50495486346E+02  0.50495486346E+02  0.00000000000E+00 0.  1.
         23    2    1    2    0    0  0.50947554786E+01  0.47000811756E+02  0.97378092915E+02  0.14204131180E+03  0.91968518738E+02 0.  0.
         23    2    1    2    0    0 -0.45454502372E+02 -0.93734806257E+02  0.20961823309E+03  0.25194750532E+03  0.93195579844E+02 0.  0.
        -13    1    3    3    0    0  0.42710840876E+02  0.49634616105E+02  0.57292628291E+02  0.87007219819E+02  0.00000000000E+00 0.  1.
         13    1    3    3    0    0 -0.37616085397E+02 -0.26338043487E+01  0.40085464624E+02  0.55034091980E+02  0.00000000000E+00 0. -1.
        -13    1    4    4    0    0 -0.51606223976E+02 -0.69237376842E+02  0.73181568924E+02  0.11319257368E+03  0.00000000000E+00 0.  1.
         13    1    4    4    0    0  0.61517216044E+01 -0.24497429416E+02  0.13643666416E+03  0.13875493164E+03  0.00000000000E+00 0. -1.
         -2    1    1    2    0  502  0.40359746894E+02  0.46733994502E+02  0.12919322372E+03  0.14319170530E+03  0.00000000000E+00 0.  1.
<scales pt_clust_5="13000.00000" pt_clust_6="13000.00000" pt_clust_7="13000.00000" pt_clust_8="13000.00000" pt_clust_9="61.74929"></scales>
<clustering>
<clus scale="   61.749">  1  9  2 -1</clus>
<clus scale="   91.969">  5  6 -1 -1</clus>
<clus scale="   93.196">  7  8 -1 -1</clus>
<clus scale="  113.044">  2  5  1 -1</clus>
<clus scale="   61.749">  1  5  2 -1</clus>
</clustering>
</event>
<event>
 9    1  0.1399746E-005  0.9559177E+02  0.7546771E-02  0.1291047E+00
          3   -1    0    0  502    0 -0.00000000000E+00  0.00000000000E+00  0.55259364680E+02  0.55259364680E+02  0.00000000000E+00 0. -1.
         21   -1    0    0  501  502  0.00000000000E+00 -0.00000000000E+00 -0.27471705732E+03  0.27471705732E+03  0.00000000000E+00 0.  1.
         23    2    1    2    0    0 -0.23932099208E+01  0.28670411230E+02 -0.22250943442E+02  0.97394914049E+02  0.90349016955E+02 0.  0.
         23    2    1    2    0    0  0.19704098745E+02 -0.65198628043E+01 -0.15919442404E+03  0.18530307173E+03  0.92539740812E+02 0.  0.
        -13    1    3    3    0    0 -0.21833606655E+02  0.47656076072E+02  0.11899069557E+02  0.53753100584E+02  0.00000000000E+00 0. -1.
         13    1    3    3    0    0  0.19440396734E+02 -0.18985664842E+02 -0.34150012999E+02  0.43641813465E+02  0.00000000000E+00 0.  1.
        -13    1    4    4    0    0 -0.14145881352E+02  0.34222154989E+02 -0.38101107179E+02  0.53131499316E+02  0.00000000000E+00 0. -1.
         13    1    4    4    0    0  0.33849980098E+02 -0.40742017793E+02 -0.12109331686E+03  0.13217157241E+03  0.00000000000E+00 0.  1.
          3    1    1    2  501    0 -0.17310888824E+02 -0.22150548425E+02 -0.38012325160E+02  0.47278436221E+02  0.00000000000E+00 0. -1.
<scales pt_clust_5="13000.00000" pt_clust_6="13000.00000" pt_clust_7="13000.00000" pt_clust_8="13000.00000" pt_clust_9="28.11252"></scales>
<clustering>
<clus scale="   28.113">  2  9  1 -1</clus>
<clus scale="   90.349">  5  6 -1 -1</clus>
<clus scale="   92.540">  7  8 -1 -1</clus>
<clus scale="   93.473">  1  5  2 -1</clus>
<clus scale="   28.113">  2  5  1 -1</clus>
</clustering>
</event>
<event>
 9    1  0.1399746E-005  0.1811726E+03  0.7546771E-02  0.1166772E+00
         -1   -1    0    0    0  501 -0.00000000000E+00  0.00000000000E+00  0.11519823054E+04  0.11519823054E+04  0.00000000000E+00 0.  1.
         21   -1    0    0  501  502  0.00000000000E+00 -0.00000000000E+00 -0.47059563314E+02  0.47059563314E+02  0.00000000000E+00 0. -1.
         23    2    1    2    0    0 -0.52876214316E+02  0.13313635427E+03  0.64644612182E+03  0.66860253610E+03  0.92820148615E+02 0.  0.
         23    2    1    2    0    0  0.90125145769E+02 -0.15822242669E+03  0.43336250662E+03  0.47898534706E+03  0.92016424363E+02 0.  0.
        -13    1    4    4    0    0  0.10688186322E+03 -0.13802421791E+03  0.40077361359E+03  0.43714289056E+03  0.00000000000E+00 0. -1.
         13    1    4    4    0    0 -0.16756717453E+02 -0.20198208780E+02  0.32588893030E+02  0.41842456508E+02  0.00000000000E+00 0.  1.
        -13    1    3    3    0    0 -0.72462991631E+02  0.78705422750E+02  0.49626180325E+03  0.50766249230E+03  0.00000000000E+00 0.  1.
         13    1    3    3    0    0  0.19586777315E+02  0.54430931518E+02  0.15018431857E+03  0.16094004379E+03  0.00000000000E+00 0. -1.
         -1    1    1    2    0  502 -0.37248931453E+02  0.25086072425E+02  0.25114113632E+02  0.51453985537E+02  0.00000000000E+00 0.  1.
<scales pt_clust_5="13000.00000" pt_clust_6="13000.00000" pt_clust_7="13000.00000" pt_clust_8="13000.00000" pt_clust_9="44.90873"></scales>
<clustering>
<clus scale="   44.909">  2  9  1 -1</clus>
<clus scale="   92.016">  5  6 -1 -1</clus>
<clus scale="   92.820">  7  8 -1 -1</clus>
<clus scale="  180.762">  2  5  1 -1</clus>
<clus scale="   44.909">  2  5  1 -1</clus>
</clustering>
</event>
<event>
 9    1  0.1399746E-005  0.9369542E+02  0.7546771E-02  0.1295161E+00
         21   -1    0    0  501  502  0.00000000000E+00  0.00000000000E+00  0.47019278338E+02  0.47019278338E+02  0.00000000000E+00 0. -1.
          2   -1    0    0  502    0 -0.00000000000E+00 -0.00000000000E+00 -0.63988837231E+03  0.63988837231E+03  0.00000000000E+00 0. -1.
         23    2    1    2    0    0 -0.14795746594E+01  0.34152825005E+02 -0.38334815811E+03  0.39533526072E+03  0.90363451954E+02 0.  0.
         23    2    1    2    0    0 -0.96429382426E+01  0.10396276808E+02 -0.22464792090E+03  0.24322822335E+03  0.92153195510E+02 0.  0.
        -11    1    4    4    0    0 -0.45678018951E+02 -0.10130034152E+02 -0.79241452641E+02  0.92023403675E+02  0.00000000000E+00 0.  1.
         11    1    4    4    0    0  0.36035080708E+02  0.20526310960E+02 -0.14540646825E+03  0.15120481968E+03  0.00000000000E+00 0. -1.
        -11    1    3    3    0    0  0.35512780790E+02 -0.80751514190E+01 -0.98721757113E+02  0.10522523936E+03  0.00000000000E+00 0.  1.
         11    1    3    3    0    0 -0.36992355449E+02  0.42227976424E+02 -0.28462640100E+03  0.29011002137E+03  0.00000000000E+00 0. -1.
          2    1    1    2  501    0  0.11122512902E+02 -0.44549101813E+02  0.15126985030E+02  0.48344166574E+02  0.00000000000E+00 0. -1.
<scales pt_clust_5="13000.00000" pt_clust_6="13000.00000" pt_clust_7="13000.00000" pt_clust_8="13000.00000" pt_clust_9="45.91658"></scales>
<clustering>
<clus scale="   45.917">  1  9  2 -1</clus>
<clus scale="   90.363">  7  8 -1 -1</clus>
<clus scale="   91.936">  2  7  1 -1</clus>
<clus scale="   92.153">  5  6 -1 -1</clus>
<clus scale="   45.917">  1  5  2 -1</clus>
</clustering>
</event>
<event>
 9    1  0.1399746E-005  0.1214101E+03  0.7546771E-02  0.1241584E+00
          1   -1    0    0  502    0 -0.00000000000E+00  0.00000000000E+00  0.37019368838E+02  0.37019368838E+02  0.00000000000E+00 0. -1.
         21   -1    0    0  501  502  0.00000000000E+00 -0.00000000000E+00 -0.57988112183E+03  0.57988112183E+03  0.00000000000E+00 0. -1.
         23    2    1    2    0    0 -0.63757913450E+02  0.24095166828E+02 -0.18941324508E+03  0.22080148260E+03  0.90720828463E+02 0.  0.
         23    2    1    2    0    0  0.95848306616E+02 -0.13637054995E+01 -0.30929216577E+03  0.33696952963E+03  0.93263403982E+02 0.  0.
        -11    1    3    3    0    0 -0.30650754918E+02 -0.10213611268E+02 -0.80768588410E+01  0.33301986140E+02  0.00000000000E+00 0.  1.
         11    1    3    3    0    0 -0.33107158532E+02  0.34308778095E+02 -0.18133638623E+03  0.18749949646E+03  0.00000000000E+00 0. -1.
        -13    1    4    4    0    0  0.86964661470E+02 -0.36431330944E+02 -0.18679765171E+03  0.20924496864E+03  0.00000000000E+00 0. -1.
         13    1    4    4    0    0  0.88836451460E+01  0.35067625445E+02 -0.12249451406E+03  0.12772456099E+03  0.00000000000E+00 0.  1.
          1    1    1    2  501    0 -0.32090393166E+02 -0.22731461328E+02 -0.44156342147E+02  0.59129478431E+02  0.00000000000E+00 0. -1.
<scales pt_clust_5="13000.00000" pt_clust_6="13000.00000" pt_clust_7="13000.00000" pt_clust_8="13000.00000" pt_clust_9="39.32574"></scales>
<clustering>
<clus scale="   39.326">  2  9  1 -1</clus>
<clus scale="   90.721">  5  6 -1 -1</clus>
<clus scale="   93.263">  7  8 -1 -1</clus>
<clus scale="  119.468">  1  5  2 -1</clus>
<clus scale="   39.326">  2  5  1 -1</clus>
</clustering>
</event>
<event>
 9    1  0.1399746E-005  0.1646658E+03  0.7546771E-02  0.1183798E+00
         21   -1    0    0  501  502  0.00000000000E+00  0.00000000000E+00  0.12233280943E+03  0.12233280943E+03  0.00000000000E+00 0. -1.
          2   -1    0    0  502    0 -0.00000000000E+00 -0.00000000000E+00 -0.55028620870E+03  0.55028620870E+03  0.00000000000E+00 0. -1.
         23    2    1    2    0    0 -0.15277960601E+03  0.12055972659E+01 -0.43537684172E+03  0.47050179843E+03  0.92064578109E+02 0.  0.
         23    2    1    2    0    0  0.83028777370E+02 -0.25411233445E+02 -0.11825381006E+02  0.12581775624E+03  0.90281556768E+02 0.  0.
        -11    1    4    4    0    0  0.31687090523E+02  0.26320176245E+02  0.20588073867E+02  0.46050973594E+02  0.00000000000E+00 0.  1.
         11    1    4    4    0    0  0.51341686846E+02 -0.51731409690E+02 -0.32413454873E+02  0.79766782645E+02  0.00000000000E+00 0. -1.
        -13    1    3    3    0    0 -0.68828624775E+02 -0.45120987794E+02 -0.21205832038E+03  0.22746871075E+03  0.00000000000E+00 0. -1.
         13    1    3    3    0    0 -0.83950981239E+02  0.46326585060E+02 -0.22331852134E+03  0.24303308768E+03  0.00000000000E+00 0.  1.
          2    1    1    2  501    0  0.69750828645E+02  0.24205636179E+02  0.19248823453E+02  0.76299463457E+02  0.00000000000E+00 0. -1.
<scales pt_clust_5="13000.00000" pt_clust_6="13000.00000" pt_clust_7="13000.00000" pt_clust_8="13000.00000" pt_clust_9="73.83150"></scales>
<clustering>
<clus scale="   73.832">  1  9  2 -1</clus>
<clus scale="   90.282">  5  6 -1 -1</clus>
<clus scale="   92.065">  7  8 -1 -1</clus>
<clus scale="  163.676">  1  5  2 -1</clus>
<clus scale="   73.832">  1  5  2 -1</clus>
</clustering>
</event>
<event>
 9    1  0.1399746E-005  0.1130498E+03  0.7546771E-02  0.1262810E+00
         -4   -1    0    0    0  501 -0.00000000000E+00  0.00000000000E+00  0.52497513284E+03  0.52497513284E+03  0.00000000000E+00 0.  1.
         21   -1    0    0  501  502  0.00000000000E+00 -0.00000000000E+00 -0.65174727419E+02  0.65174727419E+02  0.00000000000E+00 0.  1.
         23    2    1    2    0    0 -0.61572011585E+02 -0.38317876985E+02  0.37327667551E+03  0.39212071739E+03  0.95727781819E+02 0.  0.
         23    2    1    2    0    0  0.26706629488E+02  0.34144958670E+02  0.12063922724E+03  0.14907125001E+03  0.76087398219E+02 0.  0.
        -11    1    3    3    0    0 -0.80685891791E+02 -0.40350966884E+01  0.25690761970E+03  0.26931026753E+03  0.00000000000E+00 0.  1.
         11    1    3    3    0    0  0.19113880206E+02 -0.34282780297E+02  0.11636905582E+03  0.12281044985E+03  0.00000000000E+00 0. -1.
        -13    1    4    4    0    0  0.15513167280E+02 -0.20650686087E+02  0.15884922471E+02  0.30322268333E+02  0.00000000000E+00 0.  1.
         13    1    4    4    0    0  0.11193462207E+02  0.54795644757E+02  0.10475430477E+03  0.11874898167E+03  0.00000000000E+00 0. -1.
         -4    1    1    2    0  502  0.34865382098E+02  0.41729183148E+01 -0.34115497333E+02  0.48957892871E+02  0.00000000000E+00 0.  1.
<scales pt_clust_5="13000.00000" pt_clust_6="13000.00000" pt_clust_7="13000.00000" pt_clust_8="13000.00000" pt_clust_9="35.11422"></scales>
<clustering>
<clus scale="   35.114">  2  9  1 -1</clus>
<clus scale="   76.087">  7  8 -1 -1</clus>
<clus scale="   95.728">  5  6 -1 -1</clus>
<clus scale="   96.983">  2  7  1 -1</clus>
<clus scale="   35.114">  2  5  1 -1</clus>
</clustering>
</event>
<event>
 9    1  0.1399746E-005  0.1987736E+03  0.7546771E-02  0.1179041E+00
         21   -1    0    0  501  502  0.00000000000E+00  0.00000000000E+00  0.55443707202E+03  0.55443707202E+03  0.00000000000E+00 0.  1.
         -2   -1    0    0    0  501 -0.00000000000E+00 -0.00000000000E+00 -0.16221365237E+03  0.16221365237E+03  0.00000000000E+00 0.  1.
         23    2    1    2    0    0  0.47359395544E+02  0.18191742030E+01  0.73630541608E+02  0.12703757661E+03  0.92037315651E+02 0.  0.
         23    2    1    2    0    0  0.13723765156E+03  0.76634774086E+00 -0.54704275474E+02  0.17315964553E+03  0.90315805860E+02 0.  0.
        -11    1    3    3    0    0 -0.41161139292E+01 -0.31553449634E+02  0.82433468948E+00  0.31831464079E+02  0.00000000000E+00 0. -1.
         11    1    3    3    0    0  0.51475509474E+02  0.33372623837E+02  0.72806206918E+02  0.95206112531E+02  0.00000000000E+00 0.  1.
        -13    1    4    4    0    0  0.12572170121E+03  0.32562610635E+02 -0.37267826098E+02  0.13511165986E+03  0.00000000000E+00 0.  1.
         13    1    4    4    0    0  0.11515950348E+02 -0.31796262895E+02 -0.17436449376E+02  0.38047985667E+02  0.00000000000E+00 0. -1.
         -2    1    1    2    0  502 -0.18459704711E+03 -0.25855219438E+01  0.37329715352E+03  0.41645350226E+03  0.00000000000E+00 0.  1.
<scales pt_clust_5="13000.00000" pt_clust_6="13000.00000" pt_clust_7="13000.00000" pt_clust_8="13000.00000" pt_clust_9="177.07058"></scales>
<clustering>
<clus scale="   90.316">  7  8 -1 -1</clus>
<clus scale="   92.037">  5  6 -1 -1</clus>
<clus scale="  103.523">  2  5  1 -1</clus>
<clus scale="  177.071">  1  9  2 -1</clus>
<clus scale="  177.071">  1  5  2 -1</clus>
</clustering>
</event>
<event>
 9    1  0.1399746E-005  0.1810999E+03  0.7546771E-02  0.1166832E+00
         21   -1    0    0  501  502  0.00000000000E+00  0.00000000000E+00  0.64028911151E+03  0.64028911151E+03  0.00000000000E+00 0. -1.
         -1   -1    0    0    0  501 -0.00000000000E+00 -0.00000000000E+00 -0.13933089730E+03  0.13933089730E+03  0.00000000000E+00 0.  1.
         23    2    1    2    0    0 -0.58334937359E+02 -0.14833762054E+03 -0.74356514707E+01  0.18417079613E+03  0.91959657735E+02 0.  0.
         23    2    1    2    0    0  0.14984972516E+03  0.85165195142E+02  0.36669153455E+03  0.41532352777E+03  0.91229932652E+02 0.  0.
        -11    1    4    4    0    0  0.93767511453E+02  0.29018331442E+01  0.15111145779E+03  0.17786354184E+03  0.00000000000E+00 0.  1.
         11    1    4    4    0    0  0.56082213707E+02  0.82263361998E+02  0.21558007676E+03  0.23745998593E+03  0.00000000000E+00 0. -1.
        -13    1    3    3    0    0  0.19661691988E+02 -0.79768193145E+01  0.83903304976E+01  0.22816867095E+02  0.00000000000E+00 0. -1.
         13    1    3    3    0    0 -0.77996629346E+02 -0.14036080122E+03 -0.15825981968E+02  0.16135392903E+03  0.00000000000E+00 0.  1.
         -1    1    1    2    0  502 -0.91514787801E+02  0.63172425395E+02  0.14170233113E+03  0.18012568491E+03  0.00000000000E+00 0.  1.
<scales pt_clust_5="13000.00000" pt_clust_6="13000.00000" pt_clust_7="13000.00000" pt_clust_8="13000.00000" pt_clust_9="111.20122"></scales>
<clustering>
<clus scale="   91.230">  5  6 -1 -1</clus>
<clus scale="   91.960">  7  8 -1 -1</clus>
<clus scale="  111.201">  1  9  2 -1</clus>
<clus scale="  180.730">  1  5  2 -1</clus>
<clus scale="  111.201">  1  5  2 -1</clus>
</clustering>
</event>
<event>
 9    1  0.1399746E-005  0.1826149E+03  0.7546771E-02  0.1165415E+00
         21   -1    0    0  501  502  0.00000000000E+00  0.00000000000E+00  0.44119609074E+03  0.44119609074E+03  0.00000000000E+00 0. -1.
          2   -1    0    0  502    0 -0.00000000000E+00 -0.00000000000E+00 -0.49369291859E+03  0.49369291859E+03  0.00000000000E+00 0. -1.
         23    2    1    2    0    0 -0.74599025432E+02 -0.12533344010E+03 -0.28682287546E+03  0.33438448303E+03  0.90951277079E+02 0.  0.
         23    2    1    2    0    0  0.14750556691E+03  0.13398133901E+03 -0.11258192295E+03  0.24591280336E+03  0.89941792334E+02 0.  0.
        -11    1    3    3    0    0 -0.42382536184E+02 -0.56449189257E+02 -0.52333943275E+02  0.87872816957E+02  0.00000000000E+00 0.  1.
         11    1    3    3    0    0 -0.32216489248E+02 -0.68884250840E+02 -0.23448893218E+03  0.24651166607E+03  0.00000000000E+00 0. -1.
        -13    1    4    4    0    0  0.43113025166E+02  0.73344227001E+02 -0.67116593369E+01  0.85341402288E+02  0.00000000000E+00 0.  1.
         13    1    4    4    0    0  0.10439254174E+03  0.60637112009E+02 -0.10587026361E+03  0.16057140107E+03  0.00000000000E+00 0. -1.
          2    1    1    2  501    0 -0.72906541474E+02 -0.86478989128E+01  0.34690797056E+03  0.35459172295E+03  0.00000000000E+00 0. -1.
<scales pt_clust_5="13000.00000" pt_clust_6="13000.00000" pt_clust_7="13000.00000" pt_clust_8="13000.00000" pt_clust_9="73.41764"></scales>
<clustering>
<clus scale="   73.418">  1  9  2 -1</clus>
<clus scale="   89.942">  7  8 -1 -1</clus>
<clus scale="   90.951">  5  6 -1 -1</clus>
<clus scale="  182.114">  1  7  2 -1</clus>
<clus scale="   73.418">  1  5  2 -1</clus>
</clustering>
</event>
<event>
 9    1  0.1399746E-005  0.9778669E+02  0.7546771E-02  0.1285059E+00
         21   -1    0    0  501  502  0.00000000000E+00  0.00000000000E+00  0.61218014814E+02  0.61218014814E+02  0.00000000000E+00 0. -1.
          1   -1    0    0  502    0 -0.00000000000E+00 -0.00000000000E+00 -0.31743041172E+03  0.31743041172E+03  0.00000000000E+00 0. -1.
         23    2    1    2    0    0 -0.17941444841E+01  0.23780588907E+02 -0.17672920750E+03  0.20048590900E+03  0.91611416115E+02 0.  0.
         23    2    1    2    0    0 -0.22257576795E+02 -0.62966319723E+02 -0.60158001404E+02  0.12828797806E+03  0.91535037212E+02 0.  0.
        -11    1    4    4    0    0 -0.18047578452E+02 -0.85417312380E+02 -0.34335670423E+02  0.93812422448E+02  0.00000000000E+00 0. -1.
         11    1    4    4    0    0 -0.42099983437E+01  0.22450992658E+02 -0.25822330981E+02  0.34475555611E+02  0.00000000000E+00 0.  1.
        -11    1    3    3    0    0  0.18246930671E+02  0.53579190462E+02 -0.12797990591E+03  0.13993761627E+03  0.00000000000E+00 0. -1.
         11    1    3    3    0    0 -0.20041075155E+02 -0.29798601555E+02 -0.48749301584E+02  0.60548292734E+02  0.00000000000E+00 0.  1.
          1    1    1    2  501    0  0.24051721279E+02  0.39185730816E+02 -0.19325188001E+02  0.49874539470E+02  0.00000000000E+00 0. -1.
<scales pt_clust_5="13000.00000" pt_clust_6="13000.00000" pt_clust_7="13000.00000" pt_clust_8="13000.00000" pt_clust_9="45.97833"></scales>
<clustering>
<clus scale="   45.978">  1  9  2 -1</clus>
<clus scale="   91.535">  5  6 -1 -1</clus>
<clus scale="   91.611">  7  8 -1 -1</clus>
<clus scale="   97.715">  1  5  2 -1</clus>
<clus scale="   45.978">  1  5  2 -1</clus>
</clustering>
</event>
<event>
 9    1  0.1399746E-005  0.1305330E+03  0.7546771E-02  0.1229678E+00
         21   -1    0    0  501  502  0.00000000000E+00  0.00000000000E+00  0.83468316084E+02  0.83468316084E+02  0.00000000000E+00 0.  1.
         -2   -1    0    0    0  501 -0.00000000000E+00 -0.00000000000E+00 -0.60383330712E+03  0.60383330712E+03  0.00000000000E+00 0.  1.
         23    2    1    2    0    0  0.26768170850E+02  0.73643446900E+02 -0.39227184218E+03  0.41271515172E+03  0.10157118711E+03 0.  0.
         23    2    1    2    0    0 -0.10591599216E+03 -0.52370451406E+02 -0.12132259341E+03  0.19235047951E+03  0.91206763558E+02 0.  0.
        -13    1    3    3    0    0  0.47354011976E+02  0.28061566237E+02 -0.32076041281E+03  0.32544906879E+03  0.00000000000E+00 0. -1.
         13    1    3    3    0    0 -0.20585841125E+02  0.45581880663E+02 -0.71511429372E+02  0.87266082933E+02  0.00000000000E+00 0.  1.
        -13    1    4    4    0    0 -0.41608147457E+02 -0.28545599584E+02 -0.11238292420E+03  0.12319095276E+03  0.00000000000E+00 0.  1.
         13    1    4    4    0    0 -0.64307844701E+02 -0.23824851822E+02 -0.89396692168E+01  0.69159526749E+02  0.00000000000E+00 0. -1.
         -2    1    1    2    0  502  0.79147821308E+02 -0.21272995494E+02 -0.67705554414E+01  0.82235991975E+02  0.00000000000E+00 0.  1.
<scales pt_clust_5="13000.00000" pt_clust_6="13000.00000" pt_clust_7="13000.00000" pt_clust_8="13000.00000" pt_clust_9="81.95681"></scales>
<clustering>
<clus scale="   81.957">  1  9  2 -1</clus>
<clus scale="   91.207">  7  8 -1 -1</clus>
<clus scale="  101.571">  5  6 -1 -1</clus>
<clus scale="  122.641">  1  7  2 -1</clus>
<clus scale="   81.957">  1  5  2 -1</clus>
</clustering>
</event>
<event>
 9    1  0.1399746E-005  0.1266309E+03  0.7546771E-02  0.1233493E+00
         -2   -1    0    0    0  501 -0.00000000000E+00  0.00000000000E+00  0.13714449744E+03  0.13714449744E+03  0.00000000000E+00 0.  1.
         21   -1    0    0  501  502  0.00000000000E+00 -0.00000000000E+00 -0.21103394851E+03  0.21103394851E+03  0.00000000000E+00 0.  1.
         23    2    1    2    0    0  0.93463210204E+02 -0.29386635968E+02  0.50184537034E+02  0.14592232119E+03  0.95790866098E+02 0.  0.
         23    2    1    2    0    0 -0.50353338988E+02  0.22168375785E+02 -0.55967893009E+02  0.12133020514E+03  0.92529552034E+02 0.  0.
        -11    1    3    3    0    0  0.44353086238E+02 -0.55931129622E+02  0.79750381158E+00  0.71387138421E+02  0.00000000000E+00 0. -1.
         11    1    3    3    0    0  0.49110123966E+02  0.26544493654E+02  0.49387033222E+02  0.74535182765E+02  0.00000000000E+00 0.  1.
        -13    1    4    4    0    0 -0.56316361263E+02 -0.13079228592E+02 -0.36041768066E+01  0.57927444765E+02  0.00000000000E+00 0.  1.
         13    1    4    4    0    0  0.59630222750E+01  0.35247604377E+02 -0.52363716202E+02  0.63402760377E+02  0.00000000000E+00 0. -1.
         -2    1    1    2    0  502 -0.43109871216E+02  0.72182601834E+01 -0.68106095099E+02  0.80925919617E+02  0.00000000000E+00 0.  1.
<scales pt_clust_5="13000.00000" pt_clust_6="13000.00000" pt_clust_7="13000.00000" pt_clust_8="13000.00000" pt_clust_9="43.71000"></scales>
<clustering>
<clus scale="   43.710">  2  9  1 -1</clus>
<clus scale="   92.530">  7  8 -1 -1</clus>
<clus scale="   95.791">  5  6 -1 -1</clus>
<clus scale="  124.182">  2  7  1 -1</clus>
<clus scale="   43.710">  2  5  1 -1</clus>
</clustering>
</event>
<event>
 9    1  0.1399746E-005  0.9063064E+02  0.7546771E-02  0.1303171E+00
          1   -1    0    0  502    0 -0.00000000000E+00  0.00000000000E+00  0.90455837708E+03  0.90455837708E+03  0.00000000000E+00 0. -1.
         21   -1    0    0  501  502  0.00000000000E+00 -0.00000000000E+00 -0.16961294548E+02  0.16961294548E+02  0.00000000000E+00 0. -1.
         23    2    1    2    0    0 -0.32301097471E+01  0.37544106493E+02  0.48239546437E+03  0.49089162629E+03  0.82759961204E+02 0.  0.
         23    2    1    2    0    0  0.33990545816E+02 -0.42724116877E+01  0.33098450253E+03  0.34367178992E+03  0.85941535755E+02 0.  0.
        -13    1    4    4    0    0  0.61858834301E+02 -0.89698627592E+01  0.25649529910E+03  0.26400153840E+03  0.00000000000E+00 0. -1.
         13    1    4    4    0    0 -0.27868288486E+02  0.46974510715E+01  0.74489203432E+02  0.79670251522E+02  0.00000000000E+00 0.  1.
        -13    1    3    3    0    0 -0.21049236575E+02  0.59229497251E+02  0.33669365269E+03  0.34251105014E+03  0.00000000000E+00 0.  1.
         13    1    3    3    0    0  0.17819126827E+02 -0.21685390758E+02  0.14570181167E+03  0.14838057615E+03  0.00000000000E+00 0. -1.
          1    1    1    2  501    0 -0.30760436068E+02 -0.33271694806E+02  0.74217115633E+02  0.86956255412E+02  0.00000000000E+00 0. -1.
<scales pt_clust_5="13000.00000" pt_clust_6="13000.00000" pt_clust_7="13000.00000" pt_clust_8="13000.00000" pt_clust_9="45.31236"></scales>
<clustering>
<clus scale="   45.312">  2  9  1 -1</clus>
<clus scale="   82.760">  7  8 -1 -1</clus>
<clus scale="   85.942">  5  6 -1 -1</clus>
<clus scale="   87.620">  1  7  2 -1</clus>
<clus scale="   45.312">  2  5  1 -1</clus>
</clustering>
</event>
<event>
 9    1  0.1399746E-005  0.2412488E+03  0.7546771E-02  0.1119361E+00
          1   -1    0    0  502    0 -0.00000000000E+00  0.00000000000E+00  0.10366058634E+04  0.10366058634E+04  0.00000000000E+00 0. -1.
         21   -1    0    0  501  502  0.00000000000E+00 -0.00000000000E+00 -0.28443156474E+03  0.28443156474E+03  0.00000000000E+00 0. -1.
         23    2    1    2    0    0 -0.98184170282E+02  0.20361445734E+03  0.94594427609E+03  0.97680647519E+03  0.90781815204E+02 0.  0.
         23    2    1    2    0    0  0.89684029920E+02 -0.14918524871E+03 -0.74214329993E+02  0.21259378513E+03  0.96896269500E+02 0.  0.
        -13    1    3    3    0    0 -0.43113416572E+02  0.94203647422E+02  0.25766215744E+03  0.27771006689E+03  0.00000000000E+00 0.  1.
         13    1    3    3    0    0 -0.55070753710E+02  0.10941080992E+03  0.68828211865E+03  0.69909640830E+03  0.00000000000E+00 0. -1.
        -13    1    4    4    0    0  0.36893623026E+02 -0.11502422404E+03 -0.76679271727E+01  0.12103928554E+03  0.00000000000E+00 0.  1.
         13    1    4    4    0    0  0.52790406894E+02 -0.34161024666E+02 -0.66546402821E+02  0.91554499587E+02  0.00000000000E+00 0. -1.
          1    1    1    2  501    0  0.85001403624E+01 -0.54429208629E+02 -0.11955564740E+03  0.13163716786E+03  0.00000000000E+00 0. -1.
<scales pt_clust_5="13000.00000" pt_clust_6="13000.00000" pt_clust_7="13000.00000" pt_clust_8="13000.00000" pt_clust_9="55.08894"></scales>
<clustering>
<clus scale="   55.089">  2  9  1 -1</clus>
<clus scale="   90.782">  5  6 -1 -1</clus>
<clus scale="   96.896">  7  8 -1 -1</clus>
<clus scale="  238.859">  1  5  2 -1</clus>
<clus scale="   55.089">  2  5  1 -1</clus>
</clustering>
</event>
<event>
 9    1  0.1399746E-005  0.9081167E+02  0.7546771E-02  0.1301023E+00
         21   -1    0    0  501  502  0.00000000000E+00  0.00000000000E+00  0.17128142035E+03  0.17128142035E+03  0.00000000000E+00 0.  1.
          2   -1    0    0  502    0 -0.00000000000E+00 -0.00000000000E+00 -0.75242635725E+02  0.75242635725E+02  0.00000000000E+00 0. -1.
         23    2    1    2    0    0  0.25623070713E+01  0.11479867192E+02  0.47150563793E+01  0.91457969798E+02  0.90575800933E+02 0.  0.
         23    2    1    2    0    0  0.10089553352E+02  0.18108322130E+02  0.66650050215E+02  0.11451585931E+03  0.90785144285E+02 0.  0.
        -11    1    3    3    0    0 -0.37015941463E+02  0.20969666231E+02  0.21216512696E+02  0.47539954093E+02  0.00000000000E+00 0.  1.
         11    1    3    3    0    0  0.39578248534E+02 -0.94897990393E+01 -0.16501456316E+02  0.43918015704E+02  0.00000000000E+00 0. -1.
        -13    1    4    4    0    0 -0.85039987565E+01 -0.28846000564E+02  0.55004216685E+02  0.62688703898E+02  0.00000000000E+00 0.  1.
         13    1    4    4    0    0  0.18593552108E+02  0.46954322693E+02  0.11645833531E+02  0.51827155413E+02  0.00000000000E+00 0. -1.
          2    1    1    2  501    0 -0.12651860423E+02 -0.29588189321E+02  0.24673678034E+02  0.40550226969E+02  0.00000000000E+00 0. -1.
<scales pt_clust_5="13000.00000" pt_clust_6="13000.00000" pt_clust_7="13000.00000" pt_clust_8="13000.00000" pt_clust_9="32.17966"></scales>
<clustering>
<clus scale="   32.180">  1  9  2 -1</clus>
<clus scale="   90.576">  5  6 -1 -1</clus>
<clus scale="   90.602">  2  5  1 -1</clus>
<clus scale="   90.785">  7  8 -1 -1</clus>
<clus scale="   32.180">  1  5  2 -1</clus>
</clustering>
</event>
<event>
 9    1  0.1399746E-005  0.1237235E+03  0.7546771E-02  0.1237693E+00
          2   -1    0    0  502    0 -0.00000000000E+00  0.00000000000E+00  0.76084264015E+03  0.76084264015E+03  0.00000000000E+00 0. -1.
         21   -1    0    0  501  502  0.00000000000E+00 -0.00000000000E+00 -0.30625517080E+02  0.30625517080E+02  0.00000000000E+00 0.  1.
         23    2    1    2    0    0  0.48433411209E+02 -0.76624058768E+02  0.51855348311E+03  0.53484489655E+03  0.94574345413E+02 0.  0.
         23    2    1    2    0    0 -0.31781209745E+02  0.50580205962E+02  0.18719742288E+03  0.21720024887E+03  0.92545504739E+02 0.  0.
        -11    1    4    4    0    0 -0.57068393121E+02  0.84631619584E+01  0.74227647084E+02  0.94011542884E+02  0.00000000000E+00 0. -1.
         11    1    4    4    0    0  0.25287183376E+02  0.42117044004E+02  0.11296977579E+03  0.12318870598E+03  0.00000000000E+00 0.  1.
        -13    1    3    3    0    0  0.36520270690E+02 -0.99063301278E+02  0.42115620750E+03  0.43418869048E+03  0.00000000000E+00 0.  1.
         13    1    3    3    0    0  0.11913140519E+02  0.22439242510E+02  0.97397275617E+02  0.10065620606E+03  0.00000000000E+00 0. -1.
          2    1    1    2  501    0 -0.16652201463E+02  0.26043852805E+02  0.24466217081E+02  0.39423011818E+02  0.00000000000E+00 0. -1.
<scales pt_clust_5="13000.00000" pt_clust_6="13000.00000" pt_clust_7="13000.00000" pt_clust_8="13000.00000" pt_clust_9="30.91243"></scales>
<clustering>
<clus scale="   30.912">  2  9  1 -1</clus>
<clus scale="   92.546">  5  6 -1 -1</clus>
<clus scale="   94.574">  7  8 -1 -1</clus>
<clus scale="  122.180">  2  5  1 -1</clus>
<clus scale="   30.912">  2  5  1 -1</clus>
</clustering>
</event>
<event>
 9    1  0.1399746E-005  0.1044266E+03  0.7546771E-02  0.1271420E+00
         21   -1    0    0  501  502  0.00000000000E+00  0.00000000000E+00  0.17597279360E+03  0.17597279360E+03  0.00000000000E+00 0. -1.
          1   -1    0    0  502    0 -0.00000000000E+00 -0.00000000000E+00 -0.15937669060E+03  0.15937669060E+03  0.00000000000E+00 0. -1.
         23    2    1    2    0    0  0.87657483672E+01 -0.35729261739E+02 -0.39352714673E+02  0.10779396997E+03  0.93367474640E+02 0.  0.
         23    2    1    2    0    0  0.14378305127E+02  0.58538290254E+02 -0.46422350633E+02  0.12015088169E+03  0.92993186027E+02 0.  0.
        -11    1    3    3    0    0  0.38928358861E+02 -0.37959201327E+02 -0.51791453781E+02  0.75091096502E+02  0.00000000000E+00 0. -1.
         11    1    3    3    0    0 -0.30162610494E+02  0.22299395880E+01  0.12438739108E+02  0.32702873467E+02  0.00000000000E+00 0.  1.
        -11    1    4    4    0    0  0.52321584350E+02  0.24906760320E+02 -0.36504995460E+02  0.68487295114E+02  0.00000000000E+00 0. -1.
         11    1    4    4    0    0 -0.37943279222E+02  0.33631529934E+02 -0.99173551727E+01  0.51663586572E+02  0.00000000000E+00 0.  1.
          1    1    1    2  501    0 -0.23144053494E+02 -0.22809028515E+02  0.10237116830E+03  0.10740463255E+03  0.00000000000E+00 0. -1.
<scales pt_clust_5="13000.00000" pt_clust_6="13000.00000" pt_clust_7="13000.00000" pt_clust_8="13000.00000" pt_clust_9="32.49460"></scales>
<clustering>
<clus scale="   32.495">  1  9  2 -1</clus>
<clus scale="   92.993">  7  8 -1 -1</clus>
<clus scale="   93.367">  5  6 -1 -1</clus>
<clus scale="  104.092">  1  7  2 -1</clus>
<clus scale="   32.495">  1  5  2 -1</clus>
</clustering>
</event>
<event>
 9    1  0.1399746E-005  0.1080692E+03  0.7546771E-02  0.1269270E+00
         21   -1    0    0  501  502  0.00000000000E+00  0.00000000000E+00  0.91747923097E+02  0.91747923097E+02  0.00000000000E+00 0.  1.
          2   -1    0    0  502    0 -0.00000000000E+00 -0.00000000000E+00 -0.29665694764E+03  0.29665694764E+03  0.00000000000E+00 0. -1.
         23    2    1    2    0    0  0.13797383656E+01  0.39504152426E+02 -0.16575913400E+03  0.19536788184E+03  0.95551227171E+02 0.  0.
         23    2    1    2    0    0 -0.46715936046E+02 -0.69732120197E+02 -0.62077801686E+02  0.13392024030E+03  0.83881046924E+02 0.  0.
        -11    1    4    4    0    0 -0.26561869819E+02  0.29801923459E+01 -0.51105217562E+02  0.57672850951E+02  0.00000000000E+00 0. -1.
         11    1    4    4    0    0 -0.20154066227E+02 -0.72712312542E+02 -0.10972584124E+02  0.76247389353E+02  0.00000000000E+00 0.  1.
        -13    1    3    3    0    0 -0.65173243328E+01 -0.28800474769E+02 -0.81069113996E+02  0.86279453564E+02  0.00000000000E+00 0.  1.
         13    1    3    3    0    0  0.78970626984E+01  0.68304627195E+02 -0.84690020000E+02  0.10908842827E+03  0.00000000000E+00 0. -1.
          2    1    1    2  501    0  0.45336197680E+02  0.30227967771E+02  0.22927911137E+02  0.59116748598E+02  0.00000000000E+00 0. -1.
<scales pt_clust_5="13000.00000" pt_clust_6="13000.00000" pt_clust_7="13000.00000" pt_clust_8="13000.00000" pt_clust_9="54.48946"></scales>
<clustering>
<clus scale="   54.489">  1  9  2 -1</clus>
<clus scale="   83.881">  5  6 -1 -1</clus>
<clus scale="   95.551">  7  8 -1 -1</clus>
<clus scale="   97.903">  1  5  2 -1</clus>
<clus scale="   54.489">  1  5  2 -1</clus>
</clustering>
</event>
<event>
 9    1  0.1399746E-005  0.1161740E+03  0.7546771E-02  0.1249670E+00
          2   -1    0    0  502    0 -0.00000000000E+00  0.00000000000E+00  0.75530280922E+03  0.75530280922E+03  0.00000000000E+00 0. -1.
         21   -1    0    0  501  502  0.00000000000E+00 -0.00000000000E+00 -0.30778604351E+02  0.30778604351E+02  0.00000000000E+00 0.  1.
         23    2    1    2    0    0 -0.57963917356E+02 -0.39772740550E+02  0.52910844269E+03  0.54105813998E+03  0.88580359609E+02 0.  0.
         23    2    1    2    0    0  0.77923768812E+02  0.45939726558E+02  0.17002263673E+03  0.21214108682E+03  0.88958257033E+02 0.  0.
        -11    1    4    4    0    0  0.30789494075E+02  0.54068687340E+02  0.14581210404E+03  0.15853260100E+03  0.00000000000E+00 0. -1.
         11    1    4    4    0    0  0.47134274737E+02 -0.81289607816E+01  0.24210532687E+02  0.53608485815E+02  0.00000000000E+00 0.  1.
        -11    1    3    3    0    0 -0.38196296381E+02  0.24767227896E+02  0.20437925770E+03  0.20938780674E+03  0.00000000000E+00 0.  1.
         11    1    3    3    0    0 -0.19767620975E+02 -0.64539968446E+02  0.32472918500E+03  0.33167033325E+03  0.00000000000E+00 0. -1.
          2    1    1    2  501    0 -0.19959851456E+02 -0.61669860086E+01  0.25393125444E+02  0.32882186764E+02  0.00000000000E+00 0. -1.
<scales pt_clust_5="13000.00000" pt_clust_6="13000.00000" pt_clust_7="13000.00000" pt_clust_8="13000.00000" pt_clust_9="20.89084"></scales>
<clustering>
<clus scale="   20.891">  2  9  1 -1</clus>
<clus scale="   88.580">  7  8 -1 -1</clus>
<clus scale="   88.958">  5  6 -1 -1</clus>
<clus scale="  115.885">  1  7  2 -1</clus>
<clus scale="   20.891">  2  5  1 -1</clus>
</clustering>
</event>
<event>
 9    1  0.1399746E-005  0.1087633E+03  0.7546771E-02  0.1263271E+00
         21   -1    0    0  501  502  0.00000000000E+00  0.00000000000E+00  0.31026639169E+03  0.31026639169E+03  0.00000000000E+00 0. -1.
         -4   -1    0    0    0  501 -0.00000000000E+00 -0.00000000000E+00 -0.15960363676E+03  0.15960363676E+03  0.00000000000E+00 0.  1.
         23    2    1    2    0    0 -0.50735745865E+02  0.21539947122E+02 -0.10173959212E+03  0.14805830882E+03  0.92370087022E+02 0.  0.
         23    2    1    2    0    0  0.62520302326E+02 -0.13220930528E+00  0.59048431196E+02  0.12691968854E+03  0.93343904084E+02 0.  0.
        -11    1    4    4    0    0  0.68989759586E+02 -0.25817936531E+02  0.66674156485E+02  0.99355905298E+02  0.00000000000E+00 0.  1.
         11    1    4    4    0    0 -0.64694572597E+01  0.25685727226E+02 -0.76257252892E+01  0.27563783241E+02  0.00000000000E+00 0. -1.
        -13    1    3    3    0    0 -0.91327013757E+01 -0.33955090848E+02 -0.51739924749E+02  0.62556967973E+02  0.00000000000E+00 0.  1.
         13    1    3    3    0    0 -0.41603044489E+02  0.55495037970E+02 -0.49999667369E+02  0.85501340850E+02  0.00000000000E+00 0. -1.
         -4    1    1    2    0  502 -0.11784556462E+02 -0.21407737817E+02  0.19335391585E+03  0.19489203110E+03  0.00000000000E+00 0.  1.
<scales pt_clust_5="13000.00000" pt_clust_6="13000.00000" pt_clust_7="13000.00000" pt_clust_8="13000.00000" pt_clust_9="24.43700"></scales>
<clustering>
<clus scale="   24.437">  1  9  2 -1</clus>
<clus scale="   92.370">  7  8 -1 -1</clus>
<clus scale="   93.344">  5  6 -1 -1</clus>
<clus scale="  107.929">  2  7  1 -1</clus>
<clus scale="   24.437">  1  5  2 -1</clus>
</clustering>
</event>
<event>
 9    1  0.1399746E-005  0.1023206E+03  0.7546771E-02  0.1275742E+00
         21   -1    0    0  501  502  0.00000000000E+00  0.00000000000E+00  0.57035045163E+02  0.57035045163E+02  0.00000000000E+00 0.  1.
         -1   -1    0    0    0  501 -0.00000000000E+00 -0.00000000000E+00 -0.32092611882E+03  0.32092611882E+03  0.00000000000E+00 0.  1.
         23    2    1    2    0    0 -0.27654456570E+02  0.15908578390E+02 -0.10675375567E+03  0.14359974253E+03  0.90590672099E+02 0.  0.
         23    2    1    2    0    0  0.19503383650E+02 -0.67301548937E+02 -0.13629576999E+03  0.17830745162E+03  0.91143457912E+02 0.  0.
        -11    1    3    3    0    0 -0.30681127917E+02 -0.28938875868E+02 -0.82182201370E+02  0.92372638637E+02  0.00000000000E+00 0.  1.
         11    1    3    3    0    0  0.30266713472E+01  0.44847454258E+02 -0.24571554299E+02  0.51227103895E+02  0.00000000000E+00 0. -1.
        -13    1    4    4    0    0 -0.26289602145E+02 -0.31119381180E+02 -0.14483589666E+02  0.43235788828E+02  0.00000000000E+00 0. -1.
         13    1    4    4    0    0  0.45792985795E+02 -0.36182167757E+02 -0.12181218033E+03  0.13507166279E+03  0.00000000000E+00 0.  1.
         -1    1    1    2    0  502  0.81510729198E+01  0.51392970547E+02 -0.20841547991E+02  0.56053969833E+02  0.00000000000E+00 0.  1.
<scales pt_clust_5="13000.00000" pt_clust_6="13000.00000" pt_clust_7="13000.00000" pt_clust_8="13000.00000" pt_clust_9="52.03535"></scales>
<clustering>
<clus scale="   52.035">  1  9  2 -1</clus>
<clus scale="   90.591">  5  6 -1 -1</clus>
<clus scale="   91.143">  7  8 -1 -1</clus>
<clus scale="  101.829">  2  5  1 -1</clus>
<clus scale="   52.035">  1  5  2 -1</clus>
</clustering>
</event>
<event>
 9    1  0.1399746E-005  0.2998225E+03  0.7546771E-02  0.1085398E+00
         -4   -1    0    0    0  501 -0.00000000000E+00  0.00000000000E+00  0.37039372178E+03  0.37039372178E+03  0.00000000000E+00 0.  1.
         21   -1    0    0  501  502  0.00000000000E+00 -0.00000000000E+00 -0.72378721778E+03  0.72378721778E+03  0.00000000000E+00 0.  1.
         23    2    1    2    0    0 -0.17657660195E+02  0.30148967469E+03  0.24382576331E+03  0.39835146565E+03  0.89582757376E+02 0.  0.
         23    2    1    2    0    0  0.44204548668E+02 -0.21333692845E+03 -0.28435903051E+03  0.36970500884E+03  0.91405952576E+02 0.  0.
        -11    1    4    4    0    0  0.38553572967E+02 -0.18783813509E+03 -0.28508918790E+03  0.34357733924E+03  0.00000000000E+00 0.  1.
         11    1    4    4    0    0  0.56509757016E+01 -0.25498793364E+02  0.73015738158E+00  0.26127669609E+02  0.00000000000E+00 0. -1.
        -11    1    3    3    0    0 -0.44273197177E+02  0.26396481027E+03  0.22043707486E+03  0.34674203816E+03  0.00000000000E+00 0.  1.
         11    1    3    3    0    0  0.26615536982E+02  0.37524864423E+02  0.23388688447E+02  0.51609427492E+02  0.00000000000E+00 0. -1.
         -4    1    1    2    0  502 -0.26546888474E+02 -0.88152746244E+02 -0.31286022879E+03  0.32612446507E+03  0.00000000000E+00 0.  1.
<scales pt_clust_5="13000.00000" pt_clust_6="13000.00000" pt_clust_7="13000.00000" pt_clust_8="13000.00000" pt_clust_9="92.06326"></scales>
<clustering>
<clus scale="   89.583">  7  8 -1 -1</clus>
<clus scale="   91.406">  5  6 -1 -1</clus>
<clus scale="   92.063">  2  9  1 -1</clus>
<clus scale="  299.272">  1  7  2 -1</clus>
<clus scale="   92.063">  2  5  1 -1</clus>
</clustering>
</event>
<event>
 9    1  0.1399746E-005  0.1079249E+03  0.7546771E-02  0.1266769E+00
         -2   -1    0    0    0  501 -0.00000000000E+00  0.00000000000E+00  0.38086177803E+03  0.38086177803E+03  0.00000000000E+00 0.  1.
         21   -1    0    0  501  502  0.00000000000E+00 -0.00000000000E+00 -0.13706425516E+03  0.13706425516E+03  0.00000000000E+00 0.  1.
         23    2    1    2    0    0  0.32066613084E+01 -0.55898738775E+02  0.27861437650E+03  0.29733715874E+03  0.87455494414E+02 0.  0.
         23    2    1    2    0    0 -0.67345709398E+02  0.38292305446E+02  0.33142405578E+02  0.12549805000E+03  0.93003205732E+02 0.  0.
        -11    1    4    4    0    0 -0.62570087093E+02 -0.13781568722E+02  0.35319793554E+02  0.73160339338E+02  0.00000000000E+00 0.  1.
         11    1    4    4    0    0 -0.47756223045E+01  0.52073874168E+02 -0.21773879764E+01  0.52337710665E+02  0.00000000000E+00 0. -1.
        -13    1    3    3    0    0  0.42376910317E+02 -0.29135566557E+02  0.18983665601E+03  0.19667902718E+03  0.00000000000E+00 0.  1.
         13    1    3    3    0    0 -0.39170249008E+02 -0.26763172217E+02  0.88777720481E+02  0.10065813156E+03  0.00000000000E+00 0. -1.
         -2    1    1    2    0  502  0.64139048089E+02  0.17606433329E+02 -0.67959259197E+02  0.95090824452E+02  0.00000000000E+00 0.  1.
<scales pt_clust_5="13000.00000" pt_clust_6="13000.00000" pt_clust_7="13000.00000" pt_clust_8="13000.00000" pt_clust_9="66.51168"></scales>
<clustering>
<clus scale="   66.512">  2  9  1 -1</clus>
<clus scale="   87.455">  7  8 -1 -1</clus>
<clus scale="   93.003">  5  6 -1 -1</clus>
<clus scale="  103.183">  1  7  2 -1</clus>
<clus scale="   66.512">  2  5  1 -1</clus>
</clustering>
</event>
<event>
 9    1  0.1399746E-005  0.1727612E+03  0.7546771E-02  0.1176021E+00
          2   -1    0    0  502    0 -0.00000000000E+00  0.00000000000E+00  0.25014150044E+03  0.25014150044E+03  0.00000000000E+00 0. -1.
         21   -1    0    0  501  502  0.00000000000E+00 -0.00000000000E+00 -0.40176429610E+03  0.40176429610E+03  0.00000000000E+00 0. -1.
         23    2    1    2    0    0  0.14688262828E+03  0.29449371784E+02  0.18992932393E+03  0.25809349987E+03  0.89985190997E+02 0.  0.
         23    2    1    2    0    0 -0.89998506605E+02 -0.27062013874E+01 -0.24655686635E+03  0.27990400637E+03  0.97205502518E+02 0.  0.
        -13    1    4    4    0    0 -0.63011985452E+02 -0.45146269723E+02 -0.18382740368E+03  0.19950240681E+03  0.00000000000E+00 0.  1.
         13    1    4    4    0    0 -0.26986521153E+02  0.42440068336E+02 -0.62729462674E+02  0.80401599559E+02  0.00000000000E+00 0. -1.
        -13    1    3    3    0    0  0.12206846095E+03  0.40905711027E+02  0.19146144111E+03  0.23071946122E+03  0.00000000000E+00 0. -1.
         13    1    3    3    0    0  0.24814167327E+02 -0.11456339242E+02 -0.15321171807E+01  0.27374038650E+02  0.00000000000E+00 0.  1.
          2    1    1    2  501    0 -0.56884121673E+02 -0.26743170397E+02 -0.94995253238E+02  0.11390829030E+03  0.00000000000E+00 0. -1.
<scales pt_clust_5="13000.00000" pt_clust_6="13000.00000" pt_clust_7="13000.00000" pt_clust_8="13000.00000" pt_clust_9="62.85698"></scales>
<clustering>
<clus scale="   62.857">  2  9  1 -1</clus>
<clus scale="   89.985">  7  8 -1 -1</clus>
<clus scale="   97.206">  5  6 -1 -1</clus>
<clus scale="  168.804">  1  7  2 -1</clus>
<clus scale="   62.857">  2  5  1 -1</clus>
</clustering>
</event>
<event>
 9    1  0.1399746E-005  0.1025390E+03  0.7546771E-02  0.1275084E+00
         21   -1    0    0  501  502  0.00000000000E+00  0.00000000000E+00  0.15859346343E+03  0.15859346343E+03  0.00000000000E+00 0.  1.
          1   -1    0    0  502    0 -0.00000000000E+00 -0.00000000000E+00 -0.17094452188E+03  0.17094452188E+03  0.00000000000E+00 0. -1.
         23    2    1    2    0    0 -0.27605802094E+01 -0.40925077151E+02 -0.90386021590E+02  0.13568278678E+03  0.92507853649E+02 0.  0.
         23    2    1    2    0    0 -0.47200392487E+02  0.57829656047E+02  0.76077467944E+02  0.14107551146E+03  0.92424956782E+02 0.  0.
        -13    1    3    3    0    0  0.17899972476E+02  0.25011789515E+02 -0.18117894957E+02  0.35696733003E+02  0.00000000000E+00 0.  1.
         13    1    3    3    0    0 -0.20660552686E+02 -0.65936866666E+02 -0.72268126633E+02  0.99986053778E+02  0.00000000000E+00 0. -1.
        -13    1    4    4    0    0 -0.41662729205E+02  0.15957356670E+01 -0.52735717094E+01  0.42025467704E+02  0.00000000000E+00 0. -1.
         13    1    4    4    0    0 -0.55376632822E+01  0.56233920380E+02  0.81351039654E+02  0.99050043759E+02  0.00000000000E+00 0.  1.
          1    1    1    2  501    0  0.49960972697E+02 -0.16904578896E+02  0.19574951959E+01  0.52779687077E+02  0.00000000000E+00 0. -1.
<scales pt_clust_5="13000.00000" pt_clust_6="13000.00000" pt_clust_7="13000.00000" pt_clust_8="13000.00000" pt_clust_9="52.74337"></scales>
<clustering>
<clus scale="   52.743">  1  9  2 -1</clus>
<clus scale="   92.425">  7  8 -1 -1</clus>
<clus scale="   92.508">  5  6 -1 -1</clus>
<clus scale="  102.464">  1  7  2 -1</clus>
<clus scale="   52.743">  1  5  2 -1</clus>
</clustering>
</event>
<event>
 9    1  0.1399746E-005  0.1725893E+03  0.7546771E-02  0.1180970E+00
         21   -1    0    0  501  502  0.00000000000E+00  0.00000000000E+00  0.45230141039E+02  0.45230141039E+02  0.00000000000E+00 0.  1.
          1   -1    0    0  502    0 -0.00000000000E+00 -0.00000000000E+00 -0.73346524833E+03  0.73346524833E+03  0.00000000000E+00 0. -1.
         23    2    1    2    0    0 -0.55548320713E+02 -0.99919642207E+02 -0.33783167107E+03  0.36878450828E+03  0.93820172328E+02 0.  0.
         23    2    1    2    0    0  0.86413465606E+02  0.95427576393E+02 -0.27617408286E+03  0.32939484092E+03  0.12512045319E+03 0.  0.
        -11    1    4    4    0    0  0.60755044270E+02  0.11368760288E+03 -0.14289186914E+03  0.19244254394E+03  0.00000000000E+00 0.  1.
         11    1    4    4    0    0  0.25658421336E+02 -0.18260026485E+02 -0.13328221373E+03  0.13695229698E+03  0.00000000000E+00 0. -1.
        -13    1    3    3    0    0  0.15199914264E+02 -0.53822343181E+02 -0.81034459904E+02  0.98460477914E+02  0.00000000000E+00 0.  1.
         13    1    3    3    0    0 -0.70748234977E+02 -0.46097299025E+02 -0.25679721116E+03  0.27032403036E+03  0.00000000000E+00 0. -1.
          1    1    1    2  501    0 -0.30865144893E+02  0.44920658134E+01 -0.74229353363E+02  0.80516040174E+02  0.00000000000E+00 0. -1.
<scales pt_clust_5="13000.00000" pt_clust_6="13000.00000" pt_clust_7="13000.00000" pt_clust_8="13000.00000" pt_clust_9="31.19033"></scales>
<clustering>
<clus scale="   31.190">  1  9  2 -1</clus>
<clus scale="   93.820">  7  8 -1 -1</clus>
<clus scale="  125.120">  5  6 -1 -1</clus>
<clus scale="  151.440">  2  7  1 -1</clus>
<clus scale="   31.190">  1  5  2 -1</clus>
</clustering>
</event>
<event>
 9    1  0.1399746E-005  0.1824232E+03  0.7546771E-02  0.1186825E+00
          1   -1    0    0  502    0 -0.00000000000E+00  0.00000000000E+00  0.22458426859E+03  0.22458426859E+03  0.00000000000E+00 0. -1.
         21   -1    0    0  501  502  0.00000000000E+00 -0.00000000000E+00 -0.34260836618E+03  0.34260836618E+03  0.00000000000E+00 0. -1.
         23    2    1    2    0    0 -0.44693912853E+02 -0.47900472856E+02  0.97173434122E+02  0.14867929682E+03  0.91492381421E+02 0.  0.
         23    2    1    2    0    0  0.77542684266E+02 -0.12044115901E+03 -0.39777101169E+02  0.17317627540E+03  0.88819276727E+02 0.  0.
        -11    1    3    3    0    0  0.27358432605E+02 -0.13253957376E+02  0.40681402838E+02  0.50785113543E+02  0.00000000000E+00 0.  1.
         11    1    3    3    0    0 -0.72052345459E+02 -0.34646515480E+02  0.56492031284E+02  0.97894183278E+02  0.00000000000E+00 0. -1.
        -11    1    4    4    0    0  0.70160582839E+02 -0.27912909178E+02 -0.13502250857E+02  0.76706901002E+02  0.00000000000E+00 0.  1.
         11    1    4    4    0    0  0.73821014274E+01 -0.92528249834E+02 -0.26274850312E+02  0.96469374403E+02  0.00000000000E+00 0. -1.
          1    1    1    2  501    0 -0.32848771413E+02  0.16834163187E+03 -0.17542043055E+03  0.24533706254E+03  0.00000000000E+00 0. -1.
<scales pt_clust_5="13000.00000" pt_clust_6="13000.00000" pt_clust_7="13000.00000" pt_clust_8="13000.00000" pt_clust_9="159.34035"></scales>
<clustering>
<clus scale="   88.819">  7  8 -1 -1</clus>
<clus scale="   91.492">  5  6 -1 -1</clus>
<clus scale="  112.529">  1  5  2 -1</clus>
<clus scale="  159.340">  2  9  1 -1</clus>
<clus scale="  159.340">  2  5  1 -1</clus>
</clustering>
</event>
<event>
 9    1  0.1399746E-005  0.1554505E+03  0.7546771E-02  0.1194511E+00
          4   -1    0    0  502    0 -0.00000000000E+00  0.00000000000E+00  0.57585248138E+03  0.57585248138E+03  0.00000000000E+00 0. -1.
         21   -1    0    0  501  502  0.00000000000E+00 -0.00000000000E+00 -0.98369230123E+02  0.98369230123E+02  0.00000000000E+00 0. -1.
         23    2    1    2    0    0 -0.10433266651E+03  0.31922186133E+01  0.26655184562E+03  0.30106622236E+03  0.93249602058E+02 0.  0.
         23    2    1    2    0    0  0.15410678036E+03  0.56721506638E+02  0.22417155498E+03  0.29414651220E+03  0.96452348366E+02 0.  0.
        -11    1    4    4    0    0  0.40522410928E+00  0.34720975594E+02  0.33455483947E+02  0.48218043914E+02  0.00000000000E+00 0.  1.
         11    1    4    4    0    0  0.15370155625E+03  0.22000531045E+02  0.19071607103E+03  0.24592846828E+03  0.00000000000E+00 0. -1.
        -13    1    3    3    0    0 -0.47728364969E+02  0.37412220414E+02  0.19225221592E+03  0.20159014257E+03  0.00000000000E+00 0.  1.
         13    1    3    3    0    0 -0.56604301536E+02 -0.34220001800E+02  0.74299629706E+02  0.99476079788E+02  0.00000000000E+00 0. -1.
          4    1    1    2  501    0 -0.49774113857E+02 -0.59913725252E+02 -0.13240149342E+02  0.79008976948E+02  0.00000000000E+00 0. -1.
<scales pt_clust_5="13000.00000" pt_clust_6="13000.00000" pt_clust_7="13000.00000" pt_clust_8="13000.00000" pt_clust_9="77.89170"></scales>
<clustering>
<clus scale="   77.892">  2  9  1 -1</clus>
<clus scale="   93.250">  7  8 -1 -1</clus>
<clus scale="   96.452">  5  6 -1 -1</clus>
<clus scale="  153.484">  1  7  2 -1</clus>
<clus scale="   77.892">  2  5  1 -1</clus>
</clustering>
</event>
<event>
 9    1  0.1399746E-005  0.1650360E+03  0.7546771E-02  0.1183321E+00
          2   -1    0    0  502    0 -0.00000000000E+00  0.00000000000E+00  0.11669242566E+04  0.11669242566E+04  0.00000000000E+00 0. -1.
         21   -1    0    0  501  502  0.00000000000E+00 -0.00000000000E+00 -0.54628707705E+02  0.54628707705E+02  0.00000000000E+00 0. -1.
         23    2    1    2    0    0  0.98626494835E+02  0.78593237645E+02  0.66849411550E+03  0.68645274252E+03  0.91809056006E+02 0.  0.
         23    2    1    2    0    0 -0.12571308726E+03 -0.96464346168E+02  0.46281250879E+03  0.49749063528E+03  0.90511676117E+02 0.  0.
        -11    1    3    3    0    0  0.70883103135E+02  0.84639725382E+02  0.62385373408E+03  0.63354698243E+03  0.00000000000E+00 0. -1.
         11    1    3    3    0    0  0.27743391699E+02 -0.60464877373E+01  0.44640381422E+02  0.52905760087E+02  0.00000000000E+00 0.  1.
        -11    1    4    4    0    0 -0.11009505541E+03 -0.51757193075E+02  0.40434986886E+03  0.42225412338E+03  0.00000000000E+00 0.  1.
         11    1    4    4    0    0 -0.15618031850E+02 -0.44707153093E+02  0.58462639926E+02  0.75236511905E+02  0.00000000000E+00 0. -1.
          2    1    1    2  501    0  0.27086592425E+02  0.17871108523E+02 -0.19011075397E+02  0.37609586501E+02  0.00000000000E+00 0. -1.
<scales pt_clust_5="13000.00000" pt_clust_6="13000.00000" pt_clust_7="13000.00000" pt_clust_8="13000.00000" pt_clust_9="32.45089"></scales>
<clustering>
<clus scale="   32.451">  2  9  1 -1</clus>
<clus scale="   90.512">  7  8 -1 -1</clus>
<clus scale="   91.809">  5  6 -1 -1</clus>
<clus scale="  164.318">  2  7  1 -1</clus>
<clus scale="   32.451">  2  5  1 -1</clus>
</clustering>
</event>
<event>
 9    1  0.1399746E-005  0.1039066E+03  0.7546771E-02  0.1273936E+00
         21   -1    0    0  501  502  0.00000000000E+00  0.00000000000E+00  0.44702791570E+02  0.44702791570E+02  0.00000000000E+00 0.  1.
          1   -1    0    0  502    0 -0.00000000000E+00 -0.00000000000E+00 -0.43217074947E+03  0.43217074947E+03  0.00000000000E+00 0. -1.
         23    2    1    2    0    0  0.21456860265E+02  0.49422724713E+02 -0.30029008019E+03  0.31877628093E+03  0.92418517924E+02 0.  0.
         23    2    1    2    0    0 -0.12278205485E+01 -0.27407319382E+02 -0.37641849449E+02  0.10023785970E+03  0.88758385451E+02 0.  0.
        -13    1    3    3    0    0 -0.25757079812E+02  0.28227678941E+02 -0.48617443700E+02  0.61837568280E+02  0.00000000000E+00 0.  1.
         13    1    3    3    0    0  0.47213940076E+02  0.21195045772E+02 -0.25167263649E+03  0.25693871265E+03  0.00000000000E+00 0. -1.
        -13    1    4    4    0    0  0.17187731832E+02  0.21961833018E+02  0.95746937332E+01  0.29485843979E+02  0.00000000000E+00 0. -1.
         13    1    4    4    0    0 -0.18415552381E+02 -0.49369152401E+02 -0.47216543183E+02  0.70752015719E+02  0.00000000000E+00 0.  1.
          1    1    1    2  501    0 -0.20229039716E+02 -0.22015405331E+02 -0.49536028269E+02  0.57859400415E+02  0.00000000000E+00 0. -1.
<scales pt_clust_5="13000.00000" pt_clust_6="13000.00000" pt_clust_7="13000.00000" pt_clust_8="13000.00000" pt_clust_9="29.89804"></scales>
<clustering>
<clus scale="   29.898">  1  9  2 -1</clus>
<clus scale="   88.758">  7  8 -1 -1</clus>
<clus scale="   92.419">  5  6 -1 -1</clus>
<clus scale="  100.665">  1  7  2 -1</clus>
<clus scale="   29.898">  1  5  2 -1</clus>
</clustering>
</event>
<event>
 9    1  0.1399746E-005  0.2028128E+03  0.7546771E-02  0.1174105E+00
         21   -1    0    0  501  502  0.00000000000E+00  0.00000000000E+00  0.19212553135E+03  0.19212553135E+03  0.00000000000E+00 0. -1.
          2   -1    0    0  502    0 -0.00000000000E+00 -0.00000000000E+00 -0.47949544921E+03  0.47949544921E+03  0.00000000000E+00 0. -1.
         23    2    1    2    0    0 -0.51411649765E+02  0.27176048434E+02 -0.71757601049E+02  0.13047455379E+03  0.92156174716E+02 0.  0.
         23    2    1    2    0    0 -0.12555473251E+03  0.47827038815E+02 -0.29264381743E+03  0.33408021600E+03  0.88981854033E+02 0.  0.
        -11    1    4    4    0    0 -0.11586642350E+03  0.66781448588E+02 -0.27722363413E+03  0.30779495332E+03  0.00000000000E+00 0. -1.
         11    1    4    4    0    0 -0.96883090052E+01 -0.18954409773E+02 -0.15420183306E+02  0.26285262685E+02  0.00000000000E+00 0.  1.
        -13    1    3    3    0    0  0.13495725168E+02 -0.19940540029E+02 -0.19714665570E+01  0.24158775110E+02  0.00000000000E+00 0.  1.
         13    1    3    3    0    0 -0.64907374932E+02  0.47116588462E+02 -0.69786134492E+02  0.10631577868E+03  0.00000000000E+00 0. -1.
          2    1    1    2  501    0  0.17696638227E+03 -0.75003087248E+02  0.77031500618E+02  0.20706621076E+03  0.00000000000E+00 0. -1.
<scales pt_clust_5="13000.00000" pt_clust_6="13000.00000" pt_clust_7="13000.00000" pt_clust_8="13000.00000" pt_clust_9="182.25050"></scales>
<clustering>
<clus scale="   88.982">  5  6 -1 -1</clus>
<clus scale="   92.156">  7  8 -1 -1</clus>
<clus scale="  108.970">  2  7  1 -1</clus>
<clus scale="  182.250">  1  9  2 -1</clus>
<clus scale="  182.250">  1  5  2 -1</clus>
</clustering>
</event>
<event>
 9    1  0.1399746E-005  0.1611246E+03  0.7546771E-02  0.1187729E+00
          1   -1    0    0  502    0 -0.00000000000E+00  0.00000000000E+00  0.28612610265E+03  0.28612610265E+03  0.00000000000E+00 0. -1.
         21   -1    0    0  501  502  0.00000000000E+00 -0.00000000000E+00 -0.20718165203E+03  0.20718165203E+03  0.00000000000E+00 0.  1.
         23    2    1    2    0    0  0.12193931304E+03  0.60191660859E+02  0.21367535824E+03  0.26942815270E+03  0.91881111487E+02 0.  0.
         23    2    1    2    0    0 -0.10762306923E+03 -0.43336728733E+02 -0.85535945861E+02  0.16994271445E+03  0.90018504069E+02 0.  0.
        -11    1    4    4    0    0 -0.54957078514E+02 -0.17856282584E+02 -0.94486752868E+02  0.11075591981E+03  0.00000000000E+00 0.  1.
         11    1    4    4    0    0 -0.52665990714E+02 -0.25480446148E+02  0.89508070063E+01  0.59186794641E+02  0.00000000000E+00 0. -1.
        -11    1    3    3    0    0  0.15220574982E+02  0.48030114700E+02  0.36418777140E+02  0.62168200467E+02  0.00000000000E+00 0.  1.
         11    1    3    3    0    0  0.10671873806E+03  0.12161546159E+02  0.17725658110E+03  0.20725995223E+03  0.00000000000E+00 0. -1.
          1    1    1    2  501    0 -0.14316243814E+02 -0.16854932126E+02 -0.49194961751E+02  0.53936887522E+02  0.00000000000E+00 0. -1.
<scales pt_clust_5="13000.00000" pt_clust_6="13000.00000" pt_clust_7="13000.00000" pt_clust_8="13000.00000" pt_clust_9="22.11433"></scales>
<clustering>
<clus scale="   22.114">  2  9  1 -1</clus>
<clus scale="   90.019">  5  6 -1 -1</clus>
<clus scale="   91.881">  7  8 -1 -1</clus>
<clus scale="  160.070">  2  5  1 -1</clus>
<clus scale="   22.114">  2  5  1 -1</clus>
</clustering>
</event>
<event>
 9    1  0.1399746E-005  0.9976421E+02  0.7546771E-02  0.1282279E+00
         21   -1    0    0  501  502  0.00000000000E+00  0.00000000000E+00  0.31391081028E+03  0.31391081028E+03  0.00000000000E+00 0. -1.
          2   -1    0    0  502    0 -0.00000000000E+00 -0.00000000000E+00 -0.46688160423E+03  0.46688160423E+03  0.00000000000E+00 0. -1.
         23    2    1    2    0    0 -0.41328853197E+02  0.13422515484E+02 -0.37252165576E+03  0.38598349283E+03  0.91228475261E+02 0.  0.
         23    2    1    2    0    0  0.35469613032E+00 -0.58894392488E+02 -0.50823462913E+02  0.11759267285E+03  0.88183541831E+02 0.  0.
        -11    1    3    3    0    0  0.66214966241E+01  0.41645641349E+02 -0.11417766018E+03  0.12171582372E+03  0.00000000000E+00 0.  1.
         11    1    3    3    0    0 -0.47950349821E+02 -0.28223125865E+02 -0.25834399559E+03  0.26426766911E+03  0.00000000000E+00 0. -1.
        -11    1    4    4    0    0  0.17602484663E+02 -0.14149565270E+02  0.21259090444E+02  0.31016231076E+02  0.00000000000E+00 0.  1.
         11    1    4    4    0    0 -0.17247788533E+02 -0.44744827218E+02 -0.72082553357E+02  0.86576441775E+02  0.00000000000E+00 0. -1.
          2    1    1    2  501    0  0.40974157066E+02  0.45471877004E+02  0.27037432472E+03  0.27721624883E+03  0.00000000000E+00 0. -1.
<scales pt_clust_5="13000.00000" pt_clust_6="13000.00000" pt_clust_7="13000.00000" pt_clust_8="13000.00000" pt_clust_9="61.20926"></scales>
<clustering>
<clus scale="   61.209">  1  9  2 -1</clus>
<clus scale="   88.184">  7  8 -1 -1</clus>
<clus scale="   91.228">  5  6 -1 -1</clus>
<clus scale="   96.988">  1  7  2 -1</clus>
<clus scale="   61.209">  1  5  2 -1</clus>
</clustering>
</event>
<event>
 9    1  0.1399746E-005  0.9549087E+02  0.7546771E-02  0.1290686E+00
         21   -1    0    0  501  502  0.00000000000E+00  0.00000000000E+00  0.93257652067E+02  0.93257652067E+02  0.00000000000E+00 0.  1.
          1   -1    0    0  502    0 -0.00000000000E+00 -0.00000000000E+00 -0.13295352654E+03  0.13295352654E+03  0.00000000000E+00 0. -1.
         23    2    1    2    0    0  0.12143794283E+02  0.70908550801E+01 -0.17344495042E+02  0.95222184978E+02  0.92567170414E+02 0.  0.
         23    2    1    2    0    0 -0.20249476576E+02 -0.30252252372E+02 -0.95173999631E+00  0.98429863143E+02  0.91445568915E+02 0.  0.
        -11    1    4    4    0    0  0.74994085319E+01 -0.31318684943E+02  0.38494793327E+02  0.50189144923E+02  0.00000000000E+00 0.  1.
         11    1    4    4    0    0 -0.27748885108E+02  0.10664325708E+01 -0.39446533323E+02  0.48240718220E+02  0.00000000000E+00 0. -1.
        -13    1    3    3    0    0  0.23633560602E+02  0.42830054203E+02 -0.27783262104E+02  0.56257162948E+02  0.00000000000E+00 0.  1.
         13    1    3    3    0    0 -0.11489766319E+02 -0.35739199123E+02  0.10438767062E+02  0.38965022030E+02  0.00000000000E+00 0. -1.
          1    1    1    2  501    0  0.81056822929E+01  0.23161397292E+02 -0.21399639432E+02  0.32559130482E+02  0.00000000000E+00 0. -1.
<scales pt_clust_5="13000.00000" pt_clust_6="13000.00000" pt_clust_7="13000.00000" pt_clust_8="13000.00000" pt_clust_9="24.53881"></scales>
<clustering>
<clus scale="   24.539">  1  9  2 -1</clus>
<clus scale="   91.446">  5  6 -1 -1</clus>
<clus scale="   92.567">  7  8 -1 -1</clus>
<clus scale="   94.404">  1  5  2 -1</clus>
<clus scale="   24.539">  1  5  2 -1</clus>
</clustering>
</event>
<event>
 9    1  0.1399746E-005  0.1892320E+03  0.7546771E-02  0.1159954E+00
          1   -1    0    0  502    0 -0.00000000000E+00  0.00000000000E+00  0.83987595359E+03  0.83987595359E+03  0.00000000000E+00 0. -1.
         21   -1    0    0  501  502  0.00000000000E+00 -0.00000000000E+00 -0.22504327358E+03  0.22504327358E+03  0.00000000000E+00 0. -1.
         23    2    1    2    0    0  0.23878943316E+02  0.17911638758E+03  0.65989594273E+03  0.69019507976E+03  0.90849923774E+02 0.  0.
         23    2    1    2    0    0 -0.17238318548E+02 -0.12891313489E+03  0.12409613053E+03  0.19814735166E+03  0.83347269791E+02 0.  0.
        -11    1    3    3    0    0 -0.33768850325E+02  0.89399247036E+02  0.31936775116E+03  0.33335914733E+03  0.00000000000E+00 0. -1.
         11    1    3    3    0    0  0.57647793642E+02  0.89717140546E+02  0.34052819157E+03  0.35683593243E+03  0.00000000000E+00 0.  1.
        -13    1    4    4    0    0  0.33490798880E+02 -0.61734307824E+02  0.53688841093E+02  0.88403902799E+02  0.00000000000E+00 0.  1.
         13    1    4    4    0    0 -0.50729117428E+02 -0.67178827069E+02  0.70407289436E+02  0.10974344886E+03  0.00000000000E+00 0. -1.
          1    1    1    2  501    0 -0.66406247684E+01 -0.50203252689E+02 -0.16915939325E+03  0.17657679576E+03  0.00000000000E+00 0. -1.
<scales pt_clust_5="13000.00000" pt_clust_6="13000.00000" pt_clust_7="13000.00000" pt_clust_8="13000.00000" pt_clust_9="50.64054"></scales>
<clustering>
<clus scale="   50.641">  2  9  1 -1</clus>
<clus scale="   83.347">  7  8 -1 -1</clus>
<clus scale="   90.850">  5  6 -1 -1</clus>
<clus scale="  185.747">  2  7  1 -1</clus>
<clus scale="   50.641">  2  5  1 -1</clus>
</clustering>
</event>
<event>
 9    1  0.1399746E-005  0.1117997E+03  0.7546771E-02  0.1258338E+00
         21   -1    0    0  501  502  0.00000000000E+00  0.00000000000E+00  0.10125413743E+03  0.10125413743E+03  0.00000000000E+00 0.  1.
          2   -1    0    0  502    0 -0.00000000000E+00 -0.00000000000E+00 -0.40955880955E+03  0.40955880955E+03  0.00000000000E+00 0. -1.
         23    2    1    2    0    0  0.19480125507E+02 -0.54976190339E+02 -0.28288522208E+03  0.30338472683E+03  0.92824494653E+02 0.  0.
         23    2    1    2    0    0  0.17773991830E+02  0.83573381372E+02 -0.70158695536E+02  0.14256475832E+03  0.90011348699E+02 0.  0.
        -13    1    4    4    0    0  0.23477833421E+02  0.53241072232E+02  0.78099335720E+01  0.58709586073E+02  0.00000000000E+00 0.  1.
         13    1    4    4    0    0 -0.57038415903E+01  0.30332309140E+02 -0.77968629108E+02  0.83855172242E+02  0.00000000000E+00 0. -1.
        -13    1    3    3    0    0 -0.30789922343E+02 -0.23621218196E+00 -0.48044840649E+02  0.57064716131E+02  0.00000000000E+00 0.  1.
         13    1    3    3    0    0  0.50270047850E+02 -0.54739978157E+02 -0.23484038143E+03  0.24632001070E+03  0.00000000000E+00 0. -1.
          2    1    1    2  501    0 -0.37254117337E+02 -0.28597191033E+02  0.44739245493E+02  0.64863461831E+02  0.00000000000E+00 0. -1.
<scales pt_clust_5="13000.00000" pt_clust_6="13000.00000" pt_clust_7="13000.00000" pt_clust_8="13000.00000" pt_clust_9="46.96455"></scales>
<clustering>
<clus scale="   46.965">  1  9  2 -1</clus>
<clus scale="   90.011">  5  6 -1 -1</clus>
<clus scale="   92.824">  7  8 -1 -1</clus>
<clus scale="  109.475">  1  5  2 -1</clus>
<clus scale="   46.965">  1  5  2 -1</clus>
</clustering>
</event>
<event>
 9    1  0.1399746E-005  0.1630979E+03  0.7546771E-02  0.1213520E+00
         21   -1    0    0  501  502  0.00000000000E+00  0.00000000000E+00  0.61962210507E+02  0.61962210507E+02  0.00000000000E+00 0. -1.
          2   -1    0    0  502    0 -0.00000000000E+00 -0.00000000000E+00 -0.76169840280E+03  0.76169840280E+03  0.00000000000E+00 0. -1.
         23    2    1    2    0    0 -0.23869693479E+02 -0.33444816324E+02 -0.16602157897E+03  0.18798990590E+03  0.78030263559E+02 0.  0.
         23    2    1    2    0    0 -0.10781279785E+03  0.72242851690E+02 -0.44406202966E+03  0.47170988334E+03  0.92067903498E+02 0.  0.
        -11    1    4    4    0    0 -0.27106327198E+02 -0.19802786255E+02 -0.61858237444E+02  0.70380003249E+02  0.00000000000E+00 0.  1.
         11    1    4    4    0    0 -0.80706470649E+02  0.92045637945E+02 -0.38220379222E+03  0.40132988010E+03  0.00000000000E+00 0. -1.
        -13    1    3    3    0    0  0.21001037889E+02 -0.27652211015E+02 -0.34684455244E+02  0.49078506518E+02  0.00000000000E+00 0. -1.
         13    1    3    3    0    0 -0.44870731369E+02 -0.57926053096E+01 -0.13133712373E+03  0.13891139939E+03  0.00000000000E+00 0.  1.
          2    1    1    2  501    0  0.13168249133E+03 -0.38798035366E+02 -0.89652583658E+02  0.16396082406E+03  0.00000000000E+00 0. -1.
<scales pt_clust_5="13000.00000" pt_clust_6="13000.00000" pt_clust_7="13000.00000" pt_clust_8="13000.00000" pt_clust_9="134.62699"></scales>
<clustering>
<clus scale="   78.030">  7  8 -1 -1</clus>
<clus scale="   88.188">  2  7  1 -1</clus>
<clus scale="   92.068">  5  6 -1 -1</clus>
<clus scale="  134.627">  1  9  2 -1</clus>
<clus scale="  134.627">  1  5  2 -1</clus>
</clustering>
</event>
<event>
 9    1  0.1399746E-005  0.9988381E+02  0.7546771E-02  0.1281625E+00
         -1   -1    0    0    0  501 -0.00000000000E+00  0.00000000000E+00  0.15613369814E+03  0.15613369814E+03  0.00000000000E+00 0.  1.
         21   -1    0    0  501  502  0.00000000000E+00 -0.00000000000E+00 -0.29177934027E+03  0.29177934027E+03  0.00000000000E+00 0.  1.
         23    2    1    2    0    0 -0.29657102040E+01 -0.31820025602E+02  0.11796542965E+03  0.15426150158E+03  0.94124698186E+02 0.  0.
         23    2    1    2    0    0 -0.28088865098E+02  0.48519376208E+02 -0.15352202819E+03  0.18753334044E+03  0.91959917513E+02 0.  0.
        -11    1    3    3    0    0 -0.54815243592E+01 -0.63325912129E+02  0.98224382167E+02  0.11699678418E+03  0.00000000000E+00 0.  1.
         11    1    3    3    0    0  0.25158141551E+01  0.31505886527E+02  0.19741047487E+02  0.37264717396E+02  0.00000000000E+00 0. -1.
        -13    1    4    4    0    0  0.17240720231E+02 -0.11548880044E+02 -0.78792308910E+02  0.81479120072E+02  0.00000000000E+00 0. -1.
         13    1    4    4    0    0 -0.45329585329E+02  0.60068256252E+02 -0.74729719279E+02  0.10605422037E+03  0.00000000000E+00 0.  1.
         -1    1    1    2    0  502  0.31054575302E+02 -0.16699350606E+02 -0.10008904359E+03  0.10611819639E+03  0.00000000000E+00 0.  1.
<scales pt_clust_5="13000.00000" pt_clust_6="13000.00000" pt_clust_7="13000.00000" pt_clust_8="13000.00000" pt_clust_9="35.25982"></scales>
<clustering>
<clus scale="   35.260">  2  9  1 -1</clus>
<clus scale="   91.960">  7  8 -1 -1</clus>
<clus scale="   94.125">  5  6 -1 -1</clus>
<clus scale="   97.847">  2  7  1 -1</clus>
<clus scale="   35.260">  2  5  1 -1</clus>
</clustering>
</event>
<event>
 9    1  0.1399746E-005  0.9723327E+02  0.7546771E-02  0.1286535E+00
          2   -1    0    0  502    0 -0.00000000000E+00  0.00000000000E+00  0.67088078719E+03  0.67088078719E+03  0.00000000000E+00 0. -1.
         21   -1    0    0  501  502  0.00000000000E+00 -0.00000000000E+00 -0.34821083963E+02  0.34821083963E+02  0.00000000000E+00 0. -1.
         23    2    1    2    0    0 -0.34075754854E+02 -0.22663861635E+02  0.38867729392E+03  0.40067227059E+03  0.88280359753E+02 0.  0.
         23    2    1    2    0    0 -0.10603497616E+02  0.60856026776E+02  0.10421867760E+03  0.15026936291E+03  0.88901397706E+02 0.  0.
        -13    1    3    3    0    0 -0.90335904755E+01 -0.53276824139E+02  0.16793646246E+03  0.17641621572E+03  0.00000000000E+00 0.  1.
         13    1    3    3    0    0 -0.25042164378E+02  0.30612962504E+02  0.22074083147E+03  0.22425605487E+03  0.00000000000E+00 0. -1.
        -13    1    4    4    0    0  0.22215937100E+02  0.51735962072E+02  0.10153431860E+03  0.11610071269E+03  0.00000000000E+00 0. -1.
         13    1    4    4    0    0 -0.32819434715E+02  0.91200647039E+01  0.26843589975E+01  0.34168650229E+02  0.00000000000E+00 0.  1.
          2    1    1    2  501    0  0.44679252470E+02 -0.38192165141E+02  0.14316373170E+03  0.15476023764E+03  0.00000000000E+00 0. -1.
<scales pt_clust_5="13000.00000" pt_clust_6="13000.00000" pt_clust_7="13000.00000" pt_clust_8="13000.00000" pt_clust_9="58.77823"></scales>
<clustering>
<clus scale="   58.778">  2  9  1 -1</clus>
<clus scale="   88.280">  5  6 -1 -1</clus>
<clus scale="   88.901">  7  8 -1 -1</clus>
<clus scale="   96.666">  1  5  2 -1</clus>
<clus scale="   58.778">  2  5  1 -1</clus>
</clustering>
</event>
<event>
 9    1  0.1399746E-005  0.1151409E+03  0.7546771E-02  0.1257306E+00
         21   -1    0    0  501  502  0.00000000000E+00  0.00000000000E+00  0.16880168148E+03  0.16880168148E+03  0.00000000000E+00 0. -1.
          2   -1    0    0  502    0 -0.00000000000E+00 -0.00000000000E+00 -0.24348711979E+03  0.24348711979E+03  0.00000000000E+00 0. -1.
         23    2    1    2    0    0 -0.34074425574E+02  0.35961217492E+02 -0.18985688209E+03  0.21648468350E+03  0.91464238228E+02 0.  0.
         23    2    1    2    0    0  0.16066224734E+02 -0.17947944722E+02  0.38475909219E+02  0.11498964930E+03  0.10565023218E+03 0.  0.
        -13    1    4    4    0    0  0.60958801360E+02 -0.38027028564E+01  0.18123121546E+02  0.63709367811E+02  0.00000000000E+00 0. -1.
         13    1    4    4    0    0 -0.44892576626E+02 -0.14145241865E+02  0.20352787672E+02  0.51280281489E+02  0.00000000000E+00 0.  1.
        -13    1    3    3    0    0 -0.10003647653E+02 -0.27614366623E+02 -0.26543103700E+02  0.39587404113E+02  0.00000000000E+00 0.  1.
         13    1    3    3    0    0 -0.24070777920E+02  0.63575584115E+02 -0.16331377839E+03  0.17689727939E+03  0.00000000000E+00 0. -1.
          2    1    1    2  501    0  0.18008200840E+02 -0.18013272770E+02  0.76695534554E+02  0.80814468469E+02  0.00000000000E+00 0. -1.
<scales pt_clust_5="13000.00000" pt_clust_6="13000.00000" pt_clust_7="13000.00000" pt_clust_8="13000.00000" pt_clust_9="25.47103"></scales>
<clustering>
<clus scale="   25.471">  1  9  2 -1</clus>
<clus scale="   91.464">  7  8 -1 -1</clus>
<clus scale="  102.280">  2  7  1 -1</clus>
<clus scale="  105.650">  5  6 -1 -1</clus>
<clus scale="   25.471">  1  5  2 -1</clus>
</clustering>
</event>
<event>
 9    1  0.1399746E-005  0.1618079E+03  0.7546771E-02  0.1188082E+00
         21   -1    0    0  501  502  0.00000000000E+00  0.00000000000E+00  0.15595990742E+03  0.15595990742E+03  0.00000000000E+00 0. -1.
          1   -1    0    0  502    0 -0.00000000000E+00 -0.00000000000E+00 -0.23985216618E+03  0.23985216618E+03  0.00000000000E+00 0. -1.
         23    2    1    2    0    0  0.61618606075E+02 -0.98496673846E+02 -0.56429163703E+02  0.15963846966E+03  0.93817605515E+02 0.  0.
         23    2    1    2    0    0 -0.75367813726E+02  0.14130255496E+03  0.39722251529E+01  0.18131411501E+03  0.84925322168E+02 0.  0.
        -11    1    4    4    0    0  0.36044621759E+00  0.25150341857E+02  0.31129490637E+02  0.40021429314E+02  0.00000000000E+00 0.  1.
         11    1    4    4    0    0 -0.75728259943E+02  0.11615221311E+03 -0.27157265484E+02  0.14129268570E+03  0.00000000000E+00 0. -1.
        -13    1    3    3    0    0  0.82764469875E+01 -0.88862062361E+02 -0.56133979654E+02  0.10543239243E+03  0.00000000000E+00 0. -1.
         13    1    3    3    0    0  0.53342159088E+02 -0.96346114848E+01 -0.29518404917E+00  0.54206077226E+02  0.00000000000E+00 0.  1.
          1    1    1    2  501    0  0.13749207651E+02 -0.42805881118E+02 -0.31435320203E+02  0.54859488929E+02  0.00000000000E+00 0. -1.
<scales pt_clust_5="13000.00000" pt_clust_6="13000.00000" pt_clust_7="13000.00000" pt_clust_8="13000.00000" pt_clust_9="44.95983"></scales>
<clustering>
<clus scale="   44.960">  1  9  2 -1</clus>
<clus scale="   84.925">  5  6 -1 -1</clus>
<clus scale="   93.818">  7  8 -1 -1</clus>
<clus scale="  156.820">  1  5  2 -1</clus>
<clus scale="   44.960">  1  5  2 -1</clus>
</clustering>
</event>
<event>
 9    1  0.1399746E-005  0.1034157E+03  0.7546771E-02  0.1273833E+00
          4   -1    0    0  502    0 -0.00000000000E+00  0.00000000000E+00  0.85677535080E+02  0.85677535080E+02  0.00000000000E+00 0. -1.
         21   -1    0    0  501  502  0.00000000000E+00 -0.00000000000E+00 -0.20776225828E+03  0.20776225828E+03  0.00000000000E+00 0. -1.
         23    2    1    2    0    0  0.45348301037E+02  0.35098571014E+02 -0.97702156935E+01  0.10776491816E+03  0.90716274052E+02 0.  0.
         23    2    1    2    0    0 -0.17813222826E+01 -0.42413165901E+02 -0.62172289923E+02  0.11884803238E+03  0.91964185508E+02 0.  0.
        -11    1    4    4    0    0 -0.22648885900E+02  0.22509294665E+02 -0.11699246236E+02  0.34007539478E+02  0.00000000000E+00 0.  1.
         11    1    4    4    0    0  0.20867563618E+02 -0.64922460566E+02 -0.50473043687E+02  0.84840492905E+02  0.00000000000E+00 0. -1.
        -13    1    3    3    0    0 -0.20893399480E+02  0.33727153637E+02  0.46864102133E+01  0.39950187421E+02  0.00000000000E+00 0.  1.
         13    1    3    3    0    0  0.66241700517E+02  0.13714173776E+01 -0.14456625907E+02  0.67814730742E+02  0.00000000000E+00 0. -1.
          4    1    1    2  501    0 -0.43566978754E+02  0.73145948865E+01 -0.50142217580E+02  0.66826842810E+02  0.00000000000E+00 0. -1.
<scales pt_clust_5="13000.00000" pt_clust_6="13000.00000" pt_clust_7="13000.00000" pt_clust_8="13000.00000" pt_clust_9="44.17675"></scales>
<clustering>
<clus scale="   44.177">  2  9  1 -1</clus>
<clus scale="   90.716">  7  8 -1 -1</clus>
<clus scale="   91.964">  5  6 -1 -1</clus>
<clus scale="  102.308">  1  7  2 -1</clus>
<clus scale="   44.177">  2  5  1 -1</clus>
</clustering>
</event>
<event>
 9    1  0.1399746E-005  0.1246589E+03  0.7546771E-02  0.1235639E+00
          3   -1    0    0  502    0 -0.00000000000E+00  0.00000000000E+00  0.11696196927E+03  0.11696196927E+03  0.00000000000E+00 0. -1.
         21   -1    0    0  501  502  0.00000000000E+00 -0.00000000000E+00 -0.25063850794E+03  0.25063850794E+03  0.00000000000E+00 0.  1.
         23    2    1    2    0    0 -0.22064239431E+02 -0.74343257265E+02  0.30147264537E+02  0.12344238063E+03  0.91188887552E+02 0.  0.
         23    2    1    2    0    0  0.19970318802E+02  0.10475518616E+03 -0.96421653455E+02  0.17018296756E+03  0.91063958457E+02 0.  0.
        -11    1    4    4    0    0 -0.21560529818E+01  0.82269126738E+02 -0.10869237538E+03  0.13633374580E+03  0.00000000000E+00 0.  1.
         11    1    4    4    0    0  0.22126371784E+02  0.22486059424E+02  0.12270721924E+02  0.33849221753E+02  0.00000000000E+00 0. -1.
        -13    1    3    3    0    0  0.77627642700E+01 -0.82233131841E+02  0.39002157499E+02  0.91343947643E+02  0.00000000000E+00 0. -1.
         13    1    3    3    0    0 -0.29827003701E+02  0.78898745754E+01 -0.88548929614E+01  0.32098432983E+02  0.00000000000E+00 0.  1.
          3    1    1    2  501    0  0.20939206293E+01 -0.30411928897E+02 -0.67402149753E+02  0.73975129024E+02  0.00000000000E+00 0. -1.
<scales pt_clust_5="13000.00000" pt_clust_6="13000.00000" pt_clust_7="13000.00000" pt_clust_8="13000.00000" pt_clust_9="30.48393"></scales>
<clustering>
<clus scale="   30.484">  2  9  1 -1</clus>
<clus scale="   91.064">  5  6 -1 -1</clus>
<clus scale="   91.189">  7  8 -1 -1</clus>
<clus scale="  124.568">  2  5  1 -1</clus>
<clus scale="   30.484">  2  5  1 -1</clus>
</clustering>
</event>
<event>
 9    1  0.1399746E-005  0.1057660E+03  0.7546771E-02  0.1271262E+00
         21   -1    0    0  501  502  0.00000000000E+00  0.00000000000E+00  0.19036425131E+03  0.19036425131E+03  0.00000000000E+00 0. -1.
          3   -1    0    0  502    0 -0.00000000000E+00 -0.00000000000E+00 -0.77988341414E+02  0.77988341414E+02  0.00000000000E+00 0. -1.
         23    2    1    2    0    0  0.49114395586E+02 -0.14882934247E+01  0.71872155671E+00  0.10327186299E+03  0.90830183606E+02 0.  0.
         23    2    1    2    0    0 -0.29037085732E+02  0.56451373614E+01  0.94151946244E+02  0.13812129311E+03  0.96632720669E+02 0.  0.
        -11    1    4    4    0    0 -0.39003310438E+02 -0.30308373761E+02  0.16682735309E+02  0.52136066236E+02  0.00000000000E+00 0. -1.
         11    1    4    4    0    0  0.99662247057E+01  0.35953511122E+02  0.77469210935E+02  0.85985226869E+02  0.00000000000E+00 0.  1.
        -13    1    3    3    0    0  0.22719320866E+02  0.35313397484E+02  0.27935629016E+02  0.50434144694E+02  0.00000000000E+00 0.  1.
         13    1    3    3    0    0  0.26395074720E+02 -0.36801690909E+02 -0.27216907459E+02  0.52837718297E+02  0.00000000000E+00 0. -1.
          3    1    1    2  501    0 -0.20077309854E+02 -0.41568439367E+01  0.17505242096E+02  0.26959436629E+02  0.00000000000E+00 0. -1.
<scales pt_clust_5="13000.00000" pt_clust_6="13000.00000" pt_clust_7="13000.00000" pt_clust_8="13000.00000" pt_clust_9="20.50311"></scales>
<clustering>
<clus scale="   20.503">  1  9  2 -1</clus>
<clus scale="   90.830">  7  8 -1 -1</clus>
<clus scale="   96.633">  5  6 -1 -1</clus>
<clus scale="  100.492">  2  7  1 -1</clus>
<clus scale="   20.503">  1  5  2 -1</clus>
</clustering>
</event>
<event>
 9    1  0.1399746E-005  0.1026242E+03  0.7546771E-02  0.1284174E+00
         21   -1    0    0  501  502  0.00000000000E+00  0.00000000000E+00  0.96084086752E+02  0.96084086752E+02  0.00000000000E+00 0. -1.
          1   -1    0    0  502    0 -0.00000000000E+00 -0.00000000000E+00 -0.48740475289E+03  0.48740475289E+03  0.00000000000E+00 0. -1.
         23    2    1    2    0    0  0.19043905706E+01 -0.41590636761E+02 -0.41176479721E+03  0.42467135390E+03  0.95195077803E+02 0.  0.
         23    2    1    2    0    0  0.32875124591E+02  0.21901686539E+02 -0.32576542006E+02  0.92421241807E+02  0.76941517778E+02 0.  0.
        -11    1    4    4    0    0 -0.45696647621E+01  0.36685143135E+02  0.50567739477E+01  0.37312900258E+02  0.00000000000E+00 0.  1.
         11    1    4    4    0    0  0.37444789353E+02 -0.14783456596E+02 -0.37633315954E+02  0.55108341549E+02  0.00000000000E+00 0. -1.
        -11    1    3    3    0    0 -0.42952678913E+02 -0.31652781024E+02 -0.15758887829E+03  0.16637633766E+03  0.00000000000E+00 0.  1.
         11    1    3    3    0    0  0.44857069483E+02 -0.99378557371E+01 -0.25417591892E+03  0.25829501625E+03  0.00000000000E+00 0. -1.
          1    1    1    2  501    0 -0.34779515161E+02  0.19688950221E+02  0.53020673072E+02  0.66396243935E+02  0.00000000000E+00 0. -1.
<scales pt_clust_5="13000.00000" pt_clust_6="13000.00000" pt_clust_7="13000.00000" pt_clust_8="13000.00000" pt_clust_9="39.96585"></scales>
<clustering>
<clus scale="   39.966">  1  9  2 -1</clus>
<clus scale="   76.942">  5  6 -1 -1</clus>
<clus scale="   85.963">  1  5  2 -1</clus>
<clus scale="   95.195">  7  8 -1 -1</clus>
<clus scale="   39.966">  1  5  2 -1</clus>
</clustering>
</event>
<event>
 9    1  0.1399746E-005  0.2400523E+03  0.7546771E-02  0.1119785E+00
         21   -1    0    0  501  502  0.00000000000E+00  0.00000000000E+00  0.14417920091E+03  0.14417920091E+03  0.00000000000E+00 0. -1.
         -3   -1    0    0    0  501 -0.00000000000E+00 -0.00000000000E+00 -0.72850853142E+03  0.72850853142E+03  0.00000000000E+00 0.  1.
         23    2    1    2    0    0  0.86132120751E+02 -0.21911669789E+03 -0.51086698302E+03  0.56983663548E+03  0.91092520432E+02 0.  0.
         23    2    1    2    0    0 -0.85949329061E+02  0.17342158195E+03 -0.11358345316E+03  0.24204172131E+03  0.90667865159E+02 0.  0.
        -13    1    4    4    0    0 -0.65341299166E+02  0.16832473459E+03 -0.70173501961E+02  0.19371892533E+03  0.00000000000E+00 0. -1.
         13    1    4    4    0    0 -0.20608029894E+02  0.50968473593E+01 -0.43409951195E+02  0.48322795986E+02  0.00000000000E+00 0.  1.
        -13    1    3    3    0    0  0.34051171127E+02 -0.12275172607E+03 -0.17426921920E+03  0.21586391377E+03  0.00000000000E+00 0.  1.
         13    1    3    3    0    0  0.52080949624E+02 -0.96364971822E+02 -0.33659776382E+03  0.35397272171E+03  0.00000000000E+00 0. -1.
         -3    1    1    2    0  502 -0.18279169003E+00  0.45695115936E+02  0.40121105671E+02  0.60809375539E+02  0.00000000000E+00 0.  1.
<scales pt_clust_5="13000.00000" pt_clust_6="13000.00000" pt_clust_7="13000.00000" pt_clust_8="13000.00000" pt_clust_9="45.69548"></scales>
<clustering>
<clus scale="   45.695">  1  9  2 -1</clus>
<clus scale="   90.668">  5  6 -1 -1</clus>
<clus scale="   91.093">  7  8 -1 -1</clus>
<clus scale="  239.891">  1  5  2 -1</clus>
<clus scale="   45.695">  1  5  2 -1</clus>
</clustering>
</event>
<event>
 9    1  0.1399746E-005  0.9618966E+02  0.7546771E-02  0.1289633E+00
         21   -1    0    0  501  502  0.00000000000E+00  0.00000000000E+00  0.16025974117E+03  0.16025974117E+03  0.00000000000E+00 0.  1.
          2   -1    0    0  502    0 -0.00000000000E+00 -0.00000000000E+00 -0.27100976574E+03  0.27100976574E+03  0.00000000000E+00 0. -1.
         23    2    1    2    0    0  0.25782757840E+02  0.40982609604E+01 -0.18577192579E+03  0.20801228506E+03  0.89868548334E+02 0.  0.
         23    2    1    2    0    0 -0.53828642297E+02 -0.17305335553E+02  0.12455632367E+03  0.16482215138E+03  0.91951435265E+02 0.  0.
        -11    1    3    3    0    0  0.51413836250E+02 -0.21239183397E+02 -0.13239735193E+03  0.14360899786E+03  0.00000000000E+00 0. -1.
         11    1    3    3    0    0 -0.25631078410E+02  0.25337444358E+02 -0.53374573862E+02  0.64403287199E+02  0.00000000000E+00 0.  1.
        -13    1    4    4    0    0 -0.35110531461E+01 -0.25225719609E+02  0.10844817632E+03  0.11139870453E+03  0.00000000000E+00 0.  1.
         13    1    4    4    0    0 -0.50317589150E+02  0.79203840558E+01  0.16108147350E+02  0.53423446843E+02  0.00000000000E+00 0. -1.
          2    1    1    2  501    0  0.28045884457E+02  0.13207074593E+02 -0.49534422445E+02  0.58435070474E+02  0.00000000000E+00 0. -1.
<scales pt_clust_5="13000.00000" pt_clust_6="13000.00000" pt_clust_7="13000.00000" pt_clust_8="13000.00000" pt_clust_9="30.99999"></scales>
<clustering>
<clus scale="   31.000">  1  9  2 -1</clus>
<clus scale="   89.869">  5  6 -1 -1</clus>
<clus scale="   91.951">  7  8 -1 -1</clus>
<clus scale="   94.201">  2  5  1 -1</clus>
<clus scale="   31.000">  1  5  2 -1</clus>
</clustering>
</event>
<event>
 9    1  0.2231463E-005  0.1879541E+03  0.7546771E-02  0.1160369E+00
         21   -1    0    0  501  502  0.00000000000E+00  0.00000000000E+00  0.33952198261E+03  0.33952198261E+03  0.00000000000E+00 0.  1.
          1   -1    0    0  502    0 -0.00000000000E+00 -0.00000000000E+00 -0.36586644620E+03  0.36586644620E+03  0.00000000000E+00 0. -1.
         23    2    1    2    0    0  0.91271446957E+02 -0.13268349785E+03 -0.28253348107E+03  0.33773315189E+03  0.91121492135E+02 0.  0.
         23    2    1    2    0    0 -0.86047727844E+02  0.17828077541E+03  0.21467336507E+03  0.30576870038E+03  0.90673028579E+02 0.  0.
        -13    1    4    4    0    0 -0.53728480944E+02  0.17523315647E+03  0.16613159115E+03  0.24737242039E+03  0.00000000000E+00 0.  1.
         13    1    4    4    0    0 -0.32319246901E+02  0.30476189440E+01  0.48541773918E+02  0.58396279989E+02  0.00000000000E+00 0. -1.
        -13    1    3    3    0    0  0.31702584204E+02  0.41736702898E+01 -0.79903974898E+02  0.86064618592E+02  0.00000000000E+00 0.  1.
         13    1    3    3    0    0  0.59568862753E+02 -0.13685716814E+03 -0.20262950617E+03  0.25166853329E+03  0.00000000000E+00 0. -1.
          1    1    1    2  501    0 -0.52237191123E+01 -0.45597277565E+02  0.41515652396E+02  0.61886576546E+02  0.00000000000E+00 0. -1.
<scales pt_clust_5="13000.00000" pt_clust_6="13000.00000" pt_clust_7="13000.00000" pt_clust_8="13000.00000" pt_clust_9="45.89552"></scales>
<clustering>
<clus scale="   45.896">  1  9  2 -1</clus>
<clus scale="   90.673">  5  6 -1 -1</clus>
<clus scale="   91.121">  7  8 -1 -1</clus>
<clus scale="  187.737">  1  5  2 -1</clus>
<clus scale="   45.896">  1  5  2 -1</clus>
</clustering>
</event>
<event>
 9    1  0.1399746E-005  0.1171569E+03  0.7546771E-02  0.1249333E+00
         21   -1    0    0  501  502  0.00000000000E+00  0.00000000000E+00  0.75214795686E+02  0.75214795686E+02  0.00000000000E+00 0. -1.
         -4   -1    0    0    0  501 -0.00000000000E+00 -0.00000000000E+00 -0.22995069578E+03  0.22995069578E+03  0.00000000000E+00 0.  1.
         23    2    1    2    0    0 -0.80907985533E+02  0.84962813861E+01 -0.10425712554E+03  0.15955276279E+03  0.89270638881E+02 0.  0.
         23    2    1    2    0    0  0.55208067522E+02  0.82371124763E+00 -0.34700829326E+02  0.11404864143E+03  0.93564607814E+02 0.  0.
        -11    1    4    4    0    0 -0.26516796269E+02  0.37505828439E+01 -0.10500299684E+02  0.28765667896E+02  0.00000000000E+00 0.  1.
         11    1    4    4    0    0  0.81724863791E+02 -0.29268715963E+01 -0.24200529642E+02  0.85282973529E+02  0.00000000000E+00 0. -1.
        -11    1    3    3    0    0 -0.33273279866E+02  0.94144200474E+01 -0.10638290192E+03  0.11186180884E+03  0.00000000000E+00 0.  1.
         11    1    3    3    0    0 -0.47634705667E+02 -0.91813866121E+00  0.21257763764E+01  0.47690953941E+02  0.00000000000E+00 0. -1.
         -4    1    1    2    0  502  0.25699918011E+02 -0.93199926338E+01 -0.15777945224E+02  0.31564087251E+02  0.00000000000E+00 0.  1.
<scales pt_clust_5="13000.00000" pt_clust_6="13000.00000" pt_clust_7="13000.00000" pt_clust_8="13000.00000" pt_clust_9="27.33767"></scales>
<clustering>
<clus scale="   27.338">  1  9  2 -1</clus>
<clus scale="   89.271">  7  8 -1 -1</clus>
<clus scale="   93.565">  5  6 -1 -1</clus>
<clus scale="  113.757">  2  7  1 -1</clus>
<clus scale="   27.338">  1  5  2 -1</clus>
</clustering>
</event>
<event>
 9    1  0.1399746E-005  0.1045399E+03  0.7546771E-02  0.1271548E+00
          2   -1    0    0  502    0 -0.00000000000E+00  0.00000000000E+00  0.59385284509E+03  0.59385284509E+03  0.00000000000E+00 0. -1.
         21   -1    0    0  501  502  0.00000000000E+00 -0.00000000000E+00 -0.25228672562E+02  0.25228672562E+02  0.00000000000E+00 0.  1.
         23    2    1    2    0    0  0.13970632834E+02 -0.54993639167E+02  0.32549818945E+03  0.34266090168E+03  0.90818188016E+02 0.  0.
         23    2    1    2    0    0 -0.30102148613E+02  0.31301900352E+02  0.20350811086E+03  0.22752173983E+03  0.92003492273E+02 0.  0.
        -13    1    3    3    0    0  0.38591369097E+02 -0.49704391348E+02  0.30107305499E+03  0.30757894065E+03  0.00000000000E+00 0. -1.
         13    1    3    3    0    0 -0.24620736263E+02 -0.52892478188E+01  0.24425134460E+02  0.35081961034E+02  0.00000000000E+00 0.  1.
        -13    1    4    4    0    0 -0.50958023210E+02  0.49074819403E+02  0.11647754949E+03  0.13627940991E+03  0.00000000000E+00 0.  1.
         13    1    4    4    0    0  0.20855874597E+02 -0.17772919051E+02  0.87030561372E+02  0.91242329922E+02  0.00000000000E+00 0. -1.
          2    1    1    2  501    0  0.16131515778E+02  0.23691738815E+02  0.39617872216E+02  0.48898876145E+02  0.00000000000E+00 0. -1.
<scales pt_clust_5="13000.00000" pt_clust_6="13000.00000" pt_clust_7="13000.00000" pt_clust_8="13000.00000" pt_clust_9="28.66225"></scales>
<clustering>
<clus scale="   28.662">  2  9  1 -1</clus>
<clus scale="   90.818">  5  6 -1 -1</clus>
<clus scale="   92.003">  7  8 -1 -1</clus>
<clus scale="  103.498">  1  5  2 -1</clus>
<clus scale="   28.662">  2  5  1 -1</clus>
</clustering>
</event>
<event>
 9    1  0.1399746E-005  0.1240819E+03  0.7546771E-02  0.1248984E+00
          2   -1    0    0  502    0 -0.00000000000E+00  0.00000000000E+00  0.24316117729E+03  0.24316117729E+03  0.00000000000E+00 0. -1.
         21   -1    0    0  501  502  0.00000000000E+00 -0.00000000000E+00 -0.63681671363E+02  0.63681671363E+02  0.00000000000E+00 0.  1.
         23    2    1    2    0    0  0.44638391453E+02  0.15588670869E+02  0.10673354263E+03  0.16688105196E+03  0.11925453338E+03 0.  0.
         23    2    1    2    0    0 -0.20229396117E+02 -0.13576678275E+02  0.66680425594E+02  0.11473011194E+03  0.90128601279E+02 0.  0.
        -11    1    3    3    0    0  0.52177715122E+02  0.50788339660E+02  0.24020995146E+02  0.76674491251E+02  0.00000000000E+00 0.  1.
         11    1    3    3    0    0 -0.75393236692E+01 -0.35199668791E+02  0.82712547485E+02  0.90206560714E+02  0.00000000000E+00 0. -1.
        -13    1    4    4    0    0 -0.29015706095E+01  0.38417924911E+02  0.28962719487E+02  0.48199535127E+02  0.00000000000E+00 0.  1.
         13    1    4    4    0    0 -0.17327825508E+02 -0.51994603185E+02  0.37717706108E+02  0.66530576814E+02  0.00000000000E+00 0. -1.
          2    1    1    2  501    0 -0.24408995336E+02 -0.20119925945E+01  0.60655377022E+01  0.25231684746E+02  0.00000000000E+00 0. -1.
<scales pt_clust_5="13000.00000" pt_clust_6="13000.00000" pt_clust_7="13000.00000" pt_clust_8="13000.00000" pt_clust_9="24.49178"></scales>
<clustering>
<clus scale="   24.492">  2  9  1 -1</clus>
<clus scale="   90.129">  7  8 -1 -1</clus>
<clus scale="   96.425">  2  7  1 -1</clus>
<clus scale="  119.255">  5  6 -1 -1</clus>
<clus scale="   24.492">  2  5  1 -1</clus>
</clustering>
</event>
<event>
 9    1  0.1399746E-005  0.1083648E+03  0.7546771E-02  0.1265389E+00
         21   -1    0    0  501  502  0.00000000000E+00  0.00000000000E+00  0.46608806949E+03  0.46608806949E+03  0.00000000000E+00 0. -1.
          3   -1    0    0  502    0 -0.00000000000E+00 -0.00000000000E+00 -0.82651744582E+02  0.82651744582E+02  0.00000000000E+00 0. -1.
         23    2    1    2    0    0 -0.36011783119E+02 -0.56646740495E+02  0.21496847176E+02  0.11534561827E+03  0.91306053921E+02 0.  0.
         23    2    1    2    0    0 -0.12686251359E+02  0.40731121730E+02  0.47589071653E+02  0.11489618437E+03  0.95480093172E+02 0.  0.
        -11    1    4    4    0    0 -0.30218903907E+02 -0.68012099785E+01  0.55559277053E+02  0.63610312664E+02  0.00000000000E+00 0. -1.
         11    1    4    4    0    0  0.17532652548E+02  0.47532331708E+02 -0.79702054009E+01  0.51285871711E+02  0.00000000000E+00 0.  1.
        -13    1    3    3    0    0  0.39889772387E+01  0.19716181102E+02  0.21082203949E+02  0.29139304384E+02  0.00000000000E+00 0.  1.
         13    1    3    3    0    0 -0.40000760358E+02 -0.76362921597E+02  0.41464322672E+00  0.86206313882E+02  0.00000000000E+00 0. -1.
          3    1    1    2  501    0  0.48698034478E+02  0.15915618765E+02  0.31435040608E+03  0.31849801144E+03  0.00000000000E+00 0. -1.
<scales pt_clust_5="13000.00000" pt_clust_6="13000.00000" pt_clust_7="13000.00000" pt_clust_8="13000.00000" pt_clust_9="51.23286"></scales>
<clustering>
<clus scale="   51.233">  1  9  2 -1</clus>
<clus scale="   91.306">  7  8 -1 -1</clus>
<clus scale="   95.480">  5  6 -1 -1</clus>
<clus scale="  104.706">  2  7  1 -1</clus>
<clus scale="   51.233">  1  5  2 -1</clus>
</clustering>
</event>
<event>
 9    1  0.1399746E-005  0.9994973E+02  0.7546771E-02  0.1280641E+00
          1   -1    0    0  502    0 -0.00000000000E+00  0.00000000000E+00  0.28955251811E+03  0.28955251811E+03  0.00000000000E+00 0. -1.
         21   -1    0    0  501  502  0.00000000000E+00 -0.00000000000E+00 -0.10501830190E+03  0.10501830190E+03  0.00000000000E+00 0.  1.
         23    2    1    2    0    0 -0.29307855272E+02 -0.15097919200E+02  0.17549818735E+03  0.20015028106E+03  0.90408095322E+02 0.  0.
         23    2    1    2    0    0  0.52570741860E+02  0.36136118472E+02  0.66147369159E+02  0.12926324534E+03  0.90906601477E+02 0.  0.
        -13    1    4    4    0    0  0.33466342093E+02  0.54568792065E+02  0.77389923511E+02  0.10043380597E+03  0.00000000000E+00 0.  1.
         13    1    4    4    0    0  0.19104399767E+02 -0.18432673592E+02 -0.11242554353E+02  0.28829439374E+02  0.00000000000E+00 0. -1.
        -13    1    3    3    0    0 -0.79103754100E+01  0.34505004216E+02  0.35692287520E+02  0.50270356508E+02  0.00000000000E+00 0.  1.
         13    1    3    3    0    0 -0.21397479862E+02 -0.49602923416E+02  0.13980589983E+03  0.14987992455E+03  0.00000000000E+00 0. -1.
          1    1    1    2  501    0 -0.23262886587E+02 -0.21038199272E+02 -0.57111340294E+02  0.65157293615E+02  0.00000000000E+00 0. -1.
<scales pt_clust_5="13000.00000" pt_clust_6="13000.00000" pt_clust_7="13000.00000" pt_clust_8="13000.00000" pt_clust_9="31.36507"></scales>
<clustering>
<clus scale="   31.365">  2  9  1 -1</clus>
<clus scale="   90.408">  7  8 -1 -1</clus>
<clus scale="   90.907">  5  6 -1 -1</clus>
<clus scale="   99.497">  1  7  2 -1</clus>
<clus scale="   31.365">  2  5  1 -1</clus>
</clustering>
</event>
<event>
 9    1  0.1399746E-005  0.1213227E+03  0.7546771E-02  0.1241076E+00
          4   -1    0    0  502    0 -0.00000000000E+00  0.00000000000E+00  0.31774882606E+03  0.31774882606E+03  0.00000000000E+00 0. -1.
         21   -1    0    0  501  502  0.00000000000E+00 -0.00000000000E+00 -0.67964778379E+02  0.67964778379E+02  0.00000000000E+00 0.  1.
         23    2    1    2    0    0  0.62342486050E+02  0.16253071180E+01  0.92579544886E+02  0.14437350151E+03  0.91561501820E+02 0.  0.
         23    2    1    2    0    0 -0.10230038887E+03  0.44091782552E+01  0.95407771838E+02  0.16750322212E+03  0.92031929659E+02 0.  0.
        -13    1    3    3    0    0  0.73578100702E+02  0.18567371914E+02  0.35492333795E+02  0.83774637933E+02  0.00000000000E+00 0. -1.
         13    1    3    3    0    0 -0.11235614651E+02 -0.16942064796E+02  0.57087211091E+02  0.60598863572E+02  0.00000000000E+00 0.  1.
        -13    1    4    4    0    0 -0.11329682198E+03 -0.15741033593E+02  0.74937877129E+02  0.13674661034E+03  0.00000000000E+00 0.  1.
         13    1    4    4    0    0  0.10996433114E+02  0.20150211848E+02  0.20469894709E+02  0.30756611779E+02  0.00000000000E+00 0. -1.
          4    1    1    2  501    0  0.39957902821E+02 -0.60344853732E+01  0.61796730963E+02  0.73836880820E+02  0.00000000000E+00 0. -1.
<scales pt_clust_5="13000.00000" pt_clust_6="13000.00000" pt_clust_7="13000.00000" pt_clust_8="13000.00000" pt_clust_9="40.41102"></scales>
<clustering>
<clus scale="   40.411">  2  9  1 -1</clus>
<clus scale="   91.562">  5  6 -1 -1</clus>
<clus scale="   92.032">  7  8 -1 -1</clus>
<clus scale="  120.966">  1  5  2 -1</clus>
<clus scale="   40.411">  2  5  1 -1</clus>
</clustering>
</event>
<event>
 9    1  0.1399746E-005  0.9854767E+02  0.7546771E-02  0.1285460E+00
          1   -1    0    0  502    0 -0.00000000000E+00  0.00000000000E+00  0.51668762111E+03  0.51668762111E+03  0.00000000000E+00 0. -1.
         21   -1    0    0  501  502  0.00000000000E+00 -0.00000000000E+00 -0.30484216268E+02  0.30484216268E+02  0.00000000000E+00 0.  1.
         23    2    1    2    0    0 -0.19974200848E+02 -0.23107159710E+02  0.35463662588E+03  0.36803148453E+03  0.93526080112E+02 0.  0.
         23    2    1    2    0    0  0.37704627783E+02  0.74600066401E+01  0.98994363789E+02  0.13888909611E+03  0.89515397010E+02 0.  0.
        -11    1    3    3    0    0  0.25267414657E+02  0.16746221635E+02  0.59244573143E+02  0.66549212087E+02  0.00000000000E+00 0.  1.
         11    1    3    3    0    0 -0.45241615505E+02 -0.39853381344E+02  0.29539205273E+03  0.30148227244E+03  0.00000000000E+00 0. -1.
        -13    1    4    4    0    0  0.33867127749E+02  0.46160872076E+02  0.47704987986E+02  0.74522307610E+02  0.00000000000E+00 0.  1.
         13    1    4    4    0    0  0.38375000337E+01 -0.38700865436E+02  0.51289375803E+02  0.64366788503E+02  0.00000000000E+00 0. -1.
          1    1    1    2  501    0 -0.17730426935E+02  0.15647153070E+02  0.32572415177E+02  0.40251256737E+02  0.00000000000E+00 0. -1.
<scales pt_clust_5="13000.00000" pt_clust_6="13000.00000" pt_clust_7="13000.00000" pt_clust_8="13000.00000" pt_clust_9="23.64744"></scales>
<clustering>
<clus scale="   23.647">  2  9  1 -1</clus>
<clus scale="   89.515">  7  8 -1 -1</clus>
<clus scale="   93.526">  5  6 -1 -1</clus>
<clus scale="   94.750">  2  7  1 -1</clus>
<clus scale="   23.647">  2  5  1 -1</clus>
</clustering>
</event>
<event>
 9    1  0.1399746E-005  0.1099227E+03  0.7546771E-02  0.1260981E+00
         21   -1    0    0  501  502  0.00000000000E+00  0.00000000000E+00  0.21816245542E+03  0.21816245542E+03  0.00000000000E+00 0.  1.
          2   -1    0    0  502    0 -0.00000000000E+00 -0.00000000000E+00 -0.12943000875E+03  0.12943000875E+03  0.00000000000E+00 0. -1.
         23    2    1    2    0    0 -0.51967558872E+02 -0.17263041094E+02 -0.60857913488E+02  0.12308116431E+03  0.91905645155E+02 0.  0.
         23    2    1    2    0    0  0.88701737484E+02  0.98910209923E+00  0.11338277864E+03  0.17042590508E+03  0.91215996805E+02 0.  0.
        -11    1    4    4    0    0  0.85135523092E+02 -0.18749101794E+02  0.42928749380E+02  0.97172339859E+02  0.00000000000E+00 0.  1.
         11    1    4    4    0    0  0.35662143915E+01  0.19738203894E+02  0.70454029260E+02  0.73253565217E+02  0.00000000000E+00 0. -1.
        -13    1    3    3    0    0 -0.28078616165E+02  0.29498894186E+02  0.24867968811E+01  0.40801686272E+02  0.00000000000E+00 0.  1.
         13    1    3    3    0    0 -0.23888942707E+02 -0.46761935279E+02 -0.63344710369E+02  0.82279478040E+02  0.00000000000E+00 0. -1.
          2    1    1    2  501    0 -0.36734178612E+02  0.16273938994E+02  0.36207581522E+02  0.54085394778E+02  0.00000000000E+00 0. -1.
<scales pt_clust_5="13000.00000" pt_clust_6="13000.00000" pt_clust_7="13000.00000" pt_clust_8="13000.00000" pt_clust_9="40.17762"></scales>
<clustering>
<clus scale="   40.178">  1  9  2 -1</clus>
<clus scale="   91.216">  5  6 -1 -1</clus>
<clus scale="   91.906">  7  8 -1 -1</clus>
<clus scale="  109.347">  1  5  2 -1</clus>
<clus scale="   40.178">  1  5  2 -1</clus>
</clustering>
</event>
<event>
 9    1  0.1399746E-005  0.1025250E+03  0.7546771E-02  0.1275348E+00
          1   -1    0    0  502    0 -0.00000000000E+00  0.00000000000E+00  0.53718088241E+03  0.53718088241E+03  0.00000000000E+00 0. -1.
         21   -1    0    0  501  502  0.00000000000E+00 -0.00000000000E+00 -0.42661852024E+02  0.42661852024E+02  0.00000000000E+00 0. -1.
         23    2    1    2    0    0 -0.50238264298E+02 -0.25559707256E+02  0.25700874660E+03  0.27853150636E+03  0.91373532095E+02 0.  0.
         23    2    1    2    0    0 -0.47029891983E+01  0.55196865669E+02  0.20497357705E+03  0.23091563319E+03  0.90769214371E+02 0.  0.
        -13    1    4    4    0    0  0.13038363929E+02 -0.17098971177E+02  0.13274265412E+02  0.25270137940E+02  0.00000000000E+00 0.  1.
         13    1    4    4    0    0 -0.17741353127E+02  0.72295836846E+02  0.19169931164E+03  0.20564549525E+03  0.00000000000E+00 0. -1.
        -13    1    3    3    0    0 -0.43858700476E+02  0.12490914376E+02  0.22133722730E+03  0.22598623130E+03  0.00000000000E+00 0.  1.
         13    1    3    3    0    0 -0.63795638214E+01 -0.38050621632E+02  0.35671519306E+02  0.52545275056E+02  0.00000000000E+00 0. -1.
          1    1    1    2  501    0  0.54941253496E+02 -0.29637158414E+02  0.32536706737E+02  0.70395594889E+02  0.00000000000E+00 0. -1.
<scales pt_clust_5="13000.00000" pt_clust_6="13000.00000" pt_clust_7="13000.00000" pt_clust_8="13000.00000" pt_clust_9="62.42518"></scales>
<clustering>
<clus scale="   62.425">  2  9  1 -1</clus>
<clus scale="   90.769">  5  6 -1 -1</clus>
<clus scale="   91.374">  7  8 -1 -1</clus>
<clus scale="  101.987">  2  5  1 -1</clus>
<clus scale="   62.425">  2  5  1 -1</clus>
</clustering>
</event>
<event>
 9    1  0.1399746E-005  0.1453371E+03  0.7546771E-02  0.1207744E+00
         21   -1    0    0  501  502  0.00000000000E+00  0.00000000000E+00  0.13541871974E+03  0.13541871974E+03  0.00000000000E+00 0.  1.
          2   -1    0    0  502    0 -0.00000000000E+00 -0.00000000000E+00 -0.49197578008E+03  0.49197578008E+03  0.00000000000E+00 0. -1.
         23    2    1    2    0    0  0.92980276079E+02  0.22492066395E+02 -0.27777641207E+03  0.30711803032E+03  0.89501534377E+02 0.  0.
         23    2    1    2    0    0 -0.15717556822E+03 -0.99394645241E+02 -0.64426560566E+02  0.21907823828E+03  0.96234287216E+02 0.  0.
        -13    1    3    3    0    0  0.40007208671E+02  0.53170235445E+02 -0.17834355785E+03  0.19035250277E+03  0.00000000000E+00 0. -1.
         13    1    3    3    0    0  0.52973067408E+02 -0.30678169050E+02 -0.99432854216E+02  0.11676552755E+03  0.00000000000E+00 0.  1.
        -13    1    4    4    0    0 -0.59481819188E+02  0.20841201670E+01 -0.49529054053E+02  0.77430985827E+02  0.00000000000E+00 0. -1.
         13    1    4    4    0    0 -0.97693749030E+02 -0.10147876541E+03 -0.14897506513E+02  0.14164725246E+03  0.00000000000E+00 0.  1.
          2    1    1    2  501    0  0.64195292138E+02  0.76902578847E+02 -0.14354087707E+02  0.10119823121E+03  0.00000000000E+00 0. -1.
<scales pt_clust_5="13000.00000" pt_clust_6="13000.00000" pt_clust_7="13000.00000" pt_clust_8="13000.00000" pt_clust_9="100.17506"></scales>
<clustering>
<clus scale="   89.502">  5  6 -1 -1</clus>
<clus scale="   96.234">  7  8 -1 -1</clus>
<clus scale="  100.175">  1  9  2 -1</clus>
<clus scale="  140.969">  2  5  1 -1</clus>
<clus scale="  100.175">  1  5  2 -1</clus>
</clustering>
</event>
<event>
 9    1  0.1399746E-005  0.1017750E+03  0.7546771E-02  0.1279365E+00
          2   -1    0    0  502    0 -0.00000000000E+00  0.00000000000E+00  0.47022433599E+03  0.47022433599E+03  0.00000000000E+00 0. -1.
         21   -1    0    0  501  502  0.00000000000E+00 -0.00000000000E+00 -0.45050895005E+02  0.45050895005E+02  0.00000000000E+00 0.  1.
         23    2    1    2    0    0  0.39018425388E+02 -0.19816723899E+02  0.26867874414E+03  0.28658094471E+03  0.89583649456E+02 0.  0.
         23    2    1    2    0    0 -0.16370883752E+02  0.20825899739E+02  0.17397043426E+03  0.20007032820E+03  0.95187710851E+02 0.  0.
        -13    1    4    4    0    0  0.46886582460E+01 -0.24613171736E+02  0.73880110169E+01  0.26122297866E+02  0.00000000000E+00 0.  1.
         13    1    4    4    0    0 -0.21059541998E+02  0.45439071474E+02  0.16658242324E+03  0.17394803034E+03  0.00000000000E+00 0. -1.
        -13    1    3    3    0    0  0.17724480377E+02 -0.55047029637E+02  0.13985669343E+03  0.15134142649E+03  0.00000000000E+00 0.  1.
         13    1    3    3    0    0  0.21293945011E+02  0.35230305738E+02  0.12882205071E+03  0.13523951821E+03  0.00000000000E+00 0. -1.
          2    1    1    2  501    0 -0.22647541637E+02 -0.10091758399E+01 -0.17475737416E+02  0.28623958082E+02  0.00000000000E+00 0. -1.
<scales pt_clust_5="13000.00000" pt_clust_6="13000.00000" pt_clust_7="13000.00000" pt_clust_8="13000.00000" pt_clust_9="22.67001"></scales>
<clustering>
<clus scale="   22.670">  2  9  1 -1</clus>
<clus scale="   89.584">  7  8 -1 -1</clus>
<clus scale="   95.188">  5  6 -1 -1</clus>
<clus scale="   96.554">  1  7  2 -1</clus>
<clus scale="   22.670">  2  5  1 -1</clus>
</clustering>
</event>
<event>
 9    1  0.1399746E-005  0.1413366E+03  0.7546771E-02  0.1212002E+00
         21   -1    0    0  501  502  0.00000000000E+00  0.00000000000E+00  0.64582346548E+03  0.64582346548E+03  0.00000000000E+00 0. -1.
         -3   -1    0    0    0  501 -0.00000000000E+00 -0.00000000000E+00 -0.57892424259E+02  0.57892424259E+02  0.00000000000E+00 0.  1.
         23    2    1    2    0    0  0.82119207651E+02 -0.48620586898E+02  0.16396739259E+03  0.20981401250E+03  0.89605179959E+02 0.  0.
         23    2    1    2    0    0 -0.11169555341E+03  0.77572764960E+02  0.42166434127E+03  0.45244978854E+03  0.91741833072E+02 0.  0.
        -11    1    3    3    0    0  0.56615241077E+02  0.14906101086E+02  0.10132863849E+03  0.11702551153E+03  0.00000000000E+00 0.  1.
         11    1    3    3    0    0  0.25503966574E+02 -0.63526687984E+02  0.62638754098E+02  0.92788500970E+02  0.00000000000E+00 0. -1.
        -11    1    4    4    0    0 -0.42621706685E+02  0.31810556777E+02  0.54876376257E+02  0.76419487530E+02  0.00000000000E+00 0.  1.
         11    1    4    4    0    0 -0.69073846730E+02  0.45762208183E+02  0.36678796501E+03  0.37603030101E+03  0.00000000000E+00 0. -1.
         -3    1    1    2    0  502  0.29576345764E+02 -0.28952178062E+02  0.22993073705E+01  0.41452088700E+02  0.00000000000E+00 0.  1.
<scales pt_clust_5="13000.00000" pt_clust_6="13000.00000" pt_clust_7="13000.00000" pt_clust_8="13000.00000" pt_clust_9="41.38829"></scales>
<clustering>
<clus scale="   41.388">  1  9  2 -1</clus>
<clus scale="   89.605">  5  6 -1 -1</clus>
<clus scale="   91.742">  7  8 -1 -1</clus>
<clus scale="  139.959">  2  5  1 -1</clus>
<clus scale="   41.388">  1  5  2 -1</clus>
</clustering>
</event>
<event>
 9    1  0.1399746E-005  0.9123969E+02  0.7546771E-02  0.1300076E+00
         21   -1    0    0  501  502  0.00000000000E+00  0.00000000000E+00  0.14827012681E+03  0.14827012681E+03  0.00000000000E+00 0. -1.
          2   -1    0    0  502    0 -0.00000000000E+00 -0.00000000000E+00 -0.38811718486E+03  0.38811718486E+03  0.00000000000E+00 0. -1.
         23    2    1    2    0    0 -0.19288029473E+02  0.16840060948E+02 -0.20251772513E+03  0.22332107113E+03  0.90571828306E+02 0.  0.
         23    2    1    2    0    0 -0.42291146264E+02  0.11455692119E+02 -0.15047275949E+03  0.18117962445E+03  0.90907816119E+02 0.  0.
        -11    1    4    4    0    0 -0.58634446086E+02  0.34186392280E+02 -0.12946634194E+03  0.14617879936E+03  0.00000000000E+00 0. -1.
         11    1    4    4    0    0  0.16343299822E+02 -0.22730700160E+02 -0.21006417548E+02  0.35000825091E+02  0.00000000000E+00 0.  1.
        -13    1    3    3    0    0 -0.26752632380E+01 -0.37271285863E+02 -0.74421134417E+02  0.83275512795E+02  0.00000000000E+00 0.  1.
         13    1    3    3    0    0 -0.16612766236E+02  0.54111346811E+02 -0.12809659072E+03  0.14004555833E+03  0.00000000000E+00 0. -1.
          2    1    1    2  501    0  0.61579175738E+02 -0.28295753067E+02  0.11314342658E+03  0.13188661609E+03  0.00000000000E+00 0. -1.
<scales pt_clust_5="13000.00000" pt_clust_6="13000.00000" pt_clust_7="13000.00000" pt_clust_8="13000.00000" pt_clust_9="67.76905"></scales>
<clustering>
<clus scale="   67.769">  1  9  2 -1</clus>
<clus scale="   90.572">  7  8 -1 -1</clus>
<clus scale="   90.905">  2  7  1 -1</clus>
<clus scale="   90.908">  5  6 -1 -1</clus>
<clus scale="   67.769">  1  5  2 -1</clus>
</clustering>
</event>
<event>
 9    1  0.1399746E-005  0.1257847E+03  0.7546771E-02  0.1241506E+00
          1   -1    0    0  502    0 -0.00000000000E+00  0.00000000000E+00  0.33296976359E+03  0.33296976359E+03  0.00000000000E+00 0. -1.
         21   -1    0    0  501  502  0.00000000000E+00 -0.00000000000E+00 -0.84890751802E+02  0.84890751802E+02  0.00000000000E+00 0.  1.
         23    2    1    2    0    0  0.35535996988E+02 -0.33175887760E+02  0.21372309112E+03  0.24837961182E+03  0.11683931393E+03 0.  0.
         23    2    1    2    0    0 -0.46024371968E+02  0.55136991905E+01 -0.18333992884E+02  0.10905384278E+03  0.96994647456E+02 0.  0.
        -11    1    4    4    0    0  0.20669870903E+02  0.43336704393E+01 -0.34469940916E+02  0.40425253114E+02  0.00000000000E+00 0. -1.
         11    1    4    4    0    0 -0.66694242871E+02  0.11800287512E+01  0.16135948031E+02  0.68628589661E+02  0.00000000000E+00 0.  1.
        -13    1    3    3    0    0  0.71014993946E+02 -0.45651113529E+02  0.11442279981E+03  0.14219609927E+03  0.00000000000E+00 0. -1.
         13    1    3    3    0    0 -0.35478996959E+02  0.12475225769E+02  0.99300291312E+02  0.10618351255E+03  0.00000000000E+00 0.  1.
          1    1    1    2  501    0  0.10488374980E+02  0.27662188569E+02  0.52689913558E+02  0.60427060799E+02  0.00000000000E+00 0. -1.
<scales pt_clust_5="13000.00000" pt_clust_6="13000.00000" pt_clust_7="13000.00000" pt_clust_8="13000.00000" pt_clust_9="29.58384"></scales>
<clustering>
<clus scale="   29.584">  2  9  1 -1</clus>
<clus scale="   96.995">  5  6 -1 -1</clus>
<clus scale="  107.603">  2  5  1 -1</clus>
<clus scale="  116.839">  7  8 -1 -1</clus>
<clus scale="   29.584">  2  5  1 -1</clus>
</clustering>
</event>
<event>
 9    1  0.1399746E-005  0.1697299E+03  0.7546771E-02  0.1199537E+00
         21   -1    0    0  501  502  0.00000000000E+00  0.00000000000E+00  0.27736528828E+03  0.27736528828E+03  0.00000000000E+00 0. -1.
          2   -1    0    0  502    0 -0.00000000000E+00 -0.00000000000E+00 -0.28140849298E+03  0.28140849298E+03  0.00000000000E+00 0. -1.
         23    2    1    2    0    0 -0.27365298142E+02 -0.49464916368E+02 -0.24397611202E+02  0.10844235319E+03  0.89268488505E+02 0.  0.
         23    2    1    2    0    0  0.12129118354E+03 -0.61086762097E+02 -0.15304066786E+03  0.22425710981E+03  0.91796849485E+02 0.  0.
        -13    1    4    4    0    0  0.56078655157E+02  0.15656306565E+02 -0.83805191301E+02  0.10204531145E+03  0.00000000000E+00 0.  1.
         13    1    4    4    0    0  0.65212528384E+02 -0.76743068662E+02 -0.69235476558E+02  0.12221179837E+03  0.00000000000E+00 0. -1.
        -13    1    3    3    0    0 -0.50741678002E+02 -0.82403923339E-01 -0.15723960881E+02  0.53122195198E+02  0.00000000000E+00 0.  1.
         13    1    3    3    0    0  0.23376379860E+02 -0.49382512445E+02 -0.86736503210E+01  0.55320157995E+02  0.00000000000E+00 0. -1.
          2    1    1    2  501    0 -0.93925885399E+02  0.11055167847E+03  0.17339507436E+03  0.22607431825E+03  0.00000000000E+00 0. -1.
<scales pt_clust_5="13000.00000" pt_clust_6="13000.00000" pt_clust_7="13000.00000" pt_clust_8="13000.00000" pt_clust_9="142.76407"></scales>
<clustering>
<clus scale="   89.268">  7  8 -1 -1</clus>
<clus scale="   91.797">  5  6 -1 -1</clus>
<clus scale="  105.662">  2  7  1 -1</clus>
<clus scale="  142.764">  1  9  2 -1</clus>
<clus scale="  142.764">  1  5  2 -1</clus>
</clustering>
</event>
<event>
 9    1  0.1399746E-005  0.1326880E+03  0.7546771E-02  0.1225536E+00
          1   -1    0    0  502    0 -0.00000000000E+00  0.00000000000E+00  0.19170686774E+03  0.19170686774E+03  0.00000000000E+00 0. -1.
         21   -1    0    0  501  502  0.00000000000E+00 -0.00000000000E+00 -0.21361516551E+03  0.21361516551E+03  0.00000000000E+00 0. -1.
         23    2    1    2    0    0 -0.39326757384E+02  0.63921583471E+02  0.56860610508E+02  0.13272572223E+03  0.93543709756E+02 0.  0.
         23    2    1    2    0    0  0.11344621582E+03 -0.86799343242E+02 -0.66424728638E+01  0.16667507284E+03  0.85628777804E+02 0.  0.
        -11    1    3    3    0    0 -0.82492029711E+01  0.76061259119E+02  0.62621381306E+02  0.98867597752E+02  0.00000000000E+00 0.  1.
         11    1    3    3    0    0 -0.31077554413E+02 -0.12139675648E+02 -0.57607707987E+01  0.33858124481E+02  0.00000000000E+00 0. -1.
        -13    1    4    4    0    0  0.73643305852E+02 -0.96056956093E+02 -0.21995914888E+02  0.12302071201E+03  0.00000000000E+00 0.  1.
         13    1    4    4    0    0  0.39802909967E+02  0.92576128507E+01  0.15353442024E+02  0.43654360831E+02  0.00000000000E+00 0. -1.
          1    1    1    2  501    0 -0.74119458434E+02  0.22877759771E+02 -0.72126435417E+02  0.10592123818E+03  0.00000000000E+00 0. -1.
<scales pt_clust_5="13000.00000" pt_clust_6="13000.00000" pt_clust_7="13000.00000" pt_clust_8="13000.00000" pt_clust_9="77.56988"></scales>
<clustering>
<clus scale="   77.570">  2  9  1 -1</clus>
<clus scale="   85.629">  7  8 -1 -1</clus>
<clus scale="   93.544">  5  6 -1 -1</clus>
<clus scale="  127.232">  2  7  1 -1</clus>
<clus scale="   77.570">  2  5  1 -1</clus>
</clustering>
</event>
<event>
 9    1  0.1399746E-005  0.1768948E+03  0.7546771E-02  0.1177013E+00
          2   -1    0    0  502    0 -0.00000000000E+00  0.00000000000E+00  0.12991336764E+03  0.12991336764E+03  0.00000000000E+00 0. -1.
         21   -1    0    0  501  502  0.00000000000E+00 -0.00000000000E+00 -0.29342118603E+03  0.29342118603E+03  0.00000000000E+00 0.  1.
         23    2    1    2    0    0  0.86785449024E+02  0.64653960802E+02 -0.40679786441E+02  0.17219654088E+03  0.12761251841E+03 0.  0.
         23    2    1    2    0    0 -0.97090707577E+02 -0.99654918396E+02 -0.58609492951E+02  0.17727810393E+03  0.92923329749E+02 0.  0.
        -13    1    3    3    0    0 -0.14556942533E+02  0.63044770261E+02 -0.56127521481E+01  0.64946521229E+02  0.00000000000E+00 0. -1.
         13    1    3    3    0    0  0.10134239156E+03  0.16091905416E+01 -0.35067034293E+02  0.10725001965E+03  0.00000000000E+00 0.  1.
        -13    1    4    4    0    0 -0.14968101931E+02 -0.75964264535E+02 -0.77318374269E+01  0.77809992107E+02  0.00000000000E+00 0.  1.
         13    1    4    4    0    0 -0.82122605646E+02 -0.23690653861E+02 -0.50877655524E+02  0.99468111825E+02  0.00000000000E+00 0. -1.
          2    1    1    2  501    0  0.10305258553E+02  0.35000957594E+02 -0.64218538993E+02  0.73859908860E+02  0.00000000000E+00 0. -1.
<scales pt_clust_5="13000.00000" pt_clust_6="13000.00000" pt_clust_7="13000.00000" pt_clust_8="13000.00000" pt_clust_9="36.48651"></scales>
<clustering>
<clus scale="   36.487">  2  9  1 -1</clus>
<clus scale="   92.923">  7  8 -1 -1</clus>
<clus scale="  127.613">  5  6 -1 -1</clus>
<clus scale="  153.758">  2  7  1 -1</clus>
<clus scale="   36.487">  2  5  1 -1</clus>
</clustering>
</event>
<event>
 9    1  0.1399746E-005  0.9130397E+02  0.7546771E-02  0.1301963E+00
         21   -1    0    0  501  502  0.00000000000E+00  0.00000000000E+00  0.41282221548E+03  0.41282221548E+03  0.00000000000E+00 0.  1.
         -4   -1    0    0    0  501 -0.00000000000E+00 -0.00000000000E+00 -0.54331611167E+02  0.54331611167E+02  0.00000000000E+00 0.  1.
         23    2    1    2    0    0 -0.36714601004E+02  0.14113171773E+02  0.14080662195E+02  0.90966505399E+02  0.80805300026E+02 0.  0.
         23    2    1    2    0    0  0.38450225371E+02 -0.58146875150E+02  0.27615596442E+03  0.29494333749E+03  0.76615773351E+02 0.  0.
        -11    1    4    4    0    0 -0.29688823023E+01 -0.58135310753E+02  0.19942497208E+03  0.20774707725E+03  0.00000000000E+00 0.  1.
         11    1    4    4    0    0  0.41419107673E+02 -0.11564396581E-01  0.76730992338E+02  0.87196260237E+02  0.00000000000E+00 0. -1.
        -13    1    3    3    0    0  0.62101197543E+01  0.33753884039E+02 -0.12817827012E+02  0.36635869915E+02  0.00000000000E+00 0. -1.
         13    1    3    3    0    0 -0.42924720758E+02 -0.19640712266E+02  0.26898489208E+02  0.54330635484E+02  0.00000000000E+00 0.  1.
         -4    1    1    2    0  502 -0.17356243674E+01  0.44033703376E+02  0.68253977702E+02  0.81243983760E+02  0.00000000000E+00 0.  1.
<scales pt_clust_5="13000.00000" pt_clust_6="13000.00000" pt_clust_7="13000.00000" pt_clust_8="13000.00000" pt_clust_9="44.06790"></scales>
<clustering>
<clus scale="   44.068">  1  9  2 -1</clus>
<clus scale="   76.616">  5  6 -1 -1</clus>
<clus scale="   80.805">  7  8 -1 -1</clus>
<clus scale="   87.618">  1  5  2 -1</clus>
<clus scale="   44.068">  1  5  2 -1</clus>
</clustering>
</event>
<event>
 9    1  0.1399746E-005  0.9802984E+02  0.7546771E-02  0.1285107E+00
         -3   -1    0    0    0  501 -0.00000000000E+00  0.00000000000E+00  0.14198116465E+03  0.14198116465E+03  0.00000000000E+00 0.  1.
         21   -1    0    0  501  502  0.00000000000E+00 -0.00000000000E+00 -0.86655077040E+02  0.86655077040E+02  0.00000000000E+00 0. -1.
         23    2    1    2    0    0 -0.34241921595E+02 -0.33442305143E+02  0.40586349829E+02  0.10930415075E+03  0.89494405469E+02 0.  0.
         23    2    1    2    0    0  0.14505457570E+02  0.19161981105E+02  0.87899109603E+01  0.94255087415E+02  0.90714768090E+02 0.  0.
        -11    1    4    4    0    0  0.14605845563E+02  0.42323585132E+02  0.36766837568E+02  0.57934591806E+02  0.00000000000E+00 0.  1.
         11    1    4    4    0    0 -0.10038799277E+00 -0.23161604027E+02 -0.27976926608E+02  0.36320495608E+02  0.00000000000E+00 0. -1.
        -13    1    3    3    0    0 -0.37329241033E+02  0.23050902551E+02  0.10038539262E+02  0.45006539692E+02  0.00000000000E+00 0.  1.
         13    1    3    3    0    0  0.30873194388E+01 -0.56493207694E+02  0.30547810567E+02  0.64297611054E+02  0.00000000000E+00 0. -1.
         -3    1    1    2    0  502  0.19736464024E+02  0.14280324038E+02  0.59498268210E+01  0.25077003529E+02  0.00000000000E+00 0.  1.
<scales pt_clust_5="13000.00000" pt_clust_6="13000.00000" pt_clust_7="13000.00000" pt_clust_8="13000.00000" pt_clust_9="24.36095"></scales>
<clustering>
<clus scale="   24.361">  2  9  1 -1</clus>
<clus scale="   89.494">  7  8 -1 -1</clus>
<clus scale="   90.715">  5  6 -1 -1</clus>
<clus scale="   96.902">  1  7  2 -1</clus>
<clus scale="   24.361">  2  5  1 -1</clus>
</clustering>
</event>
<event>
 9    1  0.1399746E-005  0.1003194E+03  0.7546771E-02  0.1279859E+00
          2   -1    0    0  502    0 -0.00000000000E+00  0.00000000000E+00  0.46097144852E+03  0.46097144852E+03  0.00000000000E+00 0. -1.
         21   -1    0    0  501  502  0.00000000000E+00 -0.00000000000E+00 -0.58716901248E+02  0.58716901248E+02  0.00000000000E+00 0.  1.
         23    2    1    2    0    0 -0.35234370325E+02  0.15022801858E+02  0.36577023916E+03  0.37904633865E+03  0.91766625535E+02 0.  0.
         23    2    1    2    0    0  0.56408009270E+02 -0.57495988112E+00  0.40506538239E+02  0.11469511421E+03  0.91279764978E+02 0.  0.
        -11    1    4    4    0    0  0.74636887128E+02 -0.22875247452E+02  0.34110678775E+02  0.85190846178E+02  0.00000000000E+00 0.  1.
         11    1    4    4    0    0 -0.18228877858E+02  0.22300287570E+02  0.63958594640E+01  0.29504268030E+02  0.00000000000E+00 0. -1.
        -11    1    3    3    0    0 -0.47831124310E+02 -0.25475316598E+02  0.24855213943E+03  0.25439138002E+03  0.00000000000E+00 0. -1.
         11    1    3    3    0    0  0.12596753984E+02  0.40498118456E+02  0.11721809973E+03  0.12465495864E+03  0.00000000000E+00 0.  1.
          2    1    1    2  501    0 -0.21173638944E+02 -0.14447841977E+02 -0.40222301272E+01  0.25946896907E+02  0.00000000000E+00 0. -1.
<scales pt_clust_5="13000.00000" pt_clust_6="13000.00000" pt_clust_7="13000.00000" pt_clust_8="13000.00000" pt_clust_9="25.63324"></scales>
<clustering>
<clus scale="   25.633">  2  9  1 -1</clus>
<clus scale="   91.280">  5  6 -1 -1</clus>
<clus scale="   91.767">  7  8 -1 -1</clus>
<clus scale="   99.874">  2  5  1 -1</clus>
<clus scale="   25.633">  2  5  1 -1</clus>
</clustering>
</event>
<event>
 9    1  0.1399746E-005  0.1159863E+03  0.7546771E-02  0.1256127E+00
          1   -1    0    0  502    0 -0.00000000000E+00  0.00000000000E+00  0.27923130171E+03  0.27923130171E+03  0.00000000000E+00 0. -1.
         21   -1    0    0  501  502  0.00000000000E+00 -0.00000000000E+00 -0.11878695068E+03  0.11878695068E+03  0.00000000000E+00 0. -1.
         23    2    1    2    0    0 -0.61775904776E+02 -0.21563066961E+02  0.13281798111E+03  0.17310570158E+03  0.89686897294E+02 0.  0.
         23    2    1    2    0    0  0.28886692134E+02  0.85428234868E+01  0.97652119997E+02  0.14645980884E+03  0.10491481425E+03 0.  0.
        -11    1    3    3    0    0 -0.52649584549E+02  0.23429205736E+02  0.41884271169E+02  0.71240428171E+02  0.00000000000E+00 0.  1.
         11    1    3    3    0    0 -0.91263202271E+01 -0.44992272698E+02  0.90933709942E+02  0.10186527341E+03  0.00000000000E+00 0. -1.
        -13    1    4    4    0    0 -0.23570692284E+02 -0.18049363688E+02  0.79573736067E+02  0.84931363677E+02  0.00000000000E+00 0. -1.
         13    1    4    4    0    0  0.52457384418E+02  0.26592187175E+02  0.18078383930E+02  0.61528445163E+02  0.00000000000E+00 0.  1.
          1    1    1    2  501    0  0.32889212642E+02  0.13020243475E+02 -0.70025750078E+02  0.78452741969E+02  0.00000000000E+00 0. -1.
<scales pt_clust_5="13000.00000" pt_clust_6="13000.00000" pt_clust_7="13000.00000" pt_clust_8="13000.00000" pt_clust_9="35.37269"></scales>
<clustering>
<clus scale="   35.373">  2  9  1 -1</clus>
<clus scale="   89.687">  5  6 -1 -1</clus>
<clus scale="  102.418">  1  5  2 -1</clus>
<clus scale="  104.915">  7  8 -1 -1</clus>
<clus scale="   35.373">  2  5  1 -1</clus>
</clustering>
</event>
<event>
 9    1  0.1399746E-005  0.1915939E+03  0.7546771E-02  0.1157362E+00
          1   -1    0    0  502    0 -0.00000000000E+00  0.00000000000E+00  0.22907617537E+03  0.22907617537E+03  0.00000000000E+00 0. -1.
         21   -1    0    0  501  502  0.00000000000E+00 -0.00000000000E+00 -0.31381787264E+03  0.31381787264E+03  0.00000000000E+00 0. -1.
         23    2    1    2    0    0 -0.12814308225E+03  0.12242028150E+03  0.74428352909E+02  0.21375787250E+03  0.93517236309E+02 0.  0.
         23    2    1    2    0    0  0.10929577269E+03 -0.10800494620E+03 -0.10532000881E+02  0.17861610155E+03  0.90455261629E+02 0.  0.
        -11    1    4    4    0    0  0.79315861825E+02 -0.15280072070E+02 -0.21099352028E+01  0.80801846304E+02  0.00000000000E+00 0.  1.
         11    1    4    4    0    0  0.29979910867E+02 -0.92724874130E+02 -0.84220656779E+01  0.97814255241E+02  0.00000000000E+00 0. -1.
        -11    1    3    3    0    0 -0.29580493375E+02  0.45551840287E+02  0.70113851334E+02  0.88690066472E+02  0.00000000000E+00 0. -1.
         11    1    3    3    0    0 -0.98562588878E+02  0.76868441213E+02  0.43145015751E+01  0.12506780603E+03  0.00000000000E+00 0.  1.
          1    1    1    2  501    0  0.18847309561E+02 -0.14415335299E+02 -0.14863804929E+03  0.15052007397E+03  0.00000000000E+00 0. -1.
<scales pt_clust_5="13000.00000" pt_clust_6="13000.00000" pt_clust_7="13000.00000" pt_clust_8="13000.00000" pt_clust_9="23.72811"></scales>
<clustering>
<clus scale="   23.728">  2  9  1 -1</clus>
<clus scale="   90.455">  5  6 -1 -1</clus>
<clus scale="   93.517">  7  8 -1 -1</clus>
<clus scale="  190.118">  2  5  1 -1</clus>
<clus scale="   23.728">  2  5  1 -1</clus>
</clustering>
</event>
<event>
 9    1  0.1399746E-005  0.9811778E+02  0.7546771E-02  0.1286759E+00
          1   -1    0    0  502    0 -0.00000000000E+00  0.00000000000E+00  0.72483240777E+03  0.72483240777E+03  0.00000000000E+00 0. -1.
         21   -1    0    0  501  502  0.00000000000E+00 -0.00000000000E+00 -0.37341122052E+02  0.37341122052E+02  0.00000000000E+00 0.  1.
         23    2    1    2    0    0 -0.16702401572E+02 -0.30926513994E+02  0.49279841998E+03  0.50204787213E+03  0.89254488302E+02 0.  0.
         23    2    1    2    0    0  0.26095030737E+02 -0.38660623449E+01  0.20111505371E+03  0.22351979274E+03  0.93903864938E+02 0.  0.
        -13    1    3    3    0    0  0.30087166332E+02 -0.37680914202E+02  0.27261480463E+03  0.27684638444E+03  0.00000000000E+00 0. -1.
         13    1    3    3    0    0 -0.46789567904E+02  0.67544002080E+01  0.22018361536E+03  0.22520148769E+03  0.00000000000E+00 0.  1.
        -13    1    4    4    0    0 -0.21337032835E+02  0.22308395441E+02  0.26467368821E+02  0.40662698996E+02  0.00000000000E+00 0.  1.
         13    1    4    4    0    0  0.47432063572E+02 -0.26174457786E+02  0.17464768489E+03  0.18285709374E+03  0.00000000000E+00 0. -1.
          1    1    1    2  501    0 -0.93926291655E+01  0.34792576339E+02 -0.64221879748E+01  0.36605864958E+02  0.00000000000E+00 0. -1.
<scales pt_clust_5="13000.00000" pt_clust_6="13000.00000" pt_clust_7="13000.00000" pt_clust_8="13000.00000" pt_clust_9="36.03810"></scales>
<clustering>
<clus scale="   36.038">  2  9  1 -1</clus>
<clus scale="   89.254">  5  6 -1 -1</clus>
<clus scale="   93.678">  1  5  2 -1</clus>
<clus scale="   93.904">  7  8 -1 -1</clus>
<clus scale="   36.038">  2  5  1 -1</clus>
</clustering>
</event>
<event>
 9    1  0.1399746E-005  0.9591193E+02  0.7546771E-02  0.1289886E+00
         21   -1    0    0  501  502  0.00000000000E+00  0.00000000000E+00  0.42892360766E+02  0.42892360766E+02  0.00000000000E+00 0.  1.
         -1   -1    0    0    0  501 -0.00000000000E+00 -0.00000000000E+00 -0.51268407824E+03  0.51268407824E+03  0.00000000000E+00 0.  1.
         23    2    1    2    0    0  0.42156610489E+01  0.37930620478E+02 -0.31096593704E+03  0.32676236241E+03  0.92829541205E+02 0.  0.
         23    2    1    2    0    0  0.10174521640E+02 -0.32493171910E+01 -0.16671442767E+03  0.19044610935E+03  0.91443650521E+02 0.  0.
        -11    1    4    4    0    0  0.46421589523E+02  0.16566476548E+02 -0.73603368986E+02  0.88582549326E+02  0.00000000000E+00 0.  1.
         11    1    4    4    0    0 -0.36247067882E+02 -0.19815793739E+02 -0.93111058686E+02  0.10186356003E+03  0.00000000000E+00 0. -1.
        -11    1    3    3    0    0  0.39228636817E+02  0.43982184981E+02 -0.13592895490E+03  0.14815532161E+03  0.00000000000E+00 0.  1.
         11    1    3    3    0    0 -0.35012975768E+02 -0.60515645037E+01 -0.17503698214E+03  0.17860704080E+03  0.00000000000E+00 0. -1.
         -1    1    1    2    0  502 -0.14390182689E+02 -0.34681303286E+02  0.78886472359E+01  0.38367967247E+02  0.00000000000E+00 0.  1.
<scales pt_clust_5="13000.00000" pt_clust_6="13000.00000" pt_clust_7="13000.00000" pt_clust_8="13000.00000" pt_clust_9="37.54824"></scales>
<clustering>
<clus scale="   37.548">  1  9  2 -1</clus>
<clus scale="   91.444">  5  6 -1 -1</clus>
<clus scale="   92.830">  7  8 -1 -1</clus>
<clus scale="   94.571">  1  5  2 -1</clus>
<clus scale="   37.548">  1  5  2 -1</clus>
</clustering>
</event>
<event>
 9    1  0.1399746E-005  0.1042103E+03  0.7546771E-02  0.1273747E+00
          1   -1    0    0  502    0 -0.00000000000E+00  0.00000000000E+00  0.53889518759E+03  0.53889518759E+03  0.00000000000E+00 0. -1.
         21   -1    0    0  501  502  0.00000000000E+00 -0.00000000000E+00 -0.54501480410E+02  0.54501480410E+02  0.00000000000E+00 0. -1.
         23    2    1    2    0    0 -0.33525456985E+02 -0.43884915624E+02  0.30224213220E+03  0.32057312683E+03  0.91471203552E+02 0.  0.
         23    2    1    2    0    0  0.28621274641E+02  0.34079840543E+01  0.20349749943E+03  0.22680092190E+03  0.95899083330E+02 0.  0.
        -11    1    4    4    0    0  0.58889696957E+02  0.30691311131E+01  0.17702302256E+03  0.18658661927E+03  0.00000000000E+00 0.  1.
         11    1    4    4    0    0 -0.30268422316E+02  0.33885294118E+00  0.26474476873E+02  0.40214302636E+02  0.00000000000E+00 0. -1.
        -13    1    3    3    0    0 -0.59045730914E+02 -0.20652910081E+02  0.25180985526E+03  0.25946318475E+03  0.00000000000E+00 0. -1.
         13    1    3    3    0    0  0.25520273930E+02 -0.23232005543E+02  0.50432276940E+02  0.61109942075E+02  0.00000000000E+00 0.  1.
          1    1    1    2  501    0  0.49041823435E+01  0.40476931570E+02 -0.21345924454E+02  0.46022619271E+02  0.00000000000E+00 0. -1.
<scales pt_clust_5="13000.00000" pt_clust_6="13000.00000" pt_clust_7="13000.00000" pt_clust_8="13000.00000" pt_clust_9="40.77294"></scales>
<clustering>
<clus scale="   40.773">  2  9  1 -1</clus>
<clus scale="   91.471">  7  8 -1 -1</clus>
<clus scale="   95.899">  5  6 -1 -1</clus>
<clus scale="  100.151">  1  7  2 -1</clus>
<clus scale="   40.773">  2  5  1 -1</clus>
</clustering>
</event>
<event>
 9    1  0.1399746E-005  0.3093047E+03  0.7546771E-02  0.1110927E+00
         21   -1    0    0  501  502  0.00000000000E+00  0.00000000000E+00  0.94641013790E+02  0.94641013790E+02  0.00000000000E+00 0. -1.
          2   -1    0    0  502    0 -0.00000000000E+00 -0.00000000000E+00 -0.16515632038E+04  0.16515632038E+04  0.00000000000E+00 0. -1.
         23    2    1    2    0    0  0.49353702462E+02 -0.93257318823E+02 -0.20266391185E+03  0.24644136335E+03  0.92347002889E+02 0.  0.
         23    2    1    2    0    0  0.20535985070E+03  0.23776244744E+03 -0.91733917493E+03  0.97377898649E+03  0.89614189541E+02 0.  0.
        -13    1    3    3    0    0 -0.75272652152E+01 -0.30482689127E+02 -0.55361788932E+01  0.31882649431E+02  0.00000000000E+00 0.  1.
         13    1    3    3    0    0  0.56880967677E+02 -0.62774629696E+02 -0.19712773296E+03  0.21455871392E+03  0.00000000000E+00 0. -1.
        -13    1    4    4    0    0  0.40752046029E+02  0.58539550861E+01 -0.91235948131E+02  0.10009493632E+03  0.00000000000E+00 0.  1.
         13    1    4    4    0    0  0.16460780467E+03  0.23190849235E+03 -0.82610322680E+03  0.87368405016E+03  0.00000000000E+00 0. -1.
          2    1    1    2  501    0 -0.25471355317E+03 -0.14450512862E+03 -0.43691910319E+03  0.52598386771E+03  0.00000000000E+00 0. -1.
<scales pt_clust_5="13000.00000" pt_clust_6="13000.00000" pt_clust_7="13000.00000" pt_clust_8="13000.00000" pt_clust_9="296.03831"></scales>
<clustering>
<clus scale="   89.614">  7  8 -1 -1</clus>
<clus scale="   92.347">  5  6 -1 -1</clus>
<clus scale="  140.217">  2  5  1 -1</clus>
<clus scale="  296.038">  1  9  2 -1</clus>
<clus scale="  296.038">  1  5  2 -1</clus>
</clustering>
</event>
<event>
 9    1  0.1399746E-005  0.9318327E+02  0.7546771E-02  0.1295601E+00
         21   -1    0    0  501  502  0.00000000000E+00  0.00000000000E+00  0.22052080817E+03  0.22052080817E+03  0.00000000000E+00 0. -1.
          2   -1    0    0  502    0 -0.00000000000E+00 -0.00000000000E+00 -0.33828352133E+03  0.33828352133E+03  0.00000000000E+00 0. -1.
         23    2    1    2    0    0  0.62221639956E+01 -0.99788938387E+01 -0.23483331149E+03  0.25232323634E+03  0.91553469425E+02 0.  0.
         23    2    1    2    0    0 -0.26359458462E+02  0.21984138167E+02 -0.68773314151E+02  0.11916425910E+03  0.91061674300E+02 0.  0.
        -11    1    3    3    0    0  0.44805137500E+02 -0.23365019735E+02 -0.11180740909E+03  0.12269605218E+03  0.00000000000E+00 0.  1.
         11    1    3    3    0    0 -0.38582973505E+02  0.13386125896E+02 -0.12302590240E+03  0.12962718415E+03  0.00000000000E+00 0. -1.
        -11    1    4    4    0    0 -0.32372146742E+00 -0.21790755783E+02  0.11082049724E+02  0.24449001192E+02  0.00000000000E+00 0.  1.
         11    1    4    4    0    0 -0.26035736995E+02  0.43774893950E+02 -0.79855363875E+02  0.94715257909E+02  0.00000000000E+00 0. -1.
          2    1    1    2  501    0  0.20137294466E+02 -0.12005244328E+02  0.18584391247E+03  0.18731683406E+03  0.00000000000E+00 0. -1.
<scales pt_clust_5="13000.00000" pt_clust_6="13000.00000" pt_clust_7="13000.00000" pt_clust_8="13000.00000" pt_clust_9="23.44433"></scales>
<clustering>
<clus scale="   23.444">  1  9  2 -1</clus>
<clus scale="   91.062">  7  8 -1 -1</clus>
<clus scale="   91.553">  5  6 -1 -1</clus>
<clus scale="   92.700">  1  7  2 -1</clus>
<clus scale="   23.444">  1  5  2 -1</clus>
</clustering>
</event>
<event>
 9    1  0.1399746E-005  0.3155279E+03  0.7546771E-02  0.1078251E+00
          2   -1    0    0  502    0 -0.00000000000E+00  0.00000000000E+00  0.17199642152E+04  0.17199642152E+04  0.00000000000E+00 0. -1.
         21   -1    0    0  501  502  0.00000000000E+00 -0.00000000000E+00 -0.15206666549E+03  0.15206666549E+03  0.00000000000E+00 0. -1.
         23    2    1    2    0    0  0.12708798161E+03 -0.30122613924E+03  0.13857348269E+04  0.14267478169E+04  0.91977064999E+02 0.  0.
         23    2    1    2    0    0 -0.79796430086E+02  0.13458528925E+03 -0.65366111693E+01  0.18913251750E+03  0.10605522879E+03 0.  0.
        -11    1    4    4    0    0 -0.77357614173E+02  0.32380704135E+02  0.13536814043E+02  0.84946782195E+02  0.00000000000E+00 0.  1.
         11    1    4    4    0    0 -0.24388159136E+01  0.10220458511E+03 -0.20073425212E+02  0.10418573530E+03  0.00000000000E+00 0. -1.
        -11    1    3    3    0    0  0.99783397387E+02 -0.16859315777E+03  0.65896519875E+03  0.68747037202E+03  0.00000000000E+00 0.  1.
         11    1    3    3    0    0  0.27304584227E+02 -0.13263298147E+03  0.72676962814E+03  0.73927744486E+03  0.00000000000E+00 0. -1.
          2    1    1    2  501    0 -0.47291551528E+02  0.16664084999E+03  0.18869933399E+03  0.25615054632E+03  0.00000000000E+00 0. -1.
<scales pt_clust_5="13000.00000" pt_clust_6="13000.00000" pt_clust_7="13000.00000" pt_clust_8="13000.00000" pt_clust_9="173.22143"></scales>
<clustering>
<clus scale="   91.977">  7  8 -1 -1</clus>
<clus scale="  106.055">  5  6 -1 -1</clus>
<clus scale="  173.221">  2  9  1 -1</clus>
<clus scale="  311.079">  1  7  2 -1</clus>
<clus scale="  173.221">  2  5  1 -1</clus>
</clustering>
</event>
<event>
 9    1  0.1399746E-005  0.1170015E+03  0.7546771E-02  0.1248501E+00
         21   -1    0    0  501  502  0.00000000000E+00  0.00000000000E+00  0.46383121713E+03  0.46383121713E+03  0.00000000000E+00 0.  1.
          3   -1    0    0  502    0 -0.00000000000E+00 -0.00000000000E+00 -0.66477621674E+02  0.66477621674E+02  0.00000000000E+00 0. -1.
         23    2    1    2    0    0 -0.69198843688E+02 -0.51462132494E+01  0.13689874143E+02  0.11459827527E+03  0.90168667295E+02 0.  0.
         23    2    1    2    0    0  0.88961529087E+02  0.20521884123E+01  0.25071877221E+03  0.28126914055E+03  0.91291081434E+02 0.  0.
        -13    1    4    4    0    0  0.17706093991E+02 -0.27070945729E+02  0.15549037182E+03  0.15881938671E+03  0.00000000000E+00 0.  1.
         13    1    4    4    0    0  0.71255435096E+02  0.29123134141E+02  0.95228400398E+02  0.12244975384E+03  0.00000000000E+00 0. -1.
        -13    1    3    3    0    0  0.16298559782E+02 -0.21211479363E+02  0.44070456134E+01  0.27110735121E+02  0.00000000000E+00 0.  1.
         13    1    3    3    0    0 -0.85497403471E+02  0.16065266114E+02  0.92828285294E+01  0.87487540147E+02  0.00000000000E+00 0. -1.
          3    1    1    2  501    0 -0.19762685399E+02  0.30940248371E+01  0.13294494910E+03  0.13444142299E+03  0.00000000000E+00 0. -1.
<scales pt_clust_5="13000.00000" pt_clust_6="13000.00000" pt_clust_7="13000.00000" pt_clust_8="13000.00000" pt_clust_9="20.00342"></scales>
<clustering>
<clus scale="   20.003">  1  9  2 -1</clus>
<clus scale="   90.169">  7  8 -1 -1</clus>
<clus scale="   91.291">  5  6 -1 -1</clus>
<clus scale="  116.128">  2  7  1 -1</clus>
<clus scale="   20.003">  1  5  2 -1</clus>
</clustering>
</event>
<event>
 9    1  0.1399746E-005  0.1740006E+03  0.7546771E-02  0.1188013E+00
         21   -1    0    0  501  502  0.00000000000E+00  0.00000000000E+00  0.91849343222E+03  0.91849343222E+03  0.00000000000E+00 0. -1.
          1   -1    0    0  502    0 -0.00000000000E+00 -0.00000000000E+00 -0.30064171560E+03  0.30064171560E+03  0.00000000000E+00 0. -1.
         23    2    1    2    0    0  0.36068123164E+02 -0.78446836075E+02  0.88659585343E+02  0.15431236556E+03  0.92179002447E+02 0.  0.
         23    2    1    2    0    0 -0.16560969097E+03  0.15169273484E+03 -0.20467070923E+03  0.31602331100E+03  0.86852624199E+02 0.  0.
        -11    1    4    4    0    0 -0.20282429293E+02  0.50924839275E+02 -0.89596633411E+02  0.10503462720E+03  0.00000000000E+00 0.  1.
         11    1    4    4    0    0 -0.14532726168E+03  0.10076789557E+03 -0.11507407582E+03  0.21098868380E+03  0.00000000000E+00 0. -1.
        -13    1    3    3    0    0  0.42661759379E+02  0.44834466965E+01  0.34442194705E+02  0.55012651124E+02  0.00000000000E+00 0.  1.
         13    1    3    3    0    0 -0.65936362148E+01 -0.82930282772E+02  0.54217390638E+02  0.99299714434E+02  0.00000000000E+00 0. -1.
          1    1    1    2  501    0  0.12954156781E+03 -0.73245898769E+02  0.73386284051E+03  0.74879947126E+03  0.00000000000E+00 0. -1.
<scales pt_clust_5="13000.00000" pt_clust_6="13000.00000" pt_clust_7="13000.00000" pt_clust_8="13000.00000" pt_clust_9="150.77408"></scales>
<clustering>
<clus scale="   86.853">  5  6 -1 -1</clus>
<clus scale="   92.179">  7  8 -1 -1</clus>
<clus scale="  126.300">  2  7  1 -1</clus>
<clus scale="  150.774">  1  9  2 -1</clus>
<clus scale="  150.774">  1  5  2 -1</clus>
</clustering>
</event>
<event>
 9    1  0.1399746E-005  0.2196822E+03  0.7546771E-02  0.1134363E+00
         21   -1    0    0  501  502  0.00000000000E+00  0.00000000000E+00  0.10042656042E+03  0.10042656042E+03  0.00000000000E+00 0.  1.
         -3   -1    0    0    0  501 -0.00000000000E+00 -0.00000000000E+00 -0.81599283163E+03  0.81599283163E+03  0.00000000000E+00 0.  1.
         23    2    1    2    0    0 -0.17244471777E+03 -0.11601371045E+03 -0.26015838650E+03  0.34492544001E+03  0.89971169829E+02 0.  0.
         23    2    1    2    0    0  0.20472808012E+03  0.10696209656E+02 -0.23707651360E+03  0.32694829359E+03  0.93069424052E+02 0.  0.
        -11    1    4    4    0    0  0.18436431465E+03 -0.17726459140E+02 -0.22132696122E+03  0.28860015875E+03  0.00000000000E+00 0.  1.
         11    1    4    4    0    0  0.20363765465E+02  0.28422668796E+02 -0.15749552381E+02  0.38348134838E+02  0.00000000000E+00 0. -1.
        -13    1    3    3    0    0 -0.62896254991E+02 -0.49032228113E+01 -0.11818273030E+03  0.13396692960E+03  0.00000000000E+00 0. -1.
         13    1    3    3    0    0 -0.10954846278E+03 -0.11111048764E+03 -0.14197565620E+03  0.21095851041E+03  0.00000000000E+00 0.  1.
         -3    1    1    2    0  502 -0.32283362351E+02  0.10531750079E+03 -0.21833137111E+03  0.24454565845E+03  0.00000000000E+00 0.  1.
<scales pt_clust_5="13000.00000" pt_clust_6="13000.00000" pt_clust_7="13000.00000" pt_clust_8="13000.00000" pt_clust_9="110.15445"></scales>
<clustering>
<clus scale="   89.971">  7  8 -1 -1</clus>
<clus scale="   93.069">  5  6 -1 -1</clus>
<clus scale="  110.154">  1  9  2 -1</clus>
<clus scale="  218.388">  2  7  1 -1</clus>
<clus scale="  110.154">  1  5  2 -1</clus>
</clustering>
</event>
<event>
 9    1  0.1399746E-005  0.1367371E+03  0.7546771E-02  0.1219349E+00
         21   -1    0    0  501  502  0.00000000000E+00  0.00000000000E+00  0.40856737745E+02  0.40856737745E+02  0.00000000000E+00 0. -1.
          2   -1    0    0  502    0 -0.00000000000E+00 -0.00000000000E+00 -0.11751626770E+04  0.11751626770E+04  0.00000000000E+00 0. -1.
         23    2    1    2    0    0  0.11665534142E+03  0.12419623413E+02 -0.73605622931E+03  0.75032760496E+03  0.86313535048E+02 0.  0.
         23    2    1    2    0    0 -0.78276712637E+02 -0.10859638767E+02 -0.40817653372E+03  0.42601947015E+03  0.92948000364E+02 0.  0.
        -13    1    4    4    0    0 -0.98172067718E+02  0.17319677246E+01 -0.31748088676E+03  0.33231742063E+03  0.00000000000E+00 0.  1.
         13    1    4    4    0    0  0.19895355082E+02 -0.12591606491E+02 -0.90695646954E+02  0.93702049520E+02  0.00000000000E+00 0. -1.
        -13    1    3    3    0    0  0.80130323853E+01  0.33492639161E+02 -0.20364777422E+03  0.20653905565E+03  0.00000000000E+00 0.  1.
         13    1    3    3    0    0  0.10864230903E+03 -0.21073015748E+02 -0.53240845509E+03  0.54378854931E+03  0.00000000000E+00 0. -1.
          2    1    1    2  501    0 -0.38378628783E+02 -0.15599846461E+01  0.99268237996E+01  0.39672339609E+02  0.00000000000E+00 0. -1.
<scales pt_clust_5="13000.00000" pt_clust_6="13000.00000" pt_clust_7="13000.00000" pt_clust_8="13000.00000" pt_clust_9="38.41032"></scales>
<clustering>
<clus scale="   38.410">  1  9  2 -1</clus>
<clus scale="   86.314">  7  8 -1 -1</clus>
<clus scale="   92.948">  5  6 -1 -1</clus>
<clus scale="  132.317">  2  7  1 -1</clus>
<clus scale="   38.410">  1  5  2 -1</clus>
</clustering>
</event>
<event>
 9    1  0.1399746E-005  0.1827857E+03  0.7546771E-02  0.1167186E+00
          1   -1    0    0  502    0 -0.00000000000E+00  0.00000000000E+00  0.16672172351E+04  0.16672172351E+04  0.00000000000E+00 0. -1.
         21   -1    0    0  501  502  0.00000000000E+00 -0.00000000000E+00 -0.57513289860E+02  0.57513289860E+02  0.00000000000E+00 0. -1.
         23    2    1    2    0    0 -0.12213497958E+03 -0.18570170581E+02  0.58524953049E+03  0.60251691505E+03  0.72441807693E+02 0.  0.
         23    2    1    2    0    0  0.21607828645E+03 -0.11317327563E+02  0.99053623526E+03  0.10179588722E+04  0.90886326009E+02 0.  0.
        -13    1    3    3    0    0 -0.96119150993E+02  0.14210591871E+02  0.33554632749E+03  0.34933103212E+03  0.00000000000E+00 0.  1.
         13    1    3    3    0    0 -0.26015828591E+02 -0.32780762453E+02  0.24970320300E+03  0.25318588292E+03  0.00000000000E+00 0. -1.
        -13    1    4    4    0    0  0.16299249266E+02  0.19057173514E+02  0.49721196253E+02  0.55686971059E+02  0.00000000000E+00 0.  1.
         13    1    4    4    0    0  0.19977903719E+03 -0.30374501076E+02  0.94081503901E+03  0.96227190110E+03  0.00000000000E+00 0. -1.
          1    1    1    2  501    0 -0.93943306869E+02  0.29887498144E+02  0.33918179523E+02  0.10425473780E+03  0.00000000000E+00 0. -1.
<scales pt_clust_5="13000.00000" pt_clust_6="13000.00000" pt_clust_7="13000.00000" pt_clust_8="13000.00000" pt_clust_9="98.58300"></scales>
<clustering>
<clus scale="   72.442">  5  6 -1 -1</clus>
<clus scale="   90.886">  7  8 -1 -1</clus>
<clus scale="   98.583">  2  9  1 -1</clus>
<clus scale="  174.351">  1  5  2 -1</clus>
<clus scale="   98.583">  2  5  1 -1</clus>
</clustering>
</event>
<event>
 9    1  0.1399746E-005  0.1592628E+03  0.7546771E-02  0.1189776E+00
          2   -1    0    0  502    0 -0.00000000000E+00  0.00000000000E+00  0.12928960537E+04  0.12928960537E+04  0.00000000000E+00 0. -1.
         21   -1    0    0  501  502  0.00000000000E+00 -0.00000000000E+00 -0.38089254615E+02  0.38089254615E+02  0.00000000000E+00 0.  1.
         23    2    1    2    0    0 -0.14403024845E+03 -0.29442422246E+02  0.75766635176E+03  0.77736051729E+03  0.92841286919E+02 0.  0.
         23    2    1    2    0    0  0.10796974701E+03  0.26618830032E+02  0.49703657589E+03  0.51745376360E+03  0.91361979551E+02 0.  0.
        -13    1    3    3    0    0 -0.90329039973E+02 -0.52761993164E+02  0.60255082482E+03  0.61156410938E+03  0.00000000000E+00 0.  1.
         13    1    3    3    0    0 -0.53701208475E+02  0.23319570919E+02  0.15511552694E+03  0.16579640792E+03  0.00000000000E+00 0. -1.
        -13    1    4    4    0    0  0.10088144305E+03  0.19315475204E+01  0.46770931542E+03  0.47846922593E+03  0.00000000000E+00 0. -1.
         13    1    4    4    0    0  0.70883039567E+01  0.24687282512E+02  0.29327260472E+02  0.38984537673E+02  0.00000000000E+00 0.  1.
          2    1    1    2  501    0  0.36060501443E+02  0.28235922136E+01  0.10387145475E+00  0.36171027447E+02  0.00000000000E+00 0. -1.
<scales pt_clust_5="13000.00000" pt_clust_6="13000.00000" pt_clust_7="13000.00000" pt_clust_8="13000.00000" pt_clust_9="36.17088"></scales>
<clustering>
<clus scale="   36.171">  2  9  1 -1</clus>
<clus scale="   91.362">  7  8 -1 -1</clus>
<clus scale="   92.841">  5  6 -1 -1</clus>
<clus scale="  158.405">  2  7  1 -1</clus>
<clus scale="   36.171">  2  5  1 -1</clus>
</clustering>
</event>
<event>
 9    1  0.1399746E-005  0.1174832E+03  0.7546771E-02  0.1251318E+00
          2   -1    0    0  502    0 -0.00000000000E+00  0.00000000000E+00  0.52161304508E+03  0.52161304508E+03  0.00000000000E+00 0. -1.
         21   -1    0    0  501  502  0.00000000000E+00 -0.00000000000E+00 -0.36622333958E+02  0.36622333958E+02  0.00000000000E+00 0.  1.
         23    2    1    2    0    0  0.56605422911E+02 -0.34597896578E+02  0.27980676628E+03  0.30480041436E+03  0.10104591921E+03 0.  0.
         23    2    1    2    0    0 -0.20855149606E+02  0.54693877704E+02  0.14467737142E+03  0.18033930183E+03  0.90356872798E+02 0.  0.
        -11    1    4    4    0    0  0.99010147735E+01 -0.17411551008E+02  0.57791781222E+01  0.20846848726E+02  0.00000000000E+00 0.  1.
         11    1    4    4    0    0 -0.30756164379E+02  0.72105428712E+02  0.13889819330E+03  0.15949245311E+03  0.00000000000E+00 0. -1.
        -13    1    3    3    0    0  0.80968371300E+02 -0.45854230788E+02  0.19963216588E+03  0.22025323899E+03  0.00000000000E+00 0.  1.
         13    1    3    3    0    0 -0.24362948389E+02  0.11256334210E+02  0.80174600397E+02  0.84547175369E+02  0.00000000000E+00 0. -1.
          2    1    1    2  501    0 -0.35750273306E+02 -0.20095981126E+02  0.60506573423E+02  0.73095662842E+02  0.00000000000E+00 0. -1.
<scales pt_clust_5="13000.00000" pt_clust_6="13000.00000" pt_clust_7="13000.00000" pt_clust_8="13000.00000" pt_clust_9="41.01135"></scales>
<clustering>
<clus scale="   41.011">  2  9  1 -1</clus>
<clus scale="   90.357">  5  6 -1 -1</clus>
<clus scale="  101.046">  7  8 -1 -1</clus>
<clus scale="  108.427">  2  5  1 -1</clus>
<clus scale="   41.011">  2  5  1 -1</clus>
</clustering>
</event>
<event>
 9    1  0.1399746E-005  0.1058099E+03  0.7546771E-02  0.1269948E+00
         -3   -1    0    0    0  501 -0.00000000000E+00  0.00000000000E+00  0.13595051097E+03  0.13595051097E+03  0.00000000000E+00 0.  1.
         21   -1    0    0  501  502  0.00000000000E+00 -0.00000000000E+00 -0.18450987502E+03  0.18450987502E+03  0.00000000000E+00 0.  1.
         23    2    1    2    0    0 -0.46868756807E+02 -0.63607937858E+01  0.55483362023E+02  0.11542401114E+03  0.89482729198E+02 0.  0.
         23    2    1    2    0    0  0.75203404414E+02  0.35281847780E+02 -0.34389733306E+02  0.12447075550E+03  0.86081092004E+02 0.  0.
        -11    1    3    3    0    0 -0.38673958426E+02  0.19597228200E+02  0.71663187145E+02  0.83757619386E+02  0.00000000000E+00 0.  1.
         11    1    3    3    0    0 -0.81947983807E+01 -0.25958021986E+02 -0.16179825121E+02  0.31666391757E+02  0.00000000000E+00 0. -1.
        -13    1    4    4    0    0  0.62188950909E+02 -0.11913708653E+02 -0.40454177435E+02  0.75139487228E+02  0.00000000000E+00 0. -1.
         13    1    4    4    0    0  0.13014453505E+02  0.47195556434E+02  0.60644441286E+01  0.49331268276E+02  0.00000000000E+00 0.  1.
         -3    1    1    2    0  502 -0.28334647608E+02 -0.28921053995E+02 -0.69652992761E+02  0.80565619341E+02  0.00000000000E+00 0.  1.
<scales pt_clust_5="13000.00000" pt_clust_6="13000.00000" pt_clust_7="13000.00000" pt_clust_8="13000.00000" pt_clust_9="40.48802"></scales>
<clustering>
<clus scale="   40.488">  2  9  1 -1</clus>
<clus scale="   86.081">  7  8 -1 -1</clus>
<clus scale="   89.483">  5  6 -1 -1</clus>
<clus scale="  102.949">  2  7  1 -1</clus>
<clus scale="   40.488">  2  5  1 -1</clus>
</clustering>
</event>
<event>
 9    1  0.1399746E-005  0.1358027E+03  0.7546771E-02  0.1236069E+00
          2   -1    0    0  502    0 -0.00000000000E+00  0.00000000000E+00  0.18682993816E+03  0.18682993816E+03  0.00000000000E+00 0. -1.
         21   -1    0    0  501  502  0.00000000000E+00 -0.00000000000E+00 -0.16603113259E+03  0.16603113259E+03  0.00000000000E+00 0. -1.
         23    2    1    2    0    0 -0.30488804246E+01  0.78574407804E+01  0.48775901000E+02  0.10724046116E+03  0.95133553200E+02 0.  0.
         23    2    1    2    0    0  0.10230837845E+03  0.70659695950E+01  0.12175028186E+02  0.13751256569E+03  0.90799461360E+02 0.  0.
        -11    1    4    4    0    0  0.10539004886E+03  0.32732598707E+02  0.15534638722E+02  0.11144420315E+03  0.00000000000E+00 0. -1.
         11    1    4    4    0    0 -0.30816704029E+01 -0.25666629112E+02 -0.33596105360E+01  0.26068362538E+02  0.00000000000E+00 0.  1.
        -11    1    3    3    0    0 -0.44375628761E+02  0.14502167576E+02  0.54574932970E+01  0.47003122507E+02  0.00000000000E+00 0.  1.
         11    1    3    3    0    0  0.41326748337E+02 -0.66447267961E+01  0.43318407703E+02  0.60237338655E+02  0.00000000000E+00 0. -1.
          2    1    1    2  501    0 -0.99259498028E+02 -0.14923410375E+02 -0.40152123616E+02  0.10810804390E+03  0.00000000000E+00 0. -1.
<scales pt_clust_5="13000.00000" pt_clust_6="13000.00000" pt_clust_7="13000.00000" pt_clust_8="13000.00000" pt_clust_9="100.98435"></scales>
<clustering>
<clus scale="   90.799">  5  6 -1 -1</clus>
<clus scale="   95.134">  7  8 -1 -1</clus>
<clus scale="   95.506">  1  7  2 -1</clus>
<clus scale="  100.984">  2  9  1 -1</clus>
<clus scale="  100.984">  2  5  1 -1</clus>
</clustering>
</event>
<event>
 9    1  0.1399746E-005  0.9716551E+02  0.7546771E-02  0.1294877E+00
          2   -1    0    0  502    0 -0.00000000000E+00  0.00000000000E+00  0.82109498424E+02  0.82109498424E+02  0.00000000000E+00 0. -1.
         21   -1    0    0  501  502  0.00000000000E+00 -0.00000000000E+00 -0.19617698419E+03  0.19617698419E+03  0.00000000000E+00 0. -1.
         23    2    1    2    0    0  0.14258991694E+01 -0.24344512094E+02 -0.20762407503E+02  0.10029679067E+03  0.95045674257E+02 0.  0.
         23    2    1    2    0    0  0.34520345799E+02 -0.32442105214E+01 -0.16888263536E+02  0.89148261771E+02  0.80374249331E+02 0.  0.
        -13    1    3    3    0    0 -0.35092073771E+02  0.85756830315E+01 -0.33757298398E+02  0.49442402613E+02  0.00000000000E+00 0.  1.
         13    1    3    3    0    0  0.36517972941E+02 -0.32920195126E+02  0.12994890895E+02  0.50854388052E+02  0.00000000000E+00 0. -1.
        -13    1    4    4    0    0 -0.12523459683E+02  0.28131890003E+02 -0.87951084359E+01  0.32024899844E+02  0.00000000000E+00 0.  1.
         13    1    4    4    0    0  0.47043805482E+02 -0.31376100525E+02 -0.80931551002E+01  0.57123361927E+02  0.00000000000E+00 0. -1.
          2    1    1    2  501    0 -0.35946244969E+02  0.27588722616E+02 -0.76416814728E+02  0.88841430178E+02  0.00000000000E+00 0. -1.
<scales pt_clust_5="13000.00000" pt_clust_6="13000.00000" pt_clust_7="13000.00000" pt_clust_8="13000.00000" pt_clust_9="45.31302"></scales>
<clustering>
<clus scale="   45.313">  2  9  1 -1</clus>
<clus scale="   80.374">  7  8 -1 -1</clus>
<clus scale="   82.870">  2  7  1 -1</clus>
<clus scale="   95.046">  5  6 -1 -1</clus>
<clus scale="   45.313">  2  5  1 -1</clus>
</clustering>
</event>
<event>
 9    1  0.1399746E-005  0.1337865E+03  0.7546771E-02  0.1222788E+00
          1   -1    0    0  502    0 -0.00000000000E+00  0.00000000000E+00  0.86768367539E+03  0.86768367539E+03  0.00000000000E+00 0. -1.
         21   -1    0    0  501  502  0.00000000000E+00 -0.00000000000E+00 -0.27153519190E+02  0.27153519190E+02  0.00000000000E+00 0.  1.
         23    2    1    2    0    0 -0.56577009894E+02  0.68731867423E+02  0.45744186633E+03  0.47445120574E+03  0.89027287420E+02 0.  0.
         23    2    1    2    0    0  0.67010883496E+02 -0.90064904004E+02  0.29142500077E+03  0.32569637623E+03  0.92452436291E+02 0.  0.
        -11    1    3    3    0    0  0.20141850318E+02  0.30237386556E+02  0.88730494986E+02  0.95880625886E+02  0.00000000000E+00 0.  1.
         11    1    3    3    0    0 -0.76718860212E+02  0.38494480868E+02  0.36871137135E+03  0.37857057985E+03  0.00000000000E+00 0. -1.
        -13    1    4    4    0    0  0.59643290749E+02 -0.11864965557E+02  0.82472785103E+02  0.10246882366E+03  0.00000000000E+00 0.  1.
         13    1    4    4    0    0  0.73675927474E+01 -0.78199938447E+02  0.20895221567E+03  0.22322755258E+03  0.00000000000E+00 0. -1.
          1    1    1    2  501    0 -0.10433873602E+02  0.21333036581E+02  0.91663289099E+02  0.94689612612E+02  0.00000000000E+00 0. -1.
<scales pt_clust_5="13000.00000" pt_clust_6="13000.00000" pt_clust_7="13000.00000" pt_clust_8="13000.00000" pt_clust_9="23.74794"></scales>
<clustering>
<clus scale="   23.748">  2  9  1 -1</clus>
<clus scale="   89.027">  5  6 -1 -1</clus>
<clus scale="   92.452">  7  8 -1 -1</clus>
<clus scale="  131.443">  1  5  2 -1</clus>
<clus scale="   23.748">  2  5  1 -1</clus>
</clustering>
</event>
<event>
 9    1  0.1399746E-005  0.9489785E+02  0.7546771E-02  0.1294233E+00
          1   -1    0    0  502    0 -0.00000000000E+00  0.00000000000E+00  0.21120363140E+03  0.21120363140E+03  0.00000000000E+00 0. -1.
         21   -1    0    0  501  502  0.00000000000E+00 -0.00000000000E+00 -0.12501618995E+03  0.12501618995E+03  0.00000000000E+00 0. -1.
         23    2    1    2    0    0  0.19544523901E+02  0.12138157757E+02  0.16225579474E+03  0.18760406187E+03  0.91318222800E+02 0.  0.
         23    2    1    2    0    0 -0.43662168538E+02 -0.75042660350E+01 -0.39785753750E+02  0.10480296722E+03  0.86244169461E+02 0.  0.
        -11    1    3    3    0    0  0.28762368128E+02 -0.35421963527E+02  0.82978034251E+02  0.94696058464E+02  0.00000000000E+00 0.  1.
         11    1    3    3    0    0 -0.92178442272E+01  0.47560121284E+02  0.79277760492E+02  0.92908003409E+02  0.00000000000E+00 0. -1.
        -13    1    4    4    0    0 -0.20122615717E+01 -0.41740735170E+02 -0.25768638767E+02  0.49095426601E+02  0.00000000000E+00 0.  1.
         13    1    4    4    0    0 -0.41649906967E+02  0.34236469135E+02 -0.14017114982E+02  0.55707540617E+02  0.00000000000E+00 0. -1.
          1    1    1    2  501    0  0.24117644637E+02 -0.46338917223E+01 -0.36282599549E+02  0.43812792257E+02  0.00000000000E+00 0. -1.
<scales pt_clust_5="13000.00000" pt_clust_6="13000.00000" pt_clust_7="13000.00000" pt_clust_8="13000.00000" pt_clust_9="24.55878"></scales>
<clustering>
<clus scale="   24.559">  2  9  1 -1</clus>
<clus scale="   86.244">  7  8 -1 -1</clus>
<clus scale="   90.026">  2  7  1 -1</clus>
<clus scale="   91.318">  5  6 -1 -1</clus>
<clus scale="   24.559">  2  5  1 -1</clus>
</clustering>
</event>
<event>
 9    1  0.1399746E-005  0.1573698E+03  0.7546771E-02  0.1192231E+00
          2   -1    0    0  502    0 -0.00000000000E+00  0.00000000000E+00  0.30828855740E+03  0.30828855740E+03  0.00000000000E+00 0. -1.
         21   -1    0    0  501  502  0.00000000000E+00 -0.00000000000E+00 -0.12622950388E+03  0.12622950388E+03  0.00000000000E+00 0.  1.
         23    2    1    2    0    0  0.10941831326E+03 -0.22819885786E+02  0.12472295209E+03  0.19113426645E+03  0.92105258102E+02 0.  0.
         23    2    1    2    0    0 -0.15303010679E+03  0.50358142619E+02  0.53615783066E+02  0.19167127321E+03  0.88932944774E+02 0.  0.
        -11    1    4    4    0    0 -0.51647966488E+02  0.62112191899E+02  0.34482341636E+02  0.87832048306E+02  0.00000000000E+00 0.  1.
         11    1    4    4    0    0 -0.10138214030E+03 -0.11754049280E+02  0.19133441430E+02  0.10383922490E+03  0.00000000000E+00 0. -1.
        -11    1    3    3    0    0  0.59561215555E+02  0.34499570800E+02  0.61311388414E+02  0.92178333316E+02  0.00000000000E+00 0.  1.
         11    1    3    3    0    0  0.49857097708E+02 -0.57319456586E+02  0.63411563677E+02  0.98955933138E+02  0.00000000000E+00 0. -1.
          2    1    1    2  501    0  0.43611793530E+02 -0.27538256833E+02  0.37203183634E+01  0.51712521627E+02  0.00000000000E+00 0. -1.
<scales pt_clust_5="13000.00000" pt_clust_6="13000.00000" pt_clust_7="13000.00000" pt_clust_8="13000.00000" pt_clust_9="51.57852"></scales>
<clustering>
<clus scale="   51.579">  2  9  1 -1</clus>
<clus scale="   88.933">  5  6 -1 -1</clus>
<clus scale="   92.105">  7  8 -1 -1</clus>
<clus scale="  155.534">  2  5  1 -1</clus>
<clus scale="   51.579">  2  5  1 -1</clus>
</clustering>
</event>
<event>
 9    1  0.1399746E-005  0.1900690E+03  0.7546771E-02  0.1178949E+00
         -2   -1    0    0    0  501 -0.00000000000E+00  0.00000000000E+00  0.49801265371E+03  0.49801265371E+03  0.00000000000E+00 0.  1.
         21   -1    0    0  501  502  0.00000000000E+00 -0.00000000000E+00 -0.14866790583E+03  0.14866790583E+03  0.00000000000E+00 0. -1.
         23    2    1    2    0    0  0.77328668052E+02  0.89430926836E+01  0.99187530950E+02  0.15465055821E+03  0.89548462015E+02 0.  0.
         23    2    1    2    0    0  0.38811392778E+02  0.11967760047E+03  0.27347680379E+03  0.31717120238E+03  0.99894730332E+02 0.  0.
        -13    1    3    3    0    0  0.29492676713E+02  0.32885413866E+02  0.26127648638E+01  0.44250366835E+02  0.00000000000E+00 0. -1.
         13    1    3    3    0    0  0.47835991339E+02 -0.23942321182E+02  0.96574766086E+02  0.11040019137E+03  0.00000000000E+00 0.  1.
        -13    1    4    4    0    0 -0.24429584679E+02  0.42969744928E+02  0.15402165670E+03  0.16175869164E+03  0.00000000000E+00 0.  1.
         13    1    4    4    0    0  0.63240977457E+02  0.76707855542E+02  0.11945514709E+03  0.15541251075E+03  0.00000000000E+00 0. -1.
         -2    1    1    2    0  502 -0.11614006083E+03 -0.12862069315E+03 -0.23319586857E+02  0.17485879894E+03  0.00000000000E+00 0.  1.
<scales pt_clust_5="13000.00000" pt_clust_6="13000.00000" pt_clust_7="13000.00000" pt_clust_8="13000.00000" pt_clust_9="161.70111"></scales>
<clustering>
<clus scale="   89.548">  5  6 -1 -1</clus>
<clus scale="   99.895">  7  8 -1 -1</clus>
<clus scale="  118.653">  1  5  2 -1</clus>
<clus scale="  161.701">  2  9  1 -1</clus>
<clus scale="  161.701">  2  5  1 -1</clus>
</clustering>
</event>
<event>
 9    1  0.1399746E-005  0.2007912E+03  0.7546771E-02  0.1149105E+00
          2   -1    0    0  502    0 -0.00000000000E+00  0.00000000000E+00  0.37971325323E+03  0.37971325323E+03  0.00000000000E+00 0. -1.
         21   -1    0    0  501  502  0.00000000000E+00 -0.00000000000E+00 -0.14437931852E+03  0.14437931852E+03  0.00000000000E+00 0.  1.
         23    2    1    2    0    0 -0.84844272012E+02  0.14844871108E+03  0.18282878821E+03  0.26644409302E+03  0.91271674656E+02 0.  0.
         23    2    1    2    0    0  0.10559934495E+03 -0.16209592813E+03  0.72535092629E+02  0.22573894523E+03  0.90941850438E+02 0.  0.
        -11    1    3    3    0    0 -0.16151067709E+02  0.11491549022E+03  0.94692027440E+02  0.14977652333E+03  0.00000000000E+00 0.  1.
         11    1    3    3    0    0 -0.68693204303E+02  0.33533220856E+02  0.88136760773E+02  0.11666756969E+03  0.00000000000E+00 0. -1.
        -13    1    4    4    0    0  0.91610480766E+02 -0.13602981860E+03  0.94146103133E+02  0.18910335922E+03  0.00000000000E+00 0. -1.
         13    1    4    4    0    0  0.13988864188E+02 -0.26066109532E+02 -0.21611010503E+02  0.36635586011E+02  0.00000000000E+00 0.  1.
          2    1    1    2  501    0 -0.20755072942E+02  0.13647217052E+02 -0.20029946134E+02  0.31909533500E+02  0.00000000000E+00 0. -1.
<scales pt_clust_5="13000.00000" pt_clust_6="13000.00000" pt_clust_7="13000.00000" pt_clust_8="13000.00000" pt_clust_9="24.83988"></scales>
<clustering>
<clus scale="   24.840">  2  9  1 -1</clus>
<clus scale="   90.942">  7  8 -1 -1</clus>
<clus scale="   91.272">  5  6 -1 -1</clus>
<clus scale="  200.642">  2  7  1 -1</clus>
<clus scale="   24.840">  2  5  1 -1</clus>
</clustering>
</event>
<event>
 9    1  0.1399746E-005  0.9623625E+02  0.7546771E-02  0.1289153E+00
         21   -1    0    0  501  502  0.00000000000E+00  0.00000000000E+00  0.22750522883E+03  0.22750522883E+03  0.00000000000E+00 0. -1.
          2   -1    0    0  502    0 -0.00000000000E+00 -0.00000000000E+00 -0.27709897459E+03  0.27709897459E+03  0.00000000000E+00 0. -1.
         23    2    1    2    0    0  0.21809754062E+02 -0.41694860128E+01 -0.16419857935E+03  0.18848374288E+03  0.89843741490E+02 0.  0.
         23    2    1    2    0    0 -0.22926126492E+02  0.76346199499E+02 -0.54050506818E+02  0.13266652054E+03  0.91239240086E+02 0.  0.
        -11    1    4    4    0    0 -0.38181012182E+02  0.47801170958E+00  0.15459696507E+00  0.38184317287E+02  0.00000000000E+00 0.  1.
         11    1    4    4    0    0  0.15254885689E+02  0.75868187789E+02 -0.54205103783E+02  0.94482203255E+02  0.00000000000E+00 0. -1.
        -13    1    3    3    0    0  0.53171422838E+02 -0.37344429786E+00 -0.62847364132E+02  0.82323331113E+02  0.00000000000E+00 0.  1.
         13    1    3    3    0    0 -0.31361668776E+02 -0.37960417150E+01 -0.10135121521E+03  0.10616041177E+03  0.00000000000E+00 0. -1.
          2    1    1    2  501    0  0.11163724308E+01 -0.72176713486E+02  0.16865534040E+03  0.18345394000E+03  0.00000000000E+00 0. -1.
<scales pt_clust_5="13000.00000" pt_clust_6="13000.00000" pt_clust_7="13000.00000" pt_clust_8="13000.00000" pt_clust_9="72.18535"></scales>
<clustering>
<clus scale="   72.185">  1  9  2 -1</clus>
<clus scale="   89.844">  7  8 -1 -1</clus>
<clus scale="   91.239">  5  6 -1 -1</clus>
<clus scale="   94.914">  2  7  1 -1</clus>
<clus scale="   72.185">  1  5  2 -1</clus>
</clustering>
</event>
<event>
 9    1  0.1399746E-005  0.9627322E+02  0.7546771E-02  0.1288503E+00
         -2   -1    0    0    0  501 -0.00000000000E+00  0.00000000000E+00  0.88244611836E+02  0.88244611836E+02  0.00000000000E+00 0.  1.
         21   -1    0    0  501  502  0.00000000000E+00 -0.00000000000E+00 -0.16134385905E+03  0.16134385905E+03  0.00000000000E+00 0. -1.
         23    2    1    2    0    0 -0.26486863724E+02  0.31730107698E+02 -0.43748549313E+01  0.10044374339E+03  0.91440978480E+02 0.  0.
         23    2    1    2    0    0 -0.10088167723E+02 -0.22375718169E+02 -0.44916454541E+02  0.10451227934E+03  0.91120166559E+02 0.  0.
        -11    1    4    4    0    0 -0.47647771895E+02  0.47106059402E+01 -0.19602559667E+02  0.51737417024E+02  0.00000000000E+00 0.  1.
         11    1    4    4    0    0  0.37559604172E+02 -0.27086324109E+02 -0.25313894874E+02  0.52774862321E+02  0.00000000000E+00 0. -1.
        -13    1    3    3    0    0  0.33771822939E+02  0.92465623407E+01 -0.83766192510E+01  0.36002815027E+02  0.00000000000E+00 0. -1.
         13    1    3    3    0    0 -0.60258686663E+02  0.22483545357E+02  0.40017643197E+01  0.64440928360E+02  0.00000000000E+00 0.  1.
         -2    1    1    2    0  502  0.36575031446E+02 -0.93543895290E+01 -0.23807937743E+02  0.44632448156E+02  0.00000000000E+00 0.  1.
<scales pt_clust_5="13000.00000" pt_clust_6="13000.00000" pt_clust_7="13000.00000" pt_clust_8="13000.00000" pt_clust_9="37.75232"></scales>
<clustering>
<clus scale="   37.752">  2  9  1 -1</clus>
<clus scale="   91.120">  5  6 -1 -1</clus>
<clus scale="   91.441">  7  8 -1 -1</clus>
<clus scale="   95.969">  2  5  1 -1</clus>
<clus scale="   37.752">  2  5  1 -1</clus>
</clustering>
</event>
<event>
 9    1  0.1399746E-005  0.9480453E+02  0.7546771E-02  0.1292843E+00
         21   -1    0    0  501  502  0.00000000000E+00  0.00000000000E+00  0.96649827194E+02  0.96649827194E+02  0.00000000000E+00 0. -1.
          2   -1    0    0  502    0 -0.00000000000E+00 -0.00000000000E+00 -0.32934645361E+03  0.32934645361E+03  0.00000000000E+00 0. -1.
         23    2    1    2    0    0  0.12181337493E+02 -0.15937290149E+02 -0.25411789938E+03  0.27130676382E+03  0.92892793651E+02 0.  0.
         23    2    1    2    0    0 -0.22609958001E+02 -0.13639745696E+01 -0.31012597845E+02  0.98498764232E+02  0.90703664219E+02 0.  0.
        -11    1    3    3    0    0  0.43929883670E+02 -0.12644132996E+02 -0.64709336878E+02  0.79227565012E+02  0.00000000000E+00 0.  1.
         11    1    3    3    0    0 -0.31748546177E+02 -0.32931571532E+01 -0.18940856250E+03  0.19207919881E+03  0.00000000000E+00 0. -1.
        -13    1    4    4    0    0 -0.37780665297E+02  0.29841000904E+02  0.51061100665E+01  0.48414216562E+02  0.00000000000E+00 0. -1.
         13    1    4    4    0    0  0.15170707297E+02 -0.31204975474E+02 -0.36118707911E+02  0.50084547671E+02  0.00000000000E+00 0.  1.
          2    1    1    2  501    0  0.10428620508E+02  0.17301264719E+02  0.52433870807E+02  0.56190752747E+02  0.00000000000E+00 0. -1.
<scales pt_clust_5="13000.00000" pt_clust_6="13000.00000" pt_clust_7="13000.00000" pt_clust_8="13000.00000" pt_clust_9="20.20123"></scales>
<clustering>
<clus scale="   20.201">  1  9  2 -1</clus>
<clus scale="   90.704">  7  8 -1 -1</clus>
<clus scale="   92.661">  1  7  2 -1</clus>
<clus scale="   92.893">  5  6 -1 -1</clus>
<clus scale="   20.201">  1  5  2 -1</clus>
</clustering>
</event>
<event>
 9    1  0.1399746E-005  0.1137113E+03  0.7546771E-02  0.1253924E+00
         21   -1    0    0  501  502  0.00000000000E+00  0.00000000000E+00  0.40019772772E+03  0.40019772772E+03  0.00000000000E+00 0.  1.
          1   -1    0    0  502    0 -0.00000000000E+00 -0.00000000000E+00 -0.55167007779E+02  0.55167007779E+02  0.00000000000E+00 0. -1.
         23    2    1    2    0    0  0.61556693766E+02 -0.34238217489E+02  0.84133219153E+02  0.14308615814E+03  0.91835548676E+02 0.  0.
         23    2    1    2    0    0 -0.30762311278E+02  0.61839133760E+02  0.12356268416E+03  0.16885279018E+03  0.92049603883E+02 0.  0.
        -11    1    4    4    0    0  0.20714378663E+02  0.78181316910E+01  0.78767031572E+02  0.81819642686E+02  0.00000000000E+00 0.  1.
         11    1    4    4    0    0 -0.51476689941E+02  0.54021002069E+02  0.44795652591E+02  0.87033147495E+02  0.00000000000E+00 0. -1.
        -11    1    3    3    0    0  0.27548500593E+02 -0.62781856094E+02  0.35398488271E+02  0.77159149240E+02  0.00000000000E+00 0.  1.
         11    1    3    3    0    0  0.34008193173E+02  0.28543638605E+02  0.48734730882E+02  0.65927008895E+02  0.00000000000E+00 0. -1.
          1    1    1    2  501    0 -0.30794382488E+02 -0.27600916271E+02  0.13733481662E+03  0.14342578718E+03  0.00000000000E+00 0. -1.
<scales pt_clust_5="13000.00000" pt_clust_6="13000.00000" pt_clust_7="13000.00000" pt_clust_8="13000.00000" pt_clust_9="41.35341"></scales>
<clustering>
<clus scale="   41.353">  1  9  2 -1</clus>
<clus scale="   91.836">  7  8 -1 -1</clus>
<clus scale="   92.050">  5  6 -1 -1</clus>
<clus scale="  113.538">  2  7  1 -1</clus>
<clus scale="   41.353">  1  5  2 -1</clus>
</clustering>
</event>
<event>
 9    1  0.1399746E-005  0.9091707E+02  0.7546771E-02  0.1300840E+00
         21   -1    0    0  501  502  0.00000000000E+00  0.00000000000E+00  0.94930741923E+02  0.94930741923E+02  0.00000000000E+00 0. -1.
          2   -1    0    0  502    0 -0.00000000000E+00 -0.00000000000E+00 -0.16819098714E+03  0.16819098714E+03  0.00000000000E+00 0. -1.
         23    2    1    2    0    0 -0.23256481570E+02 -0.30406877579E+01 -0.10135525148E+03  0.13703927462E+03  0.89200706668E+02 0.  0.
         23    2    1    2    0    0 -0.89658418174E+01 -0.24688375489E+01  0.23853299239E+02  0.93118457841E+02  0.89529804131E+02 0.  0.
        -11    1    3    3    0    0  0.19028452004E+02 -0.34474093842E+02 -0.39294926697E+02  0.55629456190E+02  0.00000000000E+00 0.  1.
         11    1    3    3    0    0 -0.42284933574E+02  0.31433406084E+02 -0.62060324782E+02  0.81409818434E+02  0.00000000000E+00 0. -1.
        -11    1    4    4    0    0  0.38950946288E+02  0.61493274478E+01  0.12796579050E+01  0.39454124869E+02  0.00000000000E+00 0.  1.
         11    1    4    4    0    0 -0.47916788105E+02 -0.86181649967E+01  0.22573641334E+02  0.53664332972E+02  0.00000000000E+00 0. -1.
          2    1    1    2  501    0  0.32222323387E+02  0.55095253068E+01  0.42417070181E+01  0.32963996602E+02  0.00000000000E+00 0. -1.
<scales pt_clust_5="13000.00000" pt_clust_6="13000.00000" pt_clust_7="13000.00000" pt_clust_8="13000.00000" pt_clust_9="32.68995"></scales>
<clustering>
<clus scale="   32.690">  1  9  2 -1</clus>
<clus scale="   89.201">  5  6 -1 -1</clus>
<clus scale="   89.530">  7  8 -1 -1</clus>
<clus scale="   90.593">  2  5  1 -1</clus>
<clus scale="   32.690">  1  5  2 -1</clus>
</clustering>
</event>
<event>
 9    1  0.1399746E-005  0.9456582E+02  0.7546771E-02  0.1293860E+00
         -1   -1    0    0    0  501 -0.00000000000E+00  0.00000000000E+00  0.47485602446E+03  0.47485602446E+03  0.00000000000E+00 0.  1.
         21   -1    0    0  501  502  0.00000000000E+00 -0.00000000000E+00 -0.28812356072E+03  0.28812356072E+03  0.00000000000E+00 0.  1.
         23    2    1    2    0    0 -0.20344238642E+02  0.20877342133E+02  0.33923904605E+03  0.35266658639E+03  0.91874040556E+02 0.  0.
         23    2    1    2    0    0 -0.11890163321E+02 -0.16397153401E+02  0.11167978671E+03  0.14412966659E+03  0.88829856523E+02 0.  0.
        -13    1    4    4    0    0  0.31393694593E+02  0.11684388156E+02  0.70721901705E+02  0.78253922378E+02  0.00000000000E+00 0.  1.
         13    1    4    4    0    0 -0.43283857914E+02 -0.28081541556E+02  0.40957885002E+02  0.65875744215E+02  0.00000000000E+00 0. -1.
        -13    1    3    3    0    0  0.15568609512E+02 -0.30173052635E+02  0.11628926238E+03  0.12114448915E+03  0.00000000000E+00 0.  1.
         13    1    3    3    0    0 -0.35912848155E+02  0.51050394768E+02  0.22294978368E+03  0.23152209724E+03  0.00000000000E+00 0. -1.
         -1    1    1    2    0  502  0.32234401963E+02 -0.44801887325E+01 -0.26418636902E+03  0.26618333219E+03  0.00000000000E+00 0.  1.
<scales pt_clust_5="13000.00000" pt_clust_6="13000.00000" pt_clust_7="13000.00000" pt_clust_8="13000.00000" pt_clust_9="32.54426"></scales>
<clustering>
<clus scale="   32.544">  2  9  1 -1</clus>
<clus scale="   88.830">  5  6 -1 -1</clus>
<clus scale="   91.611">  2  5  1 -1</clus>
<clus scale="   91.874">  7  8 -1 -1</clus>
<clus scale="   32.544">  2  5  1 -1</clus>
</clustering>
</event>
<event>
 9    1  0.1399746E-005  0.1083255E+03  0.7546771E-02  0.1264230E+00
          1   -1    0    0  502    0 -0.00000000000E+00  0.00000000000E+00  0.17015714283E+03  0.17015714283E+03  0.00000000000E+00 0. -1.
         21   -1    0    0  501  502  0.00000000000E+00 -0.00000000000E+00 -0.69448445545E+03  0.69448445545E+03  0.00000000000E+00 0. -1.
         23    2    1    2    0    0 -0.26617058028E+02 -0.50928450318E+02  0.14088357146E+03  0.17742364754E+03  0.91262232970E+02 0.  0.
         23    2    1    2    0    0  0.66574896166E+02  0.52610462590E+02 -0.39044694346E+03  0.40955866121E+03  0.89941112662E+02 0.  0.
        -13    1    4    4    0    0  0.26914835416E+02  0.64665195206E+02 -0.32207030412E+03  0.32959865993E+03  0.00000000000E+00 0.  1.
         13    1    4    4    0    0  0.39660060750E+02 -0.12054732616E+02 -0.68376639340E+02  0.79960001279E+02  0.00000000000E+00 0. -1.
        -13    1    3    3    0    0 -0.53617692651E+02 -0.36638766451E+02  0.51250364051E+02  0.82727601123E+02  0.00000000000E+00 0. -1.
         13    1    3    3    0    0  0.27000634623E+02 -0.14289683867E+02  0.89633207413E+02  0.94696046413E+02  0.00000000000E+00 0.  1.
          1    1    1    2  501    0 -0.39957838139E+02 -0.16820122722E+01 -0.27476394063E+03  0.27765928953E+03  0.00000000000E+00 0. -1.
<scales pt_clust_5="13000.00000" pt_clust_6="13000.00000" pt_clust_7="13000.00000" pt_clust_8="13000.00000" pt_clust_9="39.99322"></scales>
<clustering>
<clus scale="   39.993">  2  9  1 -1</clus>
<clus scale="   89.941">  5  6 -1 -1</clus>
<clus scale="   91.262">  7  8 -1 -1</clus>
<clus scale="  107.215">  2  5  1 -1</clus>
<clus scale="   39.993">  2  5  1 -1</clus>
</clustering>
</event>
<event>
 9    1  0.1399746E-005  0.9536257E+02  0.7546771E-02  0.1292761E+00
         21   -1    0    0  501  502  0.00000000000E+00  0.00000000000E+00  0.76271557907E+02  0.76271557907E+02  0.00000000000E+00 0.  1.
         -1   -1    0    0    0  501 -0.00000000000E+00 -0.00000000000E+00 -0.38642382902E+03  0.38642382902E+03  0.00000000000E+00 0.  1.
         23    2    1    2    0    0 -0.23300466739E+02  0.20792846078E+02 -0.26711200897E+03  0.28254213203E+03  0.86637040816E+02 0.  0.
         23    2    1    2    0    0  0.37236128528E+02  0.25047205717E+02 -0.71758649940E+02  0.12429397801E+03  0.91026355224E+02 0.  0.
        -11    1    3    3    0    0 -0.57862397869E+01 -0.34018918687E+02 -0.10440119002E+03  0.10995624529E+03  0.00000000000E+00 0. -1.
         11    1    3    3    0    0 -0.17514226952E+02  0.54811764765E+02 -0.16271081894E+03  0.17258588674E+03  0.00000000000E+00 0.  1.
        -13    1    4    4    0    0  0.58006747876E+02  0.16946920674E+02 -0.13508241263E+02  0.61922964250E+02  0.00000000000E+00 0.  1.
         13    1    4    4    0    0 -0.20770619348E+02  0.81002850433E+01 -0.58250408677E+02  0.62371013756E+02  0.00000000000E+00 0. -1.
         -1    1    1    2    0  502 -0.13935661788E+02 -0.45840051795E+02  0.28718387788E+02  0.55859276894E+02  0.00000000000E+00 0.  1.
<scales pt_clust_5="13000.00000" pt_clust_6="13000.00000" pt_clust_7="13000.00000" pt_clust_8="13000.00000" pt_clust_9="47.91151"></scales>
<clustering>
<clus scale="   47.912">  1  9  2 -1</clus>
<clus scale="   86.637">  5  6 -1 -1</clus>
<clus scale="   91.026">  7  8 -1 -1</clus>
<clus scale="   91.182">  2  5  1 -1</clus>
<clus scale="   47.912">  1  5  2 -1</clus>
</clustering>
</event>
<event>
 9    1  0.1399746E-005  0.9493122E+02  0.7546771E-02  0.1291475E+00
         21   -1    0    0  501  502  0.00000000000E+00  0.00000000000E+00  0.52210325802E+03  0.52210325802E+03  0.00000000000E+00 0. -1.
         -4   -1    0    0    0  501 -0.00000000000E+00 -0.00000000000E+00 -0.40471300515E+02  0.40471300515E+02  0.00000000000E+00 0.  1.
         23    2    1    2    0    0 -0.37712328492E+02 -0.48026209834E+01  0.66534897704E+02  0.11832155852E+03  0.90154388182E+02 0.  0.
         23    2    1    2    0    0  0.52828980614E+01 -0.41568336068E+02  0.22441057320E+03  0.24534782214E+03  0.89886666914E+02 0.  0.
        -11    1    4    4    0    0  0.37215308776E+02 -0.74066572074E+01  0.40139803212E+02  0.55236234305E+02  0.00000000000E+00 0.  1.
         11    1    4    4    0    0 -0.31932410715E+02 -0.34161678860E+02  0.18427076999E+03  0.19011158784E+03  0.00000000000E+00 0. -1.
        -13    1    3    3    0    0 -0.62276671233E+02 -0.21087917194E+02  0.32642956968E+02  0.73407402019E+02  0.00000000000E+00 0. -1.
         13    1    3    3    0    0  0.24564342741E+02  0.16285296211E+02  0.33891940735E+02  0.44914156497E+02  0.00000000000E+00 0.  1.
         -4    1    1    2    0  502  0.32429430430E+02  0.46370957051E+02  0.19068648660E+03  0.19890517788E+03  0.00000000000E+00 0.  1.
<scales pt_clust_5="13000.00000" pt_clust_6="13000.00000" pt_clust_7="13000.00000" pt_clust_8="13000.00000" pt_clust_9="56.58563"></scales>
<clustering>
<clus scale="   56.586">  1  9  2 -1</clus>
<clus scale="   89.887">  5  6 -1 -1</clus>
<clus scale="   90.154">  7  8 -1 -1</clus>
<clus scale="   94.677">  1  5  2 -1</clus>
<clus scale="   56.586">  1  5  2 -1</clus>
</clustering>
</event>
<event>
 9    1  0.1399746E-005  0.1031122E+03  0.7546771E-02  0.1275138E+00
         21   -1    0    0  501  502  0.00000000000E+00  0.00000000000E+00  0.11218259102E+03  0.11218259102E+03  0.00000000000E+00 0.  1.
          1   -1    0    0  502    0 -0.00000000000E+00 -0.00000000000E+00 -0.18905163395E+03  0.18905163395E+03  0.00000000000E+00 0. -1.
         23    2    1    2    0    0  0.35427921517E+01  0.39073763925E+02 -0.10900064283E+03  0.14869084824E+03  0.93212219203E+02 0.  0.
         23    2    1    2    0    0 -0.30684131242E+02 -0.53091408420E+02  0.15562874981E+01  0.10932305312E+03  0.90492509932E+02 0.  0.
        -11    1    4    4    0    0  0.29814143836E+02 -0.33106257153E+02 -0.67834798171E+01  0.45065763433E+02  0.00000000000E+00 0.  1.
         11    1    4    4    0    0 -0.60498275078E+02 -0.19985151266E+02  0.83397673153E+01  0.64257289683E+02  0.00000000000E+00 0. -1.
        -11    1    3    3    0    0 -0.34520545960E+02  0.31383247654E+02 -0.97667729090E+02  0.10823844803E+03  0.00000000000E+00 0. -1.
         11    1    3    3    0    0  0.38063338112E+02  0.76905162711E+01 -0.11332913743E+02  0.40452400208E+02  0.00000000000E+00 0.  1.
          1    1    1    2  501    0  0.27141339091E+02  0.14017644495E+02  0.30575312398E+02  0.43220323611E+02  0.00000000000E+00 0. -1.
<scales pt_clust_5="13000.00000" pt_clust_6="13000.00000" pt_clust_7="13000.00000" pt_clust_8="13000.00000" pt_clust_9="30.54745"></scales>
<clustering>
<clus scale="   30.547">  1  9  2 -1</clus>
<clus scale="   90.493">  5  6 -1 -1</clus>
<clus scale="   93.212">  7  8 -1 -1</clus>
<clus scale="  100.660">  1  5  2 -1</clus>
<clus scale="   30.547">  1  5  2 -1</clus>
</clustering>
</event>
<event>
 9    1  0.1399746E-005  0.1774868E+03  0.7546771E-02  0.1193630E+00
         -3   -1    0    0    0  501 -0.00000000000E+00  0.00000000000E+00  0.15927052436E+03  0.15927052436E+03  0.00000000000E+00 0.  1.
         21   -1    0    0  501  502  0.00000000000E+00 -0.00000000000E+00 -0.10388801278E+04  0.10388801278E+04  0.00000000000E+00 0.  1.
         23    2    1    2    0    0 -0.17975080660E+02 -0.47379250570E+02 -0.11767542802E+02  0.10578862382E+03  0.92113304997E+02 0.  0.
         23    2    1    2    0    0  0.15451872427E+03  0.10838946979E+03  0.16425039165E+01  0.21010933129E+03  0.92297995454E+02 0.  0.
        -13    1    4    4    0    0  0.42865823599E+02  0.84581879340E+02 -0.10022023970E+02  0.95352053518E+02  0.00000000000E+00 0.  1.
         13    1    4    4    0    0  0.11165290067E+03  0.23807590451E+02  0.11664527887E+02  0.11475727777E+03  0.00000000000E+00 0. -1.
        -13    1    3    3    0    0 -0.39231059770E+02  0.12772851158E+02 -0.26484090805E+01  0.41342905656E+02  0.00000000000E+00 0. -1.
         13    1    3    3    0    0  0.21255979110E+02 -0.60152101728E+02 -0.91191337216E+01  0.64445718167E+02  0.00000000000E+00 0.  1.
         -3    1    1    2    0  502 -0.13654364361E+03 -0.61010219221E+02 -0.86948456451E+03  0.88225269701E+03  0.00000000000E+00 0.  1.
<scales pt_clust_5="13000.00000" pt_clust_6="13000.00000" pt_clust_7="13000.00000" pt_clust_8="13000.00000" pt_clust_9="151.60028"></scales>
<clustering>
<clus scale="   92.113">  7  8 -1 -1</clus>
<clus scale="   92.298">  5  6 -1 -1</clus>
<clus scale="  105.132">  1  7  2 -1</clus>
<clus scale="  151.600">  2  9  1 -1</clus>
<clus scale="  151.600">  2  5  1 -1</clus>
</clustering>
</event>
<event>
 9    1  0.1399746E-005  0.9679625E+02  0.7546771E-02  0.1287345E+00
          2   -1    0    0  502    0 -0.00000000000E+00  0.00000000000E+00  0.34897030738E+03  0.34897030738E+03  0.00000000000E+00 0. -1.
         21   -1    0    0  501  502  0.00000000000E+00 -0.00000000000E+00 -0.70989694814E+02  0.70989694814E+02  0.00000000000E+00 0. -1.
         23    2    1    2    0    0  0.77543846910E+01 -0.26312023689E+02  0.23268274294E+03  0.25190275452E+03  0.92527216539E+02 0.  0.
         23    2    1    2    0    0 -0.27471721177E+02  0.21884234627E+02  0.80579785210E+02  0.12739778087E+03  0.92214302553E+02 0.  0.
        -13    1    4    4    0    0  0.18978103814E+02  0.37636131308E+02  0.13421337046E+02  0.44235495841E+02  0.00000000000E+00 0. -1.
         13    1    4    4    0    0 -0.46449824991E+02 -0.15751896681E+02  0.67158448164E+02  0.83162285025E+02  0.00000000000E+00 0.  1.
        -13    1    3    3    0    0 -0.28760154045E+02 -0.74581017041E+01  0.21287898219E+02  0.36550572530E+02  0.00000000000E+00 0.  1.
         13    1    3    3    0    0  0.36514538736E+02 -0.18853921985E+02  0.21139484472E+03  0.21535218199E+03  0.00000000000E+00 0. -1.
          2    1    1    2  501    0  0.19717336486E+02  0.44277890624E+01 -0.35281915582E+02  0.40659466809E+02  0.00000000000E+00 0. -1.
<scales pt_clust_5="13000.00000" pt_clust_6="13000.00000" pt_clust_7="13000.00000" pt_clust_8="13000.00000" pt_clust_9="20.20838"></scales>
<clustering>
<clus scale="   20.208">  2  9  1 -1</clus>
<clus scale="   92.214">  5  6 -1 -1</clus>
<clus scale="   92.527">  7  8 -1 -1</clus>
<clus scale="   96.497">  2  5  1 -1</clus>
<clus scale="   20.208">  2  5  1 -1</clus>
</clustering>
</event>
<event>
 9    1  0.1399746E-005  0.9796197E+02  0.7546771E-02  0.1287127E+00
         21   -1    0    0  501  502  0.00000000000E+00  0.00000000000E+00  0.29175823047E+02  0.29175823047E+02  0.00000000000E+00 0. -1.
          2   -1    0    0  502    0 -0.00000000000E+00 -0.00000000000E+00 -0.57724461958E+03  0.57724461958E+03  0.00000000000E+00 0. -1.
         23    2    1    2    0    0 -0.55478702488E+02  0.83056665259E+01 -0.27030211639E+03  0.28995028371E+03  0.88662632313E+02 0.  0.
         23    2    1    2    0    0 -0.51947725531E+00  0.60797112115E+01 -0.18056024660E+03  0.20336920425E+03  0.93379857774E+02 0.  0.
        -11    1    3    3    0    0 -0.32271705246E+01  0.30500403347E+02 -0.18473389690E+03  0.18726265484E+03  0.00000000000E+00 0.  1.
         11    1    3    3    0    0 -0.52251531964E+02 -0.22194736821E+02 -0.85568219498E+02  0.10268762887E+03  0.00000000000E+00 0. -1.
        -13    1    4    4    0    0  0.35146872032E+02 -0.23937548135E+02 -0.11743258449E+03  0.12489483866E+03  0.00000000000E+00 0.  1.
         13    1    4    4    0    0 -0.35666349287E+02  0.30017259346E+02 -0.63127662110E+02  0.78474365582E+02  0.00000000000E+00 0. -1.
          2    1    1    2  501    0  0.55998179744E+02 -0.14385377737E+02 -0.97206433537E+02  0.11310095467E+03  0.00000000000E+00 0. -1.
<scales pt_clust_5="13000.00000" pt_clust_6="13000.00000" pt_clust_7="13000.00000" pt_clust_8="13000.00000" pt_clust_9="57.81639"></scales>
<clustering>
<clus scale="   57.816">  1  9  2 -1</clus>
<clus scale="   88.663">  5  6 -1 -1</clus>
<clus scale="   93.380">  7  8 -1 -1</clus>
<clus scale="   93.476">  2  5  1 -1</clus>
<clus scale="   57.816">  1  5  2 -1</clus>
</clustering>
</event>
<event>
 9    1  0.1399746E-005  0.9998341E+02  0.7546771E-02  0.1281346E+00
          1   -1    0    0  502    0 -0.00000000000E+00  0.00000000000E+00  0.73017309734E+03  0.73017309734E+03  0.00000000000E+00 0. -1.
         21   -1    0    0  501  502  0.00000000000E+00 -0.00000000000E+00 -0.49749257256E+02  0.49749257256E+02  0.00000000000E+00 0.  1.
         23    2    1    2    0    0 -0.21648282933E+02 -0.19449810138E+02  0.47412610877E+03  0.48357724150E+03  0.90578354010E+02 0.  0.
         23    2    1    2    0    0  0.32881651200E+02  0.52701325345E+02  0.22887846526E+03  0.25461093799E+03  0.92643106636E+02 0.  0.
        -11    1    4    4    0    0  0.32928709566E+02  0.74823575883E+02  0.13220176220E+03  0.15543543145E+03  0.00000000000E+00 0.  1.
         11    1    4    4    0    0 -0.47058366060E-01 -0.22122250537E+02  0.96676703060E+02  0.99175506542E+02  0.00000000000E+00 0. -1.
        -11    1    3    3    0    0  0.31911766875E+02 -0.25819030585E+02  0.21856932926E+03  0.22239050092E+03  0.00000000000E+00 0. -1.
         11    1    3    3    0    0 -0.53560049808E+02  0.63692204469E+01  0.25555677951E+03  0.26118674059E+03  0.00000000000E+00 0.  1.
          1    1    1    2  501    0 -0.11233368267E+02 -0.33251515208E+02 -0.22580733941E+02  0.41734175103E+02  0.00000000000E+00 0. -1.
<scales pt_clust_5="13000.00000" pt_clust_6="13000.00000" pt_clust_7="13000.00000" pt_clust_8="13000.00000" pt_clust_9="35.09775"></scales>
<clustering>
<clus scale="   35.098">  2  9  1 -1</clus>
<clus scale="   90.578">  7  8 -1 -1</clus>
<clus scale="   92.643">  5  6 -1 -1</clus>
<clus scale="   98.073">  1  7  2 -1</clus>
<clus scale="   35.098">  2  5  1 -1</clus>
</clustering>
</event>
<event>
 9    1  0.1399746E-005  0.1028955E+03  0.7546771E-02  0.1276126E+00
          1   -1    0    0  502    0 -0.00000000000E+00  0.00000000000E+00  0.37444790813E+03  0.37444790813E+03  0.00000000000E+00 0. -1.
         21   -1    0    0  501  502  0.00000000000E+00 -0.00000000000E+00 -0.87716395822E+02  0.87716395822E+02  0.00000000000E+00 0.  1.
         23    2    1    2    0    0 -0.31859293553E+02 -0.23812707124E+02  0.30649925984E+03  0.32224722237E+03  0.91210835071E+02 0.  0.
         23    2    1    2    0    0  0.99838414461E+01  0.46605783502E+02 -0.20781222947E+02  0.10830874616E+03  0.95011310499E+02 0.  0.
        -11    1    3    3    0    0 -0.16505071610E+02  0.32479306390E+02  0.73242462858E+02  0.81803307378E+02  0.00000000000E+00 0. -1.
         11    1    3    3    0    0 -0.15354221943E+02 -0.56292013514E+02  0.23325679698E+03  0.24044391499E+03  0.00000000000E+00 0.  1.
        -13    1    4    4    0    0  0.59693667963E+01 -0.27009550987E+02  0.85665505889E+01  0.28957468354E+02  0.00000000000E+00 0.  1.
         13    1    4    4    0    0  0.40144746498E+01  0.73615334489E+02 -0.29347773536E+02  0.79351277811E+02  0.00000000000E+00 0. -1.
          1    1    1    2  501    0  0.21875452107E+02 -0.22793076379E+02  0.10134754154E+01  0.31608335421E+02  0.00000000000E+00 0. -1.
<scales pt_clust_5="13000.00000" pt_clust_6="13000.00000" pt_clust_7="13000.00000" pt_clust_8="13000.00000" pt_clust_9="31.59208"></scales>
<clustering>
<clus scale="   31.592">  2  9  1 -1</clus>
<clus scale="   91.211">  5  6 -1 -1</clus>
<clus scale="   95.011">  7  8 -1 -1</clus>
<clus scale="   99.397">  1  5  2 -1</clus>
<clus scale="   31.592">  2  5  1 -1</clus>
</clustering>
</event>
<event>
 9    1  0.1399746E-005  0.9271727E+02  0.7546771E-02  0.1296603E+00
          1   -1    0    0  502    0 -0.00000000000E+00  0.00000000000E+00  0.20406647160E+03  0.20406647160E+03  0.00000000000E+00 0. -1.
         21   -1    0    0  501  502  0.00000000000E+00 -0.00000000000E+00 -0.84960493777E+02  0.84960493777E+02  0.00000000000E+00 0.  1.
         23    2    1    2    0    0  0.88540306719E+01 -0.63039153221E+01  0.10716141509E+03  0.14136645864E+03  0.91557487610E+02 0.  0.
         23    2    1    2    0    0  0.10565477926E+02  0.22246083552E+02  0.45721008862E+02  0.10556397060E+03  0.91906603029E+02 0.  0.
        -11    1    4    4    0    0  0.19635383474E+02 -0.33381481521E+02  0.20448741387E+02  0.43795235095E+02  0.00000000000E+00 0.  1.
         11    1    4    4    0    0 -0.90699055483E+01  0.55627565073E+02  0.25272267476E+02  0.61768735505E+02  0.00000000000E+00 0. -1.
        -13    1    3    3    0    0 -0.25239825821E+02 -0.16089666224E+02  0.10102907533E+03  0.10536982599E+03  0.00000000000E+00 0. -1.
         13    1    3    3    0    0  0.34093856493E+02  0.97857509020E+01  0.61323397543E+01  0.35996632650E+02  0.00000000000E+00 0.  1.
          1    1    1    2  501    0 -0.19419508598E+02 -0.15942168230E+02 -0.33776446124E+02  0.42096536138E+02  0.00000000000E+00 0. -1.
<scales pt_clust_5="13000.00000" pt_clust_6="13000.00000" pt_clust_7="13000.00000" pt_clust_8="13000.00000" pt_clust_9="25.12509"></scales>
<clustering>
<clus scale="   25.125">  2  9  1 -1</clus>
<clus scale="   91.557">  7  8 -1 -1</clus>
<clus scale="   91.907">  5  6 -1 -1</clus>
<clus scale="   92.371">  1  7  2 -1</clus>
<clus scale="   25.125">  2  5  1 -1</clus>
</clustering>
</event>
<event>
 9    1  0.1399746E-005  0.2982446E+03  0.7546771E-02  0.1086213E+00
         21   -1    0    0  501  502  0.00000000000E+00  0.00000000000E+00  0.95140089024E+02  0.95140089024E+02  0.00000000000E+00 0.  1.
          1   -1    0    0  502    0 -0.00000000000E+00 -0.00000000000E+00 -0.10609686043E+04  0.10609686043E+04  0.00000000000E+00 0. -1.
         23    2    1    2    0    0  0.27419040320E+03  0.11116476168E+03 -0.52922860089E+03  0.61300793563E+03  0.90320737925E+02 0.  0.
         23    2    1    2    0    0 -0.25301902231E+03 -0.96269780297E+02 -0.42979852393E+03  0.51633610278E+03  0.92680653956E+02 0.  0.
        -11    1    4    4    0    0 -0.21771390143E+03 -0.75789799459E+02 -0.41135592182E+03  0.47154759144E+03  0.00000000000E+00 0. -1.
         11    1    4    4    0    0 -0.35305120883E+02 -0.20479980839E+02 -0.18442602105E+02  0.44788511341E+02  0.00000000000E+00 0.  1.
        -13    1    3    3    0    0  0.17057449519E+03  0.53249481589E+02 -0.23117609004E+03  0.29218752593E+03  0.00000000000E+00 0.  1.
         13    1    3    3    0    0  0.10361590801E+03  0.57915280087E+02 -0.29805251085E+03  0.32082040970E+03  0.00000000000E+00 0. -1.
          1    1    1    2  501    0 -0.21171380889E+02 -0.14894981379E+02 -0.68013904285E+01  0.26764654879E+02  0.00000000000E+00 0. -1.
<scales pt_clust_5="13000.00000" pt_clust_6="13000.00000" pt_clust_7="13000.00000" pt_clust_8="13000.00000" pt_clust_9="25.88605"></scales>
<clustering>
<clus scale="   25.886">  1  9  2 -1</clus>
<clus scale="   90.321">  7  8 -1 -1</clus>
<clus scale="   92.681">  5  6 -1 -1</clus>
<clus scale="  297.520">  2  7  1 -1</clus>
<clus scale="   25.886">  1  5  2 -1</clus>
</clustering>
</event>
<event>
 9    1  0.1399746E-005  0.1559297E+03  0.7546771E-02  0.1193512E+00
          2   -1    0    0  502    0 -0.00000000000E+00  0.00000000000E+00  0.48329526113E+03  0.48329526113E+03  0.00000000000E+00 0. -1.
         21   -1    0    0  501  502  0.00000000000E+00 -0.00000000000E+00 -0.10341089614E+03  0.10341089614E+03  0.00000000000E+00 0.  1.
         23    2    1    2    0    0  0.44842414627E+02  0.11756686373E+03  0.33214772737E+03  0.36621880740E+03  0.89226075209E+02 0.  0.
         23    2    1    2    0    0 -0.91673274149E+02 -0.10836275763E+03  0.42162115052E+02  0.17243612435E+03  0.88374750916E+02 0.  0.
        -11    1    3    3    0    0  0.44542461705E+01  0.10953450910E+03  0.27262438769E+03  0.29383959188E+03  0.00000000000E+00 0. -1.
         11    1    3    3    0    0  0.40388168456E+02  0.80323546276E+01  0.59523339684E+02  0.72379215520E+02  0.00000000000E+00 0.  1.
        -13    1    4    4    0    0 -0.70721557515E+02 -0.18487324315E+02  0.60892084244E+01  0.73351198470E+02  0.00000000000E+00 0. -1.
         13    1    4    4    0    0 -0.20951716633E+02 -0.89875433314E+02  0.36072906627E+02  0.99084925876E+02  0.00000000000E+00 0.  1.
          2    1    1    2  501    0  0.46830859522E+02 -0.92041060996E+01  0.55745225645E+01  0.48051225525E+02  0.00000000000E+00 0. -1.
<scales pt_clust_5="13000.00000" pt_clust_6="13000.00000" pt_clust_7="13000.00000" pt_clust_8="13000.00000" pt_clust_9="47.72677"></scales>
<clustering>
<clus scale="   47.727">  2  9  1 -1</clus>
<clus scale="   88.375">  7  8 -1 -1</clus>
<clus scale="   89.226">  5  6 -1 -1</clus>
<clus scale="  155.444">  2  7  1 -1</clus>
<clus scale="   47.727">  2  5  1 -1</clus>
</clustering>
</event>
<event>
 9    1  0.1399746E-005  0.1039828E+03  0.7546771E-02  0.1277623E+00
         21   -1    0    0  501  502  0.00000000000E+00  0.00000000000E+00  0.37097440893E+02  0.37097440893E+02  0.00000000000E+00 0. -1.
          2   -1    0    0  502    0 -0.00000000000E+00 -0.00000000000E+00 -0.65562771155E+03  0.65562771155E+03  0.00000000000E+00 0. -1.
         23    2    1    2    0    0  0.42022743063E+01 -0.20153429863E+02 -0.32747621227E+03  0.34033473637E+03  0.90350668678E+02 0.  0.
         23    2    1    2    0    0  0.18919457667E+02  0.28989195384E+02 -0.30556082156E+03  0.32370014908E+03  0.10107448498E+03 0.  0.
        -11    1    4    4    0    0  0.50456837426E+02  0.20675873084E+02 -0.26998584328E+03  0.27543736083E+03  0.00000000000E+00 0. -1.
         11    1    4    4    0    0 -0.31537379759E+02  0.83133222999E+01 -0.35574978289E+02  0.48262788253E+02  0.00000000000E+00 0.  1.
        -13    1    3    3    0    0  0.34648724314E+02 -0.34619757252E+02 -0.26357884957E+03  0.26809116291E+03  0.00000000000E+00 0.  1.
         13    1    3    3    0    0 -0.30446450008E+02  0.14466327389E+02 -0.63897362708E+02  0.72243573466E+02  0.00000000000E+00 0. -1.
          2    1    1    2  501    0 -0.23121731973E+02 -0.88357655212E+01  0.14506763183E+02  0.28690266988E+02  0.00000000000E+00 0. -1.
<scales pt_clust_5="13000.00000" pt_clust_6="13000.00000" pt_clust_7="13000.00000" pt_clust_8="13000.00000" pt_clust_9="24.75248"></scales>
<clustering>
<clus scale="   24.752">  1  9  2 -1</clus>
<clus scale="   90.351">  7  8 -1 -1</clus>
<clus scale="   93.593">  2  7  1 -1</clus>
<clus scale="  101.074">  5  6 -1 -1</clus>
<clus scale="   24.752">  1  5  2 -1</clus>
</clustering>
</event>
<event>
 9    1  0.1399746E-005  0.1097109E+03  0.7546771E-02  0.1264013E+00
          1   -1    0    0  502    0 -0.00000000000E+00  0.00000000000E+00  0.26832615794E+03  0.26832615794E+03  0.00000000000E+00 0. -1.
         21   -1    0    0  501  502  0.00000000000E+00 -0.00000000000E+00 -0.69122891865E+02  0.69122891865E+02  0.00000000000E+00 0. -1.
         23    2    1    2    0    0  0.39928190221E+02 -0.24709682585E+02  0.10689089516E+03  0.14419882197E+03  0.84633374044E+02 0.  0.
         23    2    1    2    0    0 -0.57118501436E+02  0.64100927390E+02  0.77616691576E+02  0.14782842736E+03  0.91964346497E+02 0.  0.
        -11    1    3    3    0    0  0.21298172374E+02 -0.51290851439E+02  0.94187309716E+02  0.10934172534E+03  0.00000000000E+00 0.  1.
         11    1    3    3    0    0  0.18630017847E+02  0.26581168854E+02  0.12703585440E+02  0.34857096633E+02  0.00000000000E+00 0. -1.
        -13    1    4    4    0    0 -0.80220513887E+02  0.46884180969E+02  0.74014613743E+02  0.11879234117E+03  0.00000000000E+00 0. -1.
         13    1    4    4    0    0  0.23102012450E+02  0.17216746422E+02  0.36020778329E+01  0.29036086192E+02  0.00000000000E+00 0.  1.
          1    1    1    2  501    0  0.17190311215E+02 -0.39391244806E+02  0.14695679343E+02  0.45421800475E+02  0.00000000000E+00 0. -1.
<scales pt_clust_5="13000.00000" pt_clust_6="13000.00000" pt_clust_7="13000.00000" pt_clust_8="13000.00000" pt_clust_9="42.97880"></scales>
<clustering>
<clus scale="   42.979">  2  9  1 -1</clus>
<clus scale="   84.633">  5  6 -1 -1</clus>
<clus scale="   91.964">  7  8 -1 -1</clus>
<clus scale="  103.643">  1  5  2 -1</clus>
<clus scale="   42.979">  2  5  1 -1</clus>
</clustering>
</event>
<event>
 9    1  0.1399746E-005  0.1049877E+03  0.7546771E-02  0.1270516E+00
         21   -1    0    0  501  502  0.00000000000E+00  0.00000000000E+00  0.33434002521E+03  0.33434002521E+03  0.00000000000E+00 0.  1.
          1   -1    0    0  502    0 -0.00000000000E+00 -0.00000000000E+00 -0.77797094980E+02  0.77797094980E+02  0.00000000000E+00 0. -1.
         23    2    1    2    0    0 -0.46626109965E+02  0.11948710428E+01  0.98190876831E+01  0.10235336912E+03  0.90578009689E+02 0.  0.
         23    2    1    2    0    0  0.72490575399E+02 -0.27878273713E+02  0.24474506487E+03  0.27256963935E+03  0.91443861735E+02 0.  0.
        -11    1    3    3    0    0 -0.12861349389E+02  0.41399867867E+02 -0.12776495773E+02  0.45195156950E+02  0.00000000000E+00 0.  1.
         11    1    3    3    0    0 -0.33764760576E+02 -0.40204996824E+02  0.22595583456E+02  0.57158212167E+02  0.00000000000E+00 0. -1.
        -13    1    4    4    0    0  0.39034986922E+02 -0.29772236682E+02  0.23131853289E+03  0.23647067458E+03  0.00000000000E+00 0.  1.
         13    1    4    4    0    0  0.33455588477E+02  0.18939629691E+01  0.13426531986E+02  0.36098964767E+02  0.00000000000E+00 0. -1.
          1    1    1    2  501    0 -0.25864465434E+02  0.26683402671E+02  0.19787776750E+01  0.37214111723E+02  0.00000000000E+00 0. -1.
<scales pt_clust_5="13000.00000" pt_clust_6="13000.00000" pt_clust_7="13000.00000" pt_clust_8="13000.00000" pt_clust_9="37.16148"></scales>
<clustering>
<clus scale="   37.161">  1  9  2 -1</clus>
<clus scale="   90.578">  5  6 -1 -1</clus>
<clus scale="   91.444">  7  8 -1 -1</clus>
<clus scale="  104.234">  2  5  1 -1</clus>
<clus scale="   37.161">  1  5  2 -1</clus>
</clustering>
</event>
<event>
 9    1  0.1399746E-005  0.1023931E+03  0.7546771E-02  0.1276213E+00
         21   -1    0    0  501  502  0.00000000000E+00  0.00000000000E+00  0.45655092754E+02  0.45655092754E+02  0.00000000000E+00 0. -1.
         -4   -1    0    0    0  501 -0.00000000000E+00 -0.00000000000E+00 -0.62625591560E+03  0.62625591560E+03  0.00000000000E+00 0.  1.
         23    2    1    2    0    0  0.19712480209E+01 -0.53518104482E+02 -0.37057480950E+03  0.38520846619E+03  0.90508561280E+02 0.  0.
         23    2    1    2    0    0 -0.70924725091E+01  0.31130277050E+02 -0.23394353182E+03  0.25354399202E+03  0.92388216212E+02 0.  0.
        -11    1    4    4    0    0  0.36920235124E+02 -0.76647929461E+01 -0.71565551073E+02  0.80891785200E+02  0.00000000000E+00 0. -1.
         11    1    4    4    0    0 -0.44012707633E+02  0.38795069996E+02 -0.16237798075E+03  0.17265220682E+03  0.00000000000E+00 0.  1.
        -11    1    3    3    0    0 -0.38196676979E+02 -0.15607075837E+02 -0.23860476777E+03  0.24214624125E+03  0.00000000000E+00 0.  1.
         11    1    3    3    0    0  0.40167925000E+02 -0.37911028645E+02 -0.13197004173E+03  0.14306222494E+03  0.00000000000E+00 0. -1.
         -4    1    1    2    0  502  0.51212244882E+01  0.22387827432E+02  0.23917518473E+02  0.33158550138E+02  0.00000000000E+00 0.  1.
<scales pt_clust_5="13000.00000" pt_clust_6="13000.00000" pt_clust_7="13000.00000" pt_clust_8="13000.00000" pt_clust_9="22.96610"></scales>
<clustering>
<clus scale="   22.966">  1  9  2 -1</clus>
<clus scale="   90.509">  7  8 -1 -1</clus>
<clus scale="   92.388">  5  6 -1 -1</clus>
<clus scale="  100.700">  2  7  1 -1</clus>
<clus scale="   22.966">  1  5  2 -1</clus>
</clustering>
</event>
<event>
 9    1  0.1399746E-005  0.1073218E+03  0.7546771E-02  0.1268600E+00
          1   -1    0    0  502    0 -0.00000000000E+00  0.00000000000E+00  0.17723605882E+03  0.17723605882E+03  0.00000000000E+00 0. -1.
         21   -1    0    0  501  502  0.00000000000E+00 -0.00000000000E+00 -0.32058362278E+03  0.32058362278E+03  0.00000000000E+00 0.  1.
         23    2    1    2    0    0  0.13815885044E+02  0.36556173133E+02  0.64337298419E+02  0.12293277359E+03  0.97190258677E+02 0.  0.
         23    2    1    2    0    0 -0.10080167870E+03 -0.64892256573E+02 -0.23546017635E+03  0.27927869713E+03  0.90460558434E+02 0.  0.
        -11    1    4    4    0    0 -0.19436178820E+02 -0.30322708309E+02 -0.15699900488E+03  0.16107737029E+03  0.00000000000E+00 0.  1.
         11    1    4    4    0    0 -0.81365499878E+02 -0.34569548264E+02 -0.78461171461E+02  0.11820132683E+03  0.00000000000E+00 0. -1.
        -13    1    3    3    0    0  0.41435801647E+02  0.10004457335E+02 -0.57943090337E+01  0.43018470938E+02  0.00000000000E+00 0. -1.
         13    1    3    3    0    0 -0.27619916602E+02  0.26551715798E+02  0.70131607453E+02  0.79914302655E+02  0.00000000000E+00 0.  1.
          1    1    1    2  501    0  0.86985793654E+02  0.28336083440E+02  0.27775313963E+02  0.95608210882E+02  0.00000000000E+00 0. -1.
<scales pt_clust_5="13000.00000" pt_clust_6="13000.00000" pt_clust_7="13000.00000" pt_clust_8="13000.00000" pt_clust_9="91.48481"></scales>
<clustering>
<clus scale="   90.461">  5  6 -1 -1</clus>
<clus scale="   91.485">  2  9  1 -1</clus>
<clus scale="   97.190">  7  8 -1 -1</clus>
<clus scale="  101.268">  2  5  1 -1</clus>
<clus scale="   91.485">  2  5  1 -1</clus>
</clustering>
</event>
<event>
 9    1  0.1399746E-005  0.9972691E+02  0.7546771E-02  0.1282478E+00
         21   -1    0    0  501  502  0.00000000000E+00  0.00000000000E+00  0.21780050517E+03  0.21780050517E+03  0.00000000000E+00 0.  1.
          3   -1    0    0  502    0 -0.00000000000E+00 -0.00000000000E+00 -0.10843406422E+03  0.10843406422E+03  0.00000000000E+00 0. -1.
         23    2    1    2    0    0 -0.46203627593E+01  0.26892993470E+02 -0.40484451411E+02  0.10535854198E+03  0.93364076138E+02 0.  0.
         23    2    1    2    0    0  0.28618512057E+02 -0.65218537867E+02  0.12286638702E+03  0.16821748535E+03  0.90158174359E+02 0.  0.
        -13    1    3    3    0    0  0.38679730611E+02 -0.10008724737E+01  0.17759544624E+01  0.38733413484E+02  0.00000000000E+00 0.  1.
         13    1    3    3    0    0 -0.43300093370E+02  0.27893865943E+02 -0.42260405873E+02  0.66625128500E+02  0.00000000000E+00 0. -1.
        -13    1    4    4    0    0  0.54951928121E+02 -0.67036950204E+02  0.80470277046E+02  0.11827566354E+03  0.00000000000E+00 0.  1.
         13    1    4    4    0    0 -0.26333416065E+02  0.18184123366E+01  0.42396109975E+02  0.49941821814E+02  0.00000000000E+00 0. -1.
          3    1    1    2  501    0 -0.23998149297E+02  0.38325544398E+02  0.26984505338E+02  0.52658542056E+02  0.00000000000E+00 0. -1.
<scales pt_clust_5="13000.00000" pt_clust_6="13000.00000" pt_clust_7="13000.00000" pt_clust_8="13000.00000" pt_clust_9="45.21901"></scales>
<clustering>
<clus scale="   45.219">  1  9  2 -1</clus>
<clus scale="   90.158">  7  8 -1 -1</clus>
<clus scale="   93.364">  5  6 -1 -1</clus>
<clus scale="   96.732">  1  7  2 -1</clus>
<clus scale="   45.219">  1  5  2 -1</clus>
</clustering>
</event>
<event>
 9    1  0.1399746E-005  0.1356382E+03  0.7546771E-02  0.1219840E+00
         -3   -1    0    0    0  501 -0.00000000000E+00  0.00000000000E+00  0.94435921791E+03  0.94435921791E+03  0.00000000000E+00 0.  1.
         21   -1    0    0  501  502  0.00000000000E+00 -0.00000000000E+00 -0.72212488429E+02  0.72212488429E+02  0.00000000000E+00 0.  1.
         23    2    1    2    0    0 -0.52516024798E+02 -0.86706544570E+02  0.55829664969E+03  0.57453149276E+03  0.90085123016E+02 0.  0.
         23    2    1    2    0    0 -0.26880132534E+01  0.10671040295E+03  0.34701822582E+03  0.37460308672E+03  0.92257726050E+02 0.  0.
        -11    1    3    3    0    0 -0.45005710797E+02 -0.10534019844E+03  0.49683436044E+03  0.50986905488E+03  0.00000000000E+00 0.  1.
         11    1    3    3    0    0 -0.75103140003E+01  0.18633653869E+02  0.61462289247E+02  0.64662437879E+02  0.00000000000E+00 0. -1.
        -11    1    4    4    0    0  0.18232716820E+02  0.78329268940E+02  0.32063237361E+03  0.33056470674E+03  0.00000000000E+00 0. -1.
         11    1    4    4    0    0 -0.20920730073E+02  0.28381134011E+02  0.26385852213E+02  0.44038379983E+02  0.00000000000E+00 0.  1.
         -3    1    1    2    0  502  0.55204038051E+02 -0.20003858381E+02 -0.33168146031E+02  0.67437126854E+02  0.00000000000E+00 0.  1.
<scales pt_clust_5="13000.00000" pt_clust_6="13000.00000" pt_clust_7="13000.00000" pt_clust_8="13000.00000" pt_clust_9="58.71661"></scales>
<clustering>
<clus scale="   58.717">  2  9  1 -1</clus>
<clus scale="   90.085">  5  6 -1 -1</clus>
<clus scale="   92.258">  7  8 -1 -1</clus>
<clus scale="  134.170">  1  5  2 -1</clus>
<clus scale="   58.717">  2  5  1 -1</clus>
</clustering>
</event>
<event>
 9    1  0.1399746E-005  0.1249995E+03  0.7546771E-02  0.1235157E+00
         21   -1    0    0  501  502  0.00000000000E+00  0.00000000000E+00  0.49053247695E+02  0.49053247695E+02  0.00000000000E+00 0. -1.
          1   -1    0    0  502    0 -0.00000000000E+00 -0.00000000000E+00 -0.50522762507E+03  0.50522762507E+03  0.00000000000E+00 0. -1.
         23    2    1    2    0    0  0.18044403873E+01 -0.78996394205E+02 -0.14927776474E+03  0.19146076880E+03  0.90164786042E+02 0.  0.
         23    2    1    2    0    0  0.54099322514E+02  0.85499136609E+02 -0.19525320222E+03  0.23779303707E+03  0.90470306989E+02 0.  0.
        -13    1    3    3    0    0 -0.18612860261E+02 -0.56545152977E+02 -0.14970954830E+03  0.16111096097E+03  0.00000000000E+00 0.  1.
         13    1    3    3    0    0  0.20417300649E+02 -0.22451241229E+02  0.43178355993E+00  0.30349807833E+02  0.00000000000E+00 0. -1.
        -13    1    4    4    0    0  0.39760954870E+02  0.90669591269E+01 -0.18685037128E+02  0.44858375945E+02  0.00000000000E+00 0.  1.
         13    1    4    4    0    0  0.14338367645E+02  0.76432177482E+02 -0.17656816509E+03  0.19293466113E+03  0.00000000000E+00 0. -1.
          1    1    1    2  501    0 -0.55903762902E+02 -0.65027424031E+01 -0.11164341042E+03  0.12502706689E+03  0.00000000000E+00 0. -1.
<scales pt_clust_5="13000.00000" pt_clust_6="13000.00000" pt_clust_7="13000.00000" pt_clust_8="13000.00000" pt_clust_9="56.28072"></scales>
<clustering>
<clus scale="   56.281">  1  9  2 -1</clus>
<clus scale="   90.165">  5  6 -1 -1</clus>
<clus scale="   90.470">  7  8 -1 -1</clus>
<clus scale="  124.779">  2  5  1 -1</clus>
<clus scale="   56.281">  1  5  2 -1</clus>
</clustering>
</event>
<event>
 9    1  0.1399746E-005  0.9900370E+02  0.7546771E-02  0.1282735E+00
         21   -1    0    0  501  502  0.00000000000E+00  0.00000000000E+00  0.30604098969E+03  0.30604098969E+03  0.00000000000E+00 0. -1.
          3   -1    0    0  502    0 -0.00000000000E+00 -0.00000000000E+00 -0.92403368250E+02  0.92403368250E+02  0.00000000000E+00 0. -1.
         23    2    1    2    0    0  0.27275295965E+02  0.29004185708E+02 -0.47652281162E+02  0.11064846451E+03  0.91581429563E+02 0.  0.
         23    2    1    2    0    0 -0.27314134769E+02 -0.68481597736E+01  0.18090158971E+03  0.20441021215E+03  0.90913092666E+02 0.  0.
        -13    1    3    3    0    0  0.39827291338E+01 -0.22408895640E+02  0.14268515639E+02  0.26862823264E+02  0.00000000000E+00 0.  1.
         13    1    3    3    0    0  0.23292566831E+02  0.51413081348E+02 -0.61920796801E+02  0.83785641251E+02  0.00000000000E+00 0. -1.
        -13    1    4    4    0    0 -0.21745178403E+02  0.41286258869E+02  0.85239680930E+02  0.97176186178E+02  0.00000000000E+00 0. -1.
         13    1    4    4    0    0 -0.55689563660E+01 -0.48134418642E+02  0.95661908784E+02  0.10723402597E+03  0.00000000000E+00 0.  1.
          3    1    1    2  501    0  0.38838804214E-01 -0.22156025935E+02  0.80388312892E+02  0.83385681284E+02  0.00000000000E+00 0. -1.
<scales pt_clust_5="13000.00000" pt_clust_6="13000.00000" pt_clust_7="13000.00000" pt_clust_8="13000.00000" pt_clust_9="22.15606"></scales>
<clustering>
<clus scale="   22.156">  1  9  2 -1</clus>
<clus scale="   90.913">  7  8 -1 -1</clus>
<clus scale="   91.581">  5  6 -1 -1</clus>
<clus scale="   98.386">  1  7  2 -1</clus>
<clus scale="   22.156">  1  5  2 -1</clus>
</clustering>
</event>
<event>
 9    1  0.1399746E-005  0.1999732E+03  0.7546771E-02  0.1162367E+00
         21   -1    0    0  501  502  0.00000000000E+00  0.00000000000E+00  0.37508766483E+03  0.37508766483E+03  0.00000000000E+00 0. -1.
          1   -1    0    0  502    0 -0.00000000000E+00 -0.00000000000E+00 -0.93152384973E+03  0.93152384973E+03  0.00000000000E+00 0. -1.
         23    2    1    2    0    0 -0.48094061370E+02  0.10764730073E+03 -0.18663200622E+03  0.23869768973E+03  0.90797033234E+02 0.  0.
         23    2    1    2    0    0 -0.10221689455E+03 -0.20492816847E+03 -0.67272868007E+03  0.71603287303E+03  0.87723146901E+02 0.  0.
        -13    1    3    3    0    0 -0.22977436920E+02  0.11564388220E+03 -0.17205366734E+03  0.20857596827E+03  0.00000000000E+00 0.  1.
         13    1    3    3    0    0 -0.25116624450E+02 -0.79965814706E+01 -0.14578338885E+02  0.30121721458E+02  0.00000000000E+00 0. -1.
        -13    1    4    4    0    0 -0.75035849978E+02 -0.62645808461E+02 -0.32374963628E+03  0.33818442171E+03  0.00000000000E+00 0.  1.
         13    1    4    4    0    0 -0.27181044576E+02 -0.14228236001E+03 -0.34897904379E+03  0.37784845132E+03  0.00000000000E+00 0. -1.
          1    1    1    2  501    0  0.15031095592E+03  0.97280867744E+02  0.30292450139E+03  0.35188095180E+03  0.00000000000E+00 0. -1.
<scales pt_clust_5="13000.00000" pt_clust_6="13000.00000" pt_clust_7="13000.00000" pt_clust_8="13000.00000" pt_clust_9="179.70510"></scales>
<clustering>
<clus scale="   87.723">  7  8 -1 -1</clus>
<clus scale="   90.797">  5  6 -1 -1</clus>
<clus scale="  148.812">  2  5  1 -1</clus>
<clus scale="  179.705">  1  9  2 -1</clus>
<clus scale="  179.705">  1  5  2 -1</clus>
</clustering>
</event>
<event>
 9    1  0.1399746E-005  0.1119925E+03  0.7546771E-02  0.1259481E+00
         21   -1    0    0  501  502  0.00000000000E+00  0.00000000000E+00  0.12248086498E+03  0.12248086498E+03  0.00000000000E+00 0.  1.
          1   -1    0    0  502    0 -0.00000000000E+00 -0.00000000000E+00 -0.14070167633E+03  0.14070167633E+03  0.00000000000E+00 0. -1.
         23    2    1    2    0    0 -0.63049885176E+02  0.27094348718E+01 -0.30318686816E+02  0.11634402604E+03  0.92919753379E+02 0.  0.
         23    2    1    2    0    0  0.59241012872E+02  0.31889992042E+02  0.19947537062E+02  0.11115595596E+03  0.86204832305E+02 0.  0.
        -11    1    3    3    0    0  0.20080179529E+02 -0.16105359108E+02 -0.14855443938E+02  0.29720033925E+02  0.00000000000E+00 0.  1.
         11    1    3    3    0    0 -0.83130064706E+02  0.18814793979E+02 -0.15463242879E+02  0.86623992120E+02  0.00000000000E+00 0. -1.
        -13    1    4    4    0    0  0.44759903876E+02  0.61124619214E+02  0.20647588630E+02  0.78523824316E+02  0.00000000000E+00 0.  1.
         13    1    4    4    0    0  0.14481108996E+02 -0.29234627172E+02 -0.70005156826E+00  0.32632131647E+02  0.00000000000E+00 0. -1.
          1    1    1    2  501    0  0.38088723042E+01 -0.34599426914E+02 -0.78496615951E+01  0.35682559299E+02  0.00000000000E+00 0. -1.
<scales pt_clust_5="13000.00000" pt_clust_6="13000.00000" pt_clust_7="13000.00000" pt_clust_8="13000.00000" pt_clust_9="34.80846"></scales>
<clustering>
<clus scale="   34.808">  1  9  2 -1</clus>
<clus scale="   86.205">  7  8 -1 -1</clus>
<clus scale="   92.920">  5  6 -1 -1</clus>
<clus scale="  106.487">  1  7  2 -1</clus>
<clus scale="   34.808">  1  5  2 -1</clus>
</clustering>
</event>
<event>
 9    1  0.1399746E-005  0.1520040E+03  0.7546771E-02  0.1202266E+00
         21   -1    0    0  501  502  0.00000000000E+00  0.00000000000E+00  0.42522893699E+03  0.42522893699E+03  0.00000000000E+00 0. -1.
         -1   -1    0    0    0  501 -0.00000000000E+00 -0.00000000000E+00 -0.96284381012E+02  0.96284381012E+02  0.00000000000E+00 0.  1.
         23    2    1    2    0    0 -0.12148646350E+03  0.13451018071E+02  0.57092186812E+02  0.14985394517E+03  0.65244129141E+02 0.  0.
         23    2    1    2    0    0  0.11626278780E+03 -0.51243619399E+02  0.29015222223E+03  0.32934563835E+03  0.90206945867E+02 0.  0.
        -11    1    3    3    0    0 -0.17374117922E+02  0.15313733161E+02 -0.10792775393E+02  0.25551015588E+02  0.00000000000E+00 0.  1.
         11    1    3    3    0    0 -0.10411234558E+03 -0.18627150893E+01  0.67884962206E+02  0.12430292958E+03  0.00000000000E+00 0. -1.
        -13    1    4    4    0    0  0.27271440473E+02 -0.44375007860E+02  0.18100587096E+03  0.18835073164E+03  0.00000000000E+00 0.  1.
         13    1    4    4    0    0  0.88991347328E+02 -0.68686115390E+01  0.10914635127E+03  0.14099490671E+03  0.00000000000E+00 0. -1.
         -1    1    1    2    0  502  0.52236756982E+01  0.37792601328E+02 -0.18299853066E+02  0.42313734474E+02  0.00000000000E+00 0.  1.
<scales pt_clust_5="13000.00000" pt_clust_6="13000.00000" pt_clust_7="13000.00000" pt_clust_8="13000.00000" pt_clust_9="38.15192"></scales>
<clustering>
<clus scale="   38.152">  1  9  2 -1</clus>
<clus scale="   65.244">  5  6 -1 -1</clus>
<clus scale="   90.207">  7  8 -1 -1</clus>
<clus scale="  138.653">  2  5  1 -1</clus>
<clus scale="   38.152">  1  5  2 -1</clus>
</clustering>
</event>
<event>
 9    1  0.1399746E-005  0.1131014E+03  0.7546771E-02  0.1255588E+00
          3   -1    0    0  502    0 -0.00000000000E+00  0.00000000000E+00  0.19936762203E+03  0.19936762203E+03  0.00000000000E+00 0. -1.
         21   -1    0    0  501  502  0.00000000000E+00 -0.00000000000E+00 -0.97281371090E+02  0.97281371090E+02  0.00000000000E+00 0.  1.
         23    2    1    2    0    0  0.46843196113E+02  0.47315817405E+02  0.11375508938E+03  0.16134571018E+03  0.93054533665E+02 0.  0.
         23    2    1    2    0    0 -0.54578549751E+02 -0.26309850413E+02 -0.20099705531E+02  0.11138329412E+03  0.91275482608E+02 0.  0.
        -11    1    3    3    0    0 -0.27148958670E+02  0.73532401168E+01  0.15860652520E+02  0.32290809768E+02  0.00000000000E+00 0.  1.
         11    1    3    3    0    0  0.73992154783E+02  0.39962577288E+02  0.97894436857E+02  0.12905490041E+03  0.00000000000E+00 0. -1.
        -13    1    4    4    0    0 -0.40630677284E+02  0.28777324924E+02 -0.22210151421E+02  0.54518594924E+02  0.00000000000E+00 0.  1.
         13    1    4    4    0    0 -0.13947872467E+02 -0.55087175337E+02  0.21104458908E+01  0.56864699198E+02  0.00000000000E+00 0. -1.
          3    1    1    2  501    0  0.77353536382E+01 -0.21005966992E+02  0.84308670960E+01  0.23919988820E+02  0.00000000000E+00 0. -1.
<scales pt_clust_5="13000.00000" pt_clust_6="13000.00000" pt_clust_7="13000.00000" pt_clust_8="13000.00000" pt_clust_9="22.38497"></scales>
<clustering>
<clus scale="   22.385">  2  9  1 -1</clus>
<clus scale="   91.275">  7  8 -1 -1</clus>
<clus scale="   93.055">  5  6 -1 -1</clus>
<clus scale="  111.642">  2  7  1 -1</clus>
<clus scale="   22.385">  2  5  1 -1</clus>
</clustering>
</event>
<event>
 9    1  0.1399746E-005  0.1097876E+03  0.7546771E-02  0.1262857E+00
         21   -1    0    0  501  502  0.00000000000E+00  0.00000000000E+00  0.45281402795E+03  0.45281402795E+03  0.00000000000E+00 0.  1.
          2   -1    0    0  502    0 -0.00000000000E+00 -0.00000000000E+00 -0.40254259963E+02  0.40254259963E+02  0.00000000000E+00 0. -1.
         23    2    1    2    0    0  0.63476823888E+02 -0.13322457022E+02  0.11935292765E+03  0.16663103844E+03  0.96508997503E+02 0.  0.
         23    2    1    2    0    0 -0.34505118520E+02  0.17890809484E+02  0.14943706897E+03  0.17970628234E+03  0.91935988952E+02 0.  0.
        -11    1    3    3    0    0 -0.22302220771E+02 -0.27893483978E+01  0.53334991185E+02  0.57877377277E+02  0.00000000000E+00 0. -1.
         11    1    3    3    0    0  0.85779044660E+02 -0.10533108625E+02  0.66017936466E+02  0.10875366116E+03  0.00000000000E+00 0.  1.
        -13    1    4    4    0    0 -0.27239280901E+02  0.52510727905E+02  0.63558955360E+02  0.86827966552E+02  0.00000000000E+00 0. -1.
         13    1    4    4    0    0 -0.72658376184E+01 -0.34619918420E+02  0.85878113608E+02  0.92878315793E+02  0.00000000000E+00 0.  1.
          2    1    1    2  501    0 -0.28971705369E+02 -0.45683524617E+01  0.14376977137E+03  0.14673096713E+03  0.00000000000E+00 0. -1.
<scales pt_clust_5="13000.00000" pt_clust_6="13000.00000" pt_clust_7="13000.00000" pt_clust_8="13000.00000" pt_clust_9="29.32967"></scales>
<clustering>
<clus scale="   29.330">  1  9  2 -1</clus>
<clus scale="   91.936">  7  8 -1 -1</clus>
<clus scale="   96.509">  5  6 -1 -1</clus>
<clus scale="  105.790">  1  7  2 -1</clus>
<clus scale="   29.330">  1  5  2 -1</clus>
</clustering>
</event>
<event>
 9    1  0.1399746E-005  0.1721392E+03  0.7546771E-02  0.1176543E+00
         21   -1    0    0  501  502  0.00000000000E+00  0.00000000000E+00  0.51965213535E+02  0.51965213535E+02  0.00000000000E+00 0. -1.
         -1   -1    0    0    0  501 -0.00000000000E+00 -0.00000000000E+00 -0.69949559898E+03  0.69949559898E+03  0.00000000000E+00 0.  1.
         23    2    1    2    0    0  0.41549778261E+02  0.14545744832E+03 -0.42916173283E+03  0.46544641133E+03  0.97858650878E+02 0.  0.
         23    2    1    2    0    0 -0.43435356422E+02 -0.11805431887E+03 -0.17045247387E+03  0.23078354845E+03  0.91561716856E+02 0.  0.
        -11    1    4    4    0    0  0.23880197761E+02 -0.62596973532E+02 -0.89403540914E+02  0.11172125164E+03  0.00000000000E+00 0. -1.
         11    1    4    4    0    0 -0.67315554184E+02 -0.55457345334E+02 -0.81048932959E+02  0.11906229680E+03  0.00000000000E+00 0.  1.
        -13    1    3    3    0    0 -0.13489698976E+02  0.11211322419E+03 -0.31150692496E+03  0.33134258904E+03  0.00000000000E+00 0.  1.
         13    1    3    3    0    0  0.55039477237E+02  0.33344224129E+02 -0.11765480787E+03  0.13410382229E+03  0.00000000000E+00 0. -1.
         -1    1    1    2    0  502  0.18855781613E+01 -0.27403129451E+02 -0.47916178741E+02  0.55230852735E+02  0.00000000000E+00 0.  1.
<scales pt_clust_5="13000.00000" pt_clust_6="13000.00000" pt_clust_7="13000.00000" pt_clust_8="13000.00000" pt_clust_9="27.46794"></scales>
<clustering>
<clus scale="   27.468">  1  9  2 -1</clus>
<clus scale="   91.562">  5  6 -1 -1</clus>
<clus scale="   97.859">  7  8 -1 -1</clus>
<clus scale="  168.639">  1  5  2 -1</clus>
<clus scale="   27.468">  1  5  2 -1</clus>
</clustering>
</event>
<event>
 9    1  0.1399746E-005  0.1079674E+03  0.7546771E-02  0.1265725E+00
         21   -1    0    0  501  502  0.00000000000E+00  0.00000000000E+00  0.86776010684E+02  0.86776010684E+02  0.00000000000E+00 0.  1.
          1   -1    0    0  502    0 -0.00000000000E+00 -0.00000000000E+00 -0.69637918540E+03  0.69637918540E+03  0.00000000000E+00 0. -1.
         23    2    1    2    0    0  0.58103009528E+02 -0.28627548137E+01 -0.62563781912E+03  0.63471624951E+03  0.89765703905E+02 0.  0.
         23    2    1    2    0    0 -0.10813180013E+02  0.21370922203E+02  0.17494701387E+02  0.97635285266E+02  0.93021197447E+02 0.  0.
        -11    1    3    3    0    0  0.49088586871E+02  0.39864769817E+02 -0.38068576418E+03  0.38590224187E+03  0.00000000000E+00 0. -1.
         11    1    3    3    0    0  0.90144226566E+01 -0.42727524631E+02 -0.24495205495E+03  0.24881400764E+03  0.00000000000E+00 0.  1.
        -11    1    4    4    0    0 -0.39256467812E+02  0.18190664569E+02  0.41745591088E+02  0.60122083446E+02  0.00000000000E+00 0.  1.
         11    1    4    4    0    0  0.28443287800E+02  0.31802576339E+01 -0.24250889701E+02  0.37513201820E+02  0.00000000000E+00 0. -1.
          1    1    1    2  501    0 -0.47289829515E+02 -0.18508167389E+02 -0.14600569815E+01  0.50803661306E+02  0.00000000000E+00 0. -1.
<scales pt_clust_5="13000.00000" pt_clust_6="13000.00000" pt_clust_7="13000.00000" pt_clust_8="13000.00000" pt_clust_9="50.78268"></scales>
<clustering>
<clus scale="   50.783">  1  9  2 -1</clus>
<clus scale="   89.766">  5  6 -1 -1</clus>
<clus scale="   93.021">  7  8 -1 -1</clus>
<clus scale="  105.176">  2  5  1 -1</clus>
<clus scale="   50.783">  1  5  2 -1</clus>
</clustering>
</event>
<event>
 9    1  0.1399746E-005  0.1505069E+03  0.7546771E-02  0.1200245E+00
         21   -1    0    0  501  502  0.00000000000E+00  0.00000000000E+00  0.53582297498E+02  0.53582297498E+02  0.00000000000E+00 0.  1.
          2   -1    0    0  502    0 -0.00000000000E+00 -0.00000000000E+00 -0.53448205758E+03  0.53448205758E+03  0.00000000000E+00 0. -1.
         23    2    1    2    0    0 -0.51583821294E+02  0.89473011087E+02 -0.20531061411E+03  0.24739276214E+03  0.91566479462E+02 0.  0.
         23    2    1    2    0    0  0.60273272496E+02 -0.12280280769E+03 -0.22530390636E+03  0.27972089789E+03  0.93640448220E+02 0.  0.
        -13    1    4    4    0    0 -0.19390406010E+02 -0.54683427751E+02 -0.56256628992E+02  0.80815056898E+02  0.00000000000E+00 0. -1.
         13    1    4    4    0    0  0.79663678506E+02 -0.68119379937E+02 -0.16904727737E+03  0.19890584099E+03  0.00000000000E+00 0.  1.
        -13    1    3    3    0    0 -0.34274169200E+02  0.10422003533E+03 -0.19174701991E+03  0.22091503815E+03  0.00000000000E+00 0. -1.
         13    1    3    3    0    0 -0.17309652094E+02 -0.14747024248E+02 -0.13563594202E+02  0.26477723985E+02  0.00000000000E+00 0.  1.
          2    1    1    2  501    0 -0.86894512020E+01  0.33329796602E+02 -0.50285239615E+02  0.60950695048E+02  0.00000000000E+00 0. -1.
<scales pt_clust_5="13000.00000" pt_clust_6="13000.00000" pt_clust_7="13000.00000" pt_clust_8="13000.00000" pt_clust_9="34.44391"></scales>
<clustering>
<clus scale="   34.444">  1  9  2 -1</clus>
<clus scale="   91.566">  7  8 -1 -1</clus>
<clus scale="   93.640">  5  6 -1 -1</clus>
<clus scale="  149.225">  2  7  1 -1</clus>
<clus scale="   34.444">  1  5  2 -1</clus>
</clustering>
</event>
<event>
 9    1  0.1399746E-005  0.1201726E+03  0.7546771E-02  0.1247712E+00
          2   -1    0    0  502    0 -0.00000000000E+00  0.00000000000E+00  0.44838825423E+03  0.44838825423E+03  0.00000000000E+00 0. -1.
         21   -1    0    0  501  502  0.00000000000E+00 -0.00000000000E+00 -0.12761285020E+03  0.12761285020E+03  0.00000000000E+00 0. -1.
         23    2    1    2    0    0 -0.59803017640E+02 -0.14934980433E+02  0.22768073523E+03  0.25251832225E+03  0.90152822022E+02 0.  0.
         23    2    1    2    0    0  0.43427844808E+02  0.52322204158E+02  0.18517006219E+03  0.22276620533E+03  0.10350478035E+03 0.  0.
        -13    1    4    4    0    0 -0.27183801931E+02  0.63727957095E+01  0.96492191557E+02  0.10045055821E+03  0.00000000000E+00 0. -1.
         13    1    4    4    0    0  0.70611646739E+02  0.45949408449E+02  0.88677870634E+02  0.12231564713E+03  0.00000000000E+00 0.  1.
        -13    1    3    3    0    0  0.37283168080E+01  0.21233892800E+02  0.11760444336E+02  0.24557821577E+02  0.00000000000E+00 0.  1.
         13    1    3    3    0    0 -0.63531334448E+02 -0.36168873233E+02  0.21592029090E+03  0.22796050068E+03  0.00000000000E+00 0. -1.
          2    1    1    2  501    0  0.16375172831E+02 -0.37387223725E+02 -0.92075393387E+02  0.10071657684E+03  0.00000000000E+00 0. -1.
<scales pt_clust_5="13000.00000" pt_clust_6="13000.00000" pt_clust_7="13000.00000" pt_clust_8="13000.00000" pt_clust_9="40.81606"></scales>
<clustering>
<clus scale="   40.816">  2  9  1 -1</clus>
<clus scale="   90.153">  7  8 -1 -1</clus>
<clus scale="  103.505">  5  6 -1 -1</clus>
<clus scale="  108.884">  1  7  2 -1</clus>
<clus scale="   40.816">  2  5  1 -1</clus>
</clustering>
</event>
<event>
 9    1  0.1399746E-005  0.1053680E+03  0.7546771E-02  0.1270084E+00
         21   -1    0    0  501  502  0.00000000000E+00  0.00000000000E+00  0.17916151672E+03  0.17916151672E+03  0.00000000000E+00 0.  1.
          2   -1    0    0  502    0 -0.00000000000E+00 -0.00000000000E+00 -0.13490892042E+03  0.13490892042E+03  0.00000000000E+00 0. -1.
         23    2    1    2    0    0 -0.43625703603E+02 -0.40253038415E+02 -0.50532159613E+02  0.12111638184E+03  0.92693957073E+02 0.  0.
         23    2    1    2    0    0  0.48638140937E+02 -0.18661033010E+02  0.39898485554E+02  0.11227881118E+03  0.91108393592E+02 0.  0.
        -13    1    3    3    0    0 -0.19266972242E+02  0.28562483325E+02 -0.28927402318E+02  0.44986956753E+02  0.00000000000E+00 0. -1.
         13    1    3    3    0    0 -0.24358731361E+02 -0.68815521741E+02 -0.21604757296E+02  0.76129425085E+02  0.00000000000E+00 0.  1.
        -13    1    4    4    0    0 -0.12168801404E+02 -0.36638786361E+02  0.28177030197E+02  0.47795663238E+02  0.00000000000E+00 0.  1.
         13    1    4    4    0    0  0.60806942341E+02  0.17977753351E+02  0.11721455357E+02  0.64483147939E+02  0.00000000000E+00 0. -1.
          2    1    1    2  501    0 -0.50124373343E+01  0.58914071425E+02  0.54886270357E+02  0.80675244118E+02  0.00000000000E+00 0. -1.
<scales pt_clust_5="13000.00000" pt_clust_6="13000.00000" pt_clust_7="13000.00000" pt_clust_8="13000.00000" pt_clust_9="59.12692"></scales>
<clustering>
<clus scale="   59.127">  1  9  2 -1</clus>
<clus scale="   91.108">  7  8 -1 -1</clus>
<clus scale="   92.694">  5  6 -1 -1</clus>
<clus scale="  103.976">  1  7  2 -1</clus>
<clus scale="   59.127">  1  5  2 -1</clus>
</clustering>
</event>
<event>
 9    1  0.1399746E-005  0.1815915E+03  0.7546771E-02  0.1166455E+00
         21   -1    0    0  501  502  0.00000000000E+00  0.00000000000E+00  0.58808693955E+03  0.58808693955E+03  0.00000000000E+00 0. -1.
          1   -1    0    0  502    0 -0.00000000000E+00 -0.00000000000E+00 -0.13469462826E+03  0.13469462826E+03  0.00000000000E+00 0. -1.
         23    2    1    2    0    0 -0.71945197580E+02 -0.14406798107E+03 -0.19275672113E+02  0.18552952139E+03  0.90099706691E+02 0.  0.
         23    2    1    2    0    0  0.10160500440E+03  0.96992032813E+02  0.44408820932E+03  0.47470084714E+03  0.91627099016E+02 0.  0.
        -11    1    3    3    0    0  0.13394500475E+02 -0.36313898798E+02  0.18613248857E+02  0.42948398362E+02  0.00000000000E+00 0.  1.
         11    1    3    3    0    0 -0.85339698055E+02 -0.10775408227E+03 -0.37888920970E+02  0.14258112303E+03  0.00000000000E+00 0. -1.
        -13    1    4    4    0    0  0.22055185937E+02  0.78090837369E+02  0.16487166764E+03  0.18375874645E+03  0.00000000000E+00 0.  1.
         13    1    4    4    0    0  0.79549818466E+02  0.18901195445E+02  0.27921654168E+03  0.29094210069E+03  0.00000000000E+00 0. -1.
          1    1    1    2  501    0 -0.29659806823E+02  0.47075948259E+02  0.28579774081E+02  0.62551199283E+02  0.00000000000E+00 0. -1.
<scales pt_clust_5="13000.00000" pt_clust_6="13000.00000" pt_clust_7="13000.00000" pt_clust_8="13000.00000" pt_clust_9="55.64038"></scales>
<clustering>
<clus scale="   55.640">  1  9  2 -1</clus>
<clus scale="   90.100">  5  6 -1 -1</clus>
<clus scale="   91.627">  7  8 -1 -1</clus>
<clus scale="  180.826">  2  5  1 -1</clus>
<clus scale="   55.640">  1  5  2 -1</clus>
</clustering>
</event>
<event>
 9    1  0.1399746E-005  0.1190795E+03  0.7546771E-02  0.1245002E+00
          1   -1    0    0  502    0 -0.00000000000E+00  0.00000000000E+00  0.51816259542E+03  0.51816259542E+03  0.00000000000E+00 0. -1.
         21   -1    0    0  501  502  0.00000000000E+00 -0.00000000000E+00 -0.45030159285E+02  0.45030159285E+02  0.00000000000E+00 0.  1.
         23    2    1    2    0    0  0.54980826955E+02 -0.32532491507E+02  0.25308358557E+03  0.27640272258E+03  0.90917046957E+02 0.  0.
         23    2    1    2    0    0 -0.80554867654E+02  0.47251907926E+02  0.22130993806E+03  0.25725559258E+03  0.92089748206E+02 0.  0.
        -11    1    3    3    0    0 -0.19215226829E+02 -0.27050291810E+02  0.48964923136E+02  0.59148177714E+02  0.00000000000E+00 0.  1.
         11    1    3    3    0    0  0.74196053784E+02 -0.54821996970E+01  0.20411866244E+03  0.21725454487E+03  0.00000000000E+00 0. -1.
        -11    1    4    4    0    0 -0.99596700033E+01  0.24288133503E+02  0.27054002936E+01  0.26389915619E+02  0.00000000000E+00 0. -1.
         11    1    4    4    0    0 -0.70595197650E+02  0.22963774423E+02  0.21860453777E+03  0.23086567697E+03  0.00000000000E+00 0.  1.
          1    1    1    2  501    0  0.25574040698E+02 -0.14719416419E+02 -0.12610875006E+01  0.29534439542E+02  0.00000000000E+00 0. -1.
<scales pt_clust_5="13000.00000" pt_clust_6="13000.00000" pt_clust_7="13000.00000" pt_clust_8="13000.00000" pt_clust_9="29.50750"></scales>
<clustering>
<clus scale="   29.508">  2  9  1 -1</clus>
<clus scale="   90.917">  5  6 -1 -1</clus>
<clus scale="   92.090">  7  8 -1 -1</clus>
<clus scale="  118.175">  1  5  2 -1</clus>
<clus scale="   29.508">  2  5  1 -1</clus>
</clustering>
</event>
<event>
 9    1  0.1399746E-005  0.1046960E+03  0.7546771E-02  0.1272351E+00
         -3   -1    0    0    0  501 -0.00000000000E+00  0.00000000000E+00  0.18704703288E+03  0.18704703288E+03  0.00000000000E+00 0.  1.
         21   -1    0    0  501  502  0.00000000000E+00 -0.00000000000E+00 -0.11564203356E+03  0.11564203356E+03  0.00000000000E+00 0. -1.
         23    2    1    2    0    0 -0.64012350350E+02 -0.16279315523E+02  0.75646394296E+02  0.13562228218E+03  0.91150586072E+02 0.  0.
         23    2    1    2    0    0  0.15054159842E+02 -0.27227927928E+02  0.93951659167E+01  0.10016580936E+03  0.94746675058E+02 0.  0.
        -11    1    3    3    0    0 -0.25827378875E+02  0.26998458993E+02 -0.36559121162E+01  0.37541123863E+02  0.00000000000E+00 0.  1.
         11    1    3    3    0    0 -0.38184971476E+02 -0.43277774515E+02  0.79302306412E+02  0.98081158313E+02  0.00000000000E+00 0. -1.
        -13    1    4    4    0    0  0.40218667990E+02 -0.39140757823E+02  0.31732562145E+02  0.64470890161E+02  0.00000000000E+00 0.  1.
         13    1    4    4    0    0 -0.25164508148E+02  0.11912829895E+02 -0.22337396229E+02  0.35694919200E+02  0.00000000000E+00 0. -1.
         -3    1    1    2    0  502  0.48958190508E+02  0.43507243451E+02 -0.13636560888E+02  0.66900974906E+02  0.00000000000E+00 0.  1.
<scales pt_clust_5="13000.00000" pt_clust_6="13000.00000" pt_clust_7="13000.00000" pt_clust_8="13000.00000" pt_clust_9="65.49645"></scales>
<clustering>
<clus scale="   65.496">  2  9  1 -1</clus>
<clus scale="   91.151">  5  6 -1 -1</clus>
<clus scale="   94.747">  7  8 -1 -1</clus>
<clus scale="  101.453">  1  5  2 -1</clus>
<clus scale="   65.496">  2  5  1 -1</clus>
</clustering>
</event>
<event>
 9    1  0.1399746E-005  0.9272096E+02  0.7546771E-02  0.1300013E+00
         21   -1    0    0  501  502  0.00000000000E+00  0.00000000000E+00  0.15308915509E+03  0.15308915509E+03  0.00000000000E+00 0. -1.
         -3   -1    0    0    0  501 -0.00000000000E+00 -0.00000000000E+00 -0.73630109884E+02  0.73630109884E+02  0.00000000000E+00 0.  1.
         23    2    1    2    0    0 -0.21577465474E+02  0.26307363721E+01  0.25481488786E+02  0.92348978119E+02  0.86061139307E+02 0.  0.
         23    2    1    2    0    0 -0.50067991595E+01 -0.98119964054E+01  0.28993284037E+02  0.97188201273E+02  0.92106420168E+02 0.  0.
        -13    1    4    4    0    0 -0.19623392988E+02  0.26701985677E+02 -0.16527043412E+02  0.37029944037E+02  0.00000000000E+00 0.  1.
         13    1    4    4    0    0  0.14616593828E+02 -0.36513982082E+02  0.45520327449E+02  0.60158257236E+02  0.00000000000E+00 0. -1.
        -13    1    3    3    0    0 -0.41967276808E+02  0.19043278241E+02 -0.11065572044E+02  0.47395629055E+02  0.00000000000E+00 0.  1.
         13    1    3    3    0    0  0.20389811334E+02 -0.16412541869E+02  0.36547060830E+02  0.44953349065E+02  0.00000000000E+00 0. -1.
         -3    1    1    2    0  502  0.26584264634E+02  0.71812600332E+01  0.24984272388E+02  0.37182085586E+02  0.00000000000E+00 0.  1.
<scales pt_clust_5="13000.00000" pt_clust_6="13000.00000" pt_clust_7="13000.00000" pt_clust_8="13000.00000" pt_clust_9="27.53713"></scales>
<clustering>
<clus scale="   27.537">  1  9  2 -1</clus>
<clus scale="   86.061">  7  8 -1 -1</clus>
<clus scale="   86.719">  2  7  1 -1</clus>
<clus scale="   92.106">  5  6 -1 -1</clus>
<clus scale="   27.537">  1  5  2 -1</clus>
</clustering>
</event>
<event>
 9    1  0.1399746E-005  0.1119261E+03  0.7546771E-02  0.1257103E+00
         21   -1    0    0  501  502  0.00000000000E+00  0.00000000000E+00  0.13681337102E+03  0.13681337102E+03  0.00000000000E+00 0.  1.
         -1   -1    0    0    0  501 -0.00000000000E+00 -0.00000000000E+00 -0.16124629518E+03  0.16124629518E+03  0.00000000000E+00 0.  1.
         23    2    1    2    0    0  0.55532373824E+02 -0.73393570804E+01 -0.45967155856E+02  0.11725224954E+03  0.92181342467E+02 0.  0.
         23    2    1    2    0    0 -0.66189526389E+02  0.38241523882E+02 -0.26666430499E+02  0.12256806013E+03  0.92023710516E+02 0.  0.
        -11    1    3    3    0    0  0.48589060206E+02 -0.46659117323E+02 -0.34637932239E+02  0.75747979186E+02  0.00000000000E+00 0. -1.
         11    1    3    3    0    0  0.69433136180E+01  0.39319760242E+02 -0.11329223617E+02  0.41504270350E+02  0.00000000000E+00 0.  1.
        -13    1    4    4    0    0 -0.17228850360E+02  0.34439646706E+02 -0.54031627223E+02  0.66350126528E+02  0.00000000000E+00 0.  1.
         13    1    4    4    0    0 -0.48960676029E+02  0.38018771769E+01  0.27365196723E+02  0.56217933606E+02  0.00000000000E+00 0. -1.
         -1    1    1    2    0  502  0.10657152565E+02 -0.30902166802E+02  0.48200662193E+02  0.58239356536E+02  0.00000000000E+00 0.  1.
<scales pt_clust_5="13000.00000" pt_clust_6="13000.00000" pt_clust_7="13000.00000" pt_clust_8="13000.00000" pt_clust_9="32.68821"></scales>
<clustering>
<clus scale="   32.688">  1  9  2 -1</clus>
<clus scale="   92.024">  7  8 -1 -1</clus>
<clus scale="   92.181">  5  6 -1 -1</clus>
<clus scale="  111.796">  1  7  2 -1</clus>
<clus scale="   32.688">  1  5  2 -1</clus>
</clustering>
</event>
<event>
 9    1  0.1399746E-005  0.1918867E+03  0.7546771E-02  0.1158063E+00
         21   -1    0    0  501  502  0.00000000000E+00  0.00000000000E+00  0.15088826998E+03  0.15088826998E+03  0.00000000000E+00 0.  1.
          1   -1    0    0  502    0 -0.00000000000E+00 -0.00000000000E+00 -0.42373048770E+03  0.42373048770E+03  0.00000000000E+00 0. -1.
         23    2    1    2    0    0 -0.33401632340E+00  0.16664686609E+03 -0.21752825972E+03  0.29312176494E+03  0.10406985999E+03 0.  0.
         23    2    1    2    0    0  0.64729491295E+02 -0.14757808943E+03 -0.89069045175E+02  0.20633183227E+03  0.93114610428E+02 0.  0.
        -11    1    4    4    0    0 -0.75317442119E+01 -0.98207580228E+02 -0.43709025603E+02  0.10775868830E+03  0.00000000000E+00 0.  1.
         11    1    4    4    0    0  0.72261235507E+02 -0.49370509203E+02 -0.45360019572E+02  0.98573143967E+02  0.00000000000E+00 0. -1.
        -13    1    3    3    0    0  0.28764387673E+02  0.11169751260E+03 -0.74893992757E+02  0.13752394144E+03  0.00000000000E+00 0.  1.
         13    1    3    3    0    0 -0.29098403997E+02  0.54949353490E+02 -0.14263426696E+03  0.15559782349E+03  0.00000000000E+00 0. -1.
          1    1    1    2  501    0 -0.64395474972E+02 -0.19068776657E+02  0.33755087174E+02  0.75165160481E+02  0.00000000000E+00 0. -1.
<scales pt_clust_5="13000.00000" pt_clust_6="13000.00000" pt_clust_7="13000.00000" pt_clust_8="13000.00000" pt_clust_9="67.15948"></scales>
<clustering>
<clus scale="   67.159">  1  9  2 -1</clus>
<clus scale="   93.115">  5  6 -1 -1</clus>
<clus scale="  104.070">  7  8 -1 -1</clus>
<clus scale="  186.173">  1  5  2 -1</clus>
<clus scale="   67.159">  1  5  2 -1</clus>
</clustering>
</event>
<event>
 9    1  0.1399746E-005  0.1120412E+03  0.7546771E-02  0.1257019E+00
          3   -1    0    0  502    0 -0.00000000000E+00  0.00000000000E+00  0.69713457017E+03  0.69713457017E+03  0.00000000000E+00 0. -1.
         21   -1    0    0  501  502  0.00000000000E+00 -0.00000000000E+00 -0.26106633560E+02  0.26106633560E+02  0.00000000000E+00 0.  1.
         23    2    1    2    0    0  0.32751689065E+02 -0.55269847639E+02  0.32219340558E+03  0.34069759318E+03  0.90215465443E+02 0.  0.
         23    2    1    2    0    0 -0.62661289071E+02  0.36079983728E+02  0.30367502193E+03  0.32507869680E+03  0.90716248808E+02 0.  0.
        -11    1    3    3    0    0  0.29201799233E+02  0.13481772694E+02  0.17837128591E+03  0.18124794871E+03  0.00000000000E+00 0. -1.
         11    1    3    3    0    0  0.35498898315E+01 -0.68751620334E+02  0.14382211968E+03  0.15944964448E+03  0.00000000000E+00 0.  1.
        -13    1    4    4    0    0 -0.59391413889E+02 -0.16908606446E+02  0.14013560222E+03  0.15313793790E+03  0.00000000000E+00 0.  1.
         13    1    4    4    0    0 -0.32698751828E+01  0.52988590174E+02  0.16353941971E+03  0.17194075890E+03  0.00000000000E+00 0. -1.
          3    1    1    2  501    0  0.29909600007E+02  0.19189863911E+02  0.45159509094E+02  0.57464913740E+02  0.00000000000E+00 0. -1.
<scales pt_clust_5="13000.00000" pt_clust_6="13000.00000" pt_clust_7="13000.00000" pt_clust_8="13000.00000" pt_clust_9="35.53639"></scales>
<clustering>
<clus scale="   35.536">  2  9  1 -1</clus>
<clus scale="   90.215">  5  6 -1 -1</clus>
<clus scale="   90.716">  7  8 -1 -1</clus>
<clus scale="  111.636">  1  5  2 -1</clus>
<clus scale="   35.536">  2  5  1 -1</clus>
</clustering>
</event>
<event>
 9    1  0.1399746E-005  0.1600674E+03  0.7546771E-02  0.1188828E+00
         21   -1    0    0  501  502  0.00000000000E+00  0.00000000000E+00  0.71120309020E+02  0.71120309020E+02  0.00000000000E+00 0. -1.
         -3   -1    0    0    0  501 -0.00000000000E+00 -0.00000000000E+00 -0.56173298142E+03  0.56173298142E+03  0.00000000000E+00 0.  1.
         23    2    1    2    0    0 -0.10702400069E+03 -0.10044867382E+03 -0.30100053481E+03  0.34703145606E+03  0.91024374454E+02 0.  0.
         23    2    1    2    0    0  0.74802847056E+02  0.86590199630E+02 -0.20092614033E+03  0.24896716430E+03  0.92303880897E+02 0.  0.
        -13    1    3    3    0    0  0.66798834310E+01 -0.34456568171E+02 -0.31439155065E+02  0.47120021265E+02  0.00000000000E+00 0.  1.
         13    1    3    3    0    0 -0.11370388412E+03 -0.65992105652E+02 -0.26956137975E+03  0.29991143480E+03  0.00000000000E+00 0. -1.
        -13    1    4    4    0    0  0.32177650933E+02  0.61372724109E+02 -0.38745146920E+02  0.79392687913E+02  0.00000000000E+00 0. -1.
         13    1    4    4    0    0  0.42625196123E+02  0.25217475521E+02 -0.16218099341E+03  0.16957447638E+03  0.00000000000E+00 0.  1.
         -3    1    1    2    0  502  0.32221153634E+02  0.13858474193E+02  0.11314002746E+02  0.36854670079E+02  0.00000000000E+00 0.  1.
<scales pt_clust_5="13000.00000" pt_clust_6="13000.00000" pt_clust_7="13000.00000" pt_clust_8="13000.00000" pt_clust_9="35.07506"></scales>
<clustering>
<clus scale="   35.075">  1  9  2 -1</clus>
<clus scale="   91.024">  5  6 -1 -1</clus>
<clus scale="   92.304">  7  8 -1 -1</clus>
<clus scale="  159.333">  2  5  1 -1</clus>
<clus scale="   35.075">  1  5  2 -1</clus>
</clustering>
</event>
<event>
 9    1  0.1399746E-005  0.1064571E+03  0.7546771E-02  0.1269583E+00
         21   -1    0    0  501  502  0.00000000000E+00  0.00000000000E+00  0.36387766461E+02  0.36387766461E+02  0.00000000000E+00 0. -1.
          3   -1    0    0  502    0 -0.00000000000E+00 -0.00000000000E+00 -0.50942862438E+03  0.50942862438E+03  0.00000000000E+00 0. -1.
         23    2    1    2    0    0 -0.66608917125E+02 -0.57289328799E+01 -0.30016277316E+03  0.32004534020E+03  0.88666571390E+02 0.  0.
         23    2    1    2    0    0  0.22622840981E+02  0.12381451672E+02 -0.13944125748E+03  0.17011988426E+03  0.93977749779E+02 0.  0.
        -11    1    3    3    0    0 -0.60498997306E+02  0.31306690954E+02 -0.14205895797E+03  0.15754677119E+03  0.00000000000E+00 0.  1.
         11    1    3    3    0    0 -0.61099198191E+01 -0.37035623834E+02 -0.15810381519E+03  0.16249856901E+03  0.00000000000E+00 0. -1.
        -13    1    4    4    0    0  0.51005345664E+02  0.33300389213E+02 -0.74577992895E+02  0.96292981220E+02  0.00000000000E+00 0. -1.
         13    1    4    4    0    0 -0.28382504683E+02 -0.20918937541E+02 -0.64863264583E+02  0.73826903038E+02  0.00000000000E+00 0.  1.
          3    1    1    2  501    0  0.43986076144E+02 -0.66525187917E+01 -0.33436827284E+02  0.55651166382E+02  0.00000000000E+00 0. -1.
<scales pt_clust_5="13000.00000" pt_clust_6="13000.00000" pt_clust_7="13000.00000" pt_clust_8="13000.00000" pt_clust_9="44.48630"></scales>
<clustering>
<clus scale="   44.486">  1  9  2 -1</clus>
<clus scale="   88.667">  5  6 -1 -1</clus>
<clus scale="   93.978">  7  8 -1 -1</clus>
<clus scale="  101.799">  2  5  1 -1</clus>
<clus scale="   44.486">  1  5  2 -1</clus>
</clustering>
</event>
<event>
 9    1  0.1399746E-005  0.1002905E+03  0.7546771E-02  0.1279771E+00
         21   -1    0    0  501  502  0.00000000000E+00  0.00000000000E+00  0.15791049778E+03  0.15791049778E+03  0.00000000000E+00 0.  1.
          1   -1    0    0  502    0 -0.00000000000E+00 -0.00000000000E+00 -0.11777597392E+03  0.11777597392E+03  0.00000000000E+00 0. -1.
         23    2    1    2    0    0  0.27948707695E+02 -0.58924226327E+01  0.23371563643E+02  0.97238650203E+02  0.89962626684E+02 0.  0.
         23    2    1    2    0    0 -0.46775725985E+02 -0.53948287817E+02  0.66524275922E+01  0.11490578726E+03  0.89781394803E+02 0.  0.
        -11    1    3    3    0    0  0.48075557186E+02 -0.17177934748E+02 -0.14339602227E+02  0.53027962746E+02  0.00000000000E+00 0.  1.
         11    1    3    3    0    0 -0.20126849492E+02  0.11285512115E+02  0.37711165870E+02  0.44210687457E+02  0.00000000000E+00 0. -1.
        -11    1    4    4    0    0 -0.45005557091E+02 -0.36818119804E+01 -0.28630059958E+02  0.53467151054E+02  0.00000000000E+00 0. -1.
         11    1    4    4    0    0 -0.17701688933E+01 -0.50266475837E+02  0.35282487551E+02  0.61438636205E+02  0.00000000000E+00 0.  1.
          1    1    1    2  501    0  0.18827018290E+02  0.59840710450E+02  0.10110532626E+02  0.63542034236E+02  0.00000000000E+00 0. -1.
<scales pt_clust_5="13000.00000" pt_clust_6="13000.00000" pt_clust_7="13000.00000" pt_clust_8="13000.00000" pt_clust_9="62.73251"></scales>
<clustering>
<clus scale="   62.733">  1  9  2 -1</clus>
<clus scale="   89.781">  7  8 -1 -1</clus>
<clus scale="   89.963">  5  6 -1 -1</clus>
<clus scale="  100.128">  1  7  2 -1</clus>
<clus scale="   62.733">  1  5  2 -1</clus>
</clustering>
</event>
<event>
 9    1  0.1399746E-005  0.2710043E+03  0.7546771E-02  0.1134971E+00
         -3   -1    0    0    0  501 -0.00000000000E+00  0.00000000000E+00  0.23377231608E+03  0.23377231608E+03  0.00000000000E+00 0.  1.
         21   -1    0    0  501  502  0.00000000000E+00 -0.00000000000E+00 -0.44602126052E+03  0.44602126052E+03  0.00000000000E+00 0.  1.
         23    2    1    2    0    0  0.48796934027E+02 -0.48986767994E+02 -0.25241387440E+02  0.11736488934E+03  0.91414142240E+02 0.  0.
         23    2    1    2    0    0 -0.21558326938E+03  0.19517613553E+03 -0.14035507438E+03  0.33578917840E+03  0.92113818260E+02 0.  0.
        -13    1    3    3    0    0  0.11280924354E+02  0.25972995700E+02 -0.17258497797E+02  0.33161898410E+02  0.00000000000E+00 0. -1.
         13    1    3    3    0    0  0.37516009672E+02 -0.74959763695E+02 -0.79828896428E+01  0.84202990932E+02  0.00000000000E+00 0.  1.
        -13    1    4    4    0    0 -0.20946200458E+03  0.15542328934E+03 -0.10154506273E+03  0.27989664163E+03  0.00000000000E+00 0.  1.
         13    1    4    4    0    0 -0.61212647964E+01  0.39752846182E+02 -0.38810011647E+02  0.55892536767E+02  0.00000000000E+00 0. -1.
         -3    1    1    2    0  502  0.16678633535E+03 -0.14618936753E+03 -0.46652482627E+02  0.22663950886E+03  0.00000000000E+00 0.  1.
<scales pt_clust_5="13000.00000" pt_clust_6="13000.00000" pt_clust_7="13000.00000" pt_clust_8="13000.00000" pt_clust_9="254.86931"></scales>
<clustering>
<clus scale="   91.414">  5  6 -1 -1</clus>
<clus scale="   92.114">  7  8 -1 -1</clus>
<clus scale="  114.618">  1  5  2 -1</clus>
<clus scale="  254.869">  2  9  1 -1</clus>
<clus scale="  254.869">  2  5  1 -1</clus>
</clustering>
</event>
<event>
 9    1  0.1399746E-005  0.1043292E+03  0.7546771E-02  0.1272568E+00
         21   -1    0    0  501  502  0.00000000000E+00  0.00000000000E+00  0.26145027920E+02  0.26145027920E+02  0.00000000000E+00 0.  1.
          1   -1    0    0  502    0 -0.00000000000E+00 -0.00000000000E+00 -0.53056227397E+03  0.53056227397E+03  0.00000000000E+00 0. -1.
         23    2    1    2    0    0  0.42627952991E+02  0.36467232051E+02 -0.28698375470E+03  0.30702771161E+03  0.93591339570E+02 0.  0.
         23    2    1    2    0    0 -0.29376188706E+02 -0.15401296153E+02 -0.15990652348E+03  0.18699996884E+03  0.91097374872E+02 0.  0.
        -11    1    3    3    0    0  0.45325319171E+02 -0.12459881278E+02 -0.21412348016E+03  0.21922248506E+03  0.00000000000E+00 0. -1.
         11    1    3    3    0    0 -0.26973661796E+01  0.48927113330E+02 -0.72860274545E+02  0.87805226552E+02  0.00000000000E+00 0.  1.
        -13    1    4    4    0    0  0.15398932492E+02  0.28913552297E+02 -0.41432156790E+02  0.52818029541E+02  0.00000000000E+00 0. -1.
         13    1    4    4    0    0 -0.44775121198E+02 -0.44314848451E+02 -0.11847436669E+03  0.13418193930E+03  0.00000000000E+00 0.  1.
          1    1    1    2  501    0 -0.13251764285E+02 -0.21065935898E+02 -0.57526967868E+02  0.62679621441E+02  0.00000000000E+00 0. -1.
<scales pt_clust_5="13000.00000" pt_clust_6="13000.00000" pt_clust_7="13000.00000" pt_clust_8="13000.00000" pt_clust_9="24.88742"></scales>
<clustering>
<clus scale="   24.887">  1  9  2 -1</clus>
<clus scale="   91.097">  7  8 -1 -1</clus>
<clus scale="   93.591">  5  6 -1 -1</clus>
<clus scale="  102.098">  1  7  2 -1</clus>
<clus scale="   24.887">  1  5  2 -1</clus>
</clustering>
</event>
<event>
 9    1  0.1399746E-005  0.1056478E+03  0.7546771E-02  0.1269779E+00
          3   -1    0    0  502    0 -0.00000000000E+00  0.00000000000E+00  0.32332763050E+03  0.32332763050E+03  0.00000000000E+00 0. -1.
         21   -1    0    0  501  502  0.00000000000E+00 -0.00000000000E+00 -0.51177682199E+02  0.51177682199E+02  0.00000000000E+00 0.  1.
         23    2    1    2    0    0  0.14521597295E+02  0.51404905629E+02  0.13748902212E+03  0.17454735614E+03  0.93328490937E+02 0.  0.
         23    2    1    2    0    0 -0.39537513137E+02 -0.20770995097E+02  0.11439201684E+03  0.15551629586E+03  0.95420834089E+02 0.  0.
        -13    1    4    4    0    0 -0.65374399924E+02 -0.34262600236E+02  0.65945429806E+02  0.98977460326E+02  0.00000000000E+00 0.  1.
         13    1    4    4    0    0  0.25836886786E+02  0.13491605139E+02  0.48446587035E+02  0.56538835532E+02  0.00000000000E+00 0. -1.
        -13    1    3    3    0    0  0.42481086646E+02  0.10437050853E+02  0.10876201447E+03  0.11722947814E+03  0.00000000000E+00 0.  1.
         13    1    3    3    0    0 -0.27959489352E+02  0.40967854776E+02  0.28727007651E+02  0.57317877999E+02  0.00000000000E+00 0. -1.
          3    1    1    2  501    0  0.25015915843E+02 -0.30633910532E+02  0.20268909333E+02  0.44441660696E+02  0.00000000000E+00 0. -1.
<scales pt_clust_5="13000.00000" pt_clust_6="13000.00000" pt_clust_7="13000.00000" pt_clust_8="13000.00000" pt_clust_9="39.55038"></scales>
<clustering>
<clus scale="   39.550">  2  9  1 -1</clus>
<clus scale="   93.328">  7  8 -1 -1</clus>
<clus scale="   95.421">  5  6 -1 -1</clus>
<clus scale="  103.762">  1  7  2 -1</clus>
<clus scale="   39.550">  2  5  1 -1</clus>
</clustering>
</event>
<event>
 9    1  0.1399746E-005  0.1568077E+03  0.7546771E-02  0.1192812E+00
         -1   -1    0    0    0  501 -0.00000000000E+00  0.00000000000E+00  0.36172308214E+03  0.36172308214E+03  0.00000000000E+00 0.  1.
         21   -1    0    0  501  502  0.00000000000E+00 -0.00000000000E+00 -0.33521446665E+03  0.33521446665E+03  0.00000000000E+00 0.  1.
         23    2    1    2    0    0 -0.12805035590E+03  0.57255164183E+02  0.16947209638E+03  0.23721972266E+03  0.88754480970E+02 0.  0.
         23    2    1    2    0    0  0.12052075488E+03  0.62621847455E+01  0.11739231616E+03  0.19162028873E+03  0.91503616574E+02 0.  0.
        -11    1    4    4    0    0  0.84955175506E+02  0.21963387270E+02  0.12428190741E+03  0.15213732197E+03  0.00000000000E+00 0.  1.
         11    1    4    4    0    0  0.35565579372E+02 -0.15701202525E+02 -0.68895912526E+01  0.39482966763E+02  0.00000000000E+00 0. -1.
        -11    1    3    3    0    0 -0.10146081132E+03  0.77299263431E+02  0.15546829661E+03  0.20109665241E+03  0.00000000000E+00 0. -1.
         11    1    3    3    0    0 -0.26589544585E+02 -0.20044099248E+02  0.14003799775E+02  0.36123070246E+02  0.00000000000E+00 0.  1.
         -1    1    1    2    0  502  0.75296010244E+01 -0.63517348928E+02 -0.26035579705E+03  0.26809753740E+03  0.00000000000E+00 0.  1.
<scales pt_clust_5="13000.00000" pt_clust_6="13000.00000" pt_clust_7="13000.00000" pt_clust_8="13000.00000" pt_clust_9="63.96209"></scales>
<clustering>
<clus scale="   63.962">  2  9  1 -1</clus>
<clus scale="   88.754">  7  8 -1 -1</clus>
<clus scale="   91.504">  5  6 -1 -1</clus>
<clus scale="  155.219">  1  7  2 -1</clus>
<clus scale="   63.962">  2  5  1 -1</clus>
</clustering>
</event>
<event>
 9    1  0.1399746E-005  0.1768127E+03  0.7546771E-02  0.1171021E+00
         21   -1    0    0  501  502  0.00000000000E+00  0.00000000000E+00  0.22541370446E+03  0.22541370446E+03  0.00000000000E+00 0. -1.
          2   -1    0    0  502    0 -0.00000000000E+00 -0.00000000000E+00 -0.73509029535E+03  0.73509029535E+03  0.00000000000E+00 0. -1.
         23    2    1    2    0    0 -0.13063456393E+03  0.46654663165E+02 -0.34328966586E+03  0.38118147720E+03  0.90606164188E+02 0.  0.
         23    2    1    2    0    0  0.10683878483E+03 -0.16880558904E+03 -0.31613978521E+03  0.38460989608E+03  0.89836270686E+02 0.  0.
        -11    1    3    3    0    0 -0.12297976402E+03  0.77056858815E+01 -0.28670181247E+03  0.31205981675E+03  0.00000000000E+00 0. -1.
         11    1    3    3    0    0 -0.76547999055E+01  0.38948977284E+02 -0.56587853386E+02  0.69121660454E+02  0.00000000000E+00 0.  1.
        -13    1    4    4    0    0  0.47708093753E+02 -0.14315067242E+03 -0.25171787936E+03  0.29347924631E+03  0.00000000000E+00 0. -1.
         13    1    4    4    0    0  0.59130691074E+02 -0.25654916627E+02 -0.64421905853E+02  0.91130649771E+02  0.00000000000E+00 0.  1.
          2    1    1    2  501    0  0.23795779100E+02  0.12215092588E+03  0.14975286018E+03  0.19471262653E+03  0.00000000000E+00 0. -1.
<scales pt_clust_5="13000.00000" pt_clust_6="13000.00000" pt_clust_7="13000.00000" pt_clust_8="13000.00000" pt_clust_9="124.44713"></scales>
<clustering>
<clus scale="   89.836">  7  8 -1 -1</clus>
<clus scale="   90.606">  5  6 -1 -1</clus>
<clus scale="  124.447">  1  9  2 -1</clus>
<clus scale="  176.419">  1  7  2 -1</clus>
<clus scale="  124.447">  1  5  2 -1</clus>
</clustering>
</event>
<event>
 9    1  0.1399746E-005  0.1113140E+03  0.7546771E-02  0.1259112E+00
          2   -1    0    0  502    0 -0.00000000000E+00  0.00000000000E+00  0.75607385487E+03  0.75607385487E+03  0.00000000000E+00 0. -1.
         21   -1    0    0  501  502  0.00000000000E+00 -0.00000000000E+00 -0.65711015720E+02  0.65711015720E+02  0.00000000000E+00 0. -1.
         23    2    1    2    0    0 -0.15563644043E+02  0.66215409412E+02  0.34761594545E+03  0.36547019959E+03  0.90027294739E+02 0.  0.
         23    2    1    2    0    0  0.94886746113E+02 -0.11814430893E+02  0.33573728942E+03  0.35987424618E+03  0.87446384686E+02 0.  0.
        -11    1    4    4    0    0  0.30707467990E+02 -0.39452354618E+02  0.21155330573E+03  0.21738039939E+03  0.00000000000E+00 0.  1.
         11    1    4    4    0    0  0.64179278123E+02  0.27637923724E+02  0.12418398369E+03  0.14249384679E+03  0.00000000000E+00 0. -1.
        -13    1    3    3    0    0  0.19314643059E+02 -0.14677868340E+02  0.61967958686E+02  0.66547149896E+02  0.00000000000E+00 0.  1.
         13    1    3    3    0    0 -0.34878287102E+02  0.80893277752E+02  0.28564798677E+03  0.29892304970E+03  0.00000000000E+00 0. -1.
          2    1    1    2  501    0 -0.79323102070E+02 -0.54400978519E+02  0.70096042779E+01  0.96440424812E+02  0.00000000000E+00 0. -1.
<scales pt_clust_5="13000.00000" pt_clust_6="13000.00000" pt_clust_7="13000.00000" pt_clust_8="13000.00000" pt_clust_9="96.18535"></scales>
<clustering>
<clus scale="   87.446">  5  6 -1 -1</clus>
<clus scale="   90.027">  7  8 -1 -1</clus>
<clus scale="   96.185">  2  9  1 -1</clus>
<clus scale="  109.237">  2  5  1 -1</clus>
<clus scale="   96.185">  2  5  1 -1</clus>
</clustering>
</event>
<event>
 9    1  0.1399746E-005  0.1041807E+03  0.7546771E-02  0.1276234E+00
         -1   -1    0    0    0  501 -0.00000000000E+00  0.00000000000E+00  0.10638762731E+03  0.10638762731E+03  0.00000000000E+00 0.  1.
         21   -1    0    0  501  502  0.00000000000E+00 -0.00000000000E+00 -0.47208687557E+03  0.47208687557E+03  0.00000000000E+00 0.  1.
         23    2    1    2    0    0  0.39877614862E+02 -0.30982618396E+02  0.55188872763E+02  0.11262010238E+03  0.84186275448E+02 0.  0.
         23    2    1    2    0    0  0.43870418777E+02  0.47984418314E+02 -0.23526261291E+03  0.26150268507E+03  0.93851154590E+02 0.  0.
        -13    1    4    4    0    0  0.72117172360E+02  0.29792154553E+02 -0.13709932500E+03  0.15774880011E+03  0.00000000000E+00 0.  1.
         13    1    4    4    0    0 -0.28246753583E+02  0.18192263760E+02 -0.98163287914E+02  0.10375388495E+03  0.00000000000E+00 0. -1.
        -13    1    3    3    0    0  0.27472227191E+02 -0.17585044533E+00  0.70785195676E+02  0.75929560232E+02  0.00000000000E+00 0.  1.
         13    1    3    3    0    0  0.12405387671E+02 -0.30806767951E+02 -0.15596322913E+02  0.36690542150E+02  0.00000000000E+00 0. -1.
         -1    1    1    2    0  502 -0.83748033639E+02 -0.17001799918E+02 -0.18562550811E+03  0.20435171543E+03  0.00000000000E+00 0.  1.
<scales pt_clust_5="13000.00000" pt_clust_6="13000.00000" pt_clust_7="13000.00000" pt_clust_8="13000.00000" pt_clust_9="85.45639"></scales>
<clustering>
<clus scale="   84.186">  7  8 -1 -1</clus>
<clus scale="   85.456">  2  9  1 -1</clus>
<clus scale="   93.851">  5  6 -1 -1</clus>
<clus scale="   95.566">  1  7  2 -1</clus>
<clus scale="   85.456">  2  5  1 -1</clus>
</clustering>
</event>
<event>
 9    1  0.1399746E-005  0.2090281E+03  0.7546771E-02  0.1157163E+00
          2   -1    0    0  502    0 -0.00000000000E+00  0.00000000000E+00  0.43994215511E+03  0.43994215511E+03  0.00000000000E+00 0. -1.
         21   -1    0    0  501  502  0.00000000000E+00 -0.00000000000E+00 -0.26750490109E+03  0.26750490109E+03  0.00000000000E+00 0.  1.
         23    2    1    2    0    0  0.99448754429E+02 -0.44348373723E+02 -0.58067195965E+02  0.15813622922E+03  0.98885968343E+02 0.  0.
         23    2    1    2    0    0 -0.18468562087E+03 -0.11919358932E+03  0.27016333837E+03  0.36067327902E+03  0.93707494378E+02 0.  0.
        -11    1    3    3    0    0  0.12275707151E+02  0.30064453531E+02 -0.12568041310E+02  0.34821258084E+02  0.00000000000E+00 0. -1.
         11    1    3    3    0    0  0.87173047278E+02 -0.74412827254E+02 -0.45499154655E+02  0.12331497113E+03  0.00000000000E+00 0.  1.
        -13    1    4    4    0    0 -0.46358321268E+02  0.46731796321E+01  0.24231326267E+02  0.52517518328E+02  0.00000000000E+00 0. -1.
         13    1    4    4    0    0 -0.13832729961E+03 -0.12386676895E+03  0.24593201211E+03  0.30815576069E+03  0.00000000000E+00 0.  1.
          2    1    1    2  501    0  0.85236866446E+02  0.16354196304E+03 -0.39658888386E+02  0.18863754797E+03  0.00000000000E+00 0. -1.
<scales pt_clust_5="13000.00000" pt_clust_6="13000.00000" pt_clust_7="13000.00000" pt_clust_8="13000.00000" pt_clust_9="186.84665"></scales>
<clustering>
<clus scale="   93.707">  7  8 -1 -1</clus>
<clus scale="   98.886">  5  6 -1 -1</clus>
<clus scale="  147.089">  1  5  2 -1</clus>
<clus scale="  186.847">  2  9  1 -1</clus>
<clus scale="  186.847">  2  5  1 -1</clus>
</clustering>
</event>
<event>
 9    1  0.1399746E-005  0.1608177E+03  0.7546771E-02  0.1188242E+00
         21   -1    0    0  501  502  0.00000000000E+00  0.00000000000E+00  0.99087551250E+02  0.99087551250E+02  0.00000000000E+00 0. -1.
          1   -1    0    0  502    0 -0.00000000000E+00 -0.00000000000E+00 -0.11210037147E+04  0.11210037147E+04  0.00000000000E+00 0. -1.
         23    2    1    2    0    0  0.16993526228E+02 -0.11440241864E+03 -0.48235874126E+03  0.50478938837E+03  0.93625199685E+02 0.  0.
         23    2    1    2    0    0 -0.11345966432E+03  0.12053048975E+03 -0.58042744584E+03  0.61035604447E+03  0.90762253977E+02 0.  0.
        -11    1    3    3    0    0 -0.34505059155E+02 -0.79251954240E+02 -0.27675512669E+03  0.28993942730E+03  0.00000000000E+00 0. -1.
         11    1    3    3    0    0  0.51498585382E+02 -0.35150464395E+02 -0.20560361457E+03  0.21484996107E+03  0.00000000000E+00 0.  1.
        -11    1    4    4    0    0 -0.10851165836E+03  0.52504873778E+02 -0.36549168292E+03  0.38485804143E+03  0.00000000000E+00 0.  1.
         11    1    4    4    0    0 -0.49480059583E+01  0.68025615972E+02 -0.21493576292E+03  0.22549800303E+03  0.00000000000E+00 0. -1.
          1    1    1    2  501    0  0.96466138090E+02 -0.61280711146E+01  0.40870023655E+02  0.10494583311E+03  0.00000000000E+00 0. -1.
<scales pt_clust_5="13000.00000" pt_clust_6="13000.00000" pt_clust_7="13000.00000" pt_clust_8="13000.00000" pt_clust_9="96.66059"></scales>
<clustering>
<clus scale="   90.762">  7  8 -1 -1</clus>
<clus scale="   93.625">  5  6 -1 -1</clus>
<clus scale="   96.661">  1  9  2 -1</clus>
<clus scale="  159.168">  1  7  2 -1</clus>
<clus scale="   96.661">  1  5  2 -1</clus>
</clustering>
</event>
<event>
 9    1  0.1399746E-005  0.9955527E+02  0.7546771E-02  0.1281775E+00
         21   -1    0    0  501  502  0.00000000000E+00  0.00000000000E+00  0.13288767857E+03  0.13288767857E+03  0.00000000000E+00 0.  1.
          1   -1    0    0  502    0 -0.00000000000E+00 -0.00000000000E+00 -0.15845082710E+03  0.15845082710E+03  0.00000000000E+00 0. -1.
         23    2    1    2    0    0  0.22352146492E+02 -0.96146718608E+01 -0.56799771881E+02  0.11025629340E+03  0.91313612241E+02 0.  0.
         23    2    1    2    0    0 -0.53041929973E+02  0.20282816244E+02 -0.29322400863E+02  0.11235763494E+03  0.92409934352E+02 0.  0.
        -11    1    3    3    0    0  0.15393978978E+02 -0.48308112709E+02 -0.48317934169E+02  0.70037640627E+02  0.00000000000E+00 0. -1.
         11    1    3    3    0    0  0.69581675145E+01  0.38693440848E+02 -0.84818377117E+01  0.40218652772E+02  0.00000000000E+00 0.  1.
        -11    1    4    4    0    0  0.49162081348E+01  0.25347639139E+02 -0.45196514396E+02  0.52051866690E+02  0.00000000000E+00 0. -1.
         11    1    4    4    0    0 -0.57958138108E+02 -0.50648228946E+01  0.15874113533E+02  0.60305768251E+02  0.00000000000E+00 0.  1.
          1    1    1    2  501    0  0.30689783481E+02 -0.10668144383E+02  0.60559024221E+02  0.68724577331E+02  0.00000000000E+00 0. -1.
<scales pt_clust_5="13000.00000" pt_clust_6="13000.00000" pt_clust_7="13000.00000" pt_clust_8="13000.00000" pt_clust_9="32.49111"></scales>
<clustering>
<clus scale="   32.491">  1  9  2 -1</clus>
<clus scale="   91.314">  5  6 -1 -1</clus>
<clus scale="   92.410">  7  8 -1 -1</clus>
<clus scale="   98.538">  2  5  1 -1</clus>
<clus scale="   32.491">  1  5  2 -1</clus>
</clustering>
</event>
<event>
 9    1  0.1399746E-005  0.1496711E+03  0.7546771E-02  0.1208530E+00
          2   -1    0    0  502    0 -0.00000000000E+00  0.00000000000E+00  0.11298112381E+03  0.11298112381E+03  0.00000000000E+00 0. -1.
         21   -1    0    0  501  502  0.00000000000E+00 -0.00000000000E+00 -0.45715592182E+03  0.45715592182E+03  0.00000000000E+00 0. -1.
         23    2    1    2    0    0 -0.31129078622E+02 -0.99202304928E+02 -0.54834595815E+01  0.16085395727E+03  0.12261243984E+03 0.  0.
         23    2    1    2    0    0  0.43163310609E+02  0.51664392072E+02 -0.67154842934E+02  0.13335421295E+03  0.93494878961E+02 0.  0.
        -11    1    4    4    0    0  0.59542838550E+02  0.18341889728E+02 -0.70448548999E+01  0.62700913246E+02  0.00000000000E+00 0. -1.
         11    1    4    4    0    0 -0.16379527941E+02  0.33322502344E+02 -0.60109988034E+02  0.70653299707E+02  0.00000000000E+00 0.  1.
        -13    1    3    3    0    0  0.29489647404E+01 -0.42028722070E+02  0.56110724354E+02  0.70167822108E+02  0.00000000000E+00 0. -1.
         13    1    3    3    0    0 -0.34078043363E+02 -0.57173582859E+02 -0.61594183936E+02  0.90686135164E+02  0.00000000000E+00 0.  1.
          2    1    1    2  501    0 -0.12034231986E+02  0.47537912856E+02 -0.27153649549E+03  0.27592887540E+03  0.00000000000E+00 0. -1.
<scales pt_clust_5="13000.00000" pt_clust_6="13000.00000" pt_clust_7="13000.00000" pt_clust_8="13000.00000" pt_clust_9="49.03749"></scales>
<clustering>
<clus scale="   49.037">  2  9  1 -1</clus>
<clus scale="   93.495">  5  6 -1 -1</clus>
<clus scale="  122.612">  7  8 -1 -1</clus>
<clus scale="  126.921">  2  5  1 -1</clus>
<clus scale="   49.037">  2  5  1 -1</clus>
</clustering>
</event>
<event>
 9    1  0.1399746E-005  0.1344768E+03  0.7546771E-02  0.1221110E+00
         -1   -1    0    0    0  501 -0.00000000000E+00  0.00000000000E+00  0.42435605443E+03  0.42435605443E+03  0.00000000000E+00 0.  1.
         21   -1    0    0  501  502  0.00000000000E+00 -0.00000000000E+00 -0.56591302058E+02  0.56591302058E+02  0.00000000000E+00 0. -1.
         23    2    1    2    0    0 -0.80804914216E+02  0.13865352141E+02  0.13591515460E+03  0.18308762302E+03  0.91249472876E+02 0.  0.
         23    2    1    2    0    0  0.11686434478E+03 -0.85085904281E+00  0.18507836234E+03  0.23738487897E+03  0.91867194996E+02 0.  0.
        -13    1    4    4    0    0  0.44980307604E+02  0.74107519530E+00  0.72453416559E+01  0.45566130408E+02  0.00000000000E+00 0.  1.
         13    1    4    4    0    0  0.71884037174E+02 -0.15919342381E+01  0.17783302068E+03  0.19181874856E+03  0.00000000000E+00 0. -1.
        -13    1    3    3    0    0 -0.45607092712E+02  0.51966052617E+01  0.13931182473E+03  0.14667922867E+03  0.00000000000E+00 0.  1.
         13    1    3    3    0    0 -0.35197821504E+02  0.86687468794E+01 -0.33966701317E+01  0.36408394349E+02  0.00000000000E+00 0. -1.
         -1    1    1    2    0  502 -0.36059430562E+02 -0.13014493098E+02  0.46771235429E+02  0.60474854498E+02  0.00000000000E+00 0.  1.
<scales pt_clust_5="13000.00000" pt_clust_6="13000.00000" pt_clust_7="13000.00000" pt_clust_8="13000.00000" pt_clust_9="38.33616"></scales>
<clustering>
<clus scale="   38.336">  2  9  1 -1</clus>
<clus scale="   91.249">  7  8 -1 -1</clus>
<clus scale="   91.867">  5  6 -1 -1</clus>
<clus scale="  134.056">  1  7  2 -1</clus>
<clus scale="   38.336">  2  5  1 -1</clus>
</clustering>
</event>
<event>
 9    1  0.1399746E-005  0.1002920E+03  0.7546771E-02  0.1280128E+00
         21   -1    0    0  501  502  0.00000000000E+00  0.00000000000E+00  0.34634881874E+03  0.34634881874E+03  0.00000000000E+00 0. -1.
         -3   -1    0    0    0  501 -0.00000000000E+00 -0.00000000000E+00 -0.57725823776E+02  0.57725823776E+02  0.00000000000E+00 0.  1.
         23    2    1    2    0    0 -0.24989828746E+02  0.31236558873E+02  0.16299057751E+02  0.10147841388E+03  0.91825895303E+02 0.  0.
         23    2    1    2    0    0  0.40340938553E+02 -0.53581003527E+01  0.19761485252E+03  0.22205556485E+03  0.92741271193E+02 0.  0.
        -11    1    4    4    0    0 -0.23318643101E+02 -0.25442549619E+02  0.68995025425E+02  0.77145291370E+02  0.00000000000E+00 0.  1.
         11    1    4    4    0    0  0.63659581654E+02  0.20084449266E+02  0.12861982709E+03  0.14491027348E+03  0.00000000000E+00 0. -1.
        -13    1    3    3    0    0 -0.14801913949E+02 -0.22238184589E+02 -0.22256976806E+02  0.34770771158E+02  0.00000000000E+00 0.  1.
         13    1    3    3    0    0 -0.10187914798E+02  0.53474743463E+02  0.38556034557E+02  0.66707642719E+02  0.00000000000E+00 0. -1.
         -3    1    1    2    0  502 -0.15351109807E+02 -0.25878458520E+02  0.74709084693E+02  0.80540663787E+02  0.00000000000E+00 0.  1.
<scales pt_clust_5="13000.00000" pt_clust_6="13000.00000" pt_clust_7="13000.00000" pt_clust_8="13000.00000" pt_clust_9="30.08905"></scales>
<clustering>
<clus scale="   30.089">  1  9  2 -1</clus>
<clus scale="   91.826">  7  8 -1 -1</clus>
<clus scale="   92.741">  5  6 -1 -1</clus>
<clus scale="   99.446">  2  7  1 -1</clus>
<clus scale="   30.089">  1  5  2 -1</clus>
</clustering>
</event>
<event>
 9    1  0.1399746E-005  0.9924645E+02  0.7546771E-02  0.1282170E+00
          1   -1    0    0  502    0 -0.00000000000E+00  0.00000000000E+00  0.74857277035E+03  0.74857277035E+03  0.00000000000E+00 0. -1.
         21   -1    0    0  501  502  0.00000000000E+00 -0.00000000000E+00 -0.61115271315E+02  0.61115271315E+02  0.00000000000E+00 0.  1.
         23    2    1    2    0    0  0.38071981433E+02  0.20907683664E+02  0.39777729913E+03  0.41055494330E+03  0.91880219623E+02 0.  0.
         23    2    1    2    0    0 -0.12930634085E+02 -0.33568514040E+02  0.33317262556E+03  0.34732600366E+03  0.91308860267E+02 0.  0.
        -11    1    4    4    0    0  0.22423021340E+02  0.10710158464E+02  0.30241399323E+02  0.39141303164E+02  0.00000000000E+00 0.  1.
         11    1    4    4    0    0 -0.35353655425E+02 -0.44278672504E+02  0.30293122624E+03  0.30818470050E+03  0.00000000000E+00 0. -1.
        -11    1    3    3    0    0  0.17002781412E+02 -0.35398686153E+02  0.20093704156E+03  0.20473850695E+03  0.00000000000E+00 0. -1.
         11    1    3    3    0    0  0.21069200021E+02  0.56306369817E+02  0.19684025758E+03  0.20581643636E+03  0.00000000000E+00 0.  1.
          1    1    1    2  501    0 -0.25141347348E+02  0.12660830376E+02 -0.43492425656E+02  0.51807094705E+02  0.00000000000E+00 0. -1.
<scales pt_clust_5="13000.00000" pt_clust_6="13000.00000" pt_clust_7="13000.00000" pt_clust_8="13000.00000" pt_clust_9="28.14932"></scales>
<clustering>
<clus scale="   28.149">  2  9  1 -1</clus>
<clus scale="   91.309">  5  6 -1 -1</clus>
<clus scale="   91.880">  7  8 -1 -1</clus>
<clus scale="   98.718">  2  5  1 -1</clus>
<clus scale="   28.149">  2  5  1 -1</clus>
</clustering>
</event>
<event>
 9    1  0.1399746E-005  0.1042901E+03  0.7546771E-02  0.1276761E+00
         -4   -1    0    0    0  501 -0.00000000000E+00  0.00000000000E+00  0.15778069434E+03  0.15778069434E+03  0.00000000000E+00 0. -1.
         21   -1    0    0  501  502  0.00000000000E+00 -0.00000000000E+00 -0.85101163888E+02  0.85101163888E+02  0.00000000000E+00 0.  1.
         23    2    1    2    0    0 -0.23675044476E+02 -0.74581811691E+01  0.64075829531E+02  0.12365164936E+03  0.10280022501E+03 0.  0.
         23    2    1    2    0    0  0.72637917026E+01 -0.74904179535E+01 -0.46778620786E+01  0.93361506758E+02  0.92658618161E+02 0.  0.
        -11    1    4    4    0    0  0.48047849991E+02  0.88435313783E+01 -0.70662557157E+01  0.49363305256E+02  0.00000000000E+00 0.  1.
         11    1    4    4    0    0 -0.40784058288E+02 -0.16333949332E+02  0.23883936371E+01  0.43998201502E+02  0.00000000000E+00 0. -1.
        -13    1    3    3    0    0 -0.50596063459E+02  0.65277261007E+01 -0.18834562205E+01  0.51050173878E+02  0.00000000000E+00 0.  1.
         13    1    3    3    0    0  0.26921018983E+02 -0.13985907270E+02  0.65959285752E+02  0.72601475482E+02  0.00000000000E+00 0. -1.
         -4    1    1    2    0  502  0.16411252773E+02  0.14948599123E+02  0.13281563004E+02  0.25868702116E+02  0.00000000000E+00 0. -1.
<scales pt_clust_5="13000.00000" pt_clust_6="13000.00000" pt_clust_7="13000.00000" pt_clust_8="13000.00000" pt_clust_9="22.19888"></scales>
<clustering>
<clus scale="   22.199">  2  9  1 -1</clus>
<clus scale="   92.659">  5  6 -1 -1</clus>
<clus scale="   94.309">  2  5  1 -1</clus>
<clus scale="  102.800">  7  8 -1 -1</clus>
<clus scale="   22.199">  2  5  1 -1</clus>
</clustering>
</event>
<event>
 9    1  0.1399746E-005  0.9618704E+02  0.7546771E-02  0.1291894E+00
         21   -1    0    0  501  502  0.00000000000E+00  0.00000000000E+00  0.32667287092E+03  0.32667287092E+03  0.00000000000E+00 0.  1.
          3   -1    0    0  502    0 -0.00000000000E+00 -0.00000000000E+00 -0.44154289235E+02  0.44154289235E+02  0.00000000000E+00 0. -1.
         23    2    1    2    0    0  0.34243001748E+02 -0.30025965794E+01  0.51343671641E+02  0.11014038725E+03  0.91176386911E+02 0.  0.
         23    2    1    2    0    0 -0.22111450092E+02 -0.21309805086E+02  0.15014657644E+03  0.17522415964E+03  0.84949912812E+02 0.  0.
        -11    1    4    4    0    0  0.16085836804E+02  0.24437013676E+02  0.35407999361E+02  0.45930906826E+02  0.00000000000E+00 0. -1.
         11    1    4    4    0    0 -0.38197286896E+02 -0.45746818762E+02  0.11473857708E+03  0.12929325282E+03  0.00000000000E+00 0.  1.
        -13    1    3    3    0    0  0.64736201068E+02  0.73908353475E+01  0.32403232769E+02  0.72769290705E+02  0.00000000000E+00 0. -1.
         13    1    3    3    0    0 -0.30493199320E+02 -0.10393431927E+02  0.18940438872E+02  0.37371096540E+02  0.00000000000E+00 0.  1.
          3    1    1    2  501    0 -0.12131551656E+02  0.24312401666E+02  0.81028333602E+02  0.85462613268E+02  0.00000000000E+00 0. -1.
<scales pt_clust_5="13000.00000" pt_clust_6="13000.00000" pt_clust_7="13000.00000" pt_clust_8="13000.00000" pt_clust_9="27.17108"></scales>
<clustering>
<clus scale="   27.171">  1  9  2 -1</clus>
<clus scale="   84.950">  5  6 -1 -1</clus>
<clus scale="   90.307">  1  5  2 -1</clus>
<clus scale="   91.176">  7  8 -1 -1</clus>
<clus scale="   27.171">  1  5  2 -1</clus>
</clustering>
</event>
<event>
 9    1  0.1399746E-005  0.1122944E+03  0.7546771E-02  0.1257038E+00
          3   -1    0    0  502    0 -0.00000000000E+00  0.00000000000E+00  0.32114256514E+03  0.32114256514E+03  0.00000000000E+00 0. -1.
         21   -1    0    0  501  502  0.00000000000E+00 -0.00000000000E+00 -0.90965233158E+02  0.90965233158E+02  0.00000000000E+00 0. -1.
         23    2    1    2    0    0 -0.72495548115E+02  0.62402966089E+02  0.17333377604E+03  0.21643139352E+03  0.87454076566E+02 0.  0.
         23    2    1    2    0    0 -0.31869406594E+01 -0.46201280576E+02  0.61916847794E+02  0.11811306286E+03  0.89287651216E+02 0.  0.
        -11    1    3    3    0    0 -0.58672047131E+02 -0.55549522104E+00  0.49251996729E+02  0.76605984565E+02  0.00000000000E+00 0. -1.
         11    1    3    3    0    0 -0.13823500985E+02  0.62958461310E+02  0.12408177932E+03  0.13982540895E+03  0.00000000000E+00 0.  1.
        -13    1    4    4    0    0  0.23306167424E+02 -0.64293939516E+02  0.44740895255E+02  0.81722920938E+02  0.00000000000E+00 0.  1.
         13    1    4    4    0    0 -0.26493108083E+02  0.18092658940E+02  0.17175952539E+02  0.36390141921E+02  0.00000000000E+00 0. -1.
          3    1    1    2  501    0  0.75682488775E+02 -0.16201685512E+02 -0.50732918522E+01  0.77563341926E+02  0.00000000000E+00 0. -1.
<scales pt_clust_5="13000.00000" pt_clust_6="13000.00000" pt_clust_7="13000.00000" pt_clust_8="13000.00000" pt_clust_9="77.39725"></scales>
<clustering>
<clus scale="   77.397">  2  9  1 -1</clus>
<clus scale="   87.454">  5  6 -1 -1</clus>
<clus scale="   89.288">  7  8 -1 -1</clus>
<clus scale="  110.842">  1  5  2 -1</clus>
<clus scale="   77.397">  2  5  1 -1</clus>
</clustering>
</event>
<event>
 9    1  0.1399746E-005  0.9248768E+02  0.7546771E-02  0.1297196E+00
         21   -1    0    0  501  502  0.00000000000E+00  0.00000000000E+00  0.56658068979E+03  0.56658068979E+03  0.00000000000E+00 0. -1.
          1   -1    0    0  502    0 -0.00000000000E+00 -0.00000000000E+00 -0.31023750228E+03  0.31023750228E+03  0.00000000000E+00 0. -1.
         23    2    1    2    0    0  0.24405418884E+02  0.11262608124E+02 -0.21584758352E+03  0.23595290492E+03  0.91439177694E+02 0.  0.
         23    2    1    2    0    0  0.18543113279E+02  0.38985243547E+02 -0.51433029965E+02  0.11308568545E+03  0.90990765563E+02 0.  0.
        -11    1    3    3    0    0 -0.35095421637E+02  0.53525647127E+01 -0.78534732620E+02  0.86186093986E+02  0.00000000000E+00 0.  1.
         11    1    3    3    0    0  0.59500840521E+02  0.59100434115E+01 -0.13731285090E+03  0.14976681094E+03  0.00000000000E+00 0. -1.
        -13    1    4    4    0    0 -0.25260057648E+02  0.39595795727E+02 -0.50923163832E+02  0.69275292611E+02  0.00000000000E+00 0. -1.
         13    1    4    4    0    0  0.43803170927E+02 -0.61055218020E+00 -0.50986613279E+00  0.43810392839E+02  0.00000000000E+00 0.  1.
          1    1    1    2  501    0 -0.42948532164E+02 -0.50247851671E+02  0.52362380099E+03  0.52777960170E+03  0.00000000000E+00 0. -1.
<scales pt_clust_5="13000.00000" pt_clust_6="13000.00000" pt_clust_7="13000.00000" pt_clust_8="13000.00000" pt_clust_9="66.10161"></scales>
<clustering>
<clus scale="   66.102">  1  9  2 -1</clus>
<clus scale="   90.991">  7  8 -1 -1</clus>
<clus scale="   91.439">  5  6 -1 -1</clus>
<clus scale="   92.044">  1  7  2 -1</clus>
<clus scale="   66.102">  1  5  2 -1</clus>
</clustering>
</event>
<event>
 9    1  0.1399746E-005  0.1585981E+03  0.7546771E-02  0.1190616E+00
         21   -1    0    0  501  502  0.00000000000E+00  0.00000000000E+00  0.31616989491E+03  0.31616989491E+03  0.00000000000E+00 0.  1.
          1   -1    0    0  502    0 -0.00000000000E+00 -0.00000000000E+00 -0.17688100512E+03  0.17688100512E+03  0.00000000000E+00 0. -1.
         23    2    1    2    0    0  0.56010134081E+02  0.96458562890E+02 -0.15124176631E+02  0.14508407093E+03  0.91538284032E+02 0.  0.
         23    2    1    2    0    0 -0.15459425465E+03 -0.10588393425E+03  0.12816427061E+03  0.24551359228E+03  0.93488248633E+02 0.  0.
        -11    1    4    4    0    0 -0.91405452107E+02 -0.10644763765E+03  0.11393309468E+03  0.18073960911E+03  0.00000000000E+00 0.  1.
         11    1    4    4    0    0 -0.63188802542E+02  0.56370340259E+00  0.14231175928E+02  0.64773983176E+02  0.00000000000E+00 0. -1.
        -11    1    3    3    0    0  0.32813952253E+02  0.51458393422E+02  0.37844902579E+02  0.71811965349E+02  0.00000000000E+00 0.  1.
         11    1    3    3    0    0  0.23196181829E+02  0.45000169469E+02 -0.52969079210E+02  0.73272105579E+02  0.00000000000E+00 0. -1.
          1    1    1    2  501    0  0.98584120567E+02  0.94253713596E+01  0.26248795816E+02  0.10245323682E+03  0.00000000000E+00 0. -1.
<scales pt_clust_5="13000.00000" pt_clust_6="13000.00000" pt_clust_7="13000.00000" pt_clust_8="13000.00000" pt_clust_9="99.03371"></scales>
<clustering>
<clus scale="   91.538">  7  8 -1 -1</clus>
<clus scale="   93.488">  5  6 -1 -1</clus>
<clus scale="   99.034">  1  9  2 -1</clus>
<clus scale="  157.457">  2  7  1 -1</clus>
<clus scale="   99.034">  1  5  2 -1</clus>
</clustering>
</event>
<event>
 9    1  0.1399746E-005  0.2674726E+03  0.7546771E-02  0.1103132E+00
         21   -1    0    0  501  502  0.00000000000E+00  0.00000000000E+00  0.81994737740E+02  0.81994737740E+02  0.00000000000E+00 0.  1.
          2   -1    0    0  502    0 -0.00000000000E+00 -0.00000000000E+00 -0.17226910477E+04  0.17226910477E+04  0.00000000000E+00 0. -1.
         23    2    1    2    0    0  0.66803749330E+02  0.27693460186E+03 -0.11139070343E+04  0.11536939951E+04  0.95212596536E+02 0.  0.
         23    2    1    2    0    0  0.42011314651E+02 -0.20903720528E+03 -0.43832818030E+03  0.49518376746E+03  0.87257470542E+02 0.  0.
        -13    1    4    4    0    0  0.16312517858E+02 -0.19709921994E+03 -0.34520769147E+03  0.39784739661E+03  0.00000000000E+00 0. -1.
         13    1    4    4    0    0  0.25698796793E+02 -0.11937985334E+02 -0.93120488833E+02  0.97336370853E+02  0.00000000000E+00 0.  1.
        -13    1    3    3    0    0  0.76616842033E+02  0.23279853102E+03 -0.10257032480E+04  0.10545769054E+04  0.00000000000E+00 0.  1.
         13    1    3    3    0    0 -0.98130927027E+01  0.44136070836E+02 -0.88203786334E+02  0.99117089651E+02  0.00000000000E+00 0. -1.
          2    1    1    2  501    0 -0.10881506398E+03 -0.67897396578E+02 -0.88461095343E+02  0.15580802290E+03  0.00000000000E+00 0. -1.
<scales pt_clust_5="13000.00000" pt_clust_6="13000.00000" pt_clust_7="13000.00000" pt_clust_8="13000.00000" pt_clust_9="128.26057"></scales>
<clustering>
<clus scale="   87.257">  5  6 -1 -1</clus>
<clus scale="   95.213">  7  8 -1 -1</clus>
<clus scale="  128.261">  1  9  2 -1</clus>
<clus scale="  264.745">  1  5  2 -1</clus>
<clus scale="  128.261">  1  5  2 -1</clus>
</clustering>
</event>
<event>
 9    1  0.1399746E-005  0.2874429E+03  0.7546771E-02  0.1091783E+00
          1   -1    0    0  502    0 -0.00000000000E+00  0.00000000000E+00  0.21424796896E+04  0.21424796896E+04  0.00000000000E+00 0. -1.
         21   -1    0    0  501  502  0.00000000000E+00 -0.00000000000E+00 -0.87358430731E+02  0.87358430731E+02  0.00000000000E+00 0. -1.
         23    2    1    2    0    0 -0.13699818038E+03 -0.23260099429E+03  0.14178840752E+04  0.14463423647E+04  0.92947626778E+02 0.  0.
         23    2    1    2    0    0  0.11904011261E+03  0.25018675262E+03  0.67662660854E+03  0.73677019638E+03  0.90789841319E+02 0.  0.
        -11    1    4    4    0    0 -0.58818982792E+01  0.50814483315E+02  0.75081315853E+02  0.90851045300E+02  0.00000000000E+00 0.  1.
         11    1    4    4    0    0  0.12492201089E+03  0.19937226931E+03  0.60154529269E+03  0.64591915108E+03  0.00000000000E+00 0. -1.
        -13    1    3    3    0    0 -0.52095150293E+02 -0.17511951193E+03  0.93779738727E+03  0.95542905948E+03  0.00000000000E+00 0.  1.
         13    1    3    3    0    0 -0.84903030091E+02 -0.57481482358E+02  0.48008668791E+03  0.49091330522E+03  0.00000000000E+00 0. -1.
          1    1    1    2  501    0  0.17958067769E+02 -0.17585758333E+02 -0.39389424866E+02  0.46725559230E+02  0.00000000000E+00 0. -1.
<scales pt_clust_5="13000.00000" pt_clust_6="13000.00000" pt_clust_7="13000.00000" pt_clust_8="13000.00000" pt_clust_9="25.13466"></scales>
<clustering>
<clus scale="   25.135">  2  9  1 -1</clus>
<clus scale="   90.790">  5  6 -1 -1</clus>
<clus scale="   92.948">  7  8 -1 -1</clus>
<clus scale="  286.752">  2  5  1 -1</clus>
<clus scale="   25.135">  2  5  1 -1</clus>
</clustering>
</event>
<event>
 9    1  0.1399746E-005  0.1419576E+03  0.7546771E-02  0.1211078E+00
          1   -1    0    0  502    0 -0.00000000000E+00  0.00000000000E+00  0.46768536136E+03  0.46768536136E+03  0.00000000000E+00 0. -1.
         21   -1    0    0  501  502  0.00000000000E+00 -0.00000000000E+00 -0.68385248606E+02  0.68385248606E+02  0.00000000000E+00 0. -1.
         23    2    1    2    0    0 -0.94851492766E+02  0.87460597552E+02  0.21856652372E+03  0.26990982603E+03  0.91835870380E+02 0.  0.
         23    2    1    2    0    0  0.32412059060E+02 -0.80509965860E+02  0.83653130483E+02  0.15052510781E+03  0.90153012519E+02 0.  0.
        -11    1    4    4    0    0  0.23426317972E+02  0.15678361668E+02  0.14352424569E+02  0.31632190713E+02  0.00000000000E+00 0.  1.
         11    1    4    4    0    0  0.89857410879E+01 -0.96188327528E+02  0.69300705914E+02  0.11889291710E+03  0.00000000000E+00 0. -1.
        -11    1    3    3    0    0  0.14678601084E+02  0.24848920551E+02  0.65318954074E+02  0.71410755098E+02  0.00000000000E+00 0.  1.
         11    1    3    3    0    0 -0.10953009385E+03  0.62611677001E+02  0.15324756965E+03  0.19849907093E+03  0.00000000000E+00 0. -1.
          1    1    1    2  501    0  0.62439433706E+02 -0.69506316921E+01  0.97080458552E+02  0.11563567613E+03  0.00000000000E+00 0. -1.
<scales pt_clust_5="13000.00000" pt_clust_6="13000.00000" pt_clust_7="13000.00000" pt_clust_8="13000.00000" pt_clust_9="62.82514"></scales>
<clustering>
<clus scale="   62.825">  2  9  1 -1</clus>
<clus scale="   90.153">  5  6 -1 -1</clus>
<clus scale="   91.836">  7  8 -1 -1</clus>
<clus scale="  140.875">  2  5  1 -1</clus>
<clus scale="   62.825">  2  5  1 -1</clus>
</clustering>
</event>
<event>
 9    1  0.1399746E-005  0.1111100E+03  0.7546771E-02  0.1259179E+00
         21   -1    0    0  501  502  0.00000000000E+00  0.00000000000E+00  0.86473833139E+02  0.86473833139E+02  0.00000000000E+00 0. -1.
         -1   -1    0    0    0  501 -0.00000000000E+00 -0.00000000000E+00 -0.18394274531E+03  0.18394274531E+03  0.00000000000E+00 0.  1.
         23    2    1    2    0    0 -0.69482648327E+02  0.14810673476E+02 -0.90807640073E+02  0.14687164355E+03  0.90983832161E+02 0.  0.
         23    2    1    2    0    0  0.51003431519E+02 -0.63020949204E+01 -0.66039800224E+01  0.10320087814E+03  0.89251007112E+02 0.  0.
        -13    1    4    4    0    0 -0.18097011274E+02  0.21476053532E+02 -0.60279819417E+01  0.28723844775E+02  0.00000000000E+00 0. -1.
         13    1    4    4    0    0  0.69100442794E+02 -0.27778148452E+02 -0.57599808072E+00  0.74477033369E+02  0.00000000000E+00 0.  1.
        -13    1    3    3    0    0 -0.20249952653E+02  0.21345788296E+02 -0.92612868368E+02  0.97174310637E+02  0.00000000000E+00 0. -1.
         13    1    3    3    0    0 -0.49232695674E+02 -0.65351148201E+01  0.18052282944E+01  0.49697332909E+02  0.00000000000E+00 0.  1.
         -1    1    1    2    0  502  0.18479216807E+02 -0.85085785559E+01 -0.57292070471E-01  0.20344056755E+02  0.00000000000E+00 0.  1.
<scales pt_clust_5="13000.00000" pt_clust_6="13000.00000" pt_clust_7="13000.00000" pt_clust_8="13000.00000" pt_clust_9="20.34398"></scales>
<clustering>
<clus scale="   20.344">  1  9  2 -1</clus>
<clus scale="   89.251">  5  6 -1 -1</clus>
<clus scale="   90.984">  7  8 -1 -1</clus>
<clus scale="  109.696">  1  5  2 -1</clus>
<clus scale="   20.344">  1  5  2 -1</clus>
</clustering>
</event>
<event>
 9    1  0.1399746E-005  0.1399175E+03  0.7546771E-02  0.1214321E+00
         21   -1    0    0  501  502  0.00000000000E+00  0.00000000000E+00  0.54278497547E+02  0.54278497547E+02  0.00000000000E+00 0. -1.
          3   -1    0    0  502    0 -0.00000000000E+00 -0.00000000000E+00 -0.78907036989E+03  0.78907036989E+03  0.00000000000E+00 0. -1.
         23    2    1    2    0    0  0.10542746183E+03 -0.45681850345E+02 -0.57074072887E+03  0.58920414481E+03  0.90635332600E+02 0.  0.
         23    2    1    2    0    0 -0.53724464579E+02  0.78210135497E+02 -0.13553100906E+03  0.18673042646E+03  0.86582067201E+02 0.  0.
        -11    1    4    4    0    0 -0.70862474987E+02  0.29954440579E+02 -0.74966711032E+02  0.10741865124E+03  0.00000000000E+00 0. -1.
         11    1    4    4    0    0  0.17138010408E+02  0.48255694919E+02 -0.60564298028E+02  0.79311775219E+02  0.00000000000E+00 0.  1.
        -13    1    3    3    0    0  0.26316585083E+02  0.27663455181E+02 -0.13363228249E+03  0.13897991340E+03  0.00000000000E+00 0. -1.
         13    1    3    3    0    0  0.79110876749E+02 -0.73345305526E+02 -0.43710844637E+03  0.45022423141E+03  0.00000000000E+00 0.  1.
          3    1    1    2  501    0 -0.51702997254E+02 -0.32528285153E+02 -0.28520134413E+02  0.67414296161E+02  0.00000000000E+00 0. -1.
<scales pt_clust_5="13000.00000" pt_clust_6="13000.00000" pt_clust_7="13000.00000" pt_clust_8="13000.00000" pt_clust_9="61.08428"></scales>
<clustering>
<clus scale="   61.084">  1  9  2 -1</clus>
<clus scale="   86.582">  5  6 -1 -1</clus>
<clus scale="   90.635">  7  8 -1 -1</clus>
<clus scale="  137.327">  1  5  2 -1</clus>
<clus scale="   61.084">  1  5  2 -1</clus>
</clustering>
</event>
<event>
 9    1  0.1399746E-005  0.1061933E+03  0.7546771E-02  0.1268949E+00
         21   -1    0    0  501  502  0.00000000000E+00  0.00000000000E+00  0.13060544120E+03  0.13060544120E+03  0.00000000000E+00 0. -1.
          2   -1    0    0  502    0 -0.00000000000E+00 -0.00000000000E+00 -0.45286794778E+03  0.45286794778E+03  0.00000000000E+00 0. -1.
         23    2    1    2    0    0 -0.71036468473E+01 -0.42245227447E+02 -0.22760700938E+03  0.24945380517E+03  0.92666764019E+02 0.  0.
         23    2    1    2    0    0 -0.11706868784E+02  0.52695435422E+02 -0.19917508176E+03  0.22730788857E+03  0.95311611692E+02 0.  0.
        -11    1    4    4    0    0  0.41872507803E+02  0.21311038024E+02 -0.96188738156E+02  0.10705017795E+03  0.00000000000E+00 0. -1.
         11    1    4    4    0    0 -0.53579376588E+02  0.31384397398E+02 -0.10298634360E+03  0.12025771062E+03  0.00000000000E+00 0.  1.
        -11    1    3    3    0    0 -0.47169422647E+02 -0.29970769994E+02 -0.93252969751E+02  0.10871668618E+03  0.00000000000E+00 0.  1.
         11    1    3    3    0    0  0.40065775800E+02 -0.12274457453E+02 -0.13435403963E+03  0.14073711899E+03  0.00000000000E+00 0. -1.
          2    1    1    2  501    0  0.18810515632E+02 -0.10450207976E+02  0.10451958456E+03  0.10671169524E+03  0.00000000000E+00 0. -1.
<scales pt_clust_5="13000.00000" pt_clust_6="13000.00000" pt_clust_7="13000.00000" pt_clust_8="13000.00000" pt_clust_9="21.51842"></scales>
<clustering>
<clus scale="   21.518">  1  9  2 -1</clus>
<clus scale="   92.667">  7  8 -1 -1</clus>
<clus scale="   95.312">  5  6 -1 -1</clus>
<clus scale="  103.826">  2  7  1 -1</clus>
<clus scale="   21.518">  1  5  2 -1</clus>
</clustering>
</event>
<event>
 9    1  0.1399746E-005  0.9186236E+02  0.7546771E-02  0.1298541E+00
         21   -1    0    0  501  502  0.00000000000E+00  0.00000000000E+00  0.45445713445E+02  0.45445713445E+02  0.00000000000E+00 0. -1.
          2   -1    0    0  502    0 -0.00000000000E+00 -0.00000000000E+00 -0.46028395641E+03  0.46028395641E+03  0.00000000000E+00 0. -1.
         23    2    1    2    0    0 -0.50908390183E+01 -0.26725176992E+01 -0.30238548383E+03  0.31599659924E+03  0.91563152548E+02 0.  0.
         23    2    1    2    0    0 -0.21345505540E+02  0.16791094560E+02 -0.12505783338E+03  0.15721995907E+03  0.91329526307E+02 0.  0.
        -13    1    4    4    0    0 -0.30670865261E+02 -0.31569031376E+02 -0.75226541177E+02  0.87156974565E+02  0.00000000000E+00 0. -1.
         13    1    4    4    0    0  0.93253597205E+01  0.48360125936E+02 -0.49831292204E+02  0.70062984501E+02  0.00000000000E+00 0.  1.
        -13    1    3    3    0    0 -0.15532262826E+02  0.38507238759E+02 -0.86233307211E+02  0.95709152634E+02  0.00000000000E+00 0.  1.
         13    1    3    3    0    0  0.10441423808E+02 -0.41179756458E+02 -0.21615217662E+03  0.22028744660E+03  0.00000000000E+00 0. -1.
          2    1    1    2  501    0  0.26436344558E+02 -0.14118576861E+02  0.12605074246E+02  0.32513111554E+02  0.00000000000E+00 0. -1.
<scales pt_clust_5="13000.00000" pt_clust_6="13000.00000" pt_clust_7="13000.00000" pt_clust_8="13000.00000" pt_clust_9="29.97023"></scales>
<clustering>
<clus scale="   29.970">  1  9  2 -1</clus>
<clus scale="   91.330">  5  6 -1 -1</clus>
<clus scale="   91.563">  7  8 -1 -1</clus>
<clus scale="   91.629">  1  5  2 -1</clus>
<clus scale="   29.970">  1  5  2 -1</clus>
</clustering>
</event>
<event>
 9    1  0.1399746E-005  0.9491124E+02  0.7546771E-02  0.1293104E+00
         -4   -1    0    0    0  501 -0.00000000000E+00  0.00000000000E+00  0.19186758389E+03  0.19186758389E+03  0.00000000000E+00 0.  1.
         21   -1    0    0  501  502  0.00000000000E+00 -0.00000000000E+00 -0.36160966231E+03  0.36160966231E+03  0.00000000000E+00 0.  1.
         23    2    1    2    0    0 -0.27077175618E+01  0.24548043564E+02  0.12471629765E+03  0.15829005910E+03  0.94295544617E+02 0.  0.
         23    2    1    2    0    0 -0.22334680893E+01  0.28675979824E+02  0.23194120431E+00  0.95688280468E+02  0.91262769099E+02 0.  0.
        -11    1    4    4    0    0  0.21963734242E+02  0.47541184791E+02  0.23282809513E+02  0.57311945456E+02  0.00000000000E+00 0.  1.
         11    1    4    4    0    0 -0.24197202331E+02 -0.18865204967E+02 -0.23050868308E+02  0.38376335011E+02  0.00000000000E+00 0. -1.
        -11    1    3    3    0    0 -0.40507311070E+02  0.37251494610E+02  0.53973595366E+02  0.77082197021E+02  0.00000000000E+00 0. -1.
         11    1    3    3    0    0  0.37799593508E+02 -0.12703451046E+02  0.70742702279E+02  0.81207862080E+02  0.00000000000E+00 0.  1.
         -4    1    1    2    0  502  0.49411856511E+01 -0.53224023388E+02 -0.29469031727E+03  0.29949890663E+03  0.00000000000E+00 0.  1.
<scales pt_clust_5="13000.00000" pt_clust_6="13000.00000" pt_clust_7="13000.00000" pt_clust_8="13000.00000" pt_clust_9="53.45289"></scales>
<clustering>
<clus scale="   53.453">  2  9  1 -1</clus>
<clus scale="   91.263">  5  6 -1 -1</clus>
<clus scale="   91.899">  2  5  1 -1</clus>
<clus scale="   94.296">  7  8 -1 -1</clus>
<clus scale="   53.453">  2  5  1 -1</clus>
</clustering>
</event>
<event>
 9    1  0.1399746E-005  0.9334711E+02  0.7546771E-02  0.1295706E+00
          1   -1    0    0  502    0 -0.00000000000E+00  0.00000000000E+00  0.24706378619E+03  0.24706378619E+03  0.00000000000E+00 0. -1.
         21   -1    0    0  501  502  0.00000000000E+00 -0.00000000000E+00 -0.12068243051E+03  0.12068243051E+03  0.00000000000E+00 0. -1.
         23    2    1    2    0    0 -0.33076601995E+01 -0.22526596312E+02  0.19246362510E+03  0.21427847863E+03  0.91403672016E+02 0.  0.
         23    2    1    2    0    0  0.32054951435E+00  0.19835274433E+01 -0.64371018004E+01  0.90313272433E+02  0.90061166797E+02 0.  0.
        -11    1    3    3    0    0 -0.31930747627E+02 -0.18479888716E+02  0.25540875553E+02  0.44871095987E+02  0.00000000000E+00 0.  1.
         11    1    3    3    0    0  0.28623087428E+02 -0.40467075960E+01  0.16692274955E+03  0.16940738264E+03  0.00000000000E+00 0. -1.
        -13    1    4    4    0    0  0.39389782814E+02  0.11357180388E+02  0.16336802473E+02  0.44129713930E+02  0.00000000000E+00 0. -1.
         13    1    4    4    0    0 -0.39069233299E+02 -0.93736529449E+01 -0.22773904274E+02  0.46183558503E+02  0.00000000000E+00 0.  1.
          1    1    1    2  501    0  0.29871106852E+01  0.20543068869E+02 -0.59645167620E+02  0.63154465632E+02  0.00000000000E+00 0. -1.
<scales pt_clust_5="13000.00000" pt_clust_6="13000.00000" pt_clust_7="13000.00000" pt_clust_8="13000.00000" pt_clust_9="20.75911"></scales>
<clustering>
<clus scale="   20.759">  2  9  1 -1</clus>
<clus scale="   90.061">  7  8 -1 -1</clus>
<clus scale="   91.404">  5  6 -1 -1</clus>
<clus scale="   92.033">  2  7  1 -1</clus>
<clus scale="   20.759">  2  5  1 -1</clus>
</clustering>
</event>
<event>
 9    1  0.1399746E-005  0.1434310E+03  0.7546771E-02  0.1214208E+00
         21   -1    0    0  501  502  0.00000000000E+00  0.00000000000E+00  0.84574393886E+02  0.84574393886E+02  0.00000000000E+00 0. -1.
          3   -1    0    0  502    0 -0.00000000000E+00 -0.00000000000E+00 -0.43056932202E+03  0.43056932202E+03  0.00000000000E+00 0. -1.
         23    2    1    2    0    0  0.72277185225E+02 -0.74426887478E+02 -0.26474912373E+03  0.29881163244E+03  0.91831040943E+02 0.  0.
         23    2    1    2    0    0 -0.61107142316E+02  0.11165262650E+03 -0.98844900514E+02  0.17366765228E+03  0.64728256918E+02 0.  0.
        -11    1    3    3    0    0  0.65830692045E+02 -0.50431558929E+01 -0.15905918232E+03  0.17221770210E+03  0.00000000000E+00 0. -1.
         11    1    3    3    0    0  0.64464931803E+01 -0.69383731585E+02 -0.10568994141E+03  0.12659393034E+03  0.00000000000E+00 0.  1.
        -13    1    4    4    0    0  0.18745451010E+01  0.42005459887E+02 -0.75854020377E+01  0.42725997984E+02  0.00000000000E+00 0.  1.
         13    1    4    4    0    0 -0.62981687417E+02  0.69647166616E+02 -0.91259498476E+02  0.13094165430E+03  0.00000000000E+00 0. -1.
          3    1    1    2  501    0 -0.11170042910E+02 -0.37225739025E+02  0.17599096112E+02  0.42664431187E+02  0.00000000000E+00 0. -1.
<scales pt_clust_5="13000.00000" pt_clust_6="13000.00000" pt_clust_7="13000.00000" pt_clust_8="13000.00000" pt_clust_9="38.86548"></scales>
<clustering>
<clus scale="   38.865">  1  9  2 -1</clus>
<clus scale="   64.728">  7  8 -1 -1</clus>
<clus scale="   91.831">  5  6 -1 -1</clus>
<clus scale="  127.786">  1  7  2 -1</clus>
<clus scale="   38.865">  1  5  2 -1</clus>
</clustering>
</event>
<event>
 9    1  0.1399746E-005  0.1143002E+03  0.7546771E-02  0.1252847E+00
         21   -1    0    0  501  502  0.00000000000E+00  0.00000000000E+00  0.30242224387E+03  0.30242224387E+03  0.00000000000E+00 0.  1.
         -1   -1    0    0    0  501 -0.00000000000E+00 -0.00000000000E+00 -0.31465388440E+03  0.31465388440E+03  0.00000000000E+00 0.  1.
         23    2    1    2    0    0 -0.37121310158E+02 -0.49671811452E+02 -0.15727616813E+03  0.19258311069E+03  0.92234380482E+02 0.  0.
         23    2    1    2    0    0  0.38256633169E+01  0.84336127065E+02 -0.10907663263E+03  0.16586630019E+03  0.92123285470E+02 0.  0.
        -11    1    4    4    0    0 -0.28981398036E+02 -0.30289158277E+01 -0.12936873746E+02  0.31881945761E+02  0.00000000000E+00 0.  1.
         11    1    4    4    0    0  0.32807061353E+02  0.87365042893E+02 -0.96139758881E+02  0.13398435443E+03  0.00000000000E+00 0. -1.
        -11    1    3    3    0    0 -0.25117103479E+02  0.17262943383E+02 -0.97125480987E+02  0.10179507433E+03  0.00000000000E+00 0. -1.
         11    1    3    3    0    0 -0.12004206679E+02 -0.66934754836E+02 -0.60150687142E+02  0.90788036362E+02  0.00000000000E+00 0.  1.
         -1    1    1    2    0  502  0.33295646841E+02 -0.34664315613E+02  0.25412116022E+03  0.25862671739E+03  0.00000000000E+00 0.  1.
<scales pt_clust_5="13000.00000" pt_clust_6="13000.00000" pt_clust_7="13000.00000" pt_clust_8="13000.00000" pt_clust_9="48.06469"></scales>
<clustering>
<clus scale="   48.065">  1  9  2 -1</clus>
<clus scale="   92.123">  5  6 -1 -1</clus>
<clus scale="   92.234">  7  8 -1 -1</clus>
<clus scale="  114.211">  1  5  2 -1</clus>
<clus scale="   48.065">  1  5  2 -1</clus>
</clustering>
</event>
<event>
 9    1  0.1399746E-005  0.9776362E+02  0.7546771E-02  0.1291425E+00
         21   -1    0    0  501  502  0.00000000000E+00  0.00000000000E+00  0.11001539453E+03  0.11001539453E+03  0.00000000000E+00 0. -1.
          2   -1    0    0  502    0 -0.00000000000E+00 -0.00000000000E+00 -0.19667060084E+03  0.19667060084E+03  0.00000000000E+00 0. -1.
         23    2    1    2    0    0  0.14588435382E+02  0.30352807973E+02 -0.10473637478E+03  0.13555346628E+03  0.79189131952E+02 0.  0.
         23    2    1    2    0    0 -0.36077944731E+02 -0.23982662078E+02 -0.40271514454E+02  0.10862322280E+03  0.91106659898E+02 0.  0.
        -11    1    3    3    0    0 -0.29481873200E+02  0.20895025209E+02 -0.69530791723E+02  0.78360155203E+02  0.00000000000E+00 0. -1.
         11    1    3    3    0    0  0.44070308582E+02  0.94577827644E+01 -0.35205583053E+02  0.57193311073E+02  0.00000000000E+00 0.  1.
        -13    1    4    4    0    0  0.26653615942E+02 -0.27105241972E+02 -0.13399622126E+02  0.40307062138E+02  0.00000000000E+00 0.  1.
         13    1    4    4    0    0 -0.62731560672E+02  0.31225798938E+01 -0.26871892329E+02  0.68316160657E+02  0.00000000000E+00 0. -1.
          2    1    1    2  501    0  0.21489509348E+02 -0.63701458951E+01  0.58352682915E+02  0.62509306300E+02  0.00000000000E+00 0. -1.
<scales pt_clust_5="13000.00000" pt_clust_6="13000.00000" pt_clust_7="13000.00000" pt_clust_8="13000.00000" pt_clust_9="22.41379"></scales>
<clustering>
<clus scale="   22.414">  1  9  2 -1</clus>
<clus scale="   79.189">  5  6 -1 -1</clus>
<clus scale="   86.765">  2  5  1 -1</clus>
<clus scale="   91.107">  7  8 -1 -1</clus>
<clus scale="   22.414">  1  5  2 -1</clus>
</clustering>
</event>
<event>
 9    1  0.1399746E-005  0.1516233E+03  0.7546771E-02  0.1203544E+00
          2   -1    0    0  502    0 -0.00000000000E+00  0.00000000000E+00  0.74908408804E+03  0.74908408804E+03  0.00000000000E+00 0. -1.
         21   -1    0    0  501  502  0.00000000000E+00 -0.00000000000E+00 -0.63412759570E+02  0.63412759570E+02  0.00000000000E+00 0. -1.
         23    2    1    2    0    0 -0.84828153158E+02  0.53574993876E+02  0.32823908420E+03  0.35641872576E+03  0.96058920132E+02 0.  0.
         23    2    1    2    0    0  0.93505003132E+02 -0.10102624317E+03  0.37454623371E+03  0.40489416519E+03  0.68592393143E+02 0.  0.
        -11    1    4    4    0    0  0.80155205100E+02 -0.83498901833E+02  0.36083364313E+03  0.37894305843E+03  0.00000000000E+00 0. -1.
         11    1    4    4    0    0  0.13349798032E+02 -0.17527341340E+02  0.13712590578E+02  0.25951106765E+02  0.00000000000E+00 0.  1.
        -13    1    3    3    0    0 -0.10545475257E+03  0.37411114982E+02  0.27982392511E+03  0.30136643049E+03  0.00000000000E+00 0. -1.
         13    1    3    3    0    0  0.20626599412E+02  0.16163878893E+02  0.48415159090E+02  0.55052295265E+02  0.00000000000E+00 0.  1.
          2    1    1    2  501    0 -0.86768499741E+01  0.47451249298E+02 -0.17113989438E+02  0.51183956665E+02  0.00000000000E+00 0. -1.
<scales pt_clust_5="13000.00000" pt_clust_6="13000.00000" pt_clust_7="13000.00000" pt_clust_8="13000.00000" pt_clust_9="48.23804"></scales>
<clustering>
<clus scale="   48.238">  2  9  1 -1</clus>
<clus scale="   68.592">  5  6 -1 -1</clus>
<clus scale="   96.059">  7  8 -1 -1</clus>
<clus scale="  135.894">  2  5  1 -1</clus>
<clus scale="   48.238">  2  5  1 -1</clus>
</clustering>
</event>
<event>
 9    1  0.1399746E-005  0.1339102E+03  0.7546771E-02  0.1222250E+00
          1   -1    0    0  502    0 -0.00000000000E+00  0.00000000000E+00  0.21174360948E+03  0.21174360948E+03  0.00000000000E+00 0. -1.
         21   -1    0    0  501  502  0.00000000000E+00 -0.00000000000E+00 -0.41336498444E+03  0.41336498444E+03  0.00000000000E+00 0. -1.
         23    2    1    2    0    0  0.10198527790E+03 -0.14687605061E+02  0.15592237976E+03  0.20863221215E+03  0.92730193496E+02 0.  0.
         23    2    1    2    0    0 -0.63996662588E+02  0.29002129857E+02 -0.89981723309E+02  0.14585213828E+03  0.90771357562E+02 0.  0.
        -11    1    3    3    0    0  0.66381876687E+02 -0.32286667797E+02  0.15168275286E+03  0.16869096000E+03  0.00000000000E+00 0. -1.
         11    1    3    3    0    0  0.35603401213E+02  0.17599062736E+02  0.42396268984E+01  0.39941252151E+02  0.00000000000E+00 0.  1.
        -13    1    4    4    0    0 -0.71580364094E+02 -0.24751739800E+01 -0.87930569255E+02  0.11340925897E+03  0.00000000000E+00 0.  1.
         13    1    4    4    0    0  0.75837015056E+01  0.31477303837E+02 -0.20511540537E+01  0.32442879316E+02  0.00000000000E+00 0. -1.
          1    1    1    2  501    0 -0.37988615312E+02 -0.14314524795E+02 -0.26756203141E+03  0.27062424349E+03  0.00000000000E+00 0. -1.
<scales pt_clust_5="13000.00000" pt_clust_6="13000.00000" pt_clust_7="13000.00000" pt_clust_8="13000.00000" pt_clust_9="40.59607"></scales>
<clustering>
<clus scale="   40.596">  2  9  1 -1</clus>
<clus scale="   90.771">  7  8 -1 -1</clus>
<clus scale="   92.730">  5  6 -1 -1</clus>
<clus scale="  132.561">  2  7  1 -1</clus>
<clus scale="   40.596">  2  5  1 -1</clus>
</clustering>
</event>
<event>
 9    1  0.1399746E-005  0.9842680E+02  0.7546771E-02  0.1283662E+00
         21   -1    0    0  501  502  0.00000000000E+00  0.00000000000E+00  0.51998150606E+02  0.51998150606E+02  0.00000000000E+00 0.  1.
         -1   -1    0    0    0  501 -0.00000000000E+00 -0.00000000000E+00 -0.44967581456E+03  0.44967581456E+03  0.00000000000E+00 0.  1.
         23    2    1    2    0    0  0.11861327855E+02 -0.56810136393E+02 -0.17843742386E+03  0.20873795971E+03  0.91452385936E+02 0.  0.
         23    2    1    2    0    0 -0.23054955804E+02 -0.14068046335E+02 -0.46845970193E+02  0.10620411641E+03  0.91407486038E+02 0.  0.
        -11    1    4    4    0    0  0.23231126789E+02 -0.24897177196E+02  0.65903475209E+01  0.34684108244E+02  0.00000000000E+00 0. -1.
         11    1    4    4    0    0 -0.46286082593E+02  0.10829130861E+02 -0.53436317714E+02  0.71520008164E+02  0.00000000000E+00 0.  1.
        -13    1    3    3    0    0 -0.36363789509E+02 -0.30857649738E+02 -0.11748769751E+03  0.12679857571E+03  0.00000000000E+00 0.  1.
         13    1    3    3    0    0  0.48225117365E+02 -0.25952486655E+02 -0.60949726354E+02  0.81939384004E+02  0.00000000000E+00 0. -1.
         -1    1    1    2    0  502  0.11193627949E+02  0.70878182729E+02 -0.17239426990E+03  0.18673188905E+03  0.00000000000E+00 0.  1.
<scales pt_clust_5="13000.00000" pt_clust_6="13000.00000" pt_clust_7="13000.00000" pt_clust_8="13000.00000" pt_clust_9="71.75667"></scales>
<clustering>
<clus scale="   71.757">  1  9  2 -1</clus>
<clus scale="   91.407">  5  6 -1 -1</clus>
<clus scale="   91.452">  7  8 -1 -1</clus>
<clus scale="   98.385">  1  5  2 -1</clus>
<clus scale="   71.757">  1  5  2 -1</clus>
</clustering>
</event>
<event>
 9    1  0.1399746E-005  0.1119815E+03  0.7546771E-02  0.1257166E+00
         21   -1    0    0  501  502  0.00000000000E+00  0.00000000000E+00  0.15598663266E+03  0.15598663266E+03  0.00000000000E+00 0.  1.
          2   -1    0    0  502    0 -0.00000000000E+00 -0.00000000000E+00 -0.98305133972E+02  0.98305133972E+02  0.00000000000E+00 0. -1.
         23    2    1    2    0    0 -0.37070031889E+02  0.40850694428E+02  0.16405463831E+02  0.10780232978E+03  0.91155013918E+02 0.  0.
         23    2    1    2    0    0  0.53014435925E+02 -0.54607578687E+02  0.38347626502E+02  0.12522793502E+03  0.91754984524E+02 0.  0.
        -13    1    4    4    0    0 -0.16614654756E+02 -0.17629733799E+02 -0.16391081792E+02  0.29249304757E+02  0.00000000000E+00 0. -1.
         13    1    4    4    0    0  0.69629090682E+02 -0.36977844888E+02  0.54738708294E+02  0.95978630264E+02  0.00000000000E+00 0.  1.
        -13    1    3    3    0    0 -0.60024741571E+02  0.12214314112E+01  0.15457690243E+02  0.61995174675E+02  0.00000000000E+00 0. -1.
         13    1    3    3    0    0  0.22954709681E+02  0.39629263016E+02  0.94777358781E+00  0.45807155102E+02  0.00000000000E+00 0.  1.
          2    1    1    2  501    0 -0.15944404036E+02  0.13756884259E+02  0.29284083504E+01  0.21261501829E+02  0.00000000000E+00 0. -1.
<scales pt_clust_5="13000.00000" pt_clust_6="13000.00000" pt_clust_7="13000.00000" pt_clust_8="13000.00000" pt_clust_9="21.05888"></scales>
<clustering>
<clus scale="   21.059">  1  9  2 -1</clus>
<clus scale="   91.155">  7  8 -1 -1</clus>
<clus scale="   91.755">  5  6 -1 -1</clus>
<clus scale="  111.490">  2  7  1 -1</clus>
<clus scale="   21.059">  1  5  2 -1</clus>
</clustering>
</event>
<event>
 9    1  0.1399746E-005  0.1130006E+03  0.7546771E-02  0.1256741E+00
          1   -1    0    0  502    0 -0.00000000000E+00  0.00000000000E+00  0.19120385605E+03  0.19120385605E+03  0.00000000000E+00 0. -1.
         21   -1    0    0  501  502  0.00000000000E+00 -0.00000000000E+00 -0.25459597169E+03  0.25459597169E+03  0.00000000000E+00 0. -1.
         23    2    1    2    0    0  0.33657434119E+02  0.49350334330E+02  0.81089779352E+02  0.13448771734E+03  0.89124157386E+02 0.  0.
         23    2    1    2    0    0 -0.13509888924E+02 -0.71707451786E+02  0.39411559080E+02  0.12497218786E+03  0.93489577008E+02 0.  0.
        -11    1    3    3    0    0  0.11257112664E+02  0.73096772555E+02  0.63074281828E+02  0.97201984402E+02  0.00000000000E+00 0.  1.
         11    1    3    3    0    0  0.22400321455E+02 -0.23746438225E+02  0.18015497524E+02  0.37285732937E+02  0.00000000000E+00 0. -1.
        -11    1    4    4    0    0  0.38624667079E+01 -0.91059164188E+02  0.38532732689E+02  0.98951814133E+02  0.00000000000E+00 0. -1.
         11    1    4    4    0    0 -0.17372355632E+02  0.19351712402E+02  0.87882639095E+00  0.26020373728E+02  0.00000000000E+00 0.  1.
          1    1    1    2  501    0 -0.20147545195E+02  0.22357117456E+02 -0.18389345408E+03  0.18633992253E+03  0.00000000000E+00 0. -1.
<scales pt_clust_5="13000.00000" pt_clust_6="13000.00000" pt_clust_7="13000.00000" pt_clust_8="13000.00000" pt_clust_9="30.09592"></scales>
<clustering>
<clus scale="   30.096">  2  9  1 -1</clus>
<clus scale="   89.124">  5  6 -1 -1</clus>
<clus scale="   93.490">  7  8 -1 -1</clus>
<clus scale="  109.416">  1  5  2 -1</clus>
<clus scale="   30.096">  2  5  1 -1</clus>
</clustering>
</event>
<event>
 9    1  0.1399746E-005  0.1153515E+03  0.7546771E-02  0.1251847E+00
         -1   -1    0    0    0  501 -0.00000000000E+00  0.00000000000E+00  0.32278428647E+03  0.32278428647E+03  0.00000000000E+00 0.  1.
         21   -1    0    0  501  502  0.00000000000E+00 -0.00000000000E+00 -0.50794172811E+02  0.50794172811E+02  0.00000000000E+00 0. -1.
         23    2    1    2    0    0  0.39379856820E+02 -0.52508272567E+02  0.14383600000E+03  0.18351214106E+03  0.93166620685E+02 0.  0.
         23    2    1    2    0    0 -0.24115727026E+02  0.68487355744E+02  0.11853347323E+03  0.16596483528E+03  0.90675553969E+02 0.  0.
        -11    1    4    4    0    0  0.16514952585E+02  0.57428760184E+02  0.27738323813E+02  0.65880351874E+02  0.00000000000E+00 0.  1.
         11    1    4    4    0    0 -0.40630679611E+02  0.11058595560E+02  0.90795149419E+02  0.10008448341E+03  0.00000000000E+00 0. -1.
        -13    1    3    3    0    0 -0.85821256045E+00 -0.52482592034E+02  0.25175480349E+02  0.58214807448E+02  0.00000000000E+00 0. -1.
         13    1    3    3    0    0  0.40238069381E+02 -0.25680532679E-01  0.11866051965E+03  0.12529733361E+03  0.00000000000E+00 0.  1.
         -1    1    1    2    0  502 -0.15264129794E+02 -0.15979083177E+02  0.96206404296E+01  0.24101482938E+02  0.00000000000E+00 0.  1.
<scales pt_clust_5="13000.00000" pt_clust_6="13000.00000" pt_clust_7="13000.00000" pt_clust_8="13000.00000" pt_clust_9="22.09807"></scales>
<clustering>
<clus scale="   22.098">  2  9  1 -1</clus>
<clus scale="   90.676">  5  6 -1 -1</clus>
<clus scale="   93.167">  7  8 -1 -1</clus>
<clus scale="  113.349">  2  5  1 -1</clus>
<clus scale="   22.098">  2  5  1 -1</clus>
</clustering>
</event>
<event>
 9    1  0.1399746E-005  0.9842912E+02  0.7546771E-02  0.1283640E+00
          3   -1    0    0  502    0 -0.00000000000E+00  0.00000000000E+00  0.37663690188E+03  0.37663690188E+03  0.00000000000E+00 0. -1.
         21   -1    0    0  501  502  0.00000000000E+00 -0.00000000000E+00 -0.37301992555E+02  0.37301992555E+02  0.00000000000E+00 0. -1.
         23    2    1    2    0    0 -0.20804886391E+02 -0.39726987262E+02  0.20169832978E+03  0.22588465576E+03  0.91272036568E+02 0.  0.
         23    2    1    2    0    0  0.23024518536E+02  0.16988582841E+02  0.13441591439E+03  0.16498186371E+03  0.91283278369E+02 0.  0.
        -13    1    3    3    0    0 -0.36306378948E+02  0.36726076775E+01  0.27500060009E+02  0.45693484218E+02  0.00000000000E+00 0.  1.
         13    1    3    3    0    0  0.15501492557E+02 -0.43399594939E+02  0.17419826977E+03  0.18019117155E+03  0.00000000000E+00 0. -1.
        -13    1    4    4    0    0  0.53692965296E+02  0.28079865879E+02  0.10412778365E+03  0.12047409978E+03  0.00000000000E+00 0. -1.
         13    1    4    4    0    0 -0.30668446759E+02 -0.11091283037E+02  0.30288130747E+02  0.44507763932E+02  0.00000000000E+00 0.  1.
          3    1    1    2  501    0 -0.22196321454E+01  0.22738404421E+02  0.32206651544E+01  0.23072374964E+02  0.00000000000E+00 0. -1.
<scales pt_clust_5="13000.00000" pt_clust_6="13000.00000" pt_clust_7="13000.00000" pt_clust_8="13000.00000" pt_clust_9="22.84648"></scales>
<clustering>
<clus scale="   22.846">  2  9  1 -1</clus>
<clus scale="   91.272">  5  6 -1 -1</clus>
<clus scale="   91.283">  7  8 -1 -1</clus>
<clus scale="   98.419">  1  5  2 -1</clus>
<clus scale="   22.846">  2  5  1 -1</clus>
</clustering>
</event>
<event>
 9    1  0.1399746E-005  0.9470527E+02  0.7546771E-02  0.1292417E+00
         -1   -1    0    0    0  501 -0.00000000000E+00  0.00000000000E+00  0.30274878493E+03  0.30274878493E+03  0.00000000000E+00 0.  1.
         21   -1    0    0  501  502  0.00000000000E+00 -0.00000000000E+00 -0.48574248777E+02  0.48574248777E+02  0.00000000000E+00 0. -1.
         23    2    1    2    0    0  0.16010258434E+02  0.19990854200E+02  0.14736480918E+03  0.17478686223E+03  0.90432834717E+02 0.  0.
         23    2    1    2    0    0  0.19020570558E+02 -0.32549114976E+02  0.56438221393E+02  0.11390904104E+03  0.91480980568E+02 0.  0.
        -13    1    3    3    0    0  0.50461451972E+02 -0.79297897910E+00  0.58649890029E+02  0.77374392090E+02  0.00000000000E+00 0. -1.
         13    1    3    3    0    0 -0.34451193538E+02  0.20783833180E+02  0.88714919155E+02  0.97412470139E+02  0.00000000000E+00 0.  1.
        -13    1    4    4    0    0  0.35047176417E+02 -0.57078539822E+02  0.26537924195E+02  0.72045303134E+02  0.00000000000E+00 0. -1.
         13    1    4    4    0    0 -0.16026605859E+02  0.24529424846E+02  0.29900297198E+02  0.41863737902E+02  0.00000000000E+00 0.  1.
         -1    1    1    2    0  502 -0.35030828992E+02  0.12558260775E+02  0.50371505579E+02  0.62627130446E+02  0.00000000000E+00 0.  1.
<scales pt_clust_5="13000.00000" pt_clust_6="13000.00000" pt_clust_7="13000.00000" pt_clust_8="13000.00000" pt_clust_9="37.21385"></scales>
<clustering>
<clus scale="   37.214">  2  9  1 -1</clus>
<clus scale="   90.433">  5  6 -1 -1</clus>
<clus scale="   91.481">  7  8 -1 -1</clus>
<clus scale="   93.693">  1  5  2 -1</clus>
<clus scale="   37.214">  2  5  1 -1</clus>
</clustering>
</event>
<event>
 9    1  0.1399746E-005  0.1169092E+03  0.7546771E-02  0.1249123E+00
         -3   -1    0    0    0  501 -0.00000000000E+00  0.00000000000E+00  0.19888947244E+03  0.19888947244E+03  0.00000000000E+00 0.  1.
         21   -1    0    0  501  502  0.00000000000E+00 -0.00000000000E+00 -0.20426389102E+03  0.20426389102E+03  0.00000000000E+00 0.  1.
         23    2    1    2    0    0 -0.45030672567E+02 -0.23641169146E+02  0.35175804084E+02  0.10853772051E+03  0.89198840970E+02 0.  0.
         23    2    1    2    0    0  0.10616191165E+03 -0.27982129678E+02  0.69114862197E+02  0.15886431068E+03  0.91693260188E+02 0.  0.
        -11    1    4    4    0    0  0.66788086454E+02 -0.61324440291E+02  0.51893856504E+02  0.10447156461E+03  0.00000000000E+00 0.  1.
         11    1    4    4    0    0  0.39373825198E+02  0.33342310613E+02  0.17221005693E+02  0.54392746069E+02  0.00000000000E+00 0. -1.
        -13    1    3    3    0    0 -0.70977946580E+02 -0.25553645214E+02  0.18628526348E+02  0.77703794491E+02  0.00000000000E+00 0.  1.
         13    1    3    3    0    0  0.25947274012E+02  0.19124760675E+01  0.16547277736E+02  0.30833926021E+02  0.00000000000E+00 0. -1.
         -3    1    1    2    0  502 -0.61131239085E+02  0.51623298824E+02 -0.10966508487E+03  0.13575133227E+03  0.00000000000E+00 0.  1.
<scales pt_clust_5="13000.00000" pt_clust_6="13000.00000" pt_clust_7="13000.00000" pt_clust_8="13000.00000" pt_clust_9="80.01246"></scales>
<clustering>
<clus scale="   80.012">  2  9  1 -1</clus>
<clus scale="   89.199">  7  8 -1 -1</clus>
<clus scale="   91.693">  5  6 -1 -1</clus>
<clus scale="  114.963">  1  7  2 -1</clus>
<clus scale="   80.012">  2  5  1 -1</clus>
</clustering>
</event>
<event>
 9    1  0.1399746E-005  0.1049312E+03  0.7546771E-02  0.1271638E+00
         21   -1    0    0  501  502  0.00000000000E+00  0.00000000000E+00  0.57003773587E+03  0.57003773587E+03  0.00000000000E+00 0. -1.
         -1   -1    0    0    0  501 -0.00000000000E+00 -0.00000000000E+00 -0.11975698211E+03  0.11975698211E+03  0.00000000000E+00 0.  1.
         23    2    1    2    0    0  0.40517848067E+02  0.17976655115E+02 -0.85909595865E+02  0.13319169110E+03  0.91622659726E+02 0.  0.
         23    2    1    2    0    0 -0.63147258692E+02 -0.36848813505E+00  0.34541144416E+03  0.36368146630E+03  0.94696521094E+02 0.  0.
        -13    1    4    4    0    0 -0.59917219442E+02  0.37574246449E+02  0.16890789409E+03  0.18311683120E+03  0.00000000000E+00 0.  1.
         13    1    4    4    0    0 -0.32300392497E+01 -0.37942734585E+02  0.17650355007E+03  0.18056463510E+03  0.00000000000E+00 0. -1.
        -13    1    3    3    0    0  0.23758470094E+02 -0.16114303001E+02  0.97076790485E+01  0.30304697572E+02  0.00000000000E+00 0. -1.
         13    1    3    3    0    0  0.16759377973E+02  0.34090958116E+02 -0.95617274914E+02  0.10288699353E+03  0.00000000000E+00 0.  1.
         -1    1    1    2    0  502  0.22629410624E+02 -0.17608166980E+02  0.19077890546E+03  0.19292156058E+03  0.00000000000E+00 0.  1.
<scales pt_clust_5="13000.00000" pt_clust_6="13000.00000" pt_clust_7="13000.00000" pt_clust_8="13000.00000" pt_clust_9="28.67294"></scales>
<clustering>
<clus scale="   28.673">  1  9  2 -1</clus>
<clus scale="   91.623">  7  8 -1 -1</clus>
<clus scale="   94.697">  5  6 -1 -1</clus>
<clus scale="  102.166">  2  7  1 -1</clus>
<clus scale="   28.673">  1  5  2 -1</clus>
</clustering>
</event>
<event>
 9    1  0.1399746E-005  0.9898920E+02  0.7546771E-02  0.1284695E+00
         21   -1    0    0  501  502  0.00000000000E+00  0.00000000000E+00  0.23736957282E+03  0.23736957282E+03  0.00000000000E+00 0. -1.
          1   -1    0    0  502    0 -0.00000000000E+00 -0.00000000000E+00 -0.20086313776E+03  0.20086313776E+03  0.00000000000E+00 0. -1.
         23    2    1    2    0    0 -0.22355877028E+02  0.30797759720E+02 -0.16122412233E+03  0.18737243190E+03  0.87560969474E+02 0.  0.
         23    2    1    2    0    0  0.27833239704E+02 -0.10514158894E+02  0.65132345427E+02  0.11660786051E+03  0.92032244041E+02 0.  0.
        -11    1    3    3    0    0  0.22128465173E+02  0.40390383113E+02 -0.10759812801E+03  0.11704020322E+03  0.00000000000E+00 0. -1.
         11    1    3    3    0    0 -0.44484342201E+02 -0.95926233937E+01 -0.53625994318E+02  0.70332228681E+02  0.00000000000E+00 0.  1.
        -11    1    4    4    0    0  0.88741825123E+01 -0.50302421294E+02  0.45316528739E+02  0.68283764398E+02  0.00000000000E+00 0.  1.
         11    1    4    4    0    0  0.18959057192E+02  0.39788262401E+02  0.19815816688E+02  0.48324096116E+02  0.00000000000E+00 0. -1.
          1    1    1    2  501    0 -0.54773626766E+01 -0.20283600826E+02  0.13259821197E+03  0.13425241816E+03  0.00000000000E+00 0. -1.
<scales pt_clust_5="13000.00000" pt_clust_6="13000.00000" pt_clust_7="13000.00000" pt_clust_8="13000.00000" pt_clust_9="21.01014"></scales>
<clustering>
<clus scale="   21.010">  1  9  2 -1</clus>
<clus scale="   87.561">  5  6 -1 -1</clus>
<clus scale="   92.032">  7  8 -1 -1</clus>
<clus scale="   94.846">  2  5  1 -1</clus>
<clus scale="   21.010">  1  5  2 -1</clus>
</clustering>
</event>
<event>
 9    1  0.1399746E-005  0.9510887E+02  0.7546771E-02  0.1291673E+00
         21   -1    0    0  501  502  0.00000000000E+00  0.00000000000E+00  0.60293275527E+02  0.60293275527E+02  0.00000000000E+00 0.  1.
          2   -1    0    0  502    0 -0.00000000000E+00 -0.00000000000E+00 -0.26250183920E+03  0.26250183920E+03  0.00000000000E+00 0. -1.
         23    2    1    2    0    0 -0.11809465747E+02  0.16008494189E+02 -0.15904515902E+03  0.18392091009E+03  0.90198687324E+02 0.  0.
         23    2    1    2    0    0  0.40419403911E+02 -0.19343158561E+02 -0.41381731942E+02  0.11001553340E+03  0.91559182249E+02 0.  0.
        -11    1    3    3    0    0 -0.33364898050E+01 -0.37160057503E+02 -0.80119412435E+02  0.88380553782E+02  0.00000000000E+00 0. -1.
         11    1    3    3    0    0 -0.84729759417E+01  0.53168551692E+02 -0.78925746580E+02  0.95540356308E+02  0.00000000000E+00 0.  1.
        -13    1    4    4    0    0  0.36054030674E+02  0.19328610409E+01  0.22499927864E+02  0.42542635479E+02  0.00000000000E+00 0.  1.
         13    1    4    4    0    0  0.43653732375E+01 -0.21276019602E+02 -0.63881659806E+02  0.67472897916E+02  0.00000000000E+00 0. -1.
          2    1    1    2  501    0 -0.28609938165E+02  0.33346643723E+01 -0.17816727188E+01  0.28858671243E+02  0.00000000000E+00 0. -1.
<scales pt_clust_5="13000.00000" pt_clust_6="13000.00000" pt_clust_7="13000.00000" pt_clust_8="13000.00000" pt_clust_9="28.80362"></scales>
<clustering>
<clus scale="   28.804">  1  9  2 -1</clus>
<clus scale="   90.199">  5  6 -1 -1</clus>
<clus scale="   91.559">  7  8 -1 -1</clus>
<clus scale="   93.800">  2  5  1 -1</clus>
<clus scale="   28.804">  1  5  2 -1</clus>
</clustering>
</event>
<event>
 9    1  0.1399746E-005  0.9938017E+02  0.7546771E-02  0.1284206E+00
          2   -1    0    0  502    0 -0.00000000000E+00  0.00000000000E+00  0.37631800381E+03  0.37631800381E+03  0.00000000000E+00 0. -1.
         21   -1    0    0  501  502  0.00000000000E+00 -0.00000000000E+00 -0.41909606401E+02  0.41909606401E+02  0.00000000000E+00 0.  1.
         23    2    1    2    0    0 -0.17547155847E+02  0.73158881554E+01  0.21324177052E+03  0.23440718775E+03  0.95463354628E+02 0.  0.
         23    2    1    2    0    0  0.31848489214E+02 -0.29693371876E+02  0.12103407856E+03  0.15726298503E+03  0.90478592429E+02 0.  0.
        -11    1    3    3    0    0  0.25827535016E+02 -0.19889274582E+02  0.30548621453E+02  0.44675083448E+02  0.00000000000E+00 0.  1.
         11    1    3    3    0    0 -0.43374690864E+02  0.27205162738E+02  0.18269314907E+03  0.18973210430E+03  0.00000000000E+00 0. -1.
        -13    1    4    4    0    0  0.94534074478E+01 -0.19512922010E+02 -0.10044526853E+02  0.23895889969E+02  0.00000000000E+00 0.  1.
         13    1    4    4    0    0  0.22395081766E+02 -0.10180449866E+02  0.13107860542E+03  0.13336709506E+03  0.00000000000E+00 0. -1.
          2    1    1    2  501    0 -0.14301333366E+02  0.22377483721E+02  0.13254832344E+00  0.26557437429E+02  0.00000000000E+00 0. -1.
<scales pt_clust_5="13000.00000" pt_clust_6="13000.00000" pt_clust_7="13000.00000" pt_clust_8="13000.00000" pt_clust_9="26.55711"></scales>
<clustering>
<clus scale="   26.557">  2  9  1 -1</clus>
<clus scale="   90.479">  7  8 -1 -1</clus>
<clus scale="   94.602">  2  7  1 -1</clus>
<clus scale="   95.463">  5  6 -1 -1</clus>
<clus scale="   26.557">  2  5  1 -1</clus>
</clustering>
</event>
<event>
 9    1  0.1399746E-005  0.1313222E+03  0.7546771E-02  0.1245023E+00
          2   -1    0    0  502    0 -0.00000000000E+00  0.00000000000E+00  0.31711802638E+03  0.31711802638E+03  0.00000000000E+00 0. -1.
         21   -1    0    0  501  502  0.00000000000E+00 -0.00000000000E+00 -0.10773769308E+03  0.10773769308E+03  0.00000000000E+00 0. -1.
         23    2    1    2    0    0  0.11004986383E+02 -0.34908990501E+01  0.13726135689E+03  0.16308666937E+03  0.87311428410E+02 0.  0.
         23    2    1    2    0    0 -0.33573500762E+02  0.90535876826E+02 -0.18217934330E+02  0.13430563008E+03  0.91554269120E+02 0.  0.
        -13    1    4    4    0    0  0.63028998279E+00  0.96820178978E+02 -0.22102717195E+02  0.99313012392E+02  0.00000000000E+00 0. -1.
         13    1    4    4    0    0 -0.34203790744E+02 -0.62843021521E+01  0.38847828655E+01  0.34992617689E+02  0.00000000000E+00 0.  1.
        -13    1    3    3    0    0 -0.17031412720E+01  0.38288799155E+02  0.35048466280E+02  0.51935804793E+02  0.00000000000E+00 0.  1.
         13    1    3    3    0    0  0.12708127655E+02 -0.41779698205E+02  0.10221289061E+03  0.11115086458E+03  0.00000000000E+00 0. -1.
          2    1    1    2  501    0  0.22568514379E+02 -0.87044977776E+02  0.90336910747E+02  0.12746342001E+03  0.00000000000E+00 0. -1.
<scales pt_clust_5="13000.00000" pt_clust_6="13000.00000" pt_clust_7="13000.00000" pt_clust_8="13000.00000" pt_clust_9="94.14538"></scales>
<clustering>
<clus scale="   87.311">  7  8 -1 -1</clus>
<clus scale="   88.071">  1  7  2 -1</clus>
<clus scale="   91.554">  5  6 -1 -1</clus>
<clus scale="   94.145">  2  9  1 -1</clus>
<clus scale="   94.145">  2  5  1 -1</clus>
</clustering>
</event>
<event>
 9    1  0.1399746E-005  0.1270685E+03  0.7546771E-02  0.1245414E+00
         21   -1    0    0  501  502  0.00000000000E+00  0.00000000000E+00  0.24792227146E+03  0.24792227146E+03  0.00000000000E+00 0. -1.
          1   -1    0    0  502    0 -0.00000000000E+00 -0.00000000000E+00 -0.24368463384E+03  0.24368463384E+03  0.00000000000E+00 0. -1.
         23    2    1    2    0    0 -0.24000343921E+02 -0.46730640570E+02 -0.17840679927E+03  0.22178460957E+03  0.12082904344E+03 0.  0.
         23    2    1    2    0    0 -0.52409726206E+02  0.36784771470E+01  0.59257257772E+02  0.11844071309E+03  0.88070819931E+02 0.  0.
        -13    1    4    4    0    0  0.18823635000E+02 -0.16855900185E+02  0.28748617746E+02  0.38274451374E+02  0.00000000000E+00 0. -1.
         13    1    4    4    0    0 -0.71233361206E+02  0.20534377332E+02  0.30508640026E+02  0.80166261715E+02  0.00000000000E+00 0.  1.
        -13    1    3    3    0    0  0.27602550582E+02  0.14507532132E+02 -0.60945794185E+01  0.31772837228E+02  0.00000000000E+00 0.  1.
         13    1    3    3    0    0 -0.51602894503E+02 -0.61238172702E+02 -0.17231221985E+03  0.19001177234E+03  0.00000000000E+00 0. -1.
          1    1    1    2  501    0  0.76410070127E+02  0.43052163423E+02  0.12338717912E+03  0.15138158265E+03  0.00000000000E+00 0. -1.
<scales pt_clust_5="13000.00000" pt_clust_6="13000.00000" pt_clust_7="13000.00000" pt_clust_8="13000.00000" pt_clust_9="87.70398"></scales>
<clustering>
<clus scale="   87.704">  1  9  2 -1</clus>
<clus scale="   88.071">  5  6 -1 -1</clus>
<clus scale="   96.453">  1  5  2 -1</clus>
<clus scale="  120.829">  7  8 -1 -1</clus>
<clus scale="   87.704">  1  5  2 -1</clus>
</clustering>
</event>
<event>
 9    1  0.1399746E-005  0.1045844E+03  0.7546771E-02  0.1271559E+00
         21   -1    0    0  501  502  0.00000000000E+00  0.00000000000E+00  0.77956455168E+02  0.77956455168E+02  0.00000000000E+00 0. -1.
          2   -1    0    0  502    0 -0.00000000000E+00 -0.00000000000E+00 -0.42923142478E+03  0.42923142478E+03  0.00000000000E+00 0. -1.
         23    2    1    2    0    0  0.70183053191E+02  0.15524009071E+02 -0.26178773380E+03  0.28665777479E+03  0.92050021532E+02 0.  0.
         23    2    1    2    0    0 -0.38309462922E+01 -0.36434687703E+02 -0.11080581013E+03  0.14776788845E+03  0.90638064191E+02 0.  0.
        -13    1    3    3    0    0  0.14289619351E+02  0.32061533725E+02 -0.19446534351E+03  0.19760795781E+03  0.00000000000E+00 0.  1.
         13    1    3    3    0    0  0.55893433840E+02 -0.16537524654E+02 -0.67322390297E+02  0.89049816976E+02  0.00000000000E+00 0. -1.
        -13    1    4    4    0    0  0.32313470316E+02 -0.70958049220E+01 -0.67385316014E+01  0.33762680869E+02  0.00000000000E+00 0. -1.
         13    1    4    4    0    0 -0.36144416608E+02 -0.29338882781E+02 -0.10406727853E+03  0.11400520758E+03  0.00000000000E+00 0.  1.
          2    1    1    2  501    0 -0.66352106898E+02  0.20910678632E+02  0.21318574315E+02  0.72762216717E+02  0.00000000000E+00 0. -1.
<scales pt_clust_5="13000.00000" pt_clust_6="13000.00000" pt_clust_7="13000.00000" pt_clust_8="13000.00000" pt_clust_9="69.56909"></scales>
<clustering>
<clus scale="   69.569">  1  9  2 -1</clus>
<clus scale="   90.638">  7  8 -1 -1</clus>
<clus scale="   92.050">  5  6 -1 -1</clus>
<clus scale="  103.344">  1  7  2 -1</clus>
<clus scale="   69.569">  1  5  2 -1</clus>
</clustering>
</event>
<event>
 9    1  0.1399746E-005  0.1139363E+03  0.7546771E-02  0.1253719E+00
          3   -1    0    0  502    0 -0.00000000000E+00  0.00000000000E+00  0.19116021389E+03  0.19116021389E+03  0.00000000000E+00 0. -1.
         21   -1    0    0  501  502  0.00000000000E+00 -0.00000000000E+00 -0.48393132763E+03  0.48393132763E+03  0.00000000000E+00 0. -1.
         23    2    1    2    0    0  0.36781921433E+02  0.42520817347E+02  0.11242992505E+03  0.15553076902E+03  0.91588222014E+02 0.  0.
         23    2    1    2    0    0 -0.10242778664E+03 -0.10268177595E+03 -0.92706058840E+02  0.19462718997E+03  0.90831333472E+02 0.  0.
        -11    1    4    4    0    0 -0.31314348479E+02  0.13997558383E+02 -0.22303344653E+02  0.40914047026E+02  0.00000000000E+00 0.  1.
         11    1    4    4    0    0 -0.71113438164E+02 -0.11667933434E+03 -0.70402714187E+02  0.15371314294E+03  0.00000000000E+00 0. -1.
        -13    1    3    3    0    0  0.51930449090E+02 -0.92627308032E+01  0.46334465749E+02  0.70210059399E+02  0.00000000000E+00 0.  1.
         13    1    3    3    0    0 -0.15148527657E+02  0.51783548150E+02  0.66095459305E+02  0.85320709619E+02  0.00000000000E+00 0. -1.
          3    1    1    2  501    0  0.65645865210E+02  0.60160958606E+02 -0.31249497995E+03  0.32493358253E+03  0.00000000000E+00 0. -1.
<scales pt_clust_5="13000.00000" pt_clust_6="13000.00000" pt_clust_7="13000.00000" pt_clust_8="13000.00000" pt_clust_9="89.04336"></scales>
<clustering>
<clus scale="   89.043">  2  9  1 -1</clus>
<clus scale="   90.831">  5  6 -1 -1</clus>
<clus scale="   91.588">  7  8 -1 -1</clus>
<clus scale="  113.329">  2  5  1 -1</clus>
<clus scale="   89.043">  2  5  1 -1</clus>
</clustering>
</event>
<event>
 9    1  0.1399746E-005  0.1033636E+03  0.7546771E-02  0.1275042E+00
         21   -1    0    0  501  502  0.00000000000E+00  0.00000000000E+00  0.62317848383E+02  0.62317848383E+02  0.00000000000E+00 0. -1.
          1   -1    0    0  502    0 -0.00000000000E+00 -0.00000000000E+00 -0.48959244853E+03  0.48959244853E+03  0.00000000000E+00 0. -1.
         23    2    1    2    0    0  0.33658206365E+02 -0.53362609313E+02 -0.32106934417E+03  0.33893017135E+03  0.88361158630E+02 0.  0.
         23    2    1    2    0    0 -0.31614339697E+02 -0.51690965150E+01 -0.11820812609E+03  0.15319545471E+03  0.92029887746E+02 0.  0.
        -11    1    3    3    0    0  0.56317917472E+02 -0.62501707123E+02 -0.24707589648E+03  0.26100703026E+03  0.00000000000E+00 0. -1.
         11    1    3    3    0    0 -0.22659711108E+02  0.91390978100E+01 -0.73993447693E+02  0.77923141093E+02  0.00000000000E+00 0.  1.
        -11    1    4    4    0    0  0.11489070663E+01 -0.45383428856E+02 -0.50585318697E+02  0.67969478958E+02  0.00000000000E+00 0.  1.
         11    1    4    4    0    0 -0.32763246763E+02  0.40214332341E+02 -0.67622807392E+02  0.85225975757E+02  0.00000000000E+00 0. -1.
          1    1    1    2  501    0 -0.20438666680E+01  0.58531705828E+02  0.12002870111E+02  0.59784670853E+02  0.00000000000E+00 0. -1.
<scales pt_clust_5="13000.00000" pt_clust_6="13000.00000" pt_clust_7="13000.00000" pt_clust_8="13000.00000" pt_clust_9="58.56738"></scales>
<clustering>
<clus scale="   58.567">  1  9  2 -1</clus>
<clus scale="   88.361">  5  6 -1 -1</clus>
<clus scale="   92.030">  7  8 -1 -1</clus>
<clus scale="  100.111">  2  5  1 -1</clus>
<clus scale="   58.567">  1  5  2 -1</clus>
</clustering>
</event>
<event>
 9    1  0.1399746E-005  0.1245933E+03  0.7546771E-02  0.1236655E+00
          1   -1    0    0  502    0 -0.00000000000E+00  0.00000000000E+00  0.39517372586E+03  0.39517372586E+03  0.00000000000E+00 0. -1.
         21   -1    0    0  501  502  0.00000000000E+00 -0.00000000000E+00 -0.75541893316E+02  0.75541893316E+02  0.00000000000E+00 0.  1.
         23    2    1    2    0    0 -0.83629312490E+02 -0.20843501147E+02  0.23492179207E+03  0.26681495249E+03  0.92594044278E+02 0.  0.
         23    2    1    2    0    0  0.81926015870E+02 -0.36615399886E+02  0.46619968797E+02  0.13494212778E+03  0.89349856042E+02 0.  0.
        -11    1    4    4    0    0  0.21414421772E+02  0.21044737878E+02  0.41471899874E+02  0.51199384092E+02  0.00000000000E+00 0. -1.
         11    1    4    4    0    0  0.60511594098E+02 -0.57660137764E+02  0.51480689222E+01  0.83742743691E+02  0.00000000000E+00 0.  1.
        -11    1    3    3    0    0 -0.29795713605E+02 -0.40184367122E+02  0.41148246168E+02  0.64774578910E+02  0.00000000000E+00 0. -1.
         11    1    3    3    0    0 -0.53833598884E+02  0.19340865974E+02  0.19377354590E+03  0.20204037358E+03  0.00000000000E+00 0.  1.
          1    1    1    2  501    0  0.17032966200E+01  0.57458901033E+02  0.38090071678E+02  0.68958538903E+02  0.00000000000E+00 0. -1.
<scales pt_clust_5="13000.00000" pt_clust_6="13000.00000" pt_clust_7="13000.00000" pt_clust_8="13000.00000" pt_clust_9="57.48414"></scales>
<clustering>
<clus scale="   57.484">  2  9  1 -1</clus>
<clus scale="   89.350">  5  6 -1 -1</clus>
<clus scale="   92.594">  7  8 -1 -1</clus>
<clus scale="  122.202">  2  5  1 -1</clus>
<clus scale="   57.484">  2  5  1 -1</clus>
</clustering>
</event>
<event>
 9    1  0.1399746E-005  0.9567205E+02  0.7546771E-02  0.1290967E+00
         21   -1    0    0  501  502  0.00000000000E+00  0.00000000000E+00  0.35388719180E+02  0.35388719180E+02  0.00000000000E+00 0.  1.
         -1   -1    0    0    0  501 -0.00000000000E+00 -0.00000000000E+00 -0.43031233058E+03  0.43031233058E+03  0.00000000000E+00 0.  1.
         23    2    1    2    0    0 -0.89359854505E+00 -0.12993982109E+02 -0.19028483810E+03  0.21155323233E+03  0.91524905957E+02 0.  0.
         23    2    1    2    0    0  0.37125904351E+02  0.34981908506E+02 -0.17329450335E+03  0.20143432627E+03  0.89122029894E+02 0.  0.
        -11    1    3    3    0    0 -0.10413549494E+02  0.36368749484E+02 -0.11469279764E+03  0.12077071575E+03  0.00000000000E+00 0.  1.
         11    1    3    3    0    0  0.95199509486E+01 -0.49362731593E+02 -0.75592040457E+02  0.90782516582E+02  0.00000000000E+00 0. -1.
        -11    1    4    4    0    0 -0.23303532656E+02  0.21530746260E+01 -0.12458313188E+02  0.26512260034E+02  0.00000000000E+00 0. -1.
         11    1    4    4    0    0  0.60429437007E+02  0.32828833880E+02 -0.16083619016E+03  0.17492206624E+03  0.00000000000E+00 0.  1.
         -1    1    1    2    0  502 -0.36232305806E+02 -0.21987926397E+02 -0.31344269953E+02  0.52713491159E+02  0.00000000000E+00 0.  1.
<scales pt_clust_5="13000.00000" pt_clust_6="13000.00000" pt_clust_7="13000.00000" pt_clust_8="13000.00000" pt_clust_9="42.38218"></scales>
<clustering>
<clus scale="   42.382">  1  9  2 -1</clus>
<clus scale="   89.122">  7  8 -1 -1</clus>
<clus scale="   91.525">  5  6 -1 -1</clus>
<clus scale="   93.376">  1  7  2 -1</clus>
<clus scale="   42.382">  1  5  2 -1</clus>
</clustering>
</event>
<event>
 9    1  0.1399746E-005  0.1347018E+03  0.7546771E-02  0.1221293E+00
          1   -1    0    0  502    0 -0.00000000000E+00  0.00000000000E+00  0.10766625234E+03  0.10766625234E+03  0.00000000000E+00 0. -1.
         21   -1    0    0  501  502  0.00000000000E+00 -0.00000000000E+00 -0.50618328159E+03  0.50618328159E+03  0.00000000000E+00 0.  1.
         23    2    1    2    0    0 -0.86433217419E+02 -0.22157001789E+02  0.21747572872E+02  0.13025261529E+03  0.92364241251E+02 0.  0.
         23    2    1    2    0    0  0.10798626726E+03  0.87119109941E+02 -0.26394777101E+03  0.31295237246E+03  0.94973619370E+02 0.  0.
        -11    1    4    4    0    0  0.10610886489E+03  0.39134002358E+02 -0.22217850700E+03  0.24930673942E+03  0.00000000000E+00 0.  1.
         11    1    4    4    0    0  0.18774023721E+01  0.47985107583E+02 -0.41769264009E+02  0.63645633042E+02  0.00000000000E+00 0. -1.
        -11    1    3    3    0    0 -0.68427827279E+02 -0.49728804168E+02  0.38920575265E+02  0.93113547291E+02  0.00000000000E+00 0. -1.
         11    1    3    3    0    0 -0.18005390140E+02  0.27571802379E+02 -0.17173002393E+02  0.37139067997E+02  0.00000000000E+00 0.  1.
          1    1    1    2  501    0 -0.21553049840E+02 -0.64962108152E+02 -0.15631683111E+03  0.17064454618E+03  0.00000000000E+00 0. -1.
<scales pt_clust_5="13000.00000" pt_clust_6="13000.00000" pt_clust_7="13000.00000" pt_clust_8="13000.00000" pt_clust_9="68.44421"></scales>
<clustering>
<clus scale="   68.444">  2  9  1 -1</clus>
<clus scale="   92.364">  7  8 -1 -1</clus>
<clus scale="   94.974">  5  6 -1 -1</clus>
<clus scale="  132.875">  1  7  2 -1</clus>
<clus scale="   68.444">  2  5  1 -1</clus>
</clustering>
</event>
<event>
 9    1  0.1399746E-005  0.2459749E+03  0.7546771E-02  0.1136728E+00
         -4   -1    0    0    0  501 -0.00000000000E+00  0.00000000000E+00  0.90846077920E+03  0.90846077920E+03  0.00000000000E+00 0.  1.
         21   -1    0    0  501  502  0.00000000000E+00 -0.00000000000E+00 -0.25206315478E+03  0.25206315478E+03  0.00000000000E+00 0. -1.
         23    2    1    2    0    0  0.89822213499E+02  0.74417023010E+02  0.48055696354E+03  0.50250239301E+03  0.89262177973E+02 0.  0.
         23    2    1    2    0    0  0.89683374561E+02 -0.21169865372E+03 -0.12624547793E+03  0.28076229652E+03  0.10015048073E+03 0.  0.
        -13    1    3    3    0    0  0.51241209044E+02 -0.10911467167E+02  0.14735911353E+03  0.15639510849E+03  0.00000000000E+00 0.  1.
         13    1    3    3    0    0  0.38581004454E+02  0.85328490177E+02  0.33319785002E+03  0.34610728452E+03  0.00000000000E+00 0. -1.
        -13    1    4    4    0    0  0.53642341734E+02 -0.86111660186E+02 -0.35314607713E+01  0.10151448203E+03  0.00000000000E+00 0.  1.
         13    1    4    4    0    0  0.36041032827E+02 -0.12558699353E+03 -0.12271401715E+03  0.17924781449E+03  0.00000000000E+00 0. -1.
         -4    1    1    2    0  502 -0.17950558806E+03  0.13728163071E+03  0.30208613880E+03  0.37725924446E+03  0.00000000000E+00 0.  1.
<scales pt_clust_5="13000.00000" pt_clust_6="13000.00000" pt_clust_7="13000.00000" pt_clust_8="13000.00000" pt_clust_9="224.66328"></scales>
<clustering>
<clus scale="   89.262">  5  6 -1 -1</clus>
<clus scale="  100.150">  7  8 -1 -1</clus>
<clus scale="  146.880">  1  5  2 -1</clus>
<clus scale="  224.663">  2  9  1 -1</clus>
<clus scale="  224.663">  2  5  1 -1</clus>
</clustering>
</event>
<event>
 9    1  0.1399746E-005  0.1037853E+03  0.7546771E-02  0.1272630E+00
         21   -1    0    0  501  502  0.00000000000E+00  0.00000000000E+00  0.72127052605E+03  0.72127052605E+03  0.00000000000E+00 0. -1.
          1   -1    0    0  502    0 -0.00000000000E+00 -0.00000000000E+00 -0.31905923311E+02  0.31905923311E+02  0.00000000000E+00 0. -1.
         23    2    1    2    0    0  0.57585090855E+02  0.65923647195E+01  0.15280556112E+03  0.18680888101E+03  0.90490422431E+02 0.  0.
         23    2    1    2    0    0 -0.39798420781E+02  0.33547060944E+02  0.18706378116E+03  0.21412549789E+03  0.90263785811E+02 0.  0.
        -13    1    4    4    0    0 -0.21394520726E+02 -0.12345620708E+02  0.46573836457E+01  0.25136250520E+02  0.00000000000E+00 0. -1.
         13    1    4    4    0    0 -0.18403900055E+02  0.45892681652E+02  0.18240639751E+03  0.18898924737E+03  0.00000000000E+00 0.  1.
        -13    1    3    3    0    0  0.77867522923E+02 -0.13219747465E+02  0.10835320090E+03  0.13408403706E+03  0.00000000000E+00 0. -1.
         13    1    3    3    0    0 -0.20282432068E+02  0.19812112184E+02  0.44452360222E+02  0.52724843946E+02  0.00000000000E+00 0.  1.
          1    1    1    2  501    0 -0.17786670075E+02 -0.40139425663E+02  0.34949526045E+03  0.35224207046E+03  0.00000000000E+00 0. -1.
<scales pt_clust_5="13000.00000" pt_clust_6="13000.00000" pt_clust_7="13000.00000" pt_clust_8="13000.00000" pt_clust_9="43.90375"></scales>
<clustering>
<clus scale="   43.904">  1  9  2 -1</clus>
<clus scale="   90.264">  5  6 -1 -1</clus>
<clus scale="   90.490">  7  8 -1 -1</clus>
<clus scale="  103.588">  1  5  2 -1</clus>
<clus scale="   43.904">  1  5  2 -1</clus>
</clustering>
</event>
<event>
 9    1  0.1399746E-005  0.9258122E+02  0.7546771E-02  0.1297528E+00
          1   -1    0    0  502    0 -0.00000000000E+00  0.00000000000E+00  0.43493494637E+03  0.43493494637E+03  0.00000000000E+00 0. -1.
         21   -1    0    0  501  502  0.00000000000E+00 -0.00000000000E+00 -0.83296640845E+02  0.83296640845E+02  0.00000000000E+00 0.  1.
         23    2    1    2    0    0  0.40868064088E+01 -0.16392509692E+02  0.32369192711E+03  0.33616945597E+03  0.89151685826E+02 0.  0.
         23    2    1    2    0    0  0.47764808791E+02  0.46393789081E+02 -0.71504922036E+01  0.11263261958E+03  0.90560017834E+02 0.  0.
        -11    1    3    3    0    0  0.46642425497E+02 -0.75257866756E+01  0.17236950395E+03  0.17872716417E+03  0.00000000000E+00 0. -1.
         11    1    3    3    0    0 -0.42555619089E+02 -0.88667230161E+01  0.15132242316E+03  0.15744229179E+03  0.00000000000E+00 0.  1.
        -13    1    4    4    0    0  0.55936910739E+02  0.15297025168E+02 -0.36976330425E+02  0.68776347487E+02  0.00000000000E+00 0.  1.
         13    1    4    4    0    0 -0.81721019478E+01  0.31096763913E+02  0.29825838221E+02  0.43856272091E+02  0.00000000000E+00 0. -1.
          1    1    1    2  501    0 -0.51851615200E+02 -0.30001279389E+02  0.35096870613E+02  0.69429511669E+02  0.00000000000E+00 0. -1.
<scales pt_clust_5="13000.00000" pt_clust_6="13000.00000" pt_clust_7="13000.00000" pt_clust_8="13000.00000" pt_clust_9="59.90548"></scales>
<clustering>
<clus scale="   59.905">  2  9  1 -1</clus>
<clus scale="   89.152">  5  6 -1 -1</clus>
<clus scale="   90.560">  7  8 -1 -1</clus>
<clus scale="   91.204">  1  5  2 -1</clus>
<clus scale="   59.905">  2  5  1 -1</clus>
</clustering>
</event>
<event>
 9    1  0.1399746E-005  0.1882778E+03  0.7546771E-02  0.1160039E+00
         21   -1    0    0  501  502  0.00000000000E+00  0.00000000000E+00  0.31191164543E+03  0.31191164543E+03  0.00000000000E+00 0. -1.
          1   -1    0    0  502    0 -0.00000000000E+00 -0.00000000000E+00 -0.54514439079E+03  0.54514439079E+03  0.00000000000E+00 0. -1.
         23    2    1    2    0    0  0.12572784215E+03  0.64443799713E+02 -0.23943262644E+03  0.29248864142E+03  0.90890753874E+02 0.  0.
         23    2    1    2    0    0 -0.23056835487E+03 -0.31212779192E+01 -0.20449854141E+03  0.32136827880E+03  0.91029712376E+02 0.  0.
        -13    1    3    3    0    0  0.99479403785E+02  0.68480549541E+02 -0.23677726217E+03  0.26579918985E+03  0.00000000000E+00 0. -1.
         13    1    3    3    0    0  0.26248438363E+02 -0.40367498283E+01 -0.26553642735E+01  0.26689451569E+02  0.00000000000E+00 0.  1.
        -13    1    4    4    0    0 -0.17449669504E+03 -0.40330708176E+02 -0.13224595589E+03  0.22263120952E+03  0.00000000000E+00 0.  1.
         13    1    4    4    0    0 -0.56071659837E+02  0.37209430256E+02 -0.72252585516E+02  0.98737069283E+02  0.00000000000E+00 0. -1.
          1    1    1    2  501    0  0.10484051273E+03 -0.61322521794E+02  0.21069842249E+03  0.24319911601E+03  0.00000000000E+00 0. -1.
<scales pt_clust_5="13000.00000" pt_clust_6="13000.00000" pt_clust_7="13000.00000" pt_clust_8="13000.00000" pt_clust_9="121.45775"></scales>
<clustering>
<clus scale="   90.891">  5  6 -1 -1</clus>
<clus scale="   91.030">  7  8 -1 -1</clus>
<clus scale="  121.458">  1  9  2 -1</clus>
<clus scale="  188.211">  2  5  1 -1</clus>
<clus scale="  121.458">  1  5  2 -1</clus>
</clustering>
</event>
<event>
 9    1  0.1399746E-005  0.9509851E+02  0.7546771E-02  0.1291025E+00
          2   -1    0    0  502    0 -0.00000000000E+00  0.00000000000E+00  0.13384703814E+03  0.13384703814E+03  0.00000000000E+00 0. -1.
         21   -1    0    0  501  502  0.00000000000E+00 -0.00000000000E+00 -0.23262926941E+03  0.23262926941E+03  0.00000000000E+00 0.  1.
         23    2    1    2    0    0  0.12695570124E+02 -0.15596131732E+02  0.68815172364E+02  0.11581593354E+03  0.90958153497E+02 0.  0.
         23    2    1    2    0    0 -0.37075751447E+02  0.71357246677E+02 -0.13545630881E+03  0.18183635817E+03  0.90827207141E+02 0.  0.
        -11    1    4    4    0    0 -0.64451139039E+02  0.55002620213E+02 -0.73551672415E+02  0.11220109656E+03  0.00000000000E+00 0.  1.
         11    1    4    4    0    0  0.27375387592E+02  0.16354626465E+02 -0.61904636390E+02  0.69635261608E+02  0.00000000000E+00 0. -1.
        -13    1    3    3    0    0  0.47795885472E+02 -0.22892279321E+02  0.23336627848E+02  0.57905969639E+02  0.00000000000E+00 0. -1.
         13    1    3    3    0    0 -0.35100315348E+02  0.72961475895E+01  0.45478544516E+02  0.57909963896E+02  0.00000000000E+00 0.  1.
          2    1    1    2  501    0  0.24380181323E+02 -0.55761114946E+02 -0.32141094831E+02  0.68824015854E+02  0.00000000000E+00 0. -1.
<scales pt_clust_5="13000.00000" pt_clust_6="13000.00000" pt_clust_7="13000.00000" pt_clust_8="13000.00000" pt_clust_9="60.85799"></scales>
<clustering>
<clus scale="   60.858">  2  9  1 -1</clus>
<clus scale="   90.827">  5  6 -1 -1</clus>
<clus scale="   90.958">  7  8 -1 -1</clus>
<clus scale="   94.973">  2  5  1 -1</clus>
<clus scale="   60.858">  2  5  1 -1</clus>
</clustering>
</event>
<event>
 9    1  0.1399746E-005  0.1399913E+03  0.7546771E-02  0.1226373E+00
         21   -1    0    0  501  502  0.00000000000E+00  0.00000000000E+00  0.10493160508E+04  0.10493160508E+04  0.00000000000E+00 0. -1.
          1   -1    0    0  502    0 -0.00000000000E+00 -0.00000000000E+00 -0.66719441416E+02  0.66719441416E+02  0.00000000000E+00 0. -1.
         23    2    1    2    0    0 -0.49306046830E+02  0.18488695461E+02  0.31881171852E+03  0.33612040524E+03  0.92537002525E+02 0.  0.
         23    2    1    2    0    0 -0.21011144353E+01  0.76725139117E+02  0.13698294006E+02  0.12088477361E+03  0.92381402773E+02 0.  0.
        -11    1    4    4    0    0 -0.38788893292E+02  0.15076175304E+02 -0.14111834721E+02  0.43943295095E+02  0.00000000000E+00 0. -1.
         11    1    4    4    0    0  0.36687778857E+02  0.61648963813E+02  0.27810128727E+02  0.76941478517E+02  0.00000000000E+00 0.  1.
        -11    1    3    3    0    0 -0.54748922924E+01  0.50544006754E+02  0.12782980782E+03  0.13756864044E+03  0.00000000000E+00 0. -1.
         11    1    3    3    0    0 -0.43831154538E+02 -0.32055311292E+02  0.19098191070E+03  0.19855176480E+03  0.00000000000E+00 0.  1.
          1    1    1    2  501    0  0.51407161265E+02 -0.95213834578E+02  0.65008659685E+03  0.65903031336E+03  0.00000000000E+00 0. -1.
<scales pt_clust_5="13000.00000" pt_clust_6="13000.00000" pt_clust_7="13000.00000" pt_clust_8="13000.00000" pt_clust_9="105.18200"></scales>
<clustering>
<clus scale="   92.381">  5  6 -1 -1</clus>
<clus scale="   92.537">  7  8 -1 -1</clus>
<clus scale="  106.471">  2  7  1 -1</clus>
<clus scale="  105.182">  1  9  2 -1</clus>
<clus scale="  105.182">  1  5  2 -1</clus>
</clustering>
</event>
<event>
 9    1  0.1451354E-005  0.1001320E+03  0.7546771E-02  0.1281170E+00
          1   -1    0    0  502    0 -0.00000000000E+00  0.00000000000E+00  0.69561850192E+03  0.69561850192E+03  0.00000000000E+00 0. -1.
         21   -1    0    0  501  502  0.00000000000E+00 -0.00000000000E+00 -0.83998518723E+02  0.83998518723E+02  0.00000000000E+00 0.  1.
         23    2    1    2    0    0  0.22427127547E+02  0.23426686825E+02  0.39058509909E+03  0.40259914504E+03  0.92073700072E+02 0.  0.
         23    2    1    2    0    0 -0.59159087358E+02 -0.15707922728E+01  0.28244295502E+03  0.30219897311E+03  0.89710264196E+02 0.  0.
        -11    1    4    4    0    0  0.20949887150E+02  0.10515514377E+02  0.37678089168E+02  0.44374679915E+02  0.00000000000E+00 0. -1.
         11    1    4    4    0    0 -0.80108974508E+02 -0.12086306650E+02  0.24476486585E+03  0.25782429319E+03  0.00000000000E+00 0.  1.
        -13    1    3    3    0    0 -0.26116418695E+01  0.55635167819E+02  0.25488444440E+03  0.26089877840E+03  0.00000000000E+00 0.  1.
         13    1    3    3    0    0  0.25038769417E+02 -0.32208480994E+02  0.13570065469E+03  0.14170036664E+03  0.00000000000E+00 0. -1.
          1    1    1    2  501    0  0.36731959811E+02 -0.21855894552E+02 -0.61408070913E+02  0.74818902501E+02  0.00000000000E+00 0. -1.
<scales pt_clust_5="13000.00000" pt_clust_6="13000.00000" pt_clust_7="13000.00000" pt_clust_8="13000.00000" pt_clust_9="42.74245"></scales>
<clustering>
<clus scale="   42.742">  2  9  1 -1</clus>
<clus scale="   89.710">  5  6 -1 -1</clus>
<clus scale="   92.074">  7  8 -1 -1</clus>
<clus scale="   97.963">  2  5  1 -1</clus>
<clus scale="   42.742">  2  5  1 -1</clus>
</clustering>
</event>
<event>
 9    1  0.1399746E-005  0.8949723E+02  0.7546771E-02  0.1304454E+00
         21   -1    0    0  501  502  0.00000000000E+00  0.00000000000E+00  0.30404557943E+03  0.30404557943E+03  0.00000000000E+00 0. -1.
          3   -1    0    0  502    0 -0.00000000000E+00 -0.00000000000E+00 -0.68976597077E+02  0.68976597077E+02  0.00000000000E+00 0. -1.
         23    2    1    2    0    0  0.20248631018E+02 -0.36936581007E+02  0.26832033430E+01  0.94243528372E+02  0.84263426142E+02 0.  0.
         23    2    1    2    0    0 -0.58942496667E+01  0.81569933098E+01  0.59944755159E+02  0.10336422558E+03  0.83603293837E+02 0.  0.
        -11    1    3    3    0    0 -0.23477931026E+02  0.94331269322E+01  0.14878095103E+02  0.29352254477E+02  0.00000000000E+00 0.  1.
         11    1    3    3    0    0  0.43726562044E+02 -0.46369707940E+02 -0.12194891760E+02  0.64891273895E+02  0.00000000000E+00 0. -1.
        -13    1    4    4    0    0  0.27648494595E+02 -0.45306458965E+01 -0.56731784422E+01  0.28585852431E+02  0.00000000000E+00 0. -1.
         13    1    4    4    0    0 -0.33542744261E+02  0.12687639206E+02  0.65617933602E+02  0.74778373153E+02  0.00000000000E+00 0.  1.
          3    1    1    2  501    0 -0.14354381351E+02  0.28779587698E+02  0.17244102385E+03  0.17541442255E+03  0.00000000000E+00 0. -1.
<scales pt_clust_5="13000.00000" pt_clust_6="13000.00000" pt_clust_7="13000.00000" pt_clust_8="13000.00000" pt_clust_9="32.16074"></scales>
<clustering>
<clus scale="   32.161">  1  9  2 -1</clus>
<clus scale="   83.603">  7  8 -1 -1</clus>
<clus scale="   84.263">  5  6 -1 -1</clus>
<clus scale="   88.876">  1  7  2 -1</clus>
<clus scale="   32.161">  1  5  2 -1</clus>
</clustering>
</event>
<event>
 9    1  0.1399746E-005  0.1018129E+03  0.7546771E-02  0.1278232E+00
         -3   -1    0    0    0  501 -0.00000000000E+00  0.00000000000E+00  0.15543515388E+03  0.15543515388E+03  0.00000000000E+00 0.  1.
         21   -1    0    0  501  502  0.00000000000E+00 -0.00000000000E+00 -0.19046966840E+03  0.19046966840E+03  0.00000000000E+00 0.  1.
         23    2    1    2    0    0  0.30029667631E+02 -0.53288706452E+02  0.10322423684E+03  0.14128075817E+03  0.74589157295E+02 0.  0.
         23    2    1    2    0    0 -0.47065353623E+02  0.76538526308E+02 -0.12479439036E+03  0.17281120920E+03  0.78846563899E+02 0.  0.
        -11    1    3    3    0    0  0.30465842045E+02  0.84660832495E+01  0.19166275685E+02  0.36975508391E+02  0.00000000000E+00 0. -1.
         11    1    3    3    0    0 -0.43617441372E+00 -0.61754789702E+02  0.84057961151E+02  0.10430524978E+03  0.00000000000E+00 0.  1.
        -13    1    4    4    0    0  0.45820296005E+01  0.66751510309E+02 -0.67029095828E+02  0.94708282696E+02  0.00000000000E+00 0.  1.
         13    1    4    4    0    0 -0.51647383224E+02  0.97870159996E+01 -0.57765294527E+02  0.78102926500E+02  0.00000000000E+00 0. -1.
         -3    1    1    2    0  502  0.17035685992E+02 -0.23249819856E+02 -0.13464360992E+02  0.31812854909E+02  0.00000000000E+00 0.  1.
<scales pt_clust_5="13000.00000" pt_clust_6="13000.00000" pt_clust_7="13000.00000" pt_clust_8="13000.00000" pt_clust_9="28.82306"></scales>
<clustering>
<clus scale="   28.823">  2  9  1 -1</clus>
<clus scale="   74.589">  5  6 -1 -1</clus>
<clus scale="   78.847">  7  8 -1 -1</clus>
<clus scale="   98.553">  1  5  2 -1</clus>
<clus scale="   28.823">  2  5  1 -1</clus>
</clustering>
</event>
<event>
 9    1  0.1399746E-005  0.1483799E+03  0.7546771E-02  0.1202630E+00
          1   -1    0    0  502    0 -0.00000000000E+00  0.00000000000E+00  0.40805429002E+03  0.40805429002E+03  0.00000000000E+00 0. -1.
         21   -1    0    0  501  502  0.00000000000E+00 -0.00000000000E+00 -0.93041355544E+02  0.93041355544E+02  0.00000000000E+00 0. -1.
         23    2    1    2    0    0 -0.69269946453E+02 -0.80409278857E+02  0.23060045423E+03  0.27002844714E+03  0.92058759317E+02 0.  0.
         23    2    1    2    0    0  0.96731541019E+02  0.11146276415E+03  0.65129491796E+02  0.18534748967E+03  0.91273777205E+02 0.  0.
        -11    1    3    3    0    0 -0.21742463918E+02  0.14480316682E+02  0.90957481778E+02  0.94634442989E+02  0.00000000000E+00 0.  1.
         11    1    3    3    0    0 -0.47527482535E+02 -0.94889595539E+02  0.13964297245E+03  0.17539400415E+03  0.00000000000E+00 0. -1.
        -11    1    4    4    0    0  0.11908390664E+02  0.71342678805E+02  0.21937087166E+01  0.72362973579E+02  0.00000000000E+00 0.  1.
         11    1    4    4    0    0  0.84823150355E+02  0.40120085342E+02  0.62935783079E+02  0.11298451609E+03  0.00000000000E+00 0. -1.
          1    1    1    2  501    0 -0.27461594566E+02 -0.31053485290E+02  0.19282988446E+02  0.45719708750E+02  0.00000000000E+00 0. -1.
<scales pt_clust_5="13000.00000" pt_clust_6="13000.00000" pt_clust_7="13000.00000" pt_clust_8="13000.00000" pt_clust_9="41.45429"></scales>
<clustering>
<clus scale="   41.454">  2  9  1 -1</clus>
<clus scale="   91.274">  7  8 -1 -1</clus>
<clus scale="   92.059">  5  6 -1 -1</clus>
<clus scale="  147.894">  2  7  1 -1</clus>
<clus scale="   41.454">  2  5  1 -1</clus>
</clustering>
</event>
<event>
 9    1  0.1399746E-005  0.9193086E+02  0.7546771E-02  0.1298786E+00
         -1   -1    0    0    0  501 -0.00000000000E+00  0.00000000000E+00  0.19366056791E+03  0.19366056791E+03  0.00000000000E+00 0.  1.
         21   -1    0    0  501  502  0.00000000000E+00 -0.00000000000E+00 -0.60817205149E+02  0.60817205149E+02  0.00000000000E+00 0. -1.
         23    2    1    2    0    0  0.75257060160E+00 -0.13656868265E+02  0.72406279466E+02  0.11779068561E+03  0.91896136464E+02 0.  0.
         23    2    1    2    0    0 -0.43829738707E+01 -0.15801629002E+02  0.40458073076E+02  0.10090799106E+03  0.90976178443E+02 0.  0.
        -11    1    4    4    0    0  0.12618757216E+02 -0.50927905862E+02  0.16003495269E+02  0.54854320614E+02  0.00000000000E+00 0.  1.
         11    1    4    4    0    0 -0.17001731087E+02  0.35126276860E+02  0.24454577807E+02  0.46053670448E+02  0.00000000000E+00 0. -1.
        -13    1    3    3    0    0  0.29335643043E+02 -0.40283388352E+02  0.23213997708E+02  0.54974730736E+02  0.00000000000E+00 0.  1.
         13    1    3    3    0    0 -0.28583072442E+02  0.26626520087E+02  0.49192281758E+02  0.62815954874E+02  0.00000000000E+00 0. -1.
         -1    1    1    2    0  502  0.36304032691E+01  0.29458497267E+02  0.19979010223E+02  0.35779096392E+02  0.00000000000E+00 0.  1.
<scales pt_clust_5="13000.00000" pt_clust_6="13000.00000" pt_clust_7="13000.00000" pt_clust_8="13000.00000" pt_clust_9="29.68137"></scales>
<clustering>
<clus scale="   29.681">  2  9  1 -1</clus>
<clus scale="   90.976">  5  6 -1 -1</clus>
<clus scale="   91.011">  2  5  1 -1</clus>
<clus scale="   91.896">  7  8 -1 -1</clus>
<clus scale="   29.681">  2  5  1 -1</clus>
</clustering>
</event>
<event>
 9    1  0.1399746E-005  0.1998284E+03  0.7546771E-02  0.1150273E+00
         21   -1    0    0  501  502  0.00000000000E+00  0.00000000000E+00  0.11281754704E+04  0.11281754704E+04  0.00000000000E+00 0. -1.
          3   -1    0    0  502    0 -0.00000000000E+00 -0.00000000000E+00 -0.70083474849E+02  0.70083474849E+02  0.00000000000E+00 0. -1.
         23    2    1    2    0    0  0.19698835898E+03  0.76186664619E+02  0.26421823381E+03  0.35143905224E+03  0.95337877691E+02 0.  0.
         23    2    1    2    0    0 -0.11146983910E+03 -0.89714167616E+02  0.29410032194E+03  0.33960208801E+03  0.91435342806E+02 0.  0.
        -13    1    4    4    0    0 -0.16731684855E+02 -0.33921270370E+02  0.16843365990E+03  0.17262821220E+03  0.00000000000E+00 0.  1.
         13    1    4    4    0    0 -0.94738154245E+02 -0.55792897247E+02  0.12566666205E+03  0.16697387581E+03  0.00000000000E+00 0. -1.
        -13    1    3    3    0    0  0.67711959626E+02 -0.16524132611E+02  0.56030936966E+02  0.89428308339E+02  0.00000000000E+00 0.  1.
         13    1    3    3    0    0  0.12927639935E+03  0.92710797231E+02  0.20818729685E+03  0.26201074390E+03  0.00000000000E+00 0. -1.
          3    1    1    2  501    0 -0.85518519881E+02  0.13527502997E+02  0.49977343979E+03  0.50721780499E+03  0.00000000000E+00 0. -1.
<scales pt_clust_5="13000.00000" pt_clust_6="13000.00000" pt_clust_7="13000.00000" pt_clust_8="13000.00000" pt_clust_9="86.58181"></scales>
<clustering>
<clus scale="   86.582">  1  9  2 -1</clus>
<clus scale="   91.435">  5  6 -1 -1</clus>
<clus scale="   95.338">  7  8 -1 -1</clus>
<clus scale="  197.996">  1  5  2 -1</clus>
<clus scale="   86.582">  1  5  2 -1</clus>
</clustering>
</event>
<event>
 9    1  0.1399746E-005  0.9363772E+02  0.7546771E-02  0.1294707E+00
          1   -1    0    0  502    0 -0.00000000000E+00  0.00000000000E+00  0.16712487034E+03  0.16712487034E+03  0.00000000000E+00 0. -1.
         21   -1    0    0  501  502  0.00000000000E+00 -0.00000000000E+00 -0.94983393382E+02  0.94983393382E+02  0.00000000000E+00 0. -1.
         23    2    1    2    0    0  0.14849063319E+02  0.89455363224E+01  0.81929112837E+02  0.12360783559E+03  0.90917546091E+02 0.  0.
         23    2    1    2    0    0 -0.30825649385E+02  0.11920986334E+02 -0.33546967718E+02  0.10307206493E+03  0.91684900336E+02 0.  0.
        -11    1    3    3    0    0 -0.32214309135E+02  0.24922502469E+02  0.23980513117E+02  0.47264763320E+02  0.00000000000E+00 0.  1.
         11    1    3    3    0    0  0.47063372454E+02 -0.15976966146E+02  0.57948599719E+02  0.76343072268E+02  0.00000000000E+00 0. -1.
        -13    1    4    4    0    0 -0.19697178139E+02 -0.36909791698E+02  0.16323121588E+01  0.41868556135E+02  0.00000000000E+00 0.  1.
         13    1    4    4    0    0 -0.11128471246E+02  0.48830778033E+02 -0.35179279877E+02  0.61203508790E+02  0.00000000000E+00 0. -1.
          1    1    1    2  501    0  0.15976586067E+02 -0.20866522657E+02  0.23759331839E+02  0.35428363207E+02  0.00000000000E+00 0. -1.
<scales pt_clust_5="13000.00000" pt_clust_6="13000.00000" pt_clust_7="13000.00000" pt_clust_8="13000.00000" pt_clust_9="26.28048"></scales>
<clustering>
<clus scale="   26.280">  2  9  1 -1</clus>
<clus scale="   90.918">  5  6 -1 -1</clus>
<clus scale="   91.685">  7  8 -1 -1</clus>
<clus scale="   92.887">  1  5  2 -1</clus>
<clus scale="   26.280">  2  5  1 -1</clus>
</clustering>
</event>
<event>
 9    1  0.1399746E-005  0.1448540E+03  0.7546771E-02  0.1207491E+00
         21   -1    0    0  501  502  0.00000000000E+00  0.00000000000E+00  0.24281268573E+03  0.24281268573E+03  0.00000000000E+00 0. -1.
          1   -1    0    0  502    0 -0.00000000000E+00 -0.00000000000E+00 -0.10646449250E+03  0.10646449250E+03  0.00000000000E+00 0. -1.
         23    2    1    2    0    0  0.11334391128E+03  0.25630963505E+02  0.18354899379E+02  0.14961264985E+03  0.92429725457E+02 0.  0.
         23    2    1    2    0    0 -0.94049613673E+02 -0.32233965541E+02  0.87594027856E+02  0.16305872379E+03  0.95031969994E+02 0.  0.
        -11    1    4    4    0    0 -0.63226174022E+02  0.26609851996E+02  0.28979091251E+02  0.74467583783E+02  0.00000000000E+00 0. -1.
         11    1    4    4    0    0 -0.30823439651E+02 -0.58843817537E+02  0.58614936604E+02  0.88591140005E+02  0.00000000000E+00 0.  1.
        -13    1    3    3    0    0  0.67249581608E+02  0.26719888773E+02  0.54856535627E+02  0.90805826815E+02  0.00000000000E+00 0. -1.
         13    1    3    3    0    0  0.46094329677E+02 -0.10889252677E+01 -0.36501636248E+02  0.58806823035E+02  0.00000000000E+00 0.  1.
          1    1    1    2  501    0 -0.19294297612E+02  0.66030020356E+01  0.30399265997E+02  0.36605804585E+02  0.00000000000E+00 0. -1.
<scales pt_clust_5="13000.00000" pt_clust_6="13000.00000" pt_clust_7="13000.00000" pt_clust_8="13000.00000" pt_clust_9="20.39288"></scales>
<clustering>
<clus scale="   20.393">  1  9  2 -1</clus>
<clus scale="   92.430">  7  8 -1 -1</clus>
<clus scale="   95.032">  5  6 -1 -1</clus>
<clus scale="  143.160">  2  7  1 -1</clus>
<clus scale="   20.393">  1  5  2 -1</clus>
</clustering>
</event>
<event>
 9    1  0.1399746E-005  0.1004525E+03  0.7546771E-02  0.1281231E+00
          4   -1    0    0  502    0 -0.00000000000E+00  0.00000000000E+00  0.31997838578E+03  0.31997838578E+03  0.00000000000E+00 0. -1.
         21   -1    0    0  501  502  0.00000000000E+00 -0.00000000000E+00 -0.15271979199E+03  0.15271979199E+03  0.00000000000E+00 0. -1.
         23    2    1    2    0    0  0.13478225144E+02  0.28378114052E+01  0.14836267248E+03  0.17559241455E+03  0.92905854148E+02 0.  0.
         23    2    1    2    0    0  0.47594245566E+01 -0.68286781504E+02  0.12432931342E+03  0.17167697975E+03  0.96589184436E+02 0.  0.
        -11    1    3    3    0    0 -0.23215279003E+02  0.36589904835E+02  0.58155353801E+02  0.72524585423E+02  0.00000000000E+00 0.  1.
         11    1    3    3    0    0  0.36693504147E+02 -0.33752093430E+02  0.90207318680E+02  0.10306782913E+03  0.00000000000E+00 0. -1.
        -13    1    4    4    0    0 -0.34169671525E+00 -0.87818137667E+02  0.12341365848E+03  0.15146971037E+03  0.00000000000E+00 0. -1.
         13    1    4    4    0    0  0.51011212718E+01  0.19531356163E+02  0.91565493884E+00  0.20207269379E+02  0.00000000000E+00 0.  1.
          4    1    1    2  501    0 -0.18237649701E+02  0.65448970099E+02 -0.10543339211E+03  0.12542878348E+03  0.00000000000E+00 0. -1.
<scales pt_clust_5="13000.00000" pt_clust_6="13000.00000" pt_clust_7="13000.00000" pt_clust_8="13000.00000" pt_clust_9="67.94247"></scales>
<clustering>
<clus scale="   67.942">  2  9  1 -1</clus>
<clus scale="   92.906">  5  6 -1 -1</clus>
<clus scale="   96.589">  7  8 -1 -1</clus>
<clus scale="   96.916">  1  5  2 -1</clus>
<clus scale="   67.942">  2  5  1 -1</clus>
</clustering>
</event>
<event>
 9    1  0.1399746E-005  0.1460244E+03  0.7546771E-02  0.1206175E+00
         -1   -1    0    0    0  501 -0.00000000000E+00  0.00000000000E+00  0.76783407267E+03  0.76783407267E+03  0.00000000000E+00 0.  1.
         21   -1    0    0  501  502  0.00000000000E+00 -0.00000000000E+00 -0.35294851678E+02  0.35294851678E+02  0.00000000000E+00 0.  1.
         23    2    1    2    0    0 -0.65675130934E+02  0.84380112226E+02  0.34810716851E+03  0.37577427174E+03  0.92706398766E+02 0.  0.
         23    2    1    2    0    0  0.46173861269E+02 -0.11355323945E+03  0.31571247580E+03  0.35019409863E+03  0.89079603083E+02 0.  0.
        -11    1    4    4    0    0  0.18645822514E+02 -0.90522765430E+02  0.12131039837E+03  0.15250655891E+03  0.00000000000E+00 0.  1.
         11    1    4    4    0    0  0.27528038755E+02 -0.23030474021E+02  0.19440207743E+03  0.19768753971E+03  0.00000000000E+00 0. -1.
        -13    1    3    3    0    0 -0.87538509897E+02  0.65391052353E+02  0.30371331646E+03  0.32277044325E+03  0.00000000000E+00 0.  1.
         13    1    3    3    0    0  0.21863378963E+02  0.18989059873E+02  0.44393852048E+02  0.53003828486E+02  0.00000000000E+00 0. -1.
         -1    1    1    2    0  502  0.19501269666E+02  0.29173127225E+02  0.68719576682E+02  0.77160553977E+02  0.00000000000E+00 0.  1.
<scales pt_clust_5="13000.00000" pt_clust_6="13000.00000" pt_clust_7="13000.00000" pt_clust_8="13000.00000" pt_clust_9="35.09089"></scales>
<clustering>
<clus scale="   35.091">  2  9  1 -1</clus>
<clus scale="   89.080">  5  6 -1 -1</clus>
<clus scale="   92.706">  7  8 -1 -1</clus>
<clus scale="  143.749">  2  5  1 -1</clus>
<clus scale="   35.091">  2  5  1 -1</clus>
</clustering>
</event>
<event>
 9    1  0.1399746E-005  0.1525930E+03  0.7546771E-02  0.1197389E+00
         21   -1    0    0  501  502  0.00000000000E+00  0.00000000000E+00  0.31624649857E+03  0.31624649857E+03  0.00000000000E+00 0. -1.
         -1   -1    0    0    0  501 -0.00000000000E+00 -0.00000000000E+00 -0.13753053245E+03  0.13753053245E+03  0.00000000000E+00 0.  1.
         23    2    1    2    0    0  0.12961970939E+02  0.12184485396E+03 -0.39724107004E+02  0.15859777023E+03  0.92526033721E+02 0.  0.
         23    2    1    2    0    0 -0.50463765433E+02 -0.11159730677E+03  0.13980813330E+03  0.20746165268E+03  0.92160038492E+02 0.  0.
        -13    1    3    3    0    0 -0.15461439399E+02  0.11087364070E+03 -0.54760126139E+02  0.12462219595E+03  0.00000000000E+00 0.  1.
         13    1    3    3    0    0  0.28423410339E+02  0.10971213265E+02  0.15036019135E+02  0.33975574273E+02  0.00000000000E+00 0. -1.
        -13    1    4    4    0    0  0.23402113098E+02 -0.56200012958E+02  0.52524933634E+02  0.80405030982E+02  0.00000000000E+00 0.  1.
         13    1    4    4    0    0 -0.73865878531E+02 -0.55397293814E+02  0.87283199661E+02  0.12705662169E+03  0.00000000000E+00 0. -1.
         -1    1    1    2    0  502  0.37501794494E+02 -0.10247547188E+02  0.78631939825E+02  0.87717608120E+02  0.00000000000E+00 0.  1.
<scales pt_clust_5="13000.00000" pt_clust_6="13000.00000" pt_clust_7="13000.00000" pt_clust_8="13000.00000" pt_clust_9="38.87669"></scales>
<clustering>
<clus scale="   38.877">  1  9  2 -1</clus>
<clus scale="   92.160">  7  8 -1 -1</clus>
<clus scale="   92.526">  5  6 -1 -1</clus>
<clus scale="  152.371">  1  7  2 -1</clus>
<clus scale="   38.877">  1  5  2 -1</clus>
</clustering>
</event>
<event>
 9    1  0.1399746E-005  0.1267066E+03  0.7546771E-02  0.1234036E+00
         21   -1    0    0  501  502  0.00000000000E+00  0.00000000000E+00  0.78445429496E+02  0.78445429496E+02  0.00000000000E+00 0.  1.
          3   -1    0    0  502    0 -0.00000000000E+00 -0.00000000000E+00 -0.41838379668E+03  0.41838379668E+03  0.00000000000E+00 0. -1.
         23    2    1    2    0    0  0.36191976513E+02  0.54076012062E+02 -0.15188625408E+03  0.19115020310E+03  0.96098344019E+02 0.  0.
         23    2    1    2    0    0 -0.11507895974E+03 -0.60338996240E+02 -0.10016809151E+03  0.18741667765E+03  0.90594718730E+02 0.  0.
        -11    1    3    3    0    0  0.41183099612E+02 -0.66360483195E+01 -0.10883727199E+03  0.11655743908E+03  0.00000000000E+00 0. -1.
         11    1    3    3    0    0 -0.49911230984E+01  0.60712060381E+02 -0.43048982093E+02  0.74592764024E+02  0.00000000000E+00 0.  1.
        -13    1    4    4    0    0 -0.10457607453E+03 -0.87357893075E+01 -0.75414895192E+02  0.12922799927E+03  0.00000000000E+00 0. -1.
         13    1    4    4    0    0 -0.10502885214E+02 -0.51603206933E+02 -0.24753196314E+02  0.58188678378E+02  0.00000000000E+00 0.  1.
          3    1    1    2  501    0  0.78886983228E+02  0.62629841785E+01 -0.87884021598E+02  0.11826234543E+03  0.00000000000E+00 0. -1.
<scales pt_clust_5="13000.00000" pt_clust_6="13000.00000" pt_clust_7="13000.00000" pt_clust_8="13000.00000" pt_clust_9="79.13525"></scales>
<clustering>
<clus scale="   79.135">  1  9  2 -1</clus>
<clus scale="   90.595">  7  8 -1 -1</clus>
<clus scale="   96.098">  5  6 -1 -1</clus>
<clus scale="  122.585">  1  7  2 -1</clus>
<clus scale="   79.135">  1  5  2 -1</clus>
</clustering>
</event>
<event>
 9    1  0.1399746E-005  0.1518573E+03  0.7546771E-02  0.1198603E+00
          1   -1    0    0  502    0 -0.00000000000E+00  0.00000000000E+00  0.60220903176E+03  0.60220903176E+03  0.00000000000E+00 0. -1.
         21   -1    0    0  501  502  0.00000000000E+00 -0.00000000000E+00 -0.14710651802E+03  0.14710651802E+03  0.00000000000E+00 0. -1.
         23    2    1    2    0    0  0.37044551434E+02  0.11952356805E+03  0.52073034837E+03  0.54304182824E+03  0.89867398952E+02 0.  0.
         23    2    1    2    0    0 -0.14007568701E+02 -0.94866648792E+02 -0.48223749006E+00  0.13290741411E+03  0.92023122852E+02 0.  0.
        -11    1    4    4    0    0 -0.34190027031E+02 -0.94987993237E+02  0.21337965360E+02  0.10318423122E+03  0.00000000000E+00 0.  1.
         11    1    4    4    0    0  0.20182458330E+02  0.12134444487E+00 -0.21820202850E+02  0.29723182890E+02  0.00000000000E+00 0. -1.
        -13    1    3    3    0    0  0.63639891329E+02  0.99489845798E+02  0.35927298615E+03  0.37818691643E+03  0.00000000000E+00 0.  1.
         13    1    3    3    0    0 -0.26595339895E+02  0.20033722254E+02  0.16145736222E+03  0.16485491181E+03  0.00000000000E+00 0. -1.
          1    1    1    2  501    0 -0.23036982733E+02 -0.24656919261E+02 -0.65145597129E+02  0.73366307432E+02  0.00000000000E+00 0. -1.
<scales pt_clust_5="13000.00000" pt_clust_6="13000.00000" pt_clust_7="13000.00000" pt_clust_8="13000.00000" pt_clust_9="33.74413"></scales>
<clustering>
<clus scale="   33.744">  2  9  1 -1</clus>
<clus scale="   89.867">  7  8 -1 -1</clus>
<clus scale="   92.023">  5  6 -1 -1</clus>
<clus scale="  150.561">  1  7  2 -1</clus>
<clus scale="   33.744">  2  5  1 -1</clus>
</clustering>
</event>
<event>
 9    1  0.1399746E-005  0.1051249E+03  0.7546771E-02  0.1271836E+00
         21   -1    0    0  501  502  0.00000000000E+00  0.00000000000E+00  0.12154587403E+03  0.12154587403E+03  0.00000000000E+00 0.  1.
         -1   -1    0    0    0  501 -0.00000000000E+00 -0.00000000000E+00 -0.23020565696E+03  0.23020565696E+03  0.00000000000E+00 0.  1.
         23    2    1    2    0    0  0.58131507461E+02 -0.14040825201E+02 -0.13420169831E+03  0.17322731644E+03  0.91767044183E+02 0.  0.
         23    2    1    2    0    0 -0.68207547437E+01  0.20962486306E+02  0.66993460926E+02  0.11219975929E+03  0.87262326645E+02 0.  0.
        -11    1    3    3    0    0  0.20694587613E+02  0.28257750296E+02 -0.94414216596E+01  0.36275430407E+02  0.00000000000E+00 0.  1.
         11    1    3    3    0    0  0.37436919848E+02 -0.42298575497E+02 -0.12476027665E+03  0.13695188603E+03  0.00000000000E+00 0. -1.
        -13    1    4    4    0    0 -0.42753896005E+02 -0.82967281984E+01  0.35273482841E+02  0.56044178236E+02  0.00000000000E+00 0.  1.
         13    1    4    4    0    0  0.35933141261E+02  0.29259214504E+02  0.31719978085E+02  0.56155581059E+02  0.00000000000E+00 0. -1.
         -1    1    1    2    0  502 -0.51310752717E+02 -0.69216611046E+01 -0.41451545542E+02  0.66324455254E+02  0.00000000000E+00 0.  1.
<scales pt_clust_5="13000.00000" pt_clust_6="13000.00000" pt_clust_7="13000.00000" pt_clust_8="13000.00000" pt_clust_9="51.77553"></scales>
<clustering>
<clus scale="   51.776">  1  9  2 -1</clus>
<clus scale="   87.262">  7  8 -1 -1</clus>
<clus scale="   91.767">  5  6 -1 -1</clus>
<clus scale="  101.216">  1  7  2 -1</clus>
<clus scale="   51.776">  1  5  2 -1</clus>
</clustering>
</event>
<event>
 9    1  0.1399746E-005  0.1176048E+03  0.7546771E-02  0.1247231E+00
         21   -1    0    0  501  502  0.00000000000E+00  0.00000000000E+00  0.51287551187E+03  0.51287551187E+03  0.00000000000E+00 0. -1.
          2   -1    0    0  502    0 -0.00000000000E+00 -0.00000000000E+00 -0.75324923014E+02  0.75324923014E+02  0.00000000000E+00 0. -1.
         23    2    1    2    0    0 -0.60088200451E+02  0.44706899677E+02 -0.10046988769E+02  0.11949004076E+03  0.92561488452E+02 0.  0.
         23    2    1    2    0    0  0.39717300532E+02 -0.45710023559E+02  0.29845246988E+03  0.31817719850E+03  0.92173654880E+02 0.  0.
        -11    1    4    4    0    0  0.68713113494E+02 -0.23741694579E+02  0.22000688985E+03  0.23170712464E+03  0.00000000000E+00 0.  1.
         11    1    4    4    0    0 -0.28995812962E+02 -0.21968328980E+02  0.78445580029E+02  0.86470073861E+02  0.00000000000E+00 0. -1.
        -11    1    3    3    0    0 -0.46558981823E+02  0.10759807715E+02  0.36629471111E+02  0.60209886267E+02  0.00000000000E+00 0.  1.
         11    1    3    3    0    0 -0.13529218628E+02  0.33947091962E+02 -0.46676459880E+02  0.59280154489E+02  0.00000000000E+00 0. -1.
          2    1    1    2  501    0  0.20370899919E+02  0.10031238824E+01  0.14914510775E+03  0.15053319563E+03  0.00000000000E+00 0. -1.
<scales pt_clust_5="13000.00000" pt_clust_6="13000.00000" pt_clust_7="13000.00000" pt_clust_8="13000.00000" pt_clust_9="20.39558"></scales>
<clustering>
<clus scale="   20.396">  1  9  2 -1</clus>
<clus scale="   92.174">  5  6 -1 -1</clus>
<clus scale="   92.561">  7  8 -1 -1</clus>
<clus scale="  117.300">  1  5  2 -1</clus>
<clus scale="   20.396">  1  5  2 -1</clus>
</clustering>
</event>
<event>
 9    1  0.1399746E-005  0.1086747E+03  0.7546771E-02  0.1263575E+00
          1   -1    0    0  502    0 -0.00000000000E+00  0.00000000000E+00  0.10221135266E+03  0.10221135266E+03  0.00000000000E+00 0. -1.
         21   -1    0    0  501  502  0.00000000000E+00 -0.00000000000E+00 -0.28957375196E+03  0.28957375196E+03  0.00000000000E+00 0. -1.
         23    2    1    2    0    0  0.42183982878E+02 -0.57632176916E+02  0.45170645174E+01  0.11597447656E+03  0.91261816302E+02 0.  0.
         23    2    1    2    0    0 -0.30051876683E+02  0.33935798957E+02 -0.20996564840E+02  0.10286649981E+03  0.89921673169E+02 0.  0.
        -11    1    3    3    0    0 -0.92148040692E+01 -0.51623423049E+02  0.27659165500E+02  0.59286759546E+02  0.00000000000E+00 0. -1.
         11    1    3    3    0    0  0.51398786947E+02 -0.60087538669E+01 -0.23142100982E+02  0.56687717017E+02  0.00000000000E+00 0.  1.
        -13    1    4    4    0    0 -0.34623940129E+02  0.54589306872E+02 -0.38647903734E+02  0.75315802577E+02  0.00000000000E+00 0.  1.
         13    1    4    4    0    0  0.45720634461E+01 -0.20653507915E+02  0.17651338895E+02  0.27550697235E+02  0.00000000000E+00 0. -1.
          1    1    1    2  501    0 -0.12132106196E+02  0.23696377959E+02 -0.17088289898E+03  0.17294412824E+03  0.00000000000E+00 0. -1.
<scales pt_clust_5="13000.00000" pt_clust_6="13000.00000" pt_clust_7="13000.00000" pt_clust_8="13000.00000" pt_clust_9="26.62154"></scales>
<clustering>
<clus scale="   26.622">  2  9  1 -1</clus>
<clus scale="   89.922">  7  8 -1 -1</clus>
<clus scale="   91.262">  5  6 -1 -1</clus>
<clus scale="  107.552">  2  7  1 -1</clus>
<clus scale="   26.622">  2  5  1 -1</clus>
</clustering>
</event>
<event>
 9    1  0.1399746E-005  0.1046057E+03  0.7546771E-02  0.1271496E+00
          1   -1    0    0  502    0 -0.00000000000E+00  0.00000000000E+00  0.46191124389E+03  0.46191124389E+03  0.00000000000E+00 0. -1.
         21   -1    0    0  501  502  0.00000000000E+00 -0.00000000000E+00 -0.45836894958E+02  0.45836894958E+02  0.00000000000E+00 0.  1.
         23    2    1    2    0    0  0.34175470702E+02  0.77788722369E+02  0.23005264731E+03  0.26115783712E+03  0.89778322699E+02 0.  0.
         23    2    1    2    0    0 -0.37189592359E+01 -0.16381095333E+02  0.11761922773E+03  0.14975335536E+03  0.91157082921E+02 0.  0.
        -11    1    4    4    0    0 -0.34944624661E+02  0.21428394201E+02  0.36097916368E+02  0.54620165112E+02  0.00000000000E+00 0. -1.
         11    1    4    4    0    0  0.31225665425E+02 -0.37809489534E+02  0.81521311362E+02  0.95133190245E+02  0.00000000000E+00 0.  1.
        -13    1    3    3    0    0 -0.86558310963E+01  0.75242677010E+02  0.10903735423E+03  0.13276117081E+03  0.00000000000E+00 0. -1.
         13    1    3    3    0    0  0.42831301799E+02  0.25460453592E+01  0.12101529308E+03  0.12839666631E+03  0.00000000000E+00 0.  1.
          1    1    1    2  501    0 -0.30456511467E+02 -0.61407627036E+02  0.68402473889E+02  0.96836946374E+02  0.00000000000E+00 0. -1.
<scales pt_clust_5="13000.00000" pt_clust_6="13000.00000" pt_clust_7="13000.00000" pt_clust_8="13000.00000" pt_clust_9="68.54557"></scales>
<clustering>
<clus scale="   68.546">  2  9  1 -1</clus>
<clus scale="   89.778">  7  8 -1 -1</clus>
<clus scale="   91.157">  5  6 -1 -1</clus>
<clus scale="  103.406">  1  7  2 -1</clus>
<clus scale="   68.546">  2  5  1 -1</clus>
</clustering>
</event>
<event>
 9    1  0.1399746E-005  0.1222051E+03  0.7546771E-02  0.1247062E+00
         21   -1    0    0  501  502  0.00000000000E+00  0.00000000000E+00  0.19762837597E+02  0.19762837597E+02  0.00000000000E+00 0. -1.
          2   -1    0    0  502    0 -0.00000000000E+00 -0.00000000000E+00 -0.11089854123E+04  0.11089854123E+04  0.00000000000E+00 0. -1.
         23    2    1    2    0    0 -0.21057255505E+02 -0.55533885896E+02 -0.60512020589E+03  0.61493814298E+03  0.91929514402E+02 0.  0.
         23    2    1    2    0    0 -0.41010155563E+01  0.39843817343E+02 -0.46181902034E+03  0.47672015583E+03  0.11126972327E+03 0.  0.
        -11    1    4    4    0    0  0.42636509127E+02 -0.71312830898E+01 -0.10093092042E+03  0.10979880603E+03  0.00000000000E+00 0.  1.
         11    1    4    4    0    0 -0.46737524683E+02  0.46975100433E+02 -0.36088809992E+03  0.36692134980E+03  0.00000000000E+00 0. -1.
        -11    1    3    3    0    0 -0.49185485267E+02 -0.23303175520E+01 -0.27871978258E+03  0.28303596863E+03  0.00000000000E+00 0.  1.
         11    1    3    3    0    0  0.28128229761E+02 -0.53203568344E+02 -0.32640042332E+03  0.33190217434E+03  0.00000000000E+00 0. -1.
          2    1    1    2  501    0  0.25158271062E+02  0.15690068553E+02 -0.22283348515E+02  0.37089951133E+02  0.00000000000E+00 0. -1.
<scales pt_clust_5="13000.00000" pt_clust_6="13000.00000" pt_clust_7="13000.00000" pt_clust_8="13000.00000" pt_clust_9="29.64990"></scales>
<clustering>
<clus scale="   29.650">  1  9  2 -1</clus>
<clus scale="   91.930">  7  8 -1 -1</clus>
<clus scale="  104.901">  2  7  1 -1</clus>
<clus scale="  111.270">  5  6 -1 -1</clus>
<clus scale="   29.650">  1  5  2 -1</clus>
</clustering>
</event>
<event>
 9    1  0.1399746E-005  0.1480991E+03  0.7546771E-02  0.1202870E+00
          2   -1    0    0  502    0 -0.00000000000E+00  0.00000000000E+00  0.64226676050E+03  0.64226676050E+03  0.00000000000E+00 0. -1.
         21   -1    0    0  501  502  0.00000000000E+00 -0.00000000000E+00 -0.96827611155E+02  0.96827611155E+02  0.00000000000E+00 0.  1.
         23    2    1    2    0    0 -0.80175420004E+01 -0.11148846841E+03  0.49123076549E+03  0.51208007638E+03  0.91784421858E+02 0.  0.
         23    2    1    2    0    0 -0.88252815652E+01  0.13939783077E+03  0.80245588303E+02  0.18529440519E+03  0.91569762107E+02 0.  0.
        -11    1    3    3    0    0  0.24696639460E+02 -0.46543085979E+02  0.89804148157E+02  0.10411996869E+03  0.00000000000E+00 0.  1.
         11    1    3    3    0    0 -0.32714181460E+02 -0.64945382427E+02  0.40142661733E+03  0.40796010769E+03  0.00000000000E+00 0. -1.
        -13    1    4    4    0    0  0.21336230679E+02  0.13482288960E+03  0.66357211485E+02  0.15177524771E+03  0.00000000000E+00 0.  1.
         13    1    4    4    0    0 -0.30161512244E+02  0.45749411713E+01  0.13888376818E+02  0.33519157480E+02  0.00000000000E+00 0. -1.
          2    1    1    2  501    0  0.16842823566E+02 -0.27909362368E+02 -0.26037204448E+02  0.41719890087E+02  0.00000000000E+00 0. -1.
<scales pt_clust_5="13000.00000" pt_clust_6="13000.00000" pt_clust_7="13000.00000" pt_clust_8="13000.00000" pt_clust_9="32.59775"></scales>
<clustering>
<clus scale="   32.598">  2  9  1 -1</clus>
<clus scale="   91.570">  7  8 -1 -1</clus>
<clus scale="   91.784">  5  6 -1 -1</clus>
<clus scale="  147.966">  2  7  1 -1</clus>
<clus scale="   32.598">  2  5  1 -1</clus>
</clustering>
</event>
<event>
 9    1  0.1399746E-005  0.1626280E+03  0.7546771E-02  0.1201231E+00
         -1   -1    0    0    0  501 -0.00000000000E+00  0.00000000000E+00  0.11956061564E+03  0.11956061564E+03  0.00000000000E+00 0.  1.
         21   -1    0    0  501  502  0.00000000000E+00 -0.00000000000E+00 -0.64388411429E+03  0.64388411429E+03  0.00000000000E+00 0. -1.
         23    2    1    2    0    0 -0.17703367563E+02 -0.67174067101E+02  0.31343388542E+02  0.11994858773E+03  0.92625542805E+02 0.  0.
         23    2    1    2    0    0 -0.12245804247E+03  0.51755616050E+02 -0.17562805625E+03  0.23814140555E+03  0.90506899964E+02 0.  0.
        -11    1    4    4    0    0 -0.36102209209E+02  0.63796037947E+02 -0.72588919449E+02  0.10316227602E+03  0.00000000000E+00 0. -1.
         11    1    4    4    0    0 -0.86355833256E+02 -0.12040421898E+02 -0.10303913680E+03  0.13497912953E+03  0.00000000000E+00 0.  1.
        -13    1    3    3    0    0 -0.44191640963E+02 -0.12648578519E+02 -0.93897491688E+01  0.46915403217E+02  0.00000000000E+00 0. -1.
         13    1    3    3    0    0  0.26488273400E+02 -0.54525488582E+02  0.40733137710E+02  0.73033184516E+02  0.00000000000E+00 0.  1.
         -1    1    1    2    0  502  0.14016141003E+03  0.15418451052E+02 -0.38003883095E+03  0.40535473665E+03  0.00000000000E+00 0.  1.
<scales pt_clust_5="13000.00000" pt_clust_6="13000.00000" pt_clust_7="13000.00000" pt_clust_8="13000.00000" pt_clust_9="135.11616"></scales>
<clustering>
<clus scale="   90.507">  5  6 -1 -1</clus>
<clus scale="   92.626">  7  8 -1 -1</clus>
<clus scale="  115.781">  1  7  2 -1</clus>
<clus scale="  135.116">  2  9  1 -1</clus>
<clus scale="  135.116">  2  5  1 -1</clus>
</clustering>
</event>
<event>
 9    1  0.1399746E-005  0.1431606E+03  0.7546771E-02  0.1230433E+00
         21   -1    0    0  501  502  0.00000000000E+00  0.00000000000E+00  0.29518284596E+03  0.29518284596E+03  0.00000000000E+00 0.  1.
         -2   -1    0    0    0  501 -0.00000000000E+00 -0.00000000000E+00 -0.33534738531E+03  0.33534738531E+03  0.00000000000E+00 0.  1.
         23    2    1    2    0    0 -0.17488253905E+02  0.15361791956E+02 -0.11562809316E+03  0.14746951253E+03  0.88518797563E+02 0.  0.
         23    2    1    2    0    0  0.65643938747E+02 -0.12008280761E+03 -0.15662612300E+03  0.22392546605E+03  0.82957004291E+02 0.  0.
        -11    1    3    3    0    0 -0.28982574966E+02 -0.12640002525E+02 -0.40723540599E+01  0.31880140889E+02  0.00000000000E+00 0.  1.
         11    1    3    3    0    0  0.11494321061E+02  0.28001794481E+02 -0.11155573910E+03  0.11558937164E+03  0.00000000000E+00 0. -1.
        -11    1    4    4    0    0  0.67884689136E+02 -0.67578960374E+02 -0.13837638114E+03  0.16829518639E+03  0.00000000000E+00 0.  1.
         11    1    4    4    0    0 -0.22407503886E+01 -0.52503847236E+02 -0.18249741859E+02  0.55630279658E+02  0.00000000000E+00 0. -1.
         -2    1    1    2    0  502 -0.48155684842E+02  0.10472101565E+03  0.23208967682E+03  0.25913525269E+03  0.00000000000E+00 0.  1.
<scales pt_clust_5="13000.00000" pt_clust_6="13000.00000" pt_clust_7="13000.00000" pt_clust_8="13000.00000" pt_clust_9="116.67516"></scales>
<clustering>
<clus scale="   82.957">  7  8 -1 -1</clus>
<clus scale="   88.519">  5  6 -1 -1</clus>
<clus scale="   91.528">  2  5  1 -1</clus>
<clus scale="  116.675">  1  9  2 -1</clus>
<clus scale="  116.675">  1  5  2 -1</clus>
</clustering>
</event>
<event>
 9    1  0.1399746E-005  0.1871536E+03  0.7546771E-02  0.1183971E+00
          1   -1    0    0  502    0 -0.00000000000E+00  0.00000000000E+00  0.76003093540E+02  0.76003093540E+02  0.00000000000E+00 0. -1.
         21   -1    0    0  501  502  0.00000000000E+00 -0.00000000000E+00 -0.95461880493E+03  0.95461880493E+03  0.00000000000E+00 0. -1.
         23    2    1    2    0    0 -0.38757912426E+02 -0.48760076458E+02 -0.17127157281E+03  0.20412271551E+03  0.91936992034E+02 0.  0.
         23    2    1    2    0    0  0.48536572344E+02 -0.12386297307E+03 -0.87728701226E+02  0.18321259859E+03  0.90402966263E+02 0.  0.
        -13    1    4    4    0    0  0.75061698157E+02 -0.10045226389E+03 -0.70571992704E+02  0.14389343976E+03  0.00000000000E+00 0. -1.
         13    1    4    4    0    0 -0.26525125813E+02 -0.23410709183E+02 -0.17156708522E+02  0.39319158830E+02  0.00000000000E+00 0.  1.
        -13    1    3    3    0    0  0.27830665590E+02 -0.31332658088E+02 -0.57529514101E+02  0.71175321585E+02  0.00000000000E+00 0.  1.
         13    1    3    3    0    0 -0.66588578016E+02 -0.17427418371E+02 -0.11374205870E+03  0.13294739393E+03  0.00000000000E+00 0. -1.
          1    1    1    2  501    0 -0.97786599185E+01  0.17262304953E+03 -0.61961543736E+03  0.64328658437E+03  0.00000000000E+00 0. -1.
<scales pt_clust_5="13000.00000" pt_clust_6="13000.00000" pt_clust_7="13000.00000" pt_clust_8="13000.00000" pt_clust_9="163.87122"></scales>
<clustering>
<clus scale="   90.403">  5  6 -1 -1</clus>
<clus scale="   91.937">  7  8 -1 -1</clus>
<clus scale="  111.050">  1  7  2 -1</clus>
<clus scale="  163.871">  2  9  1 -1</clus>
<clus scale="  163.871">  2  5  1 -1</clus>
</clustering>
</event>
<event>
 9    1  0.1399746E-005  0.9229075E+02  0.7546771E-02  0.1297549E+00
         21   -1    0    0  501  502  0.00000000000E+00  0.00000000000E+00  0.22794045087E+02  0.22794045087E+02  0.00000000000E+00 0. -1.
         -4   -1    0    0    0  501 -0.00000000000E+00 -0.00000000000E+00 -0.53611733053E+03  0.53611733053E+03  0.00000000000E+00 0.  1.
         23    2    1    2    0    0 -0.13698922137E+02 -0.17054650398E+02 -0.27136110528E+03  0.28716027988E+03  0.91354558262E+02 0.  0.
         23    2    1    2    0    0 -0.18282139113E+01 -0.65137739097E+01 -0.15343174329E+03  0.17883069522E+03  0.91615206644E+02 0.  0.
        -13    1    4    4    0    0 -0.45455940615E+02 -0.40769727694E+01 -0.57455780525E+02  0.73375956280E+02  0.00000000000E+00 0. -1.
         13    1    4    4    0    0  0.43627726704E+02 -0.24368011403E+01 -0.95975962760E+02  0.10545473894E+03  0.00000000000E+00 0.  1.
        -13    1    3    3    0    0 -0.45317833678E+02 -0.29624805687E+02 -0.21134460148E+03  0.21816937396E+03  0.00000000000E+00 0. -1.
         13    1    3    3    0    0  0.31618911542E+02  0.12570155289E+02 -0.60016503807E+02  0.68990905925E+02  0.00000000000E+00 0.  1.
         -4    1    1    2    0  502  0.15527136048E+02  0.23568424307E+02 -0.88530436873E+02  0.92920400511E+02  0.00000000000E+00 0.  1.
<scales pt_clust_5="13000.00000" pt_clust_6="13000.00000" pt_clust_7="13000.00000" pt_clust_8="13000.00000" pt_clust_9="28.22345"></scales>
<clustering>
<clus scale="   28.223">  1  9  2 -1</clus>
<clus scale="   91.355">  7  8 -1 -1</clus>
<clus scale="   91.615">  5  6 -1 -1</clus>
<clus scale="   92.032">  2  7  1 -1</clus>
<clus scale="   28.223">  1  5  2 -1</clus>
</clustering>
</event>
<event>
 9    1  0.1399746E-005  0.2058158E+03  0.7546771E-02  0.1171011E+00
         21   -1    0    0  501  502  0.00000000000E+00  0.00000000000E+00  0.30154109374E+03  0.30154109374E+03  0.00000000000E+00 0. -1.
          2   -1    0    0  502    0 -0.00000000000E+00 -0.00000000000E+00 -0.44615229361E+03  0.44615229361E+03  0.00000000000E+00 0. -1.
         23    2    1    2    0    0 -0.42343688243E+01 -0.64480887639E+02 -0.22368376693E+03  0.25010318237E+03  0.91331590892E+02 0.  0.
         23    2    1    2    0    0 -0.40786337681E+02 -0.12659459968E+03 -0.13274362431E+03  0.20879476734E+03  0.91020146480E+02 0.  0.
        -13    1    4    4    0    0 -0.16595732389E+02 -0.59820140487E+02 -0.45546431625E+01  0.62246383957E+02  0.00000000000E+00 0.  1.
         13    1    4    4    0    0 -0.24190605292E+02 -0.66774459189E+02 -0.12818898115E+03  0.14654838339E+03  0.00000000000E+00 0. -1.
        -13    1    3    3    0    0  0.34528721754E+02 -0.43216002643E+02 -0.17854968705E+03  0.18692203256E+03  0.00000000000E+00 0. -1.
         13    1    3    3    0    0 -0.38763090578E+02 -0.21264884996E+02 -0.45134079876E+02  0.63181149810E+02  0.00000000000E+00 0.  1.
          2    1    1    2  501    0  0.45020706505E+02  0.19107548732E+03  0.21181619138E+03  0.28879543763E+03  0.00000000000E+00 0. -1.
<scales pt_clust_5="13000.00000" pt_clust_6="13000.00000" pt_clust_7="13000.00000" pt_clust_8="13000.00000" pt_clust_9="184.59543"></scales>
<clustering>
<clus scale="   91.020">  5  6 -1 -1</clus>
<clus scale="   91.332">  7  8 -1 -1</clus>
<clus scale="  111.880">  2  7  1 -1</clus>
<clus scale="  184.595">  1  9  2 -1</clus>
<clus scale="  184.595">  1  5  2 -1</clus>
</clustering>
</event>
<event>
 9    1  0.1399746E-005  0.1029788E+03  0.7546771E-02  0.1279990E+00
         -2   -1    0    0    0  501 -0.00000000000E+00  0.00000000000E+00  0.83017659903E+03  0.83017659903E+03  0.00000000000E+00 0.  1.
         21   -1    0    0  501  502  0.00000000000E+00 -0.00000000000E+00 -0.19850457316E+02  0.19850457316E+02  0.00000000000E+00 0.  1.
         23    2    1    2    0    0  0.57950997740E+01  0.48099458765E+02  0.46859702368E+03  0.47830259459E+03  0.82722791786E+02 0.  0.
         23    2    1    2    0    0 -0.28477777218E+02 -0.20678369183E+02  0.30171935322E+03  0.31817820801E+03  0.94679592267E+02 0.  0.
        -11    1    4    4    0    0 -0.27292284993E+02 -0.57534372774E+02  0.20524566653E+03  0.21489731618E+03  0.00000000000E+00 0.  1.
         11    1    4    4    0    0 -0.11854922252E+01  0.36856003591E+02  0.96473686694E+02  0.10328089183E+03  0.00000000000E+00 0. -1.
        -13    1    3    3    0    0 -0.23606535086E+01  0.71241522673E+02  0.34189344252E+03  0.34924497602E+03  0.00000000000E+00 0. -1.
         13    1    3    3    0    0  0.81557532826E+01 -0.23142063908E+02  0.12670358116E+03  0.12905761858E+03  0.00000000000E+00 0.  1.
         -2    1    1    2    0  502  0.22682677444E+02 -0.27421089582E+02  0.40009764811E+02  0.53546253745E+02  0.00000000000E+00 0.  1.
<scales pt_clust_5="13000.00000" pt_clust_6="13000.00000" pt_clust_7="13000.00000" pt_clust_8="13000.00000" pt_clust_9="35.58680"></scales>
<clustering>
<clus scale="   35.587">  2  9  1 -1</clus>
<clus scale="   82.723">  7  8 -1 -1</clus>
<clus scale="   92.106">  1  7  2 -1</clus>
<clus scale="   94.680">  5  6 -1 -1</clus>
<clus scale="   35.587">  2  5  1 -1</clus>
</clustering>
</event>
<event>
 9    1  0.1399746E-005  0.1127873E+03  0.7546771E-02  0.1262085E+00
         21   -1    0    0  501  502  0.00000000000E+00  0.00000000000E+00  0.29056388048E+03  0.29056388048E+03  0.00000000000E+00 0.  1.
          2   -1    0    0  502    0 -0.00000000000E+00 -0.00000000000E+00 -0.11652332645E+03  0.11652332645E+03  0.00000000000E+00 0. -1.
         23    2    1    2    0    0 -0.34481476999E+02  0.61919466385E+02 -0.10745140677E+02  0.12003658294E+03  0.96282556172E+02 0.  0.
         23    2    1    2    0    0  0.54312828212E+02 -0.16003912149E+02  0.23069800094E+01  0.97841739597E+02  0.79760111197E+02 0.  0.
        -11    1    4    4    0    0 -0.13081901450E+02 -0.26259775590E+02  0.42459991747E+01  0.29643556949E+02  0.00000000000E+00 0.  1.
         11    1    4    4    0    0  0.67394729662E+02  0.10255863441E+02 -0.19390191654E+01  0.68198182648E+02  0.00000000000E+00 0. -1.
        -11    1    3    3    0    0 -0.63367309704E+02  0.26795431199E+02  0.10923889913E+02  0.69661628197E+02  0.00000000000E+00 0.  1.
         11    1    3    3    0    0  0.28885832705E+02  0.35124035186E+02 -0.21669030590E+02  0.50374954745E+02  0.00000000000E+00 0. -1.
          2    1    1    2  501    0 -0.19831351213E+02 -0.45915554236E+02  0.18247871470E+03  0.18920888438E+03  0.00000000000E+00 0. -1.
<scales pt_clust_5="13000.00000" pt_clust_6="13000.00000" pt_clust_7="13000.00000" pt_clust_8="13000.00000" pt_clust_9="50.01520"></scales>
<clustering>
<clus scale="   50.015">  1  9  2 -1</clus>
<clus scale="   79.760">  5  6 -1 -1</clus>
<clus scale="   96.283">  7  8 -1 -1</clus>
<clus scale="   99.057">  1  5  2 -1</clus>
<clus scale="   50.015">  1  5  2 -1</clus>
</clustering>
</event>
<event>
 9    1  0.1399746E-005  0.1040106E+03  0.7546771E-02  0.1272737E+00
          1   -1    0    0  502    0 -0.00000000000E+00  0.00000000000E+00  0.26073785461E+03  0.26073785461E+03  0.00000000000E+00 0. -1.
         21   -1    0    0  501  502  0.00000000000E+00 -0.00000000000E+00 -0.65396622168E+02  0.65396622168E+02  0.00000000000E+00 0.  1.
         23    2    1    2    0    0 -0.44568337843E+02 -0.30790158288E+02  0.14856938013E+03  0.18250691291E+03  0.91112798028E+02 0.  0.
         23    2    1    2    0    0  0.17530432733E+02  0.45079859625E+02  0.48902632275E+02  0.11297166557E+03  0.89619305749E+02 0.  0.
        -11    1    3    3    0    0 -0.63730432391E+02 -0.48007808105E+02  0.11920815953E+03  0.14344651599E+03  0.00000000000E+00 0. -1.
         11    1    3    3    0    0  0.19162094548E+02  0.17217649817E+02  0.29361220596E+02  0.39060396921E+02  0.00000000000E+00 0.  1.
        -13    1    4    4    0    0  0.36595295600E+02  0.60486693099E+02  0.52687279260E+02  0.88169184514E+02  0.00000000000E+00 0.  1.
         13    1    4    4    0    0 -0.19064862867E+02 -0.15406833473E+02 -0.37846469853E+01  0.24802481057E+02  0.00000000000E+00 0. -1.
          1    1    1    2  501    0  0.27037905110E+02 -0.14289701337E+02 -0.21307799566E+01  0.30655898295E+02  0.00000000000E+00 0. -1.
<scales pt_clust_5="13000.00000" pt_clust_6="13000.00000" pt_clust_7="13000.00000" pt_clust_8="13000.00000" pt_clust_9="30.58176"></scales>
<clustering>
<clus scale="   30.582">  2  9  1 -1</clus>
<clus scale="   89.619">  7  8 -1 -1</clus>
<clus scale="   91.113">  5  6 -1 -1</clus>
<clus scale="  102.705">  2  7  1 -1</clus>
<clus scale="   30.582">  2  5  1 -1</clus>
</clustering>
</event>
<event>
 9    1  0.1399746E-005  0.9171331E+02  0.7546771E-02  0.1298841E+00
         21   -1    0    0  501  502  0.00000000000E+00  0.00000000000E+00  0.19263632925E+03  0.19263632925E+03  0.00000000000E+00 0. -1.
         -1   -1    0    0    0  501 -0.00000000000E+00 -0.00000000000E+00 -0.90518264440E+02  0.90518264440E+02  0.00000000000E+00 0.  1.
         23    2    1    2    0    0  0.13879795669E+00  0.15628750653E+02 -0.93086811583E+01  0.92313928122E+02  0.90503771571E+02 0.  0.
         23    2    1    2    0    0 -0.19309668007E+02 -0.78155449270E+01  0.17126212182E+02  0.94294515389E+02  0.90355976380E+02 0.  0.
        -11    1    3    3    0    0 -0.17944378911E+02  0.28636664729E+02 -0.41279247444E+02  0.53348248058E+02  0.00000000000E+00 0. -1.
         11    1    3    3    0    0  0.18083176867E+02 -0.13007914076E+02  0.31970566286E+02  0.38965680064E+02  0.00000000000E+00 0.  1.
        -13    1    4    4    0    0  0.22144224229E+02 -0.21958246663E+02 -0.19855687492E+02  0.36969982269E+02  0.00000000000E+00 0.  1.
         13    1    4    4    0    0 -0.41453892236E+02  0.14142701736E+02  0.36981899674E+02  0.57324533120E+02  0.00000000000E+00 0. -1.
         -1    1    1    2    0  502  0.19170870050E+02 -0.78132057263E+01  0.94300533788E+02  0.96546150182E+02  0.00000000000E+00 0.  1.
<scales pt_clust_5="13000.00000" pt_clust_6="13000.00000" pt_clust_7="13000.00000" pt_clust_8="13000.00000" pt_clust_9="20.70189"></scales>
<clustering>
<clus scale="   20.702">  1  9  2 -1</clus>
<clus scale="   90.356">  7  8 -1 -1</clus>
<clus scale="   90.504">  5  6 -1 -1</clus>
<clus scale="   91.567">  1  7  2 -1</clus>
<clus scale="   20.702">  1  5  2 -1</clus>
</clustering>
</event>
<event>
 9    1  0.1399746E-005  0.1044313E+03  0.7546771E-02  0.1271876E+00
         21   -1    0    0  501  502  0.00000000000E+00  0.00000000000E+00  0.22663388978E+03  0.22663388978E+03  0.00000000000E+00 0.  1.
          1   -1    0    0  502    0 -0.00000000000E+00 -0.00000000000E+00 -0.16988065547E+03  0.16988065547E+03  0.00000000000E+00 0. -1.
         23    2    1    2    0    0  0.34659336323E+02  0.25226040633E+02 -0.12554889675E+03  0.16264575581E+03  0.94093005513E+02 0.  0.
         23    2    1    2    0    0 -0.49476045254E+02 -0.49096353844E+02  0.16188623189E+03  0.19913932565E+03  0.92687582387E+02 0.  0.
        -11    1    3    3    0    0  0.37605271935E+02 -0.20559015098E+02 -0.10292405006E+03  0.11149076042E+03  0.00000000000E+00 0. -1.
         11    1    3    3    0    0 -0.29459356116E+01  0.45785055731E+02 -0.22624846690E+02  0.51154995383E+02  0.00000000000E+00 0.  1.
        -11    1    4    4    0    0 -0.47386704355E+02  0.56462627769E+01  0.12307148670E+03  0.13199988966E+03  0.00000000000E+00 0.  1.
         11    1    4    4    0    0 -0.20893408988E+01 -0.54742616621E+02  0.38814745192E+02  0.67139435983E+02  0.00000000000E+00 0. -1.
          1    1    1    2  501    0  0.14816708931E+02  0.23870313211E+02  0.20415899178E+02  0.34729463796E+02  0.00000000000E+00 0. -1.
<scales pt_clust_5="13000.00000" pt_clust_6="13000.00000" pt_clust_7="13000.00000" pt_clust_8="13000.00000" pt_clust_9="28.09496"></scales>
<clustering>
<clus scale="   28.095">  1  9  2 -1</clus>
<clus scale="   92.688">  7  8 -1 -1</clus>
<clus scale="   94.093">  5  6 -1 -1</clus>
<clus scale="  103.167">  1  7  2 -1</clus>
<clus scale="   28.095">  1  5  2 -1</clus>
</clustering>
</event>
<event>
 9    1  0.1399746E-005  0.1296890E+03  0.7546771E-02  0.1228163E+00
         21   -1    0    0  501  502  0.00000000000E+00  0.00000000000E+00  0.17194086286E+03  0.17194086286E+03  0.00000000000E+00 0. -1.
         -2   -1    0    0    0  501 -0.00000000000E+00 -0.00000000000E+00 -0.14280354839E+03  0.14280354839E+03  0.00000000000E+00 0.  1.
         23    2    1    2    0    0 -0.86063469295E+02 -0.33453147109E+02 -0.34035444185E+02  0.13198039142E+03  0.87945315171E+02 0.  0.
         23    2    1    2    0    0  0.10065628125E+03  0.14502576470E+02  0.22664907437E+02  0.13572190786E+03  0.86975436565E+02 0.  0.
        -11    1    4    4    0    0  0.28226832058E+02  0.30995615696E+01 -0.33094154303E+02  0.43607159722E+02  0.00000000000E+00 0.  1.
         11    1    4    4    0    0  0.72429449193E+02  0.11403014900E+02  0.55759061740E+02  0.92114748142E+02  0.00000000000E+00 0. -1.
        -11    1    3    3    0    0 -0.85276729656E+02 -0.26140912449E+01 -0.48248406713E+02  0.98014605259E+02  0.00000000000E+00 0.  1.
         11    1    3    3    0    0 -0.78673963926E+00 -0.30839055864E+02  0.14212962528E+02  0.33965786163E+02  0.00000000000E+00 0. -1.
         -2    1    1    2    0  502 -0.14592811956E+02  0.18950570639E+02  0.40507851217E+02  0.47042111970E+02  0.00000000000E+00 0.  1.
<scales pt_clust_5="13000.00000" pt_clust_6="13000.00000" pt_clust_7="13000.00000" pt_clust_8="13000.00000" pt_clust_9="23.91807"></scales>
<clustering>
<clus scale="   23.918">  1  9  2 -1</clus>
<clus scale="   86.975">  5  6 -1 -1</clus>
<clus scale="   87.945">  7  8 -1 -1</clus>
<clus scale="  129.033">  1  5  2 -1</clus>
<clus scale="   23.918">  1  5  2 -1</clus>
</clustering>
</event>
<event>
 9    1  0.1399746E-005  0.9925708E+02  0.7546771E-02  0.1286668E+00
         21   -1    0    0  501  502  0.00000000000E+00  0.00000000000E+00  0.29567625833E+03  0.29567625833E+03  0.00000000000E+00 0.  1.
          2   -1    0    0  502    0 -0.00000000000E+00 -0.00000000000E+00 -0.10504107119E+03  0.10504107119E+03  0.00000000000E+00 0. -1.
         23    2    1    2    0    0 -0.89003468646E+01 -0.11630307035E+02 -0.49804757763E+02  0.11180777249E+03  0.99025167900E+02 0.  0.
         23    2    1    2    0    0 -0.41630771353E+02 -0.17531820353E+02  0.13832546262E+03  0.17130347269E+03  0.90390598502E+02 0.  0.
        -11    1    3    3    0    0  0.23366432273E+02  0.81668357970E+01 -0.66108301582E+02  0.70590331507E+02  0.00000000000E+00 0. -1.
         11    1    3    3    0    0 -0.32266779138E+02 -0.19797142832E+02  0.16303543820E+02  0.41217440984E+02  0.00000000000E+00 0.  1.
        -13    1    4    4    0    0 -0.65095127448E+02 -0.26205151810E+02  0.12399372903E+03  0.14247291124E+03  0.00000000000E+00 0.  1.
         13    1    4    4    0    0  0.23464356095E+02  0.86733314567E+01  0.14331733585E+02  0.28830561442E+02  0.00000000000E+00 0. -1.
          2    1    1    2  501    0  0.50531118218E+02  0.29162127388E+02  0.10211448229E+03  0.11760608435E+03  0.00000000000E+00 0. -1.
<scales pt_clust_5="13000.00000" pt_clust_6="13000.00000" pt_clust_7="13000.00000" pt_clust_8="13000.00000" pt_clust_9="58.34230"></scales>
<clustering>
<clus scale="   58.342">  1  9  2 -1</clus>
<clus scale="   90.391">  7  8 -1 -1</clus>
<clus scale="   90.645">  1  7  2 -1</clus>
<clus scale="   99.025">  5  6 -1 -1</clus>
<clus scale="   58.342">  1  5  2 -1</clus>
</clustering>
</event>
<event>
 9    1  0.1399746E-005  0.1226076E+03  0.7546771E-02  0.1239626E+00
         21   -1    0    0  501  502  0.00000000000E+00  0.00000000000E+00  0.16316116200E+03  0.16316116200E+03  0.00000000000E+00 0. -1.
          1   -1    0    0  502    0 -0.00000000000E+00 -0.00000000000E+00 -0.31452704045E+03  0.31452704045E+03  0.00000000000E+00 0. -1.
         23    2    1    2    0    0 -0.86932590408E+01 -0.77947334892E+02 -0.26189388870E+03  0.28991094153E+03  0.96481010097E+02 0.  0.
         23    2    1    2    0    0  0.18363536193E+02  0.57006275385E+02  0.48484499560E+02  0.12158481837E+03  0.94048851479E+02 0.  0.
        -11    1    3    3    0    0  0.43476743698E+02 -0.39208168794E+02 -0.10768806540E+03  0.12257335425E+03  0.00000000000E+00 0. -1.
         11    1    3    3    0    0 -0.52170002739E+02 -0.38739166098E+02 -0.15420582330E+03  0.16733758728E+03  0.00000000000E+00 0.  1.
        -11    1    4    4    0    0 -0.32943171563E+02  0.44713507964E+02  0.10369701934E+02  0.56498504982E+02  0.00000000000E+00 0.  1.
         11    1    4    4    0    0  0.51306707756E+02  0.12292767421E+02  0.38114797627E+02  0.65086313383E+02  0.00000000000E+00 0. -1.
          1    1    1    2  501    0 -0.96702771525E+01  0.20941059507E+02  0.62043510688E+02  0.66192442560E+02  0.00000000000E+00 0. -1.
<scales pt_clust_5="13000.00000" pt_clust_6="13000.00000" pt_clust_7="13000.00000" pt_clust_8="13000.00000" pt_clust_9="23.06604"></scales>
<clustering>
<clus scale="   23.066">  1  9  2 -1</clus>
<clus scale="   94.049">  7  8 -1 -1</clus>
<clus scale="   96.481">  5  6 -1 -1</clus>
<clus scale="  120.703">  1  7  2 -1</clus>
<clus scale="   23.066">  1  5  2 -1</clus>
</clustering>
</event>
<event>
 9    1  0.1399746E-005  0.1048590E+03  0.7546771E-02  0.1270868E+00
         -4   -1    0    0    0  501 -0.00000000000E+00  0.00000000000E+00  0.42979992652E+02  0.42979992652E+02  0.00000000000E+00 0.  1.
         21   -1    0    0  501  502  0.00000000000E+00 -0.00000000000E+00 -0.72703846153E+03  0.72703846153E+03  0.00000000000E+00 0. -1.
         23    2    1    2    0    0  0.15396038286E+02  0.84102120720E+02 -0.12402666400E+03  0.17569860684E+03  0.90427774250E+02 0.  0.
         23    2    1    2    0    0  0.26923889813E+02 -0.10714155537E+02 -0.17034810594E+03  0.19553399634E+03  0.91517088873E+02 0.  0.
        -11    1    4    4    0    0  0.34713323718E+02 -0.42296588376E+02 -0.63393545357E+02  0.83742210532E+02  0.00000000000E+00 0. -1.
         11    1    4    4    0    0 -0.77894339052E+01  0.31582432839E+02 -0.10695456059E+03  0.11179178581E+03  0.00000000000E+00 0.  1.
        -13    1    3    3    0    0 -0.33330415740E+02  0.39708547166E+02 -0.83606932176E+02  0.98375832598E+02  0.00000000000E+00 0.  1.
         13    1    3    3    0    0  0.48726454026E+02  0.44393573554E+02 -0.40419731827E+02  0.77322774237E+02  0.00000000000E+00 0. -1.
         -4    1    1    2    0  502 -0.42319928099E+02 -0.73387965182E+02 -0.38968369893E+03  0.39878585100E+03  0.00000000000E+00 0.  1.
<scales pt_clust_5="13000.00000" pt_clust_6="13000.00000" pt_clust_7="13000.00000" pt_clust_8="13000.00000" pt_clust_9="84.71582"></scales>
<clustering>
<clus scale="   84.716">  2  9  1 -1</clus>
<clus scale="   90.428">  7  8 -1 -1</clus>
<clus scale="   91.517">  5  6 -1 -1</clus>
<clus scale="  103.910">  1  7  2 -1</clus>
<clus scale="   84.716">  2  5  1 -1</clus>
</clustering>
</event>
<event>
 9    1  0.1399746E-005  0.1048604E+03  0.7546771E-02  0.1271436E+00
         21   -1    0    0  501  502  0.00000000000E+00  0.00000000000E+00  0.69550849869E+02  0.69550849869E+02  0.00000000000E+00 0.  1.
         -1   -1    0    0    0  501 -0.00000000000E+00 -0.00000000000E+00 -0.26462670661E+03  0.26462670661E+03  0.00000000000E+00 0.  1.
         23    2    1    2    0    0 -0.15405736181E+02 -0.37459022039E+02 -0.67257901523E+02  0.12053367303E+03  0.91456142368E+02 0.  0.
         23    2    1    2    0    0 -0.33004395862E+02  0.65344069344E+02 -0.83879692352E+02  0.14256865787E+03  0.89055498838E+02 0.  0.
        -11    1    3    3    0    0 -0.49170404523E+02 -0.30185012711E+02 -0.63489868422E+02  0.85789434464E+02  0.00000000000E+00 0.  1.
         11    1    3    3    0    0  0.33764668342E+02 -0.72740093286E+01 -0.37680331011E+01  0.34744238564E+02  0.00000000000E+00 0. -1.
        -13    1    4    4    0    0  0.24187167561E+02  0.67762073809E+01 -0.45908091647E+02  0.52330573661E+02  0.00000000000E+00 0. -1.
         13    1    4    4    0    0 -0.57191563422E+02  0.58567861964E+02 -0.37971600705E+02  0.90238084209E+02  0.00000000000E+00 0.  1.
         -1    1    1    2    0  502  0.48410132043E+02 -0.27885047305E+02 -0.43938262868E+02  0.71075225582E+02  0.00000000000E+00 0.  1.
<scales pt_clust_5="13000.00000" pt_clust_6="13000.00000" pt_clust_7="13000.00000" pt_clust_8="13000.00000" pt_clust_9="55.86698"></scales>
<clustering>
<clus scale="   55.867">  1  9  2 -1</clus>
<clus scale="   89.055">  7  8 -1 -1</clus>
<clus scale="   91.456">  5  6 -1 -1</clus>
<clus scale="  102.773">  1  7  2 -1</clus>
<clus scale="   55.867">  1  5  2 -1</clus>
</clustering>
</event>
<event>
 9    1  0.1399746E-005  0.9330793E+02  0.7546771E-02  0.1307167E+00
         21   -1    0    0  501  502  0.00000000000E+00  0.00000000000E+00  0.36282838018E+03  0.36282838018E+03  0.00000000000E+00 0. -1.
         -3   -1    0    0    0  501 -0.00000000000E+00 -0.00000000000E+00 -0.46591867172E+02  0.46591867172E+02  0.00000000000E+00 0.  1.
         23    2    1    2    0    0  0.58819678728E+01  0.73810254686E+01  0.43346515730E+02  0.10150709678E+03  0.91300017458E+02 0.  0.
         23    2    1    2    0    0  0.31298573314E+02 -0.39888644310E+02  0.13298447217E+03  0.15954639594E+03  0.72107405869E+02 0.  0.
        -11    1    3    3    0    0 -0.19501037212E+02 -0.30111044127E+02 -0.38795341150E+01  0.36083461803E+02  0.00000000000E+00 0.  1.
         11    1    3    3    0    0  0.25383005084E+02  0.37492069595E+02  0.47226049845E+02  0.65423634977E+02  0.00000000000E+00 0. -1.
        -13    1    4    4    0    0  0.50464580334E+01  0.21125880082E+02  0.33570448486E+02  0.39984303914E+02  0.00000000000E+00 0. -1.
         13    1    4    4    0    0  0.26252115281E+02 -0.61014524392E+02  0.99414023685E+02  0.11956209202E+03  0.00000000000E+00 0.  1.
         -3    1    1    2    0  502 -0.37180541187E+02  0.32507618841E+02  0.13990552511E+03  0.14836675464E+03  0.00000000000E+00 0.  1.
<scales pt_clust_5="13000.00000" pt_clust_6="13000.00000" pt_clust_7="13000.00000" pt_clust_8="13000.00000" pt_clust_9="49.38763"></scales>
<clustering>
<clus scale="   49.388">  1  9  2 -1</clus>
<clus scale="   72.107">  7  8 -1 -1</clus>
<clus scale="   74.633">  1  7  2 -1</clus>
<clus scale="   91.300">  5  6 -1 -1</clus>
<clus scale="   49.388">  1  5  2 -1</clus>
</clustering>
</event>
<event>
 9    1  0.1399746E-005  0.1132262E+03  0.7546771E-02  0.1255171E+00
         21   -1    0    0  501  502  0.00000000000E+00  0.00000000000E+00  0.50441937268E+03  0.50441937268E+03  0.00000000000E+00 0. -1.
         -3   -1    0    0    0  501 -0.00000000000E+00 -0.00000000000E+00 -0.33253314502E+02  0.33253314502E+02  0.00000000000E+00 0.  1.
         23    2    1    2    0    0 -0.59347827102E+02 -0.70386979198E+01  0.16390432213E+03  0.19711126969E+03  0.91741582601E+02 0.  0.
         23    2    1    2    0    0  0.75638476635E+02 -0.13000822224E+02  0.22528872408E+03  0.25461642159E+03  0.90467189719E+02 0.  0.
        -13    1    4    4    0    0  0.70962078489E+02  0.28468790198E+02  0.13497381585E+03  0.15512581850E+03  0.00000000000E+00 0.  1.
         13    1    4    4    0    0  0.46763981465E+01 -0.41469612422E+02  0.90314908229E+02  0.99490603086E+02  0.00000000000E+00 0. -1.
        -13    1    3    3    0    0 -0.31767009216E+02  0.40189158344E+02  0.54491328653E+02  0.74790482157E+02  0.00000000000E+00 0.  1.
         13    1    3    3    0    0 -0.27580817886E+02 -0.47227856264E+02  0.10941299347E+03  0.12232078754E+03  0.00000000000E+00 0. -1.
         -3    1    1    2    0  502 -0.16290649533E+02  0.20039520144E+02  0.81973011967E+02  0.85944995903E+02  0.00000000000E+00 0.  1.
<scales pt_clust_5="13000.00000" pt_clust_6="13000.00000" pt_clust_7="13000.00000" pt_clust_8="13000.00000" pt_clust_9="25.82572"></scales>
<clustering>
<clus scale="   25.826">  1  9  2 -1</clus>
<clus scale="   90.467">  5  6 -1 -1</clus>
<clus scale="   91.742">  7  8 -1 -1</clus>
<clus scale="  112.196">  1  5  2 -1</clus>
<clus scale="   25.826">  1  5  2 -1</clus>
</clustering>
</event>
<event>
 9    1  0.1399746E-005  0.1077350E+03  0.7546771E-02  0.1264859E+00
         21   -1    0    0  501  502  0.00000000000E+00  0.00000000000E+00  0.13619847274E+03  0.13619847274E+03  0.00000000000E+00 0. -1.
         -2   -1    0    0    0  501 -0.00000000000E+00 -0.00000000000E+00 -0.16806517079E+03  0.16806517079E+03  0.00000000000E+00 0.  1.
         23    2    1    2    0    0 -0.71239688688E+02 -0.93911219875E+01 -0.77928753274E+02  0.14154240023E+03  0.93798049334E+02 0.  0.
         23    2    1    2    0    0  0.21675603625E+02 -0.13950270706E+02  0.11320193570E+02  0.97848937256E+02  0.93711396822E+02 0.  0.
        -13    1    4    4    0    0  0.28729800595E+02  0.36277412783E+02  0.23037685975E+01  0.46333135769E+02  0.00000000000E+00 0.  1.
         13    1    4    4    0    0 -0.70541969701E+01 -0.50227683489E+02  0.90164249727E+01  0.51515801487E+02  0.00000000000E+00 0. -1.
        -13    1    3    3    0    0 -0.31473181768E+02 -0.34605534530E+01 -0.93278301042E+02  0.98505725956E+02  0.00000000000E+00 0.  1.
         13    1    3    3    0    0 -0.39766506920E+02 -0.59305685345E+01  0.15349547768E+02  0.43036674273E+02  0.00000000000E+00 0. -1.
         -2    1    1    2    0  502  0.49564085063E+02  0.23341392694E+02  0.34741861653E+02  0.64872306049E+02  0.00000000000E+00 0.  1.
<scales pt_clust_5="13000.00000" pt_clust_6="13000.00000" pt_clust_7="13000.00000" pt_clust_8="13000.00000" pt_clust_9="54.78521"></scales>
<clustering>
<clus scale="   54.785">  1  9  2 -1</clus>
<clus scale="   93.711">  5  6 -1 -1</clus>
<clus scale="   93.798">  7  8 -1 -1</clus>
<clus scale="  107.660">  1  5  2 -1</clus>
<clus scale="   54.785">  1  5  2 -1</clus>
</clustering>
</event>
<event>
 9    1  0.1399746E-005  0.9351689E+02  0.7546771E-02  0.1295689E+00
          1   -1    0    0  502    0 -0.00000000000E+00  0.00000000000E+00  0.65422098437E+03  0.65422098437E+03  0.00000000000E+00 0. -1.
         21   -1    0    0  501  502  0.00000000000E+00 -0.00000000000E+00 -0.55430821783E+02  0.55430821783E+02  0.00000000000E+00 0. -1.
         23    2    1    2    0    0 -0.15782830534E+02  0.15047331405E+02  0.47559850115E+03  0.48490575185E+03  0.92000728033E+02 0.  0.
         23    2    1    2    0    0 -0.16002005484E+02 -0.15197355934E+02  0.15447812084E+03  0.18014626899E+03  0.90012024778E+02 0.  0.
        -13    1    3    3    0    0  0.29627892768E+01  0.52544281219E+02  0.26401674863E+03  0.26921092691E+03  0.00000000000E+00 0.  1.
         13    1    3    3    0    0 -0.18745619810E+02 -0.37496949814E+02  0.21158175252E+03  0.21569482494E+03  0.00000000000E+00 0. -1.
        -13    1    4    4    0    0 -0.41528423156E+02 -0.30679167834E+02  0.13490448521E+03  0.14444736549E+03  0.00000000000E+00 0. -1.
         13    1    4    4    0    0  0.25526417672E+02  0.15481811899E+02  0.19573635636E+02  0.35698903497E+02  0.00000000000E+00 0.  1.
          1    1    1    2  501    0  0.31784836017E+02  0.15002452915E+00 -0.31286459405E+02  0.44599785315E+02  0.00000000000E+00 0. -1.
<scales pt_clust_5="13000.00000" pt_clust_6="13000.00000" pt_clust_7="13000.00000" pt_clust_8="13000.00000" pt_clust_9="31.78519"></scales>
<clustering>
<clus scale="   31.785">  2  9  1 -1</clus>
<clus scale="   90.012">  7  8 -1 -1</clus>
<clus scale="   91.561">  2  7  1 -1</clus>
<clus scale="   92.001">  5  6 -1 -1</clus>
<clus scale="   31.785">  2  5  1 -1</clus>
</clustering>
</event>
<event>
 9    1  0.1399746E-005  0.1918184E+03  0.7546771E-02  0.1187141E+00
          1   -1    0    0  502    0 -0.00000000000E+00  0.00000000000E+00  0.50077445321E+02  0.50077445321E+02  0.00000000000E+00 0. -1.
         21   -1    0    0  501  502  0.00000000000E+00 -0.00000000000E+00 -0.11253056075E+04  0.11253056075E+04  0.00000000000E+00 0. -1.
         23    2    1    2    0    0 -0.27238749976E+02  0.24482176921E+02 -0.13343067636E+03  0.16444382928E+03  0.88863384517E+02 0.  0.
         23    2    1    2    0    0  0.71895444648E+02 -0.17710312926E+03 -0.54116787315E+03  0.57990388622E+03  0.83014317857E+02 0.  0.
        -11    1    4    4    0    0  0.21597609327E+02 -0.14846768299E+03 -0.40761158134E+03  0.43434584246E+03  0.00000000000E+00 0.  1.
         11    1    4    4    0    0  0.50297835321E+02 -0.28635446272E+02 -0.13355629181E+03  0.14555804376E+03  0.00000000000E+00 0. -1.
        -11    1    3    3    0    0 -0.49332982488E+02 -0.14343727402E+02 -0.68314085344E+02  0.85476897073E+02  0.00000000000E+00 0.  1.
         11    1    3    3    0    0  0.22094232511E+02  0.38825904324E+02 -0.65116591018E+02  0.78966932210E+02  0.00000000000E+00 0. -1.
          1    1    1    2  501    0 -0.44656694672E+02  0.15262095234E+03 -0.40062961271E+03  0.43103533736E+03  0.00000000000E+00 0. -1.
<scales pt_clust_5="13000.00000" pt_clust_6="13000.00000" pt_clust_7="13000.00000" pt_clust_8="13000.00000" pt_clust_9="172.92463"></scales>
<clustering>
<clus scale="   83.014">  5  6 -1 -1</clus>
<clus scale="   88.863">  7  8 -1 -1</clus>
<clus scale="   96.115">  1  7  2 -1</clus>
<clus scale="  172.925">  2  9  1 -1</clus>
<clus scale="  172.925">  2  5  1 -1</clus>
</clustering>
</event>
<event>
 9    1  0.1399746E-005  0.9280420E+02  0.7546771E-02  0.1296527E+00
         -3   -1    0    0    0  501 -0.00000000000E+00  0.00000000000E+00  0.11611024225E+03  0.11611024225E+03  0.00000000000E+00 0.  1.
         21   -1    0    0  501  502  0.00000000000E+00 -0.00000000000E+00 -0.29594951192E+03  0.29594951192E+03  0.00000000000E+00 0. -1.
         23    2    1    2    0    0  0.59300160042E+01 -0.92309131021E+01  0.68088315382E+02  0.11503402259E+03  0.92067544855E+02 0.  0.
         23    2    1    2    0    0  0.17595898793E+02  0.21348875652E+02 -0.73447913087E+02  0.12055060696E+03  0.91501162587E+02 0.  0.
        -13    1    3    3    0    0 -0.89056749749E+01  0.40043702448E+02  0.34308397021E+02  0.53477801550E+02  0.00000000000E+00 0. -1.
         13    1    3    3    0    0  0.14835690979E+02 -0.49274615550E+02  0.33779918361E+02  0.61556221041E+02  0.00000000000E+00 0.  1.
        -13    1    4    4    0    0  0.45408505889E+02 -0.16413995836E+02 -0.42818771953E+02  0.64535253141E+02  0.00000000000E+00 0.  1.
         13    1    4    4    0    0 -0.27812607096E+02  0.37762871488E+02 -0.30629141134E+02  0.56015353816E+02  0.00000000000E+00 0. -1.
         -3    1    1    2    0  502 -0.23525914797E+02 -0.12117962550E+02 -0.17447967196E+03  0.17647512462E+03  0.00000000000E+00 0.  1.
<scales pt_clust_5="13000.00000" pt_clust_6="13000.00000" pt_clust_7="13000.00000" pt_clust_8="13000.00000" pt_clust_9="26.46344"></scales>
<clustering>
<clus scale="   26.463">  2  9  1 -1</clus>
<clus scale="   91.501">  7  8 -1 -1</clus>
<clus scale="   92.068">  5  6 -1 -1</clus>
<clus scale="   92.242">  2  7  1 -1</clus>
<clus scale="   26.463">  2  5  1 -1</clus>
</clustering>
</event>
<event>
 9    1  0.1399746E-005  0.1344169E+03  0.7546771E-02  0.1238821E+00
          2   -1    0    0  502    0 -0.00000000000E+00  0.00000000000E+00  0.15442687924E+03  0.15442687924E+03  0.00000000000E+00 0. -1.
         21   -1    0    0  501  502  0.00000000000E+00 -0.00000000000E+00 -0.46614602911E+03  0.46614602911E+03  0.00000000000E+00 0. -1.
         23    2    1    2    0    0  0.50453152369E+01 -0.15410449085E+02  0.26091549820E+02  0.96701847847E+02  0.91692645606E+02 0.  0.
         23    2    1    2    0    0  0.36589343740E+01  0.11312039676E+03  0.25713702392E+02  0.14734352002E+03  0.90770625399E+02 0.  0.
        -11    1    4    4    0    0 -0.21863540965E+02  0.42209587305E+02 -0.27656351634E+02  0.54995795018E+02  0.00000000000E+00 0.  1.
         11    1    4    4    0    0  0.25522475339E+02  0.70910809458E+02  0.53370054026E+02  0.92347724997E+02  0.00000000000E+00 0. -1.
        -11    1    3    3    0    0  0.42101388982E+02  0.82415319059E+01 -0.45125239999E+01  0.43137138004E+02  0.00000000000E+00 0.  1.
         11    1    3    3    0    0 -0.37056073745E+02 -0.23651980991E+02  0.30604073819E+02  0.53564709843E+02  0.00000000000E+00 0. -1.
          2    1    1    2  501    0 -0.87042496109E+01 -0.97709947678E+02 -0.36352440209E+03  0.37652754049E+03  0.00000000000E+00 0. -1.
<scales pt_clust_5="13000.00000" pt_clust_6="13000.00000" pt_clust_7="13000.00000" pt_clust_8="13000.00000" pt_clust_9="99.13934"></scales>
<clustering>
<clus scale="   90.771">  5  6 -1 -1</clus>
<clus scale="   91.693">  7  8 -1 -1</clus>
<clus scale="   93.115">  1  7  2 -1</clus>
<clus scale="   99.139">  2  9  1 -1</clus>
<clus scale="   99.139">  2  5  1 -1</clus>
</clustering>
</event>
<event>
 9    1  0.1399746E-005  0.1359689E+03  0.7546771E-02  0.1219682E+00
          1   -1    0    0  502    0 -0.00000000000E+00  0.00000000000E+00  0.37393897484E+03  0.37393897484E+03  0.00000000000E+00 0. -1.
         21   -1    0    0  501  502  0.00000000000E+00 -0.00000000000E+00 -0.66459286028E+02  0.66459286028E+02  0.00000000000E+00 0. -1.
         23    2    1    2    0    0 -0.75199832454E+01 -0.94521911235E+02  0.19817731918E+03  0.23929931144E+03  0.94862894552E+02 0.  0.
         23    2    1    2    0    0  0.27192511972E+02  0.98831671592E+02  0.11606510855E+03  0.17985472531E+03  0.91484866385E+02 0.  0.
        -11    1    4    4    0    0  0.60164894611E+02  0.73786799073E+02  0.89432623902E+02  0.13062350661E+03  0.00000000000E+00 0. -1.
         11    1    4    4    0    0 -0.32972382639E+02  0.25044872519E+02  0.26632484647E+02  0.49231218702E+02  0.00000000000E+00 0.  1.
        -11    1    3    3    0    0 -0.44188305978E+02 -0.66309604933E+02  0.16211237305E+03  0.18063773578E+03  0.00000000000E+00 0.  1.
         11    1    3    3    0    0  0.36668322733E+02 -0.28212306302E+02  0.36064946138E+02  0.58661575660E+02  0.00000000000E+00 0. -1.
          1    1    1    2  501    0 -0.19672528727E+02 -0.43097603570E+01 -0.67627389210E+01  0.21244224122E+02  0.00000000000E+00 0. -1.
<scales pt_clust_5="13000.00000" pt_clust_6="13000.00000" pt_clust_7="13000.00000" pt_clust_8="13000.00000" pt_clust_9="20.13908"></scales>
<clustering>
<clus scale="   20.139">  2  9  1 -1</clus>
<clus scale="   91.485">  5  6 -1 -1</clus>
<clus scale="   94.863">  7  8 -1 -1</clus>
<clus scale="  133.634">  2  5  1 -1</clus>
<clus scale="   20.139">  2  5  1 -1</clus>
</clustering>
</event>
<event>
 9    1  0.1399746E-005  0.1514246E+03  0.7546771E-02  0.1199253E+00
          2   -1    0    0  502    0 -0.00000000000E+00  0.00000000000E+00  0.11019530316E+04  0.11019530316E+04  0.00000000000E+00 0. -1.
         21   -1    0    0  501  502  0.00000000000E+00 -0.00000000000E+00 -0.37161390926E+02  0.37161390926E+02  0.00000000000E+00 0.  1.
         23    2    1    2    0    0  0.27463873990E+02  0.96322210475E+02  0.38344197066E+03  0.40620451980E+03  0.89118653692E+02 0.  0.
         23    2    1    2    0    0 -0.18226255649E+02 -0.16040749603E+03  0.36012958497E+03  0.40522926483E+03  0.91949322593E+02 0.  0.
        -13    1    4    4    0    0  0.19605892957E+02 -0.53034583416E+02  0.20597337101E+03  0.21359327621E+03  0.00000000000E+00 0. -1.
         13    1    4    4    0    0 -0.37832148606E+02 -0.10737291262E+03  0.15415621396E+03  0.19163598862E+03  0.00000000000E+00 0.  1.
        -13    1    3    3    0    0  0.59239149229E+02  0.59064397588E+02  0.21203355877E+03  0.22793882931E+03  0.00000000000E+00 0. -1.
         13    1    3    3    0    0 -0.31775275239E+02  0.37257812887E+02  0.17140841190E+03  0.17826569049E+03  0.00000000000E+00 0.  1.
          2    1    1    2  501    0 -0.92376183414E+01  0.64085285557E+02  0.32122008501E+03  0.32768063786E+03  0.00000000000E+00 0. -1.
<scales pt_clust_5="13000.00000" pt_clust_6="13000.00000" pt_clust_7="13000.00000" pt_clust_8="13000.00000" pt_clust_9="64.74768"></scales>
<clustering>
<clus scale="   64.748">  2  9  1 -1</clus>
<clus scale="   89.119">  7  8 -1 -1</clus>
<clus scale="   91.949">  5  6 -1 -1</clus>
<clus scale="  149.723">  1  7  2 -1</clus>
<clus scale="   64.748">  2  5  1 -1</clus>
</clustering>
</event>
<event>
 9    1  0.1399746E-005  0.1944423E+03  0.7546771E-02  0.1155939E+00
          2   -1    0    0  502    0 -0.00000000000E+00  0.00000000000E+00  0.15426718654E+03  0.15426718654E+03  0.00000000000E+00 0. -1.
         21   -1    0    0  501  502  0.00000000000E+00 -0.00000000000E+00 -0.63920188929E+03  0.63920188929E+03  0.00000000000E+00 0.  1.
         23    2    1    2    0    0  0.14410306721E+03  0.85271394464E+02 -0.10710840096E+03  0.21336456857E+03  0.77558525446E+02 0.  0.
         23    2    1    2    0    0 -0.20676367993E+03  0.88285757975E+02 -0.14454226016E+03  0.28266563686E+03  0.91988058397E+02 0.  0.
        -13    1    3    3    0    0  0.33679099598E+02  0.10640307094E+02 -0.64330652654E+02  0.73388900766E+02  0.00000000000E+00 0. -1.
         13    1    3    3    0    0  0.11042396762E+03  0.74631087370E+02 -0.42777748303E+02  0.13997566780E+03  0.00000000000E+00 0.  1.
        -13    1    4    4    0    0 -0.92752225071E+02  0.73145819928E+02 -0.11285201646E+03  0.16336726676E+03  0.00000000000E+00 0.  1.
         13    1    4    4    0    0 -0.11401145485E+03  0.15139938047E+02 -0.31690243706E+02  0.11929837010E+03  0.00000000000E+00 0. -1.
          2    1    1    2  501    0  0.62660612712E+02 -0.17355715244E+03 -0.23328404163E+03  0.29743887040E+03  0.00000000000E+00 0. -1.
<scales pt_clust_5="13000.00000" pt_clust_6="13000.00000" pt_clust_7="13000.00000" pt_clust_8="13000.00000" pt_clust_9="184.52219"></scales>
<clustering>
<clus scale="   77.559">  5  6 -1 -1</clus>
<clus scale="   91.988">  7  8 -1 -1</clus>
<clus scale="  184.522">  2  9  1 -1</clus>
<clus scale="  188.046">  1  5  2 -1</clus>
<clus scale="  184.522">  2  5  1 -1</clus>
</clustering>
</event>
<event>
 9    1  0.1399746E-005  0.1235664E+03  0.7546771E-02  0.1240019E+00
         21   -1    0    0  501  502  0.00000000000E+00  0.00000000000E+00  0.32940333280E+03  0.32940333280E+03  0.00000000000E+00 0.  1.
         -1   -1    0    0    0  501 -0.00000000000E+00 -0.00000000000E+00 -0.52393704215E+03  0.52393704215E+03  0.00000000000E+00 0.  1.
         23    2    1    2    0    0  0.81931554526E+02  0.59224782288E+02 -0.41833122181E+03  0.44103064430E+03  0.96367336829E+02 0.  0.
         23    2    1    2    0    0 -0.12605274370E+01 -0.36235834861E+02 -0.62698013672E+02  0.11378671175E+03  0.87759615967E+02 0.  0.
        -13    1    4    4    0    0  0.23400249055E+02  0.21254415604E+02 -0.28125158187E+02  0.42312484701E+02  0.00000000000E+00 0.  1.
         13    1    4    4    0    0 -0.24660776492E+02 -0.57490250465E+02 -0.34572855485E+02  0.71474227048E+02  0.00000000000E+00 0. -1.
        -13    1    3    3    0    0  0.98781228240E+01  0.62952673683E+02 -0.24784925698E+03  0.25590988770E+03  0.00000000000E+00 0.  1.
         13    1    3    3    0    0  0.72053431702E+02 -0.37278913950E+01 -0.17048196483E+03  0.18512075660E+03  0.00000000000E+00 0. -1.
         -1    1    1    2    0  502 -0.80671027089E+02 -0.22988947426E+02  0.28649552613E+03  0.29852301889E+03  0.00000000000E+00 0.  1.
<scales pt_clust_5="13000.00000" pt_clust_6="13000.00000" pt_clust_7="13000.00000" pt_clust_8="13000.00000" pt_clust_9="83.88269"></scales>
<clustering>
<clus scale="   83.883">  1  9  2 -1</clus>
<clus scale="   87.760">  5  6 -1 -1</clus>
<clus scale="   96.367">  7  8 -1 -1</clus>
<clus scale="  116.978">  1  5  2 -1</clus>
<clus scale="   83.883">  1  5  2 -1</clus>
</clustering>
</event>
<event>
 9    1  0.1399746E-005  0.1199705E+03  0.7546771E-02  0.1244046E+00
         -2   -1    0    0    0  501 -0.00000000000E+00  0.00000000000E+00  0.46470582557E+03  0.46470582557E+03  0.00000000000E+00 0.  1.
         21   -1    0    0  501  502  0.00000000000E+00 -0.00000000000E+00 -0.46396677588E+02  0.46396677588E+02  0.00000000000E+00 0.  1.
         23    2    1    2    0    0  0.76146676069E+02 -0.21328867958E+02  0.21562511849E+03  0.24797339103E+03  0.93506010764E+02 0.  0.
         23    2    1    2    0    0 -0.53515789788E+02  0.54508556298E+02  0.18382055587E+03  0.21875705595E+03  0.90716758678E+02 0.  0.
        -11    1    3    3    0    0 -0.90562365393E+01  0.23604087390E+02  0.33798188627E+02  0.42207652343E+02  0.00000000000E+00 0. -1.
         11    1    3    3    0    0  0.85202912609E+02 -0.44932955348E+02  0.18182692986E+03  0.20576573869E+03  0.00000000000E+00 0.  1.
        -13    1    4    4    0    0 -0.69701659214E+02  0.21639017404E+02  0.15767289160E+03  0.17374495422E+03  0.00000000000E+00 0.  1.
         13    1    4    4    0    0  0.16185869425E+02  0.32869538894E+02  0.26147664269E+02  0.45012101738E+02  0.00000000000E+00 0. -1.
         -2    1    1    2    0  502 -0.22630886281E+02 -0.33179688340E+02  0.18863473629E+02  0.44372056179E+02  0.00000000000E+00 0.  1.
<scales pt_clust_5="13000.00000" pt_clust_6="13000.00000" pt_clust_7="13000.00000" pt_clust_8="13000.00000" pt_clust_9="40.16278"></scales>
<clustering>
<clus scale="   40.163">  2  9  1 -1</clus>
<clus scale="   90.717">  7  8 -1 -1</clus>
<clus scale="   93.506">  5  6 -1 -1</clus>
<clus scale="  117.810">  2  7  1 -1</clus>
<clus scale="   40.163">  2  5  1 -1</clus>
</clustering>
</event>
<event>
 9    1  0.1399746E-005  0.1171670E+03  0.7546771E-02  0.1247984E+00
         21   -1    0    0  501  502  0.00000000000E+00  0.00000000000E+00  0.64248564624E+03  0.64248564624E+03  0.00000000000E+00 0. -1.
          1   -1    0    0  502    0 -0.00000000000E+00 -0.00000000000E+00 -0.49120132348E+02  0.49120132348E+02  0.00000000000E+00 0. -1.
         23    2    1    2    0    0 -0.52627359217E+02  0.23888069214E+02  0.10096227614E+03  0.14834894169E+03  0.92052965770E+02 0.  0.
         23    2    1    2    0    0  0.63371591118E+02 -0.99662046674E+02  0.27863324441E+03  0.31620013863E+03  0.91638205288E+02 0.  0.
        -11    1    3    3    0    0  0.10165544814E+02 -0.25350892920E+02  0.15415263209E+02  0.31362978382E+02  0.00000000000E+00 0.  1.
         11    1    3    3    0    0 -0.62792904031E+02  0.49238962134E+02  0.85547012933E+02  0.11698596331E+03  0.00000000000E+00 0. -1.
        -13    1    4    4    0    0  0.34580730374E+02 -0.96112191091E+02  0.26527995918E+03  0.28426543394E+03  0.00000000000E+00 0. -1.
         13    1    4    4    0    0  0.28790860745E+02 -0.35498555826E+01  0.13353285231E+02  0.31934704688E+02  0.00000000000E+00 0.  1.
          1    1    1    2  501    0 -0.10744231902E+02  0.75773977460E+02  0.21376999334E+03  0.22705669828E+03  0.00000000000E+00 0. -1.
<scales pt_clust_5="13000.00000" pt_clust_6="13000.00000" pt_clust_7="13000.00000" pt_clust_8="13000.00000" pt_clust_9="76.53192"></scales>
<clustering>
<clus scale="   76.532">  1  9  2 -1</clus>
<clus scale="   91.638">  7  8 -1 -1</clus>
<clus scale="   92.053">  5  6 -1 -1</clus>
<clus scale="  116.841">  1  7  2 -1</clus>
<clus scale="   76.532">  1  5  2 -1</clus>
</clustering>
</event>
<event>
 9    1  0.1399746E-005  0.1090329E+03  0.7546771E-02  0.1267014E+00
         21   -1    0    0  501  502  0.00000000000E+00  0.00000000000E+00  0.54690442899E+02  0.54690442899E+02  0.00000000000E+00 0. -1.
         -1   -1    0    0    0  501 -0.00000000000E+00 -0.00000000000E+00 -0.43017207097E+03  0.43017207097E+03  0.00000000000E+00 0.  1.
         23    2    1    2    0    0  0.37237612151E+02  0.73736772294E+01 -0.32655799980E+03  0.34390606038E+03  0.10094671991E+03 0.  0.
         23    2    1    2    0    0 -0.57354387346E+02 -0.24511095375E+01 -0.26716120883E+02  0.11059052354E+03  0.90669615068E+02 0.  0.
        -13    1    3    3    0    0 -0.31576535971E+02  0.24152599248E+01 -0.16844442100E+03  0.17139554857E+03  0.00000000000E+00 0. -1.
         13    1    3    3    0    0  0.68814148122E+02  0.49584173045E+01 -0.15811357880E+03  0.17251051181E+03  0.00000000000E+00 0.  1.
        -13    1    4    4    0    0 -0.22912438161E+01  0.38564244583E+02 -0.10712206472E+02  0.40089925492E+02  0.00000000000E+00 0.  1.
         13    1    4    4    0    0 -0.55063143529E+02 -0.41015354120E+02 -0.16003914410E+02  0.70500598050E+02  0.00000000000E+00 0. -1.
         -1    1    1    2    0  502  0.20116775195E+02 -0.49225676919E+01 -0.22207507383E+02  0.30365929939E+02  0.00000000000E+00 0.  1.
<scales pt_clust_5="13000.00000" pt_clust_6="13000.00000" pt_clust_7="13000.00000" pt_clust_8="13000.00000" pt_clust_9="20.71029"></scales>
<clustering>
<clus scale="   20.710">  1  9  2 -1</clus>
<clus scale="   90.670">  7  8 -1 -1</clus>
<clus scale="   99.594">  1  7  2 -1</clus>
<clus scale="  100.947">  5  6 -1 -1</clus>
<clus scale="   20.710">  1  5  2 -1</clus>
</clustering>
</event>
<event>
 9    1  0.1399746E-005  0.1008925E+03  0.7546771E-02  0.1278435E+00
         -2   -1    0    0    0  501 -0.00000000000E+00  0.00000000000E+00  0.93331126661E+02  0.93331126661E+02  0.00000000000E+00 0.  1.
         21   -1    0    0  501  502  0.00000000000E+00 -0.00000000000E+00 -0.32009243125E+03  0.32009243125E+03  0.00000000000E+00 0.  1.
         23    2    1    2    0    0 -0.13260584065E+02 -0.42008070091E+02  0.32223456250E+02  0.10702435806E+03  0.92061615464E+02 0.  0.
         23    2    1    2    0    0 -0.13736536589E+02  0.37001840548E+02 -0.88351775027E+02  0.13357118504E+03  0.92072779264E+02 0.  0.
        -11    1    3    3    0    0 -0.31087841883E+02  0.28053594686E+01  0.47143086070E+02  0.56540202678E+02  0.00000000000E+00 0.  1.
         11    1    3    3    0    0  0.17827257818E+02 -0.44813429559E+02 -0.14919629820E+02  0.50484155377E+02  0.00000000000E+00 0. -1.
        -13    1    4    4    0    0  0.34305187521E+02 -0.97845316106E+00 -0.13549521640E+02  0.36897056767E+02  0.00000000000E+00 0. -1.
         13    1    4    4    0    0 -0.48041724110E+02  0.37980293709E+02 -0.74802253387E+02  0.96674128273E+02  0.00000000000E+00 0.  1.
         -2    1    1    2    0  502  0.26997120655E+02  0.50062295429E+01 -0.17063298581E+03  0.17282801481E+03  0.00000000000E+00 0.  1.
<scales pt_clust_5="13000.00000" pt_clust_6="13000.00000" pt_clust_7="13000.00000" pt_clust_8="13000.00000" pt_clust_9="27.45736"></scales>
<clustering>
<clus scale="   27.457">  2  9  1 -1</clus>
<clus scale="   92.062">  5  6 -1 -1</clus>
<clus scale="   92.073">  7  8 -1 -1</clus>
<clus scale="  100.882">  1  5  2 -1</clus>
<clus scale="   27.457">  2  5  1 -1</clus>
</clustering>
</event>
<event>
 9    1  0.1399746E-005  0.1006346E+03  0.7546771E-02  0.1281131E+00
         21   -1    0    0  501  502  0.00000000000E+00  0.00000000000E+00  0.59753005021E+02  0.59753005021E+02  0.00000000000E+00 0.  1.
          3   -1    0    0  502    0 -0.00000000000E+00 -0.00000000000E+00 -0.33225527151E+03  0.33225527151E+03  0.00000000000E+00 0. -1.
         23    2    1    2    0    0  0.45606521136E+02 -0.25696124832E+01 -0.15183266968E+03  0.18050875544E+03  0.86276842375E+02 0.  0.
         23    2    1    2    0    0 -0.39373965991E+02 -0.19766251111E+02 -0.14578940148E+03  0.17731267957E+03  0.90797703008E+02 0.  0.
        -11    1    4    4    0    0 -0.28020514821E+02  0.33184125076E+02 -0.87884855695E+02  0.98031032170E+02  0.00000000000E+00 0. -1.
         11    1    4    4    0    0 -0.11353451170E+02 -0.52950376187E+02 -0.57904545784E+02  0.79281647399E+02  0.00000000000E+00 0.  1.
        -13    1    3    3    0    0  0.10298313812E+02  0.39383111746E+02 -0.46818883979E+02  0.62041056206E+02  0.00000000000E+00 0. -1.
         13    1    3    3    0    0  0.35308207325E+02 -0.41952724229E+02 -0.10501378570E+03  0.11846769923E+03  0.00000000000E+00 0.  1.
          3    1    1    2  501    0 -0.62325551455E+01  0.22335863594E+02  0.25119804673E+02  0.34186841518E+02  0.00000000000E+00 0. -1.
<scales pt_clust_5="13000.00000" pt_clust_6="13000.00000" pt_clust_7="13000.00000" pt_clust_8="13000.00000" pt_clust_9="23.18913"></scales>
<clustering>
<clus scale="   23.189">  1  9  2 -1</clus>
<clus scale="   86.277">  7  8 -1 -1</clus>
<clus scale="   90.798">  5  6 -1 -1</clus>
<clus scale="   96.575">  2  7  1 -1</clus>
<clus scale="   23.189">  1  5  2 -1</clus>
</clustering>
</event>
<event>
 9    1  0.1399746E-005  0.1046868E+03  0.7546771E-02  0.1270988E+00
          1   -1    0    0  502    0 -0.00000000000E+00  0.00000000000E+00  0.98391485744E+03  0.98391485744E+03  0.00000000000E+00 0. -1.
         21   -1    0    0  501  502  0.00000000000E+00 -0.00000000000E+00 -0.27167139763E+02  0.27167139763E+02  0.00000000000E+00 0.  1.
         23    2    1    2    0    0  0.14155703257E+02 -0.18057970141E+02  0.42105250711E+03  0.43180742433E+03  0.92983674570E+02 0.  0.
         23    2    1    2    0    0 -0.84020250447E+02  0.52648970931E+02  0.40231703956E+03  0.42478402692E+03  0.93547595266E+02 0.  0.
        -11    1    3    3    0    0 -0.47902326992E+01  0.36474503308E+02  0.19909283261E+03  0.20246306260E+03  0.00000000000E+00 0.  1.
         11    1    3    3    0    0  0.18945935956E+02 -0.54532473450E+02  0.22195967450E+03  0.22934436172E+03  0.00000000000E+00 0. -1.
        -13    1    4    4    0    0 -0.72956667454E+02  0.78920908986E+02  0.32952858349E+03  0.34661256835E+03  0.00000000000E+00 0.  1.
         13    1    4    4    0    0 -0.11063582993E+02 -0.26271938055E+02  0.72788456072E+02  0.78171458571E+02  0.00000000000E+00 0. -1.
          1    1    1    2  501    0  0.69864547190E+02 -0.34591000789E+02  0.13337817100E+03  0.15449054595E+03  0.00000000000E+00 0. -1.
<scales pt_clust_5="13000.00000" pt_clust_6="13000.00000" pt_clust_7="13000.00000" pt_clust_8="13000.00000" pt_clust_9="77.95891"></scales>
<clustering>
<clus scale="   77.959">  2  9  1 -1</clus>
<clus scale="   92.984">  5  6 -1 -1</clus>
<clus scale="   93.548">  7  8 -1 -1</clus>
<clus scale="  104.183">  1  5  2 -1</clus>
<clus scale="   77.959">  2  5  1 -1</clus>
</clustering>
</event>
<event>
 9    1  0.1399746E-005  0.1739885E+03  0.7546771E-02  0.1174417E+00
         21   -1    0    0  501  502  0.00000000000E+00  0.00000000000E+00  0.39072978884E+02  0.39072978884E+02  0.00000000000E+00 0.  1.
          1   -1    0    0  502    0 -0.00000000000E+00 -0.00000000000E+00 -0.89118101830E+03  0.89118101830E+03  0.00000000000E+00 0. -1.
         23    2    1    2    0    0 -0.34212559166E+02  0.14817467893E+03 -0.52051410405E+03  0.54981801335E+03  0.90767178057E+02 0.  0.
         23    2    1    2    0    0  0.41485103101E+02 -0.12937287116E+03 -0.30088474122E+03  0.34370108931E+03  0.95605741042E+02 0.  0.
        -11    1    3    3    0    0 -0.51067833552E+02  0.37904385602E+02 -0.22975471474E+03  0.23839441062E+03  0.00000000000E+00 0. -1.
         11    1    3    3    0    0  0.16855274386E+02  0.11027029333E+03 -0.29075938931E+03  0.31142360273E+03  0.00000000000E+00 0.  1.
        -11    1    4    4    0    0 -0.24618470060E+02 -0.47756926065E+01 -0.44480715135E+02  0.51062807667E+02  0.00000000000E+00 0.  1.
         11    1    4    4    0    0  0.66103573161E+02 -0.12459717855E+03 -0.25640402608E+03  0.29263828164E+03  0.00000000000E+00 0. -1.
          1    1    1    2  501    0 -0.72725439351E+01 -0.18801807767E+02 -0.30709194150E+02  0.36734894527E+02  0.00000000000E+00 0. -1.
<scales pt_clust_5="13000.00000" pt_clust_6="13000.00000" pt_clust_7="13000.00000" pt_clust_8="13000.00000" pt_clust_9="20.15931"></scales>
<clustering>
<clus scale="   20.159">  1  9  2 -1</clus>
<clus scale="   90.767">  5  6 -1 -1</clus>
<clus scale="   95.606">  7  8 -1 -1</clus>
<clus scale="  171.377">  2  5  1 -1</clus>
<clus scale="   20.159">  1  5  2 -1</clus>
</clustering>
</event>
<event>
 9    1  0.1399746E-005  0.1795060E+03  0.7546771E-02  0.1168446E+00
         21   -1    0    0  501  502  0.00000000000E+00  0.00000000000E+00  0.46809698045E+02  0.46809698045E+02  0.00000000000E+00 0.  1.
          2   -1    0    0  502    0 -0.00000000000E+00 -0.00000000000E+00 -0.10609396729E+04  0.10609396729E+04  0.00000000000E+00 0. -1.
         23    2    1    2    0    0  0.82582594870E+02 -0.10742717281E+03 -0.45715762910E+03  0.48525412312E+03  0.90099854198E+02 0.  0.
         23    2    1    2    0    0 -0.13941005012E+03  0.11957983192E+03 -0.50280290323E+03  0.54305108318E+03  0.91428776527E+02 0.  0.
        -11    1    4    4    0    0 -0.69396840398E+02  0.93171550448E+01 -0.23303733831E+03  0.24332926639E+03  0.00000000000E+00 0. -1.
         11    1    4    4    0    0 -0.70013209717E+02  0.11026267688E+03 -0.26976556492E+03  0.29972181680E+03  0.00000000000E+00 0.  1.
        -11    1    3    3    0    0  0.51789571603E+02 -0.98823004763E+02 -0.42688275454E+03  0.44122220266E+03  0.00000000000E+00 0. -1.
         11    1    3    3    0    0  0.30793023267E+02 -0.86041680485E+01 -0.30274874563E+02  0.44031920461E+02  0.00000000000E+00 0.  1.
          2    1    1    2  501    0  0.56827455245E+02 -0.12152659109E+02 -0.54169442548E+02  0.79444164663E+02  0.00000000000E+00 0. -1.
<scales pt_clust_5="13000.00000" pt_clust_6="13000.00000" pt_clust_7="13000.00000" pt_clust_8="13000.00000" pt_clust_9="58.11236"></scales>
<clustering>
<clus scale="   58.112">  1  9  2 -1</clus>
<clus scale="   90.100">  7  8 -1 -1</clus>
<clus scale="   91.429">  5  6 -1 -1</clus>
<clus scale="  178.833">  2  7  1 -1</clus>
<clus scale="   58.112">  1  5  2 -1</clus>
</clustering>
</event>
<event>
 9    1  0.1399746E-005  0.1048858E+03  0.7546771E-02  0.1273724E+00
         21   -1    0    0  501  502  0.00000000000E+00  0.00000000000E+00  0.23926003660E+03  0.23926003660E+03  0.00000000000E+00 0. -1.
          4   -1    0    0  502    0 -0.00000000000E+00 -0.00000000000E+00 -0.78491432486E+02  0.78491432486E+02  0.00000000000E+00 0. -1.
         23    2    1    2    0    0  0.41158318163E+00 -0.42612951187E+02  0.38819686016E+00  0.99426608045E+02  0.89830210291E+02 0.  0.
         23    2    1    2    0    0 -0.34558698272E+02  0.27201094875E+02  0.13921774246E+03  0.17529685661E+03  0.97021672493E+02 0.  0.
        -11    1    3    3    0    0 -0.21182305619E+02 -0.36815111813E+01  0.36326438745E+02  0.42212009521E+02  0.00000000000E+00 0. -1.
         11    1    3    3    0    0  0.21593888801E+02 -0.38931440006E+02 -0.35938241885E+02  0.57214598524E+02  0.00000000000E+00 0.  1.
        -11    1    4    4    0    0  0.26075313568E+02  0.51631502279E+01  0.59570488752E+01  0.27240898099E+02  0.00000000000E+00 0.  1.
         11    1    4    4    0    0 -0.60634011841E+02  0.22037944647E+02  0.13326069359E+03  0.14805595851E+03  0.00000000000E+00 0. -1.
          4    1    1    2  501    0  0.34147115091E+02  0.15411856312E+02  0.21162664795E+02  0.43028004430E+02  0.00000000000E+00 0. -1.
<scales pt_clust_5="13000.00000" pt_clust_6="13000.00000" pt_clust_7="13000.00000" pt_clust_8="13000.00000" pt_clust_9="37.46401"></scales>
<clustering>
<clus scale="   37.464">  1  9  2 -1</clus>
<clus scale="   89.830">  5  6 -1 -1</clus>
<clus scale="   97.022">  7  8 -1 -1</clus>
<clus scale="   98.272">  2  5  1 -1</clus>
<clus scale="   37.464">  1  5  2 -1</clus>
</clustering>
</event>
<event>
 9    1  0.1399746E-005  0.9504996E+02  0.7546771E-02  0.1291405E+00
         -1   -1    0    0    0  501 -0.00000000000E+00  0.00000000000E+00  0.15512871843E+03  0.15512871843E+03  0.00000000000E+00 0.  1.
         21   -1    0    0  501  502  0.00000000000E+00 -0.00000000000E+00 -0.80925229015E+02  0.80925229015E+02  0.00000000000E+00 0. -1.
         23    2    1    2    0    0  0.59204308051E+01  0.13735526719E+02  0.50814200272E+02  0.10685930324E+03  0.92806850741E+02 0.  0.
         23    2    1    2    0    0  0.17217750185E+02 -0.30113284287E+02  0.15015333090E+02  0.99635728418E+02  0.92187620306E+02 0.  0.
        -11    1    4    4    0    0  0.38882028987E+02 -0.43528493136E+02  0.34283153234E+02  0.67689559671E+02  0.00000000000E+00 0. -1.
         11    1    4    4    0    0 -0.21664278802E+02  0.13415208849E+02 -0.19267820145E+02  0.31946168747E+02  0.00000000000E+00 0.  1.
        -13    1    3    3    0    0  0.14300782764E+02  0.50830394438E+02  0.42854524683E+02  0.68005526776E+02  0.00000000000E+00 0.  1.
         13    1    3    3    0    0 -0.83803519584E+01 -0.37094867718E+02  0.79596755890E+01  0.38853776463E+02  0.00000000000E+00 0. -1.
         -1    1    1    2    0  502 -0.23138180990E+02  0.16377757567E+02  0.83739560532E+01  0.29558915786E+02  0.00000000000E+00 0.  1.
<scales pt_clust_5="13000.00000" pt_clust_6="13000.00000" pt_clust_7="13000.00000" pt_clust_8="13000.00000" pt_clust_9="28.34795"></scales>
<clustering>
<clus scale="   28.348">  2  9  1 -1</clus>
<clus scale="   92.188">  5  6 -1 -1</clus>
<clus scale="   92.807">  7  8 -1 -1</clus>
<clus scale="   94.445">  2  5  1 -1</clus>
<clus scale="   28.348">  2  5  1 -1</clus>
</clustering>
</event>
<event>
 9    1  0.1399746E-005  0.1008237E+03  0.7546771E-02  0.1279599E+00
         21   -1    0    0  501  502  0.00000000000E+00  0.00000000000E+00  0.72295025885E+02  0.72295025885E+02  0.00000000000E+00 0.  1.
          1   -1    0    0  502    0 -0.00000000000E+00 -0.00000000000E+00 -0.28823697760E+03  0.28823697760E+03  0.00000000000E+00 0. -1.
         23    2    1    2    0    0  0.51324336216E+02 -0.22928494844E+01 -0.15835182328E+03  0.19080679828E+03  0.93233522323E+02 0.  0.
         23    2    1    2    0    0 -0.20018051281E+00  0.19625845526E+02 -0.34542960839E+01  0.93273910959E+02  0.91120120826E+02 0.  0.
        -13    1    4    4    0    0  0.42739473012E+02 -0.46689679554E+01 -0.79895268301E+01  0.43729787949E+02  0.00000000000E+00 0. -1.
         13    1    4    4    0    0 -0.42939653525E+02  0.24294813481E+02  0.45352307463E+01  0.49544123010E+02  0.00000000000E+00 0.  1.
        -13    1    3    3    0    0  0.10280111579E+02  0.42530493265E+02 -0.84550156691E+02  0.95201116317E+02  0.00000000000E+00 0.  1.
         13    1    3    3    0    0  0.41044224637E+02 -0.44823342750E+02 -0.73801666594E+02  0.95605681962E+02  0.00000000000E+00 0. -1.
          1    1    1    2  501    0 -0.51124155704E+02 -0.17332996041E+02 -0.54135832342E+02  0.76451294243E+02  0.00000000000E+00 0. -1.
<scales pt_clust_5="13000.00000" pt_clust_6="13000.00000" pt_clust_7="13000.00000" pt_clust_8="13000.00000" pt_clust_9="53.98254"></scales>
<clustering>
<clus scale="   53.983">  1  9  2 -1</clus>
<clus scale="   91.120">  5  6 -1 -1</clus>
<clus scale="   93.234">  7  8 -1 -1</clus>
<clus scale="   98.873">  1  5  2 -1</clus>
<clus scale="   53.983">  1  5  2 -1</clus>
</clustering>
</event>
<event>
 9    1  0.1399746E-005  0.9422116E+02  0.7546771E-02  0.1293421E+00
          2   -1    0    0  502    0 -0.00000000000E+00  0.00000000000E+00  0.14601442778E+03  0.14601442778E+03  0.00000000000E+00 0. -1.
         21   -1    0    0  501  502  0.00000000000E+00 -0.00000000000E+00 -0.21456774877E+03  0.21456774877E+03  0.00000000000E+00 0. -1.
         23    2    1    2    0    0  0.15611606763E+02 -0.58377994767E+01  0.73734711735E+02  0.11830308513E+03  0.91000055320E+02 0.  0.
         23    2    1    2    0    0 -0.31556862602E+02 -0.41087296479E+02 -0.16073507237E+02  0.10668291795E+03  0.91863408595E+02 0.  0.
        -11    1    4    4    0    0  0.63665147991E+01 -0.56528932076E+02  0.10530254186E+02  0.57852734815E+02  0.00000000000E+00 0. -1.
         11    1    4    4    0    0 -0.37923377401E+02  0.15441635597E+02 -0.26603761422E+02  0.48830183137E+02  0.00000000000E+00 0.  1.
        -13    1    3    3    0    0 -0.17914030073E+02 -0.29240744237E+02  0.69118073645E+02  0.77157253070E+02  0.00000000000E+00 0. -1.
         13    1    3    3    0    0  0.33525636836E+02  0.23402944760E+02  0.46166380908E+01  0.41145832060E+02  0.00000000000E+00 0.  1.
          2    1    1    2  501    0  0.15945255839E+02  0.46925095956E+02 -0.12621452549E+03  0.13559617347E+03  0.00000000000E+00 0. -1.
<scales pt_clust_5="13000.00000" pt_clust_6="13000.00000" pt_clust_7="13000.00000" pt_clust_8="13000.00000" pt_clust_9="49.56022"></scales>
<clustering>
<clus scale="   49.560">  2  9  1 -1</clus>
<clus scale="   91.000">  7  8 -1 -1</clus>
<clus scale="   91.863">  5  6 -1 -1</clus>
<clus scale="   93.380">  1  7  2 -1</clus>
<clus scale="   49.560">  2  5  1 -1</clus>
</clustering>
</event>
<event>
 9    1  0.1399746E-005  0.1054408E+03  0.7546771E-02  0.1271623E+00
          1   -1    0    0  502    0 -0.00000000000E+00  0.00000000000E+00  0.45457280153E+03  0.45457280153E+03  0.00000000000E+00 0. -1.
         21   -1    0    0  501  502  0.00000000000E+00 -0.00000000000E+00 -0.48583127591E+02  0.48583127591E+02  0.00000000000E+00 0. -1.
         23    2    1    2    0    0  0.23800055697E+02  0.46960586622E+02  0.30018757373E+03  0.31933462666E+03  0.95342986208E+02 0.  0.
         23    2    1    2    0    0  0.38013960897E+01 -0.35197164941E+02  0.11694827941E+03  0.15181418543E+03  0.90096369562E+02 0.  0.
        -11    1    4    4    0    0 -0.37451731254E+02 -0.26088947856E+02  0.28541872440E+02  0.53832182350E+02  0.00000000000E+00 0.  1.
         11    1    4    4    0    0  0.41253127344E+02 -0.91082170848E+01  0.88406406968E+02  0.97982003078E+02  0.00000000000E+00 0. -1.
        -13    1    3    3    0    0 -0.33638128762E+02 -0.14797846832E+01  0.99483416885E+02  0.10502696656E+03  0.00000000000E+00 0.  1.
         13    1    3    3    0    0  0.57438184459E+02  0.48440371305E+02  0.20070415684E+03  0.21430766010E+03  0.00000000000E+00 0. -1.
          1    1    1    2  501    0 -0.27601451786E+02 -0.11763421681E+02 -0.11146179192E+02  0.32007117036E+02  0.00000000000E+00 0. -1.
<scales pt_clust_5="13000.00000" pt_clust_6="13000.00000" pt_clust_7="13000.00000" pt_clust_8="13000.00000" pt_clust_9="30.00364"></scales>
<clustering>
<clus scale="   30.004">  2  9  1 -1</clus>
<clus scale="   90.096">  5  6 -1 -1</clus>
<clus scale="   95.343">  7  8 -1 -1</clus>
<clus scale="  100.722">  2  5  1 -1</clus>
<clus scale="   30.004">  2  5  1 -1</clus>
</clustering>
</event>
<event>
 9    1  0.1399746E-005  0.1032097E+03  0.7546771E-02  0.1273764E+00
          2   -1    0    0  502    0 -0.00000000000E+00  0.00000000000E+00  0.29410126414E+03  0.29410126414E+03  0.00000000000E+00 0. -1.
         21   -1    0    0  501  502  0.00000000000E+00 -0.00000000000E+00 -0.56833504899E+02  0.56833504899E+02  0.00000000000E+00 0.  1.
         23    2    1    2    0    0 -0.46793153366E+02 -0.38212307278E+01  0.17238427273E+03  0.20040663059E+03  0.90786998488E+02 0.  0.
         23    2    1    2    0    0  0.49953951146E+02  0.28325836784E+02  0.38172519570E+02  0.11414212306E+03  0.90958961859E+02 0.  0.
        -11    1    3    3    0    0  0.10591811736E+02  0.32460697390E+02  0.52321839838E+02  0.62477662208E+02  0.00000000000E+00 0.  1.
         11    1    3    3    0    0 -0.57384965102E+02 -0.36281928118E+02  0.12006243289E+03  0.13792896838E+03  0.00000000000E+00 0. -1.
        -13    1    4    4    0    0  0.45452080228E+02  0.52367374729E+02  0.64154497163E+00  0.69344394964E+02  0.00000000000E+00 0.  1.
         13    1    4    4    0    0  0.45018709182E+01 -0.24041537945E+02  0.37530974599E+02  0.44797728099E+02  0.00000000000E+00 0. -1.
          2    1    1    2  501    0 -0.31607977794E+01 -0.24504606056E+02  0.26710966939E+02  0.36386015382E+02  0.00000000000E+00 0. -1.
<scales pt_clust_5="13000.00000" pt_clust_6="13000.00000" pt_clust_7="13000.00000" pt_clust_8="13000.00000" pt_clust_9="24.70763"></scales>
<clustering>
<clus scale="   24.708">  2  9  1 -1</clus>
<clus scale="   90.787">  5  6 -1 -1</clus>
<clus scale="   90.959">  7  8 -1 -1</clus>
<clus scale="  103.058">  1  5  2 -1</clus>
<clus scale="   24.708">  2  5  1 -1</clus>
</clustering>
</event>
<event>
 9    1  0.1399746E-005  0.1172947E+03  0.7546771E-02  0.1248414E+00
         21   -1    0    0  501  502  0.00000000000E+00  0.00000000000E+00  0.62243370142E+03  0.62243370142E+03  0.00000000000E+00 0.  1.
         -2   -1    0    0    0  501 -0.00000000000E+00 -0.00000000000E+00 -0.46675073845E+02  0.46675073845E+02  0.00000000000E+00 0.  1.
         23    2    1    2    0    0 -0.71006462326E+02 -0.15239393878E+02  0.69737638446E+02  0.13424069614E+03  0.88786651394E+02 0.  0.
         23    2    1    2    0    0  0.82365050559E+02 -0.27977137108E+02  0.32924619625E+03  0.35253318539E+03  0.91158473555E+02 0.  0.
        -11    1    4    4    0    0  0.96981021331E+02 -0.14230355832E+02  0.30838792784E+03  0.32359069140E+03  0.00000000000E+00 0. -1.
         11    1    4    4    0    0 -0.14615970772E+02 -0.13746781276E+02  0.20858268413E+02  0.28942493988E+02  0.00000000000E+00 0.  1.
        -11    1    3    3    0    0 -0.73822063417E+01 -0.44041382445E+02  0.23272851948E+02  0.50356389624E+02  0.00000000000E+00 0.  1.
         11    1    3    3    0    0 -0.63624255985E+02  0.28801988567E+02  0.46464786499E+02  0.83884306514E+02  0.00000000000E+00 0. -1.
         -2    1    1    2    0  502 -0.11358588233E+02  0.43216530986E+02  0.17677479288E+03  0.18233489373E+03  0.00000000000E+00 0.  1.
<scales pt_clust_5="13000.00000" pt_clust_6="13000.00000" pt_clust_7="13000.00000" pt_clust_8="13000.00000" pt_clust_9="44.68429"></scales>
<clustering>
<clus scale="   44.684">  1  9  2 -1</clus>
<clus scale="   88.787">  7  8 -1 -1</clus>
<clus scale="   91.158">  5  6 -1 -1</clus>
<clus scale="  115.461">  2  7  1 -1</clus>
<clus scale="   44.684">  1  5  2 -1</clus>
</clustering>
</event>
<event>
 9    1  0.1399746E-005  0.9440345E+02  0.7546771E-02  0.1294730E+00
         21   -1    0    0  501  502  0.00000000000E+00  0.00000000000E+00  0.16416037283E+02  0.16416037283E+02  0.00000000000E+00 0.  1.
          2   -1    0    0  502    0 -0.00000000000E+00 -0.00000000000E+00 -0.82413103829E+03  0.82413103829E+03  0.00000000000E+00 0. -1.
         23    2    1    2    0    0 -0.10973820131E+02 -0.91316283346E+01 -0.40578677661E+03  0.41561398343E+03  0.88703234328E+02 0.  0.
         23    2    1    2    0    0  0.28075721986E+02 -0.12182704517E+02 -0.37128415815E+03  0.38387417560E+03  0.92578572823E+02 0.  0.
        -11    1    3    3    0    0 -0.87579528844E+01 -0.49007788455E+02 -0.23589764799E+03  0.24109368593E+03  0.00000000000E+00 0. -1.
         11    1    3    3    0    0 -0.22158672465E+01  0.39876160120E+02 -0.16988912862E+03  0.17452029749E+03  0.00000000000E+00 0.  1.
        -13    1    4    4    0    0 -0.21285347697E+02 -0.35774486920E+02 -0.13166885790E+03  0.13809260690E+03  0.00000000000E+00 0.  1.
         13    1    4    4    0    0  0.49361069683E+02  0.23591782403E+02 -0.23961530025E+03  0.24578156870E+03  0.00000000000E+00 0. -1.
          2    1    1    2  501    0 -0.17101901855E+02  0.21314332851E+02 -0.30644066245E+02  0.41058916547E+02  0.00000000000E+00 0. -1.
<scales pt_clust_5="13000.00000" pt_clust_6="13000.00000" pt_clust_7="13000.00000" pt_clust_8="13000.00000" pt_clust_9="27.32720"></scales>
<clustering>
<clus scale="   27.327">  1  9  2 -1</clus>
<clus scale="   88.703">  5  6 -1 -1</clus>
<clus scale="   90.606">  2  5  1 -1</clus>
<clus scale="   92.579">  7  8 -1 -1</clus>
<clus scale="   27.327">  1  5  2 -1</clus>
</clustering>
</event>
<event>
 9    1  0.1399746E-005  0.1020451E+03  0.7546771E-02  0.1276809E+00
         -1   -1    0    0    0  501 -0.00000000000E+00  0.00000000000E+00  0.31353121700E+03  0.31353121700E+03  0.00000000000E+00 0.  1.
         21   -1    0    0  501  502  0.00000000000E+00 -0.00000000000E+00 -0.18401699178E+03  0.18401699178E+03  0.00000000000E+00 0.  1.
         23    2    1    2    0    0 -0.45223703626E+01  0.52827435528E+02  0.16470404318E+03  0.19526822026E+03  0.90504509419E+02 0.  0.
         23    2    1    2    0    0 -0.27637321183E+02 -0.37709343317E+02  0.11226158402E+03  0.15060692428E+03  0.88847995457E+02 0.  0.
        -13    1    3    3    0    0 -0.23529107303E+02  0.71871173098E+02  0.13798369370E+03  0.15734860704E+03  0.00000000000E+00 0.  1.
         13    1    3    3    0    0  0.19006736940E+02 -0.19043737570E+02  0.26720349484E+02  0.37919613214E+02  0.00000000000E+00 0. -1.
        -13    1    4    4    0    0 -0.40375083044E+02 -0.57742062743E+02  0.10369884277E+03  0.12537042367E+03  0.00000000000E+00 0.  1.
         13    1    4    4    0    0  0.12737761861E+02  0.20032719426E+02  0.85627412548E+01  0.25236500602E+02  0.00000000000E+00 0. -1.
         -1    1    1    2    0  502  0.32159691546E+02 -0.15118092211E+02 -0.14745140198E+03  0.15167306425E+03  0.00000000000E+00 0.  1.
<scales pt_clust_5="13000.00000" pt_clust_6="13000.00000" pt_clust_7="13000.00000" pt_clust_8="13000.00000" pt_clust_9="35.53593"></scales>
<clustering>
<clus scale="   35.536">  2  9  1 -1</clus>
<clus scale="   88.848">  7  8 -1 -1</clus>
<clus scale="   90.505">  5  6 -1 -1</clus>
<clus scale="  100.579">  2  7  1 -1</clus>
<clus scale="   35.536">  2  5  1 -1</clus>
</clustering>
</event>
<event>
 9    1  0.1399746E-005  0.1597416E+03  0.7546771E-02  0.1213544E+00
          2   -1    0    0  502    0 -0.00000000000E+00  0.00000000000E+00  0.31681804066E+03  0.31681804066E+03  0.00000000000E+00 0. -1.
         21   -1    0    0  501  502  0.00000000000E+00 -0.00000000000E+00 -0.16967116102E+03  0.16967116102E+03  0.00000000000E+00 0. -1.
         23    2    1    2    0    0  0.22852757682E+01 -0.24043575634E+02  0.10544151976E+02  0.94405388073E+02  0.90652535219E+02 0.  0.
         23    2    1    2    0    0 -0.13244182587E+03  0.28171850308E+02  0.19056579696E+03  0.25112359569E+03  0.91723753491E+02 0.  0.
        -11    1    4    4    0    0 -0.89992190742E+01 -0.26109869242E+02  0.22344554561E+02  0.35524503294E+02  0.00000000000E+00 0.  1.
         11    1    4    4    0    0 -0.12344260680E+03  0.54281719551E+02  0.16822124240E+03  0.21559909240E+03  0.00000000000E+00 0. -1.
        -13    1    3    3    0    0 -0.10201961968E+02  0.33104870044E+02  0.94143895061E+01  0.35897676504E+02  0.00000000000E+00 0.  1.
         13    1    3    3    0    0  0.12487237736E+02 -0.57148445678E+02  0.11297624699E+01  0.58507711568E+02  0.00000000000E+00 0. -1.
          2    1    1    2  501    0  0.13015655010E+03 -0.41282746743E+01 -0.53963069299E+02  0.14096021791E+03  0.00000000000E+00 0. -1.
<scales pt_clust_5="13000.00000" pt_clust_6="13000.00000" pt_clust_7="13000.00000" pt_clust_8="13000.00000" pt_clust_9="130.78273"></scales>
<clustering>
<clus scale="   90.653">  7  8 -1 -1</clus>
<clus scale="   91.724">  5  6 -1 -1</clus>
<clus scale="   93.815">  1  7  2 -1</clus>
<clus scale="  130.783">  2  9  1 -1</clus>
<clus scale="  130.783">  2  5  1 -1</clus>
</clustering>
</event>
<event>
 9    1  0.1399746E-005  0.1052219E+03  0.7546771E-02  0.1269703E+00
         21   -1    0    0  501  502  0.00000000000E+00  0.00000000000E+00  0.25189459281E+03  0.25189459281E+03  0.00000000000E+00 0.  1.
         -3   -1    0    0    0  501 -0.00000000000E+00 -0.00000000000E+00 -0.12468057387E+03  0.12468057387E+03  0.00000000000E+00 0.  1.
         23    2    1    2    0    0  0.54576507078E+02 -0.13094217407E+01  0.90570017530E+01  0.10638408397E+03  0.90858320099E+02 0.  0.
         23    2    1    2    0    0 -0.19819647348E+02  0.95100418485E+02  0.10462795073E+03  0.16925632156E+03  0.90905370024E+02 0.  0.
        -11    1    4    4    0    0  0.17016454801E+02  0.85043181721E+02  0.43112855620E+02  0.96853605049E+02  0.00000000000E+00 0.  1.
         11    1    4    4    0    0 -0.36836102149E+02  0.10057236764E+02  0.61515095106E+02  0.72402716515E+02  0.00000000000E+00 0. -1.
        -11    1    3    3    0    0  0.78754126090E+02  0.97003960351E+01  0.49659035982E+01  0.79504529795E+02  0.00000000000E+00 0.  1.
         11    1    3    3    0    0 -0.24177619012E+02 -0.11009817776E+02  0.40910981548E+01  0.26879554175E+02  0.00000000000E+00 0. -1.
         -3    1    1    2    0  502 -0.34756859730E+02 -0.93790996744E+02  0.13529066461E+02  0.10093476115E+03  0.00000000000E+00 0.  1.
<scales pt_clust_5="13000.00000" pt_clust_6="13000.00000" pt_clust_7="13000.00000" pt_clust_8="13000.00000" pt_clust_9="100.02400"></scales>
<clustering>
<clus scale="   90.858">  7  8 -1 -1</clus>
<clus scale="   90.905">  5  6 -1 -1</clus>
<clus scale="  100.024">  1  9  2 -1</clus>
<clus scale="  105.181">  2  7  1 -1</clus>
<clus scale="  100.024">  1  5  2 -1</clus>
</clustering>
</event>
<event>
 9    1  0.1399746E-005  0.1060752E+03  0.7546771E-02  0.1269130E+00
         21   -1    0    0  501  502  0.00000000000E+00  0.00000000000E+00  0.31435140921E+03  0.31435140921E+03  0.00000000000E+00 0.  1.
          4   -1    0    0  502    0 -0.00000000000E+00 -0.00000000000E+00 -0.65067965292E+02  0.65067965292E+02  0.00000000000E+00 0. -1.
         23    2    1    2    0    0  0.58254046465E+01 -0.42550072055E+02  0.37489246281E+02  0.10697222848E+03  0.90516131758E+02 0.  0.
         23    2    1    2    0    0  0.10766495584E+01  0.62863022401E+02  0.77581170832E+02  0.13653029325E+03  0.93106198217E+02 0.  0.
        -11    1    3    3    0    0 -0.13203517604E+02 -0.54783285030E+02  0.54710212806E+02  0.78541381329E+02  0.00000000000E+00 0.  1.
         11    1    3    3    0    0  0.19028922250E+02  0.12233212975E+02 -0.17220966526E+02  0.28430847152E+02  0.00000000000E+00 0. -1.
        -13    1    4    4    0    0 -0.31689030674E+02 -0.58340372601E+01  0.40824956306E+02  0.52008727279E+02  0.00000000000E+00 0.  1.
         13    1    4    4    0    0  0.32765680232E+02  0.68697059661E+02  0.36756214527E+02  0.84521565967E+02  0.00000000000E+00 0. -1.
          4    1    1    2  501    0 -0.69020542049E+01 -0.20312950346E+02  0.13421302680E+03  0.13591685277E+03  0.00000000000E+00 0. -1.
<scales pt_clust_5="13000.00000" pt_clust_6="13000.00000" pt_clust_7="13000.00000" pt_clust_8="13000.00000" pt_clust_9="21.45354"></scales>
<clustering>
<clus scale="   21.454">  1  9  2 -1</clus>
<clus scale="   90.516">  5  6 -1 -1</clus>
<clus scale="   93.106">  7  8 -1 -1</clus>
<clus scale="  103.809">  2  5  1 -1</clus>
<clus scale="   21.454">  1  5  2 -1</clus>
</clustering>
</event>
<event>
 9    1  0.1399746E-005  0.1051791E+03  0.7546771E-02  0.1273035E+00
         21   -1    0    0  501  502  0.00000000000E+00  0.00000000000E+00  0.12694323190E+03  0.12694323190E+03  0.00000000000E+00 0. -1.
         -1   -1    0    0    0  501 -0.00000000000E+00 -0.00000000000E+00 -0.20390904647E+03  0.20390904647E+03  0.00000000000E+00 0.  1.
         23    2    1    2    0    0 -0.29731969521E+02  0.12205039474E+02 -0.12337858574E+03  0.16092720681E+03  0.98195404536E+02 0.  0.
         23    2    1    2    0    0  0.38990037578E+02 -0.37635381136E+02 -0.10734386920E+02  0.10669365707E+03  0.91277951626E+02 0.  0.
        -13    1    4    4    0    0  0.44272890453E+01 -0.40210022810E+02  0.32065792506E+02  0.51620362956E+02  0.00000000000E+00 0. -1.
         13    1    4    4    0    0  0.34562748532E+02  0.25746416734E+01 -0.42800179426E+02  0.55073294116E+02  0.00000000000E+00 0.  1.
        -13    1    3    3    0    0  0.19810717892E+02  0.38732489260E+02 -0.33427418567E+02  0.54864037216E+02  0.00000000000E+00 0.  1.
         13    1    3    3    0    0 -0.49542687413E+02 -0.26527449785E+02 -0.89951167169E+02  0.10606316959E+03  0.00000000000E+00 0. -1.
         -1    1    1    2    0  502 -0.92580680566E+01  0.25430341662E+02  0.57147158092E+02  0.63231414496E+02  0.00000000000E+00 0.  1.
<scales pt_clust_5="13000.00000" pt_clust_6="13000.00000" pt_clust_7="13000.00000" pt_clust_8="13000.00000" pt_clust_9="27.06315"></scales>
<clustering>
<clus scale="   27.063">  1  9  2 -1</clus>
<clus scale="   91.278">  5  6 -1 -1</clus>
<clus scale="   98.195">  7  8 -1 -1</clus>
<clus scale="   98.752">  1  5  2 -1</clus>
<clus scale="   27.063">  1  5  2 -1</clus>
</clustering>
</event>
<event>
 9    1  0.1399746E-005  0.1021134E+03  0.7546771E-02  0.1277564E+00
         21   -1    0    0  501  502  0.00000000000E+00  0.00000000000E+00  0.12741287372E+03  0.12741287372E+03  0.00000000000E+00 0.  1.
          1   -1    0    0  502    0 -0.00000000000E+00 -0.00000000000E+00 -0.25204397215E+03  0.25204397215E+03  0.00000000000E+00 0. -1.
         23    2    1    2    0    0 -0.16371197467E+02  0.46839432293E+02 -0.10676322403E+03  0.15147321605E+03  0.95308974670E+02 0.  0.
         23    2    1    2    0    0  0.42719372044E+02  0.53497098429E+02  0.21339524178E+02  0.11708337822E+03  0.92554080810E+02 0.  0.
        -11    1    4    4    0    0  0.13633442272E+02  0.29087346403E+02  0.56718891490E+02  0.65184178455E+02  0.00000000000E+00 0.  1.
         11    1    4    4    0    0  0.29085929772E+02  0.24409752026E+02 -0.35379367312E+02  0.51899199763E+02  0.00000000000E+00 0. -1.
        -11    1    3    3    0    0 -0.45603356917E+02  0.32787399533E+02 -0.21312632396E+02  0.60074187716E+02  0.00000000000E+00 0.  1.
         11    1    3    3    0    0  0.29232159449E+02  0.14052032760E+02 -0.85450591629E+02  0.91399028335E+02  0.00000000000E+00 0. -1.
          1    1    1    2  501    0 -0.26348174577E+02 -0.10033653072E+03 -0.39207398585E+02  0.11090025160E+03  0.00000000000E+00 0. -1.
<scales pt_clust_5="13000.00000" pt_clust_6="13000.00000" pt_clust_7="13000.00000" pt_clust_8="13000.00000" pt_clust_9="103.73840"></scales>
<clustering>
<clus scale="   92.554">  5  6 -1 -1</clus>
<clus scale="   95.309">  7  8 -1 -1</clus>
<clus scale="  103.738">  1  9  2 -1</clus>
<clus scale="  103.738">  1  5  2 -1</clus>
<clus scale="  102.113">  1  5  2 -1</clus>
</clustering>
</event>
<event>
 9    1  0.1399746E-005  0.1242412E+03  0.7546771E-02  0.1236620E+00
         21   -1    0    0  501  502  0.00000000000E+00  0.00000000000E+00  0.15850395832E+03  0.15850395832E+03  0.00000000000E+00 0.  1.
          2   -1    0    0  502    0 -0.00000000000E+00 -0.00000000000E+00 -0.23337015371E+03  0.23337015371E+03  0.00000000000E+00 0. -1.
         23    2    1    2    0    0  0.78779252046E+02 -0.14836511385E+02 -0.14956770835E+03  0.19233048700E+03  0.90521954380E+02 0.  0.
         23    2    1    2    0    0 -0.98888576544E+02  0.32043797108E+02  0.19599778804E+02  0.13841526237E+03  0.89268572437E+02 0.  0.
        -13    1    4    4    0    0 -0.79377049863E+02  0.41040727374E+01  0.49029066358E+02  0.93388483262E+02  0.00000000000E+00 0.  1.
         13    1    4    4    0    0 -0.19511526681E+02  0.27939724370E+02 -0.29429287554E+02  0.45026779112E+02  0.00000000000E+00 0. -1.
        -13    1    3    3    0    0  0.42970374529E+02 -0.51155858375E+02 -0.10576903889E+03  0.12510181661E+03  0.00000000000E+00 0. -1.
         13    1    3    3    0    0  0.35808877518E+02  0.36319346990E+02 -0.43798669468E+02  0.67228670387E+02  0.00000000000E+00 0.  1.
          2    1    1    2  501    0  0.20109324497E+02 -0.17207285722E+02  0.55101734155E+02  0.61128362653E+02  0.00000000000E+00 0. -1.
<scales pt_clust_5="13000.00000" pt_clust_6="13000.00000" pt_clust_7="13000.00000" pt_clust_8="13000.00000" pt_clust_9="26.46650"></scales>
<clustering>
<clus scale="   26.466">  1  9  2 -1</clus>
<clus scale="   89.269">  5  6 -1 -1</clus>
<clus scale="   90.522">  7  8 -1 -1</clus>
<clus scale="  123.331">  1  5  2 -1</clus>
<clus scale="   26.466">  1  5  2 -1</clus>
</clustering>
</event>
<event>
 9    1  0.1399746E-005  0.1012387E+03  0.7546771E-02  0.1278522E+00
         21   -1    0    0  501  502  0.00000000000E+00  0.00000000000E+00  0.24314729423E+03  0.24314729423E+03  0.00000000000E+00 0. -1.
         -1   -1    0    0    0  501 -0.00000000000E+00 -0.00000000000E+00 -0.10910925540E+03  0.10910925540E+03  0.00000000000E+00 0.  1.
         23    2    1    2    0    0 -0.22118752195E+02 -0.30023963790E+02 -0.51314289702E+02  0.11002052801E+03  0.89892617355E+02 0.  0.
         23    2    1    2    0    0  0.53079886623E+02  0.50818747630E+02  0.12696465679E+03  0.17295301438E+03  0.91611689406E+02 0.  0.
        -13    1    4    4    0    0  0.15442792116E+01 -0.23444957969E+02  0.11064913233E+02  0.25970813566E+02  0.00000000000E+00 0.  1.
         13    1    4    4    0    0  0.51535607412E+02  0.74263705599E+02  0.11589974355E+03  0.14698220081E+03  0.00000000000E+00 0. -1.
        -13    1    3    3    0    0 -0.25935238824E+02  0.70975315656E+01  0.17258727161E+02  0.31951138171E+02  0.00000000000E+00 0. -1.
         13    1    3    3    0    0  0.38164866285E+01 -0.37121495356E+02 -0.68573016864E+02  0.78069389836E+02  0.00000000000E+00 0.  1.
         -1    1    1    2    0  502 -0.30961134428E+02 -0.20794783840E+02  0.58387671750E+02  0.69283007241E+02  0.00000000000E+00 0.  1.
<scales pt_clust_5="13000.00000" pt_clust_6="13000.00000" pt_clust_7="13000.00000" pt_clust_8="13000.00000" pt_clust_9="37.29631"></scales>
<clustering>
<clus scale="   37.296">  1  9  2 -1</clus>
<clus scale="   89.893">  7  8 -1 -1</clus>
<clus scale="   91.612">  5  6 -1 -1</clus>
<clus scale="   99.686">  2  7  1 -1</clus>
<clus scale="   37.296">  1  5  2 -1</clus>
</clustering>
</event>
<event>
 9    1  0.1399746E-005  0.1030090E+03  0.7546771E-02  0.1276791E+00
         21   -1    0    0  501  502  0.00000000000E+00  0.00000000000E+00  0.40098599940E+02  0.40098599940E+02  0.00000000000E+00 0.  1.
          2   -1    0    0  502    0 -0.00000000000E+00 -0.00000000000E+00 -0.60120526778E+03  0.60120526778E+03  0.00000000000E+00 0. -1.
         23    2    1    2    0    0  0.18313856249E+02 -0.23448511379E+02 -0.28509840781E+03  0.29985620073E+03  0.88019366985E+02 0.  0.
         23    2    1    2    0    0 -0.27784489307E+02  0.86229275899E+02 -0.13974810553E+03  0.19112153157E+03  0.93757351519E+02 0.  0.
        -11    1    3    3    0    0  0.46343372115E+01  0.33766870254E+02 -0.10405446678E+03  0.10949434079E+03  0.00000000000E+00 0.  1.
         11    1    3    3    0    0  0.13679519037E+02 -0.57215381633E+02 -0.18104394103E+03  0.19036185994E+03  0.00000000000E+00 0. -1.
        -13    1    4    4    0    0 -0.47916611473E+02  0.85177091194E+02 -0.14026606542E+03  0.17095527961E+03  0.00000000000E+00 0.  1.
         13    1    4    4    0    0  0.20132122166E+02  0.10521847047E+01  0.51795989421E+00  0.20166251957E+02  0.00000000000E+00 0. -1.
          2    1    1    2  501    0  0.94706330587E+01 -0.62780764520E+02 -0.13626015450E+03  0.15032613541E+03  0.00000000000E+00 0. -1.
<scales pt_clust_5="13000.00000" pt_clust_6="13000.00000" pt_clust_7="13000.00000" pt_clust_8="13000.00000" pt_clust_9="63.49111"></scales>
<clustering>
<clus scale="   63.491">  1  9  2 -1</clus>
<clus scale="   88.019">  5  6 -1 -1</clus>
<clus scale="   93.757">  7  8 -1 -1</clus>
<clus scale="   97.815">  2  5  1 -1</clus>
<clus scale="   63.491">  1  5  2 -1</clus>
</clustering>
</event>
<event>
 9    1  0.1399746E-005  0.9660602E+02  0.7546771E-02  0.1288803E+00
         21   -1    0    0  501  502  0.00000000000E+00  0.00000000000E+00  0.22804390638E+03  0.22804390638E+03  0.00000000000E+00 0. -1.
          3   -1    0    0  502    0 -0.00000000000E+00 -0.00000000000E+00 -0.54441159821E+02  0.54441159821E+02  0.00000000000E+00 0. -1.
         23    2    1    2    0    0 -0.23079937657E+02 -0.12703656826E+02  0.70700207266E+02  0.11753220801E+03  0.90117890534E+02 0.  0.
         23    2    1    2    0    0  0.21299443654E+02  0.41280784046E+02  0.71058711362E+02  0.12212936304E+03  0.87797901030E+02 0.  0.
        -11    1    3    3    0    0 -0.74330221575E+01  0.32381371985E+02  0.60060991162E+02  0.68637640762E+02  0.00000000000E+00 0. -1.
         11    1    3    3    0    0 -0.15646915500E+02 -0.45085028811E+02  0.10639216104E+02  0.48894567253E+02  0.00000000000E+00 0.  1.
        -13    1    4    4    0    0 -0.21389424101E+02  0.50327104964E+02  0.30816078138E+02  0.62769065863E+02  0.00000000000E+00 0.  1.
         13    1    4    4    0    0  0.42688867755E+02 -0.90463209189E+01  0.40242633224E+02  0.59360297179E+02  0.00000000000E+00 0. -1.
          3    1    1    2  501    0  0.17804940030E+01 -0.28577127220E+02  0.31843827928E+02  0.42823495141E+02  0.00000000000E+00 0. -1.
<scales pt_clust_5="13000.00000" pt_clust_6="13000.00000" pt_clust_7="13000.00000" pt_clust_8="13000.00000" pt_clust_9="28.63254"></scales>
<clustering>
<clus scale="   28.633">  1  9  2 -1</clus>
<clus scale="   87.798">  7  8 -1 -1</clus>
<clus scale="   90.118">  5  6 -1 -1</clus>
<clus scale="   94.446">  1  7  2 -1</clus>
<clus scale="   28.633">  1  5  2 -1</clus>
</clustering>
</event>
<event>
 9    1  0.1399746E-005  0.9224442E+02  0.7546771E-02  0.1299192E+00
         -1   -1    0    0    0  501 -0.00000000000E+00  0.00000000000E+00  0.75492324092E+02  0.75492324092E+02  0.00000000000E+00 0.  1.
         21   -1    0    0  501  502  0.00000000000E+00 -0.00000000000E+00 -0.17665415445E+03  0.17665415445E+03  0.00000000000E+00 0. -1.
         23    2    1    2    0    0  0.28245746731E+02  0.17381782703E+02  0.44583155821E+01  0.91400118761E+02  0.85053845024E+02 0.  0.
         23    2    1    2    0    0 -0.31119315558E+01 -0.22771250854E+02 -0.61927022989E+02  0.11005273074E+03  0.88025186075E+02 0.  0.
        -13    1    4    4    0    0 -0.11306818393E+02 -0.55292228176E+02 -0.46553493160E+02  0.73159431136E+02  0.00000000000E+00 0.  1.
         13    1    4    4    0    0  0.81948868377E+01  0.32520977322E+02 -0.15373529829E+02  0.36893299604E+02  0.00000000000E+00 0. -1.
        -13    1    3    3    0    0 -0.22659675666E+02  0.31181684182E+02  0.15153713675E+01  0.38575311795E+02  0.00000000000E+00 0. -1.
         13    1    3    3    0    0  0.50905422398E+02 -0.13799901478E+02  0.29429442146E+01  0.52824806966E+02  0.00000000000E+00 0.  1.
         -1    1    1    2    0  502 -0.25133815176E+02  0.53894681505E+01 -0.43693122951E+02  0.50693629042E+02  0.00000000000E+00 0.  1.
<scales pt_clust_5="13000.00000" pt_clust_6="13000.00000" pt_clust_7="13000.00000" pt_clust_8="13000.00000" pt_clust_9="25.70516"></scales>
<clustering>
<clus scale="   25.705">  2  9  1 -1</clus>
<clus scale="   85.054">  7  8 -1 -1</clus>
<clus scale="   88.025">  5  6 -1 -1</clus>
<clus scale="   89.413">  1  7  2 -1</clus>
<clus scale="   25.705">  2  5  1 -1</clus>
</clustering>
</event>
<event>
 9    1  0.1399746E-005  0.9443085E+02  0.7546771E-02  0.1297461E+00
          1   -1    0    0  502    0 -0.00000000000E+00  0.00000000000E+00  0.46376093843E+03  0.46376093843E+03  0.00000000000E+00 0. -1.
         21   -1    0    0  501  502  0.00000000000E+00 -0.00000000000E+00 -0.34210197747E+02  0.34210197747E+02  0.00000000000E+00 0.  1.
         23    2    1    2    0    0  0.76017665550E+01 -0.12457240108E+02  0.26117589080E+03  0.27779561846E+03  0.93512512611E+02 0.  0.
         23    2    1    2    0    0  0.34372995360E+02  0.60776164617E+01  0.14506237787E+03  0.17173946103E+03  0.85046509460E+02 0.  0.
        -11    1    3    3    0    0  0.34035549798E+02 -0.35669506767E+02  0.20989844875E+03  0.21561097177E+03  0.00000000000E+00 0.  1.
         11    1    3    3    0    0 -0.26433783243E+02  0.23212266659E+02  0.51277442051E+02  0.62184646684E+02  0.00000000000E+00 0. -1.
        -13    1    4    4    0    0 -0.20122162267E+02 -0.82514006886E+01  0.91314151574E+02  0.93868318965E+02  0.00000000000E+00 0. -1.
         13    1    4    4    0    0  0.54495157627E+02  0.14329017150E+02  0.53748226293E+02  0.77871142068E+02  0.00000000000E+00 0.  1.
          1    1    1    2  501    0 -0.41974761915E+02  0.63796236466E+01  0.23312472019E+02  0.48436056686E+02  0.00000000000E+00 0. -1.
<scales pt_clust_5="13000.00000" pt_clust_6="13000.00000" pt_clust_7="13000.00000" pt_clust_8="13000.00000" pt_clust_9="42.45680"></scales>
<clustering>
<clus scale="   42.457">  2  9  1 -1</clus>
<clus scale="   85.047">  7  8 -1 -1</clus>
<clus scale="   86.055">  2  7  1 -1</clus>
<clus scale="   93.513">  5  6 -1 -1</clus>
<clus scale="   42.457">  2  5  1 -1</clus>
</clustering>
</event>
<event>
 9    1  0.1399746E-005  0.1168001E+03  0.7546771E-02  0.1248781E+00
          2   -1    0    0  502    0 -0.00000000000E+00  0.00000000000E+00  0.54387629759E+03  0.54387629759E+03  0.00000000000E+00 0. -1.
         21   -1    0    0  501  502  0.00000000000E+00 -0.00000000000E+00 -0.90200730507E+02  0.90200730507E+02  0.00000000000E+00 0. -1.
         23    2    1    2    0    0  0.80330662374E+02 -0.57726644681E+02  0.40969398170E+03  0.43093888400E+03  0.89854227982E+02 0.  0.
         23    2    1    2    0    0 -0.39885273874E+01  0.21770413044E+02  0.67805427146E+02  0.11545378059E+03  0.90786233903E+02 0.  0.
        -11    1    3    3    0    0  0.50529405163E+02 -0.75370949985E+02  0.21783284078E+03  0.23597700611E+03  0.00000000000E+00 0.  1.
         11    1    3    3    0    0  0.29801257211E+02  0.17644305304E+02  0.19186114091E+03  0.19496187790E+03  0.00000000000E+00 0. -1.
        -13    1    4    4    0    0 -0.41854880468E+02 -0.40906375952E+01  0.52163817518E+02  0.67004687843E+02  0.00000000000E+00 0.  1.
         13    1    4    4    0    0  0.37866353081E+02  0.25861050639E+02  0.15641609627E+02  0.48449092742E+02  0.00000000000E+00 0. -1.
          2    1    1    2  501    0 -0.76342134987E+02  0.35956231637E+02 -0.23823841756E+02  0.87684363509E+02  0.00000000000E+00 0. -1.
<scales pt_clust_5="13000.00000" pt_clust_6="13000.00000" pt_clust_7="13000.00000" pt_clust_8="13000.00000" pt_clust_9="84.38585"></scales>
<clustering>
<clus scale="   84.386">  2  9  1 -1</clus>
<clus scale="   89.854">  5  6 -1 -1</clus>
<clus scale="   90.786">  7  8 -1 -1</clus>
<clus scale="  116.077">  1  5  2 -1</clus>
<clus scale="   84.386">  2  5  1 -1</clus>
</clustering>
</event>
<event>
 9    1  0.1399746E-005  0.1004468E+03  0.7546771E-02  0.1280025E+00
         -1   -1    0    0    0  501 -0.00000000000E+00  0.00000000000E+00  0.66297377796E+02  0.66297377796E+02  0.00000000000E+00 0.  1.
         21   -1    0    0  501  502  0.00000000000E+00 -0.00000000000E+00 -0.25007615035E+03  0.25007615035E+03  0.00000000000E+00 0. -1.
         23    2    1    2    0    0  0.10698983563E+02 -0.33388490537E+02 -0.31422844385E+02  0.10255677979E+03  0.91111132044E+02 0.  0.
         23    2    1    2    0    0 -0.30541411234E+02  0.43859912665E+02 -0.63604497971E+02  0.12227337623E+03  0.89714974414E+02 0.  0.
        -11    1    3    3    0    0 -0.21984181220E+02  0.15513732752E+02 -0.34387913133E+02  0.43663585486E+02  0.00000000000E+00 0.  1.
         11    1    3    3    0    0  0.32683164783E+02 -0.48902223289E+02  0.29650687482E+01  0.58893194306E+02  0.00000000000E+00 0. -1.
        -11    1    4    4    0    0 -0.21900482077E+02  0.71773507878E+02 -0.42625276123E+02  0.86301690093E+02  0.00000000000E+00 0.  1.
         11    1    4    4    0    0 -0.86409291569E+01 -0.27913595213E+02 -0.20979221848E+02  0.35971686140E+02  0.00000000000E+00 0. -1.
         -1    1    1    2    0  502  0.19842427671E+02 -0.10471422128E+02 -0.88751430195E+02  0.91543372119E+02  0.00000000000E+00 0.  1.
<scales pt_clust_5="13000.00000" pt_clust_6="13000.00000" pt_clust_7="13000.00000" pt_clust_8="13000.00000" pt_clust_9="22.43597"></scales>
<clustering>
<clus scale="   22.436">  2  9  1 -1</clus>
<clus scale="   89.715">  7  8 -1 -1</clus>
<clus scale="   91.111">  5  6 -1 -1</clus>
<clus scale="   99.182">  2  7  1 -1</clus>
<clus scale="   22.436">  2  5  1 -1</clus>
</clustering>
</event>
<event>
 9    1  0.1399746E-005  0.1195164E+03  0.7546771E-02  0.1245231E+00
          1   -1    0    0  502    0 -0.00000000000E+00  0.00000000000E+00  0.15523890453E+03  0.15523890453E+03  0.00000000000E+00 0. -1.
         21   -1    0    0  501  502  0.00000000000E+00 -0.00000000000E+00 -0.39886971704E+03  0.39886971704E+03  0.00000000000E+00 0. -1.
         23    2    1    2    0    0 -0.61090922463E+02  0.37390510516E+02  0.83141267319E+02  0.14241403161E+03  0.90769680970E+02 0.  0.
         23    2    1    2    0    0  0.74415742262E+02 -0.68825660172E+02 -0.66068585390E+02  0.14876488173E+03  0.86552052937E+02 0.  0.
        -11    1    3    3    0    0 -0.32962547813E+02  0.45072125205E+02  0.95593945260E+02  0.11070785157E+03  0.00000000000E+00 0. -1.
         11    1    3    3    0    0 -0.28128374650E+02 -0.76816146894E+01 -0.12452677941E+02  0.31706180038E+02  0.00000000000E+00 0.  1.
        -13    1    4    4    0    0  0.14004677277E+02 -0.39285559137E+02 -0.69913107390E+02  0.81408406981E+02  0.00000000000E+00 0.  1.
         13    1    4    4    0    0  0.60411064985E+02 -0.29540101035E+02  0.38445219997E+01  0.67356474753E+02  0.00000000000E+00 0. -1.
          1    1    1    2  501    0 -0.13324819799E+02  0.31435149656E+02 -0.26070349444E+03  0.26292970823E+03  0.00000000000E+00 0. -1.
<scales pt_clust_5="13000.00000" pt_clust_6="13000.00000" pt_clust_7="13000.00000" pt_clust_8="13000.00000" pt_clust_9="34.14263"></scales>
<clustering>
<clus scale="   34.143">  2  9  1 -1</clus>
<clus scale="   86.552">  7  8 -1 -1</clus>
<clus scale="   90.770">  5  6 -1 -1</clus>
<clus scale="  116.346">  2  7  1 -1</clus>
<clus scale="   34.143">  2  5  1 -1</clus>
</clustering>
</event>
<event>
 9    1  0.1399746E-005  0.1242876E+03  0.7546771E-02  0.1239491E+00
         21   -1    0    0  501  502  0.00000000000E+00  0.00000000000E+00  0.71011139005E+02  0.71011139005E+02  0.00000000000E+00 0.  1.
          2   -1    0    0  502    0 -0.00000000000E+00 -0.00000000000E+00 -0.65977259276E+03  0.65977259276E+03  0.00000000000E+00 0. -1.
         23    2    1    2    0    0  0.41534610893E+02  0.56758243934E+02 -0.46360196550E+03  0.47728272041E+03  0.89024663044E+02 0.  0.
         23    2    1    2    0    0 -0.47339657754E+02 -0.76723995327E+02 -0.16252084459E+03  0.21074354716E+03  0.99358960781E+02 0.  0.
        -11    1    3    3    0    0 -0.21078548803E+02  0.42147513720E+02 -0.24182771396E+03  0.24637646270E+03  0.00000000000E+00 0. -1.
         11    1    3    3    0    0  0.62613159696E+02  0.14610730214E+02 -0.22177425154E+03  0.23090625771E+03  0.00000000000E+00 0.  1.
        -13    1    4    4    0    0 -0.37697331764E+01  0.21233368529E+02 -0.87153822384E+01  0.23259937981E+02  0.00000000000E+00 0. -1.
         13    1    4    4    0    0 -0.43569924577E+02 -0.97957363855E+02 -0.15380546235E+03  0.18748360918E+03  0.00000000000E+00 0.  1.
          2    1    1    2  501    0  0.58050468609E+01  0.19965751393E+02  0.37361356332E+02  0.42757464198E+02  0.00000000000E+00 0. -1.
<scales pt_clust_5="13000.00000" pt_clust_6="13000.00000" pt_clust_7="13000.00000" pt_clust_8="13000.00000" pt_clust_9="20.79254"></scales>
<clustering>
<clus scale="   20.793">  1  9  2 -1</clus>
<clus scale="   89.025">  5  6 -1 -1</clus>
<clus scale="   99.359">  7  8 -1 -1</clus>
<clus scale="  116.192">  2  5  1 -1</clus>
<clus scale="   20.793">  1  5  2 -1</clus>
</clustering>
</event>
<event>
 9    1  0.1399746E-005  0.1077130E+03  0.7546771E-02  0.1269479E+00
         21   -1    0    0  501  502  0.00000000000E+00  0.00000000000E+00  0.88007230840E+02  0.88007230840E+02  0.00000000000E+00 0.  1.
         -3   -1    0    0    0  501 -0.00000000000E+00 -0.00000000000E+00 -0.46128692041E+03  0.46128692041E+03  0.00000000000E+00 0.  1.
         23    2    1    2    0    0  0.40820376197E+02  0.16650533987E+02 -0.38205730541E+03  0.39479255256E+03  0.89161827857E+02 0.  0.
         23    2    1    2    0    0 -0.32765727686E+02  0.98872919164E+01 -0.27780083407E+02  0.10861479296E+03  0.99267762966E+02 0.  0.
        -11    1    3    3    0    0  0.50641035828E+02  0.45916133382E+02 -0.27549870179E+03  0.28385267394E+03  0.00000000000E+00 0.  1.
         11    1    3    3    0    0 -0.98206596312E+01 -0.29265599394E+02 -0.10655860362E+03  0.11093987862E+03  0.00000000000E+00 0. -1.
        -13    1    4    4    0    0  0.87251174035E+01  0.27577436377E+02 -0.50434738695E+02  0.58140395063E+02  0.00000000000E+00 0.  1.
         13    1    4    4    0    0 -0.41490845090E+02 -0.17690144460E+02  0.22654655288E+02  0.50474397901E+02  0.00000000000E+00 0. -1.
         -3    1    1    2    0  502 -0.80546485109E+01 -0.26537825904E+02  0.36557699241E+02  0.45886805730E+02  0.00000000000E+00 0.  1.
<scales pt_clust_5="13000.00000" pt_clust_6="13000.00000" pt_clust_7="13000.00000" pt_clust_8="13000.00000" pt_clust_9="27.73326"></scales>
<clustering>
<clus scale="   27.733">  1  9  2 -1</clus>
<clus scale="   89.162">  5  6 -1 -1</clus>
<clus scale="   98.478">  2  5  1 -1</clus>
<clus scale="   99.268">  7  8 -1 -1</clus>
<clus scale="   27.733">  1  5  2 -1</clus>
</clustering>
</event>
<event>
 9    1  0.1399746E-005  0.1212493E+03  0.7546771E-02  0.1241485E+00
         21   -1    0    0  501  502  0.00000000000E+00  0.00000000000E+00  0.17745696809E+03  0.17745696809E+03  0.00000000000E+00 0. -1.
          1   -1    0    0  502    0 -0.00000000000E+00 -0.00000000000E+00 -0.22548066563E+03  0.22548066563E+03  0.00000000000E+00 0. -1.
         23    2    1    2    0    0  0.92055669298E+02 -0.19521072030E+02 -0.12344587412E+03  0.17872928344E+03  0.88599968495E+02 0.  0.
         23    2    1    2    0    0 -0.59736144799E+02  0.16299042154E+02 -0.30472433620E+02  0.11344463053E+03  0.90039153792E+02 0.  0.
        -11    1    4    4    0    0 -0.55417092366E+02 -0.53773812561E+01  0.19346488000E+02  0.58942827837E+02  0.00000000000E+00 0.  1.
         11    1    4    4    0    0 -0.43190524333E+01  0.21676423410E+02 -0.49818921621E+02  0.54501802697E+02  0.00000000000E+00 0. -1.
        -13    1    3    3    0    0  0.21482518407E+01 -0.20792928086E+02  0.54195767313E+01  0.21594736774E+02  0.00000000000E+00 0.  1.
         13    1    3    3    0    0  0.89907417457E+02  0.12718560561E+01 -0.12886545085E+03  0.15713454666E+03  0.00000000000E+00 0. -1.
          1    1    1    2  501    0 -0.32319524499E+02  0.32220298765E+01  0.10589461021E+03  0.11076371975E+03  0.00000000000E+00 0. -1.
<scales pt_clust_5="13000.00000" pt_clust_6="13000.00000" pt_clust_7="13000.00000" pt_clust_8="13000.00000" pt_clust_9="32.47973"></scales>
<clustering>
<clus scale="   32.480">  1  9  2 -1</clus>
<clus scale="   88.600">  7  8 -1 -1</clus>
<clus scale="   90.039">  5  6 -1 -1</clus>
<clus scale="  120.184">  2  7  1 -1</clus>
<clus scale="   32.480">  1  5  2 -1</clus>
</clustering>
</event>
<event>
 9    1  0.1399746E-005  0.1097695E+03  0.7546771E-02  0.1263348E+00
          2   -1    0    0  502    0 -0.00000000000E+00  0.00000000000E+00  0.21485032159E+03  0.21485032159E+03  0.00000000000E+00 0.  1.
         21   -1    0    0  501  502  0.00000000000E+00 -0.00000000000E+00 -0.21757353389E+03  0.21757353389E+03  0.00000000000E+00 0.  1.
         23    2    1    2    0    0  0.36246776127E+02  0.50462961474E+02  0.13619567030E+03  0.17547140244E+03  0.91545689180E+02 0.  0.
         23    2    1    2    0    0 -0.16373104968E+02 -0.57053775049E+02  0.11787140520E+02  0.10479888905E+03  0.85560847651E+02 0.  0.
        -11    1    3    3    0    0  0.33010018111E+02 -0.14431945647E+02  0.86395990268E+02  0.93606674363E+02  0.00000000000E+00 0. -1.
         11    1    3    3    0    0  0.32367580161E+01  0.64894907121E+02  0.49799680028E+02  0.81864728080E+02  0.00000000000E+00 0.  1.
        -13    1    4    4    0    0 -0.23887784708E+02 -0.14898047993E+02  0.43289681694E+02  0.51638886833E+02  0.00000000000E+00 0.  1.
         13    1    4    4    0    0  0.75146797394E+01 -0.42155727056E+02 -0.31502541174E+02  0.53160002216E+02  0.00000000000E+00 0. -1.
          2    1    1    2  501    0 -0.19873671159E+02  0.65908135749E+01 -0.15070602312E+03  0.15215356398E+03  0.00000000000E+00 0.  1.
<scales pt_clust_5="13000.00000" pt_clust_6="13000.00000" pt_clust_7="13000.00000" pt_clust_8="13000.00000" pt_clust_9="20.93804"></scales>
<clustering>
<clus scale="   20.938">  2  9  1 -1</clus>
<clus scale="   85.561">  7  8 -1 -1</clus>
<clus scale="   91.546">  5  6 -1 -1</clus>
<clus scale="  104.830">  2  7  1 -1</clus>
<clus scale="   20.938">  2  5  1 -1</clus>
</clustering>
</event>
<event>
 9    1  0.1399746E-005  0.1738099E+03  0.7546771E-02  0.1174714E+00
         21   -1    0    0  501  502  0.00000000000E+00  0.00000000000E+00  0.85468325945E+03  0.85468325945E+03  0.00000000000E+00 0.  1.
         -1   -1    0    0    0  501 -0.00000000000E+00 -0.00000000000E+00 -0.50155727814E+02  0.50155727814E+02  0.00000000000E+00 0.  1.
         23    2    1    2    0    0 -0.10001545646E+03  0.11332155289E+03  0.18984975086E+03  0.25843369600E+03  0.88882964910E+02 0.  0.
         23    2    1    2    0    0  0.10791127086E+03 -0.80638408314E+02  0.53932285420E+03  0.56388925171E+03  0.94628493871E+02 0.  0.
        -11    1    3    3    0    0 -0.52727123966E+02  0.75006576637E+02  0.46722421325E+02  0.10290345376E+03  0.00000000000E+00 0.  1.
         11    1    3    3    0    0 -0.47288332490E+02  0.38314976250E+02  0.14312732953E+03  0.15553024225E+03  0.00000000000E+00 0. -1.
        -13    1    4    4    0    0  0.46575097722E+02  0.16759257910E+02  0.16683689338E+03  0.17402488743E+03  0.00000000000E+00 0. -1.
         13    1    4    4    0    0  0.61336173136E+02 -0.97397666224E+02  0.37248596083E+03  0.38986436428E+03  0.00000000000E+00 0.  1.
         -1    1    1    2    0  502 -0.78958144016E+01 -0.32683144573E+02  0.75354926575E+02  0.82516039552E+02  0.00000000000E+00 0.  1.
<scales pt_clust_5="13000.00000" pt_clust_6="13000.00000" pt_clust_7="13000.00000" pt_clust_8="13000.00000" pt_clust_9="33.62338"></scales>
<clustering>
<clus scale="   33.623">  1  9  2 -1</clus>
<clus scale="   88.883">  5  6 -1 -1</clus>
<clus scale="   94.628">  7  8 -1 -1</clus>
<clus scale="  170.750">  2  5  1 -1</clus>
<clus scale="   33.623">  1  5  2 -1</clus>
</clustering>
</event>
<event>
 9    1  0.1399746E-005  0.1236987E+03  0.7546771E-02  0.1241823E+00
         21   -1    0    0  501  502  0.00000000000E+00  0.00000000000E+00  0.24294815851E+03  0.24294815851E+03  0.00000000000E+00 0. -1.
         -1   -1    0    0    0  501 -0.00000000000E+00 -0.00000000000E+00 -0.97051998383E+02  0.97051998383E+02  0.00000000000E+00 0.  1.
         23    2    1    2    0    0  0.72910865113E+02  0.31184963467E+02  0.33855621629E+02  0.13500467593E+03  0.10388244899E+03 0.  0.
         23    2    1    2    0    0 -0.26952372065E+02 -0.58780341630E+02  0.46423444534E+02  0.12026478405E+03  0.90149449022E+02 0.  0.
        -11    1    3    3    0    0  0.94832690589E+02  0.44097682067E+02  0.32536199101E+02  0.10952830237E+03  0.00000000000E+00 0.  1.
         11    1    3    3    0    0 -0.21921825475E+02 -0.12912718599E+02  0.13194225279E+01  0.25476373557E+02  0.00000000000E+00 0. -1.
        -13    1    4    4    0    0 -0.27679366507E+02  0.13562479374E+02  0.35638419894E+02  0.47118840706E+02  0.00000000000E+00 0.  1.
         13    1    4    4    0    0  0.72699444148E+00 -0.72342821004E+02  0.10785024641E+02  0.73145943348E+02  0.00000000000E+00 0. -1.
         -1    1    1    2    0  502 -0.45958493048E+02  0.27595378163E+02  0.65617093962E+02  0.84730696912E+02  0.00000000000E+00 0.  1.
<scales pt_clust_5="13000.00000" pt_clust_6="13000.00000" pt_clust_7="13000.00000" pt_clust_8="13000.00000" pt_clust_9="53.60679"></scales>
<clustering>
<clus scale="   53.607">  1  9  2 -1</clus>
<clus scale="   90.149">  7  8 -1 -1</clus>
<clus scale="  103.882">  5  6 -1 -1</clus>
<clus scale="  112.413">  1  7  2 -1</clus>
<clus scale="   53.607">  1  5  2 -1</clus>
</clustering>
</event>
<event>
 9    1  0.1399746E-005  0.1012506E+03  0.7546771E-02  0.1279113E+00
         21   -1    0    0  501  502  0.00000000000E+00  0.00000000000E+00  0.14594092734E+03  0.14594092734E+03  0.00000000000E+00 0.  1.
          3   -1    0    0  502    0 -0.00000000000E+00 -0.00000000000E+00 -0.14292149768E+03  0.14292149768E+03  0.00000000000E+00 0. -1.
         23    2    1    2    0    0 -0.33008229546E+02  0.23539985657E+02 -0.75577140765E+02  0.12728498452E+03  0.94052586016E+02 0.  0.
         23    2    1    2    0    0  0.34166515753E+01 -0.34914743226E+02  0.84739397193E+02  0.12928532200E+03  0.91121985516E+02 0.  0.
        -11    1    4    4    0    0 -0.35293208010E+02 -0.24662148283E+02  0.77405772133E+02  0.88574746113E+02  0.00000000000E+00 0.  1.
         11    1    4    4    0    0  0.38709859585E+02 -0.10252594943E+02  0.73336250602E+01  0.40710575882E+02  0.00000000000E+00 0. -1.
        -13    1    3    3    0    0  0.79890664094E+01  0.41244265982E+02 -0.70863095878E+02  0.82380173682E+02  0.00000000000E+00 0. -1.
         13    1    3    3    0    0 -0.40997295955E+02 -0.17704280325E+02 -0.47140448873E+01  0.44904810841E+02  0.00000000000E+00 0.  1.
          3    1    1    2  501    0  0.29591577970E+02  0.11374757569E+02 -0.61428267687E+01  0.32292118500E+02  0.00000000000E+00 0. -1.
<scales pt_clust_5="13000.00000" pt_clust_6="13000.00000" pt_clust_7="13000.00000" pt_clust_8="13000.00000" pt_clust_9="31.70249"></scales>
<clustering>
<clus scale="   31.702">  1  9  2 -1</clus>
<clus scale="   91.122">  5  6 -1 -1</clus>
<clus scale="   94.053">  7  8 -1 -1</clus>
<clus scale="   98.534">  1  5  2 -1</clus>
<clus scale="   31.702">  1  5  2 -1</clus>
</clustering>
</event>
<event>
 9    1  0.1399746E-005  0.1265960E+03  0.7546771E-02  0.1232749E+00
          1   -1    0    0  502    0 -0.00000000000E+00  0.00000000000E+00  0.77654457664E+03  0.77654457664E+03  0.00000000000E+00 0. -1.
         21   -1    0    0  501  502  0.00000000000E+00 -0.00000000000E+00 -0.40145088666E+02  0.40145088666E+02  0.00000000000E+00 0.  1.
         23    2    1    2    0    0 -0.26200003479E+02 -0.91402759698E+02  0.44277781295E+03  0.46198555613E+03  0.91310228195E+02 0.  0.
         23    2    1    2    0    0  0.17319386010E+01  0.78951164853E+02  0.30249722330E+03  0.32585096775E+03  0.91858570827E+02 0.  0.
        -11    1    4    4    0    0  0.44734743415E+02  0.22740291060E+02  0.11680444485E+03  0.12712826768E+03  0.00000000000E+00 0.  1.
         11    1    4    4    0    0 -0.43002804814E+02  0.56210873794E+02  0.18569277845E+03  0.19872270007E+03  0.00000000000E+00 0. -1.
        -13    1    3    3    0    0 -0.19223331826E+02  0.12687855374E+02  0.42545394863E+02  0.48380045313E+02  0.00000000000E+00 0. -1.
         13    1    3    3    0    0 -0.69766716525E+01 -0.10409061507E+03  0.40023241808E+03  0.41360551082E+03  0.00000000000E+00 0.  1.
          1    1    1    2  501    0  0.24468064878E+02  0.12451594845E+02 -0.88755482744E+01  0.28853141427E+02  0.00000000000E+00 0. -1.
<scales pt_clust_5="13000.00000" pt_clust_6="13000.00000" pt_clust_7="13000.00000" pt_clust_8="13000.00000" pt_clust_9="27.45411"></scales>
<clustering>
<clus scale="   27.454">  2  9  1 -1</clus>
<clus scale="   91.310">  7  8 -1 -1</clus>
<clus scale="   91.859">  5  6 -1 -1</clus>
<clus scale="  126.199">  1  7  2 -1</clus>
<clus scale="   27.454">  2  5  1 -1</clus>
</clustering>
</event>
<event>
 9    1  0.1399746E-005  0.9307662E+02  0.7546771E-02  0.1295846E+00
         21   -1    0    0  501  502  0.00000000000E+00  0.00000000000E+00  0.78605356161E+02  0.78605356161E+02  0.00000000000E+00 0.  1.
         -2   -1    0    0    0  501 -0.00000000000E+00 -0.00000000000E+00 -0.22926557553E+03  0.22926557553E+03  0.00000000000E+00 0.  1.
         23    2    1    2    0    0 -0.16227472624E+02 -0.16409094833E+02 -0.12226565350E+03  0.15443107036E+03  0.91473909978E+02 0.  0.
         23    2    1    2    0    0  0.75183632159E+01 -0.87805929867E+01 -0.61280113288E+02  0.11110986973E+03  0.91959372927E+02 0.  0.
        -13    1    4    4    0    0  0.10721243597E+02 -0.49381398428E+02 -0.43479169369E+02  0.66662626291E+02  0.00000000000E+00 0.  1.
         13    1    4    4    0    0 -0.32028803811E+01  0.40600805442E+02 -0.17800943919E+02  0.44447243443E+02  0.00000000000E+00 0. -1.
        -13    1    3    3    0    0 -0.19741070097E+02  0.29897853187E+02 -0.17582115960E+02  0.39908924758E+02  0.00000000000E+00 0. -1.
         13    1    3    3    0    0  0.35135974724E+01 -0.46306948019E+02 -0.10468353754E+03  0.11452214560E+03  0.00000000000E+00 0.  1.
         -2    1    1    2    0  502  0.87091094084E+01  0.25189687819E+02  0.32885547420E+02  0.42329991593E+02  0.00000000000E+00 0.  1.
<scales pt_clust_5="13000.00000" pt_clust_6="13000.00000" pt_clust_7="13000.00000" pt_clust_8="13000.00000" pt_clust_9="26.65275"></scales>
<clustering>
<clus scale="   26.653">  1  9  2 -1</clus>
<clus scale="   91.474">  7  8 -1 -1</clus>
<clus scale="   91.959">  5  6 -1 -1</clus>
<clus scale="   92.597">  2  7  1 -1</clus>
<clus scale="   26.653">  1  5  2 -1</clus>
</clustering>
</event>
<event>
 9    1  0.1399746E-005  0.2673175E+03  0.7546771E-02  0.1130315E+00
          4   -1    0    0  502    0 -0.00000000000E+00  0.00000000000E+00  0.52393971898E+03  0.52393971898E+03  0.00000000000E+00 0. -1.
         21   -1    0    0  501  502  0.00000000000E+00 -0.00000000000E+00 -0.24271287996E+03  0.24271287996E+03  0.00000000000E+00 0. -1.
         23    2    1    2    0    0 -0.88927742729E+02  0.37034952118E+02  0.16903111235E+03  0.21559156655E+03  0.92889587802E+02 0.  0.
         23    2    1    2    0    0  0.20577643735E+03 -0.21967661187E+03  0.97343695358E+02  0.33373138382E+03  0.10629715682E+03 0.  0.
        -11    1    3    3    0    0 -0.62777682596E+02  0.30282516511E+02  0.33384772643E+02  0.77282671297E+02  0.00000000000E+00 0.  1.
         11    1    3    3    0    0 -0.26150060133E+02  0.67524356072E+01  0.13564633971E+03  0.13830889526E+03  0.00000000000E+00 0. -1.
        -13    1    4    4    0    0  0.26416557888E+01 -0.61368930994E+02  0.13514162727E+02  0.62894806072E+02  0.00000000000E+00 0.  1.
         13    1    4    4    0    0  0.20313478156E+03 -0.15830768088E+03  0.83829532632E+02  0.27083657775E+03  0.00000000000E+00 0. -1.
          4    1    1    2  501    0 -0.11684869462E+03  0.18264165975E+03  0.14852031309E+02  0.21732964857E+03  0.00000000000E+00 0. -1.
<scales pt_clust_5="13000.00000" pt_clust_6="13000.00000" pt_clust_7="13000.00000" pt_clust_8="13000.00000" pt_clust_9="245.27451"></scales>
<clustering>
<clus scale="   92.890">  5  6 -1 -1</clus>
<clus scale="  106.297">  7  8 -1 -1</clus>
<clus scale="  133.822">  1  5  2 -1</clus>
<clus scale="  245.275">  2  9  1 -1</clus>
<clus scale="  245.275">  2  5  1 -1</clus>
</clustering>
</event>
<event>
 9    1  0.1399746E-005  0.2252227E+03  0.7546771E-02  0.1130084E+00
         21   -1    0    0  501  502  0.00000000000E+00  0.00000000000E+00  0.20058348278E+03  0.20058348278E+03  0.00000000000E+00 0. -1.
          1   -1    0    0  502    0 -0.00000000000E+00 -0.00000000000E+00 -0.36244678819E+03  0.36244678819E+03  0.00000000000E+00 0. -1.
         23    2    1    2    0    0 -0.18678041342E+03  0.77170036671E+02 -0.14118328002E+03  0.26321305259E+03  0.92229361381E+02 0.  0.
         23    2    1    2    0    0  0.21027340303E+03 -0.36761033863E+02 -0.58613137531E+02  0.23961980095E+03  0.91738059093E+02 0.  0.
        -11    1    3    3    0    0 -0.94888054135E+02  0.88208660771E+02 -0.84714268642E+02  0.15479346874E+03  0.00000000000E+00 0. -1.
         11    1    3    3    0    0 -0.91892359286E+02 -0.11038624101E+02 -0.56469011377E+02  0.10841958385E+03  0.00000000000E+00 0.  1.
        -13    1    4    4    0    0  0.15322578570E+02 -0.34082399152E+02 -0.98781690448E+01  0.38651902536E+02  0.00000000000E+00 0.  1.
         13    1    4    4    0    0  0.19495082446E+03 -0.26786347108E+01 -0.48734968486E+02  0.20096789842E+03  0.00000000000E+00 0. -1.
          1    1    1    2  501    0 -0.23492989609E+02 -0.40409002808E+02  0.37933112133E+02  0.60197417426E+02  0.00000000000E+00 0. -1.
<scales pt_clust_5="13000.00000" pt_clust_6="13000.00000" pt_clust_7="13000.00000" pt_clust_8="13000.00000" pt_clust_9="46.74193"></scales>
<clustering>
<clus scale="   46.742">  1  9  2 -1</clus>
<clus scale="   91.738">  7  8 -1 -1</clus>
<clus scale="   92.229">  5  6 -1 -1</clus>
<clus scale="  225.022">  1  7  2 -1</clus>
<clus scale="   46.742">  1  5  2 -1</clus>
</clustering>
</event>
<event>
 9    1  0.1399746E-005  0.9640457E+02  0.7546771E-02  0.1289206E+00
         21   -1    0    0  501  502  0.00000000000E+00  0.00000000000E+00  0.31143875606E+03  0.31143875606E+03  0.00000000000E+00 0.  1.
          4   -1    0    0  502    0 -0.00000000000E+00 -0.00000000000E+00 -0.60075853395E+02  0.60075853395E+02  0.00000000000E+00 0. -1.
         23    2    1    2    0    0  0.50513010974E+01  0.61907187164E+02  0.69812115220E+02  0.12912343473E+03  0.89112931165E+02 0.  0.
         23    2    1    2    0    0  0.11007300461E+02  0.37314733687E+01  0.91327068539E+02  0.12966747759E+03  0.91312303338E+02 0.  0.
        -11    1    3    3    0    0 -0.18380679873E+02  0.27137667856E+02  0.79585977032E+02  0.86071076148E+02  0.00000000000E+00 0. -1.
         11    1    3    3    0    0  0.23431980971E+02  0.34769519308E+02 -0.97738618113E+01  0.43052358586E+02  0.00000000000E+00 0.  1.
        -13    1    4    4    0    0  0.98918326904E+01  0.24759504932E+02  0.10244314398E+03  0.10585593600E+03  0.00000000000E+00 0.  1.
         13    1    4    4    0    0  0.11154677706E+01 -0.21028031564E+02 -0.11116075441E+02  0.23811541592E+02  0.00000000000E+00 0. -1.
          4    1    1    2  501    0 -0.16058601558E+02 -0.65638660533E+02  0.90223718902E+02  0.11272369712E+03  0.00000000000E+00 0. -1.
<scales pt_clust_5="13000.00000" pt_clust_6="13000.00000" pt_clust_7="13000.00000" pt_clust_8="13000.00000" pt_clust_9="67.57450"></scales>
<clustering>
<clus scale="   67.574">  1  9  2 -1</clus>
<clus scale="   89.113">  5  6 -1 -1</clus>
<clus scale="   91.312">  7  8 -1 -1</clus>
<clus scale="   94.324">  2  5  1 -1</clus>
<clus scale="   67.574">  1  5  2 -1</clus>
</clustering>
</event>
<event>
 9    1  0.1399746E-005  0.9571151E+02  0.7546771E-02  0.1290079E+00
         21   -1    0    0  501  502  0.00000000000E+00  0.00000000000E+00  0.10924868543E+03  0.10924868543E+03  0.00000000000E+00 0. -1.
          2   -1    0    0  502    0 -0.00000000000E+00 -0.00000000000E+00 -0.20772346214E+03  0.20772346214E+03  0.00000000000E+00 0. -1.
         23    2    1    2    0    0 -0.46064453414E+01 -0.32035141432E+02 -0.15608818469E+03  0.18368903111E+03  0.91272499275E+02 0.  0.
         23    2    1    2    0    0  0.13481057846E+02  0.62185252422E+01  0.52409370567E+02  0.10549213907E+03  0.90340690198E+02 0.  0.
        -11    1    3    3    0    0 -0.20285179824E+02 -0.60642186970E+02 -0.10974815092E+03  0.12701818764E+03  0.00000000000E+00 0. -1.
         11    1    3    3    0    0  0.15678734483E+02  0.28607045538E+02 -0.46340033775E+02  0.56670843470E+02  0.00000000000E+00 0.  1.
        -13    1    4    4    0    0 -0.35039385641E+02 -0.15516009796E+02  0.23925106703E+02  0.45176496509E+02  0.00000000000E+00 0. -1.
         13    1    4    4    0    0  0.48520443488E+02  0.21734535038E+02  0.28484263864E+02  0.60315642560E+02  0.00000000000E+00 0.  1.
          2    1    1    2  501    0 -0.88746125050E+01  0.25816616190E+02  0.52040374172E+01  0.27790977386E+02  0.00000000000E+00 0. -1.
<scales pt_clust_5="13000.00000" pt_clust_6="13000.00000" pt_clust_7="13000.00000" pt_clust_8="13000.00000" pt_clust_9="27.29938"></scales>
<clustering>
<clus scale="   27.299">  1  9  2 -1</clus>
<clus scale="   90.341">  7  8 -1 -1</clus>
<clus scale="   91.272">  5  6 -1 -1</clus>
<clus scale="   94.823">  1  7  2 -1</clus>
<clus scale="   27.299">  1  5  2 -1</clus>
</clustering>
</event>
<event>
 9    1  0.1399746E-005  0.9966949E+02  0.7546771E-02  0.1281800E+00
         -4   -1    0    0    0  501 -0.00000000000E+00  0.00000000000E+00  0.70925946343E+02  0.70925946343E+02  0.00000000000E+00 0.  1.
         21   -1    0    0  501  502  0.00000000000E+00 -0.00000000000E+00 -0.25747872254E+03  0.25747872254E+03  0.00000000000E+00 0. -1.
         23    2    1    2    0    0 -0.14751758444E+02  0.22036119291E+02 -0.17115908293E+02  0.97211357054E+02  0.91945030822E+02 0.  0.
         23    2    1    2    0    0  0.17761426879E+02 -0.63299912631E+02 -0.97778993484E+02  0.14844906906E+03  0.90299763645E+02 0.  0.
        -11    1    3    3    0    0  0.24462104109E+02  0.35024025724E+02 -0.31921253601E+02  0.53329572911E+02  0.00000000000E+00 0.  1.
         11    1    3    3    0    0 -0.39213862553E+02 -0.12987906434E+02  0.14805345308E+02  0.43881784143E+02  0.00000000000E+00 0. -1.
        -13    1    4    4    0    0  0.46307852969E+02 -0.19069619552E+02 -0.18715284703E+02  0.53463347426E+02  0.00000000000E+00 0.  1.
         13    1    4    4    0    0 -0.28546426090E+02 -0.44230293080E+02 -0.79063708780E+02  0.94985721635E+02  0.00000000000E+00 0. -1.
         -4    1    1    2    0  502 -0.30096684350E+01  0.41263793341E+02 -0.71657874425E+02  0.82744242773E+02  0.00000000000E+00 0.  1.
<scales pt_clust_5="13000.00000" pt_clust_6="13000.00000" pt_clust_7="13000.00000" pt_clust_8="13000.00000" pt_clust_9="41.37341"></scales>
<clustering>
<clus scale="   41.373">  2  9  1 -1</clus>
<clus scale="   90.300">  7  8 -1 -1</clus>
<clus scale="   91.945">  5  6 -1 -1</clus>
<clus scale="   98.154">  2  7  1 -1</clus>
<clus scale="   41.373">  2  5  1 -1</clus>
</clustering>
</event>
<event>
 9    1  0.1399746E-005  0.9864423E+02  0.7546771E-02  0.1285428E+00
          2   -1    0    0  502    0 -0.00000000000E+00  0.00000000000E+00  0.45863484102E+02  0.45863484102E+02  0.00000000000E+00 0. -1.
         21   -1    0    0  501  502  0.00000000000E+00 -0.00000000000E+00 -0.39288436762E+03  0.39288436762E+03  0.00000000000E+00 0. -1.
         23    2    1    2    0    0 -0.17255478740E+02  0.29905310355E+02 -0.72686633122E+02  0.12472088567E+03  0.95288370509E+02 0.  0.
         23    2    1    2    0    0 -0.14073508747E+02 -0.19659407991E+02 -0.10305884319E+03  0.13960864968E+03  0.91021392732E+02 0.  0.
        -13    1    4    4    0    0  0.15598614391E+02 -0.43649779703E+02 -0.86242658821E+02  0.97910245835E+02  0.00000000000E+00 0. -1.
         13    1    4    4    0    0 -0.29672123139E+02  0.23990371713E+02 -0.16816184370E+02  0.41698403845E+02  0.00000000000E+00 0.  1.
        -13    1    3    3    0    0  0.21736643854E+02  0.47306028607E+02 -0.17455468340E+02  0.54909338036E+02  0.00000000000E+00 0.  1.
         13    1    3    3    0    0 -0.38992122594E+02 -0.17400718253E+02 -0.55231164782E+02  0.69811547636E+02  0.00000000000E+00 0. -1.
          2    1    1    2  501    0  0.31328987488E+02 -0.10245902364E+02 -0.17127540720E+03  0.17441831637E+03  0.00000000000E+00 0. -1.
<scales pt_clust_5="13000.00000" pt_clust_6="13000.00000" pt_clust_7="13000.00000" pt_clust_8="13000.00000" pt_clust_9="32.96186"></scales>
<clustering>
<clus scale="   32.962">  2  9  1 -1</clus>
<clus scale="   91.021">  5  6 -1 -1</clus>
<clus scale="   94.529">  2  5  1 -1</clus>
<clus scale="   95.288">  7  8 -1 -1</clus>
<clus scale="   32.962">  2  5  1 -1</clus>
</clustering>
</event>
<event>
 9    1  0.1399746E-005  0.1520430E+03  0.7546771E-02  0.1202857E+00
          1   -1    0    0  502    0 -0.00000000000E+00  0.00000000000E+00  0.53946058841E+03  0.53946058841E+03  0.00000000000E+00 0. -1.
         21   -1    0    0  501  502  0.00000000000E+00 -0.00000000000E+00 -0.16269587427E+03  0.16269587427E+03  0.00000000000E+00 0. -1.
         23    2    1    2    0    0  0.87547890518E+02  0.43699523561E+02  0.46355232890E+03  0.48409055080E+03  0.99441531818E+02 0.  0.
         23    2    1    2    0    0 -0.48397348128E+02 -0.46349924293E+02 -0.17147041790E+02  0.13813094457E+03  0.11956386586E+03 0.  0.
        -11    1    3    3    0    0 -0.11848710933E+01  0.44913605171E+02  0.22782332522E+03  0.23221133340E+03  0.00000000000E+00 0.  1.
         11    1    3    3    0    0  0.88732761611E+02 -0.12140816097E+01  0.23572900369E+03  0.25187921740E+03  0.00000000000E+00 0. -1.
        -13    1    4    4    0    0 -0.28716770526E+02 -0.79228180818E+02  0.17956769951E+02  0.86163815678E+02  0.00000000000E+00 0.  1.
         13    1    4    4    0    0 -0.19680577602E+02  0.32878256525E+02 -0.35103811740E+02  0.51967128895E+02  0.00000000000E+00 0. -1.
          1    1    1    2  501    0 -0.39150542389E+02  0.26504007324E+01 -0.69640572972E+02  0.79934967300E+02  0.00000000000E+00 0. -1.
<scales pt_clust_5="13000.00000" pt_clust_6="13000.00000" pt_clust_7="13000.00000" pt_clust_8="13000.00000" pt_clust_9="39.24015"></scales>
<clustering>
<clus scale="   39.240">  2  9  1 -1</clus>
<clus scale="   99.442">  5  6 -1 -1</clus>
<clus scale="  119.564">  7  8 -1 -1</clus>
<clus scale="  136.785">  1  5  2 -1</clus>
<clus scale="   39.240">  2  5  1 -1</clus>
</clustering>
</event>
<event>
 9    1  0.1399746E-005  0.1259816E+03  0.7546771E-02  0.1235063E+00
          1   -1    0    0  502    0 -0.00000000000E+00  0.00000000000E+00  0.56000751998E+03  0.56000751998E+03  0.00000000000E+00 0. -1.
         21   -1    0    0  501  502  0.00000000000E+00 -0.00000000000E+00 -0.17772844750E+03  0.17772844750E+03  0.00000000000E+00 0. -1.
         23    2    1    2    0    0 -0.15088869053E+02 -0.86030157772E+02  0.49987125475E+03  0.51636804292E+03  0.95581496157E+02 0.  0.
         23    2    1    2    0    0  0.25971143183E+02  0.30977495401E+01 -0.97127040607E+02  0.13525735465E+03  0.90425624908E+02 0.  0.
        -11    1    3    3    0    0  0.34446444145E+02 -0.36566174839E+02  0.11984267322E+03  0.12994579247E+03  0.00000000000E+00 0. -1.
         11    1    3    3    0    0 -0.49535313198E+02 -0.49463982933E+02  0.38002858154E+03  0.38642225045E+03  0.00000000000E+00 0.  1.
        -13    1    4    4    0    0 -0.10240837968E+02  0.20225618321E+02 -0.92142102048E+02  0.94890027761E+02  0.00000000000E+00 0. -1.
         13    1    4    4    0    0  0.36211981151E+02 -0.17127868781E+02 -0.49849385592E+01  0.40367326891E+02  0.00000000000E+00 0.  1.
          1    1    1    2  501    0 -0.10882274131E+02  0.82932408232E+02 -0.20465141668E+02  0.86110569902E+02  0.00000000000E+00 0. -1.
<scales pt_clust_5="13000.00000" pt_clust_6="13000.00000" pt_clust_7="13000.00000" pt_clust_8="13000.00000" pt_clust_9="83.64334"></scales>
<clustering>
<clus scale="   83.643">  2  9  1 -1</clus>
<clus scale="   90.426">  7  8 -1 -1</clus>
<clus scale="   95.581">  5  6 -1 -1</clus>
<clus scale="  122.116">  2  7  1 -1</clus>
<clus scale="   83.643">  2  5  1 -1</clus>
</clustering>
</event>
<event>
 9    1  0.1399746E-005  0.2540945E+03  0.7546771E-02  0.1111580E+00
         21   -1    0    0  501  502  0.00000000000E+00  0.00000000000E+00  0.27027093680E+03  0.27027093680E+03  0.00000000000E+00 0.  1.
          1   -1    0    0  502    0 -0.00000000000E+00 -0.00000000000E+00 -0.57050826725E+03  0.57050826725E+03  0.00000000000E+00 0. -1.
         23    2    1    2    0    0  0.22109241948E+03 -0.57540219820E+02 -0.29853542446E+03  0.38670350093E+03  0.90683312296E+02 0.  0.
         23    2    1    2    0    0 -0.24065569314E+03  0.78631720906E+02 -0.14964345850E+03  0.30336314208E+03  0.74417209874E+02 0.  0.
        -13    1    3    3    0    0  0.19362300525E+03 -0.42791191259E+02 -0.29482275237E+03  0.35530467141E+03  0.00000000000E+00 0.  1.
         13    1    3    3    0    0  0.27469414226E+02 -0.14749028562E+02 -0.37126720942E+01  0.31398829525E+02  0.00000000000E+00 0. -1.
        -13    1    4    4    0    0 -0.78199989916E+02 -0.59922877470E+01 -0.27109076413E+02  0.82982214716E+02  0.00000000000E+00 0. -1.
         13    1    4    4    0    0 -0.16245570322E+03  0.84624008653E+02 -0.12253438209E+03  0.22038092736E+03  0.00000000000E+00 0.  1.
          1    1    1    2  501    0  0.19563273662E+02 -0.21091501086E+02  0.14794155252E+03  0.15071256104E+03  0.00000000000E+00 0. -1.
<scales pt_clust_5="13000.00000" pt_clust_6="13000.00000" pt_clust_7="13000.00000" pt_clust_8="13000.00000" pt_clust_9="28.76757"></scales>
<clustering>
<clus scale="   28.768">  1  9  2 -1</clus>
<clus scale="   74.417">  7  8 -1 -1</clus>
<clus scale="   90.683">  5  6 -1 -1</clus>
<clus scale="  248.754">  1  7  2 -1</clus>
<clus scale="   28.768">  1  5  2 -1</clus>
</clustering>
</event>
<event>
 9    1  0.1399746E-005  0.9636927E+02  0.7546771E-02  0.1289550E+00
         -1   -1    0    0    0  501 -0.00000000000E+00  0.00000000000E+00  0.42232829112E+03  0.42232829112E+03  0.00000000000E+00 0.  1.
         21   -1    0    0  501  502  0.00000000000E+00 -0.00000000000E+00 -0.28152219447E+02  0.28152219447E+02  0.00000000000E+00 0. -1.
         23    2    1    2    0    0  0.27004937129E+02  0.98438330210E+01  0.20740963191E+03  0.22859240242E+03  0.91703671449E+02 0.  0.
         23    2    1    2    0    0 -0.28059764224E+01 -0.12815466992E+02  0.15373066445E+03  0.18082982326E+03  0.94309056238E+02 0.  0.
        -11    1    4    4    0    0  0.98171183423E+01  0.39022251137E+02  0.82940938492E+02  0.92186285175E+02  0.00000000000E+00 0.  1.
         11    1    4    4    0    0 -0.12623094765E+02 -0.51837718130E+02  0.70789725961E+02  0.88643538084E+02  0.00000000000E+00 0. -1.
        -11    1    3    3    0    0 -0.23287278612E+02  0.10146231485E+02  0.15056647999E+03  0.15269416575E+03  0.00000000000E+00 0.  1.
         11    1    3    3    0    0  0.50292215741E+02 -0.30239846392E+00  0.56843151922E+02  0.75898236669E+02  0.00000000000E+00 0. -1.
         -1    1    1    2    0  502 -0.24198960706E+02  0.29716339715E+01  0.33035775307E+02  0.41058284887E+02  0.00000000000E+00 0.  1.
<scales pt_clust_5="13000.00000" pt_clust_6="13000.00000" pt_clust_7="13000.00000" pt_clust_8="13000.00000" pt_clust_9="24.38074"></scales>
<clustering>
<clus scale="   24.381">  2  9  1 -1</clus>
<clus scale="   91.704">  7  8 -1 -1</clus>
<clus scale="   93.821">  1  7  2 -1</clus>
<clus scale="   94.309">  5  6 -1 -1</clus>
<clus scale="   24.381">  2  5  1 -1</clus>
</clustering>
</event>
<event>
 9    1  0.1399746E-005  0.1762418E+03  0.7546771E-02  0.1171637E+00
         21   -1    0    0  501  502  0.00000000000E+00  0.00000000000E+00  0.12761898448E+03  0.12761898448E+03  0.00000000000E+00 0. -1.
         -3   -1    0    0    0  501 -0.00000000000E+00 -0.00000000000E+00 -0.47708040752E+03  0.47708040752E+03  0.00000000000E+00 0.  1.
         23    2    1    2    0    0 -0.16815465434E+03  0.36660790268E+02 -0.27504883258E+03  0.33695269806E+03  0.90913470468E+02 0.  0.
         23    2    1    2    0    0  0.12234934012E+03 -0.29479016977E+02 -0.12523732968E+03  0.19895091795E+03  0.89770293191E+02 0.  0.
        -11    1    3    3    0    0 -0.13425232470E+03  0.62728588910E+02 -0.23804778599E+03  0.28040205236E+03  0.00000000000E+00 0. -1.
         11    1    3    3    0    0 -0.33902329637E+02 -0.26067798642E+02 -0.37001046589E+02  0.56550645704E+02  0.00000000000E+00 0.  1.
        -11    1    4    4    0    0  0.95380874984E+02 -0.75645915335E+01 -0.13251521276E+03  0.16344728805E+03  0.00000000000E+00 0.  1.
         11    1    4    4    0    0  0.26968465138E+02 -0.21914425443E+02  0.72778830800E+01  0.35503629906E+02  0.00000000000E+00 0. -1.
         -3    1    1    2    0  502  0.45805314214E+02 -0.71817732914E+01  0.50824739212E+02  0.68795775988E+02  0.00000000000E+00 0.  1.
<scales pt_clust_5="13000.00000" pt_clust_6="13000.00000" pt_clust_7="13000.00000" pt_clust_8="13000.00000" pt_clust_9="46.36491"></scales>
<clustering>
<clus scale="   46.365">  1  9  2 -1</clus>
<clus scale="   89.770">  7  8 -1 -1</clus>
<clus scale="   90.913">  5  6 -1 -1</clus>
<clus scale="  175.655">  1  7  2 -1</clus>
<clus scale="   46.365">  1  5  2 -1</clus>
</clustering>
</event>
<event>
 9    1  0.1399746E-005  0.1243928E+03  0.7546771E-02  0.1236663E+00
         21   -1    0    0  501  502  0.00000000000E+00  0.00000000000E+00  0.71180414839E+02  0.71180414839E+02  0.00000000000E+00 0.  1.
          1   -1    0    0  502    0 -0.00000000000E+00 -0.00000000000E+00 -0.32444777423E+03  0.32444777423E+03  0.00000000000E+00 0. -1.
         23    2    1    2    0    0 -0.96652614131E+02  0.84955049671E+01 -0.18607748362E+03  0.22774888820E+03  0.88491947326E+02 0.  0.
         23    2    1    2    0    0  0.74074292486E+02  0.76584836083E+01 -0.78031175770E+02  0.13807551351E+03  0.86199361132E+02 0.  0.
        -11    1    3    3    0    0 -0.83910181590E+02 -0.15379575106E+02 -0.75538254441E+02  0.11394506478E+03  0.00000000000E+00 0.  1.
         11    1    3    3    0    0 -0.12742432542E+02  0.23875080073E+02 -0.11053922918E+03  0.11380382342E+03  0.00000000000E+00 0. -1.
        -13    1    4    4    0    0  0.42972082955E+02  0.41370033390E+02 -0.17567029628E+02  0.62182635085E+02  0.00000000000E+00 0. -1.
         13    1    4    4    0    0  0.31102209532E+02 -0.33711549782E+02 -0.60464146142E+02  0.75892878422E+02  0.00000000000E+00 0.  1.
          1    1    1    2  501    0  0.22578321645E+02 -0.16153988575E+02  0.10841300005E+02  0.29803787360E+02  0.00000000000E+00 0. -1.
<scales pt_clust_5="13000.00000" pt_clust_6="13000.00000" pt_clust_7="13000.00000" pt_clust_8="13000.00000" pt_clust_9="27.76206"></scales>
<clustering>
<clus scale="   27.762">  1  9  2 -1</clus>
<clus scale="   86.199">  7  8 -1 -1</clus>
<clus scale="   88.492">  5  6 -1 -1</clus>
<clus scale="  122.772">  1  7  2 -1</clus>
<clus scale="   27.762">  1  5  2 -1</clus>
</clustering>
</event>
<event>
 9    1  0.1399746E-005  0.9826899E+02  0.7546771E-02  0.1286422E+00
         21   -1    0    0  501  502  0.00000000000E+00  0.00000000000E+00  0.17170646390E+03  0.17170646390E+03  0.00000000000E+00 0. -1.
          2   -1    0    0  502    0 -0.00000000000E+00 -0.00000000000E+00 -0.10736650117E+03  0.10736650117E+03  0.00000000000E+00 0.  1.
         23    2    1    2    0    0  0.46122672734E+01  0.10700450157E+02 -0.35776586493E+02  0.10312828543E+03  0.96019302595E+02 0.  0.
         23    2    1    2    0    0 -0.39006406832E+01 -0.50484170978E+02  0.77746061737E+02  0.13029723104E+03  0.91482521735E+02 0.  0.
        -11    1    3    3    0    0  0.48811365919E+02 -0.52376862119E+01 -0.24229012497E+02  0.54745117100E+02  0.00000000000E+00 0.  1.
         11    1    3    3    0    0 -0.44199098646E+02  0.15938136369E+02 -0.11547573996E+02  0.48383168325E+02  0.00000000000E+00 0. -1.
        -13    1    4    4    0    0 -0.43449707377E+02 -0.27145778332E+02  0.64759301000E+02  0.82574435623E+02  0.00000000000E+00 0.  1.
         13    1    4    4    0    0  0.39549066694E+02 -0.23338392646E+02  0.12986760736E+02  0.47722795413E+02  0.00000000000E+00 0. -1.
          2    1    1    2  501    0 -0.71162659017E+00  0.39783720821E+02  0.22370487483E+02  0.45647448614E+02  0.00000000000E+00 0.  1.
<scales pt_clust_5="13000.00000" pt_clust_6="13000.00000" pt_clust_7="13000.00000" pt_clust_8="13000.00000" pt_clust_9="39.79008"></scales>
<clustering>
<clus scale="   39.790">  1  9  2 -1</clus>
<clus scale="   91.483">  7  8 -1 -1</clus>
<clus scale="   93.841">  1  7  2 -1</clus>
<clus scale="   96.019">  5  6 -1 -1</clus>
<clus scale="   39.790">  1  5  2 -1</clus>
</clustering>
</event>
<event>
 9    1  0.1399746E-005  0.1810844E+03  0.7546771E-02  0.1167127E+00
          1   -1    0    0  502    0 -0.00000000000E+00  0.00000000000E+00  0.89389558856E+03  0.89389558856E+03  0.00000000000E+00 0. -1.
         21   -1    0    0  501  502  0.00000000000E+00 -0.00000000000E+00 -0.80849076860E+02  0.80849076860E+02  0.00000000000E+00 0. -1.
         23    2    1    2    0    0  0.12077378188E+03  0.93590460960E+02  0.66535435681E+03  0.68877002138E+03  0.91445292196E+02 0.  0.
         23    2    1    2    0    0 -0.16212807652E+03 -0.71585630636E+02  0.11985767181E+03  0.23148474872E+03  0.88370309992E+02 0.  0.
        -13    1    3    3    0    0  0.10125290205E+03  0.85129666829E+02  0.64785414607E+03  0.66122175170E+03  0.00000000000E+00 0. -1.
         13    1    3    3    0    0  0.19520879827E+02  0.84607941316E+01  0.17500210739E+02  0.27548269682E+02  0.00000000000E+00 0.  1.
        -13    1    4    4    0    0 -0.55812567051E+02  0.10704780685E+02  0.64842310159E+02  0.86221575937E+02  0.00000000000E+00 0. -1.
         13    1    4    4    0    0 -0.10631550947E+03 -0.82290411321E+02  0.55015361653E+02  0.14526317279E+03  0.00000000000E+00 0.  1.
          1    1    1    2  501    0  0.41354294643E+02 -0.22004830324E+02  0.27834483086E+02  0.54489895317E+02  0.00000000000E+00 0. -1.
<scales pt_clust_5="13000.00000" pt_clust_6="13000.00000" pt_clust_7="13000.00000" pt_clust_8="13000.00000" pt_clust_9="46.84432"></scales>
<clustering>
<clus scale="   46.844">  2  9  1 -1</clus>
<clus scale="   88.370">  7  8 -1 -1</clus>
<clus scale="   91.445">  5  6 -1 -1</clus>
<clus scale="  179.551">  2  7  1 -1</clus>
<clus scale="   46.844">  2  5  1 -1</clus>
</clustering>
</event>
<event>
 9    1  0.1399746E-005  0.1109391E+03  0.7546771E-02  0.1259648E+00
         21   -1    0    0  501  502  0.00000000000E+00  0.00000000000E+00  0.10297485909E+03  0.10297485909E+03  0.00000000000E+00 0.  1.
         -3   -1    0    0    0  501 -0.00000000000E+00 -0.00000000000E+00 -0.49344754697E+03  0.49344754697E+03  0.00000000000E+00 0.  1.
         23    2    1    2    0    0  0.37422247380E+02 -0.54702490167E+02 -0.42267035359E+03  0.43791096594E+03  0.93396998128E+02 0.  0.
         23    2    1    2    0    0 -0.72320003550E+01  0.25632899211E+02 -0.13993355935E+02  0.96140752986E+02  0.91312009195E+02 0.  0.
        -11    1    4    4    0    0 -0.11480269686E+02  0.59159678117E+02 -0.15791921595E+02  0.62298064935E+02  0.00000000000E+00 0.  1.
         11    1    4    4    0    0  0.42482693309E+01 -0.33526778906E+02  0.17985656593E+01  0.33842688051E+02  0.00000000000E+00 0. -1.
        -13    1    3    3    0    0  0.26829884949E+02  0.22433118622E+02 -0.98594004506E+02  0.10461293066E+03  0.00000000000E+00 0. -1.
         13    1    3    3    0    0  0.10592362431E+02 -0.77135608789E+02 -0.32407634908E+03  0.33329803528E+03  0.00000000000E+00 0.  1.
         -3    1    1    2    0  502 -0.30190247025E+02  0.29069590956E+02  0.46191021645E+02  0.62370687141E+02  0.00000000000E+00 0.  1.
<scales pt_clust_5="13000.00000" pt_clust_6="13000.00000" pt_clust_7="13000.00000" pt_clust_8="13000.00000" pt_clust_9="41.91053"></scales>
<clustering>
<clus scale="   41.911">  1  9  2 -1</clus>
<clus scale="   91.312">  5  6 -1 -1</clus>
<clus scale="   93.397">  7  8 -1 -1</clus>
<clus scale="  109.190">  1  5  2 -1</clus>
<clus scale="   41.911">  1  5  2 -1</clus>
</clustering>
</event>
<event>
 9    1  0.1399746E-005  0.1712029E+03  0.7546771E-02  0.1176647E+00
          2   -1    0    0  502    0 -0.00000000000E+00  0.00000000000E+00  0.21289211632E+03  0.21289211632E+03  0.00000000000E+00 0. -1.
         21   -1    0    0  501  502  0.00000000000E+00 -0.00000000000E+00 -0.25013835437E+03  0.25013835437E+03  0.00000000000E+00 0. -1.
         23    2    1    2    0    0 -0.10078544105E+03  0.73385007150E+02  0.33357838807E+02  0.15764712239E+03  0.90536210362E+02 0.  0.
         23    2    1    2    0    0  0.11736760708E+03 -0.15460913664E+03 -0.46227354748E+02  0.21897413570E+03  0.90186270878E+02 0.  0.
        -11    1    3    3    0    0 -0.71807498942E+02  0.37114262608E+02  0.63071741947E+02  0.10252721602E+03  0.00000000000E+00 0. -1.
         11    1    3    3    0    0 -0.28977942111E+02  0.36270744542E+02 -0.29713903140E+02  0.55119906371E+02  0.00000000000E+00 0.  1.
        -13    1    4    4    0    0  0.30925748363E+02 -0.76947064758E+02  0.19883487432E+02  0.85279574102E+02  0.00000000000E+00 0.  1.
         13    1    4    4    0    0  0.86441858714E+02 -0.77662071881E+02 -0.66110842180E+02  0.13369456160E+03  0.00000000000E+00 0. -1.
          2    1    1    2  501    0 -0.16582166025E+02  0.81224129488E+02 -0.24376722114E+02  0.86409212600E+02  0.00000000000E+00 0. -1.
<scales pt_clust_5="13000.00000" pt_clust_6="13000.00000" pt_clust_7="13000.00000" pt_clust_8="13000.00000" pt_clust_9="82.89950"></scales>
<clustering>
<clus scale="   82.900">  2  9  1 -1</clus>
<clus scale="   90.186">  7  8 -1 -1</clus>
<clus scale="   90.536">  5  6 -1 -1</clus>
<clus scale="  171.018">  2  7  1 -1</clus>
<clus scale="   82.900">  2  5  1 -1</clus>
</clustering>
</event>
<event>
 9    1  0.1399746E-005  0.1091092E+03  0.7546771E-02  0.1262621E+00
         21   -1    0    0  501  502  0.00000000000E+00  0.00000000000E+00  0.15868973673E+03  0.15868973673E+03  0.00000000000E+00 0.  1.
         -3   -1    0    0    0  501 -0.00000000000E+00 -0.00000000000E+00 -0.20856628651E+03  0.20856628651E+03  0.00000000000E+00 0.  1.
         23    2    1    2    0    0 -0.72820248246E+02 -0.10436116791E+02 -0.10717551782E+03  0.15952876212E+03  0.92472337672E+02 0.  0.
         23    2    1    2    0    0  0.35383215355E+02 -0.28135159872E+02 -0.28975196491E+02  0.10607832468E+03  0.91484915726E+02 0.  0.
        -11    1    3    3    0    0 -0.60648737045E+02 -0.42087116345E+02 -0.39245628682E+02  0.83605107726E+02  0.00000000000E+00 0. -1.
         11    1    3    3    0    0 -0.12171511201E+02  0.31650999554E+02 -0.67929889141E+02  0.75923654393E+02  0.00000000000E+00 0.  1.
        -13    1    4    4    0    0 -0.21147729788E+02  0.16732950718E+02 -0.19516854112E+02  0.33288522186E+02  0.00000000000E+00 0.  1.
         13    1    4    4    0    0  0.56530945142E+02 -0.44868110590E+02 -0.94583423790E+01  0.72789802495E+02  0.00000000000E+00 0. -1.
         -3    1    1    2    0  502  0.37437032891E+02  0.38571276663E+02  0.86274164532E+02  0.10164893645E+03  0.00000000000E+00 0.  1.
<scales pt_clust_5="13000.00000" pt_clust_6="13000.00000" pt_clust_7="13000.00000" pt_clust_8="13000.00000" pt_clust_9="53.75197"></scales>
<clustering>
<clus scale="   53.752">  1  9  2 -1</clus>
<clus scale="   91.485">  7  8 -1 -1</clus>
<clus scale="   92.472">  5  6 -1 -1</clus>
<clus scale="  108.274">  1  7  2 -1</clus>
<clus scale="   53.752">  1  5  2 -1</clus>
</clustering>
</event>
<event>
 9    1  0.1399746E-005  0.1297050E+03  0.7546771E-02  0.1231080E+00
         21   -1    0    0  501  502  0.00000000000E+00  0.00000000000E+00  0.30450640209E+03  0.30450640209E+03  0.00000000000E+00 0. -1.
          2   -1    0    0  502    0 -0.00000000000E+00 -0.00000000000E+00 -0.34516746011E+03  0.34516746011E+03  0.00000000000E+00 0. -1.
         23    2    1    2    0    0 -0.60529836027E+02  0.29092230868E+02 -0.26123580617E+03  0.28673583840E+03  0.97278341118E+02 0.  0.
         23    2    1    2    0    0  0.89548741055E+02 -0.70973365787E+02  0.22522404903E+02  0.15843653976E+03  0.10741826070E+03 0.  0.
        -13    1    4    4    0    0  0.25121182521E+02 -0.72003866999E+02 -0.22872015972E+02  0.79616328656E+02  0.00000000000E+00 0. -1.
         13    1    4    4    0    0  0.64427558534E+02  0.10305012117E+01  0.45394420875E+02  0.78820211101E+02  0.00000000000E+00 0.  1.
        -13    1    3    3    0    0 -0.71515088784E+02  0.52497987621E+02 -0.22782849644E+03  0.24449186166E+03  0.00000000000E+00 0. -1.
         13    1    3    3    0    0  0.10985252757E+02 -0.23405756753E+02 -0.33407309729E+02  0.42243976738E+02  0.00000000000E+00 0.  1.
          2    1    1    2  501    0 -0.29018905028E+02  0.41881134919E+02  0.19805234324E+03  0.20450148404E+03  0.00000000000E+00 0. -1.
<scales pt_clust_5="13000.00000" pt_clust_6="13000.00000" pt_clust_7="13000.00000" pt_clust_8="13000.00000" pt_clust_9="50.95220"></scales>
<clustering>
<clus scale="   50.952">  1  9  2 -1</clus>
<clus scale="   97.278">  7  8 -1 -1</clus>
<clus scale="  107.418">  5  6 -1 -1</clus>
<clus scale="  121.440">  2  7  1 -1</clus>
<clus scale="   50.952">  1  5  2 -1</clus>
</clustering>
</event>
<event>
 9    1  0.1399746E-005  0.9295693E+02  0.7546771E-02  0.1295914E+00
         21   -1    0    0  501  502  0.00000000000E+00  0.00000000000E+00  0.12886238847E+03  0.12886238847E+03  0.00000000000E+00 0.  1.
         -3   -1    0    0    0  501 -0.00000000000E+00 -0.00000000000E+00 -0.12940963259E+03  0.12940963259E+03  0.00000000000E+00 0.  1.
         23    2    1    2    0    0 -0.13015772091E+02 -0.22880649434E+02 -0.46999995556E+02  0.10548316859E+03  0.90690489207E+02 0.  0.
         23    2    1    2    0    0  0.16654348970E+02  0.19155550743E+00 -0.89996295334E+01  0.92763851172E+02  0.90811534066E+02 0.  0.
        -13    1    4    4    0    0  0.40766458871E+02  0.72796229596E+00 -0.37522540602E+02  0.55410965983E+02  0.00000000000E+00 0.  1.
         13    1    4    4    0    0 -0.24112109900E+02 -0.53640678853E+00  0.28522911069E+02  0.37352885189E+02  0.00000000000E+00 0. -1.
        -13    1    3    3    0    0 -0.23450933418E+02  0.30966495412E+02 -0.13052068342E+02  0.40978367516E+02  0.00000000000E+00 0. -1.
         13    1    3    3    0    0  0.10435161327E+02 -0.53847144846E+02 -0.33947927214E+02  0.64504801078E+02  0.00000000000E+00 0.  1.
         -3    1    1    2    0  502 -0.36385768787E+01  0.22689093927E+02  0.55452380967E+02  0.60025001290E+02  0.00000000000E+00 0.  1.
<scales pt_clust_5="13000.00000" pt_clust_6="13000.00000" pt_clust_7="13000.00000" pt_clust_8="13000.00000" pt_clust_9="22.97900"></scales>
<clustering>
<clus scale="   22.979">  1  9  2 -1</clus>
<clus scale="   90.690">  7  8 -1 -1</clus>
<clus scale="   90.812">  5  6 -1 -1</clus>
<clus scale="   92.839">  2  7  1 -1</clus>
<clus scale="   22.979">  1  5  2 -1</clus>
</clustering>
</event>
<event>
 9    1  0.1399746E-005  0.1693516E+03  0.7546771E-02  0.1178555E+00
         -1   -1    0    0    0  501 -0.00000000000E+00  0.00000000000E+00  0.32362887710E+03  0.32362887710E+03  0.00000000000E+00 0.  1.
         21   -1    0    0  501  502  0.00000000000E+00 -0.00000000000E+00 -0.33301899636E+03  0.33301899636E+03  0.00000000000E+00 0.  1.
         23    2    1    2    0    0 -0.99096084792E+02  0.77645199862E+02  0.13799605911E+03  0.20776339261E+03  0.90961002058E+02 0.  0.
         23    2    1    2    0    0  0.15875179587E+03 -0.80135216518E+02  0.79034199838E+02  0.21472386991E+03  0.90753236569E+02 0.  0.
        -11    1    4    4    0    0  0.48500122480E+02 -0.22029118429E+02  0.72447868703E+02  0.89923509823E+02  0.00000000000E+00 0.  1.
         11    1    4    4    0    0  0.11025167339E+03 -0.58106098089E+02  0.65863311347E+01  0.12480036009E+03  0.00000000000E+00 0. -1.
        -13    1    3    3    0    0 -0.31892541188E+02  0.73132334748E+02  0.10738267395E+03  0.13377784283E+03  0.00000000000E+00 0. -1.
         13    1    3    3    0    0 -0.67203543604E+02  0.45128651138E+01  0.30613385167E+02  0.73985549777E+02  0.00000000000E+00 0.  1.
         -1    1    1    2    0  502 -0.59655711080E+02  0.24900166557E+01 -0.22642037821E+03  0.23416061094E+03  0.00000000000E+00 0.  1.
<scales pt_clust_5="13000.00000" pt_clust_6="13000.00000" pt_clust_7="13000.00000" pt_clust_8="13000.00000" pt_clust_9="59.70765"></scales>
<clustering>
<clus scale="   59.708">  2  9  1 -1</clus>
<clus scale="   90.753">  5  6 -1 -1</clus>
<clus scale="   90.961">  7  8 -1 -1</clus>
<clus scale="  169.240">  2  5  1 -1</clus>
<clus scale="   59.708">  2  5  1 -1</clus>
</clustering>
</event>
<event>
 9    1  0.1399746E-005  0.1007208E+03  0.7546771E-02  0.1279593E+00
          1   -1    0    0  502    0 -0.00000000000E+00  0.00000000000E+00  0.52362050590E+02  0.52362050590E+02  0.00000000000E+00 0. -1.
         21   -1    0    0  501  502  0.00000000000E+00 -0.00000000000E+00 -0.45097633152E+03  0.45097633152E+03  0.00000000000E+00 0.  1.
         23    2    1    2    0    0  0.50537419692E+02  0.10300213857E+00 -0.27845624064E+02  0.10688652498E+03  0.89973935365E+02 0.  0.
         23    2    1    2    0    0 -0.12151159852E+02  0.18047966474E+02 -0.20988121587E+03  0.23005554925E+03  0.91662703342E+02 0.  0.
        -13    1    3    3    0    0  0.74827801134E+02 -0.89562625404E+01 -0.29450912597E+02  0.80912117226E+02  0.00000000000E+00 0. -1.
         13    1    3    3    0    0 -0.24290381442E+02  0.90592646790E+01  0.16052885328E+01  0.25974407758E+02  0.00000000000E+00 0.  1.
        -13    1    4    4    0    0  0.25921937116E+02  0.32880244328E+02 -0.16095308962E+03  0.16630981435E+03  0.00000000000E+00 0.  1.
         13    1    4    4    0    0 -0.38073096968E+02 -0.14832277854E+02 -0.48928126252E+02  0.63745734897E+02  0.00000000000E+00 0. -1.
          1    1    1    2  501    0 -0.38386259840E+02 -0.18150968613E+02 -0.16088744099E+03  0.16639630788E+03  0.00000000000E+00 0. -1.
<scales pt_clust_5="13000.00000" pt_clust_6="13000.00000" pt_clust_7="13000.00000" pt_clust_8="13000.00000" pt_clust_9="42.46131"></scales>
<clustering>
<clus scale="   42.461">  2  9  1 -1</clus>
<clus scale="   89.974">  5  6 -1 -1</clus>
<clus scale="   91.663">  7  8 -1 -1</clus>
<clus scale="   99.186">  1  5  2 -1</clus>
<clus scale="   42.461">  2  5  1 -1</clus>
</clustering>
</event>
<event>
 9    1  0.1399746E-005  0.1115986E+03  0.7546771E-02  0.1262858E+00
         21   -1    0    0  501  502  0.00000000000E+00  0.00000000000E+00  0.33059876998E+03  0.33059876998E+03  0.00000000000E+00 0. -1.
         -1   -1    0    0    0  501 -0.00000000000E+00 -0.00000000000E+00 -0.62285490455E+02  0.62285490455E+02  0.00000000000E+00 0.  1.
         23    2    1    2    0    0 -0.24527738261E+02  0.32557925677E+02  0.10231845556E+03  0.15009130450E+03  0.10196423330E+03 0.  0.
         23    2    1    2    0    0  0.62037921148E+02 -0.54916460363E+01  0.16317908359E+03  0.19645155212E+03  0.89927399445E+02 0.  0.
        -11    1    3    3    0    0 -0.14616621239E+02  0.56608875134E+02  0.10859368282E+03  0.12333206521E+03  0.00000000000E+00 0. -1.
         11    1    3    3    0    0 -0.99111170225E+01 -0.24050949456E+02 -0.62752272638E+01  0.26759239294E+02  0.00000000000E+00 0.  1.
        -13    1    4    4    0    0 -0.11744693521E+02  0.18345002252E+02  0.79245599365E+02  0.82184803658E+02  0.00000000000E+00 0.  1.
         13    1    4    4    0    0  0.73782614669E+02 -0.23836648289E+02  0.83933484228E+02  0.11426674846E+03  0.00000000000E+00 0. -1.
         -1    1    1    2    0  502 -0.37510182887E+02 -0.27066279641E+02  0.28157403781E+01  0.46341403817E+02  0.00000000000E+00 0.  1.
<scales pt_clust_5="13000.00000" pt_clust_6="13000.00000" pt_clust_7="13000.00000" pt_clust_8="13000.00000" pt_clust_9="46.25580"></scales>
<clustering>
<clus scale="   46.256">  1  9  2 -1</clus>
<clus scale="   89.927">  7  8 -1 -1</clus>
<clus scale="  100.720">  1  7  2 -1</clus>
<clus scale="  101.964">  5  6 -1 -1</clus>
<clus scale="   46.256">  1  5  2 -1</clus>
</clustering>
</event>
<event>
 9    1  0.1399746E-005  0.1182960E+03  0.7546771E-02  0.1246096E+00
         21   -1    0    0  501  502  0.00000000000E+00  0.00000000000E+00  0.38004770067E+03  0.38004770067E+03  0.00000000000E+00 0. -1.
          1   -1    0    0  502    0 -0.00000000000E+00 -0.00000000000E+00 -0.51607828310E+02  0.51607828310E+02  0.00000000000E+00 0. -1.
         23    2    1    2    0    0  0.43990415144E+02 -0.53642241837E+02  0.83327416095E+02  0.14169028733E+03  0.91214212254E+02 0.  0.
         23    2    1    2    0    0 -0.71525755922E+02  0.52875457371E+02  0.20829465317E+03  0.24398335853E+03  0.90716420499E+02 0.  0.
        -13    1    4    4    0    0 -0.40608601856E+02  0.69409232612E+02  0.18545652748E+03  0.20214060379E+03  0.00000000000E+00 0.  1.
         13    1    4    4    0    0 -0.30917154067E+02 -0.16533775241E+02  0.22838125697E+02  0.41842754745E+02  0.00000000000E+00 0. -1.
        -13    1    3    3    0    0 -0.26171382558E+02 -0.18996132939E+02  0.42575767589E+02  0.53464851233E+02  0.00000000000E+00 0.  1.
         13    1    3    3    0    0  0.70161797703E+02 -0.34646108898E+02  0.40751648506E+02  0.88225436098E+02  0.00000000000E+00 0. -1.
          1    1    1    2  501    0  0.27535340778E+02  0.76678446546E+00  0.36817803088E+02  0.45981883110E+02  0.00000000000E+00 0. -1.
<scales pt_clust_5="13000.00000" pt_clust_6="13000.00000" pt_clust_7="13000.00000" pt_clust_8="13000.00000" pt_clust_9="27.54602"></scales>
<clustering>
<clus scale="   27.546">  1  9  2 -1</clus>
<clus scale="   90.716">  5  6 -1 -1</clus>
<clus scale="   91.214">  7  8 -1 -1</clus>
<clus scale="  117.913">  1  5  2 -1</clus>
<clus scale="   27.546">  1  5  2 -1</clus>
</clustering>
</event>
<event>
 9    1  0.1399746E-005  0.1138190E+03  0.7546771E-02  0.1254482E+00
         21   -1    0    0  501  502  0.00000000000E+00  0.00000000000E+00  0.45796483924E+02  0.45796483924E+02  0.00000000000E+00 0. -1.
         -3   -1    0    0    0  501 -0.00000000000E+00 -0.00000000000E+00 -0.52643252961E+03  0.52643252961E+03  0.00000000000E+00 0.  1.
         23    2    1    2    0    0  0.48642700304E+02 -0.51364527547E+02 -0.41567165738E+03  0.43165683338E+03  0.92413570838E+02 0.  0.
         23    2    1    2    0    0 -0.35659871912E+02  0.35845873738E+02 -0.60849880371E+02  0.11992486496E+03  0.90126090372E+02 0.  0.
        -11    1    3    3    0    0 -0.71449437762E+01  0.19699812510E+02 -0.38692524511E+02  0.44002775907E+02  0.00000000000E+00 0. -1.
         11    1    3    3    0    0  0.55787644080E+02 -0.71064340057E+02 -0.37697913287E+03  0.38765405747E+03  0.00000000000E+00 0.  1.
        -13    1    4    4    0    0  0.25272038983E+01  0.46724968060E+02 -0.64902414324E+02  0.80012078993E+02  0.00000000000E+00 0.  1.
         13    1    4    4    0    0 -0.38187075810E+02 -0.10879094322E+02  0.40525339537E+01  0.39912785967E+02  0.00000000000E+00 0. -1.
         -3    1    1    2    0  502 -0.12982828392E+02  0.15518653810E+02 -0.41145079398E+01  0.20647315194E+02  0.00000000000E+00 0.  1.
<scales pt_clust_5="13000.00000" pt_clust_6="13000.00000" pt_clust_7="13000.00000" pt_clust_8="13000.00000" pt_clust_9="20.23320"></scales>
<clustering>
<clus scale="   20.233">  1  9  2 -1</clus>
<clus scale="   90.126">  7  8 -1 -1</clus>
<clus scale="   92.414">  5  6 -1 -1</clus>
<clus scale="  111.970">  1  7  2 -1</clus>
<clus scale="   20.233">  1  5  2 -1</clus>
</clustering>
</event>
<event>
 9    1  0.1399746E-005  0.1062492E+03  0.7546771E-02  0.1269452E+00
         21   -1    0    0  501  502  0.00000000000E+00  0.00000000000E+00  0.88640657708E+02  0.88640657708E+02  0.00000000000E+00 0.  1.
         -1   -1    0    0    0  501 -0.00000000000E+00 -0.00000000000E+00 -0.45819344717E+03  0.45819344717E+03  0.00000000000E+00 0.  1.
         23    2    1    2    0    0 -0.46658224256E+02 -0.18556812611E+02 -0.27047166014E+03  0.29132884583E+03  0.95896987917E+02 0.  0.
         23    2    1    2    0    0  0.43831893276E+02 -0.16093073099E+02 -0.15708133883E+03  0.18788405654E+03  0.91900216655E+02 0.  0.
        -11    1    3    3    0    0  0.10374651408E+02  0.29266263961E+02 -0.52444012409E+02  0.60946878802E+02  0.00000000000E+00 0. -1.
         11    1    3    3    0    0 -0.57032875664E+02 -0.47823076571E+02 -0.21802764773E+03  0.23038196703E+03  0.00000000000E+00 0.  1.
        -13    1    4    4    0    0 -0.28066233555E+02 -0.82066408925E+01 -0.60751003830E+02  0.67422154275E+02  0.00000000000E+00 0.  1.
         13    1    4    4    0    0  0.71898126831E+02 -0.78864322067E+01 -0.96330335001E+02  0.12046190226E+03  0.00000000000E+00 0. -1.
         -1    1    1    2    0  502  0.28263309806E+01  0.34649885710E+02  0.58000209506E+02  0.67621202512E+02  0.00000000000E+00 0.  1.
<scales pt_clust_5="13000.00000" pt_clust_6="13000.00000" pt_clust_7="13000.00000" pt_clust_8="13000.00000" pt_clust_9="34.76496"></scales>
<clustering>
<clus scale="   34.765">  1  9  2 -1</clus>
<clus scale="   91.900">  7  8 -1 -1</clus>
<clus scale="   95.897">  5  6 -1 -1</clus>
<clus scale="  102.656">  1  7  2 -1</clus>
<clus scale="   34.765">  1  5  2 -1</clus>
</clustering>
</event>
<event>
 9    1  0.1399746E-005  0.9928833E+02  0.7546771E-02  0.1289259E+00
          3   -1    0    0  502    0 -0.00000000000E+00  0.00000000000E+00  0.18528972905E+03  0.18528972905E+03  0.00000000000E+00 0. -1.
         21   -1    0    0  501  502  0.00000000000E+00 -0.00000000000E+00 -0.34275017278E+03  0.34275017278E+03  0.00000000000E+00 0.  1.
         23    2    1    2    0    0  0.12452163213E+02  0.42318867731E+02  0.16083895010E+03  0.18290770901E+03  0.75100727101E+02 0.  0.
         23    2    1    2    0    0 -0.11545689556E+02 -0.13189366273E+02 -0.16109066637E+03  0.18524494023E+03  0.89767604184E+02 0.  0.
        -11    1    4    4    0    0  0.13195119999E+02  0.18673839358E+02 -0.13562475321E+03  0.13753871146E+03  0.00000000000E+00 0.  1.
         11    1    4    4    0    0 -0.24740809555E+02 -0.31863205632E+02 -0.25465913165E+02  0.47706228774E+02  0.00000000000E+00 0. -1.
        -11    1    3    3    0    0  0.15163426168E+02 -0.17850717820E+02  0.24694894376E+02  0.34035502466E+02  0.00000000000E+00 0.  1.
         11    1    3    3    0    0 -0.27112629549E+01  0.60169585551E+02  0.13614405572E+03  0.14887220654E+03  0.00000000000E+00 0. -1.
          3    1    1    2  501    0 -0.90647365674E+00 -0.29129501457E+02 -0.15720872746E+03  0.15988725258E+03  0.00000000000E+00 0. -1.
<scales pt_clust_5="13000.00000" pt_clust_6="13000.00000" pt_clust_7="13000.00000" pt_clust_8="13000.00000" pt_clust_9="29.14360"></scales>
<clustering>
<clus scale="   29.144">  2  9  1 -1</clus>
<clus scale="   75.101">  7  8 -1 -1</clus>
<clus scale="   86.256">  1  7  2 -1</clus>
<clus scale="   89.768">  5  6 -1 -1</clus>
<clus scale="   29.144">  2  5  1 -1</clus>
</clustering>
</event>
<event>
 9    1  0.1399746E-005  0.1513764E+03  0.7546771E-02  0.1224705E+00
         21   -1    0    0  501  502  0.00000000000E+00  0.00000000000E+00  0.80170535983E+02  0.80170535983E+02  0.00000000000E+00 0. -1.
          1   -1    0    0  502    0 -0.00000000000E+00 -0.00000000000E+00 -0.43469363390E+03  0.43469363390E+03  0.00000000000E+00 0. -1.
         23    2    1    2    0    0 -0.53872699228E+01 -0.10828786336E+02 -0.32204115845E+02  0.92940139989E+02  0.86339326226E+02 0.  0.
         23    2    1    2    0    0  0.39125654643E+02  0.12113340050E+03 -0.18613636648E+03  0.24345528950E+03  0.91758451868E+02 0.  0.
        -11    1    4    4    0    0  0.20937342017E+01  0.31236577822E+02 -0.12441428870E+03  0.12829272290E+03  0.00000000000E+00 0.  1.
         11    1    4    4    0    0  0.37031920441E+02  0.89896822679E+02 -0.61722077784E+02  0.11516256660E+03  0.00000000000E+00 0. -1.
        -11    1    3    3    0    0  0.20306245925E+02  0.29718819117E+02 -0.16363080526E+01  0.36030949714E+02  0.00000000000E+00 0. -1.
         11    1    3    3    0    0 -0.25693515847E+02 -0.40547605453E+02 -0.30567807792E+02  0.56909190275E+02  0.00000000000E+00 0.  1.
          1    1    1    2  501    0 -0.33738384720E+02 -0.11030461416E+03 -0.13618261558E+03  0.17846874039E+03  0.00000000000E+00 0. -1.
<scales pt_clust_5="13000.00000" pt_clust_6="13000.00000" pt_clust_7="13000.00000" pt_clust_8="13000.00000" pt_clust_9="120.39607"></scales>
<clustering>
<clus scale="   86.339">  7  8 -1 -1</clus>
<clus scale="   87.182">  2  7  1 -1</clus>
<clus scale="   91.758">  5  6 -1 -1</clus>
<clus scale="  120.396">  1  9  2 -1</clus>
<clus scale="  120.396">  1  5  2 -1</clus>
</clustering>
</event>
<event>
 9    1  0.1399746E-005  0.1367604E+03  0.7546771E-02  0.1217821E+00
          1   -1    0    0  502    0 -0.00000000000E+00  0.00000000000E+00  0.22628235578E+03  0.22628235578E+03  0.00000000000E+00 0. -1.
         21   -1    0    0  501  502  0.00000000000E+00 -0.00000000000E+00 -0.24476934859E+03  0.24476934859E+03  0.00000000000E+00 0.  1.
         23    2    1    2    0    0  0.37518193031E+02 -0.79270924867E+02  0.11267050350E+03  0.16960221370E+03  0.91535644396E+02 0.  0.
         23    2    1    2    0    0 -0.64110152281E+02  0.14969219145E+03 -0.55548434785E+02  0.19475826672E+03  0.91253986443E+02 0.  0.
        -11    1    3    3    0    0  0.56534594326E+02 -0.19477740830E+02  0.33355176276E+02  0.68469778208E+02  0.00000000000E+00 0.  1.
         11    1    3    3    0    0 -0.19016401295E+02 -0.59793184037E+02  0.79315327227E+02  0.10113243549E+03  0.00000000000E+00 0. -1.
        -13    1    4    4    0    0 -0.39777149484E+02  0.32484257471E+02  0.17815700770E+02  0.54358511739E+02  0.00000000000E+00 0. -1.
         13    1    4    4    0    0 -0.24333002797E+02  0.11720793398E+03 -0.73364135556E+02  0.14039975498E+03  0.00000000000E+00 0.  1.
          1    1    1    2  501    0  0.26591959249E+02 -0.70421266581E+02 -0.75609061527E+02  0.10669122395E+03  0.00000000000E+00 0. -1.
<scales pt_clust_5="13000.00000" pt_clust_6="13000.00000" pt_clust_7="13000.00000" pt_clust_8="13000.00000" pt_clust_9="75.27474"></scales>
<clustering>
<clus scale="   75.275">  2  9  1 -1</clus>
<clus scale="   91.254">  7  8 -1 -1</clus>
<clus scale="   91.536">  5  6 -1 -1</clus>
<clus scale="  136.572">  2  7  1 -1</clus>
<clus scale="   75.275">  2  5  1 -1</clus>
</clustering>
</event>
<event>
 9    1  0.1399746E-005  0.3284169E+03  0.7546771E-02  0.1071865E+00
          2   -1    0    0  502    0 -0.00000000000E+00  0.00000000000E+00  0.97279322102E+03  0.97279322102E+03  0.00000000000E+00 0. -1.
         21   -1    0    0  501  502  0.00000000000E+00 -0.00000000000E+00 -0.24260569366E+03  0.24260569366E+03  0.00000000000E+00 0. -1.
         23    2    1    2    0    0  0.58403932387E+02  0.34856748208E+03  0.59193128019E+03  0.69541261163E+03  0.91135893396E+02 0.  0.
         23    2    1    2    0    0 -0.47995407357E+02 -0.26388959399E+03  0.25094508058E+03  0.37864467684E+03  0.91962388475E+02 0.  0.
        -11    1    4    4    0    0 -0.73757009746E+01 -0.22682845943E+03  0.21716118058E+03  0.31410910417E+03  0.00000000000E+00 0. -1.
         11    1    4    4    0    0 -0.40619706382E+02 -0.37061134563E+02  0.33783899996E+02  0.64535572676E+02  0.00000000000E+00 0.  1.
        -13    1    3    3    0    0 -0.32734795696E+01  0.58657413382E+02  0.16932065243E+03  0.17922302071E+03  0.00000000000E+00 0.  1.
         13    1    3    3    0    0  0.61677411956E+02  0.28991006870E+03  0.42261062776E+03  0.51618959092E+03  0.00000000000E+00 0. -1.
          2    1    1    2  501    0 -0.10408525030E+02 -0.84677888089E+02 -0.11268883340E+03  0.14134162621E+03  0.00000000000E+00 0. -1.
<scales pt_clust_5="13000.00000" pt_clust_6="13000.00000" pt_clust_7="13000.00000" pt_clust_8="13000.00000" pt_clust_9="85.31519"></scales>
<clustering>
<clus scale="   85.315">  2  9  1 -1</clus>
<clus scale="   91.136">  7  8 -1 -1</clus>
<clus scale="   91.962">  5  6 -1 -1</clus>
<clus scale="  328.186">  1  7  2 -1</clus>
<clus scale="   85.315">  2  5  1 -1</clus>
</clustering>
</event>
<event>
 9    1  0.1399746E-005  0.1851697E+03  0.7546771E-02  0.1163099E+00
         21   -1    0    0  501  502  0.00000000000E+00  0.00000000000E+00  0.72285120160E+02  0.72285120160E+02  0.00000000000E+00 0. -1.
         -3   -1    0    0    0  501 -0.00000000000E+00 -0.00000000000E+00 -0.82507298840E+03  0.82507298840E+03  0.00000000000E+00 0.  1.
         23    2    1    2    0    0  0.10581398405E+03 -0.11767640743E+03 -0.54642696107E+03  0.57600463593E+03  0.90302717261E+02 0.  0.
         23    2    1    2    0    0 -0.96010611891E+02  0.13685162679E+03 -0.22344550158E+03  0.29386386533E+03  0.92096003285E+02 0.  0.
        -11    1    4    4    0    0 -0.39890174619E+02 -0.26387549795E+01 -0.56196214241E+02  0.68965234387E+02  0.00000000000E+00 0.  1.
         11    1    4    4    0    0 -0.56120437272E+02  0.13949038177E+03 -0.16724928734E+03  0.22489863095E+03  0.00000000000E+00 0. -1.
        -11    1    3    3    0    0  0.63648020209E+02 -0.39735028366E+02 -0.12864438402E+03  0.14892723221E+03  0.00000000000E+00 0. -1.
         11    1    3    3    0    0  0.42165963836E+02 -0.77941379062E+02 -0.41778257705E+03  0.42707740371E+03  0.00000000000E+00 0.  1.
         -3    1    1    2    0  502 -0.98033721547E+01 -0.19175219364E+02  0.17084594409E+02  0.27489607298E+02  0.00000000000E+00 0.  1.
<scales pt_clust_5="13000.00000" pt_clust_6="13000.00000" pt_clust_7="13000.00000" pt_clust_8="13000.00000" pt_clust_9="21.53590"></scales>
<clustering>
<clus scale="   21.536">  1  9  2 -1</clus>
<clus scale="   90.303">  7  8 -1 -1</clus>
<clus scale="   92.096">  5  6 -1 -1</clus>
<clus scale="  184.284">  2  7  1 -1</clus>
<clus scale="   21.536">  1  5  2 -1</clus>
</clustering>
</event>
<event>
 9    1  0.1399746E-005  0.1039801E+03  0.7546771E-02  0.1272780E+00
         -2   -1    0    0    0  501 -0.00000000000E+00  0.00000000000E+00  0.98423181497E+02  0.98423181497E+02  0.00000000000E+00 0.  1.
         21   -1    0    0  501  502  0.00000000000E+00 -0.00000000000E+00 -0.16910915328E+03  0.16910915328E+03  0.00000000000E+00 0. -1.
         23    2    1    2    0    0  0.25521328496E+02  0.35692935700E+02 -0.18278817006E+01  0.10213786725E+03  0.92214309668E+02 0.  0.
         23    2    1    2    0    0  0.13385190682E+01 -0.60039159045E+02 -0.31442313920E+02  0.11329715178E+03  0.90780687618E+02 0.  0.
        -11    1    4    4    0    0  0.34006450725E+02 -0.11562830526E+02  0.14713796173E+02  0.38815377603E+02  0.00000000000E+00 0.  1.
         11    1    4    4    0    0 -0.32667931657E+02 -0.48476328519E+02 -0.46156110093E+02  0.74481774175E+02  0.00000000000E+00 0. -1.
        -13    1    3    3    0    0  0.38356041515E+02 -0.14148047660E+01 -0.34077420025E+02  0.51326972916E+02  0.00000000000E+00 0. -1.
         13    1    3    3    0    0 -0.12834713018E+02  0.37107740466E+02  0.32249538324E+02  0.50810894332E+02  0.00000000000E+00 0.  1.
         -2    1    1    2    0  502 -0.26859847564E+02  0.24346223345E+02 -0.37415776160E+02  0.52097315747E+02  0.00000000000E+00 0.  1.
<scales pt_clust_5="13000.00000" pt_clust_6="13000.00000" pt_clust_7="13000.00000" pt_clust_8="13000.00000" pt_clust_9="36.25176"></scales>
<clustering>
<clus scale="   36.252">  2  9  1 -1</clus>
<clus scale="   90.781">  5  6 -1 -1</clus>
<clus scale="   92.214">  7  8 -1 -1</clus>
<clus scale="  102.711">  2  5  1 -1</clus>
<clus scale="   36.252">  2  5  1 -1</clus>
</clustering>
</event>
<event>
 9    1  0.1399746E-005  0.9349298E+02  0.7546771E-02  0.1297002E+00
         21   -1    0    0  501  502  0.00000000000E+00  0.00000000000E+00  0.34203087412E+03  0.34203087412E+03  0.00000000000E+00 0. -1.
          2   -1    0    0  502    0 -0.00000000000E+00 -0.00000000000E+00 -0.61138007418E+02  0.61138007418E+02  0.00000000000E+00 0. -1.
         23    2    1    2    0    0 -0.12678044512E+01  0.11060946311E+01  0.33031976934E+02  0.93370279534E+02  0.87315902484E+02 0.  0.
         23    2    1    2    0    0 -0.57714133917E+02 -0.39151298702E+02  0.14132111655E+03  0.18221713829E+03  0.91475035166E+02 0.  0.
        -13    1    3    3    0    0 -0.23530579533E+00  0.44208966809E+02  0.16120147217E+02  0.47056851376E+02  0.00000000000E+00 0.  1.
         13    1    3    3    0    0 -0.10324986558E+01 -0.43102872177E+02  0.16911829717E+02  0.46313428159E+02  0.00000000000E+00 0. -1.
        -13    1    4    4    0    0  0.20944632885E+02 -0.48112703020E+00  0.56441688991E+02  0.60204429954E+02  0.00000000000E+00 0.  1.
         13    1    4    4    0    0 -0.78658766803E+02 -0.38670171672E+02  0.84879427562E+02  0.12201270834E+03  0.00000000000E+00 0. -1.
          2    1    1    2  501    0  0.58981938369E+02  0.38045204071E+02  0.10653977321E+03  0.12758146371E+03  0.00000000000E+00 0. -1.
<scales pt_clust_5="13000.00000" pt_clust_6="13000.00000" pt_clust_7="13000.00000" pt_clust_8="13000.00000" pt_clust_9="70.18765"></scales>
<clustering>
<clus scale="   70.188">  1  9  2 -1</clus>
<clus scale="   87.316">  5  6 -1 -1</clus>
<clus scale="   89.428">  2  5  1 -1</clus>
<clus scale="   91.475">  7  8 -1 -1</clus>
<clus scale="   70.188">  1  5  2 -1</clus>
</clustering>
</event>
<event>
 9    1  0.1399746E-005  0.1023682E+03  0.7546771E-02  0.1276884E+00
         -1   -1    0    0    0  501 -0.00000000000E+00  0.00000000000E+00  0.65610800025E+02  0.65610800025E+02  0.00000000000E+00 0.  1.
         21   -1    0    0  501  502  0.00000000000E+00 -0.00000000000E+00 -0.52164116383E+03  0.52164116383E+03  0.00000000000E+00 0.  1.
         23    2    1    2    0    0 -0.35902854498E+02 -0.45141990272E+02 -0.37601484608E+01  0.10788026386E+03  0.91088958536E+02 0.  0.
         23    2    1    2    0    0  0.89516710231E+01  0.11094611962E+02 -0.15323256391E+03  0.17719773150E+03  0.87838457282E+02 0.  0.
        -11    1    3    3    0    0 -0.57524401716E+02 -0.17391927782E+02 -0.26828231058E+02  0.65812536241E+02  0.00000000000E+00 0. -1.
         11    1    3    3    0    0  0.21621547218E+02 -0.27750062491E+02  0.23068082597E+02  0.42067727619E+02  0.00000000000E+00 0.  1.
        -13    1    4    4    0    0  0.30994748575E+02 -0.10652036592E+02 -0.15918067746E+02  0.36435219274E+02  0.00000000000E+00 0.  1.
         13    1    4    4    0    0 -0.22043077552E+02  0.21746648553E+02 -0.13731449617E+03  0.14076251223E+03  0.00000000000E+00 0. -1.
         -1    1    1    2    0  502  0.26951183475E+02  0.34047378311E+02 -0.29903765143E+03  0.30217396849E+03  0.00000000000E+00 0.  1.
<scales pt_clust_5="13000.00000" pt_clust_6="13000.00000" pt_clust_7="13000.00000" pt_clust_8="13000.00000" pt_clust_9="43.42338"></scales>
<clustering>
<clus scale="   43.423">  2  9  1 -1</clus>
<clus scale="   87.838">  7  8 -1 -1</clus>
<clus scale="   91.089">  5  6 -1 -1</clus>
<clus scale="   99.487">  2  7  1 -1</clus>
<clus scale="   43.423">  2  5  1 -1</clus>
</clustering>
</event>
<event>
 9    1  0.1399746E-005  0.1706272E+03  0.7546771E-02  0.1178369E+00
         21   -1    0    0  501  502  0.00000000000E+00  0.00000000000E+00  0.35107931735E+03  0.35107931735E+03  0.00000000000E+00 0. -1.
          3   -1    0    0  502    0 -0.00000000000E+00 -0.00000000000E+00 -0.27872910564E+03  0.27872910564E+03  0.00000000000E+00 0. -1.
         23    2    1    2    0    0  0.15571291733E+03 -0.80198866539E+00 -0.13436776783E+03  0.22563402769E+03  0.92783951252E+02 0.  0.
         23    2    1    2    0    0 -0.11432580577E+03 -0.74128257738E+01 -0.36976002795E+02  0.15685449476E+03  0.10055231421E+03 0.  0.
        -11    1    4    4    0    0 -0.10982977622E+03  0.26419411013E+02 -0.10100348611E+02  0.11341332402E+03  0.00000000000E+00 0.  1.
         11    1    4    4    0    0 -0.44960295508E+01 -0.33832236787E+02 -0.26875654184E+02  0.43441170743E+02  0.00000000000E+00 0. -1.
        -13    1    3    3    0    0  0.11175425239E+03  0.42100639768E+02 -0.81392318387E+02  0.14452053933E+03  0.00000000000E+00 0.  1.
         13    1    3    3    0    0  0.43958664941E+02 -0.42902628433E+02 -0.52975449446E+02  0.81113488360E+02  0.00000000000E+00 0. -1.
          3    1    1    2  501    0 -0.41387111559E+02  0.82148144392E+01  0.24369398233E+03  0.24731990054E+03  0.00000000000E+00 0. -1.
<scales pt_clust_5="13000.00000" pt_clust_6="13000.00000" pt_clust_7="13000.00000" pt_clust_8="13000.00000" pt_clust_9="42.19450"></scales>
<clustering>
<clus scale="   42.195">  1  9  2 -1</clus>
<clus scale="   92.784">  7  8 -1 -1</clus>
<clus scale="  100.552">  5  6 -1 -1</clus>
<clus scale="  166.168">  2  7  1 -1</clus>
<clus scale="   42.195">  1  5  2 -1</clus>
</clustering>
</event>
<event>
 9    1  0.1399746E-005  0.9575910E+02  0.7546771E-02  0.1289673E+00
         -1   -1    0    0    0  501 -0.00000000000E+00  0.00000000000E+00  0.27606802768E+03  0.27606802768E+03  0.00000000000E+00 0.  1.
         21   -1    0    0  501  502  0.00000000000E+00 -0.00000000000E+00 -0.10977284144E+03  0.10977284144E+03  0.00000000000E+00 0. -1.
         23    2    1    2    0    0 -0.10962167993E+02  0.23470182015E+02  0.22388755432E+03  0.24323829413E+03  0.91477932761E+02 0.  0.
         23    2    1    2    0    0  0.38930505820E+02 -0.20106223423E+02 -0.39714201916E+02  0.10923832819E+03  0.91847427881E+02 0.  0.
        -11    1    3    3    0    0  0.39871868119E+02  0.22946426382E+01  0.89572756583E+02  0.98072982895E+02  0.00000000000E+00 0. -1.
         11    1    3    3    0    0 -0.50834036112E+02  0.21175539377E+02  0.13431479774E+03  0.14516531124E+03  0.00000000000E+00 0.  1.
        -13    1    4    4    0    0 -0.12364927208E+02 -0.43022731364E+02 -0.24512115676E+02  0.51036170054E+02  0.00000000000E+00 0.  1.
         13    1    4    4    0    0  0.51295433029E+02  0.22916507941E+02 -0.15202086239E+02  0.58202158137E+02  0.00000000000E+00 0. -1.
         -1    1    1    2    0  502 -0.27968337827E+02 -0.33639585928E+01 -0.17878166170E+02  0.33364246789E+02  0.00000000000E+00 0.  1.
<scales pt_clust_5="13000.00000" pt_clust_6="13000.00000" pt_clust_7="13000.00000" pt_clust_8="13000.00000" pt_clust_9="28.16992"></scales>
<clustering>
<clus scale="   28.170">  2  9  1 -1</clus>
<clus scale="   91.478">  5  6 -1 -1</clus>
<clus scale="   91.847">  7  8 -1 -1</clus>
<clus scale="   95.405">  1  5  2 -1</clus>
<clus scale="   28.170">  2  5  1 -1</clus>
</clustering>
</event>
<event>
 9    1  0.1399746E-005  0.9972367E+02  0.7546771E-02  0.1281373E+00
         21   -1    0    0  501  502  0.00000000000E+00  0.00000000000E+00  0.25272630900E+03  0.25272630900E+03  0.00000000000E+00 0.  1.
          2   -1    0    0  502    0 -0.00000000000E+00 -0.00000000000E+00 -0.74364717941E+02  0.74364717941E+02  0.00000000000E+00 0. -1.
         23    2    1    2    0    0  0.70678252580E+01 -0.28308092381E+02  0.25913963450E+02  0.96915165700E+02  0.88711406216E+02 0.  0.
         23    2    1    2    0    0  0.15529723398E+02  0.76645139476E+02  0.10796465641E+03  0.16070749395E+03  0.89748993666E+02 0.  0.
        -11    1    3    3    0    0 -0.90831165694E+01 -0.58149495351E+02  0.11107331121E+02  0.59893569111E+02  0.00000000000E+00 0.  1.
         11    1    3    3    0    0  0.16150941827E+02  0.29841402970E+02  0.14806632330E+02  0.37021596590E+02  0.00000000000E+00 0. -1.
        -13    1    4    4    0    0 -0.83936987325E+01  0.87206955097E+02  0.10088254346E+03  0.13361435092E+03  0.00000000000E+00 0. -1.
         13    1    4    4    0    0  0.23923422131E+02 -0.10561815621E+02  0.70821129497E+01  0.27093143034E+02  0.00000000000E+00 0.  1.
          2    1    1    2  501    0 -0.22597548656E+02 -0.48337047095E+02  0.44482971191E+02  0.69468367284E+02  0.00000000000E+00 0. -1.
<scales pt_clust_5="13000.00000" pt_clust_6="13000.00000" pt_clust_7="13000.00000" pt_clust_8="13000.00000" pt_clust_9="53.35840"></scales>
<clustering>
<clus scale="   53.358">  1  9  2 -1</clus>
<clus scale="   88.711">  5  6 -1 -1</clus>
<clus scale="   89.749">  7  8 -1 -1</clus>
<clus scale="   98.791">  2  5  1 -1</clus>
<clus scale="   53.358">  1  5  2 -1</clus>
</clustering>
</event>
<event>
 9    1  0.1399746E-005  0.9093388E+02  0.7546771E-02  0.1300887E+00
         21   -1    0    0  501  502  0.00000000000E+00  0.00000000000E+00  0.50522746186E+02  0.50522746186E+02  0.00000000000E+00 0. -1.
          2   -1    0    0  502    0 -0.00000000000E+00 -0.00000000000E+00 -0.55175435245E+03  0.55175435245E+03  0.00000000000E+00 0. -1.
         23    2    1    2    0    0  0.78959158734E+01  0.84329069548E+01 -0.40369056152E+03  0.41392527832E+03  0.90744736316E+02 0.  0.
         23    2    1    2    0    0  0.68130142466E+01  0.82639226627E+01 -0.12401675142E+03  0.15376714468E+03  0.90274418135E+02 0.  0.
        -13    1    4    4    0    0  0.39953924995E+02 -0.20950475243E+02 -0.48208694251E+02  0.66025122012E+02  0.00000000000E+00 0. -1.
         13    1    4    4    0    0 -0.33140910748E+02  0.29214397905E+02 -0.75808057173E+02  0.87742022671E+02  0.00000000000E+00 0.  1.
        -13    1    3    3    0    0  0.46690546258E+02 -0.86058277606E+01 -0.25172916618E+03  0.25616721197E+03  0.00000000000E+00 0. -1.
         13    1    3    3    0    0 -0.38794630384E+02  0.17038734715E+02 -0.15196139533E+03  0.15775806635E+03  0.00000000000E+00 0.  1.
          2    1    1    2  501    0 -0.14708930120E+02 -0.16696829618E+02  0.26475706675E+02  0.34584675631E+02  0.00000000000E+00 0. -1.
<scales pt_clust_5="13000.00000" pt_clust_6="13000.00000" pt_clust_7="13000.00000" pt_clust_8="13000.00000" pt_clust_9="22.25167"></scales>
<clustering>
<clus scale="   22.252">  1  9  2 -1</clus>
<clus scale="   90.274">  5  6 -1 -1</clus>
<clus scale="   90.465">  1  5  2 -1</clus>
<clus scale="   90.745">  7  8 -1 -1</clus>
<clus scale="   22.252">  1  5  2 -1</clus>
</clustering>
</event>
<event>
 9    1  0.1399746E-005  0.9482474E+02  0.7546771E-02  0.1292690E+00
          2   -1    0    0  502    0 -0.00000000000E+00  0.00000000000E+00  0.19199489348E+03  0.19199489348E+03  0.00000000000E+00 0. -1.
         21   -1    0    0  501  502  0.00000000000E+00 -0.00000000000E+00 -0.23713910620E+03  0.23713910620E+03  0.00000000000E+00 0. -1.
         23    2    1    2    0    0 -0.12824745460E+02 -0.17152188945E+01  0.14445688265E+03  0.17148197188E+03  0.91492402224E+02 0.  0.
         23    2    1    2    0    0  0.36020556612E+02 -0.42209804011E+02 -0.73095585973E+02  0.13099900963E+03  0.93480627842E+02 0.  0.
        -13    1    3    3    0    0 -0.21898054052E+02 -0.43848381258E+02  0.83626576985E+02  0.96930953201E+02  0.00000000000E+00 0. -1.
         13    1    3    3    0    0  0.90733085910E+01  0.42133162364E+02  0.60830305664E+02  0.74551018683E+02  0.00000000000E+00 0.  1.
        -13    1    4    4    0    0 -0.97467638184E+01 -0.56845595503E+02 -0.24513631250E+02  0.62668486898E+02  0.00000000000E+00 0. -1.
         13    1    4    4    0    0  0.45767320430E+02  0.14635791492E+02 -0.48581954723E+02  0.68330522731E+02  0.00000000000E+00 0.  1.
          2    1    1    2  501    0 -0.23195811151E+02  0.43925022905E+02 -0.11650550939E+03  0.12665301817E+03  0.00000000000E+00 0. -1.
<scales pt_clust_5="13000.00000" pt_clust_6="13000.00000" pt_clust_7="13000.00000" pt_clust_8="13000.00000" pt_clust_9="49.67347"></scales>
<clustering>
<clus scale="   49.673">  2  9  1 -1</clus>
<clus scale="   91.492">  5  6 -1 -1</clus>
<clus scale="   92.865">  1  5  2 -1</clus>
<clus scale="   93.481">  7  8 -1 -1</clus>
<clus scale="   49.673">  2  5  1 -1</clus>
</clustering>
</event>
<event>
 9    1  0.1399746E-005  0.1834462E+03  0.7546771E-02  0.1164628E+00
          2   -1    0    0  502    0 -0.00000000000E+00  0.00000000000E+00  0.66129714792E+03  0.66129714792E+03  0.00000000000E+00 0. -1.
         21   -1    0    0  501  502  0.00000000000E+00 -0.00000000000E+00 -0.17593221105E+03  0.17593221105E+03  0.00000000000E+00 0. -1.
         23    2    1    2    0    0  0.16452750008E+03 -0.23381577643E+02  0.41007794634E+03  0.45211430052E+03  0.92883917933E+02 0.  0.
         23    2    1    2    0    0 -0.11519704792E+03  0.11905986324E+03  0.16013059273E+03  0.24805206314E+03  0.91882579508E+02 0.  0.
        -11    1    4    4    0    0 -0.20095774320E+02 -0.13698950993E+02  0.10253009116E+02  0.26393665902E+02  0.00000000000E+00 0.  1.
         11    1    4    4    0    0 -0.95101273604E+02  0.13275881424E+03  0.14987758361E+03  0.22165839724E+03  0.00000000000E+00 0. -1.
        -11    1    3    3    0    0  0.87039575707E+02 -0.56669344060E+02  0.19189850763E+03  0.21820251952E+03  0.00000000000E+00 0.  1.
         11    1    3    3    0    0  0.77487924373E+02  0.33287766416E+02  0.21817943871E+03  0.23391178101E+03  0.00000000000E+00 0. -1.
          2    1    1    2  501    0 -0.49330452156E+02 -0.95678285600E+02 -0.84843602197E+02  0.13706299529E+03  0.00000000000E+00 0. -1.
<scales pt_clust_5="13000.00000" pt_clust_6="13000.00000" pt_clust_7="13000.00000" pt_clust_8="13000.00000" pt_clust_9="107.64677"></scales>
<clustering>
<clus scale="   91.883">  5  6 -1 -1</clus>
<clus scale="   92.884">  7  8 -1 -1</clus>
<clus scale="  107.647">  2  9  1 -1</clus>
<clus scale="  182.941">  2  5  1 -1</clus>
<clus scale="  107.647">  2  5  1 -1</clus>
</clustering>
</event>
<event>
 9    1  0.1399746E-005  0.2300537E+03  0.7546771E-02  0.1126953E+00
          1   -1    0    0  502    0 -0.00000000000E+00  0.00000000000E+00  0.72473042241E+03  0.72473042241E+03  0.00000000000E+00 0. -1.
         21   -1    0    0  501  502  0.00000000000E+00 -0.00000000000E+00 -0.26939323141E+03  0.26939323141E+03  0.00000000000E+00 0.  1.
         23    2    1    2    0    0  0.19554251274E+03  0.70889831814E+02  0.53437835247E+03  0.58123217047E+03  0.94912432589E+02 0.  0.
         23    2    1    2    0    0 -0.24729825869E+03  0.39243429831E+02 -0.10905401582E+03  0.28755687526E+03  0.89998347803E+02 0.  0.
        -11    1    3    3    0    0  0.10661826922E+03  0.78416658639E+02  0.24576311115E+03  0.27913461714E+03  0.00000000000E+00 0.  1.
         11    1    3    3    0    0  0.88924243526E+02 -0.75268268241E+01  0.28861524132E+03  0.30209755334E+03  0.00000000000E+00 0. -1.
        -13    1    4    4    0    0 -0.70395403317E+02 -0.29210185202E+02 -0.36005506792E+02  0.84292017694E+02  0.00000000000E+00 0.  1.
         13    1    4    4    0    0 -0.17690285537E+03  0.68453615033E+02 -0.73048509031E+02  0.20326485757E+03  0.00000000000E+00 0. -1.
          1    1    1    2  501    0  0.51755745948E+02 -0.11013326165E+03  0.30012854350E+02  0.12533460809E+03  0.00000000000E+00 0. -1.
<scales pt_clust_5="13000.00000" pt_clust_6="13000.00000" pt_clust_7="13000.00000" pt_clust_8="13000.00000" pt_clust_9="121.68810"></scales>
<clustering>
<clus scale="   89.998">  7  8 -1 -1</clus>
<clus scale="   94.912">  5  6 -1 -1</clus>
<clus scale="  121.688">  2  9  1 -1</clus>
<clus scale="  228.070">  2  7  1 -1</clus>
<clus scale="  121.688">  2  5  1 -1</clus>
</clustering>
</event>
<event>
 9    1  0.1399746E-005  0.9159500E+02  0.7546771E-02  0.1299808E+00
          1   -1    0    0  502    0 -0.00000000000E+00  0.00000000000E+00  0.39333737502E+03  0.39333737502E+03  0.00000000000E+00 0. -1.
         21   -1    0    0  501  502  0.00000000000E+00 -0.00000000000E+00 -0.58154300405E+02  0.58154300405E+02  0.00000000000E+00 0.  1.
         23    2    1    2    0    0  0.11489598255E+01 -0.97496809289E+01  0.28750412928E+03  0.30137992448E+03  0.89860214457E+02 0.  0.
         23    2    1    2    0    0 -0.35971096879E+02 -0.15533646235E+02  0.35532883963E+02  0.10539760700E+03  0.91163894949E+02 0.  0.
        -11    1    4    4    0    0 -0.31238061724E+01  0.29431809002E+02 -0.12239876121E+02  0.32028176869E+02  0.00000000000E+00 0.  1.
         11    1    4    4    0    0 -0.32847290707E+02 -0.44965455237E+02  0.47772760084E+02  0.73369430129E+02  0.00000000000E+00 0. -1.
        -11    1    3    3    0    0 -0.42476543797E+02 -0.16884495231E+02  0.13061772854E+03  0.13838473167E+03  0.00000000000E+00 0. -1.
         11    1    3    3    0    0  0.43625503622E+02  0.71348143021E+01  0.15688640074E+03  0.16299519281E+03  0.00000000000E+00 0.  1.
          1    1    1    2  501    0  0.34822137054E+02  0.25283327164E+02  0.12146061369E+02  0.44714143940E+02  0.00000000000E+00 0. -1.
<scales pt_clust_5="13000.00000" pt_clust_6="13000.00000" pt_clust_7="13000.00000" pt_clust_8="13000.00000" pt_clust_9="43.03287"></scales>
<clustering>
<clus scale="   43.033">  2  9  1 -1</clus>
<clus scale="   89.860">  7  8 -1 -1</clus>
<clus scale="   90.298">  1  7  2 -1</clus>
<clus scale="   91.164">  5  6 -1 -1</clus>
<clus scale="   43.033">  2  5  1 -1</clus>
</clustering>
</event>
<event>
 9    1  0.1399746E-005  0.1330702E+03  0.7546771E-02  0.1223369E+00
         21   -1    0    0  501  502  0.00000000000E+00  0.00000000000E+00  0.32222728760E+02  0.32222728760E+02  0.00000000000E+00 0.  1.
          2   -1    0    0  502    0 -0.00000000000E+00 -0.00000000000E+00 -0.98449228884E+03  0.98449228884E+03  0.00000000000E+00 0. -1.
         23    2    1    2    0    0  0.48332169786E+02 -0.43633430471E+02 -0.28596260436E+03  0.30943087930E+03  0.98655882125E+02 0.  0.
         23    2    1    2    0    0 -0.28650442906E+02  0.11964686949E+03 -0.43586826636E+03  0.46383516451E+03  0.10012838241E+03 0.  0.
        -11    1    3    3    0    0 -0.23181394470E+02  0.11681353528E+02 -0.89022019141E+02  0.92729450348E+02  0.00000000000E+00 0.  1.
         11    1    3    3    0    0  0.71513564256E+02 -0.55314783999E+02 -0.19694058522E+03  0.21670142895E+03  0.00000000000E+00 0. -1.
        -13    1    4    4    0    0  0.33293314455E+02  0.40644206608E+02 -0.95838842107E+02  0.10929537947E+03  0.00000000000E+00 0.  1.
         13    1    4    4    0    0 -0.61943757362E+02  0.79002662884E+02 -0.34002942425E+03  0.35453978504E+03  0.00000000000E+00 0. -1.
          2    1    1    2  501    0 -0.19681726880E+02 -0.76013439021E+02 -0.23043868936E+03  0.24344897379E+03  0.00000000000E+00 0. -1.
<scales pt_clust_5="13000.00000" pt_clust_6="13000.00000" pt_clust_7="13000.00000" pt_clust_8="13000.00000" pt_clust_9="78.52018"></scales>
<clustering>
<clus scale="   78.520">  1  9  2 -1</clus>
<clus scale="   98.656">  5  6 -1 -1</clus>
<clus scale="  100.128">  7  8 -1 -1</clus>
<clus scale="  131.966">  2  5  1 -1</clus>
<clus scale="   78.520">  1  5  2 -1</clus>
</clustering>
</event>
<event>
 9    1  0.1399746E-005  0.9331863E+02  0.7546771E-02  0.1296582E+00
         21   -1    0    0  501  502  0.00000000000E+00  0.00000000000E+00  0.90927639747E+02  0.90927639747E+02  0.00000000000E+00 0. -1.
          2   -1    0    0  502    0 -0.00000000000E+00 -0.00000000000E+00 -0.21273898016E+03  0.21273898016E+03  0.00000000000E+00 0. -1.
         23    2    1    2    0    0 -0.21177909670E+02  0.11547138271E+02 -0.89260731177E+02  0.12944890112E+03  0.90596355388E+02 0.  0.
         23    2    1    2    0    0 -0.23012176845E+02  0.17473319975E+02 -0.60034154654E+02  0.11463335833E+03  0.93283599428E+02 0.  0.
        -11    1    4    4    0    0  0.11339970716E+02 -0.31403692107E+02 -0.56846806150E+01  0.33868900299E+02  0.00000000000E+00 0.  1.
         11    1    4    4    0    0 -0.34352147561E+02  0.48877012082E+02 -0.54349474039E+02  0.80764458028E+02  0.00000000000E+00 0. -1.
        -11    1    3    3    0    0 -0.52984455021E+02  0.12738343701E+02 -0.79067802167E+02  0.96027783550E+02  0.00000000000E+00 0. -1.
         11    1    3    3    0    0  0.31806545351E+02 -0.11912054300E+01 -0.10192929010E+02  0.33421117565E+02  0.00000000000E+00 0.  1.
          2    1    1    2  501    0  0.44190086514E+02 -0.29020458246E+02  0.27483545420E+02  0.59584360463E+02  0.00000000000E+00 0. -1.
<scales pt_clust_5="13000.00000" pt_clust_6="13000.00000" pt_clust_7="13000.00000" pt_clust_8="13000.00000" pt_clust_9="52.86729"></scales>
<clustering>
<clus scale="   52.867">  1  9  2 -1</clus>
<clus scale="   90.596">  7  8 -1 -1</clus>
<clus scale="   90.632">  2  7  1 -1</clus>
<clus scale="   93.284">  5  6 -1 -1</clus>
<clus scale="   52.867">  1  5  2 -1</clus>
</clustering>
</event>
<event>
 9    1  0.1399746E-005  0.9909235E+02  0.7546771E-02  0.1282970E+00
         -4   -1    0    0    0  501 -0.00000000000E+00  0.00000000000E+00  0.14433437705E+03  0.14433437705E+03  0.00000000000E+00 0.  1.
         21   -1    0    0  501  502  0.00000000000E+00 -0.00000000000E+00 -0.40268607436E+03  0.40268607436E+03  0.00000000000E+00 0.  1.
         23    2    1    2    0    0  0.12972576628E+01  0.26784577071E+02  0.82163602138E+02  0.12831866599E+03  0.94845801593E+02 0.  0.
         23    2    1    2    0    0 -0.39055788721E+02 -0.26036482422E+01 -0.34650302812E+02  0.10956780127E+03  0.96292917562E+02 0.  0.
        -11    1    4    4    0    0 -0.47196049133E+02  0.35422867877E+02 -0.24208423137E+01  0.59060198949E+02  0.00000000000E+00 0.  1.
         11    1    4    4    0    0  0.81402604125E+01 -0.38026516120E+02 -0.32229460498E+02  0.50507602317E+02  0.00000000000E+00 0. -1.
        -13    1    3    3    0    0  0.47685642450E+02  0.19830580941E+02  0.44073076222E+02  0.67894097564E+02  0.00000000000E+00 0. -1.
         13    1    3    3    0    0 -0.46388384788E+02  0.69539961297E+01  0.38090525916E+02  0.60424568430E+02  0.00000000000E+00 0.  1.
         -4    1    1    2    0  502  0.37758531058E+02 -0.24180928828E+02 -0.30586499664E+03  0.30913398415E+03  0.00000000000E+00 0.  1.
<scales pt_clust_5="13000.00000" pt_clust_6="13000.00000" pt_clust_7="13000.00000" pt_clust_8="13000.00000" pt_clust_9="44.83775"></scales>
<clustering>
<clus scale="   44.838">  2  9  1 -1</clus>
<clus scale="   94.846">  7  8 -1 -1</clus>
<clus scale="   96.293">  5  6 -1 -1</clus>
<clus scale="   97.687">  1  7  2 -1</clus>
<clus scale="   44.838">  2  5  1 -1</clus>
</clustering>
</event>
<event>
 9    1  0.1399746E-005  0.1106461E+03  0.7546771E-02  0.1261081E+00
         21   -1    0    0  501  502  0.00000000000E+00  0.00000000000E+00  0.29524605767E+03  0.29524605767E+03  0.00000000000E+00 0. -1.
         -1   -1    0    0    0  501 -0.00000000000E+00 -0.00000000000E+00 -0.68439254824E+02  0.68439254824E+02  0.00000000000E+00 0.  1.
         23    2    1    2    0    0  0.10798704484E+02 -0.54306086697E+02  0.26524040630E+02  0.10947850309E+03  0.90643559264E+02 0.  0.
         23    2    1    2    0    0  0.21335662783E+02  0.62131591702E+02  0.11590614813E+03  0.16357972134E+03  0.94913354506E+02 0.  0.
        -13    1    4    4    0    0  0.39875064905E+02  0.79816370228E+02  0.96591109672E+02  0.13149340754E+03  0.00000000000E+00 0. -1.
         13    1    4    4    0    0 -0.18539402123E+02 -0.17684778526E+02  0.19315038460E+02  0.32086313800E+02  0.00000000000E+00 0.  1.
        -13    1    3    3    0    0 -0.13838934412E+02 -0.70672894410E+02  0.36862236141E+01  0.72109377715E+02  0.00000000000E+00 0.  1.
         13    1    3    3    0    0  0.24637638896E+02  0.16366807712E+02  0.22837817016E+02  0.37369125373E+02  0.00000000000E+00 0. -1.
         -1    1    1    2    0  502 -0.32134367266E+02 -0.78255050054E+01  0.84376614088E+02  0.90627088076E+02  0.00000000000E+00 0.  1.
<scales pt_clust_5="13000.00000" pt_clust_6="13000.00000" pt_clust_7="13000.00000" pt_clust_8="13000.00000" pt_clust_9="33.07350"></scales>
<clustering>
<clus scale="   33.073">  1  9  2 -1</clus>
<clus scale="   90.644">  7  8 -1 -1</clus>
<clus scale="   94.913">  5  6 -1 -1</clus>
<clus scale="  107.006">  2  7  1 -1</clus>
<clus scale="   33.073">  1  5  2 -1</clus>
</clustering>
</event>
<event>
 9    1  0.1399746E-005  0.2554432E+03  0.7546771E-02  0.1110736E+00
         21   -1    0    0  501  502  0.00000000000E+00  0.00000000000E+00  0.11077741596E+03  0.11077741596E+03  0.00000000000E+00 0.  1.
          1   -1    0    0  502    0 -0.00000000000E+00 -0.00000000000E+00 -0.10326646642E+04  0.10326646642E+04  0.00000000000E+00 0. -1.
         23    2    1    2    0    0 -0.22365304427E+03 -0.10363928610E+03 -0.75454899443E+03  0.79845020712E+03  0.86120627159E+02 0.  0.
         23    2    1    2    0    0  0.15537161574E+03  0.12862690734E+03 -0.10246734161E+03  0.24754973663E+03  0.10047932991E+03 0.  0.
        -13    1    4    4    0    0 -0.12192427720E+00  0.45646418805E+02 -0.39579370053E+02  0.60416363255E+02  0.00000000000E+00 0.  1.
         13    1    4    4    0    0  0.15549354001E+03  0.82980488536E+02 -0.62887971560E+02  0.18713337338E+03  0.00000000000E+00 0. -1.
        -13    1    3    3    0    0 -0.85258840849E+02 -0.69529395683E+02 -0.23123801550E+03  0.25607504099E+03  0.00000000000E+00 0.  1.
         13    1    3    3    0    0 -0.13839420342E+03 -0.34109890420E+02 -0.52331097893E+03  0.54237516613E+03  0.00000000000E+00 0. -1.
          1    1    1    2  501    0  0.68281428532E+02 -0.24987621238E+02 -0.64870912208E+02  0.97442136410E+02  0.00000000000E+00 0. -1.
<scales pt_clust_5="13000.00000" pt_clust_6="13000.00000" pt_clust_7="13000.00000" pt_clust_8="13000.00000" pt_clust_9="72.70994"></scales>
<clustering>
<clus scale="   72.710">  1  9  2 -1</clus>
<clus scale="   86.121">  7  8 -1 -1</clus>
<clus scale="  100.479">  5  6 -1 -1</clus>
<clus scale="  250.144">  2  7  1 -1</clus>
<clus scale="   72.710">  1  5  2 -1</clus>
</clustering>
</event>
<event>
 9    1  0.1399746E-005  0.9728875E+02  0.7546771E-02  0.1287368E+00
         21   -1    0    0  501  502  0.00000000000E+00  0.00000000000E+00  0.24881576510E+03  0.24881576510E+03  0.00000000000E+00 0. -1.
          2   -1    0    0  502    0 -0.00000000000E+00 -0.00000000000E+00 -0.24638844760E+03  0.24638844760E+03  0.00000000000E+00 0. -1.
         23    2    1    2    0    0 -0.46419739974E+02 -0.92724173471E+01 -0.16689321400E+03  0.19563140809E+03  0.90429712874E+02 0.  0.
         23    2    1    2    0    0  0.10561075317E+02  0.42148697486E+01 -0.32551770370E+02  0.94478073133E+02  0.87961281880E+02 0.  0.
        -13    1    4    4    0    0 -0.25915558034E+02  0.26495260290E+02 -0.35907083650E+02  0.51603620244E+02  0.00000000000E+00 0. -1.
         13    1    4    4    0    0  0.36476633351E+02 -0.22280390542E+02  0.33553132799E+01  0.42874452889E+02  0.00000000000E+00 0.  1.
        -13    1    3    3    0    0  0.12257547895E+02 -0.34992308622E+02 -0.48901229503E+02  0.61368064904E+02  0.00000000000E+00 0. -1.
         13    1    3    3    0    0 -0.58677287869E+02  0.25719891275E+02 -0.11799198449E+03  0.13426334319E+03  0.00000000000E+00 0.  1.
          2    1    1    2  501    0  0.35858664657E+02  0.50575475986E+01  0.20187230187E+03  0.20509473148E+03  0.00000000000E+00 0. -1.
<scales pt_clust_5="13000.00000" pt_clust_6="13000.00000" pt_clust_7="13000.00000" pt_clust_8="13000.00000" pt_clust_9="36.21357"></scales>
<clustering>
<clus scale="   36.214">  1  9  2 -1</clus>
<clus scale="   87.961">  5  6 -1 -1</clus>
<clus scale="   90.430">  7  8 -1 -1</clus>
<clus scale="   94.999">  1  5  2 -1</clus>
<clus scale="   36.214">  1  5  2 -1</clus>
</clustering>
</event>
<event>
 9    1  0.1399746E-005  0.1261589E+03  0.7546771E-02  0.1239168E+00
         21   -1    0    0  501  502  0.00000000000E+00  0.00000000000E+00  0.26982528846E+02  0.26982528846E+02  0.00000000000E+00 0.  1.
          1   -1    0    0  502    0 -0.00000000000E+00 -0.00000000000E+00 -0.80956297385E+03  0.80956297385E+03  0.00000000000E+00 0. -1.
         23    2    1    2    0    0  0.30172540547E+02  0.40538237856E+02 -0.31201660191E+03  0.32824269717E+03  0.88516537697E+02 0.  0.
         23    2    1    2    0    0 -0.53997278106E+02 -0.79080580883E+02 -0.39672312784E+03  0.42166804601E+03  0.10604365400E+03 0.  0.
        -13    1    3    3    0    0  0.39596309418E+02 -0.16146598108E+02 -0.10433395061E+03  0.11275705565E+03  0.00000000000E+00 0. -1.
         13    1    3    3    0    0 -0.94237688713E+01  0.56684835964E+02 -0.20768265130E+03  0.21548564152E+03  0.00000000000E+00 0.  1.
        -13    1    4    4    0    0  0.28490878624E+02 -0.45418029182E+02 -0.13912106224E+03  0.14909459245E+03  0.00000000000E+00 0. -1.
         13    1    4    4    0    0 -0.82488156731E+02 -0.33662551701E+02 -0.25760206560E+03  0.27257345356E+03  0.00000000000E+00 0.  1.
          1    1    1    2  501    0  0.23824737560E+02  0.38542343027E+02 -0.73840715253E+02  0.86634759507E+02  0.00000000000E+00 0. -1.
<scales pt_clust_5="13000.00000" pt_clust_6="13000.00000" pt_clust_7="13000.00000" pt_clust_8="13000.00000" pt_clust_9="45.31148"></scales>
<clustering>
<clus scale="   45.311">  1  9  2 -1</clus>
<clus scale="   88.517">  5  6 -1 -1</clus>
<clus scale="  106.044">  7  8 -1 -1</clus>
<clus scale="  111.830">  2  5  1 -1</clus>
<clus scale="   45.311">  1  5  2 -1</clus>
</clustering>
</event>
<event>
 9    1  0.1399746E-005  0.1839832E+03  0.7546771E-02  0.1164090E+00
          1   -1    0    0  502    0 -0.00000000000E+00  0.00000000000E+00  0.10654728941E+04  0.10654728941E+04  0.00000000000E+00 0. -1.
         21   -1    0    0  501  502  0.00000000000E+00 -0.00000000000E+00 -0.76440206598E+02  0.76440206598E+02  0.00000000000E+00 0.  1.
         23    2    1    2    0    0 -0.14951773293E+03  0.11360389172E+02  0.63256779177E+03  0.65648443446E+03  0.91352014769E+02 0.  0.
         23    2    1    2    0    0  0.18052098111E+03  0.31136688908E+02  0.37684792169E+03  0.42901350174E+03  0.92091859416E+02 0.  0.
        -11    1    4    4    0    0  0.12377081755E+03  0.10650360297E+02  0.33005573998E+03  0.35266051231E+03  0.00000000000E+00 0.  1.
         11    1    4    4    0    0  0.56750163564E+02  0.20486328611E+02  0.46792181712E+02  0.76352989424E+02  0.00000000000E+00 0. -1.
        -13    1    3    3    0    0 -0.10944868056E+02 -0.19096000075E+02  0.28673537239E+02  0.36147186522E+02  0.00000000000E+00 0.  1.
         13    1    3    3    0    0 -0.13857286487E+03  0.30456389247E+02  0.60389425453E+03  0.62033724794E+03  0.00000000000E+00 0. -1.
          1    1    1    2  501    0 -0.31003248182E+02 -0.42497078080E+02 -0.20383025930E+02  0.56415164532E+02  0.00000000000E+00 0. -1.
<scales pt_clust_5="13000.00000" pt_clust_6="13000.00000" pt_clust_7="13000.00000" pt_clust_8="13000.00000" pt_clust_9="52.60421"></scales>
<clustering>
<clus scale="   52.604">  2  9  1 -1</clus>
<clus scale="   91.352">  7  8 -1 -1</clus>
<clus scale="   92.092">  5  6 -1 -1</clus>
<clus scale="  183.614">  1  7  2 -1</clus>
<clus scale="   52.604">  2  5  1 -1</clus>
</clustering>
</event>
<event>
 9    1  0.1399746E-005  0.1218665E+03  0.7546771E-02  0.1241715E+00
          2   -1    0    0  502    0 -0.00000000000E+00  0.00000000000E+00  0.48842071373E+03  0.48842071373E+03  0.00000000000E+00 0. -1.
         21   -1    0    0  501  502  0.00000000000E+00 -0.00000000000E+00 -0.40342847452E+02  0.40342847452E+02  0.00000000000E+00 0.  1.
         23    2    1    2    0    0 -0.78481136273E+01  0.86951844236E+02  0.22690523786E+03  0.25997955810E+03  0.92093254698E+02 0.  0.
         23    2    1    2    0    0  0.27363577956E+02 -0.55167345253E+02  0.17465849136E+03  0.20916292736E+03  0.97218003457E+02 0.  0.
        -11    1    4    4    0    0  0.45309611400E+02 -0.19521370959E+02  0.27071453943E+02  0.56275291452E+02  0.00000000000E+00 0.  1.
         11    1    4    4    0    0 -0.17946033444E+02 -0.35645974293E+02  0.14758703742E+03  0.15288763591E+03  0.00000000000E+00 0. -1.
        -11    1    3    3    0    0 -0.30703950043E+02  0.95891224455E+02  0.16381670075E+03  0.19228564929E+03  0.00000000000E+00 0. -1.
         11    1    3    3    0    0  0.22855836415E+02 -0.89393802191E+01  0.63088537106E+02  0.67693908818E+02  0.00000000000E+00 0.  1.
          2    1    1    2  501    0 -0.19515464329E+02 -0.31784498983E+02  0.46514137059E+02  0.59621075720E+02  0.00000000000E+00 0. -1.
<scales pt_clust_5="13000.00000" pt_clust_6="13000.00000" pt_clust_7="13000.00000" pt_clust_8="13000.00000" pt_clust_9="37.29756"></scales>
<clustering>
<clus scale="   37.298">  2  9  1 -1</clus>
<clus scale="   92.093">  7  8 -1 -1</clus>
<clus scale="   97.218">  5  6 -1 -1</clus>
<clus scale="  117.819">  1  7  2 -1</clus>
<clus scale="   37.298">  2  5  1 -1</clus>
</clustering>
</event>
<event>
 9    1  0.1399746E-005  0.1129112E+03  0.7546771E-02  0.1256113E+00
         21   -1    0    0  501  502  0.00000000000E+00  0.00000000000E+00  0.48469684092E+03  0.48469684092E+03  0.00000000000E+00 0.  1.
          1   -1    0    0  502    0 -0.00000000000E+00 -0.00000000000E+00 -0.44630858998E+02  0.44630858998E+02  0.00000000000E+00 0. -1.
         23    2    1    2    0    0 -0.69149320229E+02  0.28107259964E+02  0.95697896085E+02  0.15070070692E+03  0.89336270347E+02 0.  0.
         23    2    1    2    0    0  0.36633093533E+02 -0.43619757551E+02  0.17597139678E+03  0.20641959633E+03  0.91643060169E+02 0.  0.
        -11    1    3    3    0    0 -0.68689856431E+02 -0.17323021825E+02  0.61917122181E+02  0.94085670964E+02  0.00000000000E+00 0.  1.
         11    1    3    3    0    0 -0.45946379768E+00  0.45430281789E+02  0.33780773905E+02  0.56615035953E+02  0.00000000000E+00 0. -1.
        -13    1    4    4    0    0 -0.31556452326E+01 -0.56272946225E+02  0.14137775318E+03  0.15219813293E+03  0.00000000000E+00 0.  1.
         13    1    4    4    0    0  0.39788738766E+02  0.12653188675E+02  0.34593643593E+02  0.54221463400E+02  0.00000000000E+00 0. -1.
          1    1    1    2  501    0  0.32516226695E+02  0.15512497587E+02  0.16839668906E+03  0.17220739667E+03  0.00000000000E+00 0. -1.
<scales pt_clust_5="13000.00000" pt_clust_6="13000.00000" pt_clust_7="13000.00000" pt_clust_8="13000.00000" pt_clust_9="36.02697"></scales>
<clustering>
<clus scale="   36.027">  1  9  2 -1</clus>
<clus scale="   89.336">  5  6 -1 -1</clus>
<clus scale="   91.643">  7  8 -1 -1</clus>
<clus scale="  111.047">  2  5  1 -1</clus>
<clus scale="   36.027">  1  5  2 -1</clus>
</clustering>
</event>
<event>
 9    1  0.1399746E-005  0.1062156E+03  0.7546771E-02  0.1270538E+00
          1   -1    0    0  502    0 -0.00000000000E+00  0.00000000000E+00  0.52806385972E+03  0.52806385972E+03  0.00000000000E+00 0. -1.
         21   -1    0    0  501  502  0.00000000000E+00 -0.00000000000E+00 -0.13061263147E+03  0.13061263147E+03  0.00000000000E+00 0. -1.
         23    2    1    2    0    0  0.56085208000E+02  0.12203109006E+02  0.27883909952E+03  0.29845407551E+03  0.89605386803E+02 0.  0.
         23    2    1    2    0    0 -0.33646408896E+02  0.20013659179E+02  0.22453588561E+03  0.24725665924E+03  0.95848131065E+02 0.  0.
        -11    1    4    4    0    0 -0.42034518826E+02 -0.87041622239E+01  0.20934967334E+03  0.21370528524E+03  0.00000000000E+00 0.  1.
         11    1    4    4    0    0  0.83881099305E+01  0.28717821402E+02  0.15186212270E+02  0.33551374002E+02  0.00000000000E+00 0. -1.
        -13    1    3    3    0    0  0.73182588319E+02  0.27635280404E+02  0.16900788505E+03  0.18623389908E+03  0.00000000000E+00 0.  1.
         13    1    3    3    0    0 -0.17097380320E+02 -0.15432171397E+02  0.10983121447E+03  0.11222017643E+03  0.00000000000E+00 0. -1.
          1    1    1    2  501    0 -0.22438799104E+02 -0.32216768185E+02 -0.10592375688E+03  0.11296575644E+03  0.00000000000E+00 0. -1.
<scales pt_clust_5="13000.00000" pt_clust_6="13000.00000" pt_clust_7="13000.00000" pt_clust_8="13000.00000" pt_clust_9="39.26092"></scales>
<clustering>
<clus scale="   39.261">  2  9  1 -1</clus>
<clus scale="   89.605">  7  8 -1 -1</clus>
<clus scale="   95.848">  5  6 -1 -1</clus>
<clus scale="  100.618">  1  7  2 -1</clus>
<clus scale="   39.261">  2  5  1 -1</clus>
</clustering>
</event>
<event>
 9    1  0.1399746E-005  0.2393173E+03  0.7546771E-02  0.1120679E+00
         21   -1    0    0  501  502  0.00000000000E+00  0.00000000000E+00  0.20843610182E+03  0.20843610182E+03  0.00000000000E+00 0.  1.
          1   -1    0    0  502    0 -0.00000000000E+00 -0.00000000000E+00 -0.57291769944E+03  0.57291769944E+03  0.00000000000E+00 0. -1.
         23    2    1    2    0    0  0.22096486978E+03  0.84965324613E+01 -0.39103678449E+03  0.45939263571E+03  0.96094548149E+02 0.  0.
         23    2    1    2    0    0 -0.21199671537E+03 -0.37678709791E+02 -0.50923882693E+02  0.23868431710E+03  0.89524683200E+02 0.  0.
        -11    1    4    4    0    0 -0.10935091313E+03  0.25103078444E+02 -0.33611771221E+02  0.11712189340E+03  0.00000000000E+00 0.  1.
         11    1    4    4    0    0 -0.10264580224E+03 -0.62781788235E+02 -0.17312111472E+02  0.12156242369E+03  0.00000000000E+00 0. -1.
        -11    1    3    3    0    0  0.11397170321E+03 -0.13791320366E+02 -0.11494401079E+03  0.16245576403E+03  0.00000000000E+00 0.  1.
         11    1    3    3    0    0  0.10699316656E+03  0.22287852827E+02 -0.27609277369E+03  0.29693687168E+03  0.00000000000E+00 0. -1.
          1    1    1    2  501    0 -0.89681544072E+01  0.29182177330E+02  0.77479069566E+02  0.83276848452E+02  0.00000000000E+00 0. -1.
<scales pt_clust_5="13000.00000" pt_clust_6="13000.00000" pt_clust_7="13000.00000" pt_clust_8="13000.00000" pt_clust_9="30.52912"></scales>
<clustering>
<clus scale="   30.529">  1  9  2 -1</clus>
<clus scale="   89.525">  5  6 -1 -1</clus>
<clus scale="   96.095">  7  8 -1 -1</clus>
<clus scale="  236.756">  1  5  2 -1</clus>
<clus scale="   30.529">  1  5  2 -1</clus>
</clustering>
</event>
<event>
 9    1  0.1399746E-005  0.1321026E+03  0.7546771E-02  0.1239582E+00
          2   -1    0    0  502    0 -0.00000000000E+00  0.00000000000E+00  0.11410577972E+04  0.11410577972E+04  0.00000000000E+00 0. -1.
         21   -1    0    0  501  502  0.00000000000E+00 -0.00000000000E+00 -0.24304099901E+02  0.24304099901E+02  0.00000000000E+00 0. -1.
         23    2    1    2    0    0 -0.13213877558E+02  0.32408159289E+02  0.24100865856E+03  0.25964305204E+03  0.90024694511E+02 0.  0.
         23    2    1    2    0    0  0.48935632400E+02  0.68441954079E+02  0.47293679469E+03  0.48894400105E+03  0.91203219167E+02 0.  0.
        -11    1    3    3    0    0  0.21201776251E+02 -0.19201794017E+02  0.39276088686E+02  0.48588428171E+02  0.00000000000E+00 0.  1.
         11    1    3    3    0    0 -0.34415653810E+02  0.51609953306E+02  0.20173256988E+03  0.21105462387E+03  0.00000000000E+00 0. -1.
        -11    1    4    4    0    0 -0.25860432089E+02  0.61056820451E+01  0.11147264178E+03  0.11459577290E+03  0.00000000000E+00 0.  1.
         11    1    4    4    0    0  0.74796064489E+02  0.62336272033E+02  0.36146415292E+03  0.37434822815E+03  0.00000000000E+00 0. -1.
          2    1    1    2  501    0 -0.35721754842E+02 -0.10085011337E+03  0.40280824402E+03  0.41677484399E+03  0.00000000000E+00 0. -1.
<scales pt_clust_5="13000.00000" pt_clust_6="13000.00000" pt_clust_7="13000.00000" pt_clust_8="13000.00000" pt_clust_9="95.56712"></scales>
<clustering>
<clus scale="   90.025">  5  6 -1 -1</clus>
<clus scale="   91.203">  7  8 -1 -1</clus>
<clus scale="   96.589">  1  5  2 -1</clus>
<clus scale="   95.567">  2  9  1 -1</clus>
<clus scale="   95.567">  2  5  1 -1</clus>
</clustering>
</event>
<event>
 9    1  0.1399746E-005  0.9361641E+02  0.7546771E-02  0.1294430E+00
         21   -1    0    0  501  502  0.00000000000E+00  0.00000000000E+00  0.68463378881E+02  0.68463378881E+02  0.00000000000E+00 0. -1.
          2   -1    0    0  502    0 -0.00000000000E+00 -0.00000000000E+00 -0.34562101112E+03  0.34562101112E+03  0.00000000000E+00 0. -1.
         23    2    1    2    0    0  0.23452556340E+02  0.91231065674E+01 -0.25884880927E+03  0.27524659657E+03  0.90137280809E+02 0.  0.
         23    2    1    2    0    0 -0.27602488740E+02  0.17189627059E+02 -0.40470860925E+02  0.10418612946E+03  0.90329830759E+02 0.  0.
        -11    1    4    4    0    0 -0.55441318910E+02  0.17877091899E+02 -0.47841414622E+02  0.75379912511E+02  0.00000000000E+00 0.  1.
         11    1    4    4    0    0  0.27838830170E+02 -0.68746484049E+00  0.73705536963E+01  0.28806216949E+02  0.00000000000E+00 0. -1.
        -11    1    3    3    0    0  0.38717988941E+02 -0.15132140704E+02 -0.23291455816E+03  0.23659513045E+03  0.00000000000E+00 0. -1.
         11    1    3    3    0    0 -0.15265432601E+02  0.24255247271E+02 -0.25934251108E+02  0.38651466120E+02  0.00000000000E+00 0.  1.
          2    1    1    2  501    0  0.41499323993E+01 -0.26312733626E+02  0.22162037953E+02  0.34651663972E+02  0.00000000000E+00 0. -1.
<scales pt_clust_5="13000.00000" pt_clust_6="13000.00000" pt_clust_7="13000.00000" pt_clust_8="13000.00000" pt_clust_9="26.63798"></scales>
<clustering>
<clus scale="   26.638">  1  9  2 -1</clus>
<clus scale="   90.137">  7  8 -1 -1</clus>
<clus scale="   90.330">  5  6 -1 -1</clus>
<clus scale="   93.431">  2  7  1 -1</clus>
<clus scale="   26.638">  1  5  2 -1</clus>
</clustering>
</event>
<event>
 9    1  0.1399746E-005  0.2019389E+03  0.7546771E-02  0.1148331E+00
          3   -1    0    0  502    0 -0.00000000000E+00  0.00000000000E+00  0.84705919161E+03  0.84705919161E+03  0.00000000000E+00 0. -1.
         21   -1    0    0  501  502  0.00000000000E+00 -0.00000000000E+00 -0.15792371684E+03  0.15792371684E+03  0.00000000000E+00 0. -1.
         23    2    1    2    0    0 -0.13736916922E+03 -0.10836178036E+03  0.48450119558E+03  0.52290134366E+03  0.89843433775E+02 0.  0.
         23    2    1    2    0    0  0.13366069888E+03  0.13268938254E+03  0.30979479501E+03  0.37408008764E+03  0.92149022163E+02 0.  0.
        -11    1    4    4    0    0 -0.13067250901E+02  0.22264748831E+02  0.32785703135E+02  0.41729778536E+02  0.00000000000E+00 0.  1.
         11    1    4    4    0    0  0.14672794978E+03  0.11042463371E+03  0.27700909188E+03  0.33235030910E+03  0.00000000000E+00 0. -1.
        -11    1    3    3    0    0 -0.67358071854E+02 -0.10550007284E+03  0.27925440428E+03  0.30602352446E+03  0.00000000000E+00 0.  1.
         11    1    3    3    0    0 -0.70011097364E+02 -0.28617075210E+01  0.20524679130E+03  0.21687781920E+03  0.00000000000E+00 0. -1.
          3    1    1    2  501    0  0.37084703383E+01 -0.24327602184E+02 -0.10516051582E+03  0.10800147716E+03  0.00000000000E+00 0. -1.
<scales pt_clust_5="13000.00000" pt_clust_6="13000.00000" pt_clust_7="13000.00000" pt_clust_8="13000.00000" pt_clust_9="24.60864"></scales>
<clustering>
<clus scale="   24.609">  2  9  1 -1</clus>
<clus scale="   89.843">  7  8 -1 -1</clus>
<clus scale="   92.149">  5  6 -1 -1</clus>
<clus scale="  200.897">  1  7  2 -1</clus>
<clus scale="   24.609">  2  5  1 -1</clus>
</clustering>
</event>
<event>
 9    1  0.1399746E-005  0.9261472E+02  0.7546771E-02  0.1296998E+00
         21   -1    0    0  501  502  0.00000000000E+00  0.00000000000E+00  0.49639858586E+02  0.49639858586E+02  0.00000000000E+00 0. -1.
          3   -1    0    0  502    0 -0.00000000000E+00 -0.00000000000E+00 -0.61268116610E+03  0.61268116610E+03  0.00000000000E+00 0. -1.
         23    2    1    2    0    0  0.50522928192E+02 -0.15346825786E+01 -0.31013049809E+03  0.32719784138E+03  0.91228175631E+02 0.  0.
         23    2    1    2    0    0  0.21693508592E+02  0.10822872376E+02 -0.24444449960E+03  0.26182132376E+03  0.90606563263E+02 0.  0.
        -13    1    4    4    0    0  0.52135771353E+02  0.21437592393E+02 -0.19340013986E+03  0.20144806557E+03  0.00000000000E+00 0. -1.
         13    1    4    4    0    0 -0.30442262762E+02 -0.10614720018E+02 -0.51044359742E+02  0.60373258190E+02  0.00000000000E+00 0.  1.
        -13    1    3    3    0    0  0.17134359493E+02 -0.42696894613E+02 -0.93879518003E+02  0.10454652068E+03  0.00000000000E+00 0.  1.
         13    1    3    3    0    0  0.33388568699E+02  0.41162212034E+02 -0.21625098009E+03  0.22265132070E+03  0.00000000000E+00 0. -1.
          3    1    1    2  501    0 -0.72216436784E+02 -0.92881897972E+01 -0.84663098116E+01  0.73301859549E+02  0.00000000000E+00 0. -1.
<scales pt_clust_5="13000.00000" pt_clust_6="13000.00000" pt_clust_7="13000.00000" pt_clust_8="13000.00000" pt_clust_9="72.81129"></scales>
<clustering>
<clus scale="   72.811">  1  9  2 -1</clus>
<clus scale="   90.607">  5  6 -1 -1</clus>
<clus scale="   91.228">  7  8 -1 -1</clus>
<clus scale="   92.002">  1  5  2 -1</clus>
<clus scale="   72.811">  1  5  2 -1</clus>
</clustering>
</event>
<event>
 9    1  0.1399746E-005  0.1097115E+03  0.7546771E-02  0.1261131E+00
          3   -1    0    0  502    0 -0.00000000000E+00  0.00000000000E+00  0.74119234404E+03  0.74119234404E+03  0.00000000000E+00 0. -1.
         21   -1    0    0  501  502  0.00000000000E+00 -0.00000000000E+00 -0.32697190234E+02  0.32697190234E+02  0.00000000000E+00 0.  1.
         23    2    1    2    0    0 -0.81695570241E+02  0.70159868673E+01  0.52733750321E+03  0.54083493259E+03  0.87716542090E+02 0.  0.
         23    2    1    2    0    0  0.31636542339E+02 -0.13139103313E+01  0.13867131680E+03  0.16714930211E+03  0.87787003157E+02 0.  0.
        -11    1    4    4    0    0 -0.21881006046E+02  0.41180119242E+01  0.95826987792E+02  0.98379611897E+02  0.00000000000E+00 0.  1.
         11    1    4    4    0    0  0.53517548385E+02 -0.54319222554E+01  0.42844329005E+02  0.68769690216E+02  0.00000000000E+00 0. -1.
        -13    1    3    3    0    0 -0.88709209202E+02 -0.19980538910E+02  0.43376526840E+03  0.44319392347E+03  0.00000000000E+00 0.  1.
         13    1    3    3    0    0  0.70136389611E+01  0.26996525777E+02  0.93572234805E+02  0.97641009120E+02  0.00000000000E+00 0. -1.
          3    1    1    2  501    0  0.50059027902E+02 -0.57020765360E+01  0.42486333804E+02  0.65905299570E+02  0.00000000000E+00 0. -1.
<scales pt_clust_5="13000.00000" pt_clust_6="13000.00000" pt_clust_7="13000.00000" pt_clust_8="13000.00000" pt_clust_9="50.38273"></scales>
<clustering>
<clus scale="   50.383">  2  9  1 -1</clus>
<clus scale="   87.717">  7  8 -1 -1</clus>
<clus scale="   87.787">  5  6 -1 -1</clus>
<clus scale="  109.655">  1  7  2 -1</clus>
<clus scale="   50.383">  2  5  1 -1</clus>
</clustering>
</event>
<event>
 9    1  0.1399746E-005  0.3500032E+03  0.7546771E-02  0.1099387E+00
         21   -1    0    0  501  502  0.00000000000E+00  0.00000000000E+00  0.74647228581E+03  0.74647228581E+03  0.00000000000E+00 0. -1.
          2   -1    0    0  502    0 -0.00000000000E+00 -0.00000000000E+00 -0.24485812163E+03  0.24485812163E+03  0.00000000000E+00 0. -1.
         23    2    1    2    0    0 -0.18755980368E+02 -0.94319439529E+02  0.25144707876E+02  0.13258851332E+03  0.87746874910E+02 0.  0.
         23    2    1    2    0    0 -0.30550454906E+03  0.17467638958E+03  0.15605055721E+03  0.39584838450E+03  0.92191629390E+02 0.  0.
        -11    1    4    4    0    0 -0.14426898468E+03  0.67379168646E+02  0.11870649506E+03  0.19860695929E+03  0.00000000000E+00 0.  1.
         11    1    4    4    0    0 -0.16123556438E+03  0.10729722094E+03  0.37344062155E+02  0.19724142521E+03  0.00000000000E+00 0. -1.
        -13    1    3    3    0    0 -0.37079336958E+02 -0.14919497038E+02  0.31449715518E+02  0.50858167754E+02  0.00000000000E+00 0.  1.
         13    1    3    3    0    0  0.18323356590E+02 -0.79399942491E+02 -0.63050076419E+01  0.81730345562E+02  0.00000000000E+00 0. -1.
          2    1    1    2  501    0  0.32426052942E+03 -0.80356950053E+02  0.32041889909E+03  0.46289350963E+03  0.00000000000E+00 0. -1.
<scales pt_clust_5="13000.00000" pt_clust_6="13000.00000" pt_clust_7="13000.00000" pt_clust_8="13000.00000" pt_clust_9="337.64319"></scales>
<clustering>
<clus scale="   87.747">  7  8 -1 -1</clus>
<clus scale="   92.192">  5  6 -1 -1</clus>
<clus scale="  130.182">  2  7  1 -1</clus>
<clus scale="  337.643">  1  9  2 -1</clus>
<clus scale="  337.643">  1  5  2 -1</clus>
</clustering>
</event>
<event>
 9    1  0.1399746E-005  0.9315718E+02  0.7546771E-02  0.1295442E+00
         21   -1    0    0  501  502  0.00000000000E+00  0.00000000000E+00  0.25359097943E+03  0.25359097943E+03  0.00000000000E+00 0. -1.
         -1   -1    0    0    0  501 -0.00000000000E+00 -0.00000000000E+00 -0.56739889237E+02  0.56739889237E+02  0.00000000000E+00 0.  1.
         23    2    1    2    0    0 -0.23102310538E+01 -0.72385646574E-01  0.43276036736E+02  0.10135012141E+03  0.91617079995E+02 0.  0.
         23    2    1    2    0    0  0.32136730027E+02  0.27686690875E+02  0.11136038742E+03  0.15037829063E+03  0.91723345654E+02 0.  0.
        -11    1    3    3    0    0  0.15743495214E+02 -0.21239213699E+02 -0.19390046243E+02  0.32786212551E+02  0.00000000000E+00 0. -1.
         11    1    3    3    0    0 -0.18053726268E+02  0.21166828052E+02  0.62666082979E+02  0.68563908858E+02  0.00000000000E+00 0.  1.
        -13    1    4    4    0    0  0.28743455472E+02 -0.58492724355E+01 -0.45346313103E+01  0.29681022584E+02  0.00000000000E+00 0.  1.
         13    1    4    4    0    0  0.33932745547E+01  0.33535963310E+02  0.11589501873E+03  0.12069726804E+03  0.00000000000E+00 0. -1.
         -1    1    1    2    0  502 -0.29826498973E+02 -0.27614305228E+02  0.42214666035E+02  0.58602456627E+02  0.00000000000E+00 0.  1.
<scales pt_clust_5="13000.00000" pt_clust_6="13000.00000" pt_clust_7="13000.00000" pt_clust_8="13000.00000" pt_clust_9="40.64689"></scales>
<clustering>
<clus scale="   40.647">  1  9  2 -1</clus>
<clus scale="   91.617">  5  6 -1 -1</clus>
<clus scale="   91.723">  7  8 -1 -1</clus>
<clus scale="   93.053">  2  5  1 -1</clus>
<clus scale="   40.647">  1  5  2 -1</clus>
</clustering>
</event>
<event>
 9    1  0.1399746E-005  0.1218043E+03  0.7546771E-02  0.1241555E+00
         21   -1    0    0  501  502  0.00000000000E+00  0.00000000000E+00  0.12677860799E+03  0.12677860799E+03  0.00000000000E+00 0.  1.
          2   -1    0    0  502    0 -0.00000000000E+00 -0.00000000000E+00 -0.18386324968E+03  0.18386324968E+03  0.00000000000E+00 0. -1.
         23    2    1    2    0    0  0.85349037446E+01 -0.77906857782E+02 -0.89881349840E+02  0.15136813534E+03  0.93227315073E+02 0.  0.
         23    2    1    2    0    0  0.22183576188E+02  0.79703741211E+02  0.39894738763E+02  0.12769468121E+03  0.88710450417E+02 0.  0.
        -11    1    3    3    0    0  0.15619403732E+02  0.17033384426E+02 -0.33573582290E+02  0.40758893333E+02  0.00000000000E+00 0.  1.
         11    1    3    3    0    0 -0.70844999875E+01 -0.94940242209E+02 -0.56307767549E+02  0.11060924201E+03  0.00000000000E+00 0. -1.
        -13    1    4    4    0    0  0.20592232328E+02  0.33317858222E+01  0.46556556743E+02  0.51016211196E+02  0.00000000000E+00 0.  1.
         13    1    4    4    0    0  0.15913438602E+01  0.76371955389E+02 -0.66618179795E+01  0.76678470016E+02  0.00000000000E+00 0. -1.
          2    1    1    2  501    0 -0.30718479932E+02 -0.17968834283E+01 -0.70980306214E+01  0.31579041121E+02  0.00000000000E+00 0. -1.
<scales pt_clust_5="13000.00000" pt_clust_6="13000.00000" pt_clust_7="13000.00000" pt_clust_8="13000.00000" pt_clust_9="30.77100"></scales>
<clustering>
<clus scale="   30.771">  1  9  2 -1</clus>
<clus scale="   88.710">  7  8 -1 -1</clus>
<clus scale="   93.227">  5  6 -1 -1</clus>
<clus scale="  118.383">  1  7  2 -1</clus>
<clus scale="   30.771">  1  5  2 -1</clus>
</clustering>
</event>
<event>
 9    1  0.1399746E-005  0.9968868E+02  0.7546771E-02  0.1282853E+00
         21   -1    0    0  501  502  0.00000000000E+00  0.00000000000E+00  0.86399752017E+02  0.86399752017E+02  0.00000000000E+00 0. -1.
         -1   -1    0    0    0  501 -0.00000000000E+00 -0.00000000000E+00 -0.25819284535E+03  0.25819284535E+03  0.00000000000E+00 0.  1.
         23    2    1    2    0    0 -0.29052599926E+02  0.16049174153E+02 -0.16972258012E+03  0.19397213662E+03  0.87851044563E+02 0.  0.
         23    2    1    2    0    0  0.48899190874E+02 -0.46792032510E+02 -0.30630431542E+01  0.11401451003E+03  0.91702241464E+02 0.  0.
        -11    1    3    3    0    0 -0.47989755840E+02  0.17166424223E+00 -0.41669403114E+02  0.63556158554E+02  0.00000000000E+00 0. -1.
         11    1    3    3    0    0  0.18937155914E+02  0.15877509911E+02 -0.12805317700E+03  0.13041597807E+03  0.00000000000E+00 0.  1.
        -11    1    4    4    0    0  0.19603679753E+02 -0.72082854447E+02  0.33910438848E+01  0.74777946908E+02  0.00000000000E+00 0. -1.
         11    1    4    4    0    0  0.29295511122E+02  0.25290821937E+02 -0.64540870390E+01  0.39236563122E+02  0.00000000000E+00 0.  1.
         -1    1    1    2    0  502 -0.19846590949E+02  0.30742858357E+02  0.99252993603E+00  0.36605950717E+02  0.00000000000E+00 0.  1.
<scales pt_clust_5="13000.00000" pt_clust_6="13000.00000" pt_clust_7="13000.00000" pt_clust_8="13000.00000" pt_clust_9="36.59249"></scales>
<clustering>
<clus scale="   36.592">  1  9  2 -1</clus>
<clus scale="   87.851">  5  6 -1 -1</clus>
<clus scale="   91.702">  7  8 -1 -1</clus>
<clus scale="   96.158">  2  5  1 -1</clus>
<clus scale="   36.592">  1  5  2 -1</clus>
</clustering>
</event>
<event>
 9    1  0.1399746E-005  0.1386068E+03  0.7546771E-02  0.1215448E+00
          2   -1    0    0  502    0 -0.00000000000E+00  0.00000000000E+00  0.75334676431E+03  0.75334676431E+03  0.00000000000E+00 0. -1.
         21   -1    0    0  501  502  0.00000000000E+00 -0.00000000000E+00 -0.41839758673E+02  0.41839758673E+02  0.00000000000E+00 0. -1.
         23    2    1    2    0    0 -0.88078261203E+02  0.15944342886E+02  0.29047643078E+03  0.31704977073E+03  0.90177592083E+02 0.  0.
         23    2    1    2    0    0  0.10541011947E+03 -0.76219289433E+02  0.34314466576E+03  0.37813836563E+03  0.91212326764E+02 0.  0.
        -11    1    4    4    0    0  0.62014576340E+02 -0.52332872985E+02  0.94279162752E+02  0.12439090724E+03  0.00000000000E+00 0.  1.
         11    1    4    4    0    0  0.43395543125E+02 -0.23886416448E+02  0.24886550301E+03  0.25374745840E+03  0.00000000000E+00 0. -1.
        -13    1    3    3    0    0  0.10601857060E+02  0.24863755253E+02  0.79401615778E+02  0.83876231952E+02  0.00000000000E+00 0.  1.
         13    1    3    3    0    0 -0.98680118263E+02 -0.89194123672E+01  0.21107481500E+03  0.23317353878E+03  0.00000000000E+00 0. -1.
          2    1    1    2  501    0 -0.17331858262E+02  0.60274946547E+02  0.77885909099E+02  0.99998386628E+02  0.00000000000E+00 0. -1.
<scales pt_clust_5="13000.00000" pt_clust_6="13000.00000" pt_clust_7="13000.00000" pt_clust_8="13000.00000" pt_clust_9="62.71732"></scales>
<clustering>
<clus scale="   62.717">  2  9  1 -1</clus>
<clus scale="   90.178">  7  8 -1 -1</clus>
<clus scale="   91.212">  5  6 -1 -1</clus>
<clus scale="  137.928">  1  7  2 -1</clus>
<clus scale="   62.717">  2  5  1 -1</clus>
</clustering>
</event>
<event>
 9    1  0.1399746E-005  0.9964437E+02  0.7546771E-02  0.1284370E+00
         21   -1    0    0  501  502  0.00000000000E+00  0.00000000000E+00  0.74014318959E+02  0.74014318959E+02  0.00000000000E+00 0. -1.
          1   -1    0    0  502    0 -0.00000000000E+00 -0.00000000000E+00 -0.27931814882E+03  0.27931814882E+03  0.00000000000E+00 0. -1.
         23    2    1    2    0    0 -0.17242530097E+02  0.44659263660E+02 -0.15672259301E+03  0.18461151177E+03  0.85015789382E+02 0.  0.
         23    2    1    2    0    0 -0.23958285304E+02 -0.28358563199E+02 -0.68331633048E+02  0.12021015129E+03  0.91668210716E+02 0.  0.
        -11    1    4    4    0    0 -0.31675421850E+02  0.27841252369E+02 -0.28841377875E+02  0.51091024267E+02  0.00000000000E+00 0. -1.
         11    1    4    4    0    0  0.77171365456E+01 -0.56199815568E+02 -0.39490255172E+02  0.69119127020E+02  0.00000000000E+00 0.  1.
        -13    1    3    3    0    0 -0.33634809285E+02  0.62572183159E+02 -0.13233721397E+03  0.15019892377E+03  0.00000000000E+00 0. -1.
         13    1    3    3    0    0  0.16392279188E+02 -0.17912919499E+02 -0.24385379040E+02  0.34412588000E+02  0.00000000000E+00 0.  1.
          1    1    1    2  501    0  0.41200815401E+02 -0.16300700461E+02  0.19750396192E+02  0.48510804724E+02  0.00000000000E+00 0. -1.
<scales pt_clust_5="13000.00000" pt_clust_6="13000.00000" pt_clust_7="13000.00000" pt_clust_8="13000.00000" pt_clust_9="44.30824"></scales>
<clustering>
<clus scale="   44.308">  1  9  2 -1</clus>
<clus scale="   85.016">  7  8 -1 -1</clus>
<clus scale="   91.668">  5  6 -1 -1</clus>
<clus scale="   93.561">  2  7  1 -1</clus>
<clus scale="   44.308">  1  5  2 -1</clus>
</clustering>
</event>
<event>
 9    1  0.1399746E-005  0.2800235E+03  0.7546771E-02  0.1096088E+00
          3   -1    0    0  502    0 -0.00000000000E+00  0.00000000000E+00  0.12047288415E+04  0.12047288415E+04  0.00000000000E+00 0. -1.
         21   -1    0    0  501  502  0.00000000000E+00 -0.00000000000E+00 -0.10976229838E+03  0.10976229838E+03  0.00000000000E+00 0.  1.
         23    2    1    2    0    0 -0.88152243318E+02 -0.24926704651E+03  0.83122248233E+03  0.87806808032E+03  0.10083580753E+03 0.  0.
         23    2    1    2    0    0  0.14635748644E+03  0.21254111111E+03  0.17926758175E+03  0.32746012931E+03  0.92190198342E+02 0.  0.
        -11    1    3    3    0    0 -0.25137141997E+02 -0.19810298355E+03  0.63697573091E+03  0.66754381862E+03  0.00000000000E+00 0. -1.
         11    1    3    3    0    0 -0.63015101321E+02 -0.51164062960E+02  0.19424675141E+03  0.21052426171E+03  0.00000000000E+00 0.  1.
        -13    1    4    4    0    0 -0.10279992139E+02  0.34295469629E+02  0.33127770213E+02  0.48778136852E+02  0.00000000000E+00 0. -1.
         13    1    4    4    0    0  0.15663747858E+03  0.17824564148E+03  0.14613981154E+03  0.27868199246E+03  0.00000000000E+00 0.  1.
          3    1    1    2  501    0 -0.58205243126E+02  0.36725935395E+02  0.84476479029E+02  0.10896293024E+03  0.00000000000E+00 0. -1.
<scales pt_clust_5="13000.00000" pt_clust_6="13000.00000" pt_clust_7="13000.00000" pt_clust_8="13000.00000" pt_clust_9="68.82329"></scales>
<clustering>
<clus scale="   68.823">  2  9  1 -1</clus>
<clus scale="   92.190">  7  8 -1 -1</clus>
<clus scale="  100.836">  5  6 -1 -1</clus>
<clus scale="  277.028">  2  7  1 -1</clus>
<clus scale="   68.823">  2  5  1 -1</clus>
</clustering>
</event>
<event>
 9    1  0.1399746E-005  0.1088491E+03  0.7546771E-02  0.1263335E+00
          1   -1    0    0  502    0 -0.00000000000E+00  0.00000000000E+00  0.24656056054E+03  0.24656056054E+03  0.00000000000E+00 0. -1.
         21   -1    0    0  501  502  0.00000000000E+00 -0.00000000000E+00 -0.12545432858E+03  0.12545432858E+03  0.00000000000E+00 0.  1.
         23    2    1    2    0    0 -0.40649165985E+02  0.42108176080E+02  0.16841044869E+03  0.20000379777E+03  0.90631047159E+02 0.  0.
         23    2    1    2    0    0  0.23639715742E+02 -0.53648642694E+02  0.11374772118E+02  0.10983611649E+03  0.92182286921E+02 0.  0.
        -11    1    3    3    0    0 -0.25917024047E+02 -0.22608052038E+01  0.14574447918E+03  0.14804815631E+03  0.00000000000E+00 0. -1.
         11    1    3    3    0    0 -0.14732141938E+02  0.44368981283E+02  0.22665969507E+02  0.51955641464E+02  0.00000000000E+00 0.  1.
        -13    1    4    4    0    0  0.33977482060E+02 -0.27241067173E+02 -0.34733870044E+02  0.55704459032E+02  0.00000000000E+00 0. -1.
         13    1    4    4    0    0 -0.10337766318E+02 -0.26407575522E+02  0.46108642162E+02  0.54131657460E+02  0.00000000000E+00 0.  1.
          1    1    1    2  501    0  0.17009450242E+02  0.11540466614E+02 -0.58678988838E+02  0.62174974856E+02  0.00000000000E+00 0. -1.
<scales pt_clust_5="13000.00000" pt_clust_6="13000.00000" pt_clust_7="13000.00000" pt_clust_8="13000.00000" pt_clust_9="20.55490"></scales>
<clustering>
<clus scale="   20.555">  2  9  1 -1</clus>
<clus scale="   90.631">  5  6 -1 -1</clus>
<clus scale="   92.182">  7  8 -1 -1</clus>
<clus scale="  107.539">  1  5  2 -1</clus>
<clus scale="   20.555">  2  5  1 -1</clus>
</clustering>
</event>
<event>
 9    1  0.1399746E-005  0.9227321E+02  0.7546771E-02  0.1297522E+00
         21   -1    0    0  501  502  0.00000000000E+00  0.00000000000E+00  0.20020459348E+02  0.20020459348E+02  0.00000000000E+00 0.  1.
          2   -1    0    0  502    0 -0.00000000000E+00 -0.00000000000E+00 -0.76611238615E+03  0.76611238615E+03  0.00000000000E+00 0. -1.
         23    2    1    2    0    0  0.89660574298E+01 -0.34180688123E+02 -0.32084753819E+03  0.33552037176E+03  0.91553631687E+02 0.  0.
         23    2    1    2    0    0  0.13319272564E+02 -0.16111881707E+02 -0.26779244491E+03  0.28382790285E+03  0.91697814203E+02 0.  0.
        -13    1    4    4    0    0  0.42432930450E+02 -0.43028156340E+01 -0.23332177538E+03  0.23718793956E+03  0.00000000000E+00 0.  1.
         13    1    4    4    0    0 -0.29113657886E+02 -0.11809066073E+02 -0.34470669532E+02  0.46639963283E+02  0.00000000000E+00 0. -1.
        -13    1    3    3    0    0 -0.10318336360E+01 -0.62472752418E+02 -0.26338841770E+03  0.27069792769E+03  0.00000000000E+00 0. -1.
         13    1    3    3    0    0  0.99978910658E+01  0.28292064294E+02 -0.57459120488E+02  0.64822444068E+02  0.00000000000E+00 0.  1.
          2    1    1    2  501    0 -0.22285329994E+02  0.50292569831E+02 -0.15745194370E+03  0.16678457090E+03  0.00000000000E+00 0. -1.
<scales pt_clust_5="13000.00000" pt_clust_6="13000.00000" pt_clust_7="13000.00000" pt_clust_8="13000.00000" pt_clust_9="55.00889"></scales>
<clustering>
<clus scale="   55.009">  1  9  2 -1</clus>
<clus scale="   91.554">  7  8 -1 -1</clus>
<clus scale="   91.698">  5  6 -1 -1</clus>
<clus scale="   92.130">  2  7  1 -1</clus>
<clus scale="   55.009">  1  5  2 -1</clus>
</clustering>
</event>
<event>
 9    1  0.1399746E-005  0.9667955E+02  0.7546771E-02  0.1287972E+00
          2   -1    0    0  502    0 -0.00000000000E+00  0.00000000000E+00  0.52743862164E+03  0.52743862164E+03  0.00000000000E+00 0. -1.
         21   -1    0    0  501  502  0.00000000000E+00 -0.00000000000E+00 -0.85544598304E+02  0.85544598304E+02  0.00000000000E+00 0. -1.
         23    2    1    2    0    0 -0.76885981172E+01 -0.17430249928E+02  0.33551233722E+03  0.34866653672E+03  0.92934908667E+02 0.  0.
         23    2    1    2    0    0  0.32051544594E+02  0.31265340675E+02  0.16797530398E+03  0.19665032038E+03  0.91928356459E+02 0.  0.
        -13    1    3    3    0    0  0.28469177342E+02 -0.39911593559E+02  0.13352282280E+03  0.14223843913E+03  0.00000000000E+00 0. -1.
         13    1    3    3    0    0 -0.36157775460E+02  0.22481343631E+02  0.20198951442E+03  0.20642809759E+03  0.00000000000E+00 0.  1.
        -13    1    4    4    0    0  0.44850036568E+02  0.54745399830E+02  0.91770485398E+02  0.11588963100E+03  0.00000000000E+00 0. -1.
         13    1    4    4    0    0 -0.12798491974E+02 -0.23480059155E+02  0.76204818583E+02  0.80760689386E+02  0.00000000000E+00 0.  1.
          2    1    1    2  501    0 -0.24362946477E+02 -0.13835090747E+02 -0.61593617869E+02  0.67666362834E+02  0.00000000000E+00 0. -1.
<scales pt_clust_5="13000.00000" pt_clust_6="13000.00000" pt_clust_7="13000.00000" pt_clust_8="13000.00000" pt_clust_9="28.01719"></scales>
<clustering>
<clus scale="   28.017">  2  9  1 -1</clus>
<clus scale="   91.928">  7  8 -1 -1</clus>
<clus scale="   92.935">  5  6 -1 -1</clus>
<clus scale="   95.712">  2  7  1 -1</clus>
<clus scale="   28.017">  2  5  1 -1</clus>
</clustering>
</event>
<event>
 9    1  0.1399746E-005  0.1075716E+03  0.7546771E-02  0.1267509E+00
          1   -1    0    0  502    0 -0.00000000000E+00  0.00000000000E+00  0.47724821351E+03  0.47724821351E+03  0.00000000000E+00 0. -1.
         21   -1    0    0  501  502  0.00000000000E+00 -0.00000000000E+00 -0.40454910390E+02  0.40454910390E+02  0.00000000000E+00 0. -1.
         23    2    1    2    0    0  0.18967172778E+02 -0.48198057537E+02  0.34382734779E+03  0.36026114983E+03  0.94276426542E+02 0.  0.
         23    2    1    2    0    0  0.43707906353E-01  0.54646217693E+02  0.88916015374E+02  0.13696285378E+03  0.88693599020E+02 0.  0.
        -11    1    4    4    0    0 -0.16945031251E+02  0.37735319598E+02 -0.34767870782E+01  0.41511160880E+02  0.00000000000E+00 0.  1.
         11    1    4    4    0    0  0.16988739157E+02  0.16910898096E+02  0.92392802453E+02  0.95451692901E+02  0.00000000000E+00 0. -1.
        -13    1    3    3    0    0  0.42126762962E+02 -0.42646323715E+02  0.32332841376E+03  0.32883831320E+03  0.00000000000E+00 0. -1.
         13    1    3    3    0    0 -0.23159590183E+02 -0.55517338218E+01  0.20498934021E+02  0.31422836630E+02  0.00000000000E+00 0.  1.
          1    1    1    2  501    0 -0.19010880685E+02 -0.64481601567E+01  0.40499399576E+01  0.20479120281E+02  0.00000000000E+00 0. -1.
<scales pt_clust_5="13000.00000" pt_clust_6="13000.00000" pt_clust_7="13000.00000" pt_clust_8="13000.00000" pt_clust_9="20.07467"></scales>
<clustering>
<clus scale="   20.075">  2  9  1 -1</clus>
<clus scale="   88.694">  5  6 -1 -1</clus>
<clus scale="   94.276">  7  8 -1 -1</clus>
<clus scale="  102.714">  2  5  1 -1</clus>
<clus scale="   20.075">  2  5  1 -1</clus>
</clustering>
</event>
<event>
 9    1  0.1399746E-005  0.2111811E+03  0.7546771E-02  0.1168708E+00
          1   -1    0    0  502    0 -0.00000000000E+00  0.00000000000E+00  0.63452480038E+03  0.63452480038E+03  0.00000000000E+00 0. -1.
         21   -1    0    0  501  502  0.00000000000E+00 -0.00000000000E+00 -0.35936283505E+03  0.35936283505E+03  0.00000000000E+00 0. -1.
         23    2    1    2    0    0  0.38206234977E+02  0.37921691111E+02  0.40551390412E+03  0.41995197031E+03  0.94975575205E+02 0.  0.
         23    2    1    2    0    0  0.63154895690E+02 -0.19766879091E+03  0.12316926666E+03  0.25760321925E+03  0.90151309282E+02 0.  0.
        -11    1    3    3    0    0 -0.92151674490E+01  0.57163424437E+02  0.20662199899E+03  0.21458151568E+03  0.00000000000E+00 0.  1.
         11    1    3    3    0    0  0.47421402426E+02 -0.19241733326E+02  0.19889190513E+03  0.20537045463E+03  0.00000000000E+00 0. -1.
        -13    1    4    4    0    0 -0.15611684099E+02 -0.17617538573E+02 -0.34909189468E+01  0.23796824596E+02  0.00000000000E+00 0.  1.
         13    1    4    4    0    0  0.78766579788E+02 -0.18005125234E+03  0.12666018560E+03  0.23380639465E+03  0.00000000000E+00 0. -1.
          1    1    1    2  501    0 -0.10136113067E+03  0.15974709980E+03 -0.25352120544E+03  0.31633244588E+03  0.00000000000E+00 0. -1.
<scales pt_clust_5="13000.00000" pt_clust_6="13000.00000" pt_clust_7="13000.00000" pt_clust_8="13000.00000" pt_clust_9="190.97167"></scales>
<clustering>
<clus scale="   90.151">  7  8 -1 -1</clus>
<clus scale="   94.976">  5  6 -1 -1</clus>
<clus scale="  109.170">  1  5  2 -1</clus>
<clus scale="  190.972">  2  9  1 -1</clus>
<clus scale="  190.972">  2  5  1 -1</clus>
</clustering>
</event>
<event>
 9    1  0.1399746E-005  0.1012186E+03  0.7546771E-02  0.1277923E+00
         21   -1    0    0  501  502  0.00000000000E+00  0.00000000000E+00  0.52148634174E+02  0.52148634174E+02  0.00000000000E+00 0. -1.
          1   -1    0    0  502    0 -0.00000000000E+00 -0.00000000000E+00 -0.47046865662E+03  0.47046865662E+03  0.00000000000E+00 0. -1.
         23    2    1    2    0    0  0.52552635099E+02  0.14774386864E+02 -0.34661252575E+03  0.36258361489E+03  0.91359579758E+02 0.  0.
         23    2    1    2    0    0 -0.61503111476E+01 -0.45188745595E+01 -0.63477748178E+02  0.11180422472E+03  0.91719755763E+02 0.  0.
        -11    1    4    4    0    0 -0.41985980505E+02  0.18940985089E+02 -0.18336033875E+02  0.49576139557E+02  0.00000000000E+00 0.  1.
         11    1    4    4    0    0  0.35835669357E+02 -0.23459859649E+02 -0.45141714303E+02  0.62228085164E+02  0.00000000000E+00 0. -1.
        -11    1    3    3    0    0  0.10677739015E+02 -0.35298958428E+02 -0.79911013495E+02  0.88010230396E+02  0.00000000000E+00 0.  1.
         11    1    3    3    0    0  0.41874896084E+02  0.50073345293E+02 -0.26670151226E+03  0.27457338449E+03  0.00000000000E+00 0. -1.
          1    1    1    2  501    0 -0.46402323951E+02 -0.10255512305E+02 -0.82297485130E+01  0.48229451182E+02  0.00000000000E+00 0. -1.
<scales pt_clust_5="13000.00000" pt_clust_6="13000.00000" pt_clust_7="13000.00000" pt_clust_8="13000.00000" pt_clust_9="47.52211"></scales>
<clustering>
<clus scale="   47.522">  1  9  2 -1</clus>
<clus scale="   91.360">  7  8 -1 -1</clus>
<clus scale="   91.720">  5  6 -1 -1</clus>
<clus scale="  100.892">  2  7  1 -1</clus>
<clus scale="   47.522">  1  5  2 -1</clus>
</clustering>
</event>
<event>
 9    1  0.1399746E-005  0.9361999E+02  0.7546771E-02  0.1295912E+00
         21   -1    0    0  501  502  0.00000000000E+00  0.00000000000E+00  0.33402385494E+03  0.33402385494E+03  0.00000000000E+00 0. -1.
          3   -1    0    0  502    0 -0.00000000000E+00 -0.00000000000E+00 -0.20164847910E+03  0.20164847910E+03  0.00000000000E+00 0. -1.
         23    2    1    2    0    0 -0.18601305607E+02 -0.26932285911E+02 -0.84878081263E+02  0.12748041562E+03  0.89306276890E+02 0.  0.
         23    2    1    2    0    0 -0.53056228591E+02 -0.67469431674E+01 -0.58355855146E+02  0.12143490339E+03  0.92089876188E+02 0.  0.
        -13    1    4    4    0    0  0.85885343931E+01  0.19785402158E+02  0.11601517394E+02  0.24491228377E+02  0.00000000000E+00 0.  1.
         13    1    4    4    0    0 -0.61644762984E+02 -0.26532345325E+02 -0.69957372540E+02  0.96943675010E+02  0.00000000000E+00 0. -1.
        -13    1    3    3    0    0  0.32598251118E+02 -0.50748136067E+01 -0.55421484986E+02  0.64497602336E+02  0.00000000000E+00 0.  1.
         13    1    3    3    0    0 -0.51199556725E+02 -0.21857472304E+02 -0.29456596277E+02  0.62982813279E+02  0.00000000000E+00 0. -1.
          3    1    1    2  501    0  0.71657534198E+02  0.33679229078E+02  0.27560931224E+03  0.28675701504E+03  0.00000000000E+00 0. -1.
<scales pt_clust_5="13000.00000" pt_clust_6="13000.00000" pt_clust_7="13000.00000" pt_clust_8="13000.00000" pt_clust_9="79.17760"></scales>
<clustering>
<clus scale="   79.178">  1  9  2 -1</clus>
<clus scale="   89.306">  7  8 -1 -1</clus>
<clus scale="   90.883">  2  7  1 -1</clus>
<clus scale="   92.090">  5  6 -1 -1</clus>
<clus scale="   79.178">  1  5  2 -1</clus>
</clustering>
</event>
<event>
 9    1  0.1399746E-005  0.2051765E+03  0.7546771E-02  0.1170214E+00
          1   -1    0    0  502    0 -0.00000000000E+00  0.00000000000E+00  0.34745857253E+03  0.34745857253E+03  0.00000000000E+00 0. -1.
         21   -1    0    0  501  502  0.00000000000E+00 -0.00000000000E+00 -0.27723892451E+03  0.27723892451E+03  0.00000000000E+00 0. -1.
         23    2    1    2    0    0  0.17697576176E+02 -0.67445843078E+02  0.17159524183E+03  0.20656904921E+03  0.91453261950E+02 0.  0.
         23    2    1    2    0    0 -0.23451324657E+02 -0.14031321114E+03  0.31001034161E+02  0.17171314420E+03  0.91030642778E+02 0.  0.
        -11    1    3    3    0    0  0.52360010180E+02 -0.22088905869E+02  0.99792633061E+02  0.11483927918E+03  0.00000000000E+00 0.  1.
         11    1    3    3    0    0 -0.34662434004E+02 -0.45356937209E+02  0.71802608766E+02  0.91729770030E+02  0.00000000000E+00 0. -1.
        -11    1    4    4    0    0  0.22992315120E+02 -0.22340186232E+01  0.21246595101E+01  0.23198094142E+02  0.00000000000E+00 0.  1.
         11    1    4    4    0    0 -0.46443639777E+02 -0.13807919252E+03  0.28876374651E+02  0.14851505006E+03  0.00000000000E+00 0. -1.
          1    1    1    2  501    0  0.57537484815E+01  0.20775905422E+03 -0.13237662797E+03  0.24641530363E+03  0.00000000000E+00 0. -1.
<scales pt_clust_5="13000.00000" pt_clust_6="13000.00000" pt_clust_7="13000.00000" pt_clust_8="13000.00000" pt_clust_9="183.87714"></scales>
<clustering>
<clus scale="   91.031">  7  8 -1 -1</clus>
<clus scale="   91.453">  5  6 -1 -1</clus>
<clus scale="  115.004">  1  5  2 -1</clus>
<clus scale="  183.877">  2  9  1 -1</clus>
<clus scale="  183.877">  2  5  1 -1</clus>
</clustering>
</event>
<event>
 9    1  0.1399746E-005  0.1372896E+03  0.7546771E-02  0.1217220E+00
         21   -1    0    0  501  502  0.00000000000E+00  0.00000000000E+00  0.12297439766E+03  0.12297439766E+03  0.00000000000E+00 0. -1.
          2   -1    0    0  502    0 -0.00000000000E+00 -0.00000000000E+00 -0.30365284425E+03  0.30365284425E+03  0.00000000000E+00 0. -1.
         23    2    1    2    0    0  0.99501424371E+02 -0.18762175266E+02 -0.17553555844E+03  0.22124265401E+03  0.88786412276E+02 0.  0.
         23    2    1    2    0    0 -0.10084495912E+03  0.71848316835E+02 -0.91636775493E+01  0.15212944487E+03  0.87906248913E+02 0.  0.
        -13    1    4    4    0    0 -0.70089282100E+02  0.56152321288E+01  0.20602928337E+02  0.73270177789E+02  0.00000000000E+00 0. -1.
         13    1    4    4    0    0 -0.30755677025E+02  0.66233084706E+02 -0.29766605886E+02  0.78859267084E+02  0.00000000000E+00 0.  1.
        -13    1    3    3    0    0  0.73516918658E+02  0.49855261698E+01 -0.45670699349E+02  0.86691438903E+02  0.00000000000E+00 0.  1.
         13    1    3    3    0    0  0.25984505713E+02 -0.23747701436E+02 -0.12986485909E+03  0.13455121511E+03  0.00000000000E+00 0. -1.
          2    1    1    2  501    0  0.13435347540E+01 -0.53086141569E+02  0.40207893925E+01  0.53255143034E+02  0.00000000000E+00 0. -1.
<scales pt_clust_5="13000.00000" pt_clust_6="13000.00000" pt_clust_7="13000.00000" pt_clust_8="13000.00000" pt_clust_9="53.10314"></scales>
<clustering>
<clus scale="   53.103">  1  9  2 -1</clus>
<clus scale="   87.906">  5  6 -1 -1</clus>
<clus scale="   88.786">  7  8 -1 -1</clus>
<clus scale="  136.722">  1  5  2 -1</clus>
<clus scale="   53.103">  1  5  2 -1</clus>
</clustering>
</event>
<event>
 9    1  0.1399746E-005  0.1159380E+03  0.7546771E-02  0.1259455E+00
         21   -1    0    0  501  502  0.00000000000E+00  0.00000000000E+00  0.16092447412E+03  0.16092447412E+03  0.00000000000E+00 0. -1.
         -4   -1    0    0    0  501 -0.00000000000E+00 -0.00000000000E+00 -0.15604364514E+03  0.15604364514E+03  0.00000000000E+00 0.  1.
         23    2    1    2    0    0  0.25906536176E+01 -0.31436757496E+01 -0.56589007465E+02  0.12769726708E+03  0.11440140764E+03 0.  0.
         23    2    1    2    0    0 -0.62261903854E+02 -0.64398867691E+01  0.61743506181E+02  0.12883429313E+03  0.94170046821E+02 0.  0.
        -13    1    3    3    0    0 -0.14144248409E+02  0.48204411109E+02 -0.53815879638E+02  0.73619792954E+02  0.00000000000E+00 0.  1.
         13    1    3    3    0    0  0.16734902027E+02 -0.51348086858E+02 -0.27731278270E+01  0.54077474125E+02  0.00000000000E+00 0. -1.
        -13    1    4    4    0    0 -0.22336111955E+01  0.33526031679E+02 -0.45178342096E+00  0.33603391605E+02  0.00000000000E+00 0.  1.
         13    1    4    4    0    0 -0.60028292659E+02 -0.39965918448E+02  0.62195289602E+02  0.95230901527E+02  0.00000000000E+00 0. -1.
         -4    1    1    2    0  502  0.59671250237E+02  0.95835625187E+01 -0.27366973330E+00  0.60436559056E+02  0.00000000000E+00 0.  1.
<scales pt_clust_5="13000.00000" pt_clust_6="13000.00000" pt_clust_7="13000.00000" pt_clust_8="13000.00000" pt_clust_9="60.43597"></scales>
<clustering>
<clus scale="   60.436">  1  9  2 -1</clus>
<clus scale="   94.170">  7  8 -1 -1</clus>
<clus scale="   96.031">  1  7  2 -1</clus>
<clus scale="  114.401">  5  6 -1 -1</clus>
<clus scale="   60.436">  1  5  2 -1</clus>
</clustering>
</event>
<event>
 9    1  0.1399746E-005  0.9594932E+02  0.7546771E-02  0.1289420E+00
         21   -1    0    0  501  502  0.00000000000E+00  0.00000000000E+00  0.61771590315E+03  0.61771590315E+03  0.00000000000E+00 0. -1.
         -2   -1    0    0    0  501 -0.00000000000E+00 -0.00000000000E+00 -0.38623390333E+02  0.38623390333E+02  0.00000000000E+00 0.  1.
         23    2    1    2    0    0 -0.21361004341E+02 -0.19111227058E+02  0.51318058664E+02  0.10801555185E+03  0.90621657400E+02 0.  0.
         23    2    1    2    0    0 -0.56508783556E+01  0.47024183509E+02  0.29715511916E+03  0.31445614530E+03  0.91314271668E+02 0.  0.
        -11    1    4    4    0    0 -0.44902157824E+02  0.43562537680E+02  0.20197100660E+03  0.21143837394E+03  0.00000000000E+00 0. -1.
         11    1    4    4    0    0  0.39251279468E+02  0.34616458286E+01  0.95184112562E+02  0.10301777136E+03  0.00000000000E+00 0.  1.
        -13    1    3    3    0    0  0.21899228463E+02 -0.32757157959E+02 -0.15969571602E+00  0.39403465679E+02  0.00000000000E+00 0.  1.
         13    1    3    3    0    0 -0.43260232804E+02  0.13645930901E+02  0.51477754380E+02  0.68612086169E+02  0.00000000000E+00 0. -1.
         -2    1    1    2    0  502  0.27011882697E+02 -0.27912956450E+02  0.23061933499E+03  0.23386759633E+03  0.00000000000E+00 0.  1.
<scales pt_clust_5="13000.00000" pt_clust_6="13000.00000" pt_clust_7="13000.00000" pt_clust_8="13000.00000" pt_clust_9="38.84295"></scales>
<clustering>
<clus scale="   38.843">  1  9  2 -1</clus>
<clus scale="   90.622">  7  8 -1 -1</clus>
<clus scale="   91.314">  5  6 -1 -1</clus>
<clus scale="   95.290">  2  7  1 -1</clus>
<clus scale="   38.843">  1  5  2 -1</clus>
</clustering>
</event>
<event>
 9    1  0.1399746E-005  0.2126482E+03  0.7546771E-02  0.1139623E+00
         21   -1    0    0  501  502  0.00000000000E+00  0.00000000000E+00  0.69204185549E+03  0.69204185549E+03  0.00000000000E+00 0.  1.
          4   -1    0    0  502    0 -0.00000000000E+00 -0.00000000000E+00 -0.11369732846E+03  0.11369732846E+03  0.00000000000E+00 0. -1.
         23    2    1    2    0    0 -0.17286112602E+03 -0.52766069893E+02  0.86585763061E+02  0.21991323445E+03  0.90551141903E+02 0.  0.
         23    2    1    2    0    0  0.18799188693E+03  0.11522490707E+03  0.29982130531E+03  0.38341539072E+03  0.92178185936E+02 0.  0.
        -11    1    4    4    0    0  0.41103540523E+02 -0.46742581628E+01  0.21438625038E+02  0.46593608751E+02  0.00000000000E+00 0.  1.
         11    1    4    4    0    0  0.14688834641E+03  0.11989916523E+03  0.27838268027E+03  0.33682178197E+03  0.00000000000E+00 0. -1.
        -13    1    3    3    0    0 -0.86591818734E+02 -0.63261560032E+02  0.77958006145E+02  0.13258061235E+03  0.00000000000E+00 0.  1.
         13    1    3    3    0    0 -0.86269307290E+02  0.10495490138E+02  0.86277569155E+01  0.87332622100E+02  0.00000000000E+00 0. -1.
          4    1    1    2  501    0 -0.15130760909E+02 -0.62458837173E+02  0.19193745866E+03  0.20241055878E+03  0.00000000000E+00 0. -1.
<scales pt_clust_5="13000.00000" pt_clust_6="13000.00000" pt_clust_7="13000.00000" pt_clust_8="13000.00000" pt_clust_9="64.26544"></scales>
<clustering>
<clus scale="   64.265">  1  9  2 -1</clus>
<clus scale="   90.551">  7  8 -1 -1</clus>
<clus scale="   92.178">  5  6 -1 -1</clus>
<clus scale="  211.948">  2  7  1 -1</clus>
<clus scale="   64.265">  1  5  2 -1</clus>
</clustering>
</event>
<event>
 9    1  0.1399746E-005  0.1088795E+03  0.7546771E-02  0.1262973E+00
          2   -1    0    0  502    0 -0.00000000000E+00  0.00000000000E+00  0.43995730780E+03  0.43995730780E+03  0.00000000000E+00 0. -1.
         21   -1    0    0  501  502  0.00000000000E+00 -0.00000000000E+00 -0.12202568831E+03  0.12202568831E+03  0.00000000000E+00 0. -1.
         23    2    1    2    0    0  0.40726679057E+02  0.70429244129E+02  0.29841414144E+03  0.32249762661E+03  0.91295008303E+02 0.  0.
         23    2    1    2    0    0 -0.11398305946E+02 -0.23273452768E+02  0.10279858270E+03  0.13938759471E+03  0.90497392066E+02 0.  0.
        -11    1    4    4    0    0  0.84549318033E+01 -0.49145155907E+02  0.92677452872E+02  0.10524182862E+03  0.00000000000E+00 0. -1.
         11    1    4    4    0    0 -0.19853237750E+02  0.25871703139E+02  0.10121129826E+02  0.34145766083E+02  0.00000000000E+00 0.  1.
        -13    1    3    3    0    0  0.35126665229E+02 -0.85400952373E+01  0.49485609741E+02  0.61283288165E+02  0.00000000000E+00 0.  1.
         13    1    3    3    0    0  0.56000138275E+01  0.78969339366E+02  0.24892853170E+03  0.26121433845E+03  0.00000000000E+00 0. -1.
          2    1    1    2  501    0 -0.29328373111E+02 -0.47155791361E+02 -0.83281104652E+02  0.10009777480E+03  0.00000000000E+00 0. -1.
<scales pt_clust_5="13000.00000" pt_clust_6="13000.00000" pt_clust_7="13000.00000" pt_clust_8="13000.00000" pt_clust_9="55.53217"></scales>
<clustering>
<clus scale="   55.532">  2  9  1 -1</clus>
<clus scale="   90.497">  5  6 -1 -1</clus>
<clus scale="   91.295">  7  8 -1 -1</clus>
<clus scale="  108.212">  2  5  1 -1</clus>
<clus scale="   55.532">  2  5  1 -1</clus>
</clustering>
</event>
<event>
 9    1  0.1399746E-005  0.2183898E+03  0.7546771E-02  0.1135310E+00
          2   -1    0    0  502    0 -0.00000000000E+00  0.00000000000E+00  0.56100461791E+03  0.56100461791E+03  0.00000000000E+00 0. -1.
         21   -1    0    0  501  502  0.00000000000E+00 -0.00000000000E+00 -0.26743805846E+03  0.26743805846E+03  0.00000000000E+00 0. -1.
         23    2    1    2    0    0 -0.18500259015E+03  0.12335888895E+03  0.45141862164E+03  0.51104591622E+03  0.89139119809E+02 0.  0.
         23    2    1    2    0    0  0.11085203535E+03 -0.17007602084E+02 -0.72126218473E+02  0.16196889496E+03  0.91947263551E+02 0.  0.
        -13    1    4    4    0    0  0.81920302716E+02 -0.46750080771E+02 -0.21918359258E+02  0.96834500679E+02  0.00000000000E+00 0. -1.
         13    1    4    4    0    0  0.28931732630E+02  0.29742478688E+02 -0.50207859215E+02  0.65134394282E+02  0.00000000000E+00 0.  1.
        -13    1    3    3    0    0 -0.22830042231E+02  0.47311133088E+02  0.55091273397E+02  0.76122286795E+02  0.00000000000E+00 0.  1.
         13    1    3    3    0    0 -0.16217254792E+03  0.76047755860E+02  0.39632734824E+03  0.43492362943E+03  0.00000000000E+00 0. -1.
          2    1    1    2  501    0  0.74150554808E+02 -0.10635128687E+03 -0.85725843708E+02  0.15542786518E+03  0.00000000000E+00 0. -1.
<scales pt_clust_5="13000.00000" pt_clust_6="13000.00000" pt_clust_7="13000.00000" pt_clust_8="13000.00000" pt_clust_9="129.64915"></scales>
<clustering>
<clus scale="   89.139">  7  8 -1 -1</clus>
<clus scale="   91.947">  5  6 -1 -1</clus>
<clus scale="  129.649">  2  9  1 -1</clus>
<clus scale="  217.222">  1  7  2 -1</clus>
<clus scale="  129.649">  2  5  1 -1</clus>
</clustering>
</event>
<event>
 9    1  0.1399746E-005  0.1232966E+03  0.7546771E-02  0.1238823E+00
         21   -1    0    0  501  502  0.00000000000E+00  0.00000000000E+00  0.94916650931E+03  0.94916650931E+03  0.00000000000E+00 0. -1.
          1   -1    0    0  502    0 -0.00000000000E+00 -0.00000000000E+00 -0.50211432591E+02  0.50211432591E+02  0.00000000000E+00 0. -1.
         23    2    1    2    0    0  0.65600967600E+02  0.63118378184E+02  0.56548208990E+02  0.14215625287E+03  0.93398520728E+02 0.  0.
         23    2    1    2    0    0 -0.32451695746E+02 -0.14180677052E+02  0.43855403560E+03  0.44906622499E+03  0.89870062435E+02 0.  0.
        -13    1    4    4    0    0  0.15659631706E+02 -0.37166376532E+02  0.13616559719E+03  0.14201279332E+03  0.00000000000E+00 0.  1.
         13    1    4    4    0    0 -0.48111327453E+02  0.22985699481E+02  0.30238843841E+03  0.30705343166E+03  0.00000000000E+00 0. -1.
        -13    1    3    3    0    0  0.36030855522E+02  0.13745142644E+02  0.72775308994E+02  0.82361381091E+02  0.00000000000E+00 0.  1.
         13    1    3    3    0    0  0.29570112078E+02  0.49373235540E+02 -0.16227100004E+02  0.59794871775E+02  0.00000000000E+00 0. -1.
          1    1    1    2  501    0 -0.33149271854E+02 -0.48937701133E+02  0.40385283212E+03  0.40815546404E+03  0.00000000000E+00 0. -1.
<scales pt_clust_5="13000.00000" pt_clust_6="13000.00000" pt_clust_7="13000.00000" pt_clust_8="13000.00000" pt_clust_9="59.10815"></scales>
<clustering>
<clus scale="   59.108">  1  9  2 -1</clus>
<clus scale="   89.870">  5  6 -1 -1</clus>
<clus scale="   93.399">  7  8 -1 -1</clus>
<clus scale="  120.646">  1  5  2 -1</clus>
<clus scale="   59.108">  1  5  2 -1</clus>
</clustering>
</event>
<event>
 9    1  0.1399746E-005  0.1349985E+03  0.7546771E-02  0.1223314E+00
          1   -1    0    0  502    0 -0.00000000000E+00  0.00000000000E+00  0.20891931885E+03  0.20891931885E+03  0.00000000000E+00 0. -1.
         21   -1    0    0  501  502  0.00000000000E+00 -0.00000000000E+00 -0.16868889061E+03  0.16868889061E+03  0.00000000000E+00 0.  1.
         23    2    1    2    0    0 -0.39919600966E+02  0.79328853590E+02  0.12198872109E+03  0.17738372731E+03  0.93258228000E+02 0.  0.
         23    2    1    2    0    0  0.66138279476E+02 -0.48973386323E+02 -0.32855523935E+02  0.13697612798E+03  0.10445242747E+03 0.  0.
        -11    1    4    4    0    0  0.28158763954E+02  0.30753649710E+02  0.26795593568E+01  0.41783764745E+02  0.00000000000E+00 0.  1.
         11    1    4    4    0    0  0.37979515521E+02 -0.79727036033E+02 -0.35535083291E+02  0.95192363236E+02  0.00000000000E+00 0. -1.
        -11    1    3    3    0    0 -0.48906582820E+02  0.18315732522E+02  0.98315012410E+02  0.11132457755E+03  0.00000000000E+00 0. -1.
         11    1    3    3    0    0  0.89869818540E+01  0.61013121068E+02  0.23673708680E+02  0.66059149767E+02  0.00000000000E+00 0.  1.
          1    1    1    2  501    0 -0.26218678510E+02 -0.30355467266E+02 -0.48902768920E+02  0.63248354159E+02  0.00000000000E+00 0. -1.
<scales pt_clust_5="13000.00000" pt_clust_6="13000.00000" pt_clust_7="13000.00000" pt_clust_8="13000.00000" pt_clust_9="40.11077"></scales>
<clustering>
<clus scale="   40.111">  2  9  1 -1</clus>
<clus scale="   93.258">  7  8 -1 -1</clus>
<clus scale="  104.452">  5  6 -1 -1</clus>
<clus scale="  126.536">  1  7  2 -1</clus>
<clus scale="   40.111">  2  5  1 -1</clus>
</clustering>
</event>
<event>
 9    1  0.1399746E-005  0.9292334E+02  0.7546771E-02  0.1296283E+00
          4   -1    0    0  502    0 -0.00000000000E+00  0.00000000000E+00  0.14805691268E+03  0.14805691268E+03  0.00000000000E+00 0. -1.
         21   -1    0    0  501  502  0.00000000000E+00 -0.00000000000E+00 -0.79371382901E+02  0.79371382901E+02  0.00000000000E+00 0.  1.
         23    2    1    2    0    0 -0.22674739972E+02  0.19769406952E+02  0.46890956961E+02  0.10561789864E+03  0.89729623780E+02 0.  0.
         23    2    1    2    0    0  0.14365893312E+02  0.46156696630E+01  0.64937812864E+01  0.91847367795E+02  0.90366401270E+02 0.  0.
        -11    1    4    4    0    0  0.25671321196E+02 -0.23421672169E+02 -0.28973529979E+02  0.45244412899E+02  0.00000000000E+00 0.  1.
         11    1    4    4    0    0 -0.11305427884E+02  0.28037341832E+02  0.35467311266E+02  0.46602954896E+02  0.00000000000E+00 0. -1.
        -13    1    3    3    0    0  0.22909654999E+02  0.35540011783E+02  0.66561610220E+01  0.42804780215E+02  0.00000000000E+00 0.  1.
         13    1    3    3    0    0 -0.45584394971E+02 -0.15770604831E+02  0.40234795939E+02  0.62813118422E+02  0.00000000000E+00 0. -1.
          4    1    1    2  501    0  0.83088466598E+01 -0.24385076615E+02  0.15300791534E+02  0.29963029151E+02  0.00000000000E+00 0. -1.
<scales pt_clust_5="13000.00000" pt_clust_6="13000.00000" pt_clust_7="13000.00000" pt_clust_8="13000.00000" pt_clust_9="25.76178"></scales>
<clustering>
<clus scale="   25.762">  2  9  1 -1</clus>
<clus scale="   89.730">  7  8 -1 -1</clus>
<clus scale="   90.366">  5  6 -1 -1</clus>
<clus scale="   92.304">  1  7  2 -1</clus>
<clus scale="   25.762">  2  5  1 -1</clus>
</clustering>
</event>
<event>
 9    1  0.1399746E-005  0.1220248E+03  0.7546771E-02  0.1241435E+00
         21   -1    0    0  501  502  0.00000000000E+00  0.00000000000E+00  0.16018092681E+03  0.16018092681E+03  0.00000000000E+00 0.  1.
          2   -1    0    0  502    0 -0.00000000000E+00 -0.00000000000E+00 -0.13486812888E+03  0.13486812888E+03  0.00000000000E+00 0. -1.
         23    2    1    2    0    0  0.69033132072E+02 -0.47279002450E+02 -0.49181366030E+02  0.13241157271E+03  0.90072972781E+02 0.  0.
         23    2    1    2    0    0 -0.46104919953E+02  0.42144663569E+02  0.39646237023E+02  0.12060841735E+03  0.95250878811E+02 0.  0.
        -13    1    4    4    0    0 -0.36407609884E+02  0.65641345564E+02  0.18811739652E+01  0.75085545350E+02  0.00000000000E+00 0.  1.
         13    1    4    4    0    0 -0.96973100688E+01 -0.23496681995E+02  0.37765063058E+02  0.45522872000E+02  0.00000000000E+00 0. -1.
        -13    1    3    3    0    0  0.45143392710E+02 -0.33825303357E+02 -0.75607267467E+02  0.94332051533E+02  0.00000000000E+00 0. -1.
         13    1    3    3    0    0  0.23889739362E+02 -0.13453699093E+02  0.26425901437E+02  0.38079521173E+02  0.00000000000E+00 0.  1.
          2    1    1    2  501    0 -0.22928212119E+02  0.51343388811E+01  0.34847926936E+02  0.42029065639E+02  0.00000000000E+00 0. -1.
<scales pt_clust_5="13000.00000" pt_clust_6="13000.00000" pt_clust_7="13000.00000" pt_clust_8="13000.00000" pt_clust_9="23.49605"></scales>
<clustering>
<clus scale="   23.496">  1  9  2 -1</clus>
<clus scale="   90.073">  7  8 -1 -1</clus>
<clus scale="   95.251">  5  6 -1 -1</clus>
<clus scale="  118.027">  2  7  1 -1</clus>
<clus scale="   23.496">  1  5  2 -1</clus>
</clustering>
</event>
<event>
 9    1  0.1399746E-005  0.1024092E+03  0.7546771E-02  0.1275730E+00
          1   -1    0    0  502    0 -0.00000000000E+00  0.00000000000E+00  0.25612485434E+03  0.25612485434E+03  0.00000000000E+00 0. -1.
         21   -1    0    0  501  502  0.00000000000E+00 -0.00000000000E+00 -0.19287865018E+03  0.19287865018E+03  0.00000000000E+00 0. -1.
         23    2    1    2    0    0  0.22508087913E+02  0.39975890196E+02  0.18801715454E+03  0.21352801818E+03  0.90216840587E+02 0.  0.
         23    2    1    2    0    0 -0.61918659414E+01 -0.52858000108E+02  0.34328609266E+01  0.10559713907E+03  0.91140901174E+02 0.  0.
        -11    1    4    4    0    0  0.25677949399E+02 -0.66066522070E+02  0.50487334184E+01  0.71060763667E+02  0.00000000000E+00 0. -1.
         11    1    4    4    0    0 -0.31869815341E+02  0.13208521962E+02 -0.16158724918E+01  0.34536375406E+02  0.00000000000E+00 0.  1.
        -11    1    3    3    0    0 -0.24301494595E+02  0.43448123517E+02  0.12797028912E+03  0.13731240648E+03  0.00000000000E+00 0.  1.
         11    1    3    3    0    0  0.46809582508E+02 -0.34722333210E+01  0.60046865426E+02  0.76215611696E+02  0.00000000000E+00 0. -1.
          1    1    1    2  501    0 -0.16316221971E+02  0.12882109912E+02 -0.12820381131E+03  0.12987834727E+03  0.00000000000E+00 0. -1.
<scales pt_clust_5="13000.00000" pt_clust_6="13000.00000" pt_clust_7="13000.00000" pt_clust_8="13000.00000" pt_clust_9="20.78865"></scales>
<clustering>
<clus scale="   20.789">  2  9  1 -1</clus>
<clus scale="   90.217">  7  8 -1 -1</clus>
<clus scale="   91.141">  5  6 -1 -1</clus>
<clus scale="  101.588">  1  7  2 -1</clus>
<clus scale="   20.789">  2  5  1 -1</clus>
</clustering>
</event>
<event>
 9    1  0.1399746E-005  0.1004744E+03  0.7546771E-02  0.1284540E+00
         21   -1    0    0  501  502  0.00000000000E+00  0.00000000000E+00  0.32638316870E+02  0.32638316870E+02  0.00000000000E+00 0.  1.
         -1   -1    0    0    0  501 -0.00000000000E+00 -0.00000000000E+00 -0.57749262927E+03  0.57749262927E+03  0.00000000000E+00 0.  1.
         23    2    1    2    0    0  0.25540823854E+02  0.33234300240E+02 -0.38108666784E+03  0.39412357191E+03  0.91375539023E+02 0.  0.
         23    2    1    2    0    0 -0.51954718953E+02 -0.56193597580E+01 -0.14342351344E+03  0.17271577617E+03  0.80805724456E+02 0.  0.
        -13    1    4    4    0    0  0.13741779617E+02  0.15864764744E+02 -0.11879093497E+02  0.24117216459E+02  0.00000000000E+00 0. -1.
         13    1    4    4    0    0 -0.65696498570E+02 -0.21484124502E+02 -0.13154441994E+03  0.14859855971E+03  0.00000000000E+00 0.  1.
        -13    1    3    3    0    0  0.36929732670E+02  0.60339456205E+02 -0.25287546433E+03  0.26258456845E+03  0.00000000000E+00 0. -1.
         13    1    3    3    0    0 -0.11388908816E+02 -0.27105155964E+02 -0.12821120351E+03  0.13153900345E+03  0.00000000000E+00 0.  1.
         -1    1    1    2    0  502  0.26413895099E+02 -0.27614940482E+02 -0.20344131124E+02  0.43291598069E+02  0.00000000000E+00 0.  1.
<scales pt_clust_5="13000.00000" pt_clust_6="13000.00000" pt_clust_7="13000.00000" pt_clust_8="13000.00000" pt_clust_9="38.21359"></scales>
<clustering>
<clus scale="   38.214">  1  9  2 -1</clus>
<clus scale="   80.806">  5  6 -1 -1</clus>
<clus scale="   90.968">  1  5  2 -1</clus>
<clus scale="   91.376">  7  8 -1 -1</clus>
<clus scale="   38.214">  1  5  2 -1</clus>
</clustering>
</event>
<event>
 9    1  0.1399746E-005  0.9486110E+02  0.7546771E-02  0.1291890E+00
          2   -1    0    0  502    0 -0.00000000000E+00  0.00000000000E+00  0.12861819016E+03  0.12861819016E+03  0.00000000000E+00 0. -1.
         21   -1    0    0  501  502  0.00000000000E+00 -0.00000000000E+00 -0.25294251276E+03  0.25294251276E+03  0.00000000000E+00 0.  1.
         23    2    1    2    0    0  0.32909889480E+02  0.80856336896E+01  0.65358784648E+02  0.11762169935E+03  0.91731429343E+02 0.  0.
         23    2    1    2    0    0  0.94568832095E+01  0.71609246996E+00 -0.28746804063E+02  0.97286948401E+02  0.92457699284E+02 0.  0.
        -11    1    4    4    0    0  0.13399408516E+02  0.43793527338E+02 -0.28666339618E+02  0.54029401370E+02  0.00000000000E+00 0.  1.
         11    1    4    4    0    0 -0.39425253069E+01 -0.43077434868E+02 -0.80464445165E-01  0.43257547031E+02  0.00000000000E+00 0. -1.
        -11    1    3    3    0    0  0.37945141465E+02  0.34136301744E+02  0.45094215362E+01  0.51239201205E+02  0.00000000000E+00 0.  1.
         11    1    3    3    0    0 -0.50352519850E+01 -0.26050668055E+02  0.60849363112E+02  0.66382498144E+02  0.00000000000E+00 0. -1.
          2    1    1    2  501    0 -0.42366772689E+02 -0.88017261596E+01 -0.16093630319E+03  0.16665205518E+03  0.00000000000E+00 0. -1.
<scales pt_clust_5="13000.00000" pt_clust_6="13000.00000" pt_clust_7="13000.00000" pt_clust_8="13000.00000" pt_clust_9="43.27140"></scales>
<clustering>
<clus scale="   43.271">  2  9  1 -1</clus>
<clus scale="   91.731">  7  8 -1 -1</clus>
<clus scale="   92.458">  5  6 -1 -1</clus>
<clus scale="   94.153">  1  7  2 -1</clus>
<clus scale="   43.271">  2  5  1 -1</clus>
</clustering>
</event>
<event>
 9    1  0.1399746E-005  0.1097364E+03  0.7546771E-02  0.1262212E+00
          1   -1    0    0  502    0 -0.00000000000E+00  0.00000000000E+00  0.10341692085E+04  0.10341692085E+04  0.00000000000E+00 0. -1.
         21   -1    0    0  501  502  0.00000000000E+00 -0.00000000000E+00 -0.20516341152E+02  0.20516341152E+02  0.00000000000E+00 0. -1.
         23    2    1    2    0    0  0.26840870605E+02 -0.50657713827E+02  0.44806239255E+03  0.46106055804E+03  0.92359592109E+02 0.  0.
         23    2    1    2    0    0  0.24488296435E+02  0.68444270308E+02  0.46750185677E+03  0.48149817963E+03  0.89432746227E+02 0.  0.
        -13    1    3    3    0    0  0.41609402954E+01 -0.68268056808E+02  0.39354103223E+03  0.39944008944E+03  0.00000000000E+00 0. -1.
         13    1    3    3    0    0  0.22679930309E+02  0.17610342981E+02  0.54521360323E+02  0.61620468598E+02  0.00000000000E+00 0.  1.
        -13    1    4    4    0    0 -0.21062359401E+02 -0.76123378153E+01  0.51567590385E+02  0.56220877339E+02  0.00000000000E+00 0.  1.
         13    1    4    4    0    0  0.45550655836E+02  0.76056608124E+02  0.41593426639E+03  0.42527730229E+03  0.00000000000E+00 0. -1.
          1    1    1    2  501    0 -0.51329167040E+02 -0.17786556482E+02  0.98088618016E+02  0.11212681198E+03  0.00000000000E+00 0. -1.
<scales pt_clust_5="13000.00000" pt_clust_6="13000.00000" pt_clust_7="13000.00000" pt_clust_8="13000.00000" pt_clust_9="54.32352"></scales>
<clustering>
<clus scale="   54.324">  2  9  1 -1</clus>
<clus scale="   89.433">  7  8 -1 -1</clus>
<clus scale="   92.360">  5  6 -1 -1</clus>
<clus scale="  107.285">  2  7  1 -1</clus>
<clus scale="   54.324">  2  5  1 -1</clus>
</clustering>
</event>
<event>
 9    1  0.1399746E-005  0.3776116E+03  0.7546771E-02  0.1051844E+00
         21   -1    0    0  501  502  0.00000000000E+00  0.00000000000E+00  0.60538194633E+03  0.60538194633E+03  0.00000000000E+00 0. -1.
          1   -1    0    0  502    0 -0.00000000000E+00 -0.00000000000E+00 -0.35332776720E+03  0.35332776720E+03  0.00000000000E+00 0. -1.
         23    2    1    2    0    0  0.33498671784E+03 -0.10803422408E+03 -0.85412544640E+01  0.36351805315E+03  0.90470587683E+02 0.  0.
         23    2    1    2    0    0 -0.35344763492E+03  0.16013206626E+03  0.79768076853E+02  0.40610563877E+03  0.89394264253E+02 0.  0.
        -11    1    3    3    0    0  0.22465080436E+02  0.15531853143E+02  0.83497241896E+00  0.27324265406E+02  0.00000000000E+00 0.  1.
         11    1    3    3    0    0  0.31252163741E+03 -0.12356607722E+03 -0.93762268829E+01  0.33619378775E+03  0.00000000000E+00 0. -1.
        -13    1    4    4    0    0 -0.28285461627E+02 -0.99024515569E+01 -0.24578386522E+01  0.30069367421E+02  0.00000000000E+00 0.  1.
         13    1    4    4    0    0 -0.32516217329E+03  0.17003451781E+03  0.82225915505E+02  0.37603627135E+03  0.00000000000E+00 0. -1.
          1    1    1    2  501    0  0.18460917078E+02 -0.52097842175E+02  0.18082735674E+03  0.18908602160E+03  0.00000000000E+00 0. -1.
<scales pt_clust_5="13000.00000" pt_clust_6="13000.00000" pt_clust_7="13000.00000" pt_clust_8="13000.00000" pt_clust_9="55.27197"></scales>
<clustering>
<clus scale="   55.272">  1  9  2 -1</clus>
<clus scale="   89.394">  7  8 -1 -1</clus>
<clus scale="   90.471">  5  6 -1 -1</clus>
<clus scale="  377.355">  1  7  2 -1</clus>
<clus scale="   55.272">  1  5  2 -1</clus>
</clustering>
</event>
<event>
 9    1  0.1399746E-005  0.9262955E+02  0.7546771E-02  0.1296851E+00
         21   -1    0    0  501  502  0.00000000000E+00  0.00000000000E+00  0.12866050652E+03  0.12866050652E+03  0.00000000000E+00 0. -1.
         -3   -1    0    0    0  501 -0.00000000000E+00 -0.00000000000E+00 -0.16190741213E+03  0.16190741213E+03  0.00000000000E+00 0.  1.
         23    2    1    2    0    0  0.52436274825E+01  0.55755708635E+01 -0.75048159059E+02  0.11871707971E+03  0.91667530872E+02 0.  0.
         23    2    1    2    0    0  0.53370670084E+02 -0.76515227334E+01  0.37238359675E+02  0.11302256807E+03  0.92089256902E+02 0.  0.
        -11    1    4    4    0    0  0.22358905297E+02 -0.27612100567E+02  0.59966276938E+02  0.69701528775E+02  0.00000000000E+00 0. -1.
         11    1    4    4    0    0  0.31011764787E+02  0.19960577834E+02 -0.22727917262E+02  0.43321039297E+02  0.00000000000E+00 0.  1.
        -11    1    3    3    0    0 -0.18067388953E+02 -0.38178996748E+02 -0.30925214589E+02  0.52349166504E+02  0.00000000000E+00 0.  1.
         11    1    3    3    0    0  0.23311016435E+02  0.43754567612E+02 -0.44122944469E+02  0.66367913202E+02  0.00000000000E+00 0. -1.
         -3    1    1    2    0  502 -0.58614297567E+02  0.20759518699E+01  0.45628937736E+01  0.58828270882E+02  0.00000000000E+00 0.  1.
<scales pt_clust_5="13000.00000" pt_clust_6="13000.00000" pt_clust_7="13000.00000" pt_clust_8="13000.00000" pt_clust_9="58.65105"></scales>
<clustering>
<clus scale="   58.651">  1  9  2 -1</clus>
<clus scale="   91.668">  7  8 -1 -1</clus>
<clus scale="   92.089">  5  6 -1 -1</clus>
<clus scale="   92.210">  2  7  1 -1</clus>
<clus scale="   58.651">  1  5  2 -1</clus>
</clustering>
</event>
<event>
 9    1  0.1399746E-005  0.1260840E+03  0.7546771E-02  0.1233432E+00
         21   -1    0    0  501  502  0.00000000000E+00  0.00000000000E+00  0.52000393952E+02  0.52000393952E+02  0.00000000000E+00 0. -1.
          1   -1    0    0  502    0 -0.00000000000E+00 -0.00000000000E+00 -0.76859812089E+03  0.76859812089E+03  0.00000000000E+00 0. -1.
         23    2    1    2    0    0  0.38906177744E+02  0.82821527138E+02 -0.61737996286E+03  0.63060489684E+03  0.90174394099E+02 0.  0.
         23    2    1    2    0    0 -0.13399196928E+02 -0.75927079541E+02 -0.10977397315E+03  0.16154062119E+03  0.90003262318E+02 0.  0.
        -13    1    4    4    0    0  0.19504780867E+02  0.48349124223E+01  0.15162329330E+01  0.20152216184E+02  0.00000000000E+00 0.  1.
         13    1    4    4    0    0 -0.32903977795E+02 -0.80761991964E+02 -0.11129020608E+03  0.14138840501E+03  0.00000000000E+00 0. -1.
        -13    1    3    3    0    0  0.31263411264E+02 -0.61338071172E+01 -0.84687653887E+02  0.90482170589E+02  0.00000000000E+00 0.  1.
         13    1    3    3    0    0  0.76427664806E+01  0.88955334255E+02 -0.53269230897E+03  0.54012272625E+03  0.00000000000E+00 0. -1.
          1    1    1    2  501    0 -0.25506980816E+02 -0.68944475969E+01  0.10556209067E+02  0.28452996818E+02  0.00000000000E+00 0. -1.
<scales pt_clust_5="13000.00000" pt_clust_6="13000.00000" pt_clust_7="13000.00000" pt_clust_8="13000.00000" pt_clust_9="26.42233"></scales>
<clustering>
<clus scale="   26.422">  1  9  2 -1</clus>
<clus scale="   90.003">  5  6 -1 -1</clus>
<clus scale="   90.174">  7  8 -1 -1</clus>
<clus scale="  125.962">  1  5  2 -1</clus>
<clus scale="   26.422">  1  5  2 -1</clus>
</clustering>
</event>
<event>
 9    1  0.1399746E-005  0.9666183E+02  0.7546771E-02  0.1288865E+00
         21   -1    0    0  501  502  0.00000000000E+00  0.00000000000E+00  0.86009616360E+02  0.86009616360E+02  0.00000000000E+00 0.  1.
          1   -1    0    0  502    0 -0.00000000000E+00 -0.00000000000E+00 -0.15088200051E+03  0.15088200051E+03  0.00000000000E+00 0. -1.
         23    2    1    2    0    0 -0.41029947354E+02 -0.16015891394E+02 -0.41724468312E+02  0.11009736813E+03  0.91872378098E+02 0.  0.
         23    2    1    2    0    0  0.78150689078E+01  0.17314692014E+02 -0.19917153007E+02  0.93397349756E+02  0.89249639192E+02 0.  0.
        -11    1    4    4    0    0 -0.30938804102E+02 -0.12527033786E+01 -0.36026716515E+02  0.47504769949E+02  0.00000000000E+00 0.  1.
         11    1    4    4    0    0  0.38753873010E+02  0.18567395393E+02  0.16109563508E+02  0.45892579807E+02  0.00000000000E+00 0. -1.
        -13    1    3    3    0    0 -0.11459244499E+02 -0.49812474337E+02 -0.36876652807E+01  0.51246421917E+02  0.00000000000E+00 0.  1.
         13    1    3    3    0    0 -0.29570702855E+02  0.33796582943E+02 -0.38036803031E+02  0.58850946218E+02  0.00000000000E+00 0. -1.
          1    1    1    2  501    0  0.33214878446E+02 -0.12988006204E+01 -0.32307628360E+01  0.33396898984E+02  0.00000000000E+00 0. -1.
<scales pt_clust_5="13000.00000" pt_clust_6="13000.00000" pt_clust_7="13000.00000" pt_clust_8="13000.00000" pt_clust_9="33.24026"></scales>
<clustering>
<clus scale="   33.240">  1  9  2 -1</clus>
<clus scale="   89.250">  5  6 -1 -1</clus>
<clus scale="   91.872">  7  8 -1 -1</clus>
<clus scale="   94.173">  1  5  2 -1</clus>
<clus scale="   33.240">  1  5  2 -1</clus>
</clustering>
</event>
<event>
 9    1  0.1399746E-005  0.1337572E+03  0.7546771E-02  0.1222005E+00
         21   -1    0    0  501  502  0.00000000000E+00  0.00000000000E+00  0.16538666664E+03  0.16538666664E+03  0.00000000000E+00 0. -1.
          3   -1    0    0  502    0 -0.00000000000E+00 -0.00000000000E+00 -0.16070264334E+03  0.16070264334E+03  0.00000000000E+00 0. -1.
         23    2    1    2    0    0  0.79273430477E+02 -0.42575463986E+02 -0.57408354577E+02  0.14255907800E+03  0.94500923976E+02 0.  0.
         23    2    1    2    0    0 -0.10265589569E+03  0.33178955195E+02  0.66178717711E+02  0.15800118519E+03  0.94581583076E+02 0.  0.
        -13    1    4    4    0    0 -0.68172219277E+02  0.32901471005E+02  0.88856403648E+02  0.11672796899E+03  0.00000000000E+00 0. -1.
         13    1    4    4    0    0 -0.34483676410E+02  0.27748418923E+00 -0.22677685936E+02  0.41273216202E+02  0.00000000000E+00 0.  1.
        -13    1    3    3    0    0 -0.40149032311E+01  0.23099188718E+02 -0.17404274964E+02  0.29199327979E+02  0.00000000000E+00 0.  1.
         13    1    3    3    0    0  0.83288333708E+02 -0.65674652704E+02 -0.40004079613E+02  0.11335975002E+03  0.00000000000E+00 0. -1.
          3    1    1    2  501    0  0.23382465210E+02  0.93965087914E+01 -0.40863398280E+01  0.25529046789E+02  0.00000000000E+00 0. -1.
<scales pt_clust_5="13000.00000" pt_clust_6="13000.00000" pt_clust_7="13000.00000" pt_clust_8="13000.00000" pt_clust_9="25.19989"></scales>
<clustering>
<clus scale="   25.200">  1  9  2 -1</clus>
<clus scale="   94.501">  7  8 -1 -1</clus>
<clus scale="   94.582">  5  6 -1 -1</clus>
<clus scale="  133.700">  2  7  1 -1</clus>
<clus scale="   25.200">  1  5  2 -1</clus>
</clustering>
</event>
<event>
 9    1  0.1399746E-005  0.9482871E+02  0.7546771E-02  0.1291689E+00
         21   -1    0    0  501  502  0.00000000000E+00  0.00000000000E+00  0.34408556996E+03  0.34408556996E+03  0.00000000000E+00 0.  1.
          4   -1    0    0  502    0 -0.00000000000E+00 -0.00000000000E+00 -0.41857437118E+02  0.41857437118E+02  0.00000000000E+00 0. -1.
         23    2    1    2    0    0 -0.14855066074E+02  0.29361559292E+02  0.80563433511E+02  0.12676450161E+03  0.92173737568E+02 0.  0.
         23    2    1    2    0    0 -0.96395766023E+01 -0.12610889920E+02  0.11303397517E+03  0.14656764154E+03  0.91942580018E+02 0.  0.
        -11    1    3    3    0    0 -0.18762255690E+02  0.54571063322E+02  0.20044368026E+02  0.61088459469E+02  0.00000000000E+00 0.  1.
         11    1    3    3    0    0  0.39071896154E+01 -0.25209504030E+02  0.60519065485E+02  0.65676042141E+02  0.00000000000E+00 0. -1.
        -13    1    4    4    0    0  0.29166867481E+00  0.27353916743E+02  0.11877330731E+01  0.27381244341E+02  0.00000000000E+00 0. -1.
         13    1    4    4    0    0 -0.99312452771E+01 -0.39964806664E+02  0.11184624210E+03  0.11918639719E+03  0.00000000000E+00 0.  1.
          4    1    1    2  501    0  0.24494642677E+02 -0.16750669372E+02  0.10863072416E+03  0.11261086393E+03  0.00000000000E+00 0. -1.
<scales pt_clust_5="13000.00000" pt_clust_6="13000.00000" pt_clust_7="13000.00000" pt_clust_8="13000.00000" pt_clust_9="29.67444"></scales>
<clustering>
<clus scale="   29.674">  1  9  2 -1</clus>
<clus scale="   91.943">  7  8 -1 -1</clus>
<clus scale="   92.174">  5  6 -1 -1</clus>
<clus scale="   94.604">  1  7  2 -1</clus>
<clus scale="   29.674">  1  5  2 -1</clus>
</clustering>
</event>
<event>
 9    1  0.1399746E-005  0.9310509E+02  0.7546771E-02  0.1295592E+00
         21   -1    0    0  501  502  0.00000000000E+00  0.00000000000E+00  0.45558309308E+03  0.45558309308E+03  0.00000000000E+00 0.  1.
          3   -1    0    0  502    0 -0.00000000000E+00 -0.00000000000E+00 -0.50189835958E+02  0.50189835958E+02  0.00000000000E+00 0. -1.
         23    2    1    2    0    0  0.51818134735E+01  0.25221242947E+02  0.41126984621E+02  0.10314808594E+03  0.91022725092E+02 0.  0.
         23    2    1    2    0    0  0.31503138077E+02 -0.22699424109E+01  0.11727985103E+03  0.15187628326E+03  0.91182463298E+02 0.  0.
        -11    1    3    3    0    0 -0.35103441521E+02  0.31434659462E+02  0.28105623824E+01  0.47204752758E+02  0.00000000000E+00 0.  1.
         11    1    3    3    0    0  0.40285254994E+02 -0.62134165146E+01  0.38316422238E+02  0.55943333185E+02  0.00000000000E+00 0. -1.
        -13    1    4    4    0    0  0.22920322920E+02 -0.37974765413E+02  0.21487140960E+02  0.49286116073E+02  0.00000000000E+00 0. -1.
         13    1    4    4    0    0  0.85828151572E+01  0.35704823002E+02  0.95792710069E+02  0.10259016719E+03  0.00000000000E+00 0.  1.
          3    1    1    2  501    0 -0.36684951550E+02 -0.22951300536E+02  0.24698642147E+03  0.25074855983E+03  0.00000000000E+00 0. -1.
<scales pt_clust_5="13000.00000" pt_clust_6="13000.00000" pt_clust_7="13000.00000" pt_clust_8="13000.00000" pt_clust_9="43.27295"></scales>
<clustering>
<clus scale="   43.273">  1  9  2 -1</clus>
<clus scale="   91.023">  5  6 -1 -1</clus>
<clus scale="   91.182">  7  8 -1 -1</clus>
<clus scale="   92.949">  2  5  1 -1</clus>
<clus scale="   43.273">  1  5  2 -1</clus>
</clustering>
</event>
<event>
 9    1  0.1399746E-005  0.9518979E+02  0.7546771E-02  0.1291106E+00
          1   -1    0    0  502    0 -0.00000000000E+00  0.00000000000E+00  0.61346789760E+03  0.61346789760E+03  0.00000000000E+00 0. -1.
         21   -1    0    0  501  502  0.00000000000E+00 -0.00000000000E+00 -0.20780659268E+02  0.20780659268E+02  0.00000000000E+00 0.  1.
         23    2    1    2    0    0  0.26336040491E+02  0.25073546211E+01  0.32299257574E+03  0.33641881543E+03  0.90296963071E+02 0.  0.
         23    2    1    2    0    0 -0.23833057616E+02 -0.25538775890E+02  0.24644839046E+03  0.26501053277E+03  0.90958944647E+02 0.  0.
        -13    1    3    3    0    0  0.78984052441E+01  0.39993948175E+02  0.24072122310E+03  0.24414874144E+03  0.00000000000E+00 0. -1.
         13    1    3    3    0    0  0.18437635247E+02 -0.37486593554E+02  0.82271352635E+02  0.92270073990E+02  0.00000000000E+00 0.  1.
        -13    1    4    4    0    0  0.65775763910E+01 -0.52598903644E+02  0.17416347917E+03  0.18205171422E+03  0.00000000000E+00 0.  1.
         13    1    4    4    0    0 -0.30410634007E+02  0.27060127754E+02  0.72284911291E+02  0.82958818550E+02  0.00000000000E+00 0. -1.
          1    1    1    2  501    0 -0.25029828756E+01  0.23031421269E+02  0.23246272130E+02  0.32819208658E+02  0.00000000000E+00 0. -1.
<scales pt_clust_5="13000.00000" pt_clust_6="13000.00000" pt_clust_7="13000.00000" pt_clust_8="13000.00000" pt_clust_9="23.16703"></scales>
<clustering>
<clus scale="   23.167">  2  9  1 -1</clus>
<clus scale="   90.297">  5  6 -1 -1</clus>
<clus scale="   90.959">  7  8 -1 -1</clus>
<clus scale="   94.557">  1  5  2 -1</clus>
<clus scale="   23.167">  2  5  1 -1</clus>
</clustering>
</event>
<event>
 9    1  0.1399746E-005  0.1214871E+03  0.7546771E-02  0.1241292E+00
          1   -1    0    0  502    0 -0.00000000000E+00  0.00000000000E+00  0.31926121001E+03  0.31926121001E+03  0.00000000000E+00 0. -1.
         21   -1    0    0  501  502  0.00000000000E+00 -0.00000000000E+00 -0.72915613659E+02  0.72915613659E+02  0.00000000000E+00 0.  1.
         23    2    1    2    0    0 -0.62772846271E+02 -0.30934817645E+02  0.12083869698E+03  0.16628036754E+03  0.90276114062E+02 0.  0.
         23    2    1    2    0    0  0.90894575743E+02  0.11267710667E+02  0.13777589484E+03  0.18945259498E+03  0.92310905863E+02 0.  0.
        -11    1    3    3    0    0  0.29504883249E+01 -0.30690236320E+02  0.87113859070E+02  0.92408984567E+02  0.00000000000E+00 0. -1.
         11    1    3    3    0    0 -0.65723334596E+02 -0.24458132487E+00  0.33724837910E+02  0.73871382974E+02  0.00000000000E+00 0.  1.
        -13    1    4    4    0    0 -0.35395310148E+01  0.25666305236E+02  0.58293635748E+01  0.26556900873E+02  0.00000000000E+00 0.  1.
         13    1    4    4    0    0  0.94434106758E+02 -0.14398594569E+02  0.13194653127E+03  0.16289569411E+03  0.00000000000E+00 0. -1.
          1    1    1    2  501    0 -0.28121729473E+02  0.19667106977E+02 -0.12268995473E+02  0.36443861147E+02  0.00000000000E+00 0. -1.
<scales pt_clust_5="13000.00000" pt_clust_6="13000.00000" pt_clust_7="13000.00000" pt_clust_8="13000.00000" pt_clust_9="34.31657"></scales>
<clustering>
<clus scale="   34.317">  2  9  1 -1</clus>
<clus scale="   90.276">  5  6 -1 -1</clus>
<clus scale="   92.311">  7  8 -1 -1</clus>
<clus scale="  119.948">  1  5  2 -1</clus>
<clus scale="   34.317">  2  5  1 -1</clus>
</clustering>
</event>
<event>
 9    1  0.1399746E-005  0.1229009E+03  0.7546771E-02  0.1238654E+00
          2   -1    0    0  502    0 -0.00000000000E+00  0.00000000000E+00  0.10443506430E+04  0.10443506430E+04  0.00000000000E+00 0. -1.
         21   -1    0    0  501  502  0.00000000000E+00 -0.00000000000E+00 -0.28342299144E+02  0.28342299144E+02  0.00000000000E+00 0.  1.
         23    2    1    2    0    0  0.18528186044E+02  0.82973344934E+02  0.43832015166E+03  0.45612997070E+03  0.93285181975E+02 0.  0.
         23    2    1    2    0    0  0.51710184780E+02 -0.73985878812E+02  0.25101194917E+03  0.28230024387E+03  0.92404413261E+02 0.  0.
        -11    1    4    4    0    0 -0.80700566520E+01 -0.66284254911E+02  0.15719902568E+03  0.17079303832E+03  0.00000000000E+00 0. -1.
         11    1    4    4    0    0  0.59780241432E+02 -0.77016239009E+01  0.93812923489E+02  0.11150720555E+03  0.00000000000E+00 0.  1.
        -11    1    3    3    0    0 -0.26511020032E+02  0.14608137053E+02  0.44034819857E+02  0.53434981156E+02  0.00000000000E+00 0. -1.
         11    1    3    3    0    0  0.45039206076E+02  0.68365207881E+02  0.39428533180E+03  0.40269498955E+03  0.00000000000E+00 0.  1.
          2    1    1    2  501    0 -0.70238370824E+02 -0.89874661221E+01  0.32667624306E+03  0.33426272760E+03  0.00000000000E+00 0. -1.
<scales pt_clust_5="13000.00000" pt_clust_6="13000.00000" pt_clust_7="13000.00000" pt_clust_8="13000.00000" pt_clust_9="70.81107"></scales>
<clustering>
<clus scale="   70.811">  2  9  1 -1</clus>
<clus scale="   92.404">  5  6 -1 -1</clus>
<clus scale="   93.285">  7  8 -1 -1</clus>
<clus scale="  122.234">  2  5  1 -1</clus>
<clus scale="   70.811">  2  5  1 -1</clus>
</clustering>
</event>
<event>
 9    1  0.1399746E-005  0.2169414E+03  0.7546771E-02  0.1136265E+00
         21   -1    0    0  501  502  0.00000000000E+00  0.00000000000E+00  0.17157033811E+03  0.17157033811E+03  0.00000000000E+00 0.  1.
          2   -1    0    0  502    0 -0.00000000000E+00 -0.00000000000E+00 -0.32880005330E+03  0.32880005330E+03  0.00000000000E+00 0. -1.
         23    2    1    2    0    0  0.80021615729E+01 -0.21011574445E+03 -0.13224532463E+03  0.26455051657E+03  0.91024663012E+02 0.  0.
         23    2    1    2    0    0 -0.11712655192E+02  0.17807809675E+03 -0.30493411444E+02  0.20310095150E+03  0.92038869647E+02 0.  0.
        -11    1    4    4    0    0  0.23099494714E+02  0.13486177225E+03  0.55349910180E+01  0.13693765149E+03  0.00000000000E+00 0.  1.
         11    1    4    4    0    0 -0.34812149906E+02  0.43216324501E+02 -0.36028402462E+02  0.66163300012E+02  0.00000000000E+00 0. -1.
        -13    1    3    3    0    0 -0.35269858969E+02 -0.66762263554E+02 -0.67983775109E+02  0.10160195109E+03  0.00000000000E+00 0.  1.
         13    1    3    3    0    0  0.43272020542E+02 -0.14335348090E+03 -0.64261549516E+02  0.16294856549E+03  0.00000000000E+00 0. -1.
          2    1    1    2  501    0  0.37104936195E+01  0.32037647702E+02  0.55090208856E+01  0.32718923336E+02  0.00000000000E+00 0. -1.
<scales pt_clust_5="13000.00000" pt_clust_6="13000.00000" pt_clust_7="13000.00000" pt_clust_8="13000.00000" pt_clust_9="32.25180"></scales>
<clustering>
<clus scale="   32.252">  1  9  2 -1</clus>
<clus scale="   91.025">  7  8 -1 -1</clus>
<clus scale="   92.039">  5  6 -1 -1</clus>
<clus scale="  216.513">  2  7  1 -1</clus>
<clus scale="   32.252">  1  5  2 -1</clus>
</clustering>
</event>
<event>
 9    1  0.1399746E-005  0.1164094E+03  0.7546771E-02  0.1250236E+00
         21   -1    0    0  501  502  0.00000000000E+00  0.00000000000E+00  0.31108299723E+03  0.31108299723E+03  0.00000000000E+00 0. -1.
          2   -1    0    0  502    0 -0.00000000000E+00 -0.00000000000E+00 -0.13369020485E+03  0.13369020485E+03  0.00000000000E+00 0. -1.
         23    2    1    2    0    0 -0.46518691125E+02 -0.63200275119E+02 -0.41296579231E+02  0.13109042558E+03  0.96545475412E+02 0.  0.
         23    2    1    2    0    0  0.16985548793E+02  0.45213624826E+02  0.14073252824E+02  0.10616535037E+03  0.93489274442E+02 0.  0.
        -11    1    3    3    0    0 -0.57763515003E+02 -0.96654488111E+01 -0.48335214067E+02  0.75936404216E+02  0.00000000000E+00 0. -1.
         11    1    3    3    0    0  0.11244823879E+02 -0.53534826308E+02  0.70386348365E+01  0.55154021361E+02  0.00000000000E+00 0.  1.
        -13    1    4    4    0    0  0.28996859124E+02 -0.20691517551E+02 -0.62351579954E+01  0.36163986683E+02  0.00000000000E+00 0.  1.
         13    1    4    4    0    0 -0.12011310331E+02  0.65905142377E+02  0.20308410819E+02  0.70001363684E+02  0.00000000000E+00 0. -1.
          2    1    1    2  501    0  0.29533142332E+02  0.17986650293E+02  0.20461611879E+03  0.20751742614E+03  0.00000000000E+00 0. -1.
<scales pt_clust_5="13000.00000" pt_clust_6="13000.00000" pt_clust_7="13000.00000" pt_clust_8="13000.00000" pt_clust_9="34.57927"></scales>
<clustering>
<clus scale="   34.579">  1  9  2 -1</clus>
<clus scale="   93.489">  7  8 -1 -1</clus>
<clus scale="   96.545">  5  6 -1 -1</clus>
<clus scale="  113.888">  1  7  2 -1</clus>
<clus scale="   34.579">  1  5  2 -1</clus>
</clustering>
</event>
<event>
 9    1  0.1399746E-005  0.1001608E+03  0.7546771E-02  0.1280989E+00
         21   -1    0    0  501  502  0.00000000000E+00  0.00000000000E+00  0.40223213559E+02  0.40223213559E+02  0.00000000000E+00 0.  1.
          3   -1    0    0  502    0 -0.00000000000E+00 -0.00000000000E+00 -0.50812339528E+03  0.50812339528E+03  0.00000000000E+00 0. -1.
         23    2    1    2    0    0 -0.37783208031E+01  0.32439650615E+02 -0.25306552535E+03  0.27042603291E+03  0.89562673660E+02 0.  0.
         23    2    1    2    0    0  0.56227975346E+02 -0.35603401952E+02 -0.18651499941E+03  0.21822988525E+03  0.91691059373E+02 0.  0.
        -11    1    3    3    0    0  0.25752655886E+02 -0.18637857425E+02 -0.52614007705E+02  0.61471967769E+02  0.00000000000E+00 0.  1.
         11    1    3    3    0    0 -0.29530976689E+02  0.51077508039E+02 -0.20045151764E+03  0.20895406514E+03  0.00000000000E+00 0. -1.
        -13    1    4    4    0    0  0.31195794965E+02  0.29489887744E+02 -0.60152681803E+02  0.73899771521E+02  0.00000000000E+00 0. -1.
         13    1    4    4    0    0  0.25032180380E+02 -0.65093289696E+02 -0.12636231760E+03  0.14433011373E+03  0.00000000000E+00 0.  1.
          3    1    1    2  501    0 -0.52449654542E+02  0.31637513369E+01 -0.28319656966E+02  0.59690690688E+02  0.00000000000E+00 0. -1.
<scales pt_clust_5="13000.00000" pt_clust_6="13000.00000" pt_clust_7="13000.00000" pt_clust_8="13000.00000" pt_clust_9="52.54499"></scales>
<clustering>
<clus scale="   52.545">  1  9  2 -1</clus>
<clus scale="   89.563">  5  6 -1 -1</clus>
<clus scale="   91.691">  7  8 -1 -1</clus>
<clus scale="   98.216">  2  5  1 -1</clus>
<clus scale="   52.545">  1  5  2 -1</clus>
</clustering>
</event>
<event>
 9    1  0.1399746E-005  0.1101290E+03  0.7546771E-02  0.1266365E+00
         -1   -1    0    0    0  501 -0.00000000000E+00  0.00000000000E+00  0.19926717304E+03  0.19926717304E+03  0.00000000000E+00 0.  1.
         21   -1    0    0  501  502  0.00000000000E+00 -0.00000000000E+00 -0.22591390444E+03  0.22591390444E+03  0.00000000000E+00 0.  1.
         23    2    1    2    0    0 -0.35138981473E+02 -0.16798492312E+02  0.15307408592E+03  0.18911932218E+03  0.10400723474E+03 0.  0.
         23    2    1    2    0    0  0.11824992107E+02  0.27088225297E+02 -0.58282433432E+02  0.11197830843E+03  0.90932376650E+02 0.  0.
        -11    1    3    3    0    0 -0.24655252090E+02 -0.51358038564E+02  0.13924343597E+03  0.15044688113E+03  0.00000000000E+00 0.  1.
         11    1    3    3    0    0 -0.10483729384E+02  0.34559546252E+02  0.13830649954E+02  0.38672441055E+02  0.00000000000E+00 0. -1.
        -13    1    4    4    0    0 -0.17359213764E+02  0.11123084794E+02  0.18876857273E+02  0.27953551802E+02  0.00000000000E+00 0.  1.
         13    1    4    4    0    0  0.29184205871E+02  0.15965140504E+02 -0.77159290705E+02  0.84024756624E+02  0.00000000000E+00 0. -1.
         -1    1    1    2    0  502  0.23313989366E+02 -0.10289732986E+02 -0.12143838389E+03  0.12408344687E+03  0.00000000000E+00 0.  1.
<scales pt_clust_5="13000.00000" pt_clust_6="13000.00000" pt_clust_7="13000.00000" pt_clust_8="13000.00000" pt_clust_9="25.48373"></scales>
<clustering>
<clus scale="   25.484">  2  9  1 -1</clus>
<clus scale="   90.932">  7  8 -1 -1</clus>
<clus scale="   97.875">  2  7  1 -1</clus>
<clus scale="  104.007">  5  6 -1 -1</clus>
<clus scale="   25.484">  2  5  1 -1</clus>
</clustering>
</event>
<event>
 9    1  0.1399746E-005  0.1929342E+03  0.7546771E-02  0.1155874E+00
         21   -1    0    0  501  502  0.00000000000E+00  0.00000000000E+00  0.12692727768E+03  0.12692727768E+03  0.00000000000E+00 0.  1.
         -1   -1    0    0    0  501 -0.00000000000E+00 -0.00000000000E+00 -0.46591385991E+03  0.46591385991E+03  0.00000000000E+00 0.  1.
         23    2    1    2    0    0 -0.65744506802E+02  0.17179990277E+03 -0.30104397827E+03  0.36443177633E+03  0.91353686217E+02 0.  0.
         23    2    1    2    0    0  0.18756372479E+02 -0.13838949768E+03 -0.21325498463E+02  0.16840712688E+03  0.91666400187E+02 0.  0.
        -11    1    4    4    0    0 -0.10594549094E+02 -0.11305778485E+03  0.15897192563E+02  0.11466048979E+03  0.00000000000E+00 0.  1.
         11    1    4    4    0    0  0.29350921573E+02 -0.25331712826E+02 -0.37222691026E+02  0.53746637096E+02  0.00000000000E+00 0. -1.
        -11    1    3    3    0    0  0.46014813452E+01  0.41037613828E+02 -0.18503462549E+02  0.45250828783E+02  0.00000000000E+00 0. -1.
         11    1    3    3    0    0 -0.70345988147E+02  0.13076228894E+03 -0.28254051572E+03  0.31918094755E+03  0.00000000000E+00 0.  1.
         -1    1    1    2    0  502  0.46988134322E+02 -0.33410405089E+02 -0.16617105494E+02  0.60002234378E+02  0.00000000000E+00 0.  1.
<scales pt_clust_5="13000.00000" pt_clust_6="13000.00000" pt_clust_7="13000.00000" pt_clust_8="13000.00000" pt_clust_9="57.65535"></scales>
<clustering>
<clus scale="   57.655">  1  9  2 -1</clus>
<clus scale="   91.354">  7  8 -1 -1</clus>
<clus scale="   91.666">  5  6 -1 -1</clus>
<clus scale="  192.786">  2  7  1 -1</clus>
<clus scale="   57.655">  1  5  2 -1</clus>
</clustering>
</event>
<event>
 9    1  0.1399746E-005  0.1295150E+03  0.7546771E-02  0.1228368E+00
         21   -1    0    0  501  502  0.00000000000E+00  0.00000000000E+00  0.91544414859E+02  0.91544414859E+02  0.00000000000E+00 0.  1.
          1   -1    0    0  502    0 -0.00000000000E+00 -0.00000000000E+00 -0.50869772640E+03  0.50869772640E+03  0.00000000000E+00 0. -1.
         23    2    1    2    0    0 -0.43160316246E+01  0.91393551431E+02 -0.32621863274E+03  0.35089483581E+03  0.91308159987E+02 0.  0.
         23    2    1    2    0    0 -0.50258123387E+02 -0.90529968614E+02 -0.12427040126E+03  0.18539142565E+03  0.90583077286E+02 0.  0.
        -11    1    3    3    0    0 -0.29359160601E+02 -0.16411716224E+01 -0.46192886073E+02  0.54757980964E+02  0.00000000000E+00 0.  1.
         11    1    3    3    0    0  0.25043128977E+02  0.93034723053E+02 -0.28002574666E+03  0.29613685484E+03  0.00000000000E+00 0. -1.
        -13    1    4    4    0    0 -0.28080189986E+02 -0.43085304332E+02 -0.12264814545E+03  0.13299401528E+03  0.00000000000E+00 0. -1.
         13    1    4    4    0    0 -0.22177933401E+02 -0.47444664282E+02 -0.16222558088E+01  0.52397410362E+02  0.00000000000E+00 0.  1.
          1    1    1    2  501    0  0.54574155012E+02 -0.86358281689E+00  0.33335722452E+02  0.63955879807E+02  0.00000000000E+00 0. -1.
<scales pt_clust_5="13000.00000" pt_clust_6="13000.00000" pt_clust_7="13000.00000" pt_clust_8="13000.00000" pt_clust_9="54.58099"></scales>
<clustering>
<clus scale="   54.581">  1  9  2 -1</clus>
<clus scale="   90.583">  7  8 -1 -1</clus>
<clus scale="   91.308">  5  6 -1 -1</clus>
<clus scale="  129.005">  1  7  2 -1</clus>
<clus scale="   54.581">  1  5  2 -1</clus>
</clustering>
</event>
<event>
 9    1  0.1399746E-005  0.9535542E+02  0.7546771E-02  0.1291003E+00
         -1   -1    0    0    0  501 -0.00000000000E+00  0.00000000000E+00  0.90326788240E+02  0.90326788240E+02  0.00000000000E+00 0.  1.
         21   -1    0    0  501  502  0.00000000000E+00 -0.00000000000E+00 -0.18780555138E+03  0.18780555138E+03  0.00000000000E+00 0. -1.
         23    2    1    2    0    0  0.30994314065E+02  0.18842241312E+02  0.23076418988E+02  0.99937127114E+02  0.90217685076E+02 0.  0.
         23    2    1    2    0    0 -0.11480713095E+02  0.70754917630E+01 -0.61973272367E+02  0.11122992551E+03  0.91375820025E+02 0.  0.
        -11    1    3    3    0    0 -0.32075599921E+02  0.37888420011E+01  0.97751667877E+01  0.33745419241E+02  0.00000000000E+00 0. -1.
         11    1    3    3    0    0  0.63069913986E+02  0.15053399311E+02  0.13301252200E+02  0.66191707873E+02  0.00000000000E+00 0.  1.
        -13    1    4    4    0    0  0.15191572696E+02 -0.29930359752E+02 -0.55911336689E+02  0.65212635940E+02  0.00000000000E+00 0.  1.
         13    1    4    4    0    0 -0.26672285790E+02  0.37005851515E+02 -0.60619356775E+01  0.46017289575E+02  0.00000000000E+00 0. -1.
         -1    1    1    2    0  502 -0.19513600970E+02 -0.25917733075E+02 -0.58581909756E+02  0.66965286987E+02  0.00000000000E+00 0.  1.
<scales pt_clust_5="13000.00000" pt_clust_6="13000.00000" pt_clust_7="13000.00000" pt_clust_8="13000.00000" pt_clust_9="32.44240"></scales>
<clustering>
<clus scale="   32.442">  2  9  1 -1</clus>
<clus scale="   90.218">  5  6 -1 -1</clus>
<clus scale="   91.376">  7  8 -1 -1</clus>
<clus scale="   94.246">  1  5  2 -1</clus>
<clus scale="   32.442">  2  5  1 -1</clus>
</clustering>
</event>
<event>
 9    1  0.1399746E-005  0.9642040E+02  0.7546771E-02  0.1288673E+00
         21   -1    0    0  501  502  0.00000000000E+00  0.00000000000E+00  0.44975165343E+03  0.44975165343E+03  0.00000000000E+00 0. -1.
         -2   -1    0    0    0  501 -0.00000000000E+00 -0.00000000000E+00 -0.33600429014E+02  0.33600429014E+02  0.00000000000E+00 0.  1.
         23    2    1    2    0    0 -0.48592468570E+00  0.13450399500E+02  0.11041085468E+03  0.14550379422E+03  0.93806438644E+02 0.  0.
         23    2    1    2    0    0 -0.30358750391E+02 -0.25795300668E+02  0.16588804288E+03  0.19410384871E+03  0.92576509176E+02 0.  0.
        -11    1    4    4    0    0 -0.13681524051E+02  0.23075602482E+02  0.80120857220E+01  0.27997518602E+02  0.00000000000E+00 0.  1.
         11    1    4    4    0    0 -0.16677226340E+02 -0.48870903150E+02  0.15787595716E+03  0.16610633010E+03  0.00000000000E+00 0. -1.
        -13    1    3    3    0    0  0.16136145457E+02  0.45388975911E+02  0.94643577055E+02  0.10619765064E+03  0.00000000000E+00 0.  1.
         13    1    3    3    0    0 -0.16622070143E+02 -0.31938576411E+02  0.15767277627E+02  0.39306143576E+02  0.00000000000E+00 0. -1.
         -2    1    1    2    0  502  0.30844675076E+02  0.12344901168E+02  0.13985232686E+03  0.14374443952E+03  0.00000000000E+00 0.  1.
<scales pt_clust_5="13000.00000" pt_clust_6="13000.00000" pt_clust_7="13000.00000" pt_clust_8="13000.00000" pt_clust_9="33.22334"></scales>
<clustering>
<clus scale="   33.223">  1  9  2 -1</clus>
<clus scale="   92.577">  5  6 -1 -1</clus>
<clus scale="   93.806">  7  8 -1 -1</clus>
<clus scale="   95.224">  1  5  2 -1</clus>
<clus scale="   33.223">  1  5  2 -1</clus>
</clustering>
</event>
<event>
 9    1  0.1399746E-005  0.1017188E+03  0.7546771E-02  0.1276928E+00
         -3   -1    0    0    0  501 -0.00000000000E+00  0.00000000000E+00  0.37565492776E+03  0.37565492776E+03  0.00000000000E+00 0.  1.
         21   -1    0    0  501  502  0.00000000000E+00 -0.00000000000E+00 -0.72122801316E+02  0.72122801316E+02  0.00000000000E+00 0. -1.
         23    2    1    2    0    0  0.10056135667E+02  0.45088188211E+02  0.30669895855E+03  0.32320073515E+03  0.90886706625E+02 0.  0.
         23    2    1    2    0    0 -0.29700980380E+02 -0.36288747226E+02  0.38198583920E+01  0.10194595486E+03  0.90439841790E+02 0.  0.
        -11    1    3    3    0    0 -0.14995689814E+02  0.64204413242E+02  0.15809714738E+03  0.17129444066E+03  0.00000000000E+00 0.  1.
         11    1    3    3    0    0  0.25051825481E+02 -0.19116225031E+02  0.14860181118E+03  0.15190629449E+03  0.00000000000E+00 0. -1.
        -13    1    4    4    0    0 -0.75851168578E+01 -0.53987841836E+02  0.30977524481E+02  0.62704290817E+02  0.00000000000E+00 0. -1.
         13    1    4    4    0    0 -0.22115863522E+02  0.17699094610E+02 -0.27157666089E+02  0.39241664041E+02  0.00000000000E+00 0.  1.
         -3    1    1    2    0  502  0.19644844713E+02 -0.87994409849E+01 -0.69866904976E+01  0.22631039074E+02  0.00000000000E+00 0.  1.
<scales pt_clust_5="13000.00000" pt_clust_6="13000.00000" pt_clust_7="13000.00000" pt_clust_8="13000.00000" pt_clust_9="21.52557"></scales>
<clustering>
<clus scale="   21.526">  2  9  1 -1</clus>
<clus scale="   90.440">  7  8 -1 -1</clus>
<clus scale="   90.887">  5  6 -1 -1</clus>
<clus scale="  101.320">  2  7  1 -1</clus>
<clus scale="   21.526">  2  5  1 -1</clus>
</clustering>
</event>
<event>
 9    1  0.1399746E-005  0.1095635E+03  0.7546771E-02  0.1263017E+00
          1   -1    0    0  502    0 -0.00000000000E+00  0.00000000000E+00  0.30059467226E+03  0.30059467226E+03  0.00000000000E+00 0. -1.
         21   -1    0    0  501  502  0.00000000000E+00 -0.00000000000E+00 -0.30811820314E+03  0.30811820314E+03  0.00000000000E+00 0.  1.
         23    2    1    2    0    0  0.36377056320E+02  0.38643411878E+02  0.27551364438E+03  0.29655050753E+03  0.96009539983E+02 0.  0.
         23    2    1    2    0    0 -0.13891077040E+02 -0.49618342321E+02 -0.24357585772E+03  0.26543695782E+03  0.92046934759E+02 0.  0.
        -11    1    4    4    0    0 -0.49934913509E+02 -0.13581993884E+02 -0.15287870677E+03  0.16139970610E+03  0.00000000000E+00 0.  1.
         11    1    4    4    0    0  0.36043836469E+02 -0.36036348437E+02 -0.90697150951E+02  0.10403725173E+03  0.00000000000E+00 0. -1.
        -13    1    3    3    0    0  0.66791327905E+01  0.67772854933E+02  0.17035700763E+03  0.18346465799E+03  0.00000000000E+00 0.  1.
         13    1    3    3    0    0  0.29697923529E+02 -0.29129443055E+02  0.10515663675E+03  0.11308584954E+03  0.00000000000E+00 0. -1.
          1    1    1    2  501    0 -0.22485979279E+02  0.10974930443E+02 -0.39461317534E+02  0.46725410046E+02  0.00000000000E+00 0. -1.
<scales pt_clust_5="13000.00000" pt_clust_6="13000.00000" pt_clust_7="13000.00000" pt_clust_8="13000.00000" pt_clust_9="25.02136"></scales>
<clustering>
<clus scale="   25.021">  2  9  1 -1</clus>
<clus scale="   92.047">  5  6 -1 -1</clus>
<clus scale="   96.010">  7  8 -1 -1</clus>
<clus scale="  106.108">  2  5  1 -1</clus>
<clus scale="   25.021">  2  5  1 -1</clus>
</clustering>
</event>
<event>
 9    1  0.1399746E-005  0.1084833E+03  0.7546771E-02  0.1264490E+00
         21   -1    0    0  501  502  0.00000000000E+00  0.00000000000E+00  0.30061486739E+02  0.30061486739E+02  0.00000000000E+00 0. -1.
         -1   -1    0    0    0  501 -0.00000000000E+00 -0.00000000000E+00 -0.70919573367E+03  0.70919573367E+03  0.00000000000E+00 0.  1.
         23    2    1    2    0    0  0.18837834640E+01  0.74076695578E+02 -0.45823135844E+03  0.47225943391E+03  0.86960275968E+02 0.  0.
         23    2    1    2    0    0 -0.21907616631E+02 -0.36282580607E+02 -0.18959334429E+03  0.21399178137E+03  0.89724450251E+02 0.  0.
        -13    1    3    3    0    0  0.36878898375E+02  0.65972572543E+02 -0.25846036007E+03  0.26928459147E+03  0.00000000000E+00 0.  1.
         13    1    3    3    0    0 -0.34995114911E+02  0.81041230346E+01 -0.19977099836E+03  0.20297484244E+03  0.00000000000E+00 0. -1.
        -13    1    4    4    0    0 -0.43859755121E+02  0.32919341929E+01 -0.46914180287E+02  0.64307505487E+02  0.00000000000E+00 0. -1.
         13    1    4    4    0    0  0.21952138490E+02 -0.39574514800E+02 -0.14267916401E+03  0.14968427589E+03  0.00000000000E+00 0.  1.
         -1    1    1    2    0  502  0.20023833167E+02 -0.37794114971E+02 -0.31309544200E+02  0.53006005123E+02  0.00000000000E+00 0.  1.
<scales pt_clust_5="13000.00000" pt_clust_6="13000.00000" pt_clust_7="13000.00000" pt_clust_8="13000.00000" pt_clust_9="42.77089"></scales>
<clustering>
<clus scale="   42.771">  1  9  2 -1</clus>
<clus scale="   86.960">  5  6 -1 -1</clus>
<clus scale="   89.724">  7  8 -1 -1</clus>
<clus scale="  106.208">  2  5  1 -1</clus>
<clus scale="   42.771">  1  5  2 -1</clus>
</clustering>
</event>
<event>
 9    1  0.1399746E-005  0.1202983E+03  0.7546771E-02  0.1244202E+00
         -3   -1    0    0    0  501 -0.00000000000E+00  0.00000000000E+00  0.36723806100E+03  0.36723806100E+03  0.00000000000E+00 0.  1.
         21   -1    0    0  501  502  0.00000000000E+00 -0.00000000000E+00 -0.12096958748E+03  0.12096958748E+03  0.00000000000E+00 0. -1.
         23    2    1    2    0    0  0.74880754760E+02  0.23338051030E+02  0.21732134353E+03  0.25045542739E+03  0.96682794194E+02 0.  0.
         23    2    1    2    0    0 -0.63512151047E+02 -0.50324007948E+00  0.10758015933E+03  0.15508525643E+03  0.91890693220E+02 0.  0.
        -11    1    3    3    0    0  0.37937690214E+02 -0.28587715238E+02  0.15178122528E+03  0.15904108321E+03  0.00000000000E+00 0.  1.
         11    1    3    3    0    0  0.36943064546E+02  0.51925766268E+02  0.65540118253E+02  0.91414344177E+02  0.00000000000E+00 0. -1.
        -13    1    4    4    0    0 -0.64809687924E+02  0.33406847132E+02  0.92938202557E+02  0.11812629927E+03  0.00000000000E+00 0. -1.
         13    1    4    4    0    0  0.12975368766E+01 -0.33910087212E+02  0.14641956772E+02  0.36958957166E+02  0.00000000000E+00 0.  1.
         -3    1    1    2    0  502 -0.11368603712E+02 -0.22834810951E+02 -0.78633029348E+02  0.82666964659E+02  0.00000000000E+00 0.  1.
<scales pt_clust_5="13000.00000" pt_clust_6="13000.00000" pt_clust_7="13000.00000" pt_clust_8="13000.00000" pt_clust_9="25.50831"></scales>
<clustering>
<clus scale="   25.508">  2  9  1 -1</clus>
<clus scale="   91.891">  7  8 -1 -1</clus>
<clus scale="   96.683">  5  6 -1 -1</clus>
<clus scale="  116.482">  2  7  1 -1</clus>
<clus scale="   25.508">  2  5  1 -1</clus>
</clustering>
</event>
<event>
 9    1  0.1399746E-005  0.1335066E+03  0.7546771E-02  0.1222874E+00
          2   -1    0    0  502    0 -0.00000000000E+00  0.00000000000E+00  0.25387780126E+03  0.25387780126E+03  0.00000000000E+00 0. -1.
         21   -1    0    0  501  502  0.00000000000E+00 -0.00000000000E+00 -0.10864155168E+03  0.10864155168E+03  0.00000000000E+00 0.  1.
         23    2    1    2    0    0 -0.55791280424E+02 -0.85398480206E+02  0.10595958891E+03  0.17259392671E+03  0.90308702028E+02 0.  0.
         23    2    1    2    0    0  0.75357232696E+02  0.60468624936E+02  0.67791215755E+02  0.14729440439E+03  0.88118247321E+02 0.  0.
        -11    1    3    3    0    0 -0.12192126544E+02 -0.24816386593E+02 -0.14243248183E+02  0.31102590117E+02  0.00000000000E+00 0.  1.
         11    1    3    3    0    0 -0.43599153880E+02 -0.60582093613E+02  0.12020283709E+03  0.14149133659E+03  0.00000000000E+00 0. -1.
        -13    1    4    4    0    0  0.17910579375E+02  0.67774890224E+02  0.22014315147E+02  0.73476898885E+02  0.00000000000E+00 0. -1.
         13    1    4    4    0    0  0.57446653321E+02 -0.73062652883E+01  0.45776900608E+02  0.73817505509E+02  0.00000000000E+00 0.  1.
          2    1    1    2  501    0 -0.19565952272E+02  0.24929855271E+02 -0.28514555079E+02  0.42631021844E+02  0.00000000000E+00 0. -1.
<scales pt_clust_5="13000.00000" pt_clust_6="13000.00000" pt_clust_7="13000.00000" pt_clust_8="13000.00000" pt_clust_9="31.69107"></scales>
<clustering>
<clus scale="   31.691">  2  9  1 -1</clus>
<clus scale="   88.118">  7  8 -1 -1</clus>
<clus scale="   90.309">  5  6 -1 -1</clus>
<clus scale="  132.035">  2  7  1 -1</clus>
<clus scale="   31.691">  2  5  1 -1</clus>
</clustering>
</event>
<event>
 9    1  0.1399746E-005  0.1363047E+03  0.7546771E-02  0.1237578E+00
         21   -1    0    0  501  502  0.00000000000E+00  0.00000000000E+00  0.14286419914E+04  0.14286419914E+04  0.00000000000E+00 0.  1.
         -1   -1    0    0    0  501 -0.00000000000E+00 -0.00000000000E+00 -0.42102687648E+02  0.42102687648E+02  0.00000000000E+00 0.  1.
         23    2    1    2    0    0  0.38264513485E+01  0.84332272340E+01  0.37658921604E+02  0.99029978712E+02  0.91120696089E+02 0.  0.
         23    2    1    2    0    0 -0.97378148609E+02  0.25220876937E+02  0.55610667164E+03  0.57273117431E+03  0.92993393978E+02 0.  0.
        -11    1    3    3    0    0  0.10837121325E+02 -0.32929310871E+02 -0.94667632341E+01  0.35936086587E+02  0.00000000000E+00 0. -1.
         11    1    3    3    0    0 -0.70106699767E+01  0.41362538105E+02  0.47125684838E+02  0.63093892125E+02  0.00000000000E+00 0.  1.
        -13    1    4    4    0    0 -0.80716281664E+02  0.57311655786E+02  0.36233344255E+03  0.37561318880E+03  0.00000000000E+00 0.  1.
         13    1    4    4    0    0 -0.16661866945E+02 -0.32090778848E+02  0.19377322910E+03  0.19711798551E+03  0.00000000000E+00 0. -1.
         -1    1    1    2    0  502  0.93551697261E+02 -0.33654104171E+02  0.79277371052E+03  0.79898352604E+03  0.00000000000E+00 0.  1.
<scales pt_clust_5="13000.00000" pt_clust_6="13000.00000" pt_clust_7="13000.00000" pt_clust_8="13000.00000" pt_clust_9="99.65539"></scales>
<clustering>
<clus scale="   91.121">  5  6 -1 -1</clus>
<clus scale="   91.590">  2  5  1 -1</clus>
<clus scale="   92.993">  7  8 -1 -1</clus>
<clus scale="   99.655">  1  9  2 -1</clus>
<clus scale="   99.655">  1  5  2 -1</clus>
</clustering>
</event>
<event>
 9    1  0.1399746E-005  0.1346467E+03  0.7546771E-02  0.1227837E+00
         21   -1    0    0  501  502  0.00000000000E+00  0.00000000000E+00  0.59637312439E+02  0.59637312439E+02  0.00000000000E+00 0. -1.
         -1   -1    0    0    0  501 -0.00000000000E+00 -0.00000000000E+00 -0.36788239987E+03  0.36788239987E+03  0.00000000000E+00 0.  1.
         23    2    1    2    0    0  0.58511261481E+02 -0.86153490740E+01 -0.11830350880E+03  0.16068735004E+03  0.91251916735E+02 0.  0.
         23    2    1    2    0    0 -0.81121399793E+02  0.33288127971E+02 -0.18288181397E+03  0.23262995519E+03  0.11393926981E+03 0.  0.
        -11    1    3    3    0    0  0.71945078178E+02 -0.24280306675E+02 -0.11766870928E+03  0.14004125360E+03  0.00000000000E+00 0.  1.
         11    1    3    3    0    0 -0.13433816697E+02  0.15664957601E+02 -0.63479952139E+00  0.20646096438E+02  0.00000000000E+00 0. -1.
        -11    1    4    4    0    0 -0.60537963296E+02  0.46216683991E+02 -0.36886978895E+02  0.84625504968E+02  0.00000000000E+00 0. -1.
         11    1    4    4    0    0 -0.20583436497E+02 -0.12928556020E+02 -0.14599483507E+03  0.14800445023E+03  0.00000000000E+00 0.  1.
         -1    1    1    2    0  502  0.22610138312E+02 -0.24672778897E+02 -0.70597646677E+01  0.34202407081E+02  0.00000000000E+00 0.  1.
<scales pt_clust_5="13000.00000" pt_clust_6="13000.00000" pt_clust_7="13000.00000" pt_clust_8="13000.00000" pt_clust_9="33.46587"></scales>
<clustering>
<clus scale="   33.466">  1  9  2 -1</clus>
<clus scale="   91.252">  5  6 -1 -1</clus>
<clus scale="  113.939">  7  8 -1 -1</clus>
<clus scale="  116.080">  2  5  1 -1</clus>
<clus scale="   33.466">  1  5  2 -1</clus>
</clustering>
</event>
<event>
 9    1  0.1399746E-005  0.1088488E+03  0.7546771E-02  0.1262825E+00
         21   -1    0    0  501  502  0.00000000000E+00  0.00000000000E+00  0.13595458437E+03  0.13595458437E+03  0.00000000000E+00 0. -1.
          1   -1    0    0  502    0 -0.00000000000E+00 -0.00000000000E+00 -0.17185820978E+03  0.17185820978E+03  0.00000000000E+00 0. -1.
         23    2    1    2    0    0 -0.41343541359E+02 -0.48359843536E+02 -0.78942482156E+02  0.13679440883E+03  0.91830452026E+02 0.  0.
         23    2    1    2    0    0  0.23744287378E+02  0.29738064921E+02  0.78786170531E+02  0.12703685712E+03  0.92102978845E+02 0.  0.
        -11    1    4    4    0    0  0.42809989402E+02  0.55974776685E+01  0.77671791633E+00  0.43181364494E+02  0.00000000000E+00 0.  1.
         11    1    4    4    0    0 -0.19065702024E+02  0.24140587253E+02  0.78009452615E+02  0.83855492628E+02  0.00000000000E+00 0. -1.
        -13    1    3    3    0    0 -0.38465460553E+02 -0.23972462672E+01 -0.82036024610E+02  0.90638004055E+02  0.00000000000E+00 0.  1.
         13    1    3    3    0    0 -0.28780808062E+01 -0.45962597269E+02  0.30935424547E+01  0.46156404775E+02  0.00000000000E+00 0. -1.
          1    1    1    2  501    0  0.17599253982E+02  0.18621778615E+02 -0.35747313785E+02  0.43981528195E+02  0.00000000000E+00 0. -1.
<scales pt_clust_5="13000.00000" pt_clust_6="13000.00000" pt_clust_7="13000.00000" pt_clust_8="13000.00000" pt_clust_9="25.62235"></scales>
<clustering>
<clus scale="   25.622">  1  9  2 -1</clus>
<clus scale="   91.830">  7  8 -1 -1</clus>
<clus scale="   92.103">  5  6 -1 -1</clus>
<clus scale="  108.618">  2  7  1 -1</clus>
<clus scale="   25.622">  1  5  2 -1</clus>
</clustering>
</event>
<event>
 9    1  0.1399746E-005  0.9942254E+02  0.7546771E-02  0.1282995E+00
         21   -1    0    0  501  502  0.00000000000E+00  0.00000000000E+00  0.28658562338E+02  0.28658562338E+02  0.00000000000E+00 0. -1.
          1   -1    0    0  502    0 -0.00000000000E+00 -0.00000000000E+00 -0.85576596497E+03  0.85576596497E+03  0.00000000000E+00 0. -1.
         23    2    1    2    0    0  0.20448529568E+01 -0.27766682939E+02 -0.49828110217E+03  0.50742466257E+03  0.91763616441E+02 0.  0.
         23    2    1    2    0    0 -0.36064629151E+02  0.52160196788E+02 -0.31428935159E+03  0.33268607938E+03  0.88774361643E+02 0.  0.
        -11    1    3    3    0    0  0.44869446847E+02 -0.12952263536E+01 -0.20537853905E+03  0.21022675656E+03  0.00000000000E+00 0.  1.
         11    1    3    3    0    0 -0.42824593891E+02 -0.26471456586E+02 -0.29290256312E+03  0.29719790601E+03  0.00000000000E+00 0. -1.
        -13    1    4    4    0    0  0.10382176825E+02  0.60469159541E+02 -0.19412875607E+03  0.20359342520E+03  0.00000000000E+00 0.  1.
         13    1    4    4    0    0 -0.46446805976E+02 -0.83089627529E+01 -0.12016059552E+03  0.12909265418E+03  0.00000000000E+00 0. -1.
          1    1    1    2  501    0  0.34019776194E+02 -0.24393513849E+02 -0.14536948874E+02  0.44313785358E+02  0.00000000000E+00 0. -1.
<scales pt_clust_5="13000.00000" pt_clust_6="13000.00000" pt_clust_7="13000.00000" pt_clust_8="13000.00000" pt_clust_9="41.86154"></scales>
<clustering>
<clus scale="   41.862">  1  9  2 -1</clus>
<clus scale="   88.774">  7  8 -1 -1</clus>
<clus scale="   91.764">  5  6 -1 -1</clus>
<clus scale="   96.670">  1  7  2 -1</clus>
<clus scale="   41.862">  1  5  2 -1</clus>
</clustering>
</event>
<event>
 9    1  0.1399746E-005  0.1600929E+03  0.7546771E-02  0.1189085E+00
         21   -1    0    0  501  502  0.00000000000E+00  0.00000000000E+00  0.17095361595E+03  0.17095361595E+03  0.00000000000E+00 0. -1.
         -3   -1    0    0    0  501 -0.00000000000E+00 -0.00000000000E+00 -0.19281851352E+03  0.19281851352E+03  0.00000000000E+00 0.  1.
         23    2    1    2    0    0 -0.71720177888E+02 -0.98380733308E+02 -0.39539822849E+02  0.15653141279E+03  0.90089583175E+02 0.  0.
         23    2    1    2    0    0  0.78718351320E+02  0.12850946959E+03  0.24080431757E+02  0.17565360390E+03  0.86965848240E+02 0.  0.
        -11    1    3    3    0    0 -0.32149753796E+02 -0.22062022865E+02 -0.56754123667E+02  0.68857607243E+02  0.00000000000E+00 0.  1.
         11    1    3    3    0    0 -0.39570424092E+02 -0.76318710443E+02  0.17214300817E+02  0.87673805547E+02  0.00000000000E+00 0. -1.
        -11    1    4    4    0    0  0.47836735323E+01  0.90335729928E+02  0.71814073305E+01  0.90746902125E+02  0.00000000000E+00 0.  1.
         11    1    4    4    0    0  0.73934677787E+02  0.38173739660E+02  0.16899024427E+02  0.84906701771E+02  0.00000000000E+00 0. -1.
         -3    1    1    2    0  502 -0.69981734315E+01 -0.30128736280E+02 -0.64055064755E+01  0.31587112790E+02  0.00000000000E+00 0.  1.
<scales pt_clust_5="13000.00000" pt_clust_6="13000.00000" pt_clust_7="13000.00000" pt_clust_8="13000.00000" pt_clust_9="30.93083"></scales>
<clustering>
<clus scale="   30.931">  1  9  2 -1</clus>
<clus scale="   86.966">  7  8 -1 -1</clus>
<clus scale="   90.090">  5  6 -1 -1</clus>
<clus scale="  158.356">  1  7  2 -1</clus>
<clus scale="   30.931">  1  5  2 -1</clus>
</clustering>
</event>
<event>
 9    1  0.1399746E-005  0.9901786E+02  0.7546771E-02  0.1283215E+00
         21   -1    0    0  501  502  0.00000000000E+00  0.00000000000E+00  0.19395581552E+03  0.19395581552E+03  0.00000000000E+00 0.  1.
         -3   -1    0    0    0  501 -0.00000000000E+00 -0.00000000000E+00 -0.33760572586E+03  0.33760572586E+03  0.00000000000E+00 0.  1.
         23    2    1    2    0    0  0.39389420064E+02  0.19014122166E+02 -0.24331592378E+03  0.26322164138E+03  0.90387667707E+02 0.  0.
         23    2    1    2    0    0 -0.47171579053E+01 -0.24206892807E+02 -0.54798785889E+02  0.10994638731E+03  0.92071037305E+02 0.  0.
        -11    1    4    4    0    0  0.33700868479E+02 -0.40394942872E+02 -0.38474136363E+02  0.65174834981E+02  0.00000000000E+00 0.  1.
         11    1    4    4    0    0 -0.38418026385E+02  0.16188050065E+02 -0.16324649526E+02  0.44771552333E+02  0.00000000000E+00 0. -1.
        -13    1    3    3    0    0  0.57872640024E+02  0.38476727756E+02 -0.13763185756E+03  0.15418245444E+03  0.00000000000E+00 0.  1.
         13    1    3    3    0    0 -0.18483219960E+02 -0.19462605590E+02 -0.10568406622E+03  0.10903918694E+03  0.00000000000E+00 0. -1.
         -3    1    1    2    0  502 -0.34672262158E+02  0.51927706409E+01  0.15446479933E+03  0.15839351269E+03  0.00000000000E+00 0.  1.
<scales pt_clust_5="13000.00000" pt_clust_6="13000.00000" pt_clust_7="13000.00000" pt_clust_8="13000.00000" pt_clust_9="35.05896"></scales>
<clustering>
<clus scale="   35.059">  1  9  2 -1</clus>
<clus scale="   90.388">  7  8 -1 -1</clus>
<clus scale="   92.071">  5  6 -1 -1</clus>
<clus scale="   97.455">  2  7  1 -1</clus>
<clus scale="   35.059">  1  5  2 -1</clus>
</clustering>
</event>
<event>
 9    1  0.1399746E-005  0.1160933E+03  0.7546771E-02  0.1251057E+00
         21   -1    0    0  501  502  0.00000000000E+00  0.00000000000E+00  0.44566805066E+02  0.44566805066E+02  0.00000000000E+00 0. -1.
          1   -1    0    0  502    0 -0.00000000000E+00 -0.00000000000E+00 -0.63247077379E+03  0.63247077379E+03  0.00000000000E+00 0. -1.
         23    2    1    2    0    0 -0.51102940273E+02  0.46985773732E+02 -0.30069864411E+03  0.32108546015E+03  0.88639859589E+02 0.  0.
         23    2    1    2    0    0  0.83559350302E+02  0.16131047312E+01 -0.26597622759E+03  0.29377540200E+03  0.92605971995E+02 0.  0.
        -11    1    4    4    0    0  0.43739538307E+02  0.93178948611E+01 -0.28880874446E+02  0.53236033706E+02  0.00000000000E+00 0.  1.
         11    1    4    4    0    0  0.39819811995E+02 -0.77047901299E+01 -0.23709535314E+03  0.24053936830E+03  0.00000000000E+00 0. -1.
        -13    1    3    3    0    0  0.17467528897E+02  0.33146045051E+02 -0.15499765211E+03  0.15946174158E+03  0.00000000000E+00 0.  1.
         13    1    3    3    0    0 -0.68570469170E+02  0.13839728682E+02 -0.14570099200E+03  0.16162371856E+03  0.00000000000E+00 0. -1.
          1    1    1    2  501    0 -0.32456410030E+02 -0.48598878464E+02 -0.21229097019E+02  0.62176716705E+02  0.00000000000E+00 0. -1.
<scales pt_clust_5="13000.00000" pt_clust_6="13000.00000" pt_clust_7="13000.00000" pt_clust_8="13000.00000" pt_clust_9="58.44031"></scales>
<clustering>
<clus scale="   58.440">  1  9  2 -1</clus>
<clus scale="   88.640">  7  8 -1 -1</clus>
<clus scale="   92.606">  5  6 -1 -1</clus>
<clus scale="  112.955">  2  7  1 -1</clus>
<clus scale="   58.440">  1  5  2 -1</clus>
</clustering>
</event>
<event>
 9    1  0.1399746E-005  0.2487771E+03  0.7546771E-02  0.1114140E+00
         21   -1    0    0  501  502  0.00000000000E+00  0.00000000000E+00  0.67214927315E+03  0.67214927315E+03  0.00000000000E+00 0. -1.
         -3   -1    0    0    0  501 -0.00000000000E+00 -0.00000000000E+00 -0.13353073127E+03  0.13353073127E+03  0.00000000000E+00 0.  1.
         23    2    1    2    0    0  0.19677947571E+03 -0.38038244693E+02  0.16555596194E+03  0.27557902667E+03  0.91465585236E+02 0.  0.
         23    2    1    2    0    0 -0.26535815587E+03  0.64064726337E+02  0.22596009288E+03  0.36572471786E+03  0.90428787640E+02 0.  0.
        -11    1    3    3    0    0  0.13298854709E+03 -0.42479410173E+02  0.59546987125E+02  0.15177713142E+03  0.00000000000E+00 0.  1.
         11    1    3    3    0    0  0.63790928624E+02  0.44411654802E+01  0.10600897482E+03  0.12380189525E+03  0.00000000000E+00 0. -1.
        -13    1    4    4    0    0 -0.94415252656E+02 -0.19798423911E+02  0.88174395605E+02  0.13069407624E+03  0.00000000000E+00 0.  1.
         13    1    4    4    0    0 -0.17094290321E+03  0.83863150248E+02  0.13778569727E+03  0.23503064162E+03  0.00000000000E+00 0. -1.
         -3    1    1    2    0  502  0.68578680155E+02 -0.26026481644E+02  0.14710248705E+03  0.16437625989E+03  0.00000000000E+00 0.  1.
<scales pt_clust_5="13000.00000" pt_clust_6="13000.00000" pt_clust_7="13000.00000" pt_clust_8="13000.00000" pt_clust_9="73.35130"></scales>
<clustering>
<clus scale="   73.351">  1  9  2 -1</clus>
<clus scale="   90.429">  7  8 -1 -1</clus>
<clus scale="   91.466">  5  6 -1 -1</clus>
<clus scale="  248.398">  1  7  2 -1</clus>
<clus scale="   73.351">  1  5  2 -1</clus>
</clustering>
</event>
<event>
 9    1  0.1399746E-005  0.2344953E+03  0.7546771E-02  0.1139873E+00
         21   -1    0    0  501  502  0.00000000000E+00  0.00000000000E+00  0.75762211851E+03  0.75762211851E+03  0.00000000000E+00 0. -1.
         -4   -1    0    0    0  501 -0.00000000000E+00 -0.00000000000E+00 -0.14777423352E+03  0.14777423352E+03  0.00000000000E+00 0.  1.
         23    2    1    2    0    0  0.93646330030E+02 -0.87852643941E+02  0.57341952282E+02  0.16724298189E+03  0.90522888403E+02 0.  0.
         23    2    1    2    0    0 -0.11740547300E+03  0.26769984861E+03  0.31548923589E+03  0.43967987303E+03  0.91310890628E+02 0.  0.
        -11    1    4    4    0    0 -0.21187633223E+02  0.40908990646E+01  0.45070123170E+02  0.49969663390E+02  0.00000000000E+00 0.  1.
         11    1    4    4    0    0 -0.96217839781E+02  0.26360894955E+03  0.27041911272E+03  0.38971020964E+03  0.00000000000E+00 0. -1.
        -13    1    3    3    0    0  0.10824482418E+03 -0.56339679220E+02  0.39954738939E+02  0.12840359255E+03  0.00000000000E+00 0.  1.
         13    1    3    3    0    0 -0.14598494145E+02 -0.31512964720E+02  0.17387213343E+02  0.38839389344E+02  0.00000000000E+00 0. -1.
         -4    1    1    2    0  502  0.23759142974E+02 -0.17984720467E+03  0.23701669682E+03  0.29847349710E+03  0.00000000000E+00 0.  1.
<scales pt_clust_5="13000.00000" pt_clust_6="13000.00000" pt_clust_7="13000.00000" pt_clust_8="13000.00000" pt_clust_9="215.98699"></scales>
<clustering>
<clus scale="   90.523">  7  8 -1 -1</clus>
<clus scale="   91.311">  5  6 -1 -1</clus>
<clus scale="  157.105">  2  7  1 -1</clus>
<clus scale="  215.987">  1  9  2 -1</clus>
<clus scale="  215.987">  1  5  2 -1</clus>
</clustering>
</event>
<event>
 9    1  0.1399746E-005  0.1123100E+03  0.7546771E-02  0.1257420E+00
          3   -1    0    0  502    0 -0.00000000000E+00  0.00000000000E+00  0.75483981183E+03  0.75483981183E+03  0.00000000000E+00 0. -1.
         21   -1    0    0  501  502  0.00000000000E+00 -0.00000000000E+00 -0.31312899472E+02  0.31312899472E+02  0.00000000000E+00 0. -1.
         23    2    1    2    0    0  0.33938679553E+02  0.54986034822E+02  0.37821256697E+03  0.39446251433E+03  0.91545788532E+02 0.  0.
         23    2    1    2    0    0 -0.55149210555E+01 -0.60082863398E+02  0.34509438484E+03  0.36281224532E+03  0.94351608780E+02 0.  0.
        -11    1    3    3    0    0  0.46234324457E+02  0.18720808362E+01  0.26253288221E+03  0.26657950350E+03  0.00000000000E+00 0. -1.
         11    1    3    3    0    0 -0.12295644904E+02  0.53113953986E+02  0.11567968477E+03  0.12788301083E+03  0.00000000000E+00 0.  1.
        -11    1    4    4    0    0  0.10474519640E+02 -0.83192354147E+02  0.26275023274E+03  0.27580494585E+03  0.00000000000E+00 0. -1.
         11    1    4    4    0    0 -0.15989440696E+02  0.23109490749E+02  0.82344152104E+02  0.87007299476E+02  0.00000000000E+00 0.  1.
          3    1    1    2  501    0 -0.28423758498E+02  0.50968285759E+01  0.21996053880E+00  0.28877951647E+02  0.00000000000E+00 0. -1.
<scales pt_clust_5="13000.00000" pt_clust_6="13000.00000" pt_clust_7="13000.00000" pt_clust_8="13000.00000" pt_clust_9="28.87711"></scales>
<clustering>
<clus scale="   28.877">  2  9  1 -1</clus>
<clus scale="   91.546">  5  6 -1 -1</clus>
<clus scale="   94.352">  7  8 -1 -1</clus>
<clus scale="  109.963">  1  5  2 -1</clus>
<clus scale="   28.877">  2  5  1 -1</clus>
</clustering>
</event>
<event>
 9    1  0.1399746E-005  0.1701446E+03  0.7546771E-02  0.1192960E+00
          1   -1    0    0  502    0 -0.00000000000E+00  0.00000000000E+00  0.58573422768E+03  0.58573422768E+03  0.00000000000E+00 0. -1.
         21   -1    0    0  501  502  0.00000000000E+00 -0.00000000000E+00 -0.11663156639E+03  0.11663156639E+03  0.00000000000E+00 0. -1.
         23    2    1    2    0    0  0.53969166166E+02 -0.44864682019E+01  0.78803909850E+02  0.14448945099E+03  0.10832518611E+03 0.  0.
         23    2    1    2    0    0  0.12866767809E+02 -0.12989694910E+03  0.37528250622E+03  0.40704056305E+03  0.88353208166E+02 0.  0.
        -11    1    4    4    0    0 -0.28303108133E+02 -0.22857712703E+02  0.47882279056E+02  0.60135294192E+02  0.00000000000E+00 0.  1.
         11    1    4    4    0    0  0.41169875941E+02 -0.10703923640E+03  0.32740022717E+03  0.34690526886E+03  0.00000000000E+00 0. -1.
        -11    1    3    3    0    0 -0.31486248485E+02 -0.11391941949E+01  0.39063514241E+02  0.50186051368E+02  0.00000000000E+00 0.  1.
         11    1    3    3    0    0  0.85455414651E+02 -0.33472740070E+01  0.39740395609E+02  0.94303399619E+02  0.00000000000E+00 0. -1.
          1    1    1    2  501    0 -0.66835933975E+02  0.13438341731E+03  0.15016245207E+02  0.15083578003E+03  0.00000000000E+00 0. -1.
<scales pt_clust_5="13000.00000" pt_clust_6="13000.00000" pt_clust_7="13000.00000" pt_clust_8="13000.00000" pt_clust_9="145.40591"></scales>
<clustering>
<clus scale="   88.353">  5  6 -1 -1</clus>
<clus scale="  108.325">  7  8 -1 -1</clus>
<clus scale="  121.108">  1  7  2 -1</clus>
<clus scale="  145.406">  2  9  1 -1</clus>
<clus scale="  145.406">  2  5  1 -1</clus>
</clustering>
</event>
<event>
 9    1  0.1399746E-005  0.1086402E+03  0.7546771E-02  0.1267620E+00
          2   -1    0    0  502    0 -0.00000000000E+00  0.00000000000E+00  0.16152081805E+03  0.16152081805E+03  0.00000000000E+00 0. -1.
         21   -1    0    0  501  502  0.00000000000E+00 -0.00000000000E+00 -0.36276221152E+03  0.36276221152E+03  0.00000000000E+00 0. -1.
         23    2    1    2    0    0  0.46016124686E+02 -0.16762132224E+02  0.73138691655E+02  0.12850834362E+03  0.93630515091E+02 0.  0.
         23    2    1    2    0    0 -0.12015647163E+03  0.25924134689E+02 -0.28409373599E+03  0.32044150369E+03  0.82848464240E+02 0.  0.
        -11    1    4    4    0    0 -0.49242472503E+02  0.37473510303E+02 -0.64458382313E+02  0.89353053238E+02  0.00000000000E+00 0.  1.
         11    1    4    4    0    0 -0.70913999129E+02 -0.11549375614E+02 -0.21963535368E+03  0.23108845046E+03  0.00000000000E+00 0. -1.
        -13    1    3    3    0    0  0.24479516037E+01 -0.42300417274E+02  0.64651143673E+02  0.77298694341E+02  0.00000000000E+00 0.  1.
         13    1    3    3    0    0  0.43568173082E+02  0.25538285049E+02  0.84875479822E+01  0.51209649283E+02  0.00000000000E+00 0. -1.
          2    1    1    2  501    0  0.74140346946E+02 -0.91620024643E+01  0.97136508696E+01  0.75333182248E+02  0.00000000000E+00 0. -1.
<scales pt_clust_5="13000.00000" pt_clust_6="13000.00000" pt_clust_7="13000.00000" pt_clust_8="13000.00000" pt_clust_9="74.70434"></scales>
<clustering>
<clus scale="   74.704">  2  9  1 -1</clus>
<clus scale="   82.848">  5  6 -1 -1</clus>
<clus scale="   93.631">  7  8 -1 -1</clus>
<clus scale="   99.498">  2  5  1 -1</clus>
<clus scale="   74.704">  2  5  1 -1</clus>
</clustering>
</event>
<event>
 9    1  0.1399746E-005  0.1763166E+03  0.7546771E-02  0.1201296E+00
         21   -1    0    0  501  502  0.00000000000E+00  0.00000000000E+00  0.23866057592E+03  0.23866057592E+03  0.00000000000E+00 0.  1.
         -3   -1    0    0    0  501 -0.00000000000E+00 -0.00000000000E+00 -0.22319443766E+03  0.22319443766E+03  0.00000000000E+00 0.  1.
         23    2    1    2    0    0  0.47365944185E+01 -0.26900743595E+02 -0.42161294034E+02  0.10004363917E+03  0.86516297256E+02 0.  0.
         23    2    1    2    0    0  0.14718419617E+03  0.96617930390E+01 -0.43205158746E+02  0.17866029075E+03  0.91083894863E+02 0.  0.
        -11    1    4    4    0    0  0.28716772755E+02  0.34858982729E+02 -0.35231768338E+02  0.57280705430E+02  0.00000000000E+00 0. -1.
         11    1    4    4    0    0  0.11846742341E+03 -0.25197189690E+02 -0.79733904076E+01  0.12137958532E+03  0.00000000000E+00 0.  1.
        -11    1    3    3    0    0 -0.40152268943E+02 -0.63127959043E+01 -0.12913393307E+02  0.42647530059E+02  0.00000000000E+00 0.  1.
         11    1    3    3    0    0  0.44888863362E+02 -0.20587947691E+02 -0.29247900727E+02  0.57396109110E+02  0.00000000000E+00 0. -1.
         -3    1    1    2    0  502 -0.15192079059E+03  0.17238950556E+02  0.10083259104E+03  0.18315108366E+03  0.00000000000E+00 0.  1.
<scales pt_clust_5="13000.00000" pt_clust_6="13000.00000" pt_clust_7="13000.00000" pt_clust_8="13000.00000" pt_clust_9="150.96782"></scales>
<clustering>
<clus scale="   86.516">  7  8 -1 -1</clus>
<clus scale="   90.726">  2  7  1 -1</clus>
<clus scale="   91.084">  5  6 -1 -1</clus>
<clus scale="  150.968">  1  9  2 -1</clus>
<clus scale="  150.968">  1  5  2 -1</clus>
</clustering>
</event>
<event>
 9    1  0.1399746E-005  0.1261424E+03  0.7546771E-02  0.1234181E+00
         21   -1    0    0  501  502  0.00000000000E+00  0.00000000000E+00  0.35105209761E+02  0.35105209761E+02  0.00000000000E+00 0.  1.
          2   -1    0    0  502    0 -0.00000000000E+00 -0.00000000000E+00 -0.67511099709E+03  0.67511099709E+03  0.00000000000E+00 0. -1.
         23    2    1    2    0    0 -0.48851371860E+02  0.76559425479E+02 -0.47955130388E+03  0.49645400607E+03  0.90825794436E+02 0.  0.
         23    2    1    2    0    0  0.41719408891E+02 -0.54299890609E+02 -0.14461602212E+03  0.18552731728E+03  0.93902100118E+02 0.  0.
        -11    1    3    3    0    0  0.24612170710E+02  0.38862401630E+01 -0.10423736977E+03  0.10717411566E+03  0.00000000000E+00 0.  1.
         11    1    3    3    0    0 -0.73463542570E+02  0.72673185316E+02 -0.37531393410E+03  0.38927989042E+03  0.00000000000E+00 0. -1.
        -11    1    4    4    0    0 -0.91891948597E+01  0.22358859764E+02 -0.28661822369E+02  0.37494799287E+02  0.00000000000E+00 0. -1.
         11    1    4    4    0    0  0.50908603751E+02 -0.76658750373E+02 -0.11595419975E+03  0.14803251799E+03  0.00000000000E+00 0.  1.
          2    1    1    2  501    0  0.71319629692E+01 -0.22259534870E+02 -0.15838461336E+02  0.28234883494E+02  0.00000000000E+00 0. -1.
<scales pt_clust_5="13000.00000" pt_clust_6="13000.00000" pt_clust_7="13000.00000" pt_clust_8="13000.00000" pt_clust_9="23.37417"></scales>
<clustering>
<clus scale="   23.374">  1  9  2 -1</clus>
<clus scale="   90.826">  5  6 -1 -1</clus>
<clus scale="   93.902">  7  8 -1 -1</clus>
<clus scale="  123.869">  2  5  1 -1</clus>
<clus scale="   23.374">  1  5  2 -1</clus>
</clustering>
</event>
<event>
 9    1  0.1399746E-005  0.2045978E+03  0.7546771E-02  0.1178113E+00
          2   -1    0    0  502    0 -0.00000000000E+00  0.00000000000E+00  0.11676680437E+04  0.11676680437E+04  0.00000000000E+00 0. -1.
         21   -1    0    0  501  502  0.00000000000E+00 -0.00000000000E+00 -0.75949465927E+02  0.75949465927E+02  0.00000000000E+00 0. -1.
         23    2    1    2    0    0 -0.29746998315E+02 -0.10128830396E+02  0.46848309308E+03  0.47840699469E+03  0.91702600580E+02 0.  0.
         23    2    1    2    0    0  0.89935574704E+00 -0.17364585480E+03  0.51206890930E+03  0.54850027319E+03  0.92110206250E+02 0.  0.
        -13    1    3    3    0    0 -0.53347519434E+02 -0.34037798475E+02  0.31400675134E+03  0.32031979246E+03  0.00000000000E+00 0. -1.
         13    1    3    3    0    0  0.23600521118E+02  0.23908968079E+02  0.15447634174E+03  0.15808720223E+03  0.00000000000E+00 0.  1.
        -13    1    4    4    0    0 -0.23550487096E+01 -0.73290265652E+02  0.97800443459E+02  0.12223721215E+03  0.00000000000E+00 0.  1.
         13    1    4    4    0    0  0.32544044566E+01 -0.10035558915E+03  0.41426846584E+03  0.42626306104E+03  0.00000000000E+00 0. -1.
          2    1    1    2  501    0  0.28847642568E+02  0.18377468519E+03  0.11116657544E+03  0.21671024178E+03  0.00000000000E+00 0. -1.
<scales pt_clust_5="13000.00000" pt_clust_6="13000.00000" pt_clust_7="13000.00000" pt_clust_8="13000.00000" pt_clust_9="182.69089"></scales>
<clustering>
<clus scale="   91.703">  5  6 -1 -1</clus>
<clus scale="   92.110">  7  8 -1 -1</clus>
<clus scale="   96.937">  1  5  2 -1</clus>
<clus scale="  182.691">  2  9  1 -1</clus>
<clus scale="  182.691">  2  5  1 -1</clus>
</clustering>
</event>
<event>
 9    1  0.1399746E-005  0.1983079E+03  0.7546771E-02  0.1182351E+00
         21   -1    0    0  501  502  0.00000000000E+00  0.00000000000E+00  0.22862721450E+03  0.22862721450E+03  0.00000000000E+00 0. -1.
         -1   -1    0    0    0  501 -0.00000000000E+00 -0.00000000000E+00 -0.26488896814E+03  0.26488896814E+03  0.00000000000E+00 0.  1.
         23    2    1    2    0    0 -0.26786670013E+02 -0.15760914306E+02 -0.62947671205E+02  0.11545685570E+03  0.91662119260E+02 0.  0.
         23    2    1    2    0    0  0.18638106293E+03 -0.18890287340E+02  0.45362006542E+02  0.21368210125E+03  0.92236571814E+02 0.  0.
        -11    1    4    4    0    0  0.91114024337E+02  0.27742557106E+02 -0.67910447177E+01  0.95485774825E+02  0.00000000000E+00 0. -1.
         11    1    4    4    0    0  0.95267038598E+02 -0.46632844445E+02  0.52153051260E+02  0.11819632642E+03  0.00000000000E+00 0.  1.
        -11    1    3    3    0    0 -0.58058404435E+02 -0.91600918812E+01 -0.58952858708E+02  0.83247373284E+02  0.00000000000E+00 0.  1.
         11    1    3    3    0    0  0.31271734422E+02 -0.66008224248E+01 -0.39948124970E+01  0.32209482414E+02  0.00000000000E+00 0. -1.
         -1    1    1    2    0  502 -0.15959439292E+03  0.34651201646E+02 -0.18676088982E+02  0.16437722570E+03  0.00000000000E+00 0.  1.
<scales pt_clust_5="13000.00000" pt_clust_6="13000.00000" pt_clust_7="13000.00000" pt_clust_8="13000.00000" pt_clust_9="175.55195"></scales>
<clustering>
<clus scale="   91.662">  7  8 -1 -1</clus>
<clus scale="   92.237">  5  6 -1 -1</clus>
<clus scale="   96.788">  2  7  1 -1</clus>
<clus scale="  175.552">  1  9  2 -1</clus>
<clus scale="  175.552">  1  5  2 -1</clus>
</clustering>
</event>
<event>
 9    1  0.1399746E-005  0.1573094E+03  0.7546771E-02  0.1194377E+00
         21   -1    0    0  501  502  0.00000000000E+00  0.00000000000E+00  0.33247667438E+03  0.33247667438E+03  0.00000000000E+00 0. -1.
          2   -1    0    0  502    0 -0.00000000000E+00 -0.00000000000E+00 -0.16067988780E+03  0.16067988780E+03  0.00000000000E+00 0. -1.
         23    2    1    2    0    0  0.59891220166E+02  0.90515065041E+02 -0.92683851703E+01  0.13980503628E+03  0.87633383776E+02 0.  0.
         23    2    1    2    0    0 -0.12394465415E+03 -0.74543188839E+02  0.18417748224E+02  0.17781768980E+03  0.10178876687E+03 0.  0.
        -11    1    3    3    0    0 -0.18816145978E+01  0.73120608215E+02  0.73497940572E+01  0.73513150469E+02  0.00000000000E+00 0. -1.
         11    1    3    3    0    0  0.61772834764E+02  0.17394456827E+02 -0.16618179228E+02  0.66291885807E+02  0.00000000000E+00 0.  1.
        -11    1    4    4    0    0 -0.29969173859E+02 -0.34326562341E+02 -0.39522079519E+02  0.60319640528E+02  0.00000000000E+00 0. -1.
         11    1    4    4    0    0 -0.93975480295E+02 -0.40216626497E+02  0.57939827743E+02  0.11749804927E+03  0.00000000000E+00 0.  1.
          2    1    1    2  501    0  0.64053433988E+02 -0.15971876203E+02  0.16264742353E+03  0.17553383610E+03  0.00000000000E+00 0. -1.
<scales pt_clust_5="13000.00000" pt_clust_6="13000.00000" pt_clust_7="13000.00000" pt_clust_8="13000.00000" pt_clust_9="66.01472"></scales>
<clustering>
<clus scale="   66.015">  1  9  2 -1</clus>
<clus scale="   87.633">  5  6 -1 -1</clus>
<clus scale="  101.789">  7  8 -1 -1</clus>
<clus scale="  148.543">  2  5  1 -1</clus>
<clus scale="   66.015">  1  5  2 -1</clus>
</clustering>
</event>
<event>
 9    1  0.1399746E-005  0.1011252E+03  0.7546771E-02  0.1278793E+00
          1   -1    0    0  502    0 -0.00000000000E+00  0.00000000000E+00  0.62547168215E+03  0.62547168215E+03  0.00000000000E+00 0. -1.
         21   -1    0    0  501  502  0.00000000000E+00 -0.00000000000E+00 -0.31213625600E+02  0.31213625600E+02  0.00000000000E+00 0. -1.
         23    2    1    2    0    0  0.14661584373E+01 -0.54322074853E+02  0.39158364480E+03  0.40557555234E+03  0.90557939185E+02 0.  0.
         23    2    1    2    0    0 -0.18738660100E+02  0.16948102928E+02  0.18057916836E+03  0.20438339377E+03  0.92332876208E+02 0.  0.
        -11    1    3    3    0    0 -0.41876619197E+02 -0.36641086347E+02  0.26072016752E+03  0.26659187196E+03  0.00000000000E+00 0. -1.
         11    1    3    3    0    0  0.43342777634E+02 -0.17680988507E+02  0.13086347727E+03  0.13898368038E+03  0.00000000000E+00 0.  1.
        -13    1    4    4    0    0 -0.93019302319E+00 -0.32002908299E+02  0.25937648087E+02  0.41204526291E+02  0.00000000000E+00 0. -1.
         13    1    4    4    0    0 -0.17808467077E+02  0.48951011227E+02  0.15464152027E+03  0.16317886748E+03  0.00000000000E+00 0.  1.
          1    1    1    2  501    0  0.17272501663E+02  0.37373971925E+02  0.22095243395E+02  0.46726361637E+02  0.00000000000E+00 0. -1.
<scales pt_clust_5="13000.00000" pt_clust_6="13000.00000" pt_clust_7="13000.00000" pt_clust_8="13000.00000" pt_clust_9="41.17224"></scales>
<clustering>
<clus scale="   41.172">  2  9  1 -1</clus>
<clus scale="   90.558">  5  6 -1 -1</clus>
<clus scale="   92.333">  7  8 -1 -1</clus>
<clus scale="   99.507">  1  5  2 -1</clus>
<clus scale="   41.172">  2  5  1 -1</clus>
</clustering>
</event>
<event>
 9    1  0.1399746E-005  0.1347059E+03  0.7546771E-02  0.1221307E+00
         21   -1    0    0  501  502  0.00000000000E+00  0.00000000000E+00  0.21339003465E+03  0.21339003465E+03  0.00000000000E+00 0.  1.
          3   -1    0    0  502    0 -0.00000000000E+00 -0.00000000000E+00 -0.27995647867E+03  0.27995647867E+03  0.00000000000E+00 0. -1.
         23    2    1    2    0    0 -0.62470353698E+02 -0.49086106048E+02 -0.13105587000E+03  0.17933640807E+03  0.93133856894E+02 0.  0.
         23    2    1    2    0    0  0.14855902396E+03  0.56901912957E+02 -0.30589802151E+02  0.18550949977E+03  0.90390415486E+02 0.  0.
        -11    1    4    4    0    0  0.12575724464E+02  0.19238718096E+02  0.24901427936E+02  0.33887434736E+02  0.00000000000E+00 0. -1.
         11    1    4    4    0    0  0.13598329950E+03  0.37663194861E+02 -0.55491230087E+02  0.15162206504E+03  0.00000000000E+00 0.  1.
        -13    1    3    3    0    0 -0.84485019982E+02 -0.24098715710E+02 -0.10591730932E+03  0.13761156606E+03  0.00000000000E+00 0. -1.
         13    1    3    3    0    0  0.22014666284E+02 -0.24987390339E+02 -0.25138560674E+02  0.41724842004E+02  0.00000000000E+00 0.  1.
          3    1    1    2  501    0 -0.86088670265E+02 -0.78158069082E+01  0.95079228131E+02  0.12850060548E+03  0.00000000000E+00 0. -1.
<scales pt_clust_5="13000.00000" pt_clust_6="13000.00000" pt_clust_7="13000.00000" pt_clust_8="13000.00000" pt_clust_9="86.44273"></scales>
<clustering>
<clus scale="   86.443">  1  9  2 -1</clus>
<clus scale="   90.390">  5  6 -1 -1</clus>
<clus scale="   93.134">  7  8 -1 -1</clus>
<clus scale="  132.824">  1  5  2 -1</clus>
<clus scale="   86.443">  1  5  2 -1</clus>
</clustering>
</event>
<event>
 9    1  0.1399746E-005  0.1066203E+03  0.7546771E-02  0.1271200E+00
          1   -1    0    0  502    0 -0.00000000000E+00  0.00000000000E+00  0.24147703048E+02  0.24147703048E+02  0.00000000000E+00 0. -1.
         21   -1    0    0  501  502  0.00000000000E+00 -0.00000000000E+00 -0.71933349293E+03  0.71933349293E+03  0.00000000000E+00 0.  1.
         23    2    1    2    0    0 -0.44142155537E+02 -0.15662861795E+02 -0.15870568961E+03  0.19299590172E+03  0.99328077749E+02 0.  0.
         23    2    1    2    0    0  0.23226878976E+02  0.15368845416E+01 -0.34568928334E+03  0.35803237053E+03  0.90245486380E+02 0.  0.
        -11    1    4    4    0    0 -0.31466383363E+02 -0.16242391747E+02 -0.14539519796E+03  0.14964528780E+03  0.00000000000E+00 0.  1.
         11    1    4    4    0    0  0.54693262339E+02  0.17779276289E+02 -0.20029408538E+03  0.20838708273E+03  0.00000000000E+00 0. -1.
        -11    1    3    3    0    0 -0.73375562593E+02 -0.11045273890E+02 -0.13861145786E+03  0.15722311379E+03  0.00000000000E+00 0.  1.
         11    1    3    3    0    0  0.29233407056E+02 -0.46175879043E+01 -0.20094231755E+02  0.35772787925E+02  0.00000000000E+00 0. -1.
          1    1    1    2  501    0  0.20915276561E+02  0.14125977253E+02 -0.19079081693E+03  0.19245292373E+03  0.00000000000E+00 0. -1.
<scales pt_clust_5="13000.00000" pt_clust_6="13000.00000" pt_clust_7="13000.00000" pt_clust_8="13000.00000" pt_clust_9="25.23870"></scales>
<clustering>
<clus scale="   25.239">  2  9  1 -1</clus>
<clus scale="   90.245">  5  6 -1 -1</clus>
<clus scale="   98.214">  2  5  1 -1</clus>
<clus scale="   99.328">  7  8 -1 -1</clus>
<clus scale="   25.239">  2  5  1 -1</clus>
</clustering>
</event>
<event>
 9    1  0.1399746E-005  0.1304927E+03  0.7546771E-02  0.1244590E+00
          2   -1    0    0  502    0 -0.00000000000E+00  0.00000000000E+00  0.15743781915E+03  0.15743781915E+03  0.00000000000E+00 0. -1.
         21   -1    0    0  501  502  0.00000000000E+00 -0.00000000000E+00 -0.43048870897E+03  0.43048870897E+03  0.00000000000E+00 0. -1.
         23    2    1    2    0    0 -0.20569661354E+01 -0.14868523117E+02  0.68228732075E+02  0.11337639182E+03  0.89295813187E+02 0.  0.
         23    2    1    2    0    0 -0.45979871924E+02 -0.68754930143E+02 -0.19957615902E+01  0.12182650850E+03  0.89422178841E+02 0.  0.
        -11    1    3    3    0    0  0.12786814101E+02 -0.47713938076E+02  0.20297765288E+02  0.53405259828E+02  0.00000000000E+00 0.  1.
         11    1    3    3    0    0 -0.14843780237E+02  0.32845414960E+02  0.47930966787E+02  0.59971131995E+02  0.00000000000E+00 0. -1.
        -13    1    4    4    0    0 -0.17847488933E+02 -0.53741852395E+02 -0.42119655232E+02  0.70574676173E+02  0.00000000000E+00 0.  1.
         13    1    4    4    0    0 -0.28132382991E+02 -0.15013077748E+02  0.40123893642E+02  0.51251832331E+02  0.00000000000E+00 0. -1.
          2    1    1    2  501    0  0.48036838060E+02  0.83623453260E+02 -0.33928386030E+03  0.35272362780E+03  0.00000000000E+00 0. -1.
<scales pt_clust_5="13000.00000" pt_clust_6="13000.00000" pt_clust_7="13000.00000" pt_clust_8="13000.00000" pt_clust_9="95.03687"></scales>
<clustering>
<clus scale="   89.296">  5  6 -1 -1</clus>
<clus scale="   89.422">  7  8 -1 -1</clus>
<clus scale="   90.549">  1  5  2 -1</clus>
<clus scale="   95.037">  2  9  1 -1</clus>
<clus scale="   95.037">  2  5  1 -1</clus>
</clustering>
</event>
<event>
 9    1  0.1399746E-005  0.1605136E+03  0.7546771E-02  0.1188706E+00
         -3   -1    0    0    0  501 -0.00000000000E+00  0.00000000000E+00  0.34422524112E+03  0.34422524112E+03  0.00000000000E+00 0.  1.
         21   -1    0    0  501  502  0.00000000000E+00 -0.00000000000E+00 -0.17734422429E+03  0.17734422429E+03  0.00000000000E+00 0. -1.
         23    2    1    2    0    0 -0.80167927655E+02  0.82328102834E+02  0.13275964218E+03  0.19915197988E+03  0.93976461727E+02 0.  0.
         23    2    1    2    0    0  0.50132528624E+02 -0.14662685070E+03  0.11393908764E+03  0.21561242253E+03  0.97436632154E+02 0.  0.
        -11    1    4    4    0    0  0.63866588957E+02 -0.10898945523E+03  0.41738305266E+02  0.13304032721E+03  0.00000000000E+00 0. -1.
         11    1    4    4    0    0 -0.13734060333E+02 -0.37637395465E+02  0.72200782376E+02  0.82572095325E+02  0.00000000000E+00 0.  1.
        -13    1    3    3    0    0 -0.93598469689E+02  0.36754350173E+02  0.83399097624E+02  0.13064059579E+03  0.00000000000E+00 0.  1.
         13    1    3    3    0    0  0.13430542034E+02  0.45573752661E+02  0.49360544558E+02  0.68511384091E+02  0.00000000000E+00 0. -1.
         -3    1    1    2    0  502  0.30035399031E+02  0.64298747864E+02 -0.79817712998E+02  0.10680506299E+03  0.00000000000E+00 0.  1.
<scales pt_clust_5="13000.00000" pt_clust_6="13000.00000" pt_clust_7="13000.00000" pt_clust_8="13000.00000" pt_clust_9="70.96798"></scales>
<clustering>
<clus scale="   70.968">  2  9  1 -1</clus>
<clus scale="   93.976">  7  8 -1 -1</clus>
<clus scale="   97.437">  5  6 -1 -1</clus>
<clus scale="  158.437">  1  7  2 -1</clus>
<clus scale="   70.968">  2  5  1 -1</clus>
</clustering>
</event>
<event>
 9    1  0.1399746E-005  0.1107262E+03  0.7546771E-02  0.1259694E+00
         -1   -1    0    0    0  501 -0.00000000000E+00  0.00000000000E+00  0.35742096350E+03  0.35742096350E+03  0.00000000000E+00 0.  1.
         21   -1    0    0  501  502  0.00000000000E+00 -0.00000000000E+00 -0.66290598939E+02  0.66290598939E+02  0.00000000000E+00 0.  1.
         23    2    1    2    0    0 -0.57552229368E+02 -0.38407372706E+02  0.23760463863E+03  0.26334147781E+03  0.90029907550E+02 0.  0.
         23    2    1    2    0    0  0.36661577053E+02  0.33894569484E+02  0.76402845877E+02  0.12906277934E+03  0.91251811382E+02 0.  0.
        -11    1    4    4    0    0 -0.26918634241E+02  0.28434980524E+02  0.38115614075E+02  0.54643947726E+02  0.00000000000E+00 0.  1.
         11    1    4    4    0    0  0.63580211294E+02  0.54595889600E+01  0.38287231802E+02  0.74418831614E+02  0.00000000000E+00 0. -1.
        -11    1    3    3    0    0 -0.76963459684E+02 -0.28802962044E+02  0.22179067697E+03  0.23652502857E+03  0.00000000000E+00 0.  1.
         11    1    3    3    0    0  0.19411230316E+02 -0.96044106615E+01  0.15813961662E+02  0.26816449243E+02  0.00000000000E+00 0. -1.
         -1    1    1    2    0  502  0.20890652314E+02  0.45128032217E+01 -0.22877119949E+02  0.31307305285E+02  0.00000000000E+00 0.  1.
<scales pt_clust_5="13000.00000" pt_clust_6="13000.00000" pt_clust_7="13000.00000" pt_clust_8="13000.00000" pt_clust_9="21.37252"></scales>
<clustering>
<clus scale="   21.373">  2  9  1 -1</clus>
<clus scale="   90.030">  7  8 -1 -1</clus>
<clus scale="   91.252">  5  6 -1 -1</clus>
<clus scale="  109.721">  1  7  2 -1</clus>
<clus scale="   21.373">  2  5  1 -1</clus>
</clustering>
</event>
<event>
 9    1  0.1399746E-005  0.1043300E+03  0.7546771E-02  0.1271781E+00
         21   -1    0    0  501  502  0.00000000000E+00  0.00000000000E+00  0.11575718908E+03  0.11575718908E+03  0.00000000000E+00 0. -1.
         -3   -1    0    0    0  501 -0.00000000000E+00 -0.00000000000E+00 -0.15237218483E+03  0.15237218483E+03  0.00000000000E+00 0.  1.
         23    2    1    2    0    0  0.40341479216E+02  0.15893942718E+00 -0.32265077231E+02  0.10572876116E+03  0.92250070567E+02 0.  0.
         23    2    1    2    0    0 -0.55558312002E+02  0.17454125025E+02 -0.43503826425E+02  0.11685063423E+03  0.91488334188E+02 0.  0.
        -11    1    4    4    0    0 -0.54673523561E+02 -0.28750519746E+02 -0.19509238184E+02  0.64779602799E+02  0.00000000000E+00 0.  1.
         11    1    4    4    0    0 -0.88478844074E+00  0.46204644771E+02 -0.23994588241E+02  0.52071031427E+02  0.00000000000E+00 0. -1.
        -13    1    3    3    0    0  0.56732523686E+02 -0.23013614530E+02 -0.43604783585E+02  0.75163706994E+02  0.00000000000E+00 0.  1.
         13    1    3    3    0    0 -0.16391044469E+02  0.23172553957E+02  0.11339706354E+02  0.30565054161E+02  0.00000000000E+00 0. -1.
         -3    1    1    2    0  502  0.15216832785E+02 -0.17613064452E+02  0.39153907904E+02  0.45549978524E+02  0.00000000000E+00 0.  1.
<scales pt_clust_5="13000.00000" pt_clust_6="13000.00000" pt_clust_7="13000.00000" pt_clust_8="13000.00000" pt_clust_9="23.27600"></scales>
<clustering>
<clus scale="   23.276">  1  9  2 -1</clus>
<clus scale="   91.488">  5  6 -1 -1</clus>
<clus scale="   92.250">  7  8 -1 -1</clus>
<clus scale="  103.657">  1  5  2 -1</clus>
<clus scale="   23.276">  1  5  2 -1</clus>
</clustering>
</event>
<event>
 9    1  0.1399746E-005  0.9716353E+02  0.7546771E-02  0.1287751E+00
         21   -1    0    0  501  502  0.00000000000E+00  0.00000000000E+00  0.64167486896E+02  0.64167486896E+02  0.00000000000E+00 0.  1.
         -1   -1    0    0    0  501 -0.00000000000E+00 -0.00000000000E+00 -0.55227426049E+03  0.55227426049E+03  0.00000000000E+00 0.  1.
         23    2    1    2    0    0 -0.22322805149E+02  0.21623019693E+02 -0.44814574271E+03  0.45778854539E+03  0.88146939623E+02 0.  0.
         23    2    1    2    0    0  0.58712596951E+02 -0.36195811050E+02 -0.25320101063E+02  0.11680896678E+03  0.90807056028E+02 0.  0.
        -11    1    4    4    0    0 -0.55657169820E+01  0.24140185843E+02 -0.12413248499E+02  0.27709466187E+02  0.00000000000E+00 0. -1.
         11    1    4    4    0    0  0.64278313933E+02 -0.60335996893E+02 -0.12906852564E+02  0.89099500595E+02  0.00000000000E+00 0.  1.
        -13    1    3    3    0    0 -0.55015871724E+02  0.24654092875E+02 -0.30841787274E+03  0.31425491987E+03  0.00000000000E+00 0.  1.
         13    1    3    3    0    0  0.32693066575E+02 -0.30310731820E+01 -0.13972786997E+03  0.14353362552E+03  0.00000000000E+00 0. -1.
         -1    1    1    2    0  502 -0.36389791802E+02  0.14572791357E+02 -0.14640929824E+02  0.41844235223E+02  0.00000000000E+00 0.  1.
<scales pt_clust_5="13000.00000" pt_clust_6="13000.00000" pt_clust_7="13000.00000" pt_clust_8="13000.00000" pt_clust_9="39.19928"></scales>
<clustering>
<clus scale="   39.199">  1  9  2 -1</clus>
<clus scale="   88.147">  7  8 -1 -1</clus>
<clus scale="   90.807">  5  6 -1 -1</clus>
<clus scale="   94.682">  2  7  1 -1</clus>
<clus scale="   39.199">  1  5  2 -1</clus>
</clustering>
</event>
<event>
 9    1  0.1399746E-005  0.1026752E+03  0.7546771E-02  0.1279807E+00
         -1   -1    0    0    0  501 -0.00000000000E+00  0.00000000000E+00  0.11812515995E+03  0.11812515995E+03  0.00000000000E+00 0.  1.
         21   -1    0    0  501  502  0.00000000000E+00 -0.00000000000E+00 -0.13185167667E+03  0.13185167667E+03  0.00000000000E+00 0. -1.
         23    2    1    2    0    0  0.20745340584E+02  0.16623100982E+02  0.39446869784E+02  0.10258748711E+03  0.90892465766E+02 0.  0.
         23    2    1    2    0    0 -0.14586419647E+02  0.38839210401E+01 -0.13839177046E+02  0.10260486232E+03  0.10054047180E+03 0.  0.
        -11    1    4    4    0    0  0.36883844297E+02 -0.23112406812E+02 -0.49250507239E+01  0.43804765077E+02  0.00000000000E+00 0. -1.
         11    1    4    4    0    0 -0.51470263944E+02  0.26996327852E+02 -0.89141263220E+01  0.58800097246E+02  0.00000000000E+00 0.  1.
        -13    1    3    3    0    0  0.36127051629E+02  0.47783214815E+02  0.26520381681E+02  0.65511297667E+02  0.00000000000E+00 0. -1.
         13    1    3    3    0    0 -0.15381711045E+02 -0.31160113833E+02  0.12926488103E+02  0.37076189441E+02  0.00000000000E+00 0.  1.
         -1    1    1    2    0  502 -0.61589209368E+01 -0.20507022023E+02 -0.39334209462E+02  0.44784487196E+02  0.00000000000E+00 0.  1.
<scales pt_clust_5="13000.00000" pt_clust_6="13000.00000" pt_clust_7="13000.00000" pt_clust_8="13000.00000" pt_clust_9="21.41192"></scales>
<clustering>
<clus scale="   21.412">  2  9  1 -1</clus>
<clus scale="   90.892">  7  8 -1 -1</clus>
<clus scale="   93.248">  1  7  2 -1</clus>
<clus scale="  100.540">  5  6 -1 -1</clus>
<clus scale="   21.412">  2  5  1 -1</clus>
</clustering>
</event>
<event>
 9    1  0.1399746E-005  0.1660376E+03  0.7546771E-02  0.1182314E+00
         21   -1    0    0  501  502  0.00000000000E+00  0.00000000000E+00  0.18500176148E+03  0.18500176148E+03  0.00000000000E+00 0. -1.
          3   -1    0    0  502    0 -0.00000000000E+00 -0.00000000000E+00 -0.41014863178E+03  0.41014863178E+03  0.00000000000E+00 0. -1.
         23    2    1    2    0    0 -0.26883100111E+02 -0.15909776830E+03 -0.31778368138E+03  0.36733863319E+03  0.88974166640E+02 0.  0.
         23    2    1    2    0    0  0.97396864785E+01  0.66346749376E+02  0.39813582874E+02  0.11970560122E+03  0.90816061009E+02 0.  0.
        -11    1    4    4    0    0 -0.18698238881E+02  0.60908247640E+02 -0.75849293433E+01  0.64163618360E+02  0.00000000000E+00 0. -1.
         11    1    4    4    0    0  0.28437925360E+02  0.54385017358E+01  0.47398512217E+02  0.55541982863E+02  0.00000000000E+00 0.  1.
        -13    1    3    3    0    0 -0.37616524668E+02 -0.88646513356E+02 -0.10283226999E+03  0.14088180510E+03  0.00000000000E+00 0.  1.
         13    1    3    3    0    0  0.10733424556E+02 -0.70451254946E+02 -0.21495141139E+03  0.22645682808E+03  0.00000000000E+00 0. -1.
          3    1    1    2  501    0  0.17143413633E+02  0.92751018926E+02  0.52823228206E+02  0.10810615885E+03  0.00000000000E+00 0. -1.
<scales pt_clust_5="13000.00000" pt_clust_6="13000.00000" pt_clust_7="13000.00000" pt_clust_8="13000.00000" pt_clust_9="94.32204"></scales>
<clustering>
<clus scale="   88.974">  7  8 -1 -1</clus>
<clus scale="   90.816">  5  6 -1 -1</clus>
<clus scale="   94.322">  1  9  2 -1</clus>
<clus scale="  165.037">  2  7  1 -1</clus>
<clus scale="   94.322">  1  5  2 -1</clus>
</clustering>
</event>
<event>
 9    1  0.1399746E-005  0.9721787E+02  0.7546771E-02  0.1287727E+00
         -1   -1    0    0    0  501 -0.00000000000E+00  0.00000000000E+00  0.34546270489E+03  0.34546270489E+03  0.00000000000E+00 0.  1.
         21   -1    0    0  501  502  0.00000000000E+00 -0.00000000000E+00 -0.62736925035E+02  0.62736925035E+02  0.00000000000E+00 0.  1.
         23    2    1    2    0    0 -0.25588024703E+02  0.32772591649E+02  0.18832411614E+03  0.21327302688E+03  0.91052850055E+02 0.  0.
         23    2    1    2    0    0  0.10302320832E+02  0.43249415492E+01  0.11580770200E+03  0.14945025548E+03  0.93803582492E+02 0.  0.
        -11    1    4    4    0    0 -0.40770216885E+02 -0.39156191228E+01  0.65749907723E+02  0.77463494780E+02  0.00000000000E+00 0. -1.
         11    1    4    4    0    0  0.51072537717E+02  0.82405606720E+01  0.50057794275E+02  0.71986760704E+02  0.00000000000E+00 0.  1.
        -13    1    3    3    0    0 -0.46225502387E+02  0.46475553615E+01  0.41282900078E+02  0.62150419795E+02  0.00000000000E+00 0. -1.
         13    1    3    3    0    0  0.20637477684E+02  0.28125036287E+02  0.14704121606E+03  0.15112260708E+03  0.00000000000E+00 0.  1.
         -1    1    1    2    0  502  0.15285703871E+02 -0.37097533198E+02 -0.21406038284E+02  0.45476347558E+02  0.00000000000E+00 0.  1.
<scales pt_clust_5="13000.00000" pt_clust_6="13000.00000" pt_clust_7="13000.00000" pt_clust_8="13000.00000" pt_clust_9="40.12331"></scales>
<clustering>
<clus scale="   40.123">  2  9  1 -1</clus>
<clus scale="   91.053">  7  8 -1 -1</clus>
<clus scale="   93.804">  5  6 -1 -1</clus>
<clus scale="   94.567">  1  7  2 -1</clus>
<clus scale="   40.123">  2  5  1 -1</clus>
</clustering>
</event>
<event>
 9    1  0.1399746E-005  0.2141822E+03  0.7546771E-02  0.1150144E+00
         21   -1    0    0  501  502  0.00000000000E+00  0.00000000000E+00  0.33615705709E+03  0.33615705709E+03  0.00000000000E+00 0. -1.
          1   -1    0    0  502    0 -0.00000000000E+00 -0.00000000000E+00 -0.68691407928E+03  0.68691407928E+03  0.00000000000E+00 0. -1.
         23    2    1    2    0    0  0.23194884755E+02 -0.12721272684E+03 -0.24550073292E+02  0.16314730951E+03  0.96401545389E+02 0.  0.
         23    2    1    2    0    0  0.16590120064E+03  0.16063774825E+03 -0.52637946158E+03  0.58253673920E+03  0.94583404523E+02 0.  0.
        -11    1    3    3    0    0 -0.30453517512E+02 -0.72627016382E+02 -0.34478365274E+02  0.85970098926E+02  0.00000000000E+00 0.  1.
         11    1    3    3    0    0  0.53648402267E+02 -0.54585710455E+02  0.99282919820E+01  0.77177210583E+02  0.00000000000E+00 0. -1.
        -11    1    4    4    0    0  0.48991048496E+02  0.17811016791E+01 -0.71036694270E+02  0.86310527102E+02  0.00000000000E+00 0.  1.
         11    1    4    4    0    0  0.11691015215E+03  0.15885664657E+03 -0.45534276731E+03  0.49622621210E+03  0.00000000000E+00 0. -1.
          1    1    1    2  501    0 -0.18909608540E+03 -0.33425021413E+02  0.20017251268E+03  0.27738708766E+03  0.00000000000E+00 0. -1.
<scales pt_clust_5="13000.00000" pt_clust_6="13000.00000" pt_clust_7="13000.00000" pt_clust_8="13000.00000" pt_clust_9="192.16654"></scales>
<clustering>
<clus scale="   94.583">  7  8 -1 -1</clus>
<clus scale="   96.402">  5  6 -1 -1</clus>
<clus scale="  161.290">  2  5  1 -1</clus>
<clus scale="  192.167">  1  9  2 -1</clus>
<clus scale="  192.167">  1  5  2 -1</clus>
</clustering>
</event>
<event>
 9    1  0.1399746E-005  0.1271094E+03  0.7546771E-02  0.1240965E+00
         21   -1    0    0  501  502  0.00000000000E+00  0.00000000000E+00  0.74903143302E+02  0.74903143302E+02  0.00000000000E+00 0. -1.
          1   -1    0    0  502    0 -0.00000000000E+00 -0.00000000000E+00 -0.67382975219E+03  0.67382975219E+03  0.00000000000E+00 0. -1.
         23    2    1    2    0    0 -0.18332345101E+02  0.49784436700E+02 -0.38334425103E+03  0.39757616839E+03  0.91101206660E+02 0.  0.
         23    2    1    2    0    0  0.30845862553E+02  0.79241108086E+02 -0.26702399237E+02  0.12207198712E+03  0.83414216220E+02 0.  0.
        -11    1    3    3    0    0  0.81824922139E+01  0.63941996565E+02 -0.33097216222E+03  0.33719149495E+03  0.00000000000E+00 0. -1.
         11    1    3    3    0    0 -0.26514837315E+02 -0.14157559865E+02 -0.52372088812E+02  0.60384673434E+02  0.00000000000E+00 0.  1.
        -11    1    4    4    0    0 -0.28180828591E+02  0.21483478285E+02 -0.15701316376E+02  0.38758615497E+02  0.00000000000E+00 0.  1.
         11    1    4    4    0    0  0.59026691143E+02  0.57757629801E+02 -0.11001082862E+02  0.83313371626E+02  0.00000000000E+00 0. -1.
          1    1    1    2  501    0 -0.12513517451E+02 -0.12902554479E+03 -0.18887995862E+03  0.22908473999E+03  0.00000000000E+00 0. -1.
<scales pt_clust_5="13000.00000" pt_clust_6="13000.00000" pt_clust_7="13000.00000" pt_clust_8="13000.00000" pt_clust_9="95.91082"></scales>
<clustering>
<clus scale="   83.414">  7  8 -1 -1</clus>
<clus scale="   91.101">  5  6 -1 -1</clus>
<clus scale="  105.423">  2  5  1 -1</clus>
<clus scale="   95.911">  1  9  2 -1</clus>
<clus scale="   95.911">  1  5  2 -1</clus>
</clustering>
</event>
<event>
 9    1  0.1399746E-005  0.9327303E+02  0.7546771E-02  0.1297370E+00
          2   -1    0    0  502    0 -0.00000000000E+00  0.00000000000E+00  0.22653935520E+03  0.22653935520E+03  0.00000000000E+00 0.  1.
         21   -1    0    0  501  502  0.00000000000E+00 -0.00000000000E+00 -0.88536285149E+02  0.88536285149E+02  0.00000000000E+00 0.  1.
         23    2    1    2    0    0 -0.22157825056E+02 -0.98858020119E+01  0.12559336242E+03  0.15450713234E+03  0.86660619461E+02 0.  0.
         23    2    1    2    0    0  0.22018512721E+02 -0.13492574291E+02  0.57079067637E+02  0.11015105459E+03  0.90600057399E+02 0.  0.
        -13    1    4    4    0    0 -0.42159247595E+01  0.33374671058E+02  0.27461946195E+01  0.33751804021E+02  0.00000000000E+00 0. -1.
         13    1    4    4    0    0  0.26234437480E+02 -0.46867245349E+02  0.54332873018E+02  0.76399250565E+02  0.00000000000E+00 0.  1.
        -13    1    3    3    0    0 -0.35011885461E+02  0.20897195732E+02  0.11070775720E+03  0.11797767762E+03  0.00000000000E+00 0. -1.
         13    1    3    3    0    0  0.12854060405E+02 -0.30782997744E+02  0.14885605229E+02  0.36529454718E+02  0.00000000000E+00 0.  1.
          2    1    1    2  501    0  0.13931233499E+00  0.23378376303E+02 -0.44669360009E+02  0.50417453428E+02  0.00000000000E+00 0.  1.
<scales pt_clust_5="13000.00000" pt_clust_6="13000.00000" pt_clust_7="13000.00000" pt_clust_8="13000.00000" pt_clust_9="23.37879"></scales>
<clustering>
<clus scale="   23.379">  2  9  1 -1</clus>
<clus scale="   86.661">  7  8 -1 -1</clus>
<clus scale="   89.451">  1  7  2 -1</clus>
<clus scale="   90.600">  5  6 -1 -1</clus>
<clus scale="   23.379">  2  5  1 -1</clus>
</clustering>
</event>
<event>
 9    1  0.1399746E-005  0.1141788E+03  0.7546771E-02  0.1253107E+00
          2   -1    0    0  502    0 -0.00000000000E+00  0.00000000000E+00  0.10034009409E+03  0.10034009409E+03  0.00000000000E+00 0. -1.
         21   -1    0    0  501  502  0.00000000000E+00 -0.00000000000E+00 -0.23742023891E+03  0.23742023891E+03  0.00000000000E+00 0. -1.
         23    2    1    2    0    0 -0.77527470152E+02  0.71138470721E+01 -0.43256048008E+01  0.12097174923E+03  0.92489663242E+02 0.  0.
         23    2    1    2    0    0  0.52179247658E+02 -0.18924548483E+02 -0.32135062073E+02  0.11235533048E+03  0.92250992689E+02 0.  0.
        -11    1    4    4    0    0  0.17074885034E+02 -0.29932039240E+02  0.26268505195E+02  0.43330278527E+02  0.00000000000E+00 0. -1.
         11    1    4    4    0    0  0.35104362624E+02  0.11007490757E+02 -0.58403567268E+02  0.69025051957E+02  0.00000000000E+00 0.  1.
        -13    1    3    3    0    0 -0.63452512500E+01  0.28869106861E+02  0.27171369991E+02  0.40149357300E+02  0.00000000000E+00 0.  1.
         13    1    3    3    0    0 -0.71182218902E+02 -0.21755259789E+02 -0.31496974792E+02  0.80822391931E+02  0.00000000000E+00 0. -1.
          2    1    1    2  501    0  0.25348222494E+02  0.11810701411E+02 -0.10061947794E+03  0.10443325329E+03  0.00000000000E+00 0. -1.
<scales pt_clust_5="13000.00000" pt_clust_6="13000.00000" pt_clust_7="13000.00000" pt_clust_8="13000.00000" pt_clust_9="27.96471"></scales>
<clustering>
<clus scale="   27.965">  2  9  1 -1</clus>
<clus scale="   92.251">  5  6 -1 -1</clus>
<clus scale="   92.490">  7  8 -1 -1</clus>
<clus scale="  113.986">  2  5  1 -1</clus>
<clus scale="   27.965">  2  5  1 -1</clus>
</clustering>
</event>
<event>
 9    1  0.1399746E-005  0.2931199E+03  0.7546771E-02  0.1088793E+00
         21   -1    0    0  501  502  0.00000000000E+00  0.00000000000E+00  0.88137788387E+02  0.88137788387E+02  0.00000000000E+00 0.  1.
          2   -1    0    0  502    0 -0.00000000000E+00 -0.00000000000E+00 -0.12418911612E+04  0.12418911612E+04  0.00000000000E+00 0. -1.
         23    2    1    2    0    0 -0.26233266987E+03  0.11852668066E+03 -0.70790067421E+03  0.76967021870E+03  0.91661754778E+02 0.  0.
         23    2    1    2    0    0  0.22195582348E+03 -0.14300272390E+03 -0.31261580162E+03  0.41900301953E+03  0.90115061649E+02 0.  0.
        -13    1    3    3    0    0 -0.23715932741E+03  0.85353209701E+02 -0.52888357524E+03  0.58587332517E+03  0.00000000000E+00 0.  1.
         13    1    3    3    0    0 -0.25173342456E+02  0.33173470964E+02 -0.17901709898E+03  0.18379689353E+03  0.00000000000E+00 0. -1.
        -13    1    4    4    0    0  0.19992869383E+03 -0.12756619495E+03 -0.31225004975E+03  0.39210293327E+03  0.00000000000E+00 0.  1.
         13    1    4    4    0    0  0.22027129642E+02 -0.15436528944E+02 -0.36575186840E+00  0.26900086256E+02  0.00000000000E+00 0. -1.
          2    1    1    2  501    0  0.40376846392E+02  0.24476043232E+02 -0.13323689697E+03  0.14135571135E+03  0.00000000000E+00 0. -1.
<scales pt_clust_5="13000.00000" pt_clust_6="13000.00000" pt_clust_7="13000.00000" pt_clust_8="13000.00000" pt_clust_9="47.21619"></scales>
<clustering>
<clus scale="   47.216">  1  9  2 -1</clus>
<clus scale="   90.115">  7  8 -1 -1</clus>
<clus scale="   91.662">  5  6 -1 -1</clus>
<clus scale="  292.640">  1  7  2 -1</clus>
<clus scale="   47.216">  1  5  2 -1</clus>
</clustering>
</event>
<event>
 9    1  0.1399746E-005  0.9214144E+02  0.7546771E-02  0.1302225E+00
         -1   -1    0    0    0  501 -0.00000000000E+00  0.00000000000E+00  0.23289721273E+03  0.23289721273E+03  0.00000000000E+00 0.  1.
         21   -1    0    0  501  502  0.00000000000E+00 -0.00000000000E+00 -0.67967434461E+02  0.67967434461E+02  0.00000000000E+00 0.  1.
         23    2    1    2    0    0  0.40420835589E+01  0.55510506587E+01  0.88541213101E+02  0.12590460575E+03  0.89248365410E+02 0.  0.
         23    2    1    2    0    0 -0.35121601348E+02 -0.15931585910E+02  0.99857909178E+02  0.13465492952E+03  0.81688467416E+02 0.  0.
        -13    1    4    4    0    0 -0.31132379871E+02 -0.46765147858E+02  0.80028218545E+02  0.97778933795E+02  0.00000000000E+00 0.  1.
         13    1    4    4    0    0 -0.39892214770E+01  0.30833561948E+02  0.19829690633E+02  0.36875995729E+02  0.00000000000E+00 0. -1.
        -13    1    3    3    0    0  0.36747139136E+02  0.19407610834E+02  0.78778944553E+02  0.89068118302E+02  0.00000000000E+00 0. -1.
         13    1    3    3    0    0 -0.32705055577E+02 -0.13856560175E+02  0.97622685481E+01  0.36836487447E+02  0.00000000000E+00 0.  1.
         -1    1    1    2    0  502  0.31079517789E+02  0.10380535251E+02 -0.23469344013E+02  0.40305111915E+02  0.00000000000E+00 0.  1.
<scales pt_clust_5="13000.00000" pt_clust_6="13000.00000" pt_clust_7="13000.00000" pt_clust_8="13000.00000" pt_clust_9="32.76724"></scales>
<clustering>
<clus scale="   32.767">  2  9  1 -1</clus>
<clus scale="   81.688">  5  6 -1 -1</clus>
<clus scale="   84.840">  2  5  1 -1</clus>
<clus scale="   89.248">  7  8 -1 -1</clus>
<clus scale="   32.767">  2  5  1 -1</clus>
</clustering>
</event>
<event>
 9    1  0.1399746E-005  0.2766051E+03  0.7546771E-02  0.1097861E+00
         21   -1    0    0  501  502  0.00000000000E+00  0.00000000000E+00  0.30095197306E+03  0.30095197306E+03  0.00000000000E+00 0. -1.
         -2   -1    0    0    0  501 -0.00000000000E+00 -0.00000000000E+00 -0.57267312492E+03  0.57267312492E+03  0.00000000000E+00 0.  1.
         23    2    1    2    0    0 -0.22056568817E+03 -0.11962224312E+03 -0.24388851867E+03  0.36196746465E+03  0.92629002368E+02 0.  0.
         23    2    1    2    0    0  0.22781983338E+03  0.14131626753E+03 -0.19305971103E+03  0.34485463405E+03  0.98896423862E+02 0.  0.
        -11    1    3    3    0    0 -0.13840826079E+03 -0.43227920147E+02 -0.18564547839E+03  0.23556261033E+03  0.00000000000E+00 0.  1.
         11    1    3    3    0    0 -0.82157427374E+02 -0.76394322977E+02 -0.58243040276E+02  0.12640485432E+03  0.00000000000E+00 0. -1.
        -11    1    4    4    0    0  0.22262594035E+03  0.11659259135E+03 -0.14392124975E+03  0.28960225794E+03  0.00000000000E+00 0. -1.
         11    1    4    4    0    0  0.51938930316E+01  0.24723676173E+02 -0.49138461287E+02  0.55252376112E+02  0.00000000000E+00 0.  1.
         -2    1    1    2    0  502 -0.72541452108E+01 -0.21694024404E+02  0.16522707784E+03  0.16680299928E+03  0.00000000000E+00 0.  1.
<scales pt_clust_5="13000.00000" pt_clust_6="13000.00000" pt_clust_7="13000.00000" pt_clust_8="13000.00000" pt_clust_9="22.87473"></scales>
<clustering>
<clus scale="   22.875">  1  9  2 -1</clus>
<clus scale="   92.629">  5  6 -1 -1</clus>
<clus scale="   98.896">  7  8 -1 -1</clus>
<clus scale="  274.427">  2  5  1 -1</clus>
<clus scale="   22.875">  1  5  2 -1</clus>
</clustering>
</event>
<event>
 9    1  0.1399746E-005  0.1094383E+03  0.7546771E-02  0.1262191E+00
          2   -1    0    0  502    0 -0.00000000000E+00  0.00000000000E+00  0.50768494910E+03  0.50768494910E+03  0.00000000000E+00 0.  1.
         21   -1    0    0  501  502  0.00000000000E+00 -0.00000000000E+00 -0.53467939721E+02  0.53467939721E+02  0.00000000000E+00 0.  1.
         23    2    1    2    0    0 -0.35460884176E+02  0.52650841694E+02  0.31716936887E+03  0.33599456810E+03  0.90919501788E+02 0.  0.
         23    2    1    2    0    0  0.67876905130E+02  0.16969048492E+01  0.78513638116E+02  0.13895678126E+03  0.92382043454E+02 0.  0.
        -11    1    3    3    0    0 -0.65663333461E+02  0.36192054256E+02  0.24157788735E+03  0.25294547596E+03  0.00000000000E+00 0.  1.
         11    1    3    3    0    0  0.30202449285E+02  0.16458787439E+02  0.75591481523E+02  0.83049092142E+02  0.00000000000E+00 0. -1.
        -13    1    4    4    0    0  0.70101647803E+02 -0.34561004248E+02  0.50084260349E+02  0.92828536421E+02  0.00000000000E+00 0.  1.
         13    1    4    4    0    0 -0.22247426732E+01  0.36257909097E+02  0.28429377767E+02  0.46128244843E+02  0.00000000000E+00 0. -1.
          2    1    1    2  501    0 -0.32416020954E+02 -0.54347746543E+02  0.58534002394E+02  0.86201539459E+02  0.00000000000E+00 0.  1.
<scales pt_clust_5="13000.00000" pt_clust_6="13000.00000" pt_clust_7="13000.00000" pt_clust_8="13000.00000" pt_clust_9="63.28093"></scales>
<clustering>
<clus scale="   63.281">  2  9  1 -1</clus>
<clus scale="   90.920">  5  6 -1 -1</clus>
<clus scale="   92.382">  7  8 -1 -1</clus>
<clus scale="  108.207">  1  5  2 -1</clus>
<clus scale="   63.281">  2  5  1 -1</clus>
</clustering>
</event>
<event>
 9    1  0.1399746E-005  0.1080117E+03  0.7546771E-02  0.1264971E+00
         21   -1    0    0  501  502  0.00000000000E+00  0.00000000000E+00  0.91661391272E+02  0.91661391272E+02  0.00000000000E+00 0. -1.
          4   -1    0    0  502    0 -0.00000000000E+00 -0.00000000000E+00 -0.23285115890E+03  0.23285115890E+03  0.00000000000E+00 0. -1.
         23    2    1    2    0    0  0.58984199208E+02 -0.56696908271E+02 -0.11120505203E+03  0.16487625572E+03  0.90132907081E+02 0.  0.
         23    2    1    2    0    0 -0.93607251642E+01  0.18572349361E+02 -0.15320275184E+02  0.95363306500E+02  0.91798115767E+02 0.  0.
        -11    1    4    4    0    0 -0.38792685723E+02  0.16150604446E+02 -0.39138139545E+02  0.57423936269E+02  0.00000000000E+00 0.  1.
         11    1    4    4    0    0  0.29431960559E+02  0.24217449149E+01  0.23817864361E+02  0.37939370231E+02  0.00000000000E+00 0. -1.
        -13    1    3    3    0    0  0.50570875644E+02 -0.80233476707E+02 -0.98867044282E+02  0.13700188573E+03  0.00000000000E+00 0. -1.
         13    1    3    3    0    0  0.84133235642E+01  0.23536568436E+02 -0.12338007746E+02  0.27874369989E+02  0.00000000000E+00 0.  1.
          4    1    1    2  501    0 -0.49623474044E+02  0.38124558910E+02 -0.14664440419E+02  0.64272987958E+02  0.00000000000E+00 0. -1.
<scales pt_clust_5="13000.00000" pt_clust_6="13000.00000" pt_clust_7="13000.00000" pt_clust_8="13000.00000" pt_clust_9="62.57772"></scales>
<clustering>
<clus scale="   62.578">  1  9  2 -1</clus>
<clus scale="   90.133">  7  8 -1 -1</clus>
<clus scale="   91.798">  5  6 -1 -1</clus>
<clus scale="  106.600">  2  7  1 -1</clus>
<clus scale="   62.578">  1  5  2 -1</clus>
</clustering>
</event>
<event>
 9    1  0.1399746E-005  0.1509596E+03  0.7546771E-02  0.1199662E+00
         21   -1    0    0  501  502  0.00000000000E+00  0.00000000000E+00  0.95419359084E+02  0.95419359084E+02  0.00000000000E+00 0. -1.
          1   -1    0    0  502    0 -0.00000000000E+00 -0.00000000000E+00 -0.66293603339E+03  0.66293603339E+03  0.00000000000E+00 0. -1.
         23    2    1    2    0    0  0.11263726790E+03 -0.30577871618E+02 -0.44880269179E+03  0.47294799310E+03  0.92918177271E+02 0.  0.
         23    2    1    2    0    0 -0.99495482426E+02  0.78828076940E+02 -0.15652092131E+03  0.22271646334E+03  0.94818814057E+02 0.  0.
        -11    1    3    3    0    0  0.41251782358E+02  0.64049845202E+01 -0.45661773755E+02  0.61868658923E+02  0.00000000000E+00 0.  1.
         11    1    3    3    0    0  0.71385485540E+02 -0.36982856138E+02 -0.40314091804E+03  0.41107933418E+03  0.00000000000E+00 0. -1.
        -13    1    4    4    0    0 -0.83638808090E+02  0.76675246319E+01 -0.68198804366E+02  0.10819111826E+03  0.00000000000E+00 0.  1.
         13    1    4    4    0    0 -0.15856674336E+02  0.71160552309E+02 -0.88322116940E+02  0.11452534508E+03  0.00000000000E+00 0. -1.
          1    1    1    2  501    0 -0.13141785472E+02 -0.48250205323E+02  0.37806938794E+02  0.62690936028E+02  0.00000000000E+00 0. -1.
<scales pt_clust_5="13000.00000" pt_clust_6="13000.00000" pt_clust_7="13000.00000" pt_clust_8="13000.00000" pt_clust_9="50.00789"></scales>
<clustering>
<clus scale="   50.008">  1  9  2 -1</clus>
<clus scale="   92.918">  5  6 -1 -1</clus>
<clus scale="   94.819">  7  8 -1 -1</clus>
<clus scale="  149.773">  2  5  1 -1</clus>
<clus scale="   50.008">  1  5  2 -1</clus>
</clustering>
</event>
<event>
 9    1  0.1399746E-005  0.2056224E+03  0.7546771E-02  0.1146181E+00
         21   -1    0    0  501  502  0.00000000000E+00  0.00000000000E+00  0.92121135059E+03  0.92121135059E+03  0.00000000000E+00 0.  1.
         -1   -1    0    0    0  501 -0.00000000000E+00 -0.00000000000E+00 -0.64117856185E+02  0.64117856185E+02  0.00000000000E+00 0.  1.
         23    2    1    2    0    0 -0.10784169277E+03 -0.16352669975E+03  0.23974802711E+03  0.32496695111E+03  0.98760268220E+02 0.  0.
         23    2    1    2    0    0  0.55644176829E+02  0.14650100141E+03  0.45958219680E+03  0.49331823575E+03  0.87110666818E+02 0.  0.
        -11    1    3    3    0    0 -0.76483013943E+02 -0.16306870294E+03  0.22998569427E+03  0.29212064779E+03  0.00000000000E+00 0.  1.
         11    1    3    3    0    0 -0.31358678829E+02 -0.45799680850E+00  0.97623328477E+01  0.32846303318E+02  0.00000000000E+00 0. -1.
        -13    1    4    4    0    0 -0.25428980211E+01  0.11104287233E+03  0.27743991678E+03  0.29884760874E+03  0.00000000000E+00 0.  1.
         13    1    4    4    0    0  0.58187074850E+02  0.35458129082E+02  0.18214228002E+03  0.19447062701E+03  0.00000000000E+00 0. -1.
         -1    1    1    2    0  502  0.52197515943E+02  0.17025698338E+02  0.15776327049E+03  0.16704401992E+03  0.00000000000E+00 0.  1.
<scales pt_clust_5="13000.00000" pt_clust_6="13000.00000" pt_clust_7="13000.00000" pt_clust_8="13000.00000" pt_clust_9="54.90405"></scales>
<clustering>
<clus scale="   54.904">  1  9  2 -1</clus>
<clus scale="   87.111">  7  8 -1 -1</clus>
<clus scale="   98.760">  5  6 -1 -1</clus>
<clus scale="  200.288">  1  7  2 -1</clus>
<clus scale="   54.904">  1  5  2 -1</clus>
</clustering>
</event>
<event>
 9    1  0.1399746E-005  0.2039988E+03  0.7546771E-02  0.1146868E+00
         21   -1    0    0  501  502  0.00000000000E+00  0.00000000000E+00  0.46446283666E+03  0.46446283666E+03  0.00000000000E+00 0.  1.
          2   -1    0    0  502    0 -0.00000000000E+00 -0.00000000000E+00 -0.21332458665E+03  0.21332458665E+03  0.00000000000E+00 0. -1.
         23    2    1    2    0    0 -0.44986142121E+01  0.18442917159E+03 -0.12345153900E+03  0.24254547773E+03  0.97742874024E+02 0.  0.
         23    2    1    2    0    0  0.50508988933E+01 -0.15312578415E+03  0.25543788957E+03  0.31204542686E+03  0.93009761012E+02 0.  0.
        -11    1    3    3    0    0 -0.20818001087E+02  0.27070149187E+01 -0.32470969150E+02  0.38666276477E+02  0.00000000000E+00 0.  1.
         11    1    3    3    0    0  0.16319386875E+02  0.18172215667E+03 -0.90980569848E+02  0.20387920125E+03  0.00000000000E+00 0. -1.
        -11    1    4    4    0    0  0.33554386738E+02 -0.36272009295E+02  0.12603637524E+03  0.13537622912E+03  0.00000000000E+00 0. -1.
         11    1    4    4    0    0 -0.28503487845E+02 -0.11685377486E+03  0.12940151432E+03  0.17666919773E+03  0.00000000000E+00 0.  1.
          2    1    1    2  501    0 -0.55228468124E+00 -0.31303387439E+02  0.11915189945E+03  0.12319651872E+03  0.00000000000E+00 0. -1.
<scales pt_clust_5="13000.00000" pt_clust_6="13000.00000" pt_clust_7="13000.00000" pt_clust_8="13000.00000" pt_clust_9="31.30826"></scales>
<clustering>
<clus scale="   31.308">  1  9  2 -1</clus>
<clus scale="   93.010">  7  8 -1 -1</clus>
<clus scale="   97.743">  5  6 -1 -1</clus>
<clus scale="  201.774">  1  7  2 -1</clus>
<clus scale="   31.308">  1  5  2 -1</clus>
</clustering>
</event>
<event>
 9    1  0.1399746E-005  0.1025990E+03  0.7546771E-02  0.1279596E+00
          2   -1    0    0  502    0 -0.00000000000E+00  0.00000000000E+00  0.42811372841E+03  0.42811372841E+03  0.00000000000E+00 0. -1.
         21   -1    0    0  501  502  0.00000000000E+00 -0.00000000000E+00 -0.49434632638E+02  0.49434632638E+02  0.00000000000E+00 0. -1.
         23    2    1    2    0    0  0.50848854147E+02 -0.38010367874E+02  0.24014929243E+03  0.26177421406E+03  0.82605462631E+02 0.  0.
         23    2    1    2    0    0 -0.25086104745E+02 -0.12806341988E+02  0.12356674101E+03  0.15686786131E+03  0.92441718840E+02 0.  0.
        -13    1    3    3    0    0  0.15998310251E+02 -0.44514179368E+02  0.20992133367E+03  0.21518462869E+03  0.00000000000E+00 0. -1.
         13    1    3    3    0    0  0.34850543896E+02  0.65038114938E+01  0.30227958765E+02  0.46589585369E+02  0.00000000000E+00 0.  1.
        -13    1    4    4    0    0 -0.41298013212E+02 -0.24630246042E+02  0.12763641846E+03  0.13639365907E+03  0.00000000000E+00 0. -1.
         13    1    4    4    0    0  0.16211908467E+02  0.11823904054E+02 -0.40696774475E+01  0.20474202249E+02  0.00000000000E+00 0.  1.
          2    1    1    2  501    0 -0.25762749402E+02  0.50816709862E+02  0.14963062325E+02  0.58906285675E+02  0.00000000000E+00 0. -1.
<scales pt_clust_5="13000.00000" pt_clust_6="13000.00000" pt_clust_7="13000.00000" pt_clust_8="13000.00000" pt_clust_9="56.97418"></scales>
<clustering>
<clus scale="   56.974">  2  9  1 -1</clus>
<clus scale="   82.605">  5  6 -1 -1</clus>
<clus scale="   92.442">  7  8 -1 -1</clus>
<clus scale="   93.834">  1  5  2 -1</clus>
<clus scale="   56.974">  2  5  1 -1</clus>
</clustering>
</event>
<event>
 9    1  0.1399746E-005  0.1058588E+03  0.7546771E-02  0.1269990E+00
         21   -1    0    0  501  502  0.00000000000E+00  0.00000000000E+00  0.30921261247E+02  0.30921261247E+02  0.00000000000E+00 0.  1.
          1   -1    0    0  502    0 -0.00000000000E+00 -0.00000000000E+00 -0.57627678674E+03  0.57627678674E+03  0.00000000000E+00 0. -1.
         23    2    1    2    0    0 -0.48712992948E+02 -0.74648988767E+01 -0.26547919545E+03  0.28477068555E+03  0.90479056879E+02 0.  0.
         23    2    1    2    0    0  0.36751813919E+02  0.42285669114E+02 -0.13955283841E+03  0.17735414593E+03  0.94025128195E+02 0.  0.
        -13    1    4    4    0    0  0.39010047697E+02  0.70282360699E+02 -0.11322035605E+03  0.13885331494E+03  0.00000000000E+00 0. -1.
         13    1    4    4    0    0 -0.22582337783E+01 -0.27996691586E+02 -0.26332482363E+02  0.38500830990E+02  0.00000000000E+00 0.  1.
        -13    1    3    3    0    0 -0.35812963183E+02 -0.45963853515E+02 -0.11513060537E+03  0.12903604324E+03  0.00000000000E+00 0.  1.
         13    1    3    3    0    0 -0.12900029765E+02  0.38498954638E+02 -0.15034859008E+03  0.15573464231E+03  0.00000000000E+00 0. -1.
          1    1    1    2  501    0  0.11961179029E+02 -0.34820770237E+02 -0.14032349163E+03  0.14507321650E+03  0.00000000000E+00 0. -1.
<scales pt_clust_5="13000.00000" pt_clust_6="13000.00000" pt_clust_7="13000.00000" pt_clust_8="13000.00000" pt_clust_9="36.81789"></scales>
<clustering>
<clus scale="   36.818">  1  9  2 -1</clus>
<clus scale="   90.479">  7  8 -1 -1</clus>
<clus scale="   94.025">  5  6 -1 -1</clus>
<clus scale="  102.722">  2  7  1 -1</clus>
<clus scale="   36.818">  1  5  2 -1</clus>
</clustering>
</event>
<event>
 9    1  0.1399746E-005  0.2526894E+03  0.7546771E-02  0.1111731E+00
          1   -1    0    0  502    0 -0.00000000000E+00  0.00000000000E+00  0.90542039880E+03  0.90542039880E+03  0.00000000000E+00 0. -1.
         21   -1    0    0  501  502  0.00000000000E+00 -0.00000000000E+00 -0.17054776615E+03  0.17054776615E+03  0.00000000000E+00 0. -1.
         23    2    1    2    0    0  0.20360742107E+03  0.10445146136E+03  0.44350568634E+03  0.50743897001E+03  0.91820067363E+02 0.  0.
         23    2    1    2    0    0 -0.22913377467E+03 -0.80984244502E+02  0.38716830561E+03  0.46664590171E+03  0.93799606418E+02 0.  0.
        -13    1    3    3    0    0  0.72305269993E+02  0.33091514612E+02  0.73057071374E+02  0.10798349914E+03  0.00000000000E+00 0.  1.
         13    1    3    3    0    0  0.13130215108E+03  0.71359946745E+02  0.37044861497E+03  0.39945547087E+03  0.00000000000E+00 0. -1.
        -13    1    4    4    0    0 -0.16878652788E+03 -0.56103583110E+02  0.19616425523E+03  0.26479599518E+03  0.00000000000E+00 0. -1.
         13    1    4    4    0    0 -0.60347246785E+02 -0.24880661392E+02  0.19100405038E+03  0.20184990653E+03  0.00000000000E+00 0.  1.
          1    1    1    2  501    0  0.25526353597E+02 -0.23467216855E+02 -0.95801359304E+02  0.10188329323E+03  0.00000000000E+00 0. -1.
<scales pt_clust_5="13000.00000" pt_clust_6="13000.00000" pt_clust_7="13000.00000" pt_clust_8="13000.00000" pt_clust_9="34.67427"></scales>
<clustering>
<clus scale="   34.674">  2  9  1 -1</clus>
<clus scale="   91.820">  5  6 -1 -1</clus>
<clus scale="   93.800">  7  8 -1 -1</clus>
<clus scale="  251.961">  1  5  2 -1</clus>
<clus scale="   34.674">  2  5  1 -1</clus>
</clustering>
</event>
<event>
 9    1  0.1399746E-005  0.9960920E+02  0.7546771E-02  0.1281831E+00
         21   -1    0    0  501  502  0.00000000000E+00  0.00000000000E+00  0.16209732281E+03  0.16209732281E+03  0.00000000000E+00 0.  1.
         -1   -1    0    0    0  501 -0.00000000000E+00 -0.00000000000E+00 -0.14484769803E+03  0.14484769803E+03  0.00000000000E+00 0.  1.
         23    2    1    2    0    0  0.13713976274E+02 -0.20547418505E+02 -0.41833301403E+02  0.10430941440E+03  0.92304708837E+02 0.  0.
         23    2    1    2    0    0 -0.41337001765E+02  0.35964352443E+02 -0.28207703770E+02  0.10978967241E+03  0.90862067190E+02 0.  0.
        -11    1    3    3    0    0  0.47329196371E+02  0.94016773977E+01 -0.10293869337E+02  0.49339721452E+02  0.00000000000E+00 0. -1.
         11    1    3    3    0    0 -0.33615220097E+02 -0.29949095903E+02 -0.31539432066E+02  0.54969692946E+02  0.00000000000E+00 0.  1.
        -13    1    4    4    0    0  0.29932051542E+01  0.56961758944E+02 -0.15997288849E+02  0.59241155539E+02  0.00000000000E+00 0. -1.
         13    1    4    4    0    0 -0.44330206919E+02 -0.20997406500E+02 -0.12210414921E+02  0.50548516870E+02  0.00000000000E+00 0.  1.
         -1    1    1    2    0  502  0.27623025490E+02 -0.15416933938E+02  0.87290629950E+02  0.92845934032E+02  0.00000000000E+00 0.  1.
<scales pt_clust_5="13000.00000" pt_clust_6="13000.00000" pt_clust_7="13000.00000" pt_clust_8="13000.00000" pt_clust_9="31.63405"></scales>
<clustering>
<clus scale="   31.634">  1  9  2 -1</clus>
<clus scale="   90.862">  7  8 -1 -1</clus>
<clus scale="   92.305">  5  6 -1 -1</clus>
<clus scale="   98.274">  1  7  2 -1</clus>
<clus scale="   31.634">  1  5  2 -1</clus>
</clustering>
</event>
<event>
 9    1  0.1399746E-005  0.4214391E+03  0.7546771E-02  0.1036622E+00
         21   -1    0    0  501  502  0.00000000000E+00  0.00000000000E+00  0.13969048822E+03  0.13969048822E+03  0.00000000000E+00 0. -1.
          2   -1    0    0  502    0 -0.00000000000E+00 -0.00000000000E+00 -0.22447412474E+04  0.22447412474E+04  0.00000000000E+00 0. -1.
         23    2    1    2    0    0 -0.24127094203E+03 -0.19849200500E+03 -0.46788496678E+03  0.57020893446E+03  0.92796246057E+02 0.  0.
         23    2    1    2    0    0  0.47682189690E+03  0.24151088311E+03 -0.11392185703E+04  0.12616955962E+04  0.91488789185E+02 0.  0.
        -11    1    3    3    0    0 -0.37088958380E+02 -0.54340829426E+02 -0.16424227396E+03  0.17692948068E+03  0.00000000000E+00 0. -1.
         11    1    3    3    0    0 -0.20418198365E+03 -0.14415117558E+03 -0.30364269282E+03  0.39327945379E+03  0.00000000000E+00 0.  1.
        -13    1    4    4    0    0  0.32930585495E+02  0.23879689474E+02 -0.43186002114E+02  0.59327007417E+02  0.00000000000E+00 0.  1.
         13    1    4    4    0    0  0.44389131141E+03  0.21763119364E+03 -0.10960325682E+04  0.12023685888E+04  0.00000000000E+00 0. -1.
          2    1    1    2  501    0 -0.23555095487E+03 -0.43018878109E+02 -0.49794722210E+03  0.55252720496E+03  0.00000000000E+00 0. -1.
<scales pt_clust_5="13000.00000" pt_clust_6="13000.00000" pt_clust_7="13000.00000" pt_clust_8="13000.00000" pt_clust_9="239.44714"></scales>
<clustering>
<clus scale="   91.489">  7  8 -1 -1</clus>
<clus scale="   92.796">  5  6 -1 -1</clus>
<clus scale="  239.447">  1  9  2 -1</clus>
<clus scale="  421.153">  1  7  2 -1</clus>
<clus scale="  239.447">  1  5  2 -1</clus>
</clustering>
</event>
<event>
 9    1  0.1399746E-005  0.1688023E+03  0.7546771E-02  0.1194555E+00
         -4   -1    0    0    0  501 -0.00000000000E+00  0.00000000000E+00  0.25564544429E+03  0.25564544429E+03  0.00000000000E+00 0.  1.
         21   -1    0    0  501  502  0.00000000000E+00 -0.00000000000E+00 -0.24510008277E+03  0.24510008277E+03  0.00000000000E+00 0.  1.
         23    2    1    2    0    0  0.23401621600E+02 -0.78186732317E+02 -0.84882240088E+02  0.14678476463E+03  0.87635446256E+02 0.  0.
         23    2    1    2    0    0 -0.51423512614E+02 -0.82062288188E+02  0.13167761225E+03  0.18729031449E+03  0.91433426821E+02 0.  0.
        -11    1    4    4    0    0 -0.48016164284E+02 -0.32128625677E+02  0.12380964738E+03  0.13662587385E+03  0.00000000000E+00 0.  1.
         11    1    4    4    0    0 -0.34073483300E+01 -0.49933662511E+02  0.78679648765E+01  0.50664440643E+02  0.00000000000E+00 0. -1.
        -13    1    3    3    0    0 -0.20393950784E+02 -0.14140964148E+01 -0.45777055399E+02  0.50134336520E+02  0.00000000000E+00 0. -1.
         13    1    3    3    0    0  0.43795572384E+02 -0.76772635902E+02 -0.39105184689E+02  0.96650428107E+02  0.00000000000E+00 0.  1.
         -4    1    1    2    0  502  0.28021891014E+02  0.16024902050E+03 -0.36250010644E+02  0.16667044795E+03  0.00000000000E+00 0.  1.
<scales pt_clust_5="13000.00000" pt_clust_6="13000.00000" pt_clust_7="13000.00000" pt_clust_8="13000.00000" pt_clust_9="141.89482"></scales>
<clustering>
<clus scale="   87.635">  7  8 -1 -1</clus>
<clus scale="   91.433">  5  6 -1 -1</clus>
<clus scale="  119.753">  1  7  2 -1</clus>
<clus scale="  141.895">  2  9  1 -1</clus>
<clus scale="  141.895">  2  5  1 -1</clus>
</clustering>
</event>
<event>
 9    1  0.1399746E-005  0.1081042E+03  0.7546771E-02  0.1264390E+00
          4   -1    0    0  502    0 -0.00000000000E+00  0.00000000000E+00  0.10577803392E+03  0.10577803392E+03  0.00000000000E+00 0. -1.
         21   -1    0    0  501  502  0.00000000000E+00 -0.00000000000E+00 -0.39920090924E+03  0.39920090924E+03  0.00000000000E+00 0. -1.
         23    2    1    2    0    0 -0.62590889574E+02  0.26078634556E+02  0.21222757784E+02  0.11564266083E+03  0.91242012894E+02 0.  0.
         23    2    1    2    0    0  0.48928994230E+02  0.27658612853E+02 -0.47852546520E+02  0.11684244719E+03  0.90571772180E+02 0.  0.
        -13    1    3    3    0    0  0.22101184458E+02 -0.63374495475E+01  0.46262846954E+01  0.23452678553E+02  0.00000000000E+00 0. -1.
         13    1    3    3    0    0 -0.84692074032E+02  0.32416084103E+02  0.16596473089E+02  0.92189982273E+02  0.00000000000E+00 0.  1.
        -13    1    4    4    0    0 -0.15682964781E+02 -0.18671309639E+02 -0.23059566424E+02  0.33560643492E+02  0.00000000000E+00 0.  1.
         13    1    4    4    0    0  0.64611959011E+02  0.46329922491E+02 -0.24792980096E+02  0.83281803699E+02  0.00000000000E+00 0. -1.
          4    1    1    2  501    0  0.13661895344E+02 -0.53737247408E+02 -0.26679308658E+03  0.27249383514E+03  0.00000000000E+00 0. -1.
<scales pt_clust_5="13000.00000" pt_clust_6="13000.00000" pt_clust_7="13000.00000" pt_clust_8="13000.00000" pt_clust_9="55.44672"></scales>
<clustering>
<clus scale="   55.447">  2  9  1 -1</clus>
<clus scale="   90.572">  7  8 -1 -1</clus>
<clus scale="   91.242">  5  6 -1 -1</clus>
<clus scale="  107.539">  2  7  1 -1</clus>
<clus scale="   55.447">  2  5  1 -1</clus>
</clustering>
</event>
<event>
 9    1  0.1399746E-005  0.9954757E+02  0.7546771E-02  0.1287207E+00
          1   -1    0    0  502    0 -0.00000000000E+00  0.00000000000E+00  0.78796160623E+03  0.78796160623E+03  0.00000000000E+00 0. -1.
         21   -1    0    0  501  502  0.00000000000E+00 -0.00000000000E+00 -0.16260198725E+02  0.16260198725E+02  0.00000000000E+00 0.  1.
         23    2    1    2    0    0  0.24518642390E+02 -0.40773822575E+02  0.48967451460E+03  0.50049261830E+03  0.91913341195E+02 0.  0.
         23    2    1    2    0    0 -0.12780047169E+02  0.23361094065E+02  0.25944073674E+03  0.27288875569E+03  0.80310066498E+02 0.  0.
        -11    1    3    3    0    0  0.18611063434E+02 -0.70185467871E+02  0.37457580519E+03  0.38154869337E+03  0.00000000000E+00 0.  1.
         11    1    3    3    0    0  0.59075789566E+01  0.29411645296E+02  0.11509870941E+03  0.11894392492E+03  0.00000000000E+00 0. -1.
        -13    1    4    4    0    0 -0.43528461966E+02  0.35688743646E+00  0.10333828255E+03  0.11213231029E+03  0.00000000000E+00 0.  1.
         13    1    4    4    0    0  0.30748414797E+02  0.23004206629E+02  0.15610245418E+03  0.16075644540E+03  0.00000000000E+00 0. -1.
          1    1    1    2  501    0 -0.11738595222E+02  0.17412728509E+02  0.22586156170E+02  0.30840430971E+02  0.00000000000E+00 0. -1.
<scales pt_clust_5="13000.00000" pt_clust_6="13000.00000" pt_clust_7="13000.00000" pt_clust_8="13000.00000" pt_clust_9="20.99995"></scales>
<clustering>
<clus scale="   21.000">  2  9  1 -1</clus>
<clus scale="   80.310">  7  8 -1 -1</clus>
<clus scale="   88.946">  2  7  1 -1</clus>
<clus scale="   91.913">  5  6 -1 -1</clus>
<clus scale="   21.000">  2  5  1 -1</clus>
</clustering>
</event>
<event>
 9    1  0.1399746E-005  0.1168694E+03  0.7546771E-02  0.1249402E+00
          2   -1    0    0  502    0 -0.00000000000E+00  0.00000000000E+00  0.65304504513E+03  0.65304504513E+03  0.00000000000E+00 0. -1.
         21   -1    0    0  501  502  0.00000000000E+00 -0.00000000000E+00 -0.34715101208E+02  0.34715101208E+02  0.00000000000E+00 0.  1.
         23    2    1    2    0    0  0.71145575978E+02 -0.11841707338E+02  0.35389005350E+03  0.37229937307E+03  0.90369985114E+02 0.  0.
         23    2    1    2    0    0 -0.60215558319E+02  0.37005367537E+02  0.26308962890E+03  0.28799264106E+03  0.93425359391E+02 0.  0.
        -11    1    4    4    0    0 -0.18705543679E+02  0.53204879431E+02  0.70329274136E+02  0.90149117356E+02  0.00000000000E+00 0.  1.
         11    1    4    4    0    0 -0.41510014639E+02 -0.16199511895E+02  0.19276035477E+03  0.19784352370E+03  0.00000000000E+00 0. -1.
        -13    1    3    3    0    0  0.39014140153E+02 -0.41828316098E+02  0.28426826880E+03  0.28996579075E+03  0.00000000000E+00 0. -1.
         13    1    3    3    0    0  0.32131435824E+02  0.29986608760E+02  0.69621784706E+02  0.82333582327E+02  0.00000000000E+00 0.  1.
          2    1    1    2  501    0 -0.10930017659E+02 -0.25163660199E+02  0.13502615154E+01  0.27468132204E+02  0.00000000000E+00 0. -1.
<scales pt_clust_5="13000.00000" pt_clust_6="13000.00000" pt_clust_7="13000.00000" pt_clust_8="13000.00000" pt_clust_9="27.43492"></scales>
<clustering>
<clus scale="   27.435">  2  9  1 -1</clus>
<clus scale="   90.370">  7  8 -1 -1</clus>
<clus scale="   93.425">  5  6 -1 -1</clus>
<clus scale="  114.442">  1  7  2 -1</clus>
<clus scale="   27.435">  2  5  1 -1</clus>
</clustering>
</event>
<event>
 9    1  0.1399746E-005  0.1182164E+03  0.7546771E-02  0.1246619E+00
          3   -1    0    0  502    0 -0.00000000000E+00  0.00000000000E+00  0.19956826973E+03  0.19956826973E+03  0.00000000000E+00 0. -1.
         21   -1    0    0  501  502  0.00000000000E+00 -0.00000000000E+00 -0.28587147940E+03  0.28587147940E+03  0.00000000000E+00 0. -1.
         23    2    1    2    0    0 -0.78811151970E+02  0.82773341574E+01  0.15188370256E+03  0.19417495297E+03  0.91408650138E+02 0.  0.
         23    2    1    2    0    0  0.51700191225E+02 -0.14871893967E+02 -0.82865484874E+02  0.13345719746E+03  0.89722081821E+02 0.  0.
        -11    1    3    3    0    0 -0.46195692074E+02  0.44778474350E+02  0.11877247623E+03  0.13507795838E+03  0.00000000000E+00 0. -1.
         11    1    3    3    0    0 -0.32615459896E+02 -0.36501140193E+02  0.33111226335E+02  0.59096994585E+02  0.00000000000E+00 0.  1.
        -13    1    4    4    0    0  0.34446364648E+02  0.33698729481E+02 -0.20030908028E+02  0.52186144545E+02  0.00000000000E+00 0.  1.
         13    1    4    4    0    0  0.17253826576E+02 -0.48570623447E+02 -0.62834576846E+02  0.81271052910E+02  0.00000000000E+00 0. -1.
          3    1    1    2  501    0  0.27110960746E+02  0.65945598094E+01 -0.15532142736E+03  0.15780759871E+03  0.00000000000E+00 0. -1.
<scales pt_clust_5="13000.00000" pt_clust_6="13000.00000" pt_clust_7="13000.00000" pt_clust_8="13000.00000" pt_clust_9="27.90148"></scales>
<clustering>
<clus scale="   27.901">  2  9  1 -1</clus>
<clus scale="   89.722">  7  8 -1 -1</clus>
<clus scale="   91.409">  5  6 -1 -1</clus>
<clus scale="  116.917">  2  7  1 -1</clus>
<clus scale="   27.901">  2  5  1 -1</clus>
</clustering>
</event>
<event>
 9    1  0.1399746E-005  0.1798941E+03  0.7546771E-02  0.1167999E+00
         21   -1    0    0  501  502  0.00000000000E+00  0.00000000000E+00  0.66619580271E+03  0.66619580271E+03  0.00000000000E+00 0.  1.
          1   -1    0    0  502    0 -0.00000000000E+00 -0.00000000000E+00 -0.17113072142E+03  0.17113072142E+03  0.00000000000E+00 0. -1.
         23    2    1    2    0    0  0.10290671603E+03 -0.11288554307E+03 -0.62636999532E+02  0.18890049209E+03  0.91799042284E+02 0.  0.
         23    2    1    2    0    0 -0.18140576984E+03  0.61113387511E+02  0.48586911375E+03  0.53009415680E+03  0.91039111998E+02 0.  0.
        -11    1    4    4    0    0 -0.98952368600E+02  0.17536030233E+02  0.35794137517E+03  0.37178099960E+03  0.00000000000E+00 0.  1.
         11    1    4    4    0    0 -0.82453401243E+02  0.43577357278E+02  0.12792773859E+03  0.15831315720E+03  0.00000000000E+00 0. -1.
        -13    1    3    3    0    0  0.80804202193E+02 -0.42843653713E+02 -0.69876144752E+02  0.11509810320E+03  0.00000000000E+00 0. -1.
         13    1    3    3    0    0  0.22102513839E+02 -0.70041889353E+02  0.72391452201E+01  0.73802388888E+02  0.00000000000E+00 0.  1.
          1    1    1    2  501    0  0.78499053812E+02  0.51772155555E+02  0.71832967068E+02  0.11833187524E+03  0.00000000000E+00 0. -1.
<scales pt_clust_5="13000.00000" pt_clust_6="13000.00000" pt_clust_7="13000.00000" pt_clust_8="13000.00000" pt_clust_9="94.03434"></scales>
<clustering>
<clus scale="   91.039">  5  6 -1 -1</clus>
<clus scale="   91.799">  7  8 -1 -1</clus>
<clus scale="   94.034">  1  9  2 -1</clus>
<clus scale="  179.508">  1  5  2 -1</clus>
<clus scale="   94.034">  1  5  2 -1</clus>
</clustering>
</event>
<event>
 9    1  0.1399746E-005  0.2077158E+03  0.7546771E-02  0.1143662E+00
         -3   -1    0    0    0  501 -0.00000000000E+00  0.00000000000E+00  0.41058797313E+03  0.41058797313E+03  0.00000000000E+00 0.  1.
         21   -1    0    0  501  502  0.00000000000E+00 -0.00000000000E+00 -0.20325263684E+03  0.20325263684E+03  0.00000000000E+00 0. -1.
         23    2    1    2    0    0 -0.14198650686E+03  0.11336712035E+03  0.28253609716E+03  0.34785760295E+03  0.90365887494E+02 0.  0.
         23    2    1    2    0    0  0.16807990501E+03 -0.11236155271E+03 -0.47148314572E+02  0.22765786728E+03  0.93430016454E+02 0.  0.
        -13    1    3    3    0    0 -0.88496842043E+02  0.11571338519E+03  0.17474707013E+03  0.22750344411E+03  0.00000000000E+00 0.  1.
         13    1    3    3    0    0 -0.53489664812E+02 -0.23462648388E+01  0.10778902703E+03  0.12035415883E+03  0.00000000000E+00 0. -1.
        -13    1    4    4    0    0  0.77590638889E+02  0.10884052140E+01 -0.15634163501E+02  0.79157557677E+02  0.00000000000E+00 0.  1.
         13    1    4    4    0    0  0.90489266120E+02 -0.11344995792E+03 -0.31514151071E+02  0.14850030961E+03  0.00000000000E+00 0. -1.
         -3    1    1    2    0  502 -0.26093398153E+02 -0.10055676414E+01 -0.28052446299E+02  0.38325139750E+02  0.00000000000E+00 0.  1.
<scales pt_clust_5="13000.00000" pt_clust_6="13000.00000" pt_clust_7="13000.00000" pt_clust_8="13000.00000" pt_clust_9="26.11277"></scales>
<clustering>
<clus scale="   26.113">  2  9  1 -1</clus>
<clus scale="   90.366">  5  6 -1 -1</clus>
<clus scale="   93.430">  7  8 -1 -1</clus>
<clus scale="  206.356">  1  5  2 -1</clus>
<clus scale="   26.113">  2  5  1 -1</clus>
</clustering>
</event>
<event>
 9    1  0.1399746E-005  0.1130039E+03  0.7546771E-02  0.1256463E+00
         21   -1    0    0  501  502  0.00000000000E+00  0.00000000000E+00  0.35470894373E+03  0.35470894373E+03  0.00000000000E+00 0.  1.
          2   -1    0    0  502    0 -0.00000000000E+00 -0.00000000000E+00 -0.11054246211E+03  0.11054246211E+03  0.00000000000E+00 0. -1.
         23    2    1    2    0    0 -0.56468582569E+02  0.38468530459E+02 -0.60415595835E+02  0.12779364789E+03  0.89513370884E+02 0.  0.
         23    2    1    2    0    0  0.36662810127E+02 -0.20205618457E+02  0.15607259991E+03  0.18652443660E+03  0.93168022099E+02 0.  0.
        -11    1    3    3    0    0  0.12864598430E+01  0.43350411309E+02 -0.54325117012E+02  0.69513534495E+02  0.00000000000E+00 0. -1.
         11    1    3    3    0    0 -0.57755042412E+02 -0.48818808500E+01 -0.60904788227E+01  0.58280113392E+02  0.00000000000E+00 0.  1.
        -11    1    4    4    0    0  0.21798842493E+02  0.32176307035E+02  0.29679543984E+02  0.48901734116E+02  0.00000000000E+00 0. -1.
         11    1    4    4    0    0  0.14863967634E+02 -0.52381925493E+02  0.12639305593E+03  0.13762270248E+03  0.00000000000E+00 0.  1.
          2    1    1    2  501    0  0.19805772443E+02 -0.18262912002E+02  0.14850947754E+03  0.15093332136E+03  0.00000000000E+00 0. -1.
<scales pt_clust_5="13000.00000" pt_clust_6="13000.00000" pt_clust_7="13000.00000" pt_clust_8="13000.00000" pt_clust_9="26.94072"></scales>
<clustering>
<clus scale="   26.941">  1  9  2 -1</clus>
<clus scale="   89.513">  5  6 -1 -1</clus>
<clus scale="   93.168">  7  8 -1 -1</clus>
<clus scale="  110.010">  2  5  1 -1</clus>
<clus scale="   26.941">  1  5  2 -1</clus>
</clustering>
</event>
<event>
 9    1  0.1399746E-005  0.1487706E+03  0.7546771E-02  0.1201993E+00
          1   -1    0    0  502    0 -0.00000000000E+00  0.00000000000E+00  0.84575319214E+03  0.84575319214E+03  0.00000000000E+00 0. -1.
         21   -1    0    0  501  502  0.00000000000E+00 -0.00000000000E+00 -0.10383905737E+03  0.10383905737E+03  0.00000000000E+00 0.  1.
         23    2    1    2    0    0 -0.31463244522E+02 -0.11647367319E+03  0.74317913827E+03  0.75836049652E+03  0.90770913969E+02 0.  0.
         23    2    1    2    0    0  0.33792008365E+02  0.94147246782E+02  0.42868277009E+02  0.14171772562E+03  0.90777864458E+02 0.  0.
        -11    1    3    3    0    0  0.11087571266E+02 -0.10674693199E+03  0.52396953870E+03  0.53484756633E+03  0.00000000000E+00 0. -1.
         11    1    3    3    0    0 -0.42550815788E+02 -0.97267412037E+01  0.21920959957E+03  0.22351293019E+03  0.00000000000E+00 0.  1.
        -11    1    4    4    0    0  0.24296947059E+02  0.51480591502E+02  0.70035373461E+02  0.90252681255E+02  0.00000000000E+00 0. -1.
         11    1    4    4    0    0  0.94950613066E+01  0.42666655279E+02 -0.27167096453E+02  0.51465044366E+02  0.00000000000E+00 0.  1.
          1    1    1    2  501    0 -0.23287638429E+01  0.22326426410E+02 -0.44133280510E+02  0.49514027365E+02  0.00000000000E+00 0. -1.
<scales pt_clust_5="13000.00000" pt_clust_6="13000.00000" pt_clust_7="13000.00000" pt_clust_8="13000.00000" pt_clust_9="22.44755"></scales>
<clustering>
<clus scale="   22.448">  2  9  1 -1</clus>
<clus scale="   90.771">  5  6 -1 -1</clus>
<clus scale="   90.778">  7  8 -1 -1</clus>
<clus scale="  148.766">  1  5  2 -1</clus>
<clus scale="   22.448">  2  5  1 -1</clus>
</clustering>
</event>
<event>
 9    1  0.1399746E-005  0.9164406E+02  0.7546771E-02  0.1302061E+00
         21   -1    0    0  501  502  0.00000000000E+00  0.00000000000E+00  0.15468150291E+03  0.15468150291E+03  0.00000000000E+00 0. -1.
          1   -1    0    0  502    0 -0.00000000000E+00 -0.00000000000E+00 -0.15768708179E+03  0.15768708179E+03  0.00000000000E+00 0. -1.
         23    2    1    2    0    0 -0.19942970419E+02  0.44001895999E+01 -0.82671986004E+02  0.12032608553E+03  0.85009563301E+02 0.  0.
         23    2    1    2    0    0 -0.23051645210E+02 -0.38706307938E+02  0.72813308213E+01  0.10113020077E+03  0.90248230497E+02 0.  0.
        -11    1    3    3    0    0  0.83631111676E+01  0.39118725489E+02 -0.24513659806E+02  0.46916264018E+02  0.00000000000E+00 0.  1.
         11    1    3    3    0    0 -0.28306081587E+02 -0.34718535889E+02 -0.58158326198E+02  0.73409821517E+02  0.00000000000E+00 0. -1.
        -11    1    4    4    0    0  0.34129720615E+02 -0.23729817753E+02 -0.39014596542E-01  0.41568541013E+02  0.00000000000E+00 0.  1.
         11    1    4    4    0    0 -0.57181365824E+02 -0.14976490185E+02  0.73203454179E+01  0.59561659756E+02  0.00000000000E+00 0. -1.
          1    1    1    2  501    0  0.42994615629E+02  0.34306118338E+02  0.72385076303E+02  0.90912298397E+02  0.00000000000E+00 0. -1.
<scales pt_clust_5="13000.00000" pt_clust_6="13000.00000" pt_clust_7="13000.00000" pt_clust_8="13000.00000" pt_clust_9="55.00406"></scales>
<clustering>
<clus scale="   55.004">  1  9  2 -1</clus>
<clus scale="   85.010">  5  6 -1 -1</clus>
<clus scale="   86.490">  2  5  1 -1</clus>
<clus scale="   90.248">  7  8 -1 -1</clus>
<clus scale="   55.004">  1  5  2 -1</clus>
</clustering>
</event>
<event>
 9    1  0.1399746E-005  0.1114615E+03  0.7546771E-02  0.1259228E+00
         21   -1    0    0  501  502  0.00000000000E+00  0.00000000000E+00  0.20741777547E+02  0.20741777547E+02  0.00000000000E+00 0. -1.
          2   -1    0    0  502    0 -0.00000000000E+00 -0.00000000000E+00 -0.11611397003E+04  0.11611397003E+04  0.00000000000E+00 0. -1.
         23    2    1    2    0    0 -0.62599107602E+02 -0.61860324837E+02 -0.52025851435E+03  0.53527144236E+03  0.90006928547E+02 0.  0.
         23    2    1    2    0    0  0.41124667807E+02 -0.98413145149E+01 -0.27679315796E+03  0.29520012621E+03  0.93491028689E+02 0.  0.
        -11    1    3    3    0    0 -0.80415438476E+02 -0.27779085296E+02 -0.30688217630E+03  0.31845720349E+03  0.00000000000E+00 0.  1.
         11    1    3    3    0    0  0.17816330874E+02 -0.34081239542E+02 -0.21337633806E+03  0.21681423887E+03  0.00000000000E+00 0. -1.
        -11    1    4    4    0    0  0.14370205338E+02 -0.49277628184E+02 -0.18203293691E+03  0.18913164083E+03  0.00000000000E+00 0. -1.
         11    1    4    4    0    0  0.26754462469E+02  0.39436313669E+02 -0.94760221050E+02  0.10606848538E+03  0.00000000000E+00 0.  1.
          2    1    1    2  501    0  0.21474439795E+02  0.71701639352E+02 -0.34334625046E+03  0.35140990930E+03  0.00000000000E+00 0. -1.
<scales pt_clust_5="13000.00000" pt_clust_6="13000.00000" pt_clust_7="13000.00000" pt_clust_8="13000.00000" pt_clust_9="74.84840"></scales>
<clustering>
<clus scale="   74.848">  1  9  2 -1</clus>
<clus scale="   90.007">  5  6 -1 -1</clus>
<clus scale="   93.491">  7  8 -1 -1</clus>
<clus scale="  108.556">  2  5  1 -1</clus>
<clus scale="   74.848">  1  5  2 -1</clus>
</clustering>
</event>
<event>
 9    1  0.1399746E-005  0.1126384E+03  0.7546771E-02  0.1257109E+00
         21   -1    0    0  501  502  0.00000000000E+00  0.00000000000E+00  0.90178881959E+02  0.90178881959E+02  0.00000000000E+00 0. -1.
          1   -1    0    0  502    0 -0.00000000000E+00 -0.00000000000E+00 -0.71883104010E+03  0.71883104010E+03  0.00000000000E+00 0. -1.
         23    2    1    2    0    0  0.25576739089E+02 -0.68073965415E+02 -0.60265212743E+03  0.61387380720E+03  0.91450697717E+02 0.  0.
         23    2    1    2    0    0 -0.39232436338E+02  0.22308166980E+02 -0.77061796487E+02  0.12521980562E+03  0.87776083689E+02 0.  0.
        -11    1    3    3    0    0  0.60069958710E+02 -0.48099504265E+02 -0.39084077956E+03  0.39834467138E+03  0.00000000000E+00 0.  1.
         11    1    3    3    0    0 -0.34493219621E+02 -0.19974461150E+02 -0.21181134787E+03  0.21552913582E+03  0.00000000000E+00 0. -1.
        -11    1    4    4    0    0 -0.24502785409E+02  0.37498152899E+02  0.52763656394E+00  0.44797057537E+02  0.00000000000E+00 0.  1.
         11    1    4    4    0    0 -0.14729650929E+02 -0.15189985919E+02 -0.77589433051E+02  0.80422748087E+02  0.00000000000E+00 0. -1.
          1    1    1    2  501    0  0.13655697249E+02  0.45765798435E+02  0.51061765776E+02  0.69916309241E+02  0.00000000000E+00 0. -1.
<scales pt_clust_5="13000.00000" pt_clust_6="13000.00000" pt_clust_7="13000.00000" pt_clust_8="13000.00000" pt_clust_9="47.75967"></scales>
<clustering>
<clus scale="   47.760">  1  9  2 -1</clus>
<clus scale="   87.776">  7  8 -1 -1</clus>
<clus scale="   91.451">  5  6 -1 -1</clus>
<clus scale="  109.676">  1  7  2 -1</clus>
<clus scale="   47.760">  1  5  2 -1</clus>
</clustering>
</event>
<event>
 9    1  0.1399746E-005  0.1093462E+03  0.7546771E-02  0.1262036E+00
         21   -1    0    0  501  502  0.00000000000E+00  0.00000000000E+00  0.22233350995E+02  0.22233350995E+02  0.00000000000E+00 0.  1.
          1   -1    0    0  502    0 -0.00000000000E+00 -0.00000000000E+00 -0.80515166677E+03  0.80515166677E+03  0.00000000000E+00 0. -1.
         23    2    1    2    0    0  0.20527731644E+02  0.57812065882E+02 -0.51365067444E+03  0.52535144907E+03  0.91616084623E+02 0.  0.
         23    2    1    2    0    0 -0.40308213795E+02 -0.40487564574E+02 -0.23498431194E+03  0.25882763746E+03  0.92250333705E+02 0.  0.
        -11    1    4    4    0    0  0.27800772032E+02 -0.26430229922E+02 -0.70845106270E+02  0.80563447429E+02  0.00000000000E+00 0. -1.
         11    1    4    4    0    0 -0.68108985827E+02 -0.14057334652E+02 -0.16413920567E+03  0.17826419003E+03  0.00000000000E+00 0.  1.
        -13    1    3    3    0    0 -0.33283766931E+02  0.79994856544E+01 -0.11396911868E+03  0.11899899547E+03  0.00000000000E+00 0.  1.
         13    1    3    3    0    0  0.53811498576E+02  0.49812580227E+02 -0.39968155577E+03  0.40635245360E+03  0.00000000000E+00 0. -1.
          1    1    1    2  501    0  0.19780482150E+02 -0.17324501307E+02 -0.34283329393E+02  0.43205931235E+02  0.00000000000E+00 0. -1.
<scales pt_clust_5="13000.00000" pt_clust_6="13000.00000" pt_clust_7="13000.00000" pt_clust_8="13000.00000" pt_clust_9="26.29460"></scales>
<clustering>
<clus scale="   26.295">  1  9  2 -1</clus>
<clus scale="   91.616">  7  8 -1 -1</clus>
<clus scale="   92.250">  5  6 -1 -1</clus>
<clus scale="  108.812">  2  7  1 -1</clus>
<clus scale="   26.295">  1  5  2 -1</clus>
</clustering>
</event>
<event>
 9    1  0.1399746E-005  0.1223087E+03  0.7546771E-02  0.1240275E+00
         21   -1    0    0  501  502  0.00000000000E+00  0.00000000000E+00  0.40930162469E+03  0.40930162469E+03  0.00000000000E+00 0.  1.
          3   -1    0    0  502    0 -0.00000000000E+00 -0.00000000000E+00 -0.44137733855E+02  0.44137733855E+02  0.00000000000E+00 0. -1.
         23    2    1    2    0    0 -0.32507872520E+02  0.60572888068E+02  0.13173029152E+03  0.17612895560E+03  0.94565864613E+02 0.  0.
         23    2    1    2    0    0  0.43892840859E+02 -0.78193258328E+02  0.19155187692E+03  0.23046839592E+03  0.91557593016E+02 0.  0.
        -13    1    4    4    0    0  0.99608038044E+01 -0.60507024663E+02  0.18051137581E+03  0.19064279279E+03  0.00000000000E+00 0.  1.
         13    1    4    4    0    0  0.33932037054E+02 -0.17686233665E+02  0.11040501114E+02  0.39825603131E+02  0.00000000000E+00 0. -1.
        -13    1    3    3    0    0 -0.27870732394E+01  0.80277753036E+02  0.10105663904E+03  0.12909194283E+03  0.00000000000E+00 0.  1.
         13    1    3    3    0    0 -0.29720799281E+02 -0.19704864967E+02  0.30673652482E+02  0.47037012765E+02  0.00000000000E+00 0. -1.
          3    1    1    2  501    0 -0.11384968339E+02  0.17620370259E+02  0.41881722386E+02  0.46842007025E+02  0.00000000000E+00 0. -1.
<scales pt_clust_5="13000.00000" pt_clust_6="13000.00000" pt_clust_7="13000.00000" pt_clust_8="13000.00000" pt_clust_9="20.97844"></scales>
<clustering>
<clus scale="   20.978">  1  9  2 -1</clus>
<clus scale="   91.558">  5  6 -1 -1</clus>
<clus scale="   94.566">  7  8 -1 -1</clus>
<clus scale="  119.998">  1  5  2 -1</clus>
<clus scale="   20.978">  1  5  2 -1</clus>
</clustering>
</event>
<event>
 9    1  0.1399746E-005  0.1096649E+03  0.7546771E-02  0.1266530E+00
          3   -1    0    0  502    0 -0.00000000000E+00  0.00000000000E+00  0.92257499644E+02  0.92257499644E+02  0.00000000000E+00 0. -1.
         21   -1    0    0  501  502  0.00000000000E+00 -0.00000000000E+00 -0.22573023162E+03  0.22573023162E+03  0.00000000000E+00 0.  1.
         23    2    1    2    0    0 -0.57092052379E+02  0.35054339486E+02 -0.15919175366E+02  0.10340043495E+03  0.77135728695E+02 0.  0.
         23    2    1    2    0    0  0.65334499697E+02  0.19542609270E+02 -0.41867175158E+02  0.12090062123E+03  0.90628855398E+02 0.  0.
        -11    1    3    3    0    0 -0.77686332805E+01 -0.22360798238E+02 -0.14370666925E+02  0.27692472421E+02  0.00000000000E+00 0.  1.
         11    1    3    3    0    0 -0.49323419099E+02  0.57415137724E+02 -0.15485084405E+01  0.75707962526E+02  0.00000000000E+00 0. -1.
        -11    1    4    4    0    0  0.38532267885E+02  0.70569589964E+01 -0.69918008835E+02  0.80144022223E+02  0.00000000000E+00 0.  1.
         11    1    4    4    0    0  0.26802231812E+02  0.12485650274E+02  0.28050833676E+02  0.40756599009E+02  0.00000000000E+00 0. -1.
          3    1    1    2  501    0 -0.82424473177E+01 -0.54596948756E+02 -0.75686381455E+02  0.93686675088E+02  0.00000000000E+00 0. -1.
<scales pt_clust_5="13000.00000" pt_clust_6="13000.00000" pt_clust_7="13000.00000" pt_clust_8="13000.00000" pt_clust_9="55.21562"></scales>
<clustering>
<clus scale="   55.216">  2  9  1 -1</clus>
<clus scale="   77.136">  5  6 -1 -1</clus>
<clus scale="   90.629">  7  8 -1 -1</clus>
<clus scale="   98.807">  1  5  2 -1</clus>
<clus scale="   55.216">  2  5  1 -1</clus>
</clustering>
</event>
<event>
 9    1  0.1399746E-005  0.1013873E+03  0.7546771E-02  0.1278849E+00
         21   -1    0    0  501  502  0.00000000000E+00  0.00000000000E+00  0.36563118782E+03  0.36563118782E+03  0.00000000000E+00 0.  1.
         -3   -1    0    0    0  501 -0.00000000000E+00 -0.00000000000E+00 -0.10180836162E+03  0.10180836162E+03  0.00000000000E+00 0.  1.
         23    2    1    2    0    0 -0.36855882196E+02  0.56520927332E+01 -0.38718839463E+02  0.10430790531E+03  0.89390650387E+02 0.  0.
         23    2    1    2    0    0  0.67810138028E+02  0.56720120042E+02  0.16304709425E+03  0.20722399732E+03  0.92423175050E+02 0.  0.
        -11    1    3    3    0    0 -0.99312121213E+01 -0.38822790914E+02 -0.33174959303E+02  0.52023225518E+02  0.00000000000E+00 0. -1.
         11    1    3    3    0    0 -0.26924670075E+02  0.44474883647E+02 -0.55438801602E+01  0.52284679795E+02  0.00000000000E+00 0.  1.
        -13    1    4    4    0    0  0.59759510546E+02 -0.21020333659E+01  0.11939844149E+03  0.13353503463E+03  0.00000000000E+00 0. -1.
         13    1    4    4    0    0  0.80506274817E+01  0.58822153408E+02  0.43648652766E+02  0.73688962693E+02  0.00000000000E+00 0.  1.
         -3    1    1    2    0  502 -0.30954255832E+02 -0.62372212775E+02  0.13949457141E+03  0.15590764681E+03  0.00000000000E+00 0.  1.
<scales pt_clust_5="13000.00000" pt_clust_6="13000.00000" pt_clust_7="13000.00000" pt_clust_8="13000.00000" pt_clust_9="69.63088"></scales>
<clustering>
<clus scale="   69.631">  1  9  2 -1</clus>
<clus scale="   89.391">  5  6 -1 -1</clus>
<clus scale="   92.423">  7  8 -1 -1</clus>
<clus scale="   98.631">  2  5  1 -1</clus>
<clus scale="   69.631">  1  5  2 -1</clus>
</clustering>
</event>
<event>
 9    1  0.1399746E-005  0.1026301E+03  0.7546771E-02  0.1279412E+00
         21   -1    0    0  501  502  0.00000000000E+00  0.00000000000E+00  0.92131145716E+02  0.92131145716E+02  0.00000000000E+00 0.  1.
          1   -1    0    0  502    0 -0.00000000000E+00 -0.00000000000E+00 -0.29178740251E+03  0.29178740251E+03  0.00000000000E+00 0. -1.
         23    2    1    2    0    0 -0.17482017614E+02 -0.83076471896E+01 -0.20213123063E+03  0.22592970678E+03  0.99058366989E+02 0.  0.
         23    2    1    2    0    0  0.42270269047E+02  0.27289841537E+02 -0.35170366304E+02  0.10908124750E+03  0.90167914442E+02 0.  0.
        -13    1    4    4    0    0  0.31660415491E+02 -0.23552146312E+02 -0.40896084835E+02  0.56829352098E+02  0.00000000000E+00 0.  1.
         13    1    4    4    0    0  0.10609853556E+02  0.50841987849E+02  0.57257185310E+01  0.52251895407E+02  0.00000000000E+00 0. -1.
        -13    1    3    3    0    0 -0.52420956783E+02 -0.17606365075E+02 -0.16535914891E+03  0.17436051425E+03  0.00000000000E+00 0. -1.
         13    1    3    3    0    0  0.34938939170E+02  0.92987178853E+01 -0.36772081713E+02  0.51569192529E+02  0.00000000000E+00 0.  1.
          1    1    1    2  501    0 -0.24788251434E+02 -0.18982194347E+02  0.37645340133E+02  0.48907593941E+02  0.00000000000E+00 0. -1.
<scales pt_clust_5="13000.00000" pt_clust_6="13000.00000" pt_clust_7="13000.00000" pt_clust_8="13000.00000" pt_clust_9="31.22148"></scales>
<clustering>
<clus scale="   31.221">  1  9  2 -1</clus>
<clus scale="   90.168">  5  6 -1 -1</clus>
<clus scale="   94.078">  1  5  2 -1</clus>
<clus scale="   99.058">  7  8 -1 -1</clus>
<clus scale="   31.221">  1  5  2 -1</clus>
</clustering>
</event>
<event>
 9    1  0.1399746E-005  0.9372515E+02  0.7546771E-02  0.1294505E+00
         21   -1    0    0  501  502  0.00000000000E+00  0.00000000000E+00  0.71807775768E+02  0.71807775768E+02  0.00000000000E+00 0. -1.
         -1   -1    0    0    0  501 -0.00000000000E+00 -0.00000000000E+00 -0.41833374209E+03  0.41833374209E+03  0.00000000000E+00 0.  1.
         23    2    1    2    0    0 -0.52957302601E+01  0.14201023424E+02 -0.34973892517E+03  0.36201191802E+03  0.92225805424E+02 0.  0.
         23    2    1    2    0    0 -0.12807797610E+02 -0.32029608618E+02 -0.12043204212E+02  0.98492685644E+02  0.91464937817E+02 0.  0.
        -11    1    3    3    0    0 -0.31006065473E+02  0.42886948863E+02 -0.23821203539E+03  0.24401975388E+03  0.00000000000E+00 0.  1.
         11    1    3    3    0    0  0.25710335213E+02 -0.28685925439E+02 -0.11152688978E+03  0.11799216414E+03  0.00000000000E+00 0. -1.
        -11    1    4    4    0    0 -0.26002835762E+02 -0.54092269266E+02  0.14286139558E+02  0.61694528489E+02  0.00000000000E+00 0.  1.
         11    1    4    4    0    0  0.13195038152E+02  0.22062660648E+02 -0.26329343770E+02  0.36798157156E+02  0.00000000000E+00 0. -1.
         -1    1    1    2    0  502  0.18103527870E+02  0.17828585194E+02  0.15256163061E+02  0.29636914190E+02  0.00000000000E+00 0.  1.
<scales pt_clust_5="13000.00000" pt_clust_6="13000.00000" pt_clust_7="13000.00000" pt_clust_8="13000.00000" pt_clust_9="25.40858"></scales>
<clustering>
<clus scale="   25.409">  1  9  2 -1</clus>
<clus scale="   91.465">  7  8 -1 -1</clus>
<clus scale="   92.226">  5  6 -1 -1</clus>
<clus scale="   92.977">  1  7  2 -1</clus>
<clus scale="   25.409">  1  5  2 -1</clus>
</clustering>
</event>
<event>
 9    1  0.1399746E-005  0.1402975E+03  0.7546771E-02  0.1214514E+00
         -4   -1    0    0    0  501 -0.00000000000E+00  0.00000000000E+00  0.52281689694E+03  0.52281689694E+03  0.00000000000E+00 0.  1.
         21   -1    0    0  501  502  0.00000000000E+00 -0.00000000000E+00 -0.64635280830E+02  0.64635280830E+02  0.00000000000E+00 0. -1.
         23    2    1    2    0    0  0.10040713482E+03 -0.28014711360E+01  0.26347095449E+03  0.29375375394E+03  0.82370402017E+02 0.  0.
         23    2    1    2    0    0 -0.12131865748E+03  0.56379064695E+02  0.12925846355E+03  0.20656725522E+03  0.89807933616E+02 0.  0.
        -11    1    4    4    0    0 -0.81394614801E+02  0.78937433352E+02  0.10570618248E+03  0.15501612406E+03  0.00000000000E+00 0.  1.
         11    1    4    4    0    0 -0.39924042681E+02 -0.22558368657E+02  0.23552281062E+02  0.51551131158E+02  0.00000000000E+00 0. -1.
        -11    1    3    3    0    0  0.58189996155E+02 -0.20489248633E+02  0.63198877010E+02  0.88317512518E+02  0.00000000000E+00 0. -1.
         11    1    3    3    0    0  0.42217138668E+02  0.17687777497E+02  0.20027207748E+03  0.20543624142E+03  0.00000000000E+00 0.  1.
         -4    1    1    2    0  502  0.20911522659E+02 -0.53577593559E+02  0.65452198065E+02  0.87131168608E+02  0.00000000000E+00 0.  1.
<scales pt_clust_5="13000.00000" pt_clust_6="13000.00000" pt_clust_7="13000.00000" pt_clust_8="13000.00000" pt_clust_9="57.51391"></scales>
<clustering>
<clus scale="   57.514">  2  9  1 -1</clus>
<clus scale="   82.370">  7  8 -1 -1</clus>
<clus scale="   89.808">  5  6 -1 -1</clus>
<clus scale="  135.657">  1  7  2 -1</clus>
<clus scale="   57.514">  2  5  1 -1</clus>
</clustering>
</event>
<event>
 9    1  0.1399746E-005  0.1341410E+03  0.7546771E-02  0.1221965E+00
         -2   -1    0    0    0  501 -0.00000000000E+00  0.00000000000E+00  0.19549177739E+03  0.19549177739E+03  0.00000000000E+00 0.  1.
         21   -1    0    0  501  502  0.00000000000E+00 -0.00000000000E+00 -0.15880902400E+03  0.15880902400E+03  0.00000000000E+00 0.  1.
         23    2    1    2    0    0 -0.10269128928E+03 -0.14899314194E+02  0.10524268797E+03  0.17484607256E+03  0.93421813634E+02 0.  0.
         23    2    1    2    0    0  0.78347071739E+02 -0.21130065392E+02 -0.54549529768E+02  0.13377050219E+03  0.91291580904E+02 0.  0.
        -11    1    4    4    0    0  0.24154038851E+02  0.41379200858E+01  0.24500706880E+02  0.34652916372E+02  0.00000000000E+00 0. -1.
         11    1    4    4    0    0  0.54193032889E+02 -0.25267985478E+02 -0.79050236648E+02  0.99117585815E+02  0.00000000000E+00 0.  1.
        -13    1    3    3    0    0 -0.40351458176E+01  0.29762339384E+02  0.33241618881E+02  0.44800496350E+02  0.00000000000E+00 0. -1.
         13    1    3    3    0    0 -0.98656143459E+02 -0.44661653578E+02  0.72001069092E+02  0.13004557621E+03  0.00000000000E+00 0.  1.
         -2    1    1    2    0  502  0.24344217537E+02  0.36029379586E+02 -0.14010404813E+02  0.45684226642E+02  0.00000000000E+00 0.  1.
<scales pt_clust_5="13000.00000" pt_clust_6="13000.00000" pt_clust_7="13000.00000" pt_clust_8="13000.00000" pt_clust_9="43.48284"></scales>
<clustering>
<clus scale="   43.483">  2  9  1 -1</clus>
<clus scale="   91.292">  5  6 -1 -1</clus>
<clus scale="   93.422">  7  8 -1 -1</clus>
<clus scale="  132.666">  2  5  1 -1</clus>
<clus scale="   43.483">  2  5  1 -1</clus>
</clustering>
</event>
<event>
 9    1  0.1399746E-005  0.1545692E+03  0.7546771E-02  0.1195283E+00
          1   -1    0    0  502    0 -0.00000000000E+00  0.00000000000E+00  0.38658430220E+03  0.38658430220E+03  0.00000000000E+00 0. -1.
         21   -1    0    0  501  502  0.00000000000E+00 -0.00000000000E+00 -0.10620927558E+03  0.10620927558E+03  0.00000000000E+00 0. -1.
         23    2    1    2    0    0 -0.51136453542E+02  0.69697711707E+02  0.73336939936E+02  0.14512739361E+03  0.90614268849E+02 0.  0.
         23    2    1    2    0    0  0.99205010160E+02 -0.13657037332E+03  0.17224256761E+03  0.25826111074E+03  0.92402371792E+02 0.  0.
        -11    1    4    4    0    0  0.29769625449E+02 -0.54055264925E+02  0.12722130788E+03  0.14139824413E+03  0.00000000000E+00 0.  1.
         11    1    4    4    0    0  0.69435384711E+02 -0.82515108397E+02  0.45021259734E+02  0.11686286661E+03  0.00000000000E+00 0. -1.
        -13    1    3    3    0    0 -0.32772445900E+02  0.85614085961E+02  0.78020503017E+02  0.12037858537E+03  0.00000000000E+00 0. -1.
         13    1    3    3    0    0 -0.18364007642E+02 -0.15916374254E+02 -0.46835630814E+01  0.24748808238E+02  0.00000000000E+00 0.  1.
          1    1    1    2  501    0 -0.48068556618E+02  0.66872661615E+02  0.34795519079E+02  0.89405073429E+02  0.00000000000E+00 0. -1.
<scales pt_clust_5="13000.00000" pt_clust_6="13000.00000" pt_clust_7="13000.00000" pt_clust_8="13000.00000" pt_clust_9="82.35617"></scales>
<clustering>
<clus scale="   82.356">  2  9  1 -1</clus>
<clus scale="   90.614">  7  8 -1 -1</clus>
<clus scale="   92.402">  5  6 -1 -1</clus>
<clus scale="  153.507">  1  7  2 -1</clus>
<clus scale="   82.356">  2  5  1 -1</clus>
</clustering>
</event>
<event>
 9    1  0.1399746E-005  0.9296029E+02  0.7546771E-02  0.1296882E+00
         -3   -1    0    0    0  501 -0.00000000000E+00  0.00000000000E+00  0.53113262392E+02  0.53113262392E+02  0.00000000000E+00 0.  1.
         21   -1    0    0  501  502  0.00000000000E+00 -0.00000000000E+00 -0.28017137200E+03  0.28017137200E+03  0.00000000000E+00 0. -1.
         23    2    1    2    0    0 -0.51330528068E+00  0.55508974052E+01 -0.48533299678E+02  0.10135743461E+03  0.88807502099E+02 0.  0.
         23    2    1    2    0    0 -0.24053052626E+02 -0.39805615614E+02 -0.99719144957E+02  0.14255592647E+03  0.90638004871E+02 0.  0.
        -13    1    4    4    0    0  0.44304538518E+00 -0.42322698489E+02 -0.26455147319E+01  0.42407615410E+02  0.00000000000E+00 0.  1.
         13    1    4    4    0    0 -0.24496098011E+02  0.25170828746E+01 -0.97073630225E+02  0.10014831106E+03  0.00000000000E+00 0. -1.
        -13    1    3    3    0    0  0.38588689594E+01  0.31895908897E+02  0.12705096795E+02  0.34549375661E+02  0.00000000000E+00 0.  1.
         13    1    3    3    0    0 -0.43721742401E+01 -0.26345011492E+02 -0.61238396473E+02  0.66808058950E+02  0.00000000000E+00 0. -1.
         -3    1    1    2    0  502  0.24566357907E+02  0.34254718209E+02 -0.78805664969E+02  0.89371273302E+02  0.00000000000E+00 0.  1.
<scales pt_clust_5="13000.00000" pt_clust_6="13000.00000" pt_clust_7="13000.00000" pt_clust_8="13000.00000" pt_clust_9="42.15319"></scales>
<clustering>
<clus scale="   42.153">  2  9  1 -1</clus>
<clus scale="   88.808">  7  8 -1 -1</clus>
<clus scale="   90.638">  5  6 -1 -1</clus>
<clus scale="   91.176">  1  7  2 -1</clus>
<clus scale="   42.153">  2  5  1 -1</clus>
</clustering>
</event>
<event>
 9    1  0.1399746E-005  0.1412383E+03  0.7546771E-02  0.1211785E+00
         21   -1    0    0  501  502  0.00000000000E+00  0.00000000000E+00  0.68556461800E+02  0.68556461800E+02  0.00000000000E+00 0.  1.
          2   -1    0    0  502    0 -0.00000000000E+00 -0.00000000000E+00 -0.62820442405E+03  0.62820442405E+03  0.00000000000E+00 0. -1.
         23    2    1    2    0    0 -0.97579564460E+02  0.19518810359E+02 -0.40690856558E+03  0.42874312303E+03  0.91341827496E+02 0.  0.
         23    2    1    2    0    0  0.12483012822E+03 -0.37135440475E+02 -0.16851037565E+03  0.23193920048E+03  0.91861004583E+02 0.  0.
        -11    1    4    4    0    0  0.10065667975E+03 -0.60514221120E+02 -0.94846956300E+02  0.15096252268E+03  0.00000000000E+00 0.  1.
         11    1    4    4    0    0  0.24173448479E+02  0.23378780645E+02 -0.73663419354E+02  0.80976677795E+02  0.00000000000E+00 0. -1.
        -13    1    3    3    0    0 -0.37021707284E+02 -0.65205694107E+01 -0.36091652949E+02  0.52112686058E+02  0.00000000000E+00 0.  1.
         13    1    3    3    0    0 -0.60557857177E+02  0.26039379769E+02 -0.37081691263E+03  0.37663043698E+03  0.00000000000E+00 0. -1.
          2    1    1    2  501    0 -0.27250563763E+02  0.17616630116E+02  0.15770978985E+02  0.36078562336E+02  0.00000000000E+00 0. -1.
<scales pt_clust_5="13000.00000" pt_clust_6="13000.00000" pt_clust_7="13000.00000" pt_clust_8="13000.00000" pt_clust_9="32.44902"></scales>
<clustering>
<clus scale="   32.449">  1  9  2 -1</clus>
<clus scale="   91.342">  7  8 -1 -1</clus>
<clus scale="   91.861">  5  6 -1 -1</clus>
<clus scale="  140.901">  2  7  1 -1</clus>
<clus scale="   32.449">  1  5  2 -1</clus>
</clustering>
</event>
<event>
 9    1  0.1399746E-005  0.9410464E+02  0.7546771E-02  0.1320102E+00
          1   -1    0    0  502    0 -0.00000000000E+00  0.00000000000E+00  0.25833473371E+03  0.25833473371E+03  0.00000000000E+00 0. -1.
         21   -1    0    0  501  502  0.00000000000E+00 -0.00000000000E+00 -0.34504583790E+02  0.34504583790E+02  0.00000000000E+00 0.  1.
         23    2    1    2    0    0 -0.20599405602E+02  0.79832767509E+01  0.17748629203E+03  0.20161567546E+03  0.93056050393E+02 0.  0.
         23    2    1    2    0    0  0.42487081726E+01  0.63591965350E+01  0.29082890426E+02  0.63456884141E+02  0.55879072358E+02 0.  0.
        -13    1    4    4    0    0  0.18931908379E+02  0.25736763024E+02  0.18702096058E+02  0.37021163174E+02  0.00000000000E+00 0. -1.
         13    1    4    4    0    0 -0.14683200206E+02 -0.19377566489E+02  0.10380794368E+02  0.26435720967E+02  0.00000000000E+00 0.  1.
        -13    1    3    3    0    0  0.63819489310E+01  0.46320107197E+02  0.68098506543E+02  0.82605618430E+02  0.00000000000E+00 0. -1.
         13    1    3    3    0    0 -0.26981354533E+02 -0.38336830446E+02  0.10938778549E+03  0.11901005703E+03  0.00000000000E+00 0.  1.
          1    1    1    2  501    0  0.16350697430E+02 -0.14342473286E+02  0.17260967467E+02  0.27766757900E+02  0.00000000000E+00 0. -1.
<scales pt_clust_5="13000.00000" pt_clust_6="13000.00000" pt_clust_7="13000.00000" pt_clust_8="13000.00000" pt_clust_9="21.74976"></scales>
<clustering>
<clus scale="   21.750">  2  9  1 -1</clus>
<clus scale="   55.879">  5  6 -1 -1</clus>
<clus scale="   57.608">  2  5  1 -1</clus>
<clus scale="   93.056">  7  8 -1 -1</clus>
<clus scale="   21.750">  2  5  1 -1</clus>
</clustering>
</event>
<event>
 9    1  0.1399746E-005  0.1971407E+03  0.7546771E-02  0.1186895E+00
         21   -1    0    0  501  502  0.00000000000E+00  0.00000000000E+00  0.11864193645E+04  0.11864193645E+04  0.00000000000E+00 0. -1.
         -1   -1    0    0    0  501 -0.00000000000E+00 -0.00000000000E+00 -0.76650239645E+02  0.76650239645E+02  0.00000000000E+00 0.  1.
         23    2    1    2    0    0  0.32477335546E+01 -0.43226757795E+01  0.69682928942E+02  0.11305343981E+03  0.88860206885E+02 0.  0.
         23    2    1    2    0    0  0.89752733334E+02  0.14793897313E+03  0.92006645839E+03  0.94101983635E+03  0.95155407858E+02 0.  0.
        -11    1    4    4    0    0  0.99225687619E+01  0.10737356180E+03  0.48788749413E+03  0.49966163158E+03  0.00000000000E+00 0.  1.
         11    1    4    4    0    0  0.79830164572E+02  0.40565411329E+02  0.43217896426E+03  0.44135820477E+03  0.00000000000E+00 0. -1.
        -13    1    3    3    0    0 -0.37161589917E+02 -0.23339802581E+02  0.40405872593E+02  0.59652030055E+02  0.00000000000E+00 0.  1.
         13    1    3    3    0    0  0.40409323472E+02  0.19017126802E+02  0.29277056348E+02  0.53401409754E+02  0.00000000000E+00 0. -1.
         -1    1    1    2    0  502 -0.93000466889E+02 -0.14361629735E+03  0.12001973748E+03  0.20899632794E+03  0.00000000000E+00 0.  1.
<scales pt_clust_5="13000.00000" pt_clust_6="13000.00000" pt_clust_7="13000.00000" pt_clust_8="13000.00000" pt_clust_9="172.65550"></scales>
<clustering>
<clus scale="   88.860">  7  8 -1 -1</clus>
<clus scale="   89.025">  2  7  1 -1</clus>
<clus scale="   95.155">  5  6 -1 -1</clus>
<clus scale="  172.656">  1  9  2 -1</clus>
<clus scale="  172.656">  1  5  2 -1</clus>
</clustering>
</event>
<event>
 9    1  0.1399746E-005  0.1010485E+03  0.7546771E-02  0.1278154E+00
         21   -1    0    0  501  502  0.00000000000E+00  0.00000000000E+00  0.36623865185E+03  0.36623865185E+03  0.00000000000E+00 0. -1.
         -3   -1    0    0    0  501 -0.00000000000E+00 -0.00000000000E+00 -0.76709940619E+02  0.76709940619E+02  0.00000000000E+00 0.  1.
         23    2    1    2    0    0  0.32151790574E+02  0.23692175037E+02 -0.14862494477E+02  0.10002539383E+03  0.90493805725E+02 0.  0.
         23    2    1    2    0    0 -0.40254011896E+02 -0.60806742840E+02  0.19319353780E+03  0.22541550322E+03  0.90391153307E+02 0.  0.
        -13    1    3    3    0    0  0.23542983586E+02  0.52735677273E+02 -0.31165154827E+02  0.65624618924E+02  0.00000000000E+00 0.  1.
         13    1    3    3    0    0  0.86088069881E+01 -0.29043502236E+02  0.16302660350E+02  0.34400774910E+02  0.00000000000E+00 0. -1.
        -13    1    4    4    0    0 -0.63102281951E+02 -0.51472131503E+02  0.17969119492E+03  0.19728204136E+03  0.00000000000E+00 0. -1.
         13    1    4    4    0    0  0.22848270056E+02 -0.93346113364E+01  0.13502342879E+02  0.28133461866E+02  0.00000000000E+00 0.  1.
         -3    1    1    2    0  502  0.81022213219E+01  0.37114567803E+02  0.11119766790E+03  0.11750769541E+03  0.00000000000E+00 0.  1.
<scales pt_clust_5="13000.00000" pt_clust_6="13000.00000" pt_clust_7="13000.00000" pt_clust_8="13000.00000" pt_clust_9="37.98864"></scales>
<clustering>
<clus scale="   37.989">  1  9  2 -1</clus>
<clus scale="   90.391">  7  8 -1 -1</clus>
<clus scale="   90.494">  5  6 -1 -1</clus>
<clus scale="  100.957">  1  7  2 -1</clus>
<clus scale="   37.989">  1  5  2 -1</clus>
</clustering>
</event>
<event>
 9    1  0.1399746E-005  0.1495585E+03  0.7546771E-02  0.1202373E+00
         21   -1    0    0  501  502  0.00000000000E+00  0.00000000000E+00  0.10543064595E+03  0.10543064595E+03  0.00000000000E+00 0.  1.
          2   -1    0    0  502    0 -0.00000000000E+00 -0.00000000000E+00 -0.65136095934E+03  0.65136095934E+03  0.00000000000E+00 0. -1.
         23    2    1    2    0    0  0.29717013833E+02  0.10071610246E+03 -0.39757734462E+03  0.42308662349E+03  0.99537489474E+02 0.  0.
         23    2    1    2    0    0 -0.59544684504E+02 -0.11189278155E+03 -0.21119569430E+03  0.26325062605E+03  0.92906979329E+02 0.  0.
        -13    1    3    3    0    0 -0.32288770720E+01  0.45027382410E+02 -0.41964958852E+02  0.61635611340E+02  0.00000000000E+00 0.  1.
         13    1    3    3    0    0  0.32945890905E+02  0.55688720047E+02 -0.35561238577E+03  0.36145101215E+03  0.00000000000E+00 0. -1.
        -13    1    4    4    0    0 -0.14834672992E+01 -0.96637343090E+02 -0.12020447471E+03  0.15424037245E+03  0.00000000000E+00 0.  1.
         13    1    4    4    0    0 -0.58061217205E+02 -0.15255438460E+02 -0.90991219592E+02  0.10901025359E+03  0.00000000000E+00 0. -1.
          2    1    1    2  501    0  0.29827670671E+02  0.11176679093E+02  0.62842725530E+02  0.70454355758E+02  0.00000000000E+00 0. -1.
<scales pt_clust_5="13000.00000" pt_clust_6="13000.00000" pt_clust_7="13000.00000" pt_clust_8="13000.00000" pt_clust_9="31.85291"></scales>
<clustering>
<clus scale="   31.853">  1  9  2 -1</clus>
<clus scale="   92.907">  7  8 -1 -1</clus>
<clus scale="   99.537">  5  6 -1 -1</clus>
<clus scale="  145.230">  1  7  2 -1</clus>
<clus scale="   31.853">  1  5  2 -1</clus>
</clustering>
</event>
<event>
 9    1  0.1399746E-005  0.1440360E+03  0.7546771E-02  0.1208623E+00
         21   -1    0    0  501  502  0.00000000000E+00  0.00000000000E+00  0.61819484187E+03  0.61819484187E+03  0.00000000000E+00 0. -1.
         -1   -1    0    0    0  501 -0.00000000000E+00 -0.00000000000E+00 -0.10101274466E+03  0.10101274466E+03  0.00000000000E+00 0.  1.
         23    2    1    2    0    0  0.88756631764E+02  0.52751806299E+02 -0.15478946004E+02  0.14031897101E+03  0.93751389891E+02 0.  0.
         23    2    1    2    0    0 -0.13158310773E+03 -0.76946431174E+02  0.42306495798E+03  0.45876039728E+03  0.90786981095E+02 0.  0.
        -13    1    3    3    0    0  0.88212811887E+02  0.17840124709E+01 -0.13938125797E+02  0.89324992204E+02  0.00000000000E+00 0.  1.
         13    1    3    3    0    0  0.54381987700E+00  0.50967793828E+02 -0.15408202066E+01  0.50993978808E+02  0.00000000000E+00 0. -1.
        -13    1    4    4    0    0  0.11668810173E+02 -0.17724478150E+02  0.35690160003E+02  0.41522352747E+02  0.00000000000E+00 0.  1.
         13    1    4    4    0    0 -0.14325191790E+03 -0.59221953024E+02  0.38737479797E+03  0.41723804454E+03  0.00000000000E+00 0. -1.
         -1    1    1    2    0  502  0.42826475965E+02  0.24194624875E+02  0.10959608524E+03  0.12012821823E+03  0.00000000000E+00 0.  1.
<scales pt_clust_5="13000.00000" pt_clust_6="13000.00000" pt_clust_7="13000.00000" pt_clust_8="13000.00000" pt_clust_9="49.18828"></scales>
<clustering>
<clus scale="   49.188">  1  9  2 -1</clus>
<clus scale="   90.787">  7  8 -1 -1</clus>
<clus scale="   93.751">  5  6 -1 -1</clus>
<clus scale="  142.124">  1  7  2 -1</clus>
<clus scale="   49.188">  1  5  2 -1</clus>
</clustering>
</event>
<event>
 9    1  0.1399746E-005  0.1028099E+03  0.7546771E-02  0.1275236E+00
          1   -1    0    0  502    0 -0.00000000000E+00  0.00000000000E+00  0.99775327455E+02  0.99775327455E+02  0.00000000000E+00 0. -1.
         21   -1    0    0  501  502  0.00000000000E+00 -0.00000000000E+00 -0.29964470277E+03  0.29964470277E+03  0.00000000000E+00 0. -1.
         23    2    1    2    0    0 -0.17250995998E+02 -0.27474112906E+02  0.46212982613E+02  0.11153176945E+03  0.96183533372E+02 0.  0.
         23    2    1    2    0    0  0.46052301614E+02  0.16398111558E+01 -0.15504257096E+03  0.18896824681E+03  0.97710265720E+02 0.  0.
        -11    1    3    3    0    0 -0.36309295017E+02 -0.91418075534E+01 -0.18398193291E+02  0.41718473921E+02  0.00000000000E+00 0. -1.
         11    1    3    3    0    0  0.19058299019E+02 -0.18332305353E+02  0.64611175904E+02  0.69813295530E+02  0.00000000000E+00 0.  1.
        -13    1    4    4    0    0  0.59478677109E+02 -0.34860087002E+02 -0.10455006969E+03  0.12523440329E+03  0.00000000000E+00 0. -1.
         13    1    4    4    0    0 -0.13426375495E+02  0.36499898158E+02 -0.50492501274E+02  0.63733843516E+02  0.00000000000E+00 0.  1.
          1    1    1    2  501    0 -0.28801305616E+02  0.25834301751E+02 -0.91039786971E+02  0.98920013971E+02  0.00000000000E+00 0. -1.
<scales pt_clust_5="13000.00000" pt_clust_6="13000.00000" pt_clust_7="13000.00000" pt_clust_8="13000.00000" pt_clust_9="38.69013"></scales>
<clustering>
<clus scale="   38.690">  2  9  1 -1</clus>
<clus scale="   96.184">  5  6 -1 -1</clus>
<clus scale="   97.710">  7  8 -1 -1</clus>
<clus scale="  101.360">  1  5  2 -1</clus>
<clus scale="   38.690">  2  5  1 -1</clus>
</clustering>
</event>
<event>
 9    1  0.1399746E-005  0.9485755E+02  0.7546771E-02  0.1292390E+00
         21   -1    0    0  501  502  0.00000000000E+00  0.00000000000E+00  0.17757427748E+03  0.17757427748E+03  0.00000000000E+00 0. -1.
          1   -1    0    0  502    0 -0.00000000000E+00 -0.00000000000E+00 -0.80755494958E+03  0.80755494958E+03  0.00000000000E+00 0. -1.
         23    2    1    2    0    0 -0.55049568294E+02  0.20098153068E+01 -0.58500368117E+03  0.59447876822E+03  0.90228623832E+02 0.  0.
         23    2    1    2    0    0 -0.27069670743E+02  0.29852921341E+01 -0.19704780702E+03  0.21775148943E+03  0.88578743812E+02 0.  0.
        -11    1    3    3    0    0 -0.18541964469E+02 -0.43365372682E+02 -0.28470237614E+03  0.28858240240E+03  0.00000000000E+00 0. -1.
         11    1    3    3    0    0 -0.36507603825E+02  0.45375187989E+02 -0.30030130503E+03  0.30589636582E+03  0.00000000000E+00 0.  1.
        -13    1    4    4    0    0 -0.55105107681E+02  0.16734665646E+02 -0.95595357817E+02  0.11160239407E+03  0.00000000000E+00 0. -1.
         13    1    4    4    0    0  0.28035436938E+02 -0.13749373512E+02 -0.10145244920E+03  0.10614909536E+03  0.00000000000E+00 0.  1.
          1    1    1    2  501    0  0.82119239036E+02 -0.49951074410E+01  0.15207081608E+03  0.17289896941E+03  0.00000000000E+00 0. -1.
<scales pt_clust_5="13000.00000" pt_clust_6="13000.00000" pt_clust_7="13000.00000" pt_clust_8="13000.00000" pt_clust_9="82.27102"></scales>
<clustering>
<clus scale="   82.271">  1  9  2 -1</clus>
<clus scale="   88.579">  7  8 -1 -1</clus>
<clus scale="   90.229">  5  6 -1 -1</clus>
<clus scale="   93.290">  1  7  2 -1</clus>
<clus scale="   82.271">  1  5  2 -1</clus>
</clustering>
</event>
<event>
 9    1  0.1399746E-005  0.1091609E+03  0.7546771E-02  0.1266705E+00
         -1   -1    0    0    0  501 -0.00000000000E+00  0.00000000000E+00  0.25861774930E+03  0.25861774930E+03  0.00000000000E+00 0.  1.
         21   -1    0    0  501  502  0.00000000000E+00 -0.00000000000E+00 -0.69699654977E+02  0.69699654977E+02  0.00000000000E+00 0. -1.
         23    2    1    2    0    0  0.34036114392E+02  0.11632475145E+02  0.14517470341E+03  0.18067784715E+03  0.10136576532E+03 0.  0.
         23    2    1    2    0    0 -0.50239215443E+02  0.32214321507E+01  0.60040991054E+02  0.12027551475E+03  0.91251972293E+02 0.  0.
        -13    1    4    4    0    0 -0.73108360008E+02 -0.18328466082E+01  0.23390944044E+02  0.76781038629E+02  0.00000000000E+00 0. -1.
         13    1    4    4    0    0  0.22869144565E+02  0.50542787590E+01  0.36650047010E+02  0.43494476117E+02  0.00000000000E+00 0.  1.
        -13    1    3    3    0    0  0.63029867640E+02 -0.15391676299E+02  0.10987837057E+03  0.12760456196E+03  0.00000000000E+00 0.  1.
         13    1    3    3    0    0 -0.28993753248E+02  0.27024151445E+02  0.35296332840E+02  0.53073285188E+02  0.00000000000E+00 0. -1.
         -1    1    1    2    0  502  0.16203101051E+02 -0.14853907296E+02 -0.16297600135E+02  0.27364042387E+02  0.00000000000E+00 0.  1.
<scales pt_clust_5="13000.00000" pt_clust_6="13000.00000" pt_clust_7="13000.00000" pt_clust_8="13000.00000" pt_clust_9="21.98133"></scales>
<clustering>
<clus scale="   21.981">  2  9  1 -1</clus>
<clus scale="   91.252">  5  6 -1 -1</clus>
<clus scale="   99.840">  2  5  1 -1</clus>
<clus scale="  101.366">  7  8 -1 -1</clus>
<clus scale="   21.981">  2  5  1 -1</clus>
</clustering>
</event>
<event>
 9    1  0.1399746E-005  0.9980482E+02  0.7546771E-02  0.1289116E+00
         -1   -1    0    0    0  501 -0.00000000000E+00  0.00000000000E+00  0.42805975188E+02  0.42805975188E+02  0.00000000000E+00 0.  1.
         21   -1    0    0  501  502  0.00000000000E+00 -0.00000000000E+00 -0.26997397763E+03  0.26997397763E+03  0.00000000000E+00 0. -1.
         23    2    1    2    0    0 -0.95271990329E+01 -0.13153439266E+02 -0.71198593235E+02  0.12329917480E+03  0.99346194399E+02 0.  0.
         23    2    1    2    0    0  0.74116812872E+01 -0.89118323231E+01 -0.12539925389E+03  0.15171987202E+03  0.84614377711E+02 0.  0.
        -13    1    3    3    0    0  0.21193966747E+02 -0.47018728849E+02 -0.53383205443E+02  0.74227432344E+02  0.00000000000E+00 0.  1.
         13    1    3    3    0    0 -0.30721165780E+02  0.33865289583E+02 -0.17815387792E+02  0.49071742455E+02  0.00000000000E+00 0. -1.
        -13    1    4    4    0    0 -0.17309461926E+02  0.10587929598E+02  0.20916851553E+01  0.20398452690E+02  0.00000000000E+00 0.  1.
         13    1    4    4    0    0  0.24721143214E+02 -0.19499761921E+02 -0.12749093905E+03  0.13132141934E+03  0.00000000000E+00 0. -1.
         -1    1    1    2    0  502  0.21155177457E+01  0.22065271589E+02 -0.30570155316E+02  0.37760905997E+02  0.00000000000E+00 0.  1.
<scales pt_clust_5="13000.00000" pt_clust_6="13000.00000" pt_clust_7="13000.00000" pt_clust_8="13000.00000" pt_clust_9="22.16645"></scales>
<clustering>
<clus scale="   22.166">  2  9  1 -1</clus>
<clus scale="   84.614">  7  8 -1 -1</clus>
<clus scale="   85.152">  2  7  1 -1</clus>
<clus scale="   99.346">  5  6 -1 -1</clus>
<clus scale="   22.166">  2  5  1 -1</clus>
</clustering>
</event>
<event>
 9    1  0.1399746E-005  0.1289512E+03  0.7546771E-02  0.1230424E+00
          2   -1    0    0  502    0 -0.00000000000E+00  0.00000000000E+00  0.21928560018E+03  0.21928560018E+03  0.00000000000E+00 0. -1.
         21   -1    0    0  501  502  0.00000000000E+00 -0.00000000000E+00 -0.12498294953E+03  0.12498294953E+03  0.00000000000E+00 0.  1.
         23    2    1    2    0    0  0.57657152089E+02  0.59134868925E+01  0.27959789419E+02  0.11561257327E+03  0.96047908664E+02 0.  0.
         23    2    1    2    0    0 -0.12272451205E+03  0.47815767434E+01  0.46434664204E+02  0.15977577590E+03  0.91038185338E+02 0.  0.
        -13    1    4    4    0    0 -0.54313314946E+02 -0.31176678279E+02  0.53231215378E+02  0.82191749827E+02  0.00000000000E+00 0.  1.
         13    1    4    4    0    0 -0.68411197105E+02  0.35958255022E+02 -0.67965511738E+01  0.77584026071E+02  0.00000000000E+00 0. -1.
        -13    1    3    3    0    0  0.26863298646E+02 -0.18036548309E+02 -0.31068776017E+02  0.44857805700E+02  0.00000000000E+00 0.  1.
         13    1    3    3    0    0  0.30793853443E+02  0.23950035201E+02  0.59028565436E+02  0.70754767567E+02  0.00000000000E+00 0. -1.
          2    1    1    2  501    0  0.65067359963E+02 -0.10695063636E+02  0.19908197017E+02  0.68880200545E+02  0.00000000000E+00 0. -1.
<scales pt_clust_5="13000.00000" pt_clust_6="13000.00000" pt_clust_7="13000.00000" pt_clust_8="13000.00000" pt_clust_9="65.94050"></scales>
<clustering>
<clus scale="   65.941">  2  9  1 -1</clus>
<clus scale="   91.038">  5  6 -1 -1</clus>
<clus scale="   96.048">  7  8 -1 -1</clus>
<clus scale="  125.264">  2  5  1 -1</clus>
<clus scale="   65.941">  2  5  1 -1</clus>
</clustering>
</event>
<event>
 9    1  0.1399746E-005  0.2677036E+03  0.7546771E-02  0.1102638E+00
         21   -1    0    0  501  502  0.00000000000E+00  0.00000000000E+00  0.10815767473E+03  0.10815767473E+03  0.00000000000E+00 0. -1.
          1   -1    0    0  502    0 -0.00000000000E+00 -0.00000000000E+00 -0.94168745941E+03  0.94168745941E+03  0.00000000000E+00 0. -1.
         23    2    1    2    0    0 -0.17594230424E+03  0.19679843788E+03 -0.64330124605E+03  0.70116635832E+03  0.90069136241E+02 0.  0.
         23    2    1    2    0    0  0.15813442191E+03 -0.16397106007E+03 -0.19239970211E+03  0.31126926689E+03  0.89319131234E+02 0.  0.
        -11    1    3    3    0    0 -0.96213175354E+01  0.17792322699E+02 -0.10420404820E+02  0.22753490606E+02  0.00000000000E+00 0.  1.
         11    1    3    3    0    0 -0.16632098670E+03  0.17900611518E+03 -0.63288084123E+03  0.67841286772E+03  0.00000000000E+00 0. -1.
        -13    1    4    4    0    0  0.40445635584E+02 -0.44927281902E+01 -0.61493961002E+02  0.73739685950E+02  0.00000000000E+00 0.  1.
         13    1    4    4    0    0  0.11768878633E+03 -0.15947833188E+03 -0.13090574111E+03  0.23752958094E+03  0.00000000000E+00 0. -1.
          1    1    1    2  501    0  0.17807882328E+02 -0.32827377814E+02  0.21711634834E+01  0.37409508925E+02  0.00000000000E+00 0. -1.
<scales pt_clust_5="13000.00000" pt_clust_6="13000.00000" pt_clust_7="13000.00000" pt_clust_8="13000.00000" pt_clust_9="37.34645"></scales>
<clustering>
<clus scale="   37.346">  1  9  2 -1</clus>
<clus scale="   89.319">  7  8 -1 -1</clus>
<clus scale="   90.069">  5  6 -1 -1</clus>
<clus scale="  267.452">  1  7  2 -1</clus>
<clus scale="   37.346">  1  5  2 -1</clus>
</clustering>
</event>
<event>
 9    1  0.1399746E-005  0.9397971E+02  0.7546771E-02  0.1296235E+00
         21   -1    0    0  501  502  0.00000000000E+00  0.00000000000E+00  0.17667281886E+03  0.17667281886E+03  0.00000000000E+00 0. -1.
         -3   -1    0    0    0  501 -0.00000000000E+00 -0.00000000000E+00 -0.92328226479E+02  0.92328226479E+02  0.00000000000E+00 0.  1.
         23    2    1    2    0    0  0.15009752130E+02  0.11141534153E+02 -0.34236582802E+02  0.98934768563E+02  0.90920395877E+02 0.  0.
         23    2    1    2    0    0 -0.38488409224E+02 -0.13251174579E+02  0.77801847036E+02  0.12296371288E+03  0.86081333694E+02 0.  0.
        -11    1    3    3    0    0 -0.29850623396E+02 -0.96792150104E+01  0.96320634813E+01  0.32825654102E+02  0.00000000000E+00 0. -1.
         11    1    3    3    0    0  0.44860375526E+02  0.20820749164E+02 -0.43868646283E+02  0.66109114461E+02  0.00000000000E+00 0.  1.
        -13    1    4    4    0    0 -0.56655241300E+02  0.79013007626E+01  0.23345406395E+02  0.61783937397E+02  0.00000000000E+00 0.  1.
         13    1    4    4    0    0  0.18166832076E+02 -0.21152475342E+02  0.54456440642E+02  0.61179775483E+02  0.00000000000E+00 0. -1.
         -3    1    1    2    0  502  0.23478657093E+02  0.21096404258E+01  0.40779328150E+02  0.47102563900E+02  0.00000000000E+00 0.  1.
<scales pt_clust_5="13000.00000" pt_clust_6="13000.00000" pt_clust_7="13000.00000" pt_clust_8="13000.00000" pt_clust_9="23.57325"></scales>
<clustering>
<clus scale="   23.573">  1  9  2 -1</clus>
<clus scale="   86.081">  7  8 -1 -1</clus>
<clus scale="   89.307">  1  7  2 -1</clus>
<clus scale="   90.920">  5  6 -1 -1</clus>
<clus scale="   23.573">  1  5  2 -1</clus>
</clustering>
</event>
<event>
 9    1  0.1399746E-005  0.9355796E+02  0.7546771E-02  0.1295235E+00
         -3   -1    0    0    0  501 -0.00000000000E+00  0.00000000000E+00  0.39093431763E+03  0.39093431763E+03  0.00000000000E+00 0. -1.
         21   -1    0    0  501  502  0.00000000000E+00 -0.00000000000E+00 -0.36052355551E+02  0.36052355551E+02  0.00000000000E+00 0. -1.
         23    2    1    2    0    0 -0.13217170390E+02  0.15452865849E+02  0.23787723724E+03  0.25493793768E+03  0.89410779071E+02 0.  0.
         23    2    1    2    0    0  0.25749146207E+02 -0.38755241397E+02  0.89168754338E+02  0.13364440791E+03  0.88004396193E+02 0.  0.
        -11    1    4    4    0    0  0.45442041051E+02 -0.42404996033E+02  0.25994199417E+02  0.67371070845E+02  0.00000000000E+00 0. -1.
         11    1    4    4    0    0 -0.19692894844E+02  0.36497546363E+01  0.63174554921E+02  0.66273337065E+02  0.00000000000E+00 0.  1.
        -11    1    3    3    0    0 -0.29832372325E+02 -0.28910097825E+02  0.80522924648E+02  0.90607425682E+02  0.00000000000E+00 0. -1.
         11    1    3    3    0    0  0.16615201935E+02  0.44362963674E+02  0.15735431259E+03  0.16433051200E+03  0.00000000000E+00 0.  1.
         -3    1    1    2    0  502 -0.12531975818E+02  0.23302375549E+02  0.27835970499E+02  0.38404327591E+02  0.00000000000E+00 0. -1.
<scales pt_clust_5="13000.00000" pt_clust_6="13000.00000" pt_clust_7="13000.00000" pt_clust_8="13000.00000" pt_clust_9="26.45848"></scales>
<clustering>
<clus scale="   26.458">  2  9  1 -1</clus>
<clus scale="   88.004">  5  6 -1 -1</clus>
<clus scale="   89.411">  7  8 -1 -1</clus>
<clus scale="   92.215">  2  5  1 -1</clus>
<clus scale="   26.458">  2  5  1 -1</clus>
</clustering>
</event>
<event>
 9    1  0.1399746E-005  0.1113427E+03  0.7546771E-02  0.1258853E+00
          3   -1    0    0  502    0 -0.00000000000E+00  0.00000000000E+00  0.73082550592E+02  0.73082550592E+02  0.00000000000E+00 0. -1.
         21   -1    0    0  501  502  0.00000000000E+00 -0.00000000000E+00 -0.23595058254E+03  0.23595058254E+03  0.00000000000E+00 0.  1.
         23    2    1    2    0    0  0.46839057181E+02 -0.66963529009E+01 -0.44586556017E+02  0.11238592122E+03  0.91672765264E+02 0.  0.
         23    2    1    2    0    0 -0.79461579439E+02  0.14225918739E+02 -0.92904371071E+02  0.15463625178E+03  0.93619596395E+02 0.  0.
        -11    1    4    4    0    0  0.21876550957E+01 -0.27715552644E+02 -0.39929766152E+02  0.48655153048E+02  0.00000000000E+00 0. -1.
         11    1    4    4    0    0 -0.81649234535E+02  0.41941471383E+02 -0.52974604919E+02  0.10598109873E+03  0.00000000000E+00 0.  1.
        -13    1    3    3    0    0  0.40220098309E+02  0.38617730590E+02 -0.14570317342E+02  0.57630543736E+02  0.00000000000E+00 0.  1.
         13    1    3    3    0    0  0.66189588727E+01 -0.45314083491E+02 -0.30016238675E+02  0.54755377484E+02  0.00000000000E+00 0. -1.
          3    1    1    2  501    0  0.32622522258E+02 -0.75295658378E+01 -0.25377104858E+02  0.42010960131E+02  0.00000000000E+00 0. -1.
<scales pt_clust_5="13000.00000" pt_clust_6="13000.00000" pt_clust_7="13000.00000" pt_clust_8="13000.00000" pt_clust_9="33.48019"></scales>
<clustering>
<clus scale="   33.480">  2  9  1 -1</clus>
<clus scale="   91.673">  7  8 -1 -1</clus>
<clus scale="   93.620">  5  6 -1 -1</clus>
<clus scale="  109.711">  1  7  2 -1</clus>
<clus scale="   33.480">  2  5  1 -1</clus>
</clustering>
</event>
<event>
 9    1  0.1399746E-005  0.9645696E+02  0.7546771E-02  0.1288443E+00
         -3   -1    0    0    0  501 -0.00000000000E+00  0.00000000000E+00  0.69486539944E+03  0.69486539944E+03  0.00000000000E+00 0.  1.
         21   -1    0    0  501  502  0.00000000000E+00 -0.00000000000E+00 -0.23882537180E+02  0.23882537180E+02  0.00000000000E+00 0. -1.
         23    2    1    2    0    0 -0.98147055781E+01 -0.21004691700E+02  0.44143138767E+03  0.45129413694E+03  0.90924157940E+02 0.  0.
         23    2    1    2    0    0  0.31656780421E+02  0.39417703345E+02  0.15087808624E+03  0.18375423418E+03  0.91899480879E+02 0.  0.
        -13    1    4    4    0    0 -0.12281270016E+02 -0.24319588090E+02  0.34110088757E+02  0.43655126996E+02  0.00000000000E+00 0.  1.
         13    1    4    4    0    0  0.43938050437E+02  0.63737291436E+02  0.11676799749E+03  0.14009910718E+03  0.00000000000E+00 0. -1.
        -13    1    3    3    0    0 -0.47398868850E+02 -0.27328446806E+02  0.29181236090E+03  0.29689720569E+03  0.00000000000E+00 0.  1.
         13    1    3    3    0    0  0.37584163272E+02  0.63237551055E+01  0.14961902677E+03  0.15439693125E+03  0.00000000000E+00 0. -1.
         -3    1    1    2    0  502 -0.21842074843E+02 -0.18413011645E+02  0.78673388348E+02  0.83699565504E+02  0.00000000000E+00 0.  1.
<scales pt_clust_5="13000.00000" pt_clust_6="13000.00000" pt_clust_7="13000.00000" pt_clust_8="13000.00000" pt_clust_9="28.56774"></scales>
<clustering>
<clus scale="   28.568">  2  9  1 -1</clus>
<clus scale="   90.924">  7  8 -1 -1</clus>
<clus scale="   91.899">  5  6 -1 -1</clus>
<clus scale="   95.528">  1  7  2 -1</clus>
<clus scale="   28.568">  2  5  1 -1</clus>
</clustering>
</event>
<event>
 9    1  0.1399746E-005  0.1134696E+03  0.7546771E-02  0.1261302E+00
          1   -1    0    0  502    0 -0.00000000000E+00  0.00000000000E+00  0.48380054536E+03  0.48380054536E+03  0.00000000000E+00 0. -1.
         21   -1    0    0  501  502  0.00000000000E+00 -0.00000000000E+00 -0.76046974677E+02  0.76046974677E+02  0.00000000000E+00 0.  1.
         23    2    1    2    0    0  0.32296597167E+02 -0.51636834221E+01  0.38117953268E+03  0.39723649315E+03  0.10690772440E+03 0.  0.
         23    2    1    2    0    0 -0.72305359224E+02 -0.11760737265E+02  0.20705842927E+02  0.11877527926E+03  0.91172666507E+02 0.  0.
        -11    1    4    4    0    0 -0.40827212754E+02 -0.49809994273E+02 -0.19726622043E+01  0.64434371471E+02  0.00000000000E+00 0.  1.
         11    1    4    4    0    0 -0.31478146470E+02  0.38049257009E+02  0.22678505131E+02  0.54340907787E+02  0.00000000000E+00 0. -1.
        -13    1    3    3    0    0 -0.31186453805E+02  0.24322240437E+02  0.17790297914E+03  0.18224608711E+03  0.00000000000E+00 0.  1.
         13    1    3    3    0    0  0.63483050972E+02 -0.29485923860E+02  0.20327655355E+03  0.21499040604E+03  0.00000000000E+00 0. -1.
          1    1    1    2  501    0  0.40008762057E+02  0.16924420687E+02  0.58681950716E+01  0.43835747630E+02  0.00000000000E+00 0. -1.
<scales pt_clust_5="13000.00000" pt_clust_6="13000.00000" pt_clust_7="13000.00000" pt_clust_8="13000.00000" pt_clust_9="43.44119"></scales>
<clustering>
<clus scale="   43.441">  2  9  1 -1</clus>
<clus scale="   91.173">  5  6 -1 -1</clus>
<clus scale="   98.785">  2  5  1 -1</clus>
<clus scale="  106.908">  7  8 -1 -1</clus>
<clus scale="   43.441">  2  5  1 -1</clus>
</clustering>
</event>
<event>
 9    1  0.1399746E-005  0.1033906E+03  0.7546771E-02  0.1275159E+00
         -2   -1    0    0    0  501 -0.00000000000E+00  0.00000000000E+00  0.70869666933E+03  0.70869666933E+03  0.00000000000E+00 0.  1.
         21   -1    0    0  501  502  0.00000000000E+00 -0.00000000000E+00 -0.26834799153E+02  0.26834799153E+02  0.00000000000E+00 0.  1.
         23    2    1    2    0    0 -0.28506114069E+02 -0.31783156270E+02  0.37459350461E+03  0.38896608509E+03  0.95663755394E+02 0.  0.
         23    2    1    2    0    0  0.75720492841E+01  0.37650149114E+02  0.30912942822E+03  0.32474520402E+03  0.91780033126E+02 0.  0.
        -13    1    3    3    0    0 -0.22813466980E+02  0.32394495721E+02  0.16516225469E+03  0.16984824992E+03  0.00000000000E+00 0.  1.
         13    1    3    3    0    0 -0.56926470889E+01 -0.64177651991E+02  0.20943124992E+03  0.21911783517E+03  0.00000000000E+00 0. -1.
        -13    1    4    4    0    0  0.14103175438E+02 -0.28966877069E+02  0.88299486598E+02  0.93993504339E+02  0.00000000000E+00 0. -1.
         13    1    4    4    0    0 -0.65311261535E+01  0.66617026183E+02  0.22082994162E+03  0.23075169968E+03  0.00000000000E+00 0.  1.
         -2    1    1    2    0  502  0.20934064785E+02 -0.58669928441E+01 -0.18610626570E+01  0.21820179368E+02  0.00000000000E+00 0.  1.
<scales pt_clust_5="13000.00000" pt_clust_6="13000.00000" pt_clust_7="13000.00000" pt_clust_8="13000.00000" pt_clust_9="21.74067"></scales>
<clustering>
<clus scale="   21.741">  2  9  1 -1</clus>
<clus scale="   91.780">  7  8 -1 -1</clus>
<clus scale="   95.664">  5  6 -1 -1</clus>
<clus scale="   99.808">  2  7  1 -1</clus>
<clus scale="   21.741">  2  5  1 -1</clus>
</clustering>
</event>
<event>
 9    1  0.1399746E-005  0.1140209E+03  0.7546771E-02  0.1254617E+00
         21   -1    0    0  501  502  0.00000000000E+00  0.00000000000E+00  0.17478509026E+03  0.17478509026E+03  0.00000000000E+00 0. -1.
         -3   -1    0    0    0  501 -0.00000000000E+00 -0.00000000000E+00 -0.15000419990E+03  0.15000419990E+03  0.00000000000E+00 0.  1.
         23    2    1    2    0    0  0.68680169507E+02  0.46351004386E+02 -0.15242052591E+02  0.12521192820E+03  0.92630046447E+02 0.  0.
         23    2    1    2    0    0 -0.15713899924E+02 -0.14268750216E+02  0.79152615208E+02  0.12632554972E+03  0.96137839238E+02 0.  0.
        -13    1    4    4    0    0 -0.52331919690E+02 -0.27069728165E+02  0.40022155644E+02  0.71226209669E+02  0.00000000000E+00 0.  1.
         13    1    4    4    0    0  0.36618019766E+02  0.12800977949E+02  0.39130459564E+02  0.55099340048E+02  0.00000000000E+00 0. -1.
        -13    1    3    3    0    0  0.64498548255E+02  0.70462833142E+02 -0.25197533354E+02  0.98792657969E+02  0.00000000000E+00 0. -1.
         13    1    3    3    0    0  0.41816212517E+01 -0.24111828755E+02  0.99554807639E+01  0.26419270229E+02  0.00000000000E+00 0.  1.
         -3    1    1    2    0  502 -0.52966269582E+02 -0.32082254171E+02 -0.39129672255E+02  0.73251812244E+02  0.00000000000E+00 0.  1.
<scales pt_clust_5="13000.00000" pt_clust_6="13000.00000" pt_clust_7="13000.00000" pt_clust_8="13000.00000" pt_clust_9="61.92496"></scales>
<clustering>
<clus scale="   61.925">  1  9  2 -1</clus>
<clus scale="   92.630">  7  8 -1 -1</clus>
<clus scale="   96.138">  5  6 -1 -1</clus>
<clus scale="  111.079">  2  7  1 -1</clus>
<clus scale="   61.925">  1  5  2 -1</clus>
</clustering>
</event>
<event>
 9    1  0.1399746E-005  0.1194517E+03  0.7546771E-02  0.1246839E+00
          1   -1    0    0  502    0 -0.00000000000E+00  0.00000000000E+00  0.66557638013E+03  0.66557638013E+03  0.00000000000E+00 0. -1.
         21   -1    0    0  501  502  0.00000000000E+00 -0.00000000000E+00 -0.12844542083E+03  0.12844542083E+03  0.00000000000E+00 0. -1.
         23    2    1    2    0    0  0.73797120207E+02 -0.25732516323E+02  0.42605161415E+03  0.44421894294E+03  0.98500324858E+02 0.  0.
         23    2    1    2    0    0 -0.54447334906E+02 -0.65875815600E+02  0.19017845677E+03  0.22723381574E+03  0.90350574093E+02 0.  0.
        -11    1    3    3    0    0 -0.53771364268E+01  0.28354030192E+02  0.76771555207E+02  0.82016683139E+02  0.00000000000E+00 0.  1.
         11    1    3    3    0    0  0.79174256634E+02 -0.54086546515E+02  0.34928005894E+03  0.36220225980E+03  0.00000000000E+00 0. -1.
        -11    1    4    4    0    0  0.16033115556E+02 -0.16084110854E+02  0.54674740615E+01  0.23359209940E+02  0.00000000000E+00 0. -1.
         11    1    4    4    0    0 -0.70480450461E+02 -0.49791704746E+02  0.18471098271E+03  0.20387460580E+03  0.00000000000E+00 0.  1.
          1    1    1    2  501    0 -0.19349785301E+02  0.91608331923E+02 -0.79099111617E+02  0.12256904229E+03  0.00000000000E+00 0. -1.
<scales pt_clust_5="13000.00000" pt_clust_6="13000.00000" pt_clust_7="13000.00000" pt_clust_8="13000.00000" pt_clust_9="93.62959"></scales>
<clustering>
<clus scale="   90.351">  7  8 -1 -1</clus>
<clus scale="   93.630">  2  9  1 -1</clus>
<clus scale="   98.500">  5  6 -1 -1</clus>
<clus scale="  112.826">  2  7  1 -1</clus>
<clus scale="   93.630">  2  5  1 -1</clus>
</clustering>
</event>
<event>
 9    1  0.1399746E-005  0.1592490E+03  0.7546771E-02  0.1193450E+00
          2   -1    0    0  502    0 -0.00000000000E+00  0.00000000000E+00  0.28257949865E+03  0.28257949865E+03  0.00000000000E+00 0. -1.
         21   -1    0    0  501  502  0.00000000000E+00 -0.00000000000E+00 -0.21859244810E+03  0.21859244810E+03  0.00000000000E+00 0. -1.
         23    2    1    2    0    0 -0.13412798705E+02  0.10776127071E+03  0.15522472398E+03  0.21914801967E+03  0.11017597269E+03 0.  0.
         23    2    1    2    0    0 -0.33462878425E+02 -0.13185256159E+03  0.14531559184E+02  0.16385096075E+03  0.90172661572E+02 0.  0.
        -11    1    3    3    0    0 -0.45150293324E+02  0.70858086513E+02  0.37988434168E+02  0.92209210722E+02  0.00000000000E+00 0.  1.
         11    1    3    3    0    0  0.31737494618E+02  0.36903184197E+02  0.11723628981E+03  0.12693880895E+03  0.00000000000E+00 0. -1.
        -11    1    4    4    0    0 -0.43110775284E+02 -0.10080735320E+03  0.45729440591E+02  0.11879327903E+03  0.00000000000E+00 0.  1.
         11    1    4    4    0    0  0.96478968590E+01 -0.31045208389E+02 -0.31197881408E+02  0.45057681721E+02  0.00000000000E+00 0. -1.
          2    1    1    2  501    0  0.46875677130E+02  0.24091290883E+02 -0.10576923262E+03  0.11817296633E+03  0.00000000000E+00 0. -1.
<scales pt_clust_5="13000.00000" pt_clust_6="13000.00000" pt_clust_7="13000.00000" pt_clust_8="13000.00000" pt_clust_9="52.70407"></scales>
<clustering>
<clus scale="   52.704">  2  9  1 -1</clus>
<clus scale="   90.173">  7  8 -1 -1</clus>
<clus scale="  110.176">  5  6 -1 -1</clus>
<clus scale="  146.125">  2  7  1 -1</clus>
<clus scale="   52.704">  2  5  1 -1</clus>
</clustering>
</event>
<event>
 9    1  0.1399746E-005  0.9803345E+02  0.7546771E-02  0.1288509E+00
         -1   -1    0    0    0  501 -0.00000000000E+00  0.00000000000E+00  0.52338159158E+03  0.52338159158E+03  0.00000000000E+00 0.  1.
         21   -1    0    0  501  502  0.00000000000E+00 -0.00000000000E+00 -0.50969905829E+02  0.50969905829E+02  0.00000000000E+00 0. -1.
         23    2    1    2    0    0 -0.11212704355E+01  0.20247412766E+01  0.41804581706E+03  0.42938258597E+03  0.97988484769E+02 0.  0.
         23    2    1    2    0    0 -0.32816767296E+01  0.24259323221E+02  0.66981728429E+02  0.11548335723E+03  0.90832646606E+02 0.  0.
        -11    1    4    4    0    0  0.19207929287E+02  0.22744827830E+02  0.82771587155E+02  0.87962533960E+02  0.00000000000E+00 0.  1.
         11    1    4    4    0    0 -0.22489606016E+02  0.15144953909E+01 -0.15789858726E+02  0.27520823274E+02  0.00000000000E+00 0. -1.
        -13    1    3    3    0    0  0.39117858854E+02  0.29291623215E+02  0.23206745224E+03  0.23715713875E+03  0.00000000000E+00 0.  1.
         13    1    3    3    0    0 -0.40239129289E+02 -0.27266881939E+02  0.18597836482E+03  0.19222544722E+03  0.00000000000E+00 0. -1.
         -1    1    1    2    0  502  0.44029471651E+01 -0.26284064497E+02 -0.12615859735E+02  0.29485554210E+02  0.00000000000E+00 0.  1.
<scales pt_clust_5="13000.00000" pt_clust_6="13000.00000" pt_clust_7="13000.00000" pt_clust_8="13000.00000" pt_clust_9="26.65029"></scales>
<clustering>
<clus scale="   26.650">  2  9  1 -1</clus>
<clus scale="   90.833">  5  6 -1 -1</clus>
<clus scale="   90.881">  2  5  1 -1</clus>
<clus scale="   97.988">  7  8 -1 -1</clus>
<clus scale="   26.650">  2  5  1 -1</clus>
</clustering>
</event>
<event>
 9    1  0.1399746E-005  0.1117203E+03  0.7546771E-02  0.1259220E+00
         21   -1    0    0  501  502  0.00000000000E+00  0.00000000000E+00  0.27405410525E+02  0.27405410525E+02  0.00000000000E+00 0. -1.
          1   -1    0    0  502    0 -0.00000000000E+00 -0.00000000000E+00 -0.59120625372E+03  0.59120625372E+03  0.00000000000E+00 0. -1.
         23    2    1    2    0    0  0.41264573035E+02 -0.30522115282E+02 -0.27458961207E+03  0.29405278295E+03  0.91832562833E+02 0.  0.
         23    2    1    2    0    0 -0.63963578205E+02  0.20064310949E+02 -0.19999685003E+03  0.23190999408E+03  0.96382516163E+02 0.  0.
        -11    1    4    4    0    0 -0.25839015707E+00 -0.29487932797E+02 -0.23058651985E+02  0.37434027001E+02  0.00000000000E+00 0.  1.
         11    1    4    4    0    0 -0.63705188048E+02  0.49552243746E+02 -0.17693819804E+03  0.19447596708E+03  0.00000000000E+00 0. -1.
        -11    1    3    3    0    0 -0.42675178017E+01 -0.53708170500E+02 -0.13121445633E+03  0.14184503106E+03  0.00000000000E+00 0.  1.
         11    1    3    3    0    0  0.45532090836E+02  0.23186055218E+02 -0.14337515574E+03  0.15220775189E+03  0.00000000000E+00 0. -1.
          1    1    1    2  501    0  0.22699005171E+02  0.10457804333E+02 -0.89214381100E+02  0.92648887215E+02  0.00000000000E+00 0. -1.
<scales pt_clust_5="13000.00000" pt_clust_6="13000.00000" pt_clust_7="13000.00000" pt_clust_8="13000.00000" pt_clust_9="24.99222"></scales>
<clustering>
<clus scale="   24.992">  1  9  2 -1</clus>
<clus scale="   91.833">  7  8 -1 -1</clus>
<clus scale="   96.383">  5  6 -1 -1</clus>
<clus scale="  107.820">  2  7  1 -1</clus>
<clus scale="   24.992">  1  5  2 -1</clus>
</clustering>
</event>
<event>
 9    1  0.1399746E-005  0.9946722E+02  0.7546771E-02  0.1281502E+00
         21   -1    0    0  501  502  0.00000000000E+00  0.00000000000E+00  0.29829733142E+03  0.29829733142E+03  0.00000000000E+00 0. -1.
          2   -1    0    0  502    0 -0.00000000000E+00 -0.00000000000E+00 -0.15544356294E+03  0.15544356294E+03  0.00000000000E+00 0. -1.
         23    2    1    2    0    0  0.24100774767E+02  0.55471259241E+01 -0.57692835899E+02  0.11070439226E+03  0.91188712027E+02 0.  0.
         23    2    1    2    0    0 -0.50085538463E+02 -0.52989630850E+02 -0.17901417817E+02  0.11799086757E+03  0.91021546511E+02 0.  0.
        -11    1    4    4    0    0  0.18973131160E+02  0.74315327359E+01 -0.16501950716E+02  0.26220636191E+02  0.00000000000E+00 0. -1.
         11    1    4    4    0    0 -0.69058669623E+02 -0.60421163586E+02 -0.13994671013E+01  0.91770231379E+02  0.00000000000E+00 0.  1.
        -11    1    3    3    0    0 -0.33954212991E+02  0.70878770954E+01 -0.11645492864E+02  0.36588851930E+02  0.00000000000E+00 0.  1.
         11    1    3    3    0    0  0.58054987758E+02 -0.15407511714E+01 -0.46047343035E+02  0.74115540329E+02  0.00000000000E+00 0. -1.
          2    1    1    2  501    0  0.25984763697E+02  0.47442504926E+02  0.21844802220E+03  0.22504563453E+03  0.00000000000E+00 0. -1.
<scales pt_clust_5="13000.00000" pt_clust_6="13000.00000" pt_clust_7="13000.00000" pt_clust_8="13000.00000" pt_clust_9="54.09251"></scales>
<clustering>
<clus scale="   54.093">  1  9  2 -1</clus>
<clus scale="   91.022">  5  6 -1 -1</clus>
<clus scale="   91.189">  7  8 -1 -1</clus>
<clus scale="   99.314">  1  5  2 -1</clus>
<clus scale="   54.093">  1  5  2 -1</clus>
</clustering>
</event>
<event>
 9    1  0.1399746E-005  0.9601808E+02  0.7546771E-02  0.1289748E+00
          2   -1    0    0  502    0 -0.00000000000E+00  0.00000000000E+00  0.27480363410E+03  0.27480363410E+03  0.00000000000E+00 0. -1.
         21   -1    0    0  501  502  0.00000000000E+00 -0.00000000000E+00 -0.49030541388E+02  0.49030541388E+02  0.00000000000E+00 0.  1.
         23    2    1    2    0    0  0.23245787154E+02 -0.30435557987E+02  0.13439342595E+03  0.16531121502E+03  0.88314863198E+02 0.  0.
         23    2    1    2    0    0  0.24484537280E+01  0.32573510320E+02  0.91992582769E+02  0.13273264212E+03  0.89934923688E+02 0.  0.
        -13    1    3    3    0    0 -0.18916071312E+02  0.19831754025E+02  0.21891529603E+02  0.35076420712E+02  0.00000000000E+00 0. -1.
         13    1    3    3    0    0  0.42161858466E+02 -0.50267312012E+02  0.11250189635E+03  0.13023479431E+03  0.00000000000E+00 0.  1.
        -13    1    4    4    0    0 -0.29682677798E+02  0.20526378370E+02  0.16881862036E+01  0.36128154435E+02  0.00000000000E+00 0.  1.
         13    1    4    4    0    0  0.32131131526E+02  0.12047131950E+02  0.90304396566E+02  0.96604487683E+02  0.00000000000E+00 0. -1.
          2    1    1    2  501    0 -0.25694240882E+02 -0.21379523326E+01 -0.61291600745E+00  0.25790318352E+02  0.00000000000E+00 0. -1.
<scales pt_clust_5="13000.00000" pt_clust_6="13000.00000" pt_clust_7="13000.00000" pt_clust_8="13000.00000" pt_clust_9="25.78303"></scales>
<clustering>
<clus scale="   25.783">  2  9  1 -1</clus>
<clus scale="   88.315">  5  6 -1 -1</clus>
<clus scale="   89.935">  7  8 -1 -1</clus>
<clus scale="   94.502">  1  5  2 -1</clus>
<clus scale="   25.783">  2  5  1 -1</clus>
</clustering>
</event>
<event>
 9    1  0.1399746E-005  0.1254720E+03  0.7546771E-02  0.1243979E+00
         21   -1    0    0  501  502  0.00000000000E+00  0.00000000000E+00  0.66280816102E+02  0.66280816102E+02  0.00000000000E+00 0.  1.
         -1   -1    0    0    0  501 -0.00000000000E+00 -0.00000000000E+00 -0.56204643213E+03  0.56204643213E+03  0.00000000000E+00 0.  1.
         23    2    1    2    0    0  0.36806243025E+02 -0.64348728106E+02 -0.40567691060E+03  0.42786373752E+03  0.11400948976E+03 0.  0.
         23    2    1    2    0    0 -0.92382282736E+01 -0.17669757750E+02 -0.33139014071E+02  0.96876374423E+02  0.88821576586E+02 0.  0.
        -11    1    3    3    0    0  0.75698065964E+02 -0.24743063382E+02 -0.26202160781E+03  0.27385715133E+03  0.00000000000E+00 0.  1.
         11    1    3    3    0    0 -0.38891822939E+02 -0.39605664724E+02 -0.14365530279E+03  0.15400658619E+03  0.00000000000E+00 0. -1.
        -11    1    4    4    0    0  0.59140474243E+01  0.31525831088E+02  0.54585380140E+01  0.32536896287E+02  0.00000000000E+00 0. -1.
         11    1    4    4    0    0 -0.15152275698E+02 -0.49195588838E+02 -0.38597552085E+02  0.64339478136E+02  0.00000000000E+00 0.  1.
         -1    1    1    2    0  502 -0.27568014751E+02  0.82018485855E+02 -0.56949691361E+02  0.10358713629E+03  0.00000000000E+00 0.  1.
<scales pt_clust_5="13000.00000" pt_clust_6="13000.00000" pt_clust_7="13000.00000" pt_clust_8="13000.00000" pt_clust_9="86.52761"></scales>
<clustering>
<clus scale="   86.528">  1  9  2 -1</clus>
<clus scale="   88.822">  7  8 -1 -1</clus>
<clus scale="  103.123">  1  7  2 -1</clus>
<clus scale="  114.009">  5  6 -1 -1</clus>
<clus scale="   86.528">  1  5  2 -1</clus>
</clustering>
</event>
<event>
 9    1  0.1399746E-005  0.1312550E+03  0.7546771E-02  0.1226066E+00
          2   -1    0    0  502    0 -0.00000000000E+00  0.00000000000E+00  0.80034729716E+03  0.80034729716E+03  0.00000000000E+00 0.  1.
         21   -1    0    0  501  502  0.00000000000E+00 -0.00000000000E+00 -0.30873214240E+02  0.30873214240E+02  0.00000000000E+00 0. -1.
         23    2    1    2    0    0  0.18381594660E+02  0.96730970049E+02  0.50077532924E+03  0.51856728418E+03  0.91876734060E+02 0.  0.
         23    2    1    2    0    0 -0.42185507099E+02 -0.71436625387E+02  0.21210946413E+03  0.24625459913E+03  0.93638103173E+02 0.  0.
        -11    1    4    4    0    0 -0.50591464281E+01 -0.83871082799E+02  0.16360086306E+03  0.18391627412E+03  0.00000000000E+00 0. -1.
         11    1    4    4    0    0 -0.37126360671E+02  0.12434457412E+02  0.48508601070E+02  0.62338325014E+02  0.00000000000E+00 0.  1.
        -13    1    3    3    0    0 -0.17183388828E+02 -0.11543861740E+02  0.78259864831E+02  0.80951442475E+02  0.00000000000E+00 0. -1.
         13    1    3    3    0    0  0.35564983488E+02  0.10827483179E+03  0.42251546441E+03  0.43761584171E+03  0.00000000000E+00 0.  1.
          2    1    1    2  501    0  0.23803912439E+02 -0.25294344663E+02  0.56589289549E+02  0.66398628080E+02  0.00000000000E+00 0.  1.
<scales pt_clust_5="13000.00000" pt_clust_6="13000.00000" pt_clust_7="13000.00000" pt_clust_8="13000.00000" pt_clust_9="34.73370"></scales>
<clustering>
<clus scale="   34.734">  2  9  1 -1</clus>
<clus scale="   91.877">  7  8 -1 -1</clus>
<clus scale="   93.638">  5  6 -1 -1</clus>
<clus scale="  130.004">  1  7  2 -1</clus>
<clus scale="   34.734">  2  5  1 -1</clus>
</clustering>
</event>
<event>
 9    1  0.1399746E-005  0.1260269E+03  0.7546771E-02  0.1235993E+00
         -4   -1    0    0    0  501 -0.00000000000E+00  0.00000000000E+00  0.85848556341E+02  0.85848556341E+02  0.00000000000E+00 0.  1.
         21   -1    0    0  501  502  0.00000000000E+00 -0.00000000000E+00 -0.28813272844E+03  0.28813272844E+03  0.00000000000E+00 0.  1.
         23    2    1    2    0    0 -0.30536183263E+02 -0.69269417108E+02 -0.31228878446E+02  0.12125432368E+03  0.89424032160E+02 0.  0.
         23    2    1    2    0    0  0.60512391223E+02  0.64021478173E+02 -0.73903815553E+02  0.15092065676E+03  0.97748511621E+02 0.  0.
        -11    1    3    3    0    0  0.25170405089E+02 -0.51038313298E+02 -0.25504948211E+02  0.62361535420E+02  0.00000000000E+00 0.  1.
         11    1    3    3    0    0 -0.55706588352E+02 -0.18231103810E+02 -0.57239302353E+01  0.58892788262E+02  0.00000000000E+00 0. -1.
        -13    1    4    4    0    0  0.64919437165E+02  0.27726850370E+02 -0.87042711342E+02  0.11207026881E+03  0.00000000000E+00 0.  1.
         13    1    4    4    0    0 -0.44070459425E+01  0.36294627803E+02  0.13138895788E+02  0.38850387949E+02  0.00000000000E+00 0. -1.
         -4    1    1    2    0  502 -0.29976207959E+02  0.52479389349E+01 -0.97151478103E+02  0.10180630434E+03  0.00000000000E+00 0.  1.
<scales pt_clust_5="13000.00000" pt_clust_6="13000.00000" pt_clust_7="13000.00000" pt_clust_8="13000.00000" pt_clust_9="30.43212"></scales>
<clustering>
<clus scale="   30.432">  2  9  1 -1</clus>
<clus scale="   89.424">  5  6 -1 -1</clus>
<clus scale="   97.749">  7  8 -1 -1</clus>
<clus scale="  119.686">  1  5  2 -1</clus>
<clus scale="   30.432">  2  5  1 -1</clus>
</clustering>
</event>
<event>
 9    1  0.1399746E-005  0.1542070E+03  0.7546771E-02  0.1195542E+00
         -3   -1    0    0    0  501 -0.00000000000E+00  0.00000000000E+00  0.19019251390E+03  0.19019251390E+03  0.00000000000E+00 0.  1.
         21   -1    0    0  501  502  0.00000000000E+00 -0.00000000000E+00 -0.26590314407E+03  0.26590314407E+03  0.00000000000E+00 0. -1.
         23    2    1    2    0    0 -0.29458194609E+02 -0.11456030108E+03  0.97320321967E+02  0.17964345901E+03  0.93854565590E+02 0.  0.
         23    2    1    2    0    0 -0.22175622860E+01  0.14446341678E+03 -0.14268441070E+03  0.22336300533E+03  0.93046196717E+02 0.  0.
        -11    1    4    4    0    0  0.23845726004E+02  0.59035498790E+02 -0.11216749573E+03  0.12897812165E+03  0.00000000000E+00 0. -1.
         11    1    4    4    0    0 -0.26063288290E+02  0.85427917987E+02 -0.30516914973E+02  0.94384883681E+02  0.00000000000E+00 0.  1.
        -11    1    3    3    0    0  0.62857276402E+01 -0.10735504279E+03  0.46659719009E+02  0.11722518911E+03  0.00000000000E+00 0. -1.
         11    1    3    3    0    0 -0.35743922249E+02 -0.72052582965E+01  0.50660602958E+02  0.62418269897E+02  0.00000000000E+00 0.  1.
         -3    1    1    2    0  502  0.31675756895E+02 -0.29903115694E+02 -0.30346541442E+02  0.53089193633E+02  0.00000000000E+00 0.  1.
<scales pt_clust_5="13000.00000" pt_clust_6="13000.00000" pt_clust_7="13000.00000" pt_clust_8="13000.00000" pt_clust_9="43.56088"></scales>
<clustering>
<clus scale="   43.561">  2  9  1 -1</clus>
<clus scale="   93.046">  5  6 -1 -1</clus>
<clus scale="   93.855">  7  8 -1 -1</clus>
<clus scale="  153.716">  2  5  1 -1</clus>
<clus scale="   43.561">  2  5  1 -1</clus>
</clustering>
</event>
<event>
 9    1  0.1399746E-005  0.5275689E+03  0.7546771E-02  0.1032243E+00
          2   -1    0    0  502    0 -0.00000000000E+00  0.00000000000E+00  0.61907164758E+03  0.61907164758E+03  0.00000000000E+00 0. -1.
         21   -1    0    0  501  502  0.00000000000E+00 -0.00000000000E+00 -0.18561038829E+04  0.18561038829E+04  0.00000000000E+00 0. -1.
         23    2    1    2    0    0  0.65546713294E+02  0.21628231011E+03  0.17176297235E+03  0.29855769485E+03  0.92519020707E+02 0.  0.
         23    2    1    2    0    0 -0.36610566725E+03  0.22624001770E+03  0.19822639422E+03  0.48289999479E+03  0.93170791530E+02 0.  0.
        -13    1    4    4    0    0 -0.27908421924E+03  0.14675806407E+03  0.10406464503E+03  0.33204725739E+03  0.00000000000E+00 0. -1.
         13    1    4    4    0    0 -0.87021448012E+02  0.79481953633E+02  0.94161749195E+02  0.15085273739E+03  0.00000000000E+00 0.  1.
        -13    1    3    3    0    0  0.23630857105E+02  0.35814285112E+02 -0.41088408303E+01  0.43104094916E+02  0.00000000000E+00 0.  1.
         13    1    3    3    0    0  0.41915856190E+02  0.18046802500E+03  0.17587181318E+03  0.25545359993E+03  0.00000000000E+00 0. -1.
          2    1    1    2  501    0  0.30055895396E+03 -0.44252232781E+03 -0.16070216019E+04  0.16937178408E+04  0.00000000000E+00 0. -1.
<scales pt_clust_5="13000.00000" pt_clust_6="13000.00000" pt_clust_7="13000.00000" pt_clust_8="13000.00000" pt_clust_9="519.27661"></scales>
<clustering>
<clus scale="   92.519">  7  8 -1 -1</clus>
<clus scale="   93.171">  5  6 -1 -1</clus>
<clus scale="  244.201">  1  7  2 -1</clus>
<clus scale="  519.277">  2  9  1 -1</clus>
<clus scale="  519.277">  2  5  1 -1</clus>
</clustering>
</event>
<event>
 9    1  0.1399746E-005  0.1192470E+03  0.7546771E-02  0.1246155E+00
         -1   -1    0    0    0  501 -0.00000000000E+00  0.00000000000E+00  0.19237661958E+03  0.19237661958E+03  0.00000000000E+00 0.  1.
         21   -1    0    0  501  502  0.00000000000E+00 -0.00000000000E+00 -0.31687291796E+03  0.31687291796E+03  0.00000000000E+00 0.  1.
         23    2    1    2    0    0 -0.49704755862E+02  0.62494198375E+02  0.63055990522E+02  0.13421580640E+03  0.87531349591E+02 0.  0.
         23    2    1    2    0    0  0.84907581991E+02 -0.26402259630E+01  0.43864778921E+02  0.13342330864E+03  0.93066600803E+02 0.  0.
        -11    1    3    3    0    0  0.55744997612E+01  0.23800659073E+02  0.62094813537E+02  0.66733142352E+02  0.00000000000E+00 0.  1.
         11    1    3    3    0    0 -0.55279255624E+02  0.38693539302E+02  0.96117698511E+00  0.67482664049E+02  0.00000000000E+00 0. -1.
        -13    1    4    4    0    0  0.19832284989E+02  0.27731278642E+02  0.50902951072E+02  0.61265437000E+02  0.00000000000E+00 0.  1.
         13    1    4    4    0    0  0.65075297002E+02 -0.30371504605E+02 -0.70381721516E+01  0.72157871636E+02  0.00000000000E+00 0. -1.
         -1    1    1    2    0  502 -0.35202826129E+02 -0.59853972412E+02 -0.23141706782E+03  0.24161042250E+03  0.00000000000E+00 0.  1.
<scales pt_clust_5="13000.00000" pt_clust_6="13000.00000" pt_clust_7="13000.00000" pt_clust_8="13000.00000" pt_clust_9="69.43873"></scales>
<clustering>
<clus scale="   69.439">  2  9  1 -1</clus>
<clus scale="   87.531">  5  6 -1 -1</clus>
<clus scale="   93.067">  7  8 -1 -1</clus>
<clus scale="  114.979">  1  5  2 -1</clus>
<clus scale="   69.439">  2  5  1 -1</clus>
</clustering>
</event>
<event>
 9    1  0.1399746E-005  0.1082729E+03  0.7546771E-02  0.1265407E+00
         21   -1    0    0  501  502  0.00000000000E+00  0.00000000000E+00  0.30975311136E+02  0.30975311136E+02  0.00000000000E+00 0.  1.
          2   -1    0    0  502    0 -0.00000000000E+00 -0.00000000000E+00 -0.68049504980E+03  0.68049504980E+03  0.00000000000E+00 0. -1.
         23    2    1    2    0    0  0.30956798217E+02 -0.21793703879E+02 -0.24038611312E+03  0.25967856162E+03  0.90632130632E+02 0.  0.
         23    2    1    2    0    0 -0.56877435753E+02  0.60573027736E+02 -0.19092327038E+03  0.22865176590E+03  0.94476454683E+02 0.  0.
        -11    1    3    3    0    0  0.61104908543E+02 -0.73320753404E+01 -0.12175556528E+03  0.13642575583E+03  0.00000000000E+00 0.  1.
         11    1    3    3    0    0 -0.30148110326E+02 -0.14461628539E+02 -0.11863054783E+03  0.12325280579E+03  0.00000000000E+00 0. -1.
        -11    1    4    4    0    0 -0.78870431522E+02  0.47747152881E+02 -0.10847868825E+03  0.14236559058E+03  0.00000000000E+00 0.  1.
         11    1    4    4    0    0  0.21992995769E+02  0.12825874856E+02 -0.82444582132E+02  0.86286175322E+02  0.00000000000E+00 0. -1.
          2    1    1    2  501    0  0.25920637537E+02 -0.38779323857E+02 -0.21821035516E+03  0.22314003341E+03  0.00000000000E+00 0. -1.
<scales pt_clust_5="13000.00000" pt_clust_6="13000.00000" pt_clust_7="13000.00000" pt_clust_8="13000.00000" pt_clust_9="46.64459"></scales>
<clustering>
<clus scale="   46.645">  1  9  2 -1</clus>
<clus scale="   90.632">  5  6 -1 -1</clus>
<clus scale="   94.476">  7  8 -1 -1</clus>
<clus scale="  104.935">  2  5  1 -1</clus>
<clus scale="   46.645">  1  5  2 -1</clus>
</clustering>
</event>
<event>
 9    1  0.1399746E-005  0.9748144E+02  0.7546771E-02  0.1287450E+00
          2   -1    0    0  502    0 -0.00000000000E+00  0.00000000000E+00  0.35294337645E+03  0.35294337645E+03  0.00000000000E+00 0. -1.
         21   -1    0    0  501  502  0.00000000000E+00 -0.00000000000E+00 -0.49246388748E+02  0.49246388748E+02  0.00000000000E+00 0.  1.
         23    2    1    2    0    0  0.39052168706E+01 -0.34457820145E+02  0.16221912549E+03  0.18925883829E+03  0.91111311628E+02 0.  0.
         23    2    1    2    0    0 -0.37115902543E+02  0.21896335782E+02  0.14749145065E+03  0.17691837663E+03  0.87688905985E+02 0.  0.
        -11    1    4    4    0    0 -0.62361624245E+02  0.16876243523E+01  0.75090671488E+02  0.97623917146E+02  0.00000000000E+00 0.  1.
         11    1    4    4    0    0  0.25245721701E+02  0.20208711430E+02  0.72400779159E+02  0.79294459483E+02  0.00000000000E+00 0. -1.
        -13    1    3    3    0    0 -0.28431661951E+02 -0.51529663035E+02  0.11813335038E+03  0.13198164283E+03  0.00000000000E+00 0.  1.
         13    1    3    3    0    0  0.32336878822E+02  0.17071842889E+02  0.44085775114E+02  0.57277195453E+02  0.00000000000E+00 0. -1.
          2    1    1    2  501    0  0.33210685673E+02  0.12561484363E+02 -0.60135884326E+01  0.36012550286E+02  0.00000000000E+00 0. -1.
<scales pt_clust_5="13000.00000" pt_clust_6="13000.00000" pt_clust_7="13000.00000" pt_clust_8="13000.00000" pt_clust_9="35.50691"></scales>
<clustering>
<clus scale="   35.507">  2  9  1 -1</clus>
<clus scale="   87.689">  5  6 -1 -1</clus>
<clus scale="   91.111">  7  8 -1 -1</clus>
<clus scale="   94.291">  2  5  1 -1</clus>
<clus scale="   35.507">  2  5  1 -1</clus>
</clustering>
</event>
<event>
 9    1  0.1399746E-005  0.1006594E+03  0.7546771E-02  0.1282066E+00
          1   -1    0    0  502    0 -0.00000000000E+00  0.00000000000E+00  0.67919729799E+03  0.67919729799E+03  0.00000000000E+00 0. -1.
         21   -1    0    0  501  502  0.00000000000E+00 -0.00000000000E+00 -0.77466830056E+02  0.77466830056E+02  0.00000000000E+00 0.  1.
         23    2    1    2    0    0 -0.12157757350E+02  0.44477977330E+02  0.46977932570E+03  0.48177077089E+03  0.96355380254E+02 0.  0.
         23    2    1    2    0    0  0.75983651763E+01  0.34171119980E+01  0.18333432622E+03  0.20450188583E+03  0.90222692990E+02 0.  0.
        -11    1    4    4    0    0  0.45904981663E+02  0.67765508185E+01  0.13490724101E+03  0.14266447581E+03  0.00000000000E+00 0. -1.
         11    1    4    4    0    0 -0.38306616486E+02 -0.33594388205E+01  0.48427085213E+02  0.61837410021E+02  0.00000000000E+00 0.  1.
        -11    1    3    3    0    0  0.30717336002E+02  0.48385279767E+02  0.34607912449E+03  0.35079260317E+03  0.00000000000E+00 0. -1.
         11    1    3    3    0    0 -0.42875093351E+02 -0.39073024374E+01  0.12370020120E+03  0.13097816772E+03  0.00000000000E+00 0.  1.
          1    1    1    2  501    0  0.45593921734E+01 -0.47895089328E+02 -0.51383183981E+02  0.70391471321E+02  0.00000000000E+00 0. -1.
<scales pt_clust_5="13000.00000" pt_clust_6="13000.00000" pt_clust_7="13000.00000" pt_clust_8="13000.00000" pt_clust_9="48.11162"></scales>
<clustering>
<clus scale="   48.112">  2  9  1 -1</clus>
<clus scale="   90.223">  5  6 -1 -1</clus>
<clus scale="   94.806">  2  5  1 -1</clus>
<clus scale="   96.355">  7  8 -1 -1</clus>
<clus scale="   48.112">  2  5  1 -1</clus>
</clustering>
</event>
<event>
 9    1  0.1399746E-005  0.1208003E+03  0.7546771E-02  0.1242322E+00
         21   -1    0    0  501  502  0.00000000000E+00  0.00000000000E+00  0.52966019713E+02  0.52966019713E+02  0.00000000000E+00 0.  1.
          1   -1    0    0  502    0 -0.00000000000E+00 -0.00000000000E+00 -0.41985091929E+03  0.41985091929E+03  0.00000000000E+00 0. -1.
         23    2    1    2    0    0  0.71406440804E+02 -0.18605738345E+02 -0.26245296095E+03  0.28761394081E+03  0.91625154565E+02 0.  0.
         23    2    1    2    0    0 -0.85101661402E+02  0.19518668122E+01 -0.10402374169E+03  0.16363735123E+03  0.93328137898E+02 0.  0.
        -11    1    3    3    0    0  0.16703510849E+02  0.28168067744E+02 -0.15405580449E+03  0.15749805781E+03  0.00000000000E+00 0. -1.
         11    1    3    3    0    0  0.54702929955E+02 -0.46773806088E+02 -0.10839715646E+03  0.13011588300E+03  0.00000000000E+00 0.  1.
        -11    1    4    4    0    0 -0.49180170966E+01  0.23552412308E+02  0.69397106341E+01  0.25041218049E+02  0.00000000000E+00 0. -1.
         11    1    4    4    0    0 -0.80183644306E+02 -0.21600545496E+02 -0.11096345232E+03  0.13859613318E+03  0.00000000000E+00 0.  1.
          1    1    1    2  501    0  0.13695220599E+02  0.16653871532E+02 -0.40819693453E+00  0.21565646965E+02  0.00000000000E+00 0. -1.
<scales pt_clust_5="13000.00000" pt_clust_6="13000.00000" pt_clust_7="13000.00000" pt_clust_8="13000.00000" pt_clust_9="21.56178"></scales>
<clustering>
<clus scale="   21.562">  1  9  2 -1</clus>
<clus scale="   91.625">  5  6 -1 -1</clus>
<clus scale="   93.328">  7  8 -1 -1</clus>
<clus scale="  119.489">  2  5  1 -1</clus>
<clus scale="   21.562">  1  5  2 -1</clus>
</clustering>
</event>
<event>
 9    1  0.1399746E-005  0.1322125E+03  0.7546771E-02  0.1224883E+00
         21   -1    0    0  501  502  0.00000000000E+00  0.00000000000E+00  0.36203285736E+03  0.36203285736E+03  0.00000000000E+00 0.  1.
          3   -1    0    0  502    0 -0.00000000000E+00 -0.00000000000E+00 -0.16763790055E+03  0.16763790055E+03  0.00000000000E+00 0. -1.
         23    2    1    2    0    0 -0.10388363530E+03  0.19965186757E+02 -0.10473088294E+03  0.17440901870E+03  0.90881954195E+02 0.  0.
         23    2    1    2    0    0  0.64765215240E+02  0.12661759098E+02  0.96829834927E+02  0.14665099657E+03  0.88179615633E+02 0.  0.
        -13    1    4    4    0    0  0.65895372604E+02  0.43626824888E+02  0.72644710582E+02  0.10734409139E+03  0.00000000000E+00 0. -1.
         13    1    4    4    0    0 -0.11301573641E+01 -0.30965065790E+02  0.24185124345E+02  0.39306905177E+02  0.00000000000E+00 0.  1.
        -13    1    3    3    0    0 -0.76289093007E+02 -0.14633033168E+02 -0.22246544415E+02  0.80802599649E+02  0.00000000000E+00 0.  1.
         13    1    3    3    0    0 -0.27594542289E+02  0.34598219926E+02 -0.82484338522E+02  0.93606419051E+02  0.00000000000E+00 0. -1.
          3    1    1    2  501    0  0.39118420056E+02 -0.32626945855E+02  0.20229600482E+03  0.20861074265E+03  0.00000000000E+00 0. -1.
<scales pt_clust_5="13000.00000" pt_clust_6="13000.00000" pt_clust_7="13000.00000" pt_clust_8="13000.00000" pt_clust_9="50.93887"></scales>
<clustering>
<clus scale="   50.939">  1  9  2 -1</clus>
<clus scale="   88.180">  5  6 -1 -1</clus>
<clus scale="   90.882">  7  8 -1 -1</clus>
<clus scale="  130.370">  1  5  2 -1</clus>
<clus scale="   50.939">  1  5  2 -1</clus>
</clustering>
</event>
<event>
 9    1  0.1399746E-005  0.1330229E+03  0.7546771E-02  0.1223343E+00
          1   -1    0    0  502    0 -0.00000000000E+00  0.00000000000E+00  0.49764400524E+03  0.49764400524E+03  0.00000000000E+00 0. -1.
         21   -1    0    0  501  502  0.00000000000E+00 -0.00000000000E+00 -0.58350354666E+02  0.58350354666E+02  0.00000000000E+00 0.  1.
         23    2    1    2    0    0 -0.75490108834E+02 -0.28412821407E+02  0.26042173403E+03  0.28877383534E+03  0.95209261460E+02 0.  0.
         23    2    1    2    0    0  0.11231261144E+03  0.51136439964E+02  0.13613476302E+03  0.20640339023E+03  0.94024611752E+02 0.  0.
        -11    1    3    3    0    0 -0.68250436962E+02  0.10249721459E+02  0.87540478564E+02  0.11147427651E+03  0.00000000000E+00 0.  1.
         11    1    3    3    0    0 -0.72396718716E+01 -0.38662542866E+02  0.17288125547E+03  0.17729955883E+03  0.00000000000E+00 0. -1.
        -13    1    4    4    0    0  0.79798626064E+02  0.35472390626E+02  0.26924159623E+02  0.91383924133E+02  0.00000000000E+00 0.  1.
         13    1    4    4    0    0  0.32513985373E+02  0.15664049339E+02  0.10921060340E+03  0.11501946610E+03  0.00000000000E+00 0. -1.
          1    1    1    2  501    0 -0.36822502604E+02 -0.22723618557E+02  0.42737153526E+02  0.60817134344E+02  0.00000000000E+00 0. -1.
<scales pt_clust_5="13000.00000" pt_clust_6="13000.00000" pt_clust_7="13000.00000" pt_clust_8="13000.00000" pt_clust_9="43.26961"></scales>
<clustering>
<clus scale="   43.270">  2  9  1 -1</clus>
<clus scale="   94.025">  7  8 -1 -1</clus>
<clus scale="   95.209">  5  6 -1 -1</clus>
<clus scale="  132.178">  2  7  1 -1</clus>
<clus scale="   43.270">  2  5  1 -1</clus>
</clustering>
</event>
<event>
 9    1  0.1399746E-005  0.1424021E+03  0.7546771E-02  0.1230758E+00
         21   -1    0    0  501  502  0.00000000000E+00  0.00000000000E+00  0.25739854915E+03  0.25739854915E+03  0.00000000000E+00 0. -1.
          2   -1    0    0  502    0 -0.00000000000E+00 -0.00000000000E+00 -0.15519410724E+03  0.15519410724E+03  0.00000000000E+00 0. -1.
         23    2    1    2    0    0  0.35570106592E+02 -0.76355216018E+00  0.15920200867E+02  0.93739671080E+02  0.85251731030E+02 0.  0.
         23    2    1    2    0    0 -0.51571275837E+02 -0.10812834659E+03 -0.36739879040E+02  0.15378203950E+03  0.89150216673E+02 0.  0.
        -13    1    3    3    0    0 -0.15681720074E+02  0.27650680454E+02  0.14955505060E+02  0.35130380095E+02  0.00000000000E+00 0.  1.
         13    1    3    3    0    0  0.51251826666E+02 -0.28414232614E+02  0.96469580731E+00  0.58609290984E+02  0.00000000000E+00 0. -1.
        -13    1    4    4    0    0  0.41054852040E+00 -0.93906972308E+02 -0.33815364402E+02  0.99810655082E+02  0.00000000000E+00 0. -1.
         13    1    4    4    0    0 -0.51981824358E+02 -0.14221374281E+02 -0.29245146376E+01  0.53971384417E+02  0.00000000000E+00 0.  1.
          2    1    1    2  501    0  0.16001169245E+02  0.10889189875E+03  0.12302412008E+03  0.16507094582E+03  0.00000000000E+00 0. -1.
<scales pt_clust_5="13000.00000" pt_clust_6="13000.00000" pt_clust_7="13000.00000" pt_clust_8="13000.00000" pt_clust_9="111.04321"></scales>
<clustering>
<clus scale="   85.252">  5  6 -1 -1</clus>
<clus scale="   89.150">  7  8 -1 -1</clus>
<clus scale="   92.378">  2  5  1 -1</clus>
<clus scale="  111.043">  1  9  2 -1</clus>
<clus scale="  111.043">  1  5  2 -1</clus>
</clustering>
</event>
<event>
 9    1  0.1399746E-005  0.9251635E+02  0.7546771E-02  0.1297206E+00
         21   -1    0    0  501  502  0.00000000000E+00  0.00000000000E+00  0.29202745234E+02  0.29202745234E+02  0.00000000000E+00 0. -1.
          2   -1    0    0  502    0 -0.00000000000E+00 -0.00000000000E+00 -0.43196211950E+03  0.43196211950E+03  0.00000000000E+00 0. -1.
         23    2    1    2    0    0  0.10998750468E+02  0.11772066561E+02 -0.19965818038E+03  0.22005208078E+03  0.91104199675E+02 0.  0.
         23    2    1    2    0    0 -0.13754443072E+02  0.10390644941E+02 -0.19698207319E+03  0.21795628896E+03  0.91683458321E+02 0.  0.
        -13    1    4    4    0    0 -0.14741785667E+02  0.46952533802E+02 -0.15318275594E+03  0.16089380781E+03  0.00000000000E+00 0. -1.
         13    1    4    4    0    0  0.98734259484E+00 -0.36561888861E+02 -0.43799317255E+02  0.57062481146E+02  0.00000000000E+00 0.  1.
        -13    1    3    3    0    0 -0.66321215713E+01 -0.31885417545E+02 -0.14162510148E+03  0.14532148588E+03  0.00000000000E+00 0.  1.
         13    1    3    3    0    0  0.17630872040E+02  0.43657484106E+02 -0.58033078904E+02  0.74730594902E+02  0.00000000000E+00 0. -1.
          2    1    1    2  501    0  0.27556926033E+01 -0.22162711502E+02 -0.61191206971E+01  0.23156495005E+02  0.00000000000E+00 0. -1.
<scales pt_clust_5="13000.00000" pt_clust_6="13000.00000" pt_clust_7="13000.00000" pt_clust_8="13000.00000" pt_clust_9="22.33337"></scales>
<clustering>
<clus scale="   22.333">  1  9  2 -1</clus>
<clus scale="   91.104">  7  8 -1 -1</clus>
<clus scale="   91.683">  5  6 -1 -1</clus>
<clus scale="   91.942">  2  7  1 -1</clus>
<clus scale="   22.333">  1  5  2 -1</clus>
</clustering>
</event>
<event>
 9    1  0.1399746E-005  0.1092644E+03  0.7546771E-02  0.1263039E+00
         21   -1    0    0  501  502  0.00000000000E+00  0.00000000000E+00  0.36319897849E+02  0.36319897849E+02  0.00000000000E+00 0. -1.
          2   -1    0    0  502    0 -0.00000000000E+00 -0.00000000000E+00 -0.69362302159E+03  0.69362302159E+03  0.00000000000E+00 0. -1.
         23    2    1    2    0    0  0.67168484771E+02  0.85324298382E+01 -0.31681140860E+03  0.33596376361E+03  0.88981875317E+02 0.  0.
         23    2    1    2    0    0 -0.38225063049E+02  0.58723992959E+02 -0.14583864571E+03  0.18601049110E+03  0.91767801670E+02 0.  0.
        -13    1    3    3    0    0  0.51776641337E+02 -0.35735966157E+02 -0.21228323380E+03  0.22140923923E+03  0.00000000000E+00 0.  1.
         13    1    3    3    0    0  0.15391843435E+02  0.44268395995E+02 -0.10452817480E+03  0.11455452438E+03  0.00000000000E+00 0. -1.
        -13    1    4    4    0    0 -0.51447564331E+02 -0.69346452096E+00 -0.88592407582E+02  0.10244973133E+03  0.00000000000E+00 0.  1.
         13    1    4    4    0    0  0.13222501283E+02  0.59417457480E+02 -0.57246238124E+02  0.83560759768E+02  0.00000000000E+00 0. -1.
          2    1    1    2  501    0 -0.28943421723E+02 -0.67256422798E+02 -0.19465306944E+03  0.20796866473E+03  0.00000000000E+00 0. -1.
<scales pt_clust_5="13000.00000" pt_clust_6="13000.00000" pt_clust_7="13000.00000" pt_clust_8="13000.00000" pt_clust_9="73.21990"></scales>
<clustering>
<clus scale="   73.220">  1  9  2 -1</clus>
<clus scale="   88.982">  5  6 -1 -1</clus>
<clus scale="   91.768">  7  8 -1 -1</clus>
<clus scale="  106.935">  2  5  1 -1</clus>
<clus scale="   73.220">  1  5  2 -1</clus>
</clustering>
</event>
<event>
 9    1  0.1399746E-005  0.1078156E+03  0.7546771E-02  0.1266140E+00
          2   -1    0    0  502    0 -0.00000000000E+00  0.00000000000E+00  0.14679044604E+03  0.14679044604E+03  0.00000000000E+00 0. -1.
         21   -1    0    0  501  502  0.00000000000E+00 -0.00000000000E+00 -0.11066571287E+03  0.11066571287E+03  0.00000000000E+00 0. -1.
         23    2    1    2    0    0  0.43229964881E+02 -0.52337808140E+02  0.34471459054E+02  0.11710655070E+03  0.88980822107E+02 0.  0.
         23    2    1    2    0    0 -0.64190295464E+01  0.43525183266E+02  0.28883453091E+00  0.10247390343E+03  0.92548214134E+02 0.  0.
        -11    1    3    3    0    0  0.17940422450E+02  0.24810131270E+02  0.11811401162E+02  0.32816315587E+02  0.00000000000E+00 0.  1.
         11    1    3    3    0    0  0.25289542431E+02 -0.77147939410E+02  0.22660057892E+02  0.84290235112E+02  0.00000000000E+00 0. -1.
        -13    1    4    4    0    0  0.52854523849E+01  0.60094018889E+02 -0.28929352907E+02  0.66903920459E+02  0.00000000000E+00 0. -1.
         13    1    4    4    0    0 -0.11704481931E+02 -0.16568835623E+02  0.29218187438E+02  0.35569982968E+02  0.00000000000E+00 0.  1.
          2    1    1    2  501    0 -0.36810935334E+02  0.88126248745E+01  0.13644395789E+01  0.37875704782E+02  0.00000000000E+00 0. -1.
<scales pt_clust_5="13000.00000" pt_clust_6="13000.00000" pt_clust_7="13000.00000" pt_clust_8="13000.00000" pt_clust_9="37.85112"></scales>
<clustering>
<clus scale="   37.851">  2  9  1 -1</clus>
<clus scale="   88.981">  5  6 -1 -1</clus>
<clus scale="   92.548">  7  8 -1 -1</clus>
<clus scale="  104.769">  1  5  2 -1</clus>
<clus scale="   37.851">  2  5  1 -1</clus>
</clustering>
</event>
<event>
 9    1  0.1399746E-005  0.1016779E+03  0.7546771E-02  0.1277690E+00
         21   -1    0    0  501  502  0.00000000000E+00  0.00000000000E+00  0.60639227481E+03  0.60639227481E+03  0.00000000000E+00 0.  1.
         -1   -1    0    0    0  501 -0.00000000000E+00 -0.00000000000E+00 -0.41225172535E+02  0.41225172535E+02  0.00000000000E+00 0.  1.
         23    2    1    2    0    0  0.17470620333E+02 -0.38033786586E+02  0.67918004572E+02  0.12107873568E+03  0.91079160035E+02 0.  0.
         23    2    1    2    0    0 -0.59759069746E+02  0.61630610444E+01  0.24566506941E+03  0.26944227179E+03  0.92944509051E+02 0.  0.
        -11    1    4    4    0    0 -0.13336161510E+02  0.46260584619E+02  0.12784481352E+03  0.13660963084E+03  0.00000000000E+00 0. -1.
         11    1    4    4    0    0 -0.46422908236E+02 -0.40097523574E+02  0.11782025589E+03  0.13283264095E+03  0.00000000000E+00 0.  1.
        -13    1    3    3    0    0  0.11843946638E+02  0.24227893157E+02 -0.22979510163E+01  0.27065669355E+02  0.00000000000E+00 0. -1.
         13    1    3    3    0    0  0.56266736947E+01 -0.62261679742E+02  0.70215955588E+02  0.94013066328E+02  0.00000000000E+00 0.  1.
         -1    1    1    2    0  502  0.42288449413E+02  0.31870725542E+02  0.25158402829E+03  0.25709643987E+03  0.00000000000E+00 0.  1.
<scales pt_clust_5="13000.00000" pt_clust_6="13000.00000" pt_clust_7="13000.00000" pt_clust_8="13000.00000" pt_clust_9="52.95334"></scales>
<clustering>
<clus scale="   52.953">  1  9  2 -1</clus>
<clus scale="   91.079">  7  8 -1 -1</clus>
<clus scale="   92.945">  5  6 -1 -1</clus>
<clus scale="   99.976">  2  7  1 -1</clus>
<clus scale="   52.953">  1  5  2 -1</clus>
</clustering>
</event>
<event>
 9    1  0.1399746E-005  0.1025795E+03  0.7546771E-02  0.1275966E+00
          2   -1    0    0  502    0 -0.00000000000E+00  0.00000000000E+00  0.52822435376E+03  0.52822435376E+03  0.00000000000E+00 0. -1.
         21   -1    0    0  501  502  0.00000000000E+00 -0.00000000000E+00 -0.66722141329E+02  0.66722141329E+02  0.00000000000E+00 0. -1.
         23    2    1    2    0    0 -0.46529651926E+02  0.48015960115E+02  0.35588303851E+03  0.37340237358E+03  0.91137558454E+02 0.  0.
         23    2    1    2    0    0 -0.16847563017E+02 -0.63527674304E+01  0.11027021080E+03  0.14555645710E+03  0.93289682070E+02 0.  0.
        -11    1    4    4    0    0 -0.42319886567E+02  0.12108564266E+02  0.17107430373E+02  0.47225568304E+02  0.00000000000E+00 0. -1.
         11    1    4    4    0    0  0.25472323550E+02 -0.18461331696E+02  0.93162780426E+02  0.98330888798E+02  0.00000000000E+00 0.  1.
        -13    1    3    3    0    0  0.30018556654E+01  0.60821273582E+02  0.21755384538E+03  0.22591572344E+03  0.00000000000E+00 0. -1.
         13    1    3    3    0    0 -0.49531507591E+02 -0.12805313467E+02  0.13832919313E+03  0.14748665014E+03  0.00000000000E+00 0.  1.
          2    1    1    2  501    0  0.63377214943E+02 -0.41663192684E+02 -0.46510368753E+01  0.75987664411E+02  0.00000000000E+00 0. -1.
<scales pt_clust_5="13000.00000" pt_clust_6="13000.00000" pt_clust_7="13000.00000" pt_clust_8="13000.00000" pt_clust_9="75.84519"></scales>
<clustering>
<clus scale="   75.845">  2  9  1 -1</clus>
<clus scale="   91.138">  7  8 -1 -1</clus>
<clus scale="   93.290">  5  6 -1 -1</clus>
<clus scale="  100.626">  1  7  2 -1</clus>
<clus scale="   75.845">  2  5  1 -1</clus>
</clustering>
</event>
<event>
 9    1  0.1399746E-005  0.1067703E+03  0.7546771E-02  0.1269615E+00
         21   -1    0    0  501  502  0.00000000000E+00  0.00000000000E+00  0.19429577582E+03  0.19429577582E+03  0.00000000000E+00 0.  1.
         -1   -1    0    0    0  501 -0.00000000000E+00 -0.00000000000E+00 -0.33466203347E+03  0.33466203347E+03  0.00000000000E+00 0.  1.
         23    2    1    2    0    0 -0.33301856016E+02 -0.22562525809E+02 -0.20954823880E+03  0.23493495672E+03  0.98315249679E+02 0.  0.
         23    2    1    2    0    0  0.19122738754E+02  0.45494896228E+02 -0.86838836487E+02  0.13568954426E+03  0.91843367642E+02 0.  0.
        -13    1    4    4    0    0 -0.21036534096E+01 -0.25346200824E+02 -0.42308893249E+02  0.49364944058E+02  0.00000000000E+00 0. -1.
         13    1    4    4    0    0  0.21226392163E+02  0.70841097053E+02 -0.44529943239E+02  0.86324600206E+02  0.00000000000E+00 0.  1.
        -13    1    3    3    0    0  0.33157906587E+02 -0.14154444173E+02 -0.10248128573E+03  0.10863797211E+03  0.00000000000E+00 0.  1.
         13    1    3    3    0    0 -0.66459762603E+02 -0.84080816355E+01 -0.10706695308E+03  0.12629698462E+03  0.00000000000E+00 0. -1.
         -1    1    1    2    0  502  0.14179117262E+02 -0.22932370420E+02  0.15602081764E+03  0.15833330830E+03  0.00000000000E+00 0.  1.
<scales pt_clust_5="13000.00000" pt_clust_6="13000.00000" pt_clust_7="13000.00000" pt_clust_8="13000.00000" pt_clust_9="26.96184"></scales>
<clustering>
<clus scale="   26.962">  1  9  2 -1</clus>
<clus scale="   91.843">  5  6 -1 -1</clus>
<clus scale="   98.315">  7  8 -1 -1</clus>
<clus scale="  100.843">  1  5  2 -1</clus>
<clus scale="   26.962">  1  5  2 -1</clus>
</clustering>
</event>
<event>
 9    1  0.1399746E-005  0.9680469E+02  0.7546771E-02  0.1296728E+00
          2   -1    0    0  502    0 -0.00000000000E+00  0.00000000000E+00  0.88739197495E+02  0.88739197495E+02  0.00000000000E+00 0. -1.
         21   -1    0    0  501  502  0.00000000000E+00 -0.00000000000E+00 -0.42619798673E+03  0.42619798673E+03  0.00000000000E+00 0. -1.
         23    2    1    2    0    0  0.50308736004E+02  0.61266126804E+01  0.24829552942E+02  0.10796617348E+03  0.92041749309E+02 0.  0.
         23    2    1    2    0    0  0.12483005075E+02 -0.14197867206E+02 -0.59803180681E+02  0.97931820957E+02  0.75211809495E+02 0.  0.
        -13    1    3    3    0    0  0.27523884369E+02  0.44195521771E+02 -0.81303616142E+01  0.52696405336E+02  0.00000000000E+00 0.  1.
         13    1    3    3    0    0  0.22784851635E+02 -0.38068909091E+02  0.32959914556E+02  0.55269768146E+02  0.00000000000E+00 0. -1.
        -13    1    4    4    0    0 -0.30294219960E+02 -0.63578915209E+01 -0.11720179634E+02  0.33098718377E+02  0.00000000000E+00 0.  1.
         13    1    4    4    0    0  0.42777225035E+02 -0.78399756852E+01 -0.48083001047E+02  0.64833102580E+02  0.00000000000E+00 0. -1.
          2    1    1    2  501    0 -0.62791741079E+02  0.80712545258E+01 -0.30248516149E+03  0.30903918978E+03  0.00000000000E+00 0. -1.
<scales pt_clust_5="13000.00000" pt_clust_6="13000.00000" pt_clust_7="13000.00000" pt_clust_8="13000.00000" pt_clust_9="63.30836"></scales>
<clustering>
<clus scale="   63.308">  2  9  1 -1</clus>
<clus scale="   75.212">  7  8 -1 -1</clus>
<clus scale="   80.971">  2  7  1 -1</clus>
<clus scale="   92.042">  5  6 -1 -1</clus>
<clus scale="   63.308">  2  5  1 -1</clus>
</clustering>
</event>
<event>
 9    1  0.1399746E-005  0.9693700E+02  0.7546771E-02  0.1286938E+00
         21   -1    0    0  501  502  0.00000000000E+00  0.00000000000E+00  0.65762990285E+03  0.65762990285E+03  0.00000000000E+00 0.  1.
         -3   -1    0    0    0  501 -0.00000000000E+00 -0.00000000000E+00 -0.90139983743E+02  0.90139983743E+02  0.00000000000E+00 0.  1.
         23    2    1    2    0    0  0.61808863734E+01  0.58021139708E+01 -0.35905144637E+01  0.92363325381E+02  0.91903341607E+02 0.  0.
         23    2    1    2    0    0 -0.60600447555E+02 -0.44515813378E+02  0.47850729803E+02  0.12793185844E+03  0.91775792975E+02 0.  0.
        -11    1    3    3    0    0 -0.31178485037E+02  0.28580381065E+02 -0.18461689413E+02  0.46149432142E+02  0.00000000000E+00 0.  1.
         11    1    3    3    0    0  0.37359371410E+02 -0.22778267094E+02  0.14871174949E+02  0.46213893240E+02  0.00000000000E+00 0. -1.
        -13    1    4    4    0    0 -0.52908895771E+02 -0.72123351372E+02  0.30903078096E+02  0.94636828459E+02  0.00000000000E+00 0.  1.
         13    1    4    4    0    0 -0.76915517832E+01  0.27607537994E+02  0.16947651707E+02  0.33295029979E+02  0.00000000000E+00 0. -1.
         -3    1    1    2    0  502  0.54419561181E+02  0.38713699407E+02  0.52322970377E+03  0.52747470277E+03  0.00000000000E+00 0.  1.
<scales pt_clust_5="13000.00000" pt_clust_6="13000.00000" pt_clust_7="13000.00000" pt_clust_8="13000.00000" pt_clust_9="66.78502"></scales>
<clustering>
<clus scale="   66.785">  1  9  2 -1</clus>
<clus scale="   91.776">  7  8 -1 -1</clus>
<clus scale="   91.903">  5  6 -1 -1</clus>
<clus scale="   96.816">  1  7  2 -1</clus>
<clus scale="   66.785">  1  5  2 -1</clus>
</clustering>
</event>
<event>
 9    1  0.1399746E-005  0.3415088E+03  0.7546771E-02  0.1066301E+00
          2   -1    0    0  502    0 -0.00000000000E+00  0.00000000000E+00  0.34745152686E+03  0.34745152686E+03  0.00000000000E+00 0. -1.
         21   -1    0    0  501  502  0.00000000000E+00 -0.00000000000E+00 -0.73521351188E+03  0.73521351188E+03  0.00000000000E+00 0.  1.
         23    2    1    2    0    0  0.23291786187E+03  0.20521805207E+03  0.95828671042E+02  0.33841035077E+03  0.94727250777E+02 0.  0.
         23    2    1    2    0    0 -0.21858072536E+03 -0.34773259131E+03 -0.38776398987E+03  0.57192158803E+03  0.89654349948E+02 0.  0.
        -13    1    3    3    0    0  0.18596574401E+03  0.16695755546E+03  0.11468759453E+03  0.27497513998E+03  0.00000000000E+00 0. -1.
         13    1    3    3    0    0  0.46952117858E+02  0.38260496617E+02 -0.18858923484E+02  0.63435210788E+02  0.00000000000E+00 0.  1.
        -13    1    4    4    0    0 -0.33519465690E+02 -0.12164876943E+03 -0.14360228047E+03  0.19116378485E+03  0.00000000000E+00 0.  1.
         13    1    4    4    0    0 -0.18506125967E+03 -0.22608382188E+03 -0.24416170940E+03  0.38075780318E+03  0.00000000000E+00 0. -1.
          2    1    1    2  501    0 -0.14337136511E+02  0.14251453923E+03 -0.95826666198E+02  0.17233309993E+03  0.00000000000E+00 0. -1.
<scales pt_clust_5="13000.00000" pt_clust_6="13000.00000" pt_clust_7="13000.00000" pt_clust_8="13000.00000" pt_clust_9="143.23389"></scales>
<clustering>
<clus scale="   89.654">  7  8 -1 -1</clus>
<clus scale="   94.727">  5  6 -1 -1</clus>
<clus scale="  143.234">  2  9  1 -1</clus>
<clus scale="  340.137">  2  7  1 -1</clus>
<clus scale="  143.234">  2  5  1 -1</clus>
</clustering>
</event>
<event>
 9    1  0.1399746E-005  0.1938230E+03  0.7546771E-02  0.1155115E+00
         21   -1    0    0  501  502  0.00000000000E+00  0.00000000000E+00  0.32753271707E+03  0.32753271707E+03  0.00000000000E+00 0. -1.
         -3   -1    0    0    0  501 -0.00000000000E+00 -0.00000000000E+00 -0.15813302195E+03  0.15813302195E+03  0.00000000000E+00 0.  1.
         23    2    1    2    0    0  0.40560007383E+01  0.15830746106E+03  0.30103516292E+02  0.18537749621E+03  0.91547206616E+02 0.  0.
         23    2    1    2    0    0 -0.36862804781E+02 -0.18522050193E+03  0.74692858813E+02  0.22299537693E+03  0.92100023135E+02 0.  0.
        -13    1    3    3    0    0  0.43486887851E+02  0.46654251932E+02  0.26959677988E+01  0.63835702241E+02  0.00000000000E+00 0.  1.
         13    1    3    3    0    0 -0.39430887112E+02  0.11165320913E+03  0.27407548493E+02  0.12154179397E+03  0.00000000000E+00 0. -1.
        -13    1    4    4    0    0 -0.21079165370E+02 -0.67687054387E+02  0.76626586615E+02  0.10439110269E+03  0.00000000000E+00 0. -1.
         13    1    4    4    0    0 -0.15783639411E+02 -0.11753344754E+03 -0.19337278012E+01  0.11860427424E+03  0.00000000000E+00 0.  1.
         -3    1    1    2    0  502  0.32806804042E+02  0.26913040869E+02  0.64603320013E+02  0.77292865887E+02  0.00000000000E+00 0.  1.
<scales pt_clust_5="13000.00000" pt_clust_6="13000.00000" pt_clust_7="13000.00000" pt_clust_8="13000.00000" pt_clust_9="42.43346"></scales>
<clustering>
<clus scale="   42.433">  1  9  2 -1</clus>
<clus scale="   91.547">  5  6 -1 -1</clus>
<clus scale="   92.100">  7  8 -1 -1</clus>
<clus scale="  193.561">  2  5  1 -1</clus>
<clus scale="   42.433">  1  5  2 -1</clus>
</clustering>
</event>
<event>
 9    1  0.1399746E-005  0.1091033E+03  0.7546771E-02  0.1263202E+00
         21   -1    0    0  501  502  0.00000000000E+00  0.00000000000E+00  0.13234826389E+03  0.13234826389E+03  0.00000000000E+00 0.  1.
          2   -1    0    0  502    0 -0.00000000000E+00 -0.00000000000E+00 -0.42209310829E+03  0.42209310829E+03  0.00000000000E+00 0. -1.
         23    2    1    2    0    0  0.55934635231E+02 -0.12632333193E+02 -0.35180021544E+03  0.36793956751E+03  0.91257188753E+02 0.  0.
         23    2    1    2    0    0 -0.89040962124E+02  0.29165457389E+02  0.72482002893E+02  0.14805589815E+03  0.88814364790E+02 0.  0.
        -11    1    4    4    0    0 -0.27528512225E+02 -0.32081071040E+02  0.25064965812E+02  0.49145362096E+02  0.00000000000E+00 0. -1.
         11    1    4    4    0    0 -0.61512449898E+02  0.61246528428E+02  0.47417037081E+02  0.98910536054E+02  0.00000000000E+00 0.  1.
        -11    1    3    3    0    0  0.48899551013E+02 -0.46241353345E+02 -0.28490713232E+03  0.29274819025E+03  0.00000000000E+00 0. -1.
         11    1    3    3    0    0  0.70350842182E+01  0.33609020152E+02 -0.66893083119E+02  0.75191377263E+02  0.00000000000E+00 0.  1.
          2    1    1    2  501    0  0.33106326893E+02 -0.16533124196E+02 -0.10426631858E+02  0.38445906517E+02  0.00000000000E+00 0. -1.
<scales pt_clust_5="13000.00000" pt_clust_6="13000.00000" pt_clust_7="13000.00000" pt_clust_8="13000.00000" pt_clust_9="37.00504"></scales>
<clustering>
<clus scale="   37.005">  1  9  2 -1</clus>
<clus scale="   88.814">  5  6 -1 -1</clus>
<clus scale="   91.257">  7  8 -1 -1</clus>
<clus scale="  107.068">  1  5  2 -1</clus>
<clus scale="   37.005">  1  5  2 -1</clus>
</clustering>
</event>
<event>
 9    1  0.1399746E-005  0.1085879E+03  0.7546771E-02  0.1263809E+00
          1   -1    0    0  502    0 -0.00000000000E+00  0.00000000000E+00  0.25953321051E+03  0.25953321051E+03  0.00000000000E+00 0. -1.
         21   -1    0    0  501  502  0.00000000000E+00 -0.00000000000E+00 -0.83739482896E+02  0.83739482896E+02  0.00000000000E+00 0. -1.
         23    2    1    2    0    0  0.38529280617E+02 -0.42299424697E+02  0.95848261069E+02  0.14375721741E+03  0.90584223864E+02 0.  0.
         23    2    1    2    0    0 -0.78860617379E+02 -0.35702530719E+01  0.68682085994E+02  0.13740663762E+03  0.89059594902E+02 0.  0.
        -11    1    3    3    0    0  0.33165983356E+02  0.19875624690E+02  0.14649805712E+02  0.41347789738E+02  0.00000000000E+00 0.  1.
         11    1    3    3    0    0  0.53632972615E+01 -0.62175049387E+02  0.81198455357E+02  0.10240942767E+03  0.00000000000E+00 0. -1.
        -13    1    4    4    0    0 -0.90480358942E+02  0.19899769871E+02  0.50370943939E+02  0.10545107012E+03  0.00000000000E+00 0. -1.
         13    1    4    4    0    0  0.11619741563E+02 -0.23470022943E+02  0.18311142055E+02  0.31955567501E+02  0.00000000000E+00 0.  1.
          1    1    1    2  501    0  0.40331336761E+02  0.45869677769E+02  0.11263380552E+02  0.62108838381E+02  0.00000000000E+00 0. -1.
<scales pt_clust_5="13000.00000" pt_clust_6="13000.00000" pt_clust_7="13000.00000" pt_clust_8="13000.00000" pt_clust_9="61.07900"></scales>
<clustering>
<clus scale="   61.079">  2  9  1 -1</clus>
<clus scale="   89.060">  7  8 -1 -1</clus>
<clus scale="   90.584">  5  6 -1 -1</clus>
<clus scale="  107.319">  2  7  1 -1</clus>
<clus scale="   61.079">  2  5  1 -1</clus>
</clustering>
</event>
<event>
 9    1  0.1399746E-005  0.1958118E+03  0.7546771E-02  0.1154042E+00
         -4   -1    0    0    0  501 -0.00000000000E+00  0.00000000000E+00  0.13049849086E+03  0.13049849086E+03  0.00000000000E+00 0.  1.
         21   -1    0    0  501  502  0.00000000000E+00 -0.00000000000E+00 -0.53209919553E+03  0.53209919553E+03  0.00000000000E+00 0. -1.
         23    2    1    2    0    0  0.14346787179E+03 -0.63926842041E+02 -0.29447763158E+02  0.18836922417E+03  0.99730248634E+02 0.  0.
         23    2    1    2    0    0 -0.18304958357E+03  0.63543465115E+02 -0.18709840164E+03  0.28498776466E+03  0.93098292713E+02 0.  0.
        -11    1    4    4    0    0 -0.29076459188E+02 -0.23029847975E+02 -0.21565482847E+02  0.42905529097E+02  0.00000000000E+00 0.  1.
         11    1    4    4    0    0 -0.15397312438E+03  0.86573313090E+02 -0.16553291879E+03  0.24208223556E+03  0.00000000000E+00 0. -1.
        -13    1    3    3    0    0  0.12688434621E+03 -0.20980806181E+02 -0.49958885745E+02  0.13797000328E+03  0.00000000000E+00 0.  1.
         13    1    3    3    0    0  0.16583525577E+02 -0.42946035860E+02  0.20511122587E+02  0.50399220891E+02  0.00000000000E+00 0. -1.
         -4    1    1    2    0  502  0.39581711784E+02  0.38337692616E+00 -0.18505453988E+03  0.18924069757E+03  0.00000000000E+00 0.  1.
<scales pt_clust_5="13000.00000" pt_clust_6="13000.00000" pt_clust_7="13000.00000" pt_clust_8="13000.00000" pt_clust_9="39.58357"></scales>
<clustering>
<clus scale="   39.584">  2  9  1 -1</clus>
<clus scale="   93.098">  5  6 -1 -1</clus>
<clus scale="   99.730">  7  8 -1 -1</clus>
<clus scale="  192.519">  2  5  1 -1</clus>
<clus scale="   39.584">  2  5  1 -1</clus>
</clustering>
</event>
<event>
 9    1  0.1399746E-005  0.2060859E+03  0.7546771E-02  0.1145859E+00
         21   -1    0    0  501  502  0.00000000000E+00  0.00000000000E+00  0.14144312875E+03  0.14144312875E+03  0.00000000000E+00 0. -1.
         -3   -1    0    0    0  501 -0.00000000000E+00 -0.00000000000E+00 -0.48459626419E+03  0.48459626419E+03  0.00000000000E+00 0.  1.
         23    2    1    2    0    0  0.16752482510E+03  0.56192332472E+02 -0.31358841324E+03  0.36999735024E+03  0.85663300293E+02 0.  0.
         23    2    1    2    0    0 -0.17982285307E+03 -0.77790970628E+02 -0.48965565805E+02  0.22451213000E+03  0.98083516881E+02 0.  0.
        -11    1    3    3    0    0  0.53081643022E+02 -0.87143998445E+01 -0.42098522368E+02  0.68307299582E+02  0.00000000000E+00 0. -1.
         11    1    3    3    0    0  0.11444318208E+03  0.64906732317E+02 -0.27148989087E+03  0.30169005066E+03  0.00000000000E+00 0.  1.
        -11    1    4    4    0    0 -0.11382852032E+02 -0.46054734953E+02 -0.61124857928E+01  0.47832733714E+02  0.00000000000E+00 0.  1.
         11    1    4    4    0    0 -0.16844000104E+03 -0.31736235675E+02 -0.42853080012E+02  0.17667939628E+03  0.00000000000E+00 0. -1.
         -3    1    1    2    0  502  0.12298027973E+02  0.21598638155E+02  0.19400843608E+02  0.31529912700E+02  0.00000000000E+00 0.  1.
<scales pt_clust_5="13000.00000" pt_clust_6="13000.00000" pt_clust_7="13000.00000" pt_clust_8="13000.00000" pt_clust_9="24.85443"></scales>
<clustering>
<clus scale="   24.854">  1  9  2 -1</clus>
<clus scale="   85.663">  5  6 -1 -1</clus>
<clus scale="   98.084">  7  8 -1 -1</clus>
<clus scale="  200.473">  2  5  1 -1</clus>
<clus scale="   24.854">  1  5  2 -1</clus>
</clustering>
</event>
<event>
 9    1  0.1821773E-005  0.9237200E+02  0.7546771E-02  0.1297478E+00
         21   -1    0    0  501  502  0.00000000000E+00  0.00000000000E+00  0.24651447083E+03  0.24651447083E+03  0.00000000000E+00 0.  1.
         -3   -1    0    0    0  501 -0.00000000000E+00 -0.00000000000E+00 -0.21171325820E+03  0.21171325820E+03  0.00000000000E+00 0.  1.
         23    2    1    2    0    0  0.10048361328E+02  0.19555771407E+02 -0.12528698367E+03  0.15631544795E+03  0.90853141001E+02 0.  0.
         23    2    1    2    0    0  0.41029474964E+02 -0.71703327070E+01 -0.30597213344E+02  0.10411625001E+03  0.90383475065E+02 0.  0.
        -11    1    3    3    0    0  0.42282868200E+02 -0.15432367807E+02 -0.71704661434E+02  0.84661427998E+02  0.00000000000E+00 0.  1.
         11    1    3    3    0    0 -0.32234506873E+02  0.34988139214E+02 -0.53582322240E+02  0.71654019954E+02  0.00000000000E+00 0. -1.
        -11    1    4    4    0    0  0.63312698289E+02  0.10924755660E+02 -0.37770950304E+02  0.74528469311E+02  0.00000000000E+00 0.  1.
         11    1    4    4    0    0 -0.22283223325E+02 -0.18095088367E+02  0.71737369609E+01  0.29587780700E+02  0.00000000000E+00 0. -1.
         -3    1    1    2    0  502 -0.51077836292E+02 -0.12385438700E+02  0.19068540965E+03  0.19779603107E+03  0.00000000000E+00 0.  1.
<scales pt_clust_5="13000.00000" pt_clust_6="13000.00000" pt_clust_7="13000.00000" pt_clust_8="13000.00000" pt_clust_9="52.55801"></scales>
<clustering>
<clus scale="   52.558">  1  9  2 -1</clus>
<clus scale="   90.383">  7  8 -1 -1</clus>
<clus scale="   90.853">  5  6 -1 -1</clus>
<clus scale="   91.910">  1  7  2 -1</clus>
<clus scale="   52.558">  1  5  2 -1</clus>
</clustering>
</event>
<event>
 9    1  0.1399746E-005  0.2302280E+03  0.7546771E-02  0.1126731E+00
         21   -1    0    0  501  502  0.00000000000E+00  0.00000000000E+00  0.83160438309E+03  0.83160438309E+03  0.00000000000E+00 0.  1.
          1   -1    0    0  502    0 -0.00000000000E+00 -0.00000000000E+00 -0.97846173236E+02  0.97846173236E+02  0.00000000000E+00 0. -1.
         23    2    1    2    0    0 -0.14480760124E+03  0.14024857592E+03  0.20566951782E+03  0.30427661155E+03  0.98211004220E+02 0.  0.
         23    2    1    2    0    0  0.11689249682E+03 -0.18604774482E+03  0.26663701345E+03  0.35827734090E+03  0.94814223065E+02 0.  0.
        -11    1    3    3    0    0 -0.12523590275E+03  0.14727808054E+03  0.20724988029E+03  0.28342084826E+03  0.00000000000E+00 0.  1.
         11    1    3    3    0    0 -0.19571698492E+02 -0.70295046194E+01 -0.15803624692E+01  0.20855763294E+02  0.00000000000E+00 0. -1.
        -13    1    4    4    0    0  0.93157823824E+02 -0.66315621636E+02  0.10131799263E+03  0.15277917869E+03  0.00000000000E+00 0. -1.
         13    1    4    4    0    0  0.23734673000E+02 -0.11973212318E+03  0.16531902082E+03  0.20549816220E+03  0.00000000000E+00 0.  1.
          1    1    1    2  501    0  0.27915104421E+02  0.45799168896E+02  0.26145167859E+03  0.26689660388E+03  0.00000000000E+00 0. -1.
<scales pt_clust_5="13000.00000" pt_clust_6="13000.00000" pt_clust_7="13000.00000" pt_clust_8="13000.00000" pt_clust_9="53.63597"></scales>
<clustering>
<clus scale="   53.636">  1  9  2 -1</clus>
<clus scale="   94.814">  7  8 -1 -1</clus>
<clus scale="   98.211">  5  6 -1 -1</clus>
<clus scale="  228.800">  1  7  2 -1</clus>
<clus scale="   53.636">  1  5  2 -1</clus>
</clustering>
</event>
<event>
 9    1  0.1399746E-005  0.1988488E+03  0.7546771E-02  0.1151649E+00
          2   -1    0    0  502    0 -0.00000000000E+00  0.00000000000E+00  0.85102720142E+03  0.85102720142E+03  0.00000000000E+00 0. -1.
         21   -1    0    0  501  502  0.00000000000E+00 -0.00000000000E+00 -0.12706214380E+03  0.12706214380E+03  0.00000000000E+00 0. -1.
         23    2    1    2    0    0 -0.53500096713E+02 -0.11571562287E+03  0.26808513213E+03  0.31305179850E+03  0.99395295427E+02 0.  0.
         23    2    1    2    0    0  0.18936301091E+03  0.18053929532E+03  0.43133298865E+03  0.51251413188E+03  0.90386952739E+02 0.  0.
        -11    1    3    3    0    0 -0.66546509966E+02 -0.30190209462E+02  0.14788686678E+03  0.16495578833E+03  0.00000000000E+00 0.  1.
         11    1    3    3    0    0  0.13046413252E+02 -0.85525413412E+02  0.12019826534E+03  0.14809601017E+03  0.00000000000E+00 0. -1.
        -13    1    4    4    0    0 -0.32143246143E+01  0.20207525896E+02  0.69013834431E+02  0.71983229494E+02  0.00000000000E+00 0.  1.
         13    1    4    4    0    0  0.19257733553E+03  0.16033176943E+03  0.36231915422E+03  0.44053090239E+03  0.00000000000E+00 0. -1.
          2    1    1    2  501    0 -0.13586291420E+03 -0.64823672450E+02  0.24546936849E+02  0.15252341483E+03  0.00000000000E+00 0. -1.
<scales pt_clust_5="13000.00000" pt_clust_6="13000.00000" pt_clust_7="13000.00000" pt_clust_8="13000.00000" pt_clust_9="150.53518"></scales>
<clustering>
<clus scale="   90.387">  7  8 -1 -1</clus>
<clus scale="   99.395">  5  6 -1 -1</clus>
<clus scale="  150.535">  2  9  1 -1</clus>
<clus scale="  194.503">  2  7  1 -1</clus>
<clus scale="  150.535">  2  5  1 -1</clus>
</clustering>
</event>
<event>
 9    1  0.1399746E-005  0.1022751E+03  0.7546771E-02  0.1277240E+00
         -2   -1    0    0    0  501 -0.00000000000E+00  0.00000000000E+00  0.19943341849E+03  0.19943341849E+03  0.00000000000E+00 0.  1.
         21   -1    0    0  501  502  0.00000000000E+00 -0.00000000000E+00 -0.41385968100E+03  0.41385968100E+03  0.00000000000E+00 0.  1.
         23    2    1    2    0    0  0.54063297417E+02  0.10519706141E+02  0.15675514282E+03  0.18922842421E+03  0.90563333538E+02 0.  0.
         23    2    1    2    0    0 -0.95994615023E+01 -0.95647589636E+01 -0.52851633780E+02  0.10264316374E+03  0.86940724605E+02 0.  0.
        -11    1    4    4    0    0 -0.10651519765E+02  0.37449518151E+02 -0.13138995216E+02  0.41092024510E+02  0.00000000000E+00 0.  1.
         11    1    4    4    0    0  0.10520582628E+01 -0.47014277115E+02 -0.39712638563E+02  0.61551139233E+02  0.00000000000E+00 0. -1.
        -13    1    3    3    0    0  0.15833605892E+02 -0.35277663171E+02  0.29340756525E+02  0.48539639346E+02  0.00000000000E+00 0.  1.
         13    1    3    3    0    0  0.38229691525E+02  0.45797369312E+02  0.12741438630E+03  0.14068878486E+03  0.00000000000E+00 0. -1.
         -2    1    1    2    0  502 -0.44463835914E+02 -0.95494717776E+00 -0.31832977155E+03  0.32142151154E+03  0.00000000000E+00 0.  1.
<scales pt_clust_5="13000.00000" pt_clust_6="13000.00000" pt_clust_7="13000.00000" pt_clust_8="13000.00000" pt_clust_9="44.47409"></scales>
<clustering>
<clus scale="   44.474">  2  9  1 -1</clus>
<clus scale="   86.941">  5  6 -1 -1</clus>
<clus scale="   90.563">  7  8 -1 -1</clus>
<clus scale="   99.082">  2  5  1 -1</clus>
<clus scale="   44.474">  2  5  1 -1</clus>
</clustering>
</event>
<event>
 9    1  0.1399746E-005  0.1101790E+03  0.7546771E-02  0.1260301E+00
         21   -1    0    0  501  502  0.00000000000E+00  0.00000000000E+00  0.12925642979E+03  0.12925642979E+03  0.00000000000E+00 0.  1.
          1   -1    0    0  502    0 -0.00000000000E+00 -0.00000000000E+00 -0.26717867862E+03  0.26717867862E+03  0.00000000000E+00 0. -1.
         23    2    1    2    0    0 -0.59618273611E+02  0.15894598283E+02 -0.20159037355E+03  0.22950305105E+03  0.90697270797E+02 0.  0.
         23    2    1    2    0    0  0.70840970794E+02  0.10067683450E+02  0.23434705811E+02  0.11775160390E+03  0.90534266393E+02 0.  0.
        -11    1    3    3    0    0 -0.47037879257E+02  0.42855107154E+02 -0.70035826406E+02  0.94626313859E+02  0.00000000000E+00 0.  1.
         11    1    3    3    0    0 -0.12580394354E+02 -0.26960508871E+02 -0.13155454715E+03  0.13487673719E+03  0.00000000000E+00 0. -1.
        -11    1    4    4    0    0 -0.21874786292E+02  0.39460987453E+01  0.14899494533E+01  0.22277744949E+02  0.00000000000E+00 0. -1.
         11    1    4    4    0    0  0.92715757086E+02  0.61215847046E+01  0.21944756358E+02  0.95473858951E+02  0.00000000000E+00 0.  1.
          1    1    1    2  501    0 -0.11222697183E+02 -0.25962281733E+02  0.40233418913E+02  0.49180453458E+02  0.00000000000E+00 0. -1.
<scales pt_clust_5="13000.00000" pt_clust_6="13000.00000" pt_clust_7="13000.00000" pt_clust_8="13000.00000" pt_clust_9="28.28408"></scales>
<clustering>
<clus scale="   28.284">  1  9  2 -1</clus>
<clus scale="   90.534">  7  8 -1 -1</clus>
<clus scale="   90.697">  5  6 -1 -1</clus>
<clus scale="  110.045">  1  7  2 -1</clus>
<clus scale="   28.284">  1  5  2 -1</clus>
</clustering>
</event>
<event>
 9    1  0.1399746E-005  0.1056991E+03  0.7546771E-02  0.1276868E+00
         21   -1    0    0  501  502  0.00000000000E+00  0.00000000000E+00  0.41757041561E+03  0.41757041561E+03  0.00000000000E+00 0. -1.
         -1   -1    0    0    0  501 -0.00000000000E+00 -0.00000000000E+00 -0.29615660275E+02  0.29615660275E+02  0.00000000000E+00 0.  1.
         23    2    1    2    0    0 -0.69878548330E+01  0.16397204133E+02  0.19329393249E+03  0.22093741167E+03  0.10551349258E+03 0.  0.
         23    2    1    2    0    0  0.32320461254E+01  0.69752050588E+01  0.16602822724E+03  0.18909760580E+03  0.90185545805E+02 0.  0.
        -11    1    3    3    0    0  0.21796685477E+02 -0.17632845058E+02  0.63399923590E+01  0.28743838048E+02  0.00000000000E+00 0.  1.
         11    1    3    3    0    0 -0.28784540310E+02  0.34030049191E+02  0.18695394013E+03  0.19219357362E+03  0.00000000000E+00 0. -1.
        -13    1    4    4    0    0 -0.35472838416E+02  0.25737419521E+02  0.57067489673E+02  0.71954398104E+02  0.00000000000E+00 0. -1.
         13    1    4    4    0    0  0.38704884541E+02 -0.18762214463E+02  0.10896073757E+03  0.11714320770E+03  0.00000000000E+00 0.  1.
         -1    1    1    2    0  502  0.37558087076E+01 -0.23372409192E+02  0.28632595604E+02  0.37151058417E+02  0.00000000000E+00 0.  1.
<scales pt_clust_5="13000.00000" pt_clust_6="13000.00000" pt_clust_7="13000.00000" pt_clust_8="13000.00000" pt_clust_9="23.67227"></scales>
<clustering>
<clus scale="   23.672">  1  9  2 -1</clus>
<clus scale="   90.186">  7  8 -1 -1</clus>
<clus scale="   90.403">  1  7  2 -1</clus>
<clus scale="  105.513">  5  6 -1 -1</clus>
<clus scale="   23.672">  1  5  2 -1</clus>
</clustering>
</event>
<event>
 9    1  0.1399746E-005  0.1093453E+03  0.7546771E-02  0.1262250E+00
         -3   -1    0    0    0  501 -0.00000000000E+00  0.00000000000E+00  0.40603767408E+03  0.40603767408E+03  0.00000000000E+00 0.  1.
         21   -1    0    0  501  502  0.00000000000E+00 -0.00000000000E+00 -0.40683090619E+03  0.40683090619E+03  0.00000000000E+00 0.  1.
         23    2    1    2    0    0  0.65134572994E+02 -0.60919929817E+01  0.37307640719E+03  0.38925985308E+03  0.89764150083E+02 0.  0.
         23    2    1    2    0    0  0.23969419340E+02  0.24757353316E+02 -0.12349844920E+03  0.15719992487E+03  0.90953228745E+02 0.  0.
        -11    1    4    4    0    0  0.49316740874E+02  0.43220133471E+02 -0.89439989621E+02  0.11090370873E+03  0.00000000000E+00 0.  1.
         11    1    4    4    0    0 -0.25347321534E+02 -0.18462780155E+02 -0.34058459578E+02  0.46296216139E+02  0.00000000000E+00 0. -1.
        -13    1    3    3    0    0  0.11326908212E+02 -0.43868385865E+02  0.14844900161E+03  0.15520902103E+03  0.00000000000E+00 0.  1.
         13    1    3    3    0    0  0.53807664782E+02  0.37776392883E+02  0.22462740557E+03  0.23405083205E+03  0.00000000000E+00 0. -1.
         -3    1    1    2    0  502 -0.89103992334E+02 -0.18665360334E+02 -0.25037119009E+03  0.26640880232E+03  0.00000000000E+00 0.  1.
<scales pt_clust_5="13000.00000" pt_clust_6="13000.00000" pt_clust_7="13000.00000" pt_clust_8="13000.00000" pt_clust_9="91.03800"></scales>
<clustering>
<clus scale="   89.764">  7  8 -1 -1</clus>
<clus scale="   90.953">  5  6 -1 -1</clus>
<clus scale="   91.038">  2  9  1 -1</clus>
<clus scale="  108.358">  1  7  2 -1</clus>
<clus scale="   91.038">  2  5  1 -1</clus>
</clustering>
</event>
<event>
 9    1  0.1399746E-005  0.1082161E+03  0.7546771E-02  0.1265047E+00
         21   -1    0    0  501  502  0.00000000000E+00  0.00000000000E+00  0.40908561402E+02  0.40908561402E+02  0.00000000000E+00 0.  1.
          2   -1    0    0  502    0 -0.00000000000E+00 -0.00000000000E+00 -0.64419520786E+03  0.64419520786E+03  0.00000000000E+00 0. -1.
         23    2    1    2    0    0  0.35949582267E+02  0.46886442432E+02 -0.36976221467E+03  0.38617734424E+03  0.94435876953E+02 0.  0.
         23    2    1    2    0    0  0.32569886527E+02 -0.59587305537E+02 -0.16925491054E+03  0.20412768617E+03  0.91703015376E+02 0.  0.
        -11    1    3    3    0    0  0.43270819242E+02 -0.61456942609E+01 -0.76809895766E+02  0.88373601508E+02  0.00000000000E+00 0.  1.
         11    1    3    3    0    0 -0.73212369751E+01  0.53032136693E+02 -0.29295231890E+03  0.29780374273E+03  0.00000000000E+00 0. -1.
        -11    1    4    4    0    0  0.78882075132E+01 -0.37049301818E+02 -0.16631579319E+03  0.17057496196E+03  0.00000000000E+00 0. -1.
         11    1    4    4    0    0  0.24681679014E+02 -0.22538003719E+02 -0.29391173419E+01  0.33552724202E+02  0.00000000000E+00 0.  1.
          2    1    1    2  501    0 -0.68519468794E+02  0.12700863105E+02 -0.64269521254E+02  0.94798738861E+02  0.00000000000E+00 0. -1.
<scales pt_clust_5="13000.00000" pt_clust_6="13000.00000" pt_clust_7="13000.00000" pt_clust_8="13000.00000" pt_clust_9="69.68665"></scales>
<clustering>
<clus scale="   69.687">  1  9  2 -1</clus>
<clus scale="   91.703">  7  8 -1 -1</clus>
<clus scale="   94.436">  5  6 -1 -1</clus>
<clus scale="  105.840">  1  7  2 -1</clus>
<clus scale="   69.687">  1  5  2 -1</clus>
</clustering>
</event>
<event>
 9    1  0.1399746E-005  0.1343258E+03  0.7546771E-02  0.1221669E+00
          2   -1    0    0  502    0 -0.00000000000E+00  0.00000000000E+00  0.70552623074E+02  0.70552623074E+02  0.00000000000E+00 0. -1.
         21   -1    0    0  501  502  0.00000000000E+00 -0.00000000000E+00 -0.34068267448E+03  0.34068267448E+03  0.00000000000E+00 0.  1.
         23    2    1    2    0    0  0.49297084282E+02  0.73542245477E+02 -0.72733598957E+02  0.14750279313E+03  0.92888283298E+02 0.  0.
         23    2    1    2    0    0 -0.64216015330E+02 -0.88611059380E+02 -0.12865957668E+03  0.19179918985E+03  0.90873682026E+02 0.  0.
        -13    1    3    3    0    0 -0.22034756481E+02  0.43994224322E+02 -0.40919712881E+02  0.63995665237E+02  0.00000000000E+00 0.  1.
         13    1    3    3    0    0  0.71331840764E+02  0.29548021156E+02 -0.31813886076E+02  0.83507127889E+02  0.00000000000E+00 0. -1.
        -13    1    4    4    0    0 -0.24961031856E+02 -0.97903165885E+02 -0.10118989663E+03  0.14299467885E+03  0.00000000000E+00 0. -1.
         13    1    4    4    0    0 -0.39254983475E+02  0.92921065048E+01 -0.27469680053E+02  0.48804510991E+02  0.00000000000E+00 0.  1.
          2    1    1    2  501    0  0.14918931048E+02  0.15068813902E+02 -0.68736875767E+02  0.71933314578E+02  0.00000000000E+00 0. -1.
<scales pt_clust_5="13000.00000" pt_clust_6="13000.00000" pt_clust_7="13000.00000" pt_clust_8="13000.00000" pt_clust_9="21.20480"></scales>
<clustering>
<clus scale="   21.205">  2  9  1 -1</clus>
<clus scale="   90.874">  7  8 -1 -1</clus>
<clus scale="   92.888">  5  6 -1 -1</clus>
<clus scale="  132.941">  2  7  1 -1</clus>
<clus scale="   21.205">  2  5  1 -1</clus>
</clustering>
</event>
<event>
 9    1  0.1399746E-005  0.1023512E+03  0.7546771E-02  0.1276504E+00
         21   -1    0    0  501  502  0.00000000000E+00  0.00000000000E+00  0.48143655744E+02  0.48143655744E+02  0.00000000000E+00 0. -1.
          2   -1    0    0  502    0 -0.00000000000E+00 -0.00000000000E+00 -0.72782754042E+03  0.72782754042E+03  0.00000000000E+00 0. -1.
         23    2    1    2    0    0 -0.31654422082E+02 -0.22597440696E+02 -0.48873598281E+03  0.49856506998E+03  0.90507576161E+02 0.  0.
         23    2    1    2    0    0  0.54680933260E+02  0.14650302940E+02 -0.21640108433E+03  0.24217486574E+03  0.92814871973E+02 0.  0.
        -11    1    4    4    0    0 -0.13934975723E+01  0.43072216994E+02 -0.11565904956E+03  0.12342679392E+03  0.00000000000E+00 0.  1.
         11    1    4    4    0    0  0.56074430833E+02 -0.28421914054E+02 -0.10074203476E+03  0.11874807181E+03  0.00000000000E+00 0. -1.
        -13    1    3    3    0    0  0.15734597111E+02  0.25936289289E+02 -0.17086333455E+03  0.17353543656E+03  0.00000000000E+00 0.  1.
         13    1    3    3    0    0 -0.47389019193E+02 -0.48533729985E+02 -0.31787264826E+03  0.32502963341E+03  0.00000000000E+00 0. -1.
          2    1    1    2  501    0 -0.23026511178E+02  0.79471377559E+01  0.25453182460E+02  0.35231260450E+02  0.00000000000E+00 0. -1.
<scales pt_clust_5="13000.00000" pt_clust_6="13000.00000" pt_clust_7="13000.00000" pt_clust_8="13000.00000" pt_clust_9="24.35934"></scales>
<clustering>
<clus scale="   24.359">  1  9  2 -1</clus>
<clus scale="   90.508">  7  8 -1 -1</clus>
<clus scale="   92.815">  5  6 -1 -1</clus>
<clus scale="  100.264">  2  7  1 -1</clus>
<clus scale="   24.359">  1  5  2 -1</clus>
</clustering>
</event>
<event>
 9    1  0.1399746E-005  0.9333918E+02  0.7546771E-02  0.1297804E+00
          4   -1    0    0  502    0 -0.00000000000E+00  0.00000000000E+00  0.19515664039E+03  0.19515664039E+03  0.00000000000E+00 0. -1.
         21   -1    0    0  501  502  0.00000000000E+00 -0.00000000000E+00 -0.95001255615E+02  0.95001255615E+02  0.00000000000E+00 0. -1.
         23    2    1    2    0    0 -0.41591612869E+02 -0.98909871697E+01  0.87388817113E+02  0.12922327323E+03  0.85053836485E+02 0.  0.
         23    2    1    2    0    0 -0.24561801146E+01  0.11069136051E+02  0.49679708098E+02  0.10345266005E+03  0.90032332421E+02 0.  0.
        -11    1    3    3    0    0 -0.43129331426E+02 -0.42662425126E+02  0.44553454323E+02  0.75267735711E+02  0.00000000000E+00 0.  1.
         11    1    3    3    0    0  0.15377185571E+01  0.32771437957E+02  0.42835362789E+02  0.53955537523E+02  0.00000000000E+00 0. -1.
        -11    1    4    4    0    0 -0.78931783142E+01 -0.38529381248E+02  0.31354420181E+02  0.50298261879E+02  0.00000000000E+00 0.  1.
         11    1    4    4    0    0  0.54369981996E+01  0.49598517299E+02  0.18325287917E+02  0.53154398171E+02  0.00000000000E+00 0. -1.
          4    1    1    2  501    0  0.44047792984E+02 -0.11781488818E+01 -0.36913140435E+02  0.57481962721E+02  0.00000000000E+00 0. -1.
<scales pt_clust_5="13000.00000" pt_clust_6="13000.00000" pt_clust_7="13000.00000" pt_clust_8="13000.00000" pt_clust_9="44.06355"></scales>
<clustering>
<clus scale="   44.064">  2  9  1 -1</clus>
<clus scale="   85.054">  5  6 -1 -1</clus>
<clus scale="   88.547">  1  5  2 -1</clus>
<clus scale="   90.032">  7  8 -1 -1</clus>
<clus scale="   44.064">  2  5  1 -1</clus>
</clustering>
</event>
<event>
 9    1  0.1399746E-005  0.1753037E+03  0.7546771E-02  0.1201131E+00
         21   -1    0    0  501  502  0.00000000000E+00  0.00000000000E+00  0.23357217830E+03  0.23357217830E+03  0.00000000000E+00 0.  1.
          1   -1    0    0  502    0 -0.00000000000E+00 -0.00000000000E+00 -0.24942263209E+03  0.24942263209E+03  0.00000000000E+00 0. -1.
         23    2    1    2    0    0  0.10907762491E+02  0.14524555523E+02 -0.74391570439E+02  0.11881148862E+03  0.90841191534E+02 0.  0.
         23    2    1    2    0    0 -0.10788393803E+03 -0.12040525400E+03 -0.38560943989E+02  0.19085152691E+03  0.93813589874E+02 0.  0.
        -11    1    4    4    0    0  0.29430257724E+01 -0.49974997490E+02 -0.31917629570E+02  0.59370841767E+02  0.00000000000E+00 0. -1.
         11    1    4    4    0    0 -0.11082696380E+03 -0.70430256513E+02 -0.66433144186E+01  0.13148068514E+03  0.00000000000E+00 0.  1.
        -13    1    3    3    0    0 -0.11847647703E+02  0.36646831848E+02 -0.63810327065E+00  0.38519660128E+02  0.00000000000E+00 0. -1.
         13    1    3    3    0    0  0.22755410193E+02 -0.22122276325E+02 -0.73753467168E+02  0.80291828489E+02  0.00000000000E+00 0.  1.
          1    1    1    2  501    0  0.96976175540E+02  0.10588069848E+03  0.97102060631E+02  0.17333179487E+03  0.00000000000E+00 0. -1.
<scales pt_clust_5="13000.00000" pt_clust_6="13000.00000" pt_clust_7="13000.00000" pt_clust_8="13000.00000" pt_clust_9="148.08911"></scales>
<clustering>
<clus scale="   90.841">  7  8 -1 -1</clus>
<clus scale="   92.639">  2  7  1 -1</clus>
<clus scale="   93.814">  5  6 -1 -1</clus>
<clus scale="  148.089">  1  9  2 -1</clus>
<clus scale="  148.089">  1  5  2 -1</clus>
</clustering>
</event>
<event>
 9    1  0.1399746E-005  0.1132026E+03  0.7546771E-02  0.1256523E+00
          3   -1    0    0  502    0 -0.00000000000E+00  0.00000000000E+00  0.81460136626E+02  0.81460136626E+02  0.00000000000E+00 0. -1.
         21   -1    0    0  501  502  0.00000000000E+00 -0.00000000000E+00 -0.31678140952E+03  0.31678140952E+03  0.00000000000E+00 0.  1.
         23    2    1    2    0    0 -0.11176739450E+02 -0.52165364163E+02 -0.74426765761E+00  0.10957639303E+03  0.95709389567E+02 0.  0.
         23    2    1    2    0    0  0.34898631510E+02  0.73330786814E+02 -0.12544558170E+03  0.17499734377E+03  0.91061284766E+02 0.  0.
        -11    1    3    3    0    0 -0.66938328070E+01  0.21052188619E+02 -0.24004368752E+02  0.32622258697E+02  0.00000000000E+00 0.  1.
         11    1    3    3    0    0 -0.44829066427E+01 -0.73217552783E+02  0.23260101094E+02  0.76954134329E+02  0.00000000000E+00 0. -1.
        -11    1    4    4    0    0  0.58758967111E+02  0.67219728832E+02 -0.12034100479E+03  0.14984347031E+03  0.00000000000E+00 0.  1.
         11    1    4    4    0    0 -0.23860335602E+02  0.61110579824E+01 -0.51045769064E+01  0.25153873461E+02  0.00000000000E+00 0. -1.
          3    1    1    2  501    0 -0.23721892060E+02 -0.21165422651E+02 -0.10913142354E+03  0.11366780935E+03  0.00000000000E+00 0. -1.
<scales pt_clust_5="13000.00000" pt_clust_6="13000.00000" pt_clust_7="13000.00000" pt_clust_8="13000.00000" pt_clust_9="31.79156"></scales>
<clustering>
<clus scale="   31.792">  2  9  1 -1</clus>
<clus scale="   91.061">  7  8 -1 -1</clus>
<clus scale="   95.709">  5  6 -1 -1</clus>
<clus scale="  109.301">  2  7  1 -1</clus>
<clus scale="   31.792">  2  5  1 -1</clus>
</clustering>
</event>
<event>
 9    1  0.1399746E-005  0.1320884E+03  0.7546771E-02  0.1229744E+00
          2   -1    0    0  502    0 -0.00000000000E+00  0.00000000000E+00  0.28523258065E+03  0.28523258065E+03  0.00000000000E+00 0. -1.
         21   -1    0    0  501  502  0.00000000000E+00 -0.00000000000E+00 -0.71963776047E+03  0.71963776047E+03  0.00000000000E+00 0. -1.
         23    2    1    2    0    0  0.11950907223E+03  0.24068442960E+02  0.16602167591E+03  0.23174551113E+03  0.10621241342E+03 0.  0.
         23    2    1    2    0    0 -0.39571550651E+02  0.30365318640E+02  0.51699810518E+02  0.11386598053E+03  0.88343822181E+02 0.  0.
        -11    1    3    3    0    0  0.60365625234E+02 -0.41585143789E+02  0.77069284072E+02  0.10636262239E+03  0.00000000000E+00 0.  1.
         11    1    3    3    0    0  0.59143446998E+02  0.65653586748E+02  0.88952391838E+02  0.12538288874E+03  0.00000000000E+00 0. -1.
        -13    1    4    4    0    0  0.12761919425E+02  0.43899635583E+02  0.34044117566E+02  0.57000408179E+02  0.00000000000E+00 0. -1.
         13    1    4    4    0    0 -0.52333470076E+02 -0.13534316943E+02  0.17655692953E+02  0.56865572352E+02  0.00000000000E+00 0.  1.
          2    1    1    2  501    0 -0.79937521581E+02 -0.54433761600E+02 -0.65212666625E+03  0.65925884946E+03  0.00000000000E+00 0. -1.
<scales pt_clust_5="13000.00000" pt_clust_6="13000.00000" pt_clust_7="13000.00000" pt_clust_8="13000.00000" pt_clust_9="96.71113"></scales>
<clustering>
<clus scale="   88.344">  7  8 -1 -1</clus>
<clus scale="   96.711">  2  9  1 -1</clus>
<clus scale="  106.212">  5  6 -1 -1</clus>
<clus scale="  118.199">  2  7  1 -1</clus>
<clus scale="   96.711">  2  5  1 -1</clus>
</clustering>
</event>
<event>
 9    1  0.1399746E-005  0.1251704E+03  0.7546771E-02  0.1246877E+00
          2   -1    0    0  502    0 -0.00000000000E+00  0.00000000000E+00  0.44478355492E+03  0.44478355492E+03  0.00000000000E+00 0. -1.
         21   -1    0    0  501  502  0.00000000000E+00 -0.00000000000E+00 -0.10268316593E+03  0.10268316593E+03  0.00000000000E+00 0.  1.
         23    2    1    2    0    0 -0.37038916935E+02 -0.12957463700E+02  0.31864745370E+03  0.33393795948E+03  0.91861764629E+02 0.  0.
         23    2    1    2    0    0  0.82013123923E+01  0.13563069632E+02  0.83162790573E+02  0.14721706548E+03  0.12043918071E+03 0.  0.
        -11    1    3    3    0    0  0.24079130915E+02  0.95760789819E+01  0.39143290761E+02  0.46943615603E+02  0.00000000000E+00 0.  1.
         11    1    3    3    0    0 -0.61118047850E+02 -0.22533542682E+02  0.27950416294E+03  0.28699434388E+03  0.00000000000E+00 0. -1.
        -13    1    4    4    0    0  0.23251149582E+02  0.63114774823E+02  0.61300795320E+02  0.91004825502E+02  0.00000000000E+00 0.  1.
         13    1    4    4    0    0 -0.15049837190E+02 -0.49551705191E+02  0.21861995253E+02  0.56212239977E+02  0.00000000000E+00 0. -1.
          2    1    1    2  501    0  0.28837604543E+02 -0.60560593182E+00 -0.59709855276E+02  0.66311695887E+02  0.00000000000E+00 0. -1.
<scales pt_clust_5="13000.00000" pt_clust_6="13000.00000" pt_clust_7="13000.00000" pt_clust_8="13000.00000" pt_clust_9="28.84396"></scales>
<clustering>
<clus scale="   28.844">  2  9  1 -1</clus>
<clus scale="   91.862">  5  6 -1 -1</clus>
<clus scale="   97.983">  1  5  2 -1</clus>
<clus scale="  120.439">  7  8 -1 -1</clus>
<clus scale="   28.844">  2  5  1 -1</clus>
</clustering>
</event>
<event>
 9    1  0.1399746E-005  0.2459043E+03  0.7546771E-02  0.1116020E+00
         21   -1    0    0  501  502  0.00000000000E+00  0.00000000000E+00  0.69576068270E+03  0.69576068270E+03  0.00000000000E+00 0.  1.
          1   -1    0    0  502    0 -0.00000000000E+00 -0.00000000000E+00 -0.10365979773E+03  0.10365979773E+03  0.00000000000E+00 0. -1.
         23    2    1    2    0    0  0.21456815712E+02  0.22801107106E+03  0.20928632281E+03  0.32355400025E+03  0.91853049458E+02 0.  0.
         23    2    1    2    0    0 -0.54688676873E+02 -0.22159826168E+03  0.35736022038E+03  0.43351787647E+03  0.90193021639E+02 0.  0.
        -11    1    4    4    0    0 -0.40364740850E+02 -0.12050375551E+03  0.27278313275E+03  0.30093372179E+03  0.00000000000E+00 0.  1.
         11    1    4    4    0    0 -0.14323936023E+02 -0.10109450617E+03  0.84577087629E+02  0.13258415468E+03  0.00000000000E+00 0. -1.
        -11    1    3    3    0    0 -0.25988646353E+02  0.12524754292E+03  0.14510221903E+03  0.19343477121E+03  0.00000000000E+00 0.  1.
         11    1    3    3    0    0  0.47445462065E+02  0.10276352814E+03  0.64184103777E+02  0.13011922904E+03  0.00000000000E+00 0. -1.
          1    1    1    2  501    0  0.33231861161E+02 -0.64128093853E+01  0.25454341776E+02  0.42348603704E+02  0.00000000000E+00 0. -1.
<scales pt_clust_5="13000.00000" pt_clust_6="13000.00000" pt_clust_7="13000.00000" pt_clust_8="13000.00000" pt_clust_9="33.84497"></scales>
<clustering>
<clus scale="   33.845">  1  9  2 -1</clus>
<clus scale="   90.193">  5  6 -1 -1</clus>
<clus scale="   91.853">  7  8 -1 -1</clus>
<clus scale="  245.289">  1  5  2 -1</clus>
<clus scale="   33.845">  1  5  2 -1</clus>
</clustering>
</event>
<event>
 9    1  0.1399746E-005  0.9897555E+02  0.7546771E-02  0.1283632E+00
         21   -1    0    0  501  502  0.00000000000E+00  0.00000000000E+00  0.47032490969E+02  0.47032490969E+02  0.00000000000E+00 0.  1.
          2   -1    0    0  502    0 -0.00000000000E+00 -0.00000000000E+00 -0.33351264248E+03  0.33351264248E+03  0.00000000000E+00 0. -1.
         23    2    1    2    0    0  0.33793566541E+02  0.25697729610E+02 -0.18154718254E+03  0.20789607165E+03  0.91972923587E+02 0.  0.
         23    2    1    2    0    0 -0.16008446600E+02  0.11088764119E+02 -0.73154373208E+02  0.12088579528E+03  0.94247451574E+02 0.  0.
        -11    1    3    3    0    0  0.59334820382E+02 -0.58913195063E+01 -0.12228243887E+03  0.13604529911E+03  0.00000000000E+00 0.  1.
         11    1    3    3    0    0 -0.25541253841E+02  0.31589049116E+02 -0.59264743668E+02  0.71850772535E+02  0.00000000000E+00 0. -1.
        -11    1    4    4    0    0  0.16670950276E+02  0.27819253641E+02 -0.77407581847E+02  0.83927142116E+02  0.00000000000E+00 0. -1.
         11    1    4    4    0    0 -0.32679396875E+02 -0.16730489522E+02  0.42532086397E+01  0.36958653162E+02  0.00000000000E+00 0.  1.
          2    1    1    2  501    0 -0.17785119941E+02 -0.36786493728E+02 -0.31778595764E+02  0.51763266521E+02  0.00000000000E+00 0. -1.
<scales pt_clust_5="13000.00000" pt_clust_6="13000.00000" pt_clust_7="13000.00000" pt_clust_8="13000.00000" pt_clust_9="40.86021"></scales>
<clustering>
<clus scale="   40.860">  1  9  2 -1</clus>
<clus scale="   91.973">  5  6 -1 -1</clus>
<clus scale="   94.247">  7  8 -1 -1</clus>
<clus scale="   96.812">  2  5  1 -1</clus>
<clus scale="   40.860">  1  5  2 -1</clus>
</clustering>
</event>
<event>
 9    1  0.1399746E-005  0.1168070E+03  0.7546771E-02  0.1249308E+00
         21   -1    0    0  501  502  0.00000000000E+00  0.00000000000E+00  0.21465489007E+02  0.21465489007E+02  0.00000000000E+00 0.  1.
          1   -1    0    0  502    0 -0.00000000000E+00 -0.00000000000E+00 -0.11863421927E+04  0.11863421927E+04  0.00000000000E+00 0. -1.
         23    2    1    2    0    0 -0.70795052292E+02 -0.35798298343E+02 -0.71589963535E+03  0.72605711209E+03  0.91395757684E+02 0.  0.
         23    2    1    2    0    0  0.48943887047E+02  0.28756458894E+02 -0.44516412264E+03  0.45847827961E+03  0.93855201176E+02 0.  0.
        -11    1    3    3    0    0 -0.27750111548E+02 -0.63858049990E+02 -0.40658884081E+03  0.41250746019E+03  0.00000000000E+00 0. -1.
         11    1    3    3    0    0 -0.43044940744E+02  0.28059751648E+02 -0.30931079454E+03  0.31354965190E+03  0.00000000000E+00 0.  1.
        -11    1    4    4    0    0  0.77175945309E+02  0.24937559772E+02 -0.32098541045E+03  0.33107346940E+03  0.00000000000E+00 0.  1.
         11    1    4    4    0    0 -0.28232058263E+02  0.38188991221E+01 -0.12417871219E+03  0.12740481021E+03  0.00000000000E+00 0. -1.
          1    1    1    2  501    0  0.21851165245E+02  0.70418394488E+01 -0.38129456606E+01  0.23272289961E+02  0.00000000000E+00 0. -1.
<scales pt_clust_5="13000.00000" pt_clust_6="13000.00000" pt_clust_7="13000.00000" pt_clust_8="13000.00000" pt_clust_9="22.95781"></scales>
<clustering>
<clus scale="   22.958">  1  9  2 -1</clus>
<clus scale="   91.396">  5  6 -1 -1</clus>
<clus scale="   93.855">  7  8 -1 -1</clus>
<clus scale="  114.840">  2  5  1 -1</clus>
<clus scale="   22.958">  1  5  2 -1</clus>
</clustering>
</event>
<event>
 9    1  0.1399746E-005  0.9990387E+02  0.7546771E-02  0.1282131E+00
         21   -1    0    0  501  502  0.00000000000E+00  0.00000000000E+00  0.31030479048E+03  0.31030479048E+03  0.00000000000E+00 0.  1.
          3   -1    0    0  502    0 -0.00000000000E+00 -0.00000000000E+00 -0.15796557225E+03  0.15796557225E+03  0.00000000000E+00 0. -1.
         23    2    1    2    0    0  0.13979438875E+02 -0.29024206931E+02 -0.94247818408E+02  0.13712846891E+03  0.94253575057E+02 0.  0.
         23    2    1    2    0    0  0.68833180620E+02  0.63773089844E+02  0.15688483921E+03  0.20420923831E+03  0.91013990649E+02 0.  0.
        -11    1    4    4    0    0  0.10200700385E+02  0.39174309008E+02  0.12822852019E+03  0.13446647971E+03  0.00000000000E+00 0.  1.
         11    1    4    4    0    0  0.58632480235E+02  0.24598780836E+02  0.28656319013E+02  0.69742758595E+02  0.00000000000E+00 0. -1.
        -11    1    3    3    0    0 -0.33453239977E+02 -0.37067236567E+02 -0.60081423320E+02  0.78120910900E+02  0.00000000000E+00 0. -1.
         11    1    3    3    0    0  0.47432678852E+02  0.80430296358E+01 -0.34166395088E+02  0.59007558008E+02  0.00000000000E+00 0.  1.
          3    1    1    2  501    0 -0.82812619495E+02 -0.34748882912E+02  0.89702197436E+02  0.12693265551E+03  0.00000000000E+00 0. -1.
<scales pt_clust_5="13000.00000" pt_clust_6="13000.00000" pt_clust_7="13000.00000" pt_clust_8="13000.00000" pt_clust_9="89.80765"></scales>
<clustering>
<clus scale="   89.808">  1  9  2 -1</clus>
<clus scale="   91.014">  5  6 -1 -1</clus>
<clus scale="   94.254">  7  8 -1 -1</clus>
<clus scale="   96.853">  1  5  2 -1</clus>
<clus scale="   89.808">  1  5  2 -1</clus>
</clustering>
</event>
<event>
 9    1  0.1399746E-005  0.1191448E+03  0.7546771E-02  0.1244944E+00
         -2   -1    0    0    0  501 -0.00000000000E+00  0.00000000000E+00  0.86066027445E+02  0.86066027445E+02  0.00000000000E+00 0. -1.
         21   -1    0    0  501  502  0.00000000000E+00 -0.00000000000E+00 -0.31731161559E+03  0.31731161559E+03  0.00000000000E+00 0.  1.
         23    2    1    2    0    0  0.31355259348E+02 -0.64782373994E+02 -0.77740307785E+01  0.11528426384E+03  0.89722447946E+02 0.  0.
         23    2    1    2    0    0 -0.23639472934E+02  0.10112532685E+03 -0.20599799835E+03  0.24703648152E+03  0.88355483493E+02 0.  0.
        -11    1    3    3    0    0 -0.13991128375E+02  0.15840539728E+02 -0.85025399475E+01  0.22780859458E+02  0.00000000000E+00 0.  1.
         11    1    3    3    0    0  0.45346387723E+02 -0.80622913722E+02  0.72850916902E+00  0.92503404381E+02  0.00000000000E+00 0. -1.
        -11    1    4    4    0    0  0.19267884303E+02  0.24849818355E+02 -0.11022292243E+02  0.33320500657E+02  0.00000000000E+00 0. -1.
         11    1    4    4    0    0 -0.42907357237E+02  0.76275508498E+02 -0.19497570611E+03  0.21371598086E+03  0.00000000000E+00 0.  1.
         -2    1    1    2    0  502 -0.77157864132E+01 -0.36342952859E+02 -0.17473559017E+02  0.41056897681E+02  0.00000000000E+00 0. -1.
<scales pt_clust_5="13000.00000" pt_clust_6="13000.00000" pt_clust_7="13000.00000" pt_clust_8="13000.00000" pt_clust_9="37.15299"></scales>
<clustering>
<clus scale="   37.153">  2  9  1 -1</clus>
<clus scale="   88.355">  7  8 -1 -1</clus>
<clus scale="   89.722">  5  6 -1 -1</clus>
<clus scale="  118.119">  2  7  1 -1</clus>
<clus scale="   37.153">  2  5  1 -1</clus>
</clustering>
</event>
<event>
 9    1  0.1399746E-005  0.1352372E+03  0.7546771E-02  0.1238529E+00
          1   -1    0    0  502    0 -0.00000000000E+00  0.00000000000E+00  0.28244956562E+03  0.28244956562E+03  0.00000000000E+00 0. -1.
         21   -1    0    0  501  502  0.00000000000E+00 -0.00000000000E+00 -0.95931428041E+02  0.95931428041E+02  0.00000000000E+00 0.  1.
         23    2    1    2    0    0  0.11737565120E+02  0.15173423952E+02  0.49725850822E+02  0.10455665769E+03  0.89952382948E+02 0.  0.
         23    2    1    2    0    0 -0.10452518423E+03 -0.34811457876E+02  0.75457831370E+02  0.16087695860E+03  0.89722682499E+02 0.  0.
        -13    1    3    3    0    0 -0.32553626066E+02 -0.96824972098E+01  0.70654438089E+00  0.33970406639E+02  0.00000000000E+00 0.  1.
         13    1    3    3    0    0  0.44291191186E+02  0.24855921162E+02  0.49019306441E+02  0.70586251051E+02  0.00000000000E+00 0. -1.
        -13    1    4    4    0    0 -0.72709072163E+02 -0.27165054760E+02  0.95067541044E+02  0.12272891564E+03  0.00000000000E+00 0. -1.
         13    1    4    4    0    0 -0.31816112071E+02 -0.76464031167E+01 -0.19609709674E+02  0.38148042957E+02  0.00000000000E+00 0.  1.
          1    1    1    2  501    0  0.92787619114E+02  0.19638033924E+02  0.61334455386E+02  0.11294737737E+03  0.00000000000E+00 0. -1.
<scales pt_clust_5="13000.00000" pt_clust_6="13000.00000" pt_clust_7="13000.00000" pt_clust_8="13000.00000" pt_clust_9="101.18770"></scales>
<clustering>
<clus scale="   89.723">  7  8 -1 -1</clus>
<clus scale="   89.952">  5  6 -1 -1</clus>
<clus scale="   91.975">  1  5  2 -1</clus>
<clus scale="  101.188">  2  9  1 -1</clus>
<clus scale="  101.188">  2  5  1 -1</clus>
</clustering>
</event>
<event>
 9    1  0.1399746E-005  0.1644264E+03  0.7546771E-02  0.1184310E+00
          1   -1    0    0  502    0 -0.00000000000E+00  0.00000000000E+00  0.55718208664E+03  0.55718208664E+03  0.00000000000E+00 0. -1.
         21   -1    0    0  501  502  0.00000000000E+00 -0.00000000000E+00 -0.11645828041E+03  0.11645828041E+03  0.00000000000E+00 0. -1.
         23    2    1    2    0    0  0.99980825469E+02 -0.10240768055E+03  0.34397398798E+03  0.38352194716E+03  0.91035603197E+02 0.  0.
         23    2    1    2    0    0 -0.92305284463E+02  0.79205726278E+02  0.16016062674E+03  0.22216126246E+03  0.94394849253E+02 0.  0.
        -13    1    4    4    0    0 -0.68547262871E+02  0.10001577678E+03  0.11547193608E+03  0.16743849878E+03  0.00000000000E+00 0.  1.
         13    1    4    4    0    0 -0.23758021592E+02 -0.20810050502E+02  0.44688690659E+02  0.54722763679E+02  0.00000000000E+00 0. -1.
        -13    1    3    3    0    0  0.18623733063E+02 -0.83969492194E+02  0.16554119821E+03  0.18655188918E+03  0.00000000000E+00 0.  1.
         13    1    3    3    0    0  0.81357092406E+02 -0.18438188354E+02  0.17843278977E+03  0.19697005798E+03  0.00000000000E+00 0. -1.
          1    1    1    2  501    0 -0.76755410064E+01  0.23201954269E+02 -0.63410808490E+02  0.67957157423E+02  0.00000000000E+00 0. -1.
<scales pt_clust_5="13000.00000" pt_clust_6="13000.00000" pt_clust_7="13000.00000" pt_clust_8="13000.00000" pt_clust_9="24.43859"></scales>
<clustering>
<clus scale="   24.439">  2  9  1 -1</clus>
<clus scale="   91.036">  7  8 -1 -1</clus>
<clus scale="   94.395">  5  6 -1 -1</clus>
<clus scale="  162.521">  1  7  2 -1</clus>
<clus scale="   24.439">  2  5  1 -1</clus>
</clustering>
</event>
<event>
 9    1  0.1399746E-005  0.1592991E+03  0.7546771E-02  0.1191741E+00
         21   -1    0    0  501  502  0.00000000000E+00  0.00000000000E+00  0.47600791613E+03  0.47600791613E+03  0.00000000000E+00 0. -1.
          1   -1    0    0  502    0 -0.00000000000E+00 -0.00000000000E+00 -0.94402041719E+02  0.94402041719E+02  0.00000000000E+00 0. -1.
         23    2    1    2    0    0  0.89335886187E+02 -0.94499579213E+02  0.43862629028E+02  0.15769802665E+03  0.77676678293E+02 0.  0.
         23    2    1    2    0    0 -0.50063997325E+02  0.12748404571E+03  0.16807061561E+03  0.23545771382E+03  0.91836906677E+02 0.  0.
        -11    1    4    4    0    0 -0.22456711848E+02  0.87020172193E+02  0.40060524580E+02  0.98395426241E+02  0.00000000000E+00 0. -1.
         11    1    4    4    0    0 -0.27607285477E+02  0.40463873517E+02  0.12801009103E+03  0.13706228758E+03  0.00000000000E+00 0.  1.
        -13    1    3    3    0    0 -0.21092019142E+01 -0.27657118723E+02  0.34174525324E+02  0.44014351408E+02  0.00000000000E+00 0.  1.
         13    1    3    3    0    0  0.91445088101E+02 -0.66842460490E+02  0.96881037033E+01  0.11368367524E+03  0.00000000000E+00 0. -1.
          1    1    1    2  501    0 -0.39271888862E+02 -0.32984466497E+02  0.16967262978E+03  0.17725421738E+03  0.00000000000E+00 0. -1.
<scales pt_clust_5="13000.00000" pt_clust_6="13000.00000" pt_clust_7="13000.00000" pt_clust_8="13000.00000" pt_clust_9="51.28602"></scales>
<clustering>
<clus scale="   51.286">  1  9  2 -1</clus>
<clus scale="   77.677">  7  8 -1 -1</clus>
<clus scale="   91.837">  5  6 -1 -1</clus>
<clus scale="  151.578">  2  7  1 -1</clus>
<clus scale="   51.286">  1  5  2 -1</clus>
</clustering>
</event>
<event>
 9    1  0.1399746E-005  0.1948812E+03  0.7546771E-02  0.1154325E+00
         -1   -1    0    0    0  501 -0.00000000000E+00  0.00000000000E+00  0.74456095422E+03  0.74456095422E+03  0.00000000000E+00 0.  1.
         21   -1    0    0  501  502  0.00000000000E+00 -0.00000000000E+00 -0.15391915997E+03  0.15391915997E+03  0.00000000000E+00 0.  1.
         23    2    1    2    0    0  0.16093727886E+03 -0.35695095605E+02  0.59907956936E+03  0.62963076294E+03  0.10180186462E+03 0.  0.
         23    2    1    2    0    0 -0.16318306283E+03  0.62277934352E+02  0.47534410222E+02  0.20684470310E+03  0.10008974945E+03 0.  0.
        -13    1    3    3    0    0  0.13330282489E+03 -0.69205889760E+02  0.47360229598E+03  0.49684829984E+03  0.00000000000E+00 0.  1.
         13    1    3    3    0    0  0.27634453977E+02  0.33510794155E+02  0.12547727338E+03  0.13278246310E+03  0.00000000000E+00 0. -1.
        -13    1    4    4    0    0 -0.56977205346E+02  0.39166540471E+02  0.67167376790E+02  0.96394379123E+02  0.00000000000E+00 0.  1.
         13    1    4    4    0    0 -0.10620585748E+03  0.23111393881E+02 -0.19632966568E+02  0.11045032398E+03  0.00000000000E+00 0. -1.
         -1    1    1    2    0  502  0.22457839627E+01 -0.26582838747E+02 -0.55972185335E+02  0.62004648153E+02  0.00000000000E+00 0.  1.
<scales pt_clust_5="13000.00000" pt_clust_6="13000.00000" pt_clust_7="13000.00000" pt_clust_8="13000.00000" pt_clust_9="26.67753"></scales>
<clustering>
<clus scale="   26.678">  2  9  1 -1</clus>
<clus scale="  100.090">  7  8 -1 -1</clus>
<clus scale="  101.802">  5  6 -1 -1</clus>
<clus scale="  193.992">  2  7  1 -1</clus>
<clus scale="   26.678">  2  5  1 -1</clus>
</clustering>
</event>
<event>
 9    1  0.1399746E-005  0.1143765E+03  0.7546771E-02  0.1253079E+00
          2   -1    0    0  502    0 -0.00000000000E+00  0.00000000000E+00  0.25641297038E+03  0.25641297038E+03  0.00000000000E+00 0. -1.
         21   -1    0    0  501  502  0.00000000000E+00 -0.00000000000E+00 -0.18831960804E+03  0.18831960804E+03  0.00000000000E+00 0.  1.
         23    2    1    2    0    0  0.69943417330E+02 -0.23341349982E+01  0.21057098528E+03  0.23950262447E+03  0.90132333116E+02 0.  0.
         23    2    1    2    0    0 -0.58739790815E+02 -0.29768965488E+02 -0.11965983295E+03  0.16428142713E+03  0.91287224439E+02 0.  0.
        -11    1    3    3    0    0  0.66269625188E+02 -0.38244930231E+02  0.16017948268E+03  0.17751564602E+03  0.00000000000E+00 0. -1.
         11    1    3    3    0    0  0.36737921413E+01  0.35910795233E+02  0.50391502601E+02  0.61986978450E+02  0.00000000000E+00 0.  1.
        -13    1    4    4    0    0 -0.59174076301E+02  0.14208242679E+02 -0.97752671560E+02  0.11514786261E+03  0.00000000000E+00 0.  1.
         13    1    4    4    0    0  0.43428548596E+00 -0.43977208167E+02 -0.21907161389E+02  0.49133564517E+02  0.00000000000E+00 0. -1.
          2    1    1    2  501    0 -0.11203626515E+02  0.32103100487E+02 -0.22817789996E+02  0.40948526814E+02  0.00000000000E+00 0. -1.
<scales pt_clust_5="13000.00000" pt_clust_6="13000.00000" pt_clust_7="13000.00000" pt_clust_8="13000.00000" pt_clust_9="34.00192"></scales>
<clustering>
<clus scale="   34.002">  2  9  1 -1</clus>
<clus scale="   90.132">  5  6 -1 -1</clus>
<clus scale="   91.287">  7  8 -1 -1</clus>
<clus scale="  113.457">  1  5  2 -1</clus>
<clus scale="   34.002">  2  5  1 -1</clus>
</clustering>
</event>
<event>
 9    1  0.1399746E-005  0.1366825E+03  0.7546771E-02  0.1233295E+00
         -2   -1    0    0    0  501 -0.00000000000E+00  0.00000000000E+00  0.40901099333E+03  0.40901099333E+03  0.00000000000E+00 0.  1.
         21   -1    0    0  501  502  0.00000000000E+00 -0.00000000000E+00 -0.95849683244E+02  0.95849683244E+02  0.00000000000E+00 0.  1.
         23    2    1    2    0    0  0.54383020011E+01 -0.33295896217E+02  0.11025202416E+03  0.14827944079E+03  0.93236751853E+02 0.  0.
         23    2    1    2    0    0 -0.95339707650E+02 -0.17261024258E+02  0.21470364658E+03  0.25276711396E+03  0.91683996591E+02 0.  0.
        -13    1    4    4    0    0 -0.77969209405E+02 -0.52519407725E+02  0.15532923622E+03  0.18156171795E+03  0.00000000000E+00 0.  1.
         13    1    4    4    0    0 -0.17370498245E+02  0.35258383467E+02  0.59374410364E+02  0.71205396004E+02  0.00000000000E+00 0. -1.
        -13    1    3    3    0    0 -0.34396341583E+02  0.51902173278E+01  0.74862716919E+02  0.82549821651E+02  0.00000000000E+00 0.  1.
         13    1    3    3    0    0  0.39834643584E+02 -0.38486113544E+02  0.35389307246E+02  0.65729619142E+02  0.00000000000E+00 0. -1.
         -2    1    1    2    0  502  0.89901405648E+02  0.50556920475E+02 -0.11794360664E+02  0.10381412182E+03  0.00000000000E+00 0.  1.
<scales pt_clust_5="13000.00000" pt_clust_6="13000.00000" pt_clust_7="13000.00000" pt_clust_8="13000.00000" pt_clust_9="101.37138"></scales>
<clustering>
<clus scale="   91.684">  5  6 -1 -1</clus>
<clus scale="   93.237">  7  8 -1 -1</clus>
<clus scale="   99.153">  1  7  2 -1</clus>
<clus scale="  101.371">  2  9  1 -1</clus>
<clus scale="  101.371">  2  5  1 -1</clus>
</clustering>
</event>
<event>
 9    1  0.1399746E-005  0.1643287E+03  0.7546771E-02  0.1184454E+00
         21   -1    0    0  501  502  0.00000000000E+00  0.00000000000E+00  0.15904527451E+03  0.15904527451E+03  0.00000000000E+00 0.  1.
          2   -1    0    0  502    0 -0.00000000000E+00 -0.00000000000E+00 -0.21635197347E+03  0.21635197347E+03  0.00000000000E+00 0. -1.
         23    2    1    2    0    0  0.11861025122E+03 -0.80631828887E+02 -0.66010028219E+02  0.18412011539E+03  0.94725970781E+02 0.  0.
         23    2    1    2    0    0 -0.11054732944E+03  0.56534633810E+02 -0.17208848204E+02  0.15498489569E+03  0.91144372114E+02 0.  0.
        -13    1    4    4    0    0 -0.23958067018E+02  0.38349510862E+02  0.30423259269E+02  0.54499987735E+02  0.00000000000E+00 0.  1.
         13    1    4    4    0    0 -0.86589262426E+02  0.18185122948E+02 -0.47632107473E+02  0.10048490795E+03  0.00000000000E+00 0. -1.
        -13    1    3    3    0    0  0.36726255667E+02  0.13696798438E+02 -0.41013574630E+02  0.56732120062E+02  0.00000000000E+00 0. -1.
         13    1    3    3    0    0  0.81883995553E+02 -0.94328627325E+02 -0.24996453588E+02  0.12738799532E+03  0.00000000000E+00 0.  1.
          2    1    1    2  501    0 -0.80629217757E+01  0.24097195076E+02  0.25912177471E+02  0.36292236903E+02  0.00000000000E+00 0. -1.
<scales pt_clust_5="13000.00000" pt_clust_6="13000.00000" pt_clust_7="13000.00000" pt_clust_8="13000.00000" pt_clust_9="25.41034"></scales>
<clustering>
<clus scale="   25.410">  1  9  2 -1</clus>
<clus scale="   91.144">  5  6 -1 -1</clus>
<clus scale="   94.726">  7  8 -1 -1</clus>
<clus scale="  162.291">  1  5  2 -1</clus>
<clus scale="   25.410">  1  5  2 -1</clus>
</clustering>
</event>
<event>
 9    1  0.1399746E-005  0.9349544E+02  0.7546771E-02  0.1298760E+00
         -4   -1    0    0    0  501 -0.00000000000E+00  0.00000000000E+00  0.29001858904E+02  0.29001858904E+02  0.00000000000E+00 0.  1.
         21   -1    0    0  501  502  0.00000000000E+00 -0.00000000000E+00 -0.49920819427E+03  0.49920819427E+03  0.00000000000E+00 0. -1.
         23    2    1    2    0    0 -0.14750334053E+02  0.14924403645E+02 -0.78158318681E+02  0.11747564216E+03  0.85155701770E+02 0.  0.
         23    2    1    2    0    0 -0.97407268447E+01 -0.85937568485E+01 -0.25718858514E+03  0.27352305788E+03  0.92196314711E+02 0.  0.
        -11    1    3    3    0    0  0.26299075253E+02  0.11145863454E+02  0.61271126575E+00  0.28570037564E+02  0.00000000000E+00 0.  1.
         11    1    3    3    0    0 -0.41049409306E+02  0.37785401912E+01 -0.78771029947E+02  0.88905604600E+02  0.00000000000E+00 0. -1.
        -11    1    4    4    0    0  0.14769428110E+02  0.37254498988E+02 -0.92079425356E+02  0.10042237936E+03  0.00000000000E+00 0.  1.
         11    1    4    4    0    0 -0.24510154955E+02 -0.45848255836E+02 -0.16510915979E+03  0.17310067852E+03  0.00000000000E+00 0. -1.
         -4    1    1    2    0  502  0.24491060897E+02 -0.63306467966E+01 -0.13485943154E+03  0.13721135313E+03  0.00000000000E+00 0.  1.
<scales pt_clust_5="13000.00000" pt_clust_6="13000.00000" pt_clust_7="13000.00000" pt_clust_8="13000.00000" pt_clust_9="25.29603"></scales>
<clustering>
<clus scale="   25.296">  2  9  1 -1</clus>
<clus scale="   85.156">  5  6 -1 -1</clus>
<clus scale="   86.561">  1  5  2 -1</clus>
<clus scale="   92.196">  7  8 -1 -1</clus>
<clus scale="   25.296">  2  5  1 -1</clus>
</clustering>
</event>
<event>
 9    1  0.1399746E-005  0.1258147E+03  0.7546771E-02  0.1234186E+00
         21   -1    0    0  501  502  0.00000000000E+00  0.00000000000E+00  0.52309460363E+02  0.52309460363E+02  0.00000000000E+00 0.  1.
          1   -1    0    0  502    0 -0.00000000000E+00 -0.00000000000E+00 -0.63693801404E+03  0.63693801404E+03  0.00000000000E+00 0. -1.
         23    2    1    2    0    0  0.19035917121E+02  0.84033683128E+02 -0.40028420590E+03  0.41943333635E+03  0.90955220343E+02 0.  0.
         23    2    1    2    0    0  0.37714515560E+02 -0.89527494369E+02 -0.96691230775E+02  0.16524902680E+03  0.92306499322E+02 0.  0.
        -11    1    3    3    0    0 -0.31457673269E+02  0.55591744243E+01 -0.98385124776E+02  0.10344139599E+03  0.00000000000E+00 0.  1.
         11    1    3    3    0    0  0.50493590390E+02  0.78474508703E+02 -0.30189908113E+03  0.31599194036E+03  0.00000000000E+00 0. -1.
        -13    1    4    4    0    0  0.21943275005E+02 -0.10642293785E+03 -0.90257396446E+02  0.14125773123E+03  0.00000000000E+00 0.  1.
         13    1    4    4    0    0  0.15771240555E+02  0.16895443479E+02 -0.64338343284E+01  0.23991295571E+02  0.00000000000E+00 0. -1.
          1    1    1    2  501    0 -0.56750432681E+02  0.54938112409E+01 -0.87653116995E+02  0.10456511125E+03  0.00000000000E+00 0. -1.
<scales pt_clust_5="13000.00000" pt_clust_6="13000.00000" pt_clust_7="13000.00000" pt_clust_8="13000.00000" pt_clust_9="57.01573"></scales>
<clustering>
<clus scale="   57.016">  1  9  2 -1</clus>
<clus scale="   90.955">  5  6 -1 -1</clus>
<clus scale="   92.306">  7  8 -1 -1</clus>
<clus scale="  124.827">  2  5  1 -1</clus>
<clus scale="   57.016">  1  5  2 -1</clus>
</clustering>
</event>
<event>
 9    1  0.1399746E-005  0.9595189E+02  0.7546771E-02  0.1296602E+00
         21   -1    0    0  501  502  0.00000000000E+00  0.00000000000E+00  0.55546403897E+02  0.55546403897E+02  0.00000000000E+00 0. -1.
         -4   -1    0    0    0  501 -0.00000000000E+00 -0.00000000000E+00 -0.20795209192E+03  0.20795209192E+03  0.00000000000E+00 0.  1.
         23    2    1    2    0    0  0.83030688444E+01  0.38534658680E+02 -0.10361787644E+03  0.13521886065E+03  0.77418441505E+02 0.  0.
         23    2    1    2    0    0 -0.67333376601E+01 -0.14639054640E+02 -0.48696894425E+02  0.10433235527E+03  0.90852699869E+02 0.  0.
        -13    1    3    3    0    0 -0.20524983608E+02 -0.10183558899E+02 -0.83210898476E+01  0.24376635539E+02  0.00000000000E+00 0. -1.
         13    1    3    3    0    0  0.28828052452E+02  0.48718217578E+02 -0.95296786593E+02  0.11084222511E+03  0.00000000000E+00 0.  1.
        -13    1    4    4    0    0 -0.35288010818E+02 -0.10202752270E+02  0.10716117927E+02  0.38264540306E+02  0.00000000000E+00 0. -1.
         13    1    4    4    0    0  0.28554673158E+02 -0.44363023697E+01 -0.59413012352E+02  0.66067814968E+02  0.00000000000E+00 0.  1.
         -4    1    1    2    0  502 -0.15697311843E+01 -0.23895604039E+02 -0.90917155178E-01  0.23947279894E+02  0.00000000000E+00 0.  1.
<scales pt_clust_5="13000.00000" pt_clust_6="13000.00000" pt_clust_7="13000.00000" pt_clust_8="13000.00000" pt_clust_9="23.94711"></scales>
<clustering>
<clus scale="   23.947">  1  9  2 -1</clus>
<clus scale="   77.418">  5  6 -1 -1</clus>
<clus scale="   83.344">  2  5  1 -1</clus>
<clus scale="   90.853">  7  8 -1 -1</clus>
<clus scale="   23.947">  1  5  2 -1</clus>
</clustering>
</event>
<event>
 9    1  0.1399746E-005  0.2801201E+03  0.7546771E-02  0.1115977E+00
         21   -1    0    0  501  502  0.00000000000E+00  0.00000000000E+00  0.40352310918E+03  0.40352310918E+03  0.00000000000E+00 0.  1.
         -1   -1    0    0    0  501 -0.00000000000E+00 -0.00000000000E+00 -0.51460475121E+03  0.51460475121E+03  0.00000000000E+00 0.  1.
         23    2    1    2    0    0  0.11563624654E+03 -0.75814815352E+02 -0.97602624017E+02  0.19267029560E+03  0.92064883925E+02 0.  0.
         23    2    1    2    0    0 -0.17811832283E+03  0.31451374246E+03 -0.19338403404E+03  0.42009384323E+03  0.91849993867E+02 0.  0.
        -11    1    4    4    0    0 -0.12692836288E+03  0.23754448058E+03 -0.18609884006E+03  0.32736977232E+03  0.00000000000E+00 0.  1.
         11    1    4    4    0    0 -0.51189959948E+02  0.76969261877E+02 -0.72851939723E+01  0.92724070902E+02  0.00000000000E+00 0. -1.
        -13    1    3    3    0    0  0.12740192798E+02 -0.58466782405E+02 -0.21763135836E+02  0.63673473588E+02  0.00000000000E+00 0.  1.
         13    1    3    3    0    0  0.10289605374E+03 -0.17348032947E+02 -0.75839488180E+02  0.12899682201E+03  0.00000000000E+00 0. -1.
         -1    1    1    2    0  502  0.62482076290E+02 -0.23869892711E+03  0.17990501602E+03  0.30536372157E+03  0.00000000000E+00 0.  1.
<scales pt_clust_5="13000.00000" pt_clust_6="13000.00000" pt_clust_7="13000.00000" pt_clust_8="13000.00000" pt_clust_9="264.63342"></scales>
<clustering>
<clus scale="   91.850">  5  6 -1 -1</clus>
<clus scale="   92.065">  7  8 -1 -1</clus>
<clus scale="  166.119">  2  7  1 -1</clus>
<clus scale="  264.633">  1  9  2 -1</clus>
<clus scale="  264.633">  1  5  2 -1</clus>
</clustering>
</event>
<event>
 9    1  0.1399746E-005  0.1121672E+03  0.7546771E-02  0.1257575E+00
         21   -1    0    0  501  502  0.00000000000E+00  0.00000000000E+00  0.42817621431E+03  0.42817621431E+03  0.00000000000E+00 0.  1.
          3   -1    0    0  502    0 -0.00000000000E+00 -0.00000000000E+00 -0.12433663300E+03  0.12433663300E+03  0.00000000000E+00 0. -1.
         23    2    1    2    0    0 -0.22593778610E+02 -0.65930279343E+02 -0.82450109003E+02  0.13968031857E+03  0.88630075904E+02 0.  0.
         23    2    1    2    0    0 -0.59348441287E+01  0.33983837576E+02  0.21217095842E+03  0.23352332582E+03  0.91249682279E+02 0.  0.
        -11    1    3    3    0    0 -0.34238181688E+02  0.91432700755E+01 -0.16560375899E+02  0.39116473804E+02  0.00000000000E+00 0.  1.
         11    1    3    3    0    0  0.11644403078E+02 -0.75073549419E+02 -0.65889733104E+02  0.10056384476E+03  0.00000000000E+00 0. -1.
        -11    1    4    4    0    0  0.33763909165E+02  0.38957251837E+02  0.15787399450E+03  0.16607789490E+03  0.00000000000E+00 0.  1.
         11    1    4    4    0    0 -0.39698753294E+02 -0.49734142606E+01  0.54296963915E+02  0.67445430926E+02  0.00000000000E+00 0. -1.
          3    1    1    2  501    0  0.28528622739E+02  0.31946441767E+02  0.17411873189E+03  0.17930920293E+03  0.00000000000E+00 0. -1.
<scales pt_clust_5="13000.00000" pt_clust_6="13000.00000" pt_clust_7="13000.00000" pt_clust_8="13000.00000" pt_clust_9="42.83057"></scales>
<clustering>
<clus scale="   42.831">  1  9  2 -1</clus>
<clus scale="   88.630">  5  6 -1 -1</clus>
<clus scale="   91.250">  7  8 -1 -1</clus>
<clus scale="  110.047">  2  5  1 -1</clus>
<clus scale="   42.831">  1  5  2 -1</clus>
</clustering>
</event>
<event>
 9    1  0.1399746E-005  0.1368181E+03  0.7546771E-02  0.1235408E+00
         -3   -1    0    0    0  501 -0.00000000000E+00  0.00000000000E+00  0.53023212117E+02  0.53023212117E+02  0.00000000000E+00 0.  1.
         21   -1    0    0  501  502  0.00000000000E+00 -0.00000000000E+00 -0.93815252699E+03  0.93815252699E+03  0.00000000000E+00 0.  1.
         23    2    1    2    0    0 -0.27867251292E+02  0.99952647511E+01 -0.51910857783E+02  0.10796524106E+03  0.89918113357E+02 0.  0.
         23    2    1    2    0    0 -0.63030399874E+02 -0.60104784585E+02 -0.17199322413E+03  0.21388833670E+03  0.92634415807E+02 0.  0.
        -11    1    3    3    0    0  0.20835056983E+02  0.63196873188E+01 -0.54873087720E+02  0.59034683054E+02  0.00000000000E+00 0. -1.
         11    1    3    3    0    0 -0.48702308275E+02  0.36755774323E+01  0.29622299375E+01  0.48930558008E+02  0.00000000000E+00 0.  1.
        -11    1    4    4    0    0 -0.53640523024E+02 -0.15483290069E+02 -0.27236862324E+02  0.62119921530E+02  0.00000000000E+00 0.  1.
         11    1    4    4    0    0 -0.93898768500E+01 -0.44621494516E+02 -0.14475636181E+03  0.15176841517E+03  0.00000000000E+00 0. -1.
         -3    1    1    2    0  502  0.90897651166E+02  0.50109519834E+02 -0.66122523296E+03  0.66932216134E+03  0.00000000000E+00 0.  1.
<scales pt_clust_5="13000.00000" pt_clust_6="13000.00000" pt_clust_7="13000.00000" pt_clust_8="13000.00000" pt_clust_9="100.68788"></scales>
<clustering>
<clus scale="   89.918">  5  6 -1 -1</clus>
<clus scale="   92.634">  7  8 -1 -1</clus>
<clus scale="   94.667">  1  5  2 -1</clus>
<clus scale="  100.688">  2  9  1 -1</clus>
<clus scale="  100.688">  2  5  1 -1</clus>
</clustering>
</event>
<event>
 9    1  0.1399746E-005  0.1015640E+03  0.7546771E-02  0.1279737E+00
         21   -1    0    0  501  502  0.00000000000E+00  0.00000000000E+00  0.52220719745E+03  0.52220719745E+03  0.00000000000E+00 0. -1.
         -1   -1    0    0    0  501 -0.00000000000E+00 -0.00000000000E+00 -0.31904923403E+02  0.31904923403E+02  0.00000000000E+00 0.  1.
         23    2    1    2    0    0  0.62815697211E+01 -0.26037471172E+02  0.10555315192E+03  0.14104130264E+03  0.89631317889E+02 0.  0.
         23    2    1    2    0    0 -0.29126925569E+02  0.53119260905E+02  0.31968751044E+03  0.33898743995E+03  0.95091253247E+02 0.  0.
        -13    1    3    3    0    0 -0.31436173493E+02  0.36370164504E+01  0.84949794341E+01  0.32766226028E+02  0.00000000000E+00 0. -1.
         13    1    3    3    0    0  0.37717743214E+02 -0.29674487623E+02  0.97058172482E+02  0.10827507661E+03  0.00000000000E+00 0.  1.
        -13    1    4    4    0    0 -0.27076766940E+02 -0.10629236761E+02  0.27883474215E+02  0.40294169757E+02  0.00000000000E+00 0.  1.
         13    1    4    4    0    0 -0.20501586287E+01  0.63748497666E+02  0.29180403622E+03  0.29869327020E+03  0.00000000000E+00 0. -1.
         -1    1    1    2    0  502  0.22845355848E+02 -0.27081789733E+02  0.65061611691E+02  0.74083378262E+02  0.00000000000E+00 0.  1.
<scales pt_clust_5="13000.00000" pt_clust_6="13000.00000" pt_clust_7="13000.00000" pt_clust_8="13000.00000" pt_clust_9="35.43071"></scales>
<clustering>
<clus scale="   35.431">  1  9  2 -1</clus>
<clus scale="   89.631">  5  6 -1 -1</clus>
<clus scale="   95.091">  7  8 -1 -1</clus>
<clus scale="   96.471">  2  5  1 -1</clus>
<clus scale="   35.431">  1  5  2 -1</clus>
</clustering>
</event>
<event>
 9    1  0.1399746E-005  0.1349267E+03  0.7546771E-02  0.1223251E+00
          2   -1    0    0  502    0 -0.00000000000E+00  0.00000000000E+00  0.23185568591E+03  0.23185568591E+03  0.00000000000E+00 0. -1.
         21   -1    0    0  501  502  0.00000000000E+00 -0.00000000000E+00 -0.17011795996E+03  0.17011795996E+03  0.00000000000E+00 0. -1.
         23    2    1    2    0    0  0.92281457106E+02  0.31807358296E+02  0.16430578572E+03  0.21121931148E+03  0.89942375748E+02 0.  0.
         23    2    1    2    0    0 -0.52081999712E+02 -0.25083351751E+02 -0.56744141147E+02  0.12942701457E+03  0.10094426837E+03 0.  0.
        -11    1    4    4    0    0  0.16008740533E+02 -0.36181986822E+02 -0.44173293291E+02  0.59301735084E+02  0.00000000000E+00 0.  1.
         11    1    4    4    0    0 -0.68090740245E+02  0.11098635071E+02 -0.12570847856E+02  0.70125279488E+02  0.00000000000E+00 0. -1.
        -11    1    3    3    0    0  0.82122874335E+02 -0.14861907458E+02  0.11929884079E+03  0.14559277522E+03  0.00000000000E+00 0. -1.
         11    1    3    3    0    0  0.10158582772E+02  0.46669265755E+02  0.45006944924E+02  0.65626536259E+02  0.00000000000E+00 0.  1.
          2    1    1    2  501    0 -0.40199457395E+02 -0.67240065450E+01 -0.45823918611E+02  0.61327319815E+02  0.00000000000E+00 0. -1.
<scales pt_clust_5="13000.00000" pt_clust_6="13000.00000" pt_clust_7="13000.00000" pt_clust_8="13000.00000" pt_clust_9="40.75793"></scales>
<clustering>
<clus scale="   40.758">  2  9  1 -1</clus>
<clus scale="   89.942">  7  8 -1 -1</clus>
<clus scale="  100.944">  5  6 -1 -1</clus>
<clus scale="  126.906">  1  7  2 -1</clus>
<clus scale="   40.758">  2  5  1 -1</clus>
</clustering>
</event>
<event>
 9    1  0.1399746E-005  0.9573965E+02  0.7546771E-02  0.1291364E+00
          1   -1    0    0  502    0 -0.00000000000E+00  0.00000000000E+00  0.46176007465E+03  0.46176007465E+03  0.00000000000E+00 0. -1.
         21   -1    0    0  501  502  0.00000000000E+00 -0.00000000000E+00 -0.17346279843E+03  0.17346279843E+03  0.00000000000E+00 0. -1.
         23    2    1    2    0    0 -0.12484610268E+02 -0.30817626572E+02  0.28415058771E+03  0.30040582956E+03  0.91632496076E+02 0.  0.
         23    2    1    2    0    0  0.20892467782E+02  0.10584270272E+02  0.15634772206E+03  0.18104697039E+03  0.88231929056E+02 0.  0.
        -11    1    3    3    0    0  0.10065492353E+02 -0.56815040125E+02  0.22186306435E+03  0.22924328179E+03  0.00000000000E+00 0. -1.
         11    1    3    3    0    0 -0.22550102621E+02  0.25997413553E+02  0.62287523359E+02  0.71162547775E+02  0.00000000000E+00 0.  1.
        -11    1    4    4    0    0 -0.15688458932E+02  0.38886726066E+02  0.51222555334E+02  0.66197094972E+02  0.00000000000E+00 0.  1.
         11    1    4    4    0    0  0.36580926714E+02 -0.28302455793E+02  0.10512516673E+03  0.11484987541E+03  0.00000000000E+00 0. -1.
          1    1    1    2  501    0 -0.84078575139E+01  0.20233356300E+02 -0.15220103356E+03  0.15377007313E+03  0.00000000000E+00 0. -1.
<scales pt_clust_5="13000.00000" pt_clust_6="13000.00000" pt_clust_7="13000.00000" pt_clust_8="13000.00000" pt_clust_9="21.91075"></scales>
<clustering>
<clus scale="   21.911">  2  9  1 -1</clus>
<clus scale="   88.232">  7  8 -1 -1</clus>
<clus scale="   91.632">  5  6 -1 -1</clus>
<clus scale="   92.490">  2  7  1 -1</clus>
<clus scale="   21.911">  2  5  1 -1</clus>
</clustering>
</event>
<event>
 9    1  0.1399746E-005  0.1669171E+03  0.7546771E-02  0.1182160E+00
          1   -1    0    0  502    0 -0.00000000000E+00  0.00000000000E+00  0.43141733447E+03  0.43141733447E+03  0.00000000000E+00 0. -1.
         21   -1    0    0  501  502  0.00000000000E+00 -0.00000000000E+00 -0.19389088897E+03  0.19389088897E+03  0.00000000000E+00 0. -1.
         23    2    1    2    0    0 -0.13415889288E+03  0.57622933338E+01  0.31461555968E+03  0.35228372378E+03  0.84196550314E+02 0.  0.
         23    2    1    2    0    0  0.17981634235E+03  0.29403815568E+02 -0.66105853995E+02  0.21435687732E+03  0.91544445904E+02 0.  0.
        -11    1    3    3    0    0 -0.91210885395E+02 -0.34909849799E+02  0.21995324502E+03  0.24066065990E+03  0.00000000000E+00 0. -1.
         11    1    3    3    0    0 -0.42948007481E+02  0.40672143132E+02  0.94662314665E+02  0.11162306389E+03  0.00000000000E+00 0.  1.
        -11    1    4    4    0    0  0.32186680822E+02  0.14988235594E+02 -0.55189383799E+02  0.65623911136E+02  0.00000000000E+00 0.  1.
         11    1    4    4    0    0  0.14762966152E+03  0.14415579974E+02 -0.10916470196E+02  0.14873296618E+03  0.00000000000E+00 0. -1.
          1    1    1    2  501    0 -0.45657449469E+02 -0.35166108901E+02 -0.10983260181E+02  0.58667622344E+02  0.00000000000E+00 0. -1.
<scales pt_clust_5="13000.00000" pt_clust_6="13000.00000" pt_clust_7="13000.00000" pt_clust_8="13000.00000" pt_clust_9="57.63036"></scales>
<clustering>
<clus scale="   57.630">  2  9  1 -1</clus>
<clus scale="   84.197">  5  6 -1 -1</clus>
<clus scale="   91.544">  7  8 -1 -1</clus>
<clus scale="  163.003">  1  5  2 -1</clus>
<clus scale="   57.630">  2  5  1 -1</clus>
</clustering>
</event>
<event>
 9    1  0.1399746E-005  0.1029460E+03  0.7546771E-02  0.1274673E+00
         21   -1    0    0  501  502  0.00000000000E+00  0.00000000000E+00  0.50843079754E+02  0.50843079754E+02  0.00000000000E+00 0. -1.
          1   -1    0    0  502    0 -0.00000000000E+00 -0.00000000000E+00 -0.69498697820E+03  0.69498697820E+03  0.00000000000E+00 0. -1.
         23    2    1    2    0    0  0.53476127479E+02 -0.54299438672E+01 -0.53052874812E+03  0.54089901505E+03  0.90674204699E+02 0.  0.
         23    2    1    2    0    0 -0.18870440640E+02  0.31387632854E+02 -0.12587402899E+03  0.15996844416E+03  0.91675268884E+02 0.  0.
        -11    1    4    4    0    0  0.33929573709E+02 -0.48400025203E+01 -0.51015894676E+02  0.61459442774E+02  0.00000000000E+00 0.  1.
         11    1    4    4    0    0 -0.52800014349E+02  0.36227635374E+02 -0.74858134318E+02  0.98509001384E+02  0.00000000000E+00 0. -1.
        -13    1    3    3    0    0  0.72578441078E+02  0.18388197374E+02 -0.37925614496E+03  0.38657596847E+03  0.00000000000E+00 0. -1.
         13    1    3    3    0    0 -0.19102313599E+02 -0.23818141241E+02 -0.15127260317E+03  0.15432304658E+03  0.00000000000E+00 0.  1.
          1    1    1    2  501    0 -0.34605686839E+02 -0.25957688987E+02  0.12258878675E+02  0.44962598741E+02  0.00000000000E+00 0. -1.
<scales pt_clust_5="13000.00000" pt_clust_6="13000.00000" pt_clust_7="13000.00000" pt_clust_8="13000.00000" pt_clust_9="43.25916"></scales>
<clustering>
<clus scale="   43.259">  1  9  2 -1</clus>
<clus scale="   90.674">  7  8 -1 -1</clus>
<clus scale="   91.675">  5  6 -1 -1</clus>
<clus scale="  102.056">  2  7  1 -1</clus>
<clus scale="   43.259">  1  5  2 -1</clus>
</clustering>
</event>
<event>
 9    1  0.1399746E-005  0.1214177E+03  0.7546771E-02  0.1241478E+00
          1   -1    0    0  502    0 -0.00000000000E+00  0.00000000000E+00  0.55898550441E+03  0.55898550441E+03  0.00000000000E+00 0. -1.
         21   -1    0    0  501  502  0.00000000000E+00 -0.00000000000E+00 -0.64376138065E+02  0.64376138065E+02  0.00000000000E+00 0. -1.
         23    2    1    2    0    0 -0.12674635286E+02 -0.68611549759E+02  0.27545324557E+03  0.29751875140E+03  0.88174405586E+02 0.  0.
         23    2    1    2    0    0  0.27112455889E+02  0.94325083659E+02  0.24985137162E+03  0.28327723691E+03  0.90487448747E+02 0.  0.
        -13    1    3    3    0    0  0.13334890711E+02 -0.68262097769E+02  0.25532442582E+03  0.26462822170E+03  0.00000000000E+00 0.  1.
         13    1    3    3    0    0 -0.26009525998E+02 -0.34945199004E+00  0.20128819754E+02  0.32890529701E+02  0.00000000000E+00 0. -1.
        -13    1    4    4    0    0 -0.21785507910E+02  0.17824716737E+02  0.15906093774E+02  0.32331605292E+02  0.00000000000E+00 0.  1.
         13    1    4    4    0    0  0.48897963799E+02  0.76500366922E+02  0.23394527785E+03  0.25094563162E+03  0.00000000000E+00 0. -1.
          1    1    1    2  501    0 -0.14437820603E+02 -0.25713533900E+02 -0.30695250848E+02  0.42565654159E+02  0.00000000000E+00 0. -1.
<scales pt_clust_5="13000.00000" pt_clust_6="13000.00000" pt_clust_7="13000.00000" pt_clust_8="13000.00000" pt_clust_9="29.48960"></scales>
<clustering>
<clus scale="   29.490">  2  9  1 -1</clus>
<clus scale="   88.174">  5  6 -1 -1</clus>
<clus scale="   90.487">  7  8 -1 -1</clus>
<clus scale="  119.704">  1  5  2 -1</clus>
<clus scale="   29.490">  2  5  1 -1</clus>
</clustering>
</event>
<event>
 9    1  0.1399746E-005  0.1010080E+03  0.7546771E-02  0.1278671E+00
         21   -1    0    0  501  502  0.00000000000E+00  0.00000000000E+00  0.31190276242E+02  0.31190276242E+02  0.00000000000E+00 0.  1.
          1   -1    0    0  502    0 -0.00000000000E+00 -0.00000000000E+00 -0.40214573773E+03  0.40214573773E+03  0.00000000000E+00 0. -1.
         23    2    1    2    0    0  0.51524394130E+01 -0.37864767029E+02 -0.18099621098E+03  0.20885780258E+03  0.96962183844E+02 0.  0.
         23    2    1    2    0    0 -0.47001622635E+01  0.17069405882E+02 -0.14328972259E+03  0.17338323673E+03  0.96001802252E+02 0.  0.
        -11    1    4    4    0    0  0.16241298335E+02 -0.36135052047E+02 -0.69936813408E+02  0.80378352979E+02  0.00000000000E+00 0. -1.
         11    1    4    4    0    0 -0.20941460598E+02  0.53204457929E+02 -0.73352909186E+02  0.93004883751E+02  0.00000000000E+00 0.  1.
        -13    1    3    3    0    0 -0.29182189304E+02 -0.19352930243E+02 -0.14578613465E+02  0.37929830637E+02  0.00000000000E+00 0.  1.
         13    1    3    3    0    0  0.34334628717E+02 -0.18511836786E+02 -0.16641759751E+03  0.17092797194E+03  0.00000000000E+00 0. -1.
          1    1    1    2  501    0 -0.45227714944E+00  0.20795361147E+02 -0.46669527914E+02  0.51094974661E+02  0.00000000000E+00 0. -1.
<scales pt_clust_5="13000.00000" pt_clust_6="13000.00000" pt_clust_7="13000.00000" pt_clust_8="13000.00000" pt_clust_9="20.80029"></scales>
<clustering>
<clus scale="   20.800">  1  9  2 -1</clus>
<clus scale="   96.002">  5  6 -1 -1</clus>
<clus scale="   96.962">  7  8 -1 -1</clus>
<clus scale="  100.086">  1  5  2 -1</clus>
<clus scale="   20.800">  1  5  2 -1</clus>
</clustering>
</event>
<event>
 9    1  0.1399746E-005  0.1889312E+03  0.7546771E-02  0.1159430E+00
         -1   -1    0    0    0  501 -0.00000000000E+00  0.00000000000E+00  0.89973846241E+03  0.89973846241E+03  0.00000000000E+00 0.  1.
         21   -1    0    0  501  502  0.00000000000E+00 -0.00000000000E+00 -0.52586898960E+02  0.52586898960E+02  0.00000000000E+00 0. -1.
         23    2    1    2    0    0  0.15625523296E+03 -0.93500327074E+02  0.53223411566E+03  0.56986789494E+03  0.91204467069E+02 0.  0.
         23    2    1    2    0    0 -0.10892398904E+03  0.92385111930E+02  0.23891999440E+03  0.29291918816E+03  0.91210979441E+02 0.  0.
        -11    1    3    3    0    0  0.41612415892E+02 -0.75274821992E+02  0.19226935546E+03  0.21063094984E+03  0.00000000000E+00 0. -1.
         11    1    3    3    0    0  0.11464281707E+03 -0.18225505082E+02  0.33996476021E+03  0.35923694510E+03  0.00000000000E+00 0.  1.
        -13    1    4    4    0    0 -0.48886782285E+02  0.90320341146E+02  0.18776376412E+03  0.21401615038E+03  0.00000000000E+00 0.  1.
         13    1    4    4    0    0 -0.60037206760E+02  0.20647707835E+01  0.51156230280E+02  0.78903037777E+02  0.00000000000E+00 0. -1.
         -1    1    1    2    0  502 -0.47331243915E+02  0.11152151440E+01  0.75997453389E+02  0.89538278278E+02  0.00000000000E+00 0.  1.
<scales pt_clust_5="13000.00000" pt_clust_6="13000.00000" pt_clust_7="13000.00000" pt_clust_8="13000.00000" pt_clust_9="47.34438"></scales>
<clustering>
<clus scale="   47.344">  2  9  1 -1</clus>
<clus scale="   91.204">  5  6 -1 -1</clus>
<clus scale="   91.211">  7  8 -1 -1</clus>
<clus scale="  188.928">  1  5  2 -1</clus>
<clus scale="   47.344">  2  5  1 -1</clus>
</clustering>
</event>
<event>
 9    1  0.1399746E-005  0.1053924E+03  0.7546771E-02  0.1269914E+00
         21   -1    0    0  501  502  0.00000000000E+00  0.00000000000E+00  0.35976106018E+02  0.35976106018E+02  0.00000000000E+00 0.  1.
          1   -1    0    0  502    0 -0.00000000000E+00 -0.00000000000E+00 -0.65969493196E+03  0.65969493196E+03  0.00000000000E+00 0. -1.
         23    2    1    2    0    0 -0.38439323512E+02  0.27591641734E+02 -0.36449584466E+03  0.37880605718E+03  0.91640208961E+02 0.  0.
         23    2    1    2    0    0  0.71955034256E+02  0.12026000193E+02 -0.12054038499E+03  0.16879161070E+03  0.92943379497E+02 0.  0.
        -11    1    3    3    0    0  0.24318886292E+02  0.30533034585E+02 -0.11185078004E+03  0.11846633035E+03  0.00000000000E+00 0.  1.
         11    1    3    3    0    0 -0.62758209804E+02 -0.29413928512E+01 -0.25264506462E+03  0.26033972683E+03  0.00000000000E+00 0. -1.
        -13    1    4    4    0    0  0.10790544937E+02 -0.28853031107E+02 -0.77877383737E+02  0.83748553192E+02  0.00000000000E+00 0. -1.
         13    1    4    4    0    0  0.61164489320E+02  0.40879031300E+02 -0.42663001256E+02  0.85043057506E+02  0.00000000000E+00 0.  1.
          1    1    1    2  501    0 -0.33515710744E+02 -0.39617641927E+02 -0.13868259629E+03  0.14807337010E+03  0.00000000000E+00 0. -1.
<scales pt_clust_5="13000.00000" pt_clust_6="13000.00000" pt_clust_7="13000.00000" pt_clust_8="13000.00000" pt_clust_9="51.89280"></scales>
<clustering>
<clus scale="   51.893">  1  9  2 -1</clus>
<clus scale="   91.640">  5  6 -1 -1</clus>
<clus scale="   92.943">  7  8 -1 -1</clus>
<clus scale="  104.245">  2  5  1 -1</clus>
<clus scale="   51.893">  1  5  2 -1</clus>
</clustering>
</event>
<event>
 9    1  0.1399746E-005  0.1134401E+03  0.7546771E-02  0.1258070E+00
          2   -1    0    0  502    0 -0.00000000000E+00  0.00000000000E+00  0.47002956716E+02  0.47002956716E+02  0.00000000000E+00 0. -1.
         21   -1    0    0  501  502  0.00000000000E+00 -0.00000000000E+00 -0.48460081772E+03  0.48460081772E+03  0.00000000000E+00 0.  1.
         23    2    1    2    0    0  0.69478257110E+02 -0.20831808599E+02 -0.12620463822E+03  0.17220112259E+03  0.92002301358E+02 0.  0.
         23    2    1    2    0    0 -0.19944956810E+02 -0.22142852582E+02 -0.24170080492E+03  0.26370833408E+03  0.10116668990E+03 0.  0.
        -13    1    3    3    0    0  0.32287820636E+02 -0.88900492593E+01 -0.12877267681E+03  0.13305614841E+03  0.00000000000E+00 0.  1.
         13    1    3    3    0    0  0.37190436474E+02 -0.11941759339E+02  0.25680385981E+01  0.39144974180E+02  0.00000000000E+00 0. -1.
        -13    1    4    4    0    0 -0.61326799213E+02 -0.14991419810E+02 -0.13467643801E+03  0.14873957753E+03  0.00000000000E+00 0.  1.
         13    1    4    4    0    0  0.41381842403E+02 -0.71514327720E+01 -0.10702436690E+03  0.11496875655E+03  0.00000000000E+00 0. -1.
          2    1    1    2  501    0 -0.49533300301E+02  0.42974661180E+02 -0.69692417872E+02  0.95694317758E+02  0.00000000000E+00 0. -1.
<scales pt_clust_5="13000.00000" pt_clust_6="13000.00000" pt_clust_7="13000.00000" pt_clust_8="13000.00000" pt_clust_9="65.57723"></scales>
<clustering>
<clus scale="   65.577">  2  9  1 -1</clus>
<clus scale="   92.002">  5  6 -1 -1</clus>
<clus scale="  101.167">  7  8 -1 -1</clus>
<clus scale="  105.349">  1  5  2 -1</clus>
<clus scale="   65.577">  2  5  1 -1</clus>
</clustering>
</event>
<event>
 9    1  0.1399746E-005  0.1013410E+03  0.7546771E-02  0.1278478E+00
         21   -1    0    0  501  502  0.00000000000E+00  0.00000000000E+00  0.18623970379E+03  0.18623970379E+03  0.00000000000E+00 0.  1.
          3   -1    0    0  502    0 -0.00000000000E+00 -0.00000000000E+00 -0.10474072840E+03  0.10474072840E+03  0.00000000000E+00 0. -1.
         23    2    1    2    0    0  0.51106100836E+02 -0.48082022788E+01 -0.29768748093E+02  0.11034840615E+03  0.93035692206E+02 0.  0.
         23    2    1    2    0    0 -0.67996515048E+01  0.16131498551E+02  0.93309927276E+02  0.13150198498E+03  0.90992137122E+02 0.  0.
        -11    1    4    4    0    0 -0.35307755781E+01 -0.29534848850E+02  0.77588323125E+02  0.83094654209E+02  0.00000000000E+00 0.  1.
         11    1    4    4    0    0 -0.32688759267E+01  0.45666347402E+02  0.15721604152E+02  0.48407330766E+02  0.00000000000E+00 0. -1.
        -11    1    3    3    0    0  0.64882836584E+02 -0.34152945847E+02 -0.25602613025E+02  0.77664019900E+02  0.00000000000E+00 0. -1.
         11    1    3    3    0    0 -0.13776735748E+02  0.29344743568E+02 -0.41661350679E+01  0.32684386247E+02  0.00000000000E+00 0.  1.
          3    1    1    2  501    0 -0.44306449331E+02 -0.11323296273E+02  0.17957796210E+02  0.49130041070E+02  0.00000000000E+00 0. -1.
<scales pt_clust_5="13000.00000" pt_clust_6="13000.00000" pt_clust_7="13000.00000" pt_clust_8="13000.00000" pt_clust_9="45.73050"></scales>
<clustering>
<clus scale="   45.730">  1  9  2 -1</clus>
<clus scale="   90.992">  5  6 -1 -1</clus>
<clus scale="   93.036">  7  8 -1 -1</clus>
<clus scale="   99.468">  1  5  2 -1</clus>
<clus scale="   45.730">  1  5  2 -1</clus>
</clustering>
</event>
<event>
 9    1  0.1399746E-005  0.9299521E+02  0.7546771E-02  0.1297248E+00
          2   -1    0    0  502    0 -0.00000000000E+00  0.00000000000E+00  0.65926897149E+03  0.65926897149E+03  0.00000000000E+00 0. -1.
         21   -1    0    0  501  502  0.00000000000E+00 -0.00000000000E+00 -0.72668928265E+02  0.72668928265E+02  0.00000000000E+00 0. -1.
         23    2    1    2    0    0 -0.27255088567E+01 -0.18923240218E+02  0.26489768734E+03  0.28087307394E+03  0.91396835227E+02 0.  0.
         23    2    1    2    0    0 -0.60940350964E+02 -0.17880728134E+01 -0.14107280862E+02  0.10864635037E+03  0.88814922701E+02 0.  0.
        -11    1    4    4    0    0 -0.19576617359E+02  0.35703184105E+02 -0.30029790072E+02  0.50593967963E+02  0.00000000000E+00 0. -1.
         11    1    4    4    0    0 -0.41363733605E+02 -0.37491256919E+02  0.15922509210E+02  0.58052382403E+02  0.00000000000E+00 0.  1.
        -13    1    3    3    0    0  0.33978345591E+02 -0.33573396026E+02  0.19307027401E+03  0.19889150710E+03  0.00000000000E+00 0. -1.
         13    1    3    3    0    0 -0.36703854448E+02  0.14650155808E+02  0.71827413327E+02  0.81981566841E+02  0.00000000000E+00 0.  1.
          2    1    1    2  501    0  0.63665859821E+02  0.20711313031E+02  0.33580963674E+03  0.34241847544E+03  0.00000000000E+00 0. -1.
<scales pt_clust_5="13000.00000" pt_clust_6="13000.00000" pt_clust_7="13000.00000" pt_clust_8="13000.00000" pt_clust_9="66.95002"></scales>
<clustering>
<clus scale="   66.950">  2  9  1 -1</clus>
<clus scale="   88.815">  5  6 -1 -1</clus>
<clus scale="   90.459">  2  5  1 -1</clus>
<clus scale="   91.397">  7  8 -1 -1</clus>
<clus scale="   66.950">  2  5  1 -1</clus>
</clustering>
</event>
<event>
 9    1  0.1399746E-005  0.1209312E+03  0.7546771E-02  0.1242888E+00
          2   -1    0    0  502    0 -0.00000000000E+00  0.00000000000E+00  0.27350681998E+03  0.27350681998E+03  0.00000000000E+00 0. -1.
         21   -1    0    0  501  502  0.00000000000E+00 -0.00000000000E+00 -0.97959210421E+02  0.97959210421E+02  0.00000000000E+00 0. -1.
         23    2    1    2    0    0 -0.83505319862E+02  0.26357754722E+02  0.12597129615E+03  0.17724515258E+03  0.88764897241E+02 0.  0.
         23    2    1    2    0    0  0.41041836144E+02 -0.36403547080E+02 -0.22227794163E+02  0.11019769496E+03  0.92950559902E+02 0.  0.
        -11    1    3    3    0    0 -0.28293525958E+02  0.29535088626E+02  0.13712139338E+01  0.40923407714E+02  0.00000000000E+00 0. -1.
         11    1    3    3    0    0 -0.55211793904E+02 -0.31773339044E+01  0.12460008221E+03  0.13632174487E+03  0.00000000000E+00 0.  1.
        -13    1    4    4    0    0  0.25876228835E+02 -0.63616608309E+02  0.49492271107E+01  0.68855986817E+02  0.00000000000E+00 0. -1.
         13    1    4    4    0    0  0.15165607308E+02  0.27213061230E+02 -0.27177021273E+02  0.41341708139E+02  0.00000000000E+00 0.  1.
          2    1    1    2  501    0  0.42463483718E+02  0.10045792358E+02  0.71804107577E+02  0.84023182863E+02  0.00000000000E+00 0. -1.
<scales pt_clust_5="13000.00000" pt_clust_6="13000.00000" pt_clust_7="13000.00000" pt_clust_8="13000.00000" pt_clust_9="43.63562"></scales>
<clustering>
<clus scale="   43.636">  2  9  1 -1</clus>
<clus scale="   88.765">  5  6 -1 -1</clus>
<clus scale="   92.951">  7  8 -1 -1</clus>
<clus scale="  117.744">  1  5  2 -1</clus>
<clus scale="   43.636">  2  5  1 -1</clus>
</clustering>
</event>
<event>
 9    1  0.1399746E-005  0.9621941E+02  0.7546771E-02  0.1306753E+00
          1   -1    0    0  502    0 -0.00000000000E+00  0.00000000000E+00  0.53090034750E+03  0.53090034750E+03  0.00000000000E+00 0. -1.
         21   -1    0    0  501  502  0.00000000000E+00 -0.00000000000E+00 -0.47216891528E+02  0.47216891528E+02  0.00000000000E+00 0. -1.
         23    2    1    2    0    0  0.45031728013E+01  0.65129616666E+01  0.35856960251E+03  0.37074212382E+03  0.93887514076E+02 0.  0.
         23    2    1    2    0    0 -0.47311799629E+02 -0.76036518865E+01  0.14026042130E+03  0.16195280072E+03  0.65264860144E+02 0.  0.
        -13    1    3    3    0    0  0.45330339605E+02  0.22005289889E+02  0.20295315178E+03  0.20911493081E+03  0.00000000000E+00 0. -1.
         13    1    3    3    0    0 -0.40827166804E+02 -0.15492328222E+02  0.15561645073E+03  0.16162719301E+03  0.00000000000E+00 0.  1.
        -13    1    4    4    0    0 -0.17707531817E+02 -0.35807921247E+02  0.73930773663E+02  0.84032869768E+02  0.00000000000E+00 0.  1.
         13    1    4    4    0    0 -0.29604267812E+02  0.28204269361E+02  0.66329647640E+02  0.77919930947E+02  0.00000000000E+00 0. -1.
          1    1    1    2  501    0  0.42808626827E+02  0.10906902199E+01 -0.15146567841E+02  0.45422314487E+02  0.00000000000E+00 0. -1.
<scales pt_clust_5="13000.00000" pt_clust_6="13000.00000" pt_clust_7="13000.00000" pt_clust_8="13000.00000" pt_clust_9="42.82252"></scales>
<clustering>
<clus scale="   42.823">  2  9  1 -1</clus>
<clus scale="   65.265">  7  8 -1 -1</clus>
<clus scale="   68.577">  2  7  1 -1</clus>
<clus scale="   93.888">  5  6 -1 -1</clus>
<clus scale="   42.823">  2  5  1 -1</clus>
</clustering>
</event>
<event>
 9    1  0.1399746E-005  0.1187344E+03  0.7546771E-02  0.1245318E+00
         21   -1    0    0  501  502  0.00000000000E+00  0.00000000000E+00  0.37598113384E+03  0.37598113384E+03  0.00000000000E+00 0.  1.
         -1   -1    0    0    0  501 -0.00000000000E+00 -0.00000000000E+00 -0.25833691632E+03  0.25833691632E+03  0.00000000000E+00 0.  1.
         23    2    1    2    0    0  0.72692964951E+02  0.66899572359E+01 -0.17813967989E+03  0.21335447948E+03  0.91963936865E+02 0.  0.
         23    2    1    2    0    0 -0.84480548773E+02  0.37716644035E+02  0.89784528127E+01  0.13050142785E+03  0.91599681758E+02 0.  0.
        -13    1    3    3    0    0  0.80660021144E+02 -0.22916888465E+02 -0.14944001098E+03  0.17135792853E+03  0.00000000000E+00 0.  1.
         13    1    3    3    0    0 -0.79670561923E+01  0.29606845701E+02 -0.28699668911E+02  0.41996550957E+02  0.00000000000E+00 0. -1.
        -13    1    4    4    0    0 -0.15250797933E+02  0.20522907930E+02  0.44111232249E+02  0.50986051014E+02  0.00000000000E+00 0. -1.
         13    1    4    4    0    0 -0.69229750840E+02  0.17193736105E+02 -0.35132779436E+02  0.79515376837E+02  0.00000000000E+00 0.  1.
         -1    1    1    2    0  502  0.11787583822E+02 -0.44406601271E+02  0.28680544459E+03  0.29046214283E+03  0.00000000000E+00 0.  1.
<scales pt_clust_5="13000.00000" pt_clust_6="13000.00000" pt_clust_7="13000.00000" pt_clust_8="13000.00000" pt_clust_9="45.94446"></scales>
<clustering>
<clus scale="   45.944">  1  9  2 -1</clus>
<clus scale="   91.600">  7  8 -1 -1</clus>
<clus scale="   91.964">  5  6 -1 -1</clus>
<clus scale="  118.452">  1  7  2 -1</clus>
<clus scale="   45.944">  1  5  2 -1</clus>
</clustering>
</event>
<event>
 9    1  0.1399746E-005  0.5379969E+03  0.7546771E-02  0.1004311E+00
          1   -1    0    0  502    0 -0.00000000000E+00  0.00000000000E+00  0.12095973500E+04  0.12095973500E+04  0.00000000000E+00 0. -1.
         21   -1    0    0  501  502  0.00000000000E+00 -0.00000000000E+00 -0.40165256845E+03  0.40165256845E+03  0.00000000000E+00 0. -1.
         23    2    1    2    0    0 -0.17610906615E+03  0.37200836129E+03  0.10756964718E+03  0.43499988974E+03  0.90824286530E+02 0.  0.
         23    2    1    2    0    0  0.23347175763E+03 -0.62503557898E+03  0.41693418724E+03  0.79199487680E+03  0.90792245196E+02 0.  0.
        -11    1    4    4    0    0  0.22927319673E+02 -0.36821267315E+02  0.54727235035E+02  0.69832212972E+02  0.00000000000E+00 0.  1.
         11    1    4    4    0    0  0.21054443796E+03 -0.58821431166E+03  0.36220695220E+03  0.72216266382E+03  0.00000000000E+00 0. -1.
        -13    1    3    3    0    0 -0.62282571138E+02  0.23094647752E+03  0.76234879448E+02  0.25105208820E+03  0.00000000000E+00 0.  1.
         13    1    3    3    0    0 -0.11382649501E+03  0.14106188378E+03  0.31334767732E+02  0.18394780153E+03  0.00000000000E+00 0. -1.
          1    1    1    2  501    0 -0.57362691481E+02  0.25302721768E+03  0.28344094714E+03  0.38425515192E+03  0.00000000000E+00 0. -1.
<scales pt_clust_5="13000.00000" pt_clust_6="13000.00000" pt_clust_7="13000.00000" pt_clust_8="13000.00000" pt_clust_9="259.44810"></scales>
<clustering>
<clus scale="   90.792">  5  6 -1 -1</clus>
<clus scale="   90.824">  7  8 -1 -1</clus>
<clus scale="  259.448">  2  9  1 -1</clus>
<clus scale="  537.991">  2  5  1 -1</clus>
<clus scale="  259.448">  2  5  1 -1</clus>
</clustering>
</event>
<event>
 9    1  0.1399746E-005  0.1251583E+03  0.7546771E-02  0.1235861E+00
         21   -1    0    0  501  502  0.00000000000E+00  0.00000000000E+00  0.14666061760E+03  0.14666061760E+03  0.00000000000E+00 0. -1.
         -1   -1    0    0    0  501 -0.00000000000E+00 -0.00000000000E+00 -0.39869684838E+03  0.39869684838E+03  0.00000000000E+00 0.  1.
         23    2    1    2    0    0 -0.15671738848E+02  0.78153435247E+02 -0.27540561457E+03  0.29995580120E+03  0.88157060369E+02 0.  0.
         23    2    1    2    0    0  0.87388752729E+02 -0.10802353407E+03  0.18757487358E+02  0.16757607470E+03  0.91782457265E+02 0.  0.
        -13    1    3    3    0    0  0.22732461570E+02  0.70764386699E+02 -0.13390315458E+03  0.15314835304E+03  0.00000000000E+00 0.  1.
         13    1    3    3    0    0 -0.38404200418E+02  0.73890485480E+01 -0.14150246000E+03  0.14680744815E+03  0.00000000000E+00 0. -1.
        -13    1    4    4    0    0  0.71875581000E+02 -0.19761461943E+02 -0.54721383278E+01  0.74743286121E+02  0.00000000000E+00 0.  1.
         13    1    4    4    0    0  0.15513171728E+02 -0.88262072131E+02  0.24229625686E+02  0.92832788576E+02  0.00000000000E+00 0. -1.
         -1    1    1    2    0  502 -0.71717013880E+02  0.29870098827E+02  0.46118964406E+01  0.77825590089E+02  0.00000000000E+00 0.  1.
<scales pt_clust_5="13000.00000" pt_clust_6="13000.00000" pt_clust_7="13000.00000" pt_clust_8="13000.00000" pt_clust_9="77.68882"></scales>
<clustering>
<clus scale="   77.689">  1  9  2 -1</clus>
<clus scale="   88.157">  5  6 -1 -1</clus>
<clus scale="   91.782">  7  8 -1 -1</clus>
<clus scale="  122.524">  2  5  1 -1</clus>
<clus scale="   77.689">  1  5  2 -1</clus>
</clustering>
</event>
<event>
 9    1  0.1399746E-005  0.1037925E+03  0.7546771E-02  0.1277216E+00
         21   -1    0    0  501  502  0.00000000000E+00  0.00000000000E+00  0.57469729595E+03  0.57469729595E+03  0.00000000000E+00 0.  1.
         -3   -1    0    0    0  501 -0.00000000000E+00 -0.00000000000E+00 -0.22188588964E+02  0.22188588964E+02  0.00000000000E+00 0.  1.
         23    2    1    2    0    0 -0.22086615781E+02  0.49785701676E+02  0.24396389259E+03  0.26633091909E+03  0.91909427649E+02 0.  0.
         23    2    1    2    0    0  0.35047761386E+02 -0.27936071531E+02  0.24585475860E+03  0.26291296164E+03  0.81669415350E+02 0.  0.
        -11    1    4    4    0    0 -0.14392702030E+02 -0.39484467942E+02  0.99903031125E+02  0.10838260335E+03  0.00000000000E+00 0.  1.
         11    1    4    4    0    0  0.49440463415E+02  0.11548396411E+02  0.14595172747E+03  0.15453035830E+03  0.00000000000E+00 0. -1.
        -11    1    3    3    0    0 -0.38044219959E+02  0.30984335242E+02  0.23503823908E+03  0.24010490526E+03  0.00000000000E+00 0. -1.
         11    1    3    3    0    0  0.15957604178E+02  0.18801366434E+02  0.89256535103E+01  0.26226013831E+02  0.00000000000E+00 0.  1.
         -3    1    1    2    0  502 -0.12961145604E+02 -0.21849630145E+02  0.62690055797E+02  0.67642004174E+02  0.00000000000E+00 0.  1.
<scales pt_clust_5="13000.00000" pt_clust_6="13000.00000" pt_clust_7="13000.00000" pt_clust_8="13000.00000" pt_clust_9="25.40468"></scales>
<clustering>
<clus scale="   25.405">  1  9  2 -1</clus>
<clus scale="   81.669">  5  6 -1 -1</clus>
<clus scale="   91.909">  7  8 -1 -1</clus>
<clus scale="   94.844">  1  5  2 -1</clus>
<clus scale="   25.405">  1  5  2 -1</clus>
</clustering>
</event>
<event>
 9    1  0.1399746E-005  0.2567070E+03  0.7546771E-02  0.1141170E+00
          2   -1    0    0  502    0 -0.00000000000E+00  0.00000000000E+00  0.65440052327E+03  0.65440052327E+03  0.00000000000E+00 0.  1.
         21   -1    0    0  501  502  0.00000000000E+00 -0.00000000000E+00 -0.28376549217E+03  0.28376549217E+03  0.00000000000E+00 0.  1.
         23    2    1    2    0    0 -0.62700079412E+02 -0.34610554421E+02 -0.59582689692E+02  0.13046638958E+03  0.91335598008E+02 0.  0.
         23    2    1    2    0    0  0.21380674812E+03 -0.14837756989E+03  0.49046005225E+03  0.56285882561E+03  0.92356731867E+02 0.  0.
        -11    1    3    3    0    0 -0.62983501265E+02  0.26956904769E+01 -0.35384765399E+01  0.63140391153E+02  0.00000000000E+00 0.  1.
         11    1    3    3    0    0  0.28342185295E+00 -0.37306244898E+02 -0.56044213152E+02  0.67325998427E+02  0.00000000000E+00 0. -1.
        -11    1    4    4    0    0  0.67590996408E+02 -0.97266000690E+02  0.25291489166E+03  0.27927613594E+03  0.00000000000E+00 0.  1.
         11    1    4    4    0    0  0.14621575171E+03 -0.51111569197E+02  0.23754516060E+03  0.28358268966E+03  0.00000000000E+00 0. -1.
          2    1    1    2  501    0 -0.15110666871E+03  0.18298812431E+03 -0.60242331457E+02  0.24484080025E+03  0.00000000000E+00 0.  1.
<scales pt_clust_5="13000.00000" pt_clust_6="13000.00000" pt_clust_7="13000.00000" pt_clust_8="13000.00000" pt_clust_9="239.51771"></scales>
<clustering>
<clus scale="   91.336">  5  6 -1 -1</clus>
<clus scale="   92.357">  7  8 -1 -1</clus>
<clus scale="  116.066">  1  5  2 -1</clus>
<clus scale="  239.518">  2  9  1 -1</clus>
<clus scale="  239.518">  2  5  1 -1</clus>
</clustering>
</event>
<event>
 9    1  0.1399746E-005  0.9882801E+02  0.7546771E-02  0.1287289E+00
         21   -1    0    0  501  502  0.00000000000E+00  0.00000000000E+00  0.43536390211E+02  0.43536390211E+02  0.00000000000E+00 0. -1.
         -1   -1    0    0    0  501 -0.00000000000E+00 -0.00000000000E+00 -0.50435710660E+03  0.50435710660E+03  0.00000000000E+00 0.  1.
         23    2    1    2    0    0  0.11628276638E+01 -0.73300085533E+01 -0.40343119785E+03  0.41538780210E+03  0.98667185749E+02 0.  0.
         23    2    1    2    0    0  0.21107190858E+02 -0.64577194639E+01 -0.44602855258E+02  0.10335858633E+03  0.90589000570E+02 0.  0.
        -11    1    4    4    0    0  0.45199546754E+02 -0.22289912623E+02 -0.17519799291E+00  0.50397122198E+02  0.00000000000E+00 0. -1.
         11    1    4    4    0    0 -0.24092355896E+02  0.15832193159E+02 -0.44427657265E+02  0.52961464131E+02  0.00000000000E+00 0.  1.
        -13    1    3    3    0    0  0.14589932774E+02  0.40007522953E+02 -0.11181957255E+03  0.11965402140E+03  0.00000000000E+00 0. -1.
         13    1    3    3    0    0 -0.13427105110E+02 -0.47337531506E+02 -0.29161162530E+03  0.29573378070E+03  0.00000000000E+00 0.  1.
         -1    1    1    2    0  502 -0.22270018522E+02  0.13787728017E+02 -0.12786663277E+02  0.29147108375E+02  0.00000000000E+00 0.  1.
<scales pt_clust_5="13000.00000" pt_clust_6="13000.00000" pt_clust_7="13000.00000" pt_clust_8="13000.00000" pt_clust_9="26.19265"></scales>
<clustering>
<clus scale="   26.193">  1  9  2 -1</clus>
<clus scale="   90.589">  5  6 -1 -1</clus>
<clus scale="   90.764">  1  5  2 -1</clus>
<clus scale="   98.667">  7  8 -1 -1</clus>
<clus scale="   26.193">  1  5  2 -1</clus>
</clustering>
</event>
<event>
 9    1  0.1399746E-005  0.9652645E+02  0.7546771E-02  0.1290050E+00
         21   -1    0    0  501  502  0.00000000000E+00  0.00000000000E+00  0.13767035970E+03  0.13767035970E+03  0.00000000000E+00 0. -1.
         -1   -1    0    0    0  501 -0.00000000000E+00 -0.00000000000E+00 -0.21161021305E+03  0.21161021305E+03  0.00000000000E+00 0.  1.
         23    2    1    2    0    0 -0.24902683475E+02 -0.77630855878E+01 -0.15765865386E+03  0.18420999010E+03  0.91633291841E+02 0.  0.
         23    2    1    2    0    0  0.54831586794E+02  0.40814250263E+01  0.37398693719E+02  0.10979991980E+03  0.87373904314E+02 0.  0.
        -11    1    3    3    0    0 -0.11942733006E+02 -0.39537410928E+02 -0.13929608458E+03  0.14529017487E+03  0.00000000000E+00 0.  1.
         11    1    3    3    0    0 -0.12959950469E+02  0.31774325340E+02 -0.18362569281E+02  0.38919815230E+02  0.00000000000E+00 0. -1.
        -13    1    4    4    0    0 -0.89492061057E+01 -0.29693606757E+02  0.96809306346E+01  0.32488751747E+02  0.00000000000E+00 0. -1.
         13    1    4    4    0    0  0.63780792900E+02  0.33775031783E+02  0.27717763085E+02  0.77311168050E+02  0.00000000000E+00 0.  1.
         -1    1    1    2    0  502 -0.29928903319E+02  0.36816605615E+01  0.46320106796E+02  0.55270662851E+02  0.00000000000E+00 0.  1.
<scales pt_clust_5="13000.00000" pt_clust_6="13000.00000" pt_clust_7="13000.00000" pt_clust_8="13000.00000" pt_clust_9="30.15450"></scales>
<clustering>
<clus scale="   30.155">  1  9  2 -1</clus>
<clus scale="   87.374">  7  8 -1 -1</clus>
<clus scale="   91.633">  5  6 -1 -1</clus>
<clus scale="   92.493">  1  7  2 -1</clus>
<clus scale="   30.155">  1  5  2 -1</clus>
</clustering>
</event>
<event>
 9    1  0.1399746E-005  0.9484157E+02  0.7546771E-02  0.1292556E+00
         21   -1    0    0  501  502  0.00000000000E+00  0.00000000000E+00  0.43087882142E+02  0.43087882142E+02  0.00000000000E+00 0. -1.
          2   -1    0    0  502    0 -0.00000000000E+00 -0.00000000000E+00 -0.44185233581E+03  0.44185233581E+03  0.00000000000E+00 0. -1.
         23    2    1    2    0    0  0.39297805600E+02  0.10006053016E+01 -0.28592059538E+03  0.30191514300E+03  0.88638862675E+02 0.  0.
         23    2    1    2    0    0 -0.62297882815E+01 -0.84702961553E+01 -0.11761802229E+03  0.14878938169E+03  0.90519195518E+02 0.  0.
        -11    1    4    4    0    0 -0.45237130981E+02 -0.12861077560E+02 -0.87406276503E+02  0.99255541445E+02  0.00000000000E+00 0.  1.
         11    1    4    4    0    0  0.39007342700E+02  0.43907814050E+01 -0.30211745783E+02  0.49533840242E+02  0.00000000000E+00 0. -1.
        -13    1    3    3    0    0  0.32490446468E+02 -0.41642626768E+02 -0.17814865737E+03  0.18581356678E+03  0.00000000000E+00 0.  1.
         13    1    3    3    0    0  0.68073591323E+01  0.42643232069E+02 -0.10777193801E+03  0.11610157622E+03  0.00000000000E+00 0. -1.
          2    1    1    2  501    0 -0.33068017319E+02  0.74696908537E+01  0.47741640031E+01  0.34235693257E+02  0.00000000000E+00 0. -1.
<scales pt_clust_5="13000.00000" pt_clust_6="13000.00000" pt_clust_7="13000.00000" pt_clust_8="13000.00000" pt_clust_9="33.90118"></scales>
<clustering>
<clus scale="   33.901">  1  9  2 -1</clus>
<clus scale="   88.639">  7  8 -1 -1</clus>
<clus scale="   90.519">  5  6 -1 -1</clus>
<clus scale="   93.049">  2  7  1 -1</clus>
<clus scale="   33.901">  1  5  2 -1</clus>
</clustering>
</event>
<event>
 9    1  0.1399746E-005  0.3471136E+03  0.7546771E-02  0.1063811E+00
         21   -1    0    0  501  502  0.00000000000E+00  0.00000000000E+00  0.23398306519E+03  0.23398306519E+03  0.00000000000E+00 0.  1.
         -2   -1    0    0    0  501 -0.00000000000E+00 -0.00000000000E+00 -0.10934872490E+04  0.10934872490E+04  0.00000000000E+00 0.  1.
         23    2    1    2    0    0  0.34021233748E+02  0.32599853569E+03 -0.60357841470E+03  0.69287861080E+03  0.91331139238E+02 0.  0.
         23    2    1    2    0    0 -0.11972130868E+02 -0.34674546379E+03 -0.37072466903E+03  0.51586771506E+03  0.91142584089E+02 0.  0.
        -13    1    3    3    0    0 -0.20631087690E+02  0.91895529130E+02 -0.23116124456E+03  0.24961160037E+03  0.00000000000E+00 0. -1.
         13    1    3    3    0    0  0.54652321439E+02  0.23410300656E+03 -0.37241717014E+03  0.44326701043E+03  0.00000000000E+00 0.  1.
        -13    1    4    4    0    0  0.17230203666E+02 -0.23549986206E+03 -0.29626925009E+03  0.37885687733E+03  0.00000000000E+00 0. -1.
         13    1    4    4    0    0 -0.29202334534E+02 -0.11124560173E+03 -0.74455418944E+02  0.13701083773E+03  0.00000000000E+00 0.  1.
         -2    1    1    2    0  502 -0.22049102880E+02  0.20746928099E+02  0.11479889996E+03  0.11872398829E+03  0.00000000000E+00 0.  1.
<scales pt_clust_5="13000.00000" pt_clust_6="13000.00000" pt_clust_7="13000.00000" pt_clust_8="13000.00000" pt_clust_9="30.27537"></scales>
<clustering>
<clus scale="   30.275">  1  9  2 -1</clus>
<clus scale="   91.143">  7  8 -1 -1</clus>
<clus scale="   91.331">  5  6 -1 -1</clus>
<clus scale="  347.064">  1  7  2 -1</clus>
<clus scale="   30.275">  1  5  2 -1</clus>
</clustering>
</event>
<event>
 9    1  0.1399746E-005  0.3124888E+03  0.7546771E-02  0.1079220E+00
          1   -1    0    0  502    0 -0.00000000000E+00  0.00000000000E+00  0.45752066869E+03  0.45752066869E+03  0.00000000000E+00 0. -1.
         21   -1    0    0  501  502  0.00000000000E+00 -0.00000000000E+00 -0.30044671076E+03  0.30044671076E+03  0.00000000000E+00 0.  1.
         23    2    1    2    0    0  0.28832460364E+03  0.71874404315E+02  0.12916092609E+03  0.33590953509E+03  0.88632183096E+02 0.  0.
         23    2    1    2    0    0 -0.28357185670E+03 -0.10439428668E+03  0.10967340604E+03  0.33393923031E+03  0.90421173120E+02 0.  0.
        -11    1    3    3    0    0  0.21189070966E+03  0.92019484301E+02  0.94134581895E+02  0.24945255629E+03  0.00000000000E+00 0. -1.
         11    1    3    3    0    0  0.76433893979E+02 -0.20145079986E+02  0.35026344197E+02  0.86456978806E+02  0.00000000000E+00 0.  1.
        -13    1    4    4    0    0 -0.10136472044E+03 -0.23031430924E+02  0.82172999962E+02  0.13250530285E+03  0.00000000000E+00 0. -1.
         13    1    4    4    0    0 -0.18220713626E+03 -0.81362855758E+02  0.27500406078E+02  0.20143392747E+03  0.00000000000E+00 0.  1.
          1    1    1    2  501    0 -0.47527469402E+01  0.32519882367E+02 -0.81760374200E+02  0.88118614050E+02  0.00000000000E+00 0. -1.
<scales pt_clust_5="13000.00000" pt_clust_6="13000.00000" pt_clust_7="13000.00000" pt_clust_8="13000.00000" pt_clust_9="32.86535"></scales>
<clustering>
<clus scale="   32.865">  2  9  1 -1</clus>
<clus scale="   88.632">  5  6 -1 -1</clus>
<clus scale="   90.421">  7  8 -1 -1</clus>
<clus scale="  311.976">  1  5  2 -1</clus>
<clus scale="   32.865">  2  5  1 -1</clus>
</clustering>
</event>
<event>
 9    1  0.1399746E-005  0.9908875E+02  0.7546771E-02  0.1283088E+00
         21   -1    0    0  501  502  0.00000000000E+00  0.00000000000E+00  0.50143987274E+03  0.50143987274E+03  0.00000000000E+00 0. -1.
          1   -1    0    0  502    0 -0.00000000000E+00 -0.00000000000E+00 -0.47183623174E+02  0.47183623174E+02  0.00000000000E+00 0. -1.
         23    2    1    2    0    0 -0.63365982178E+01  0.34089196237E+02  0.89627173376E+02  0.13198871174E+03  0.90475212310E+02 0.  0.
         23    2    1    2    0    0  0.33024082352E+02 -0.34211556981E+02  0.37417488100E+03  0.38829119282E+03  0.92207310996E+02 0.  0.
        -13    1    3    3    0    0  0.41033740837E+02  0.18365430517E+02  0.55969354569E+02  0.71788756613E+02  0.00000000000E+00 0. -1.
         13    1    3    3    0    0 -0.47370339055E+02  0.15723765720E+02  0.33657818807E+02  0.60199955128E+02  0.00000000000E+00 0.  1.
        -13    1    4    4    0    0  0.47923643282E+02  0.15612309453E+02  0.15314535759E+03  0.16122630165E+03  0.00000000000E+00 0. -1.
         13    1    4    4    0    0 -0.14899560930E+02 -0.49823866434E+02  0.22102952341E+03  0.22706489117E+03  0.00000000000E+00 0.  1.
          1    1    1    2  501    0 -0.26687484134E+02  0.12236074433E+00 -0.95458048100E+01  0.28343591357E+02  0.00000000000E+00 0. -1.
<scales pt_clust_5="13000.00000" pt_clust_6="13000.00000" pt_clust_7="13000.00000" pt_clust_8="13000.00000" pt_clust_9="26.68778"></scales>
<clustering>
<clus scale="   26.688">  1  9  2 -1</clus>
<clus scale="   90.475">  5  6 -1 -1</clus>
<clus scale="   92.207">  7  8 -1 -1</clus>
<clus scale="   97.479">  2  5  1 -1</clus>
<clus scale="   26.688">  1  5  2 -1</clus>
</clustering>
</event>
<event>
 9    1  0.1399746E-005  0.1444250E+03  0.7546771E-02  0.1207807E+00
         21   -1    0    0  501  502  0.00000000000E+00  0.00000000000E+00  0.16275182844E+03  0.16275182844E+03  0.00000000000E+00 0. -1.
          1   -1    0    0  502    0 -0.00000000000E+00 -0.00000000000E+00 -0.76712389712E+03  0.76712389712E+03  0.00000000000E+00 0. -1.
         23    2    1    2    0    0 -0.58576685623E+02 -0.96451376126E+02 -0.70567826364E+03  0.72044436455E+03  0.91236914552E+02 0.  0.
         23    2    1    2    0    0  0.21297221047E+02  0.87421193438E+02  0.36750617255E+02  0.13433991482E+03  0.92739248205E+02 0.  0.
        -11    1    3    3    0    0 -0.24327824033E+02  0.88095143547E+01 -0.59919495037E+02  0.65267116153E+02  0.00000000000E+00 0.  1.
         11    1    3    3    0    0 -0.34248861590E+02 -0.10526089048E+03 -0.64575876860E+03  0.65517724839E+03  0.00000000000E+00 0. -1.
        -11    1    4    4    0    0 -0.86357756786E+01  0.82011949487E+02 -0.50770062294E+01  0.82621501272E+02  0.00000000000E+00 0. -1.
         11    1    4    4    0    0  0.29932996725E+02  0.54092439512E+01  0.41827623485E+02  0.51718413544E+02  0.00000000000E+00 0.  1.
          1    1    1    2  501    0  0.37279464577E+02  0.90301826881E+01  0.64555577713E+02  0.75091446200E+02  0.00000000000E+00 0. -1.
<scales pt_clust_5="13000.00000" pt_clust_6="13000.00000" pt_clust_7="13000.00000" pt_clust_8="13000.00000" pt_clust_9="38.35756"></scales>
<clustering>
<clus scale="   38.358">  1  9  2 -1</clus>
<clus scale="   91.237">  5  6 -1 -1</clus>
<clus scale="   92.739">  7  8 -1 -1</clus>
<clus scale="  143.465">  2  5  1 -1</clus>
<clus scale="   38.358">  1  5  2 -1</clus>
</clustering>
</event>
<event>
 9    1  0.1399746E-005  0.1306388E+03  0.7546771E-02  0.1226863E+00
          3   -1    0    0  502    0 -0.00000000000E+00  0.00000000000E+00  0.10013589709E+04  0.10013589709E+04  0.00000000000E+00 0. -1.
         21   -1    0    0  501  502  0.00000000000E+00 -0.00000000000E+00 -0.11319830490E+03  0.11319830490E+03  0.00000000000E+00 0. -1.
         23    2    1    2    0    0 -0.85377901967E+01 -0.64547063631E+02  0.44396863837E+03  0.45823594540E+03  0.92912929739E+02 0.  0.
         23    2    1    2    0    0 -0.65602765536E+01  0.14405770283E+03  0.51882926768E+03  0.54622768404E+03  0.91570818678E+02 0.  0.
        -11    1    4    4    0    0 -0.25186274345E+02  0.43588281528E+02  0.71935365738E+02  0.87800817455E+02  0.00000000000E+00 0.  1.
         11    1    4    4    0    0  0.18625997791E+02  0.10046942130E+03  0.44689390194E+03  0.45842686658E+03  0.00000000000E+00 0. -1.
        -13    1    3    3    0    0  0.20421987963E+02 -0.71675136851E+02  0.38508036808E+03  0.39222604798E+03  0.00000000000E+00 0. -1.
         13    1    3    3    0    0 -0.28959778160E+02  0.71280732202E+01  0.58888270286E+02  0.66009897411E+02  0.00000000000E+00 0.  1.
          3    1    1    2  501    0  0.15098066750E+02 -0.79510639199E+02 -0.74637240062E+02  0.11009364636E+03  0.00000000000E+00 0. -1.
<scales pt_clust_5="13000.00000" pt_clust_6="13000.00000" pt_clust_7="13000.00000" pt_clust_8="13000.00000" pt_clust_9="80.93141"></scales>
<clustering>
<clus scale="   80.931">  2  9  1 -1</clus>
<clus scale="   91.571">  5  6 -1 -1</clus>
<clus scale="   92.913">  7  8 -1 -1</clus>
<clus scale="  129.688">  2  5  1 -1</clus>
<clus scale="   80.931">  2  5  1 -1</clus>
</clustering>
</event>
<event>
 9    1  0.1399746E-005  0.1578510E+03  0.7546771E-02  0.1204016E+00
         21   -1    0    0  501  502  0.00000000000E+00  0.00000000000E+00  0.17377536669E+03  0.17377536669E+03  0.00000000000E+00 0. -1.
          1   -1    0    0  502    0 -0.00000000000E+00 -0.00000000000E+00 -0.77974698975E+03  0.77974698975E+03  0.00000000000E+00 0. -1.
         23    2    1    2    0    0  0.70986363405E+02  0.13639755587E+02 -0.35382109338E+02  0.12435438683E+03  0.94799858342E+02 0.  0.
         23    2    1    2    0    0 -0.95121599618E+02  0.11285012752E+03 -0.65341450951E+03  0.67605957635E+03  0.91229159497E+02 0.  0.
        -11    1    3    3    0    0  0.20800969793E+02 -0.35083156396E+02  0.86625315261E+01  0.41695894996E+02  0.00000000000E+00 0. -1.
         11    1    3    3    0    0  0.50185393612E+02  0.48722911983E+02 -0.44044640864E+02  0.82658491838E+02  0.00000000000E+00 0.  1.
        -13    1    4    4    0    0 -0.41936470493E+02 -0.45102758720E+00 -0.95921947385E+02  0.10468949791E+03  0.00000000000E+00 0.  1.
         13    1    4    4    0    0 -0.53185129125E+02  0.11330115511E+03 -0.55749256213E+03  0.57137007844E+03  0.00000000000E+00 0. -1.
          1    1    1    2  501    0  0.24135236213E+02 -0.12648988311E+03  0.82824995790E+02  0.15310839325E+03  0.00000000000E+00 0. -1.
<scales pt_clust_5="13000.00000" pt_clust_6="13000.00000" pt_clust_7="13000.00000" pt_clust_8="13000.00000" pt_clust_9="128.81835"></scales>
<clustering>
<clus scale="   91.229">  7  8 -1 -1</clus>
<clus scale="   94.800">  5  6 -1 -1</clus>
<clus scale="  119.215">  2  5  1 -1</clus>
<clus scale="  128.818">  1  9  2 -1</clus>
<clus scale="  128.818">  1  5  2 -1</clus>
</clustering>
</event>
<event>
 9    1  0.1399746E-005  0.1138336E+03  0.7546771E-02  0.1253695E+00
         21   -1    0    0  501  502  0.00000000000E+00  0.00000000000E+00  0.61594741792E+02  0.61594741792E+02  0.00000000000E+00 0.  1.
          1   -1    0    0  502    0 -0.00000000000E+00 -0.00000000000E+00 -0.27571286315E+03  0.27571286315E+03  0.00000000000E+00 0. -1.
         23    2    1    2    0    0  0.68800369168E+02  0.26567250356E+02 -0.14472551624E+03  0.18565597061E+03  0.89907479009E+02 0.  0.
         23    2    1    2    0    0 -0.64747556111E+02 -0.49487767789E+01 -0.66565852184E+02  0.12947565125E+03  0.90089928271E+02 0.  0.
        -11    1    3    3    0    0  0.32022229172E+02 -0.32584669020E+02 -0.45994947297E+02  0.64828381077E+02  0.00000000000E+00 0. -1.
         11    1    3    3    0    0  0.36778139996E+02  0.59151919376E+02 -0.98730568948E+02  0.12082758953E+03  0.00000000000E+00 0.  1.
        -13    1    4    4    0    0 -0.35066426388E+02 -0.57615424911E+00 -0.86578344878E+02  0.93411969336E+02  0.00000000000E+00 0. -1.
         13    1    4    4    0    0 -0.29681129723E+02 -0.43726225298E+01  0.20012492694E+02  0.36063681915E+02  0.00000000000E+00 0.  1.
          1    1    1    2  501    0 -0.40528130568E+01 -0.21618473577E+02 -0.28267529291E+01  0.22175983081E+02  0.00000000000E+00 0. -1.
<scales pt_clust_5="13000.00000" pt_clust_6="13000.00000" pt_clust_7="13000.00000" pt_clust_8="13000.00000" pt_clust_9="21.99508"></scales>
<clustering>
<clus scale="   21.995">  1  9  2 -1</clus>
<clus scale="   89.907">  5  6 -1 -1</clus>
<clus scale="   90.090">  7  8 -1 -1</clus>
<clus scale="  113.689">  2  5  1 -1</clus>
<clus scale="   21.995">  1  5  2 -1</clus>
</clustering>
</event>
<event>
 9    1  0.1399746E-005  0.1639292E+03  0.7546771E-02  0.1184347E+00
         21   -1    0    0  501  502  0.00000000000E+00  0.00000000000E+00  0.23919010145E+03  0.23919010145E+03  0.00000000000E+00 0. -1.
          2   -1    0    0  502    0 -0.00000000000E+00 -0.00000000000E+00 -0.42037404744E+03  0.42037404744E+03  0.00000000000E+00 0. -1.
         23    2    1    2    0    0 -0.10681752405E+03 -0.96157339847E+01  0.65895643619E+02  0.15530321017E+03  0.90963759027E+02 0.  0.
         23    2    1    2    0    0  0.16942252741E+03  0.19288147651E+01  0.51465774417E+02  0.19912521556E+03  0.91073664777E+02 0.  0.
        -11    1    4    4    0    0  0.11432607831E+03  0.44186448559E+02  0.38643824549E+02  0.12851552277E+03  0.00000000000E+00 0. -1.
         11    1    4    4    0    0  0.55096449095E+02 -0.42257633793E+02  0.12821949868E+02  0.70609692785E+02  0.00000000000E+00 0.  1.
        -13    1    3    3    0    0 -0.11336769814E+03 -0.31451987068E+02  0.58064760041E+02  0.13119824248E+03  0.00000000000E+00 0.  1.
         13    1    3    3    0    0  0.65501740934E+01  0.21836253083E+02  0.78308835779E+01  0.24104967682E+02  0.00000000000E+00 0. -1.
          2    1    1    2  501    0 -0.62605003358E+02  0.76869192196E+01 -0.29854536403E+03  0.30513572317E+03  0.00000000000E+00 0. -1.
<scales pt_clust_5="13000.00000" pt_clust_6="13000.00000" pt_clust_7="13000.00000" pt_clust_8="13000.00000" pt_clust_9="63.07519"></scales>
<clustering>
<clus scale="   63.075">  1  9  2 -1</clus>
<clus scale="   90.964">  7  8 -1 -1</clus>
<clus scale="   91.074">  5  6 -1 -1</clus>
<clus scale="  163.868">  2  7  1 -1</clus>
<clus scale="   63.075">  1  5  2 -1</clus>
</clustering>
</event>
<event>
 9    1  0.1399746E-005  0.2697500E+03  0.7546771E-02  0.1101942E+00
         21   -1    0    0  501  502  0.00000000000E+00  0.00000000000E+00  0.39284130092E+03  0.39284130092E+03  0.00000000000E+00 0.  1.
          1   -1    0    0  502    0 -0.00000000000E+00 -0.00000000000E+00 -0.22912739746E+03  0.22912739746E+03  0.00000000000E+00 0. -1.
         23    2    1    2    0    0 -0.51308027263E+02  0.25851756380E+03 -0.14699488679E+01  0.27683473264E+03  0.84684496764E+02 0.  0.
         23    2    1    2    0    0  0.47830945364E+02 -0.23220244845E+03  0.99403789589E+02  0.27420024985E+03  0.95388087490E+02 0.  0.
        -11    1    3    3    0    0 -0.72438790828E+02  0.15693364444E+03 -0.63452875271E+01  0.17296187397E+03  0.00000000000E+00 0. -1.
         11    1    3    3    0    0  0.21130763565E+02  0.10158391935E+03  0.48753386592E+01  0.10387285866E+03  0.00000000000E+00 0.  1.
        -11    1    4    4    0    0  0.67082256746E+02 -0.15434960660E+03  0.36336190903E+02  0.17217476295E+03  0.00000000000E+00 0. -1.
         11    1    4    4    0    0 -0.19251311382E+02 -0.77852841852E+02  0.63067598686E+02  0.10202548691E+03  0.00000000000E+00 0.  1.
          1    1    1    2  501    0  0.34770818989E+01 -0.26315115349E+02  0.65780062742E+02  0.70933715881E+02  0.00000000000E+00 0. -1.
<scales pt_clust_5="13000.00000" pt_clust_6="13000.00000" pt_clust_7="13000.00000" pt_clust_8="13000.00000" pt_clust_9="26.54384"></scales>
<clustering>
<clus scale="   26.544">  1  9  2 -1</clus>
<clus scale="   84.684">  5  6 -1 -1</clus>
<clus scale="   95.388">  7  8 -1 -1</clus>
<clus scale="  266.153">  2  5  1 -1</clus>
<clus scale="   26.544">  1  5  2 -1</clus>
</clustering>
</event>
<event>
 9    1  0.1399746E-005  0.1292224E+03  0.7546771E-02  0.1229452E+00
          2   -1    0    0  502    0 -0.00000000000E+00  0.00000000000E+00  0.40225824835E+03  0.40225824835E+03  0.00000000000E+00 0. -1.
         21   -1    0    0  501  502  0.00000000000E+00 -0.00000000000E+00 -0.39411837311E+03  0.39411837311E+03  0.00000000000E+00 0. -1.
         23    2    1    2    0    0  0.37808038475E+02  0.78219259330E+02  0.36596330567E+03  0.38803803978E+03  0.95376511332E+02 0.  0.
         23    2    1    2    0    0 -0.13680514458E+02 -0.95704645088E+02 -0.16100705877E+03  0.20927939378E+03  0.92347474905E+02 0.  0.
        -11    1    4    4    0    0 -0.29399494902E+02 -0.10862632307E+03 -0.12732942623E+03  0.16993172497E+03  0.00000000000E+00 0. -1.
         11    1    4    4    0    0  0.15718980444E+02  0.12921677985E+02 -0.33677632537E+02  0.39347668818E+02  0.00000000000E+00 0.  1.
        -13    1    3    3    0    0  0.38272450297E+02  0.35820428782E+01  0.22763472631E+03  0.23085748874E+03  0.00000000000E+00 0. -1.
         13    1    3    3    0    0 -0.46441182215E+00  0.74637216451E+02  0.13832857936E+03  0.15718055104E+03  0.00000000000E+00 0.  1.
          2    1    1    2  501    0 -0.24127524017E+02  0.17485385759E+02 -0.19681637167E+03  0.19905918790E+03  0.00000000000E+00 0. -1.
<scales pt_clust_5="13000.00000" pt_clust_6="13000.00000" pt_clust_7="13000.00000" pt_clust_8="13000.00000" pt_clust_9="29.79725"></scales>
<clustering>
<clus scale="   29.797">  2  9  1 -1</clus>
<clus scale="   92.347">  5  6 -1 -1</clus>
<clus scale="   95.377">  7  8 -1 -1</clus>
<clus scale="  127.003">  2  5  1 -1</clus>
<clus scale="   29.797">  2  5  1 -1</clus>
</clustering>
</event>
<event>
 9    1  0.1399746E-005  0.9214726E+02  0.7546771E-02  0.1297973E+00
         21   -1    0    0  501  502  0.00000000000E+00  0.00000000000E+00  0.51408579766E+02  0.51408579766E+02  0.00000000000E+00 0. -1.
          1   -1    0    0  502    0 -0.00000000000E+00 -0.00000000000E+00 -0.23050024787E+03  0.23050024787E+03  0.00000000000E+00 0. -1.
         23    2    1    2    0    0 -0.11634793597E+02  0.64058689615E+01 -0.11218450903E+03  0.14530188393E+03  0.91383093771E+02 0.  0.
         23    2    1    2    0    0 -0.98135549125E+01 -0.92960935291E+01 -0.67851228485E+02  0.11494415721E+03  0.91791322331E+02 0.  0.
        -11    1    4    4    0    0 -0.47195728803E+02  0.82037369022E+01 -0.52073515855E+02  0.70755841949E+02  0.00000000000E+00 0. -1.
         11    1    4    4    0    0  0.37382173891E+02 -0.17499830431E+02 -0.15777712631E+02  0.44188315263E+02  0.00000000000E+00 0.  1.
        -11    1    3    3    0    0 -0.21760647990E+01  0.29243010841E+02  0.11073745416E+01  0.29344764770E+02  0.00000000000E+00 0. -1.
         11    1    3    3    0    0 -0.94587287975E+01 -0.22837141880E+02 -0.11329188357E+03  0.11595711916E+03  0.00000000000E+00 0.  1.
          1    1    1    2  501    0  0.21448348509E+02  0.28902245677E+01  0.94406941045E+00  0.21662786498E+02  0.00000000000E+00 0. -1.
<scales pt_clust_5="13000.00000" pt_clust_6="13000.00000" pt_clust_7="13000.00000" pt_clust_8="13000.00000" pt_clust_9="21.64221"></scales>
<clustering>
<clus scale="   21.642">  1  9  2 -1</clus>
<clus scale="   91.383">  7  8 -1 -1</clus>
<clus scale="   91.741">  2  7  1 -1</clus>
<clus scale="   91.791">  5  6 -1 -1</clus>
<clus scale="   21.642">  1  5  2 -1</clus>
</clustering>
</event>
<event>
 9    1  0.1399746E-005  0.9113902E+02  0.7546771E-02  0.1300238E+00
         21   -1    0    0  501  502  0.00000000000E+00  0.00000000000E+00  0.56873784302E+02  0.56873784302E+02  0.00000000000E+00 0. -1.
         -4   -1    0    0    0  501 -0.00000000000E+00 -0.00000000000E+00 -0.32601798387E+03  0.32601798387E+03  0.00000000000E+00 0.  1.
         23    2    1    2    0    0 -0.30604011804E+01  0.12388647390E+02 -0.15967343268E+03  0.18408301113E+03  0.90708903866E+02 0.  0.
         23    2    1    2    0    0  0.90821586792E+01  0.22108182058E+02 -0.12829800704E+03  0.15905001239E+03  0.90913533156E+02 0.  0.
        -13    1    4    4    0    0  0.35040743903E+02  0.13888826610E+02 -0.12623604288E+03  0.13174327976E+03  0.00000000000E+00 0.  1.
         13    1    4    4    0    0 -0.25958585224E+02  0.82193554485E+01 -0.20619641511E+01  0.27306732631E+02  0.00000000000E+00 0. -1.
        -13    1    3    3    0    0 -0.59513194025E+01  0.51288075987E+02 -0.77539339544E+02  0.93157040088E+02  0.00000000000E+00 0. -1.
         13    1    3    3    0    0  0.28909182221E+01 -0.38899428596E+02 -0.82134093140E+02  0.90925971038E+02  0.00000000000E+00 0.  1.
         -4    1    1    2    0  502 -0.60217574988E+01 -0.34496829449E+02  0.18827240149E+02  0.39758744661E+02  0.00000000000E+00 0.  1.
<scales pt_clust_5="13000.00000" pt_clust_6="13000.00000" pt_clust_7="13000.00000" pt_clust_8="13000.00000" pt_clust_9="35.01846"></scales>
<clustering>
<clus scale="   35.018">  1  9  2 -1</clus>
<clus scale="   90.709">  7  8 -1 -1</clus>
<clus scale="   90.914">  5  6 -1 -1</clus>
<clus scale="   90.935">  2  7  1 -1</clus>
<clus scale="   35.018">  1  5  2 -1</clus>
</clustering>
</event>
<event>
 9    1  0.1399746E-005  0.9989189E+02  0.7546771E-02  0.1281211E+00
          2   -1    0    0  502    0 -0.00000000000E+00  0.00000000000E+00  0.49007979671E+03  0.49007979671E+03  0.00000000000E+00 0. -1.
         21   -1    0    0  501  502  0.00000000000E+00 -0.00000000000E+00 -0.51097386277E+02  0.51097386277E+02  0.00000000000E+00 0.  1.
         23    2    1    2    0    0 -0.34534506270E+02 -0.17214156389E+02  0.36921219690E+03  0.38197962498E+03  0.90010156435E+02 0.  0.
         23    2    1    2    0    0  0.30846604189E+02  0.40283252465E+02  0.81950312049E+02  0.13285104751E+03  0.91429173467E+02 0.  0.
        -11    1    4    4    0    0  0.60845013884E+02  0.42297710471E+02  0.52935312199E+02  0.91067882941E+02  0.00000000000E+00 0.  1.
         11    1    4    4    0    0 -0.29998409695E+02 -0.20144580060E+01  0.29014999850E+02  0.41783164571E+02  0.00000000000E+00 0. -1.
        -13    1    3    3    0    0  0.26235610035E+02  0.11860266252E+02  0.79949332312E+02  0.84975695858E+02  0.00000000000E+00 0.  1.
         13    1    3    3    0    0 -0.60770116305E+02 -0.29074422642E+02  0.28926286458E+03  0.29700392912E+03  0.00000000000E+00 0. -1.
          2    1    1    2  501    0  0.36879020809E+01 -0.23069096076E+02 -0.12180098510E+02  0.26346510495E+02  0.00000000000E+00 0. -1.
<scales pt_clust_5="13000.00000" pt_clust_6="13000.00000" pt_clust_7="13000.00000" pt_clust_8="13000.00000" pt_clust_9="23.36202"></scales>
<clustering>
<clus scale="   23.362">  2  9  1 -1</clus>
<clus scale="   90.010">  7  8 -1 -1</clus>
<clus scale="   91.429">  5  6 -1 -1</clus>
<clus scale="   98.595">  1  7  2 -1</clus>
<clus scale="   23.362">  2  5  1 -1</clus>
</clustering>
</event>
<event>
 9    1  0.1399746E-005  0.1469316E+03  0.7546771E-02  0.1207586E+00
         21   -1    0    0  501  502  0.00000000000E+00  0.00000000000E+00  0.40157914296E+03  0.40157914296E+03  0.00000000000E+00 0.  1.
         -1   -1    0    0    0  501 -0.00000000000E+00 -0.00000000000E+00 -0.82289581864E+02  0.82289581864E+02  0.00000000000E+00 0.  1.
         23    2    1    2    0    0  0.15051406092E+02 -0.79154171884E+02  0.99974747491E+02  0.16538293803E+03  0.10423357571E+03 0.  0.
         23    2    1    2    0    0 -0.44527560419E+02  0.11974978152E+03  0.90758355899E+02  0.18048719979E+03  0.89531203015E+02 0.  0.
        -11    1    3    3    0    0  0.33551599941E+02 -0.94197012798E+02  0.54122552810E+02  0.11370152946E+03  0.00000000000E+00 0. -1.
         11    1    3    3    0    0 -0.18500193849E+02  0.15042840914E+02  0.45852194682E+02  0.51681408575E+02  0.00000000000E+00 0.  1.
        -13    1    4    4    0    0 -0.60710466813E+01  0.72494542541E+02  0.94719842929E+02  0.11943267958E+03  0.00000000000E+00 0.  1.
         13    1    4    4    0    0 -0.38456513737E+02  0.47255238975E+02 -0.39614870297E+01  0.61054520217E+02  0.00000000000E+00 0. -1.
         -1    1    1    2    0  502  0.29476154327E+02 -0.40595609632E+02  0.12855645770E+03  0.13799858699E+03  0.00000000000E+00 0.  1.
<scales pt_clust_5="13000.00000" pt_clust_6="13000.00000" pt_clust_7="13000.00000" pt_clust_8="13000.00000" pt_clust_9="50.16819"></scales>
<clustering>
<clus scale="   50.168">  1  9  2 -1</clus>
<clus scale="   89.531">  7  8 -1 -1</clus>
<clus scale="  104.234">  5  6 -1 -1</clus>
<clus scale="  136.894">  1  7  2 -1</clus>
<clus scale="   50.168">  1  5  2 -1</clus>
</clustering>
</event>
<event>
 9    1  0.1399746E-005  0.1113342E+03  0.7546771E-02  0.1258315E+00
          2   -1    0    0  502    0 -0.00000000000E+00  0.00000000000E+00  0.55232476635E+03  0.55232476635E+03  0.00000000000E+00 0. -1.
         21   -1    0    0  501  502  0.00000000000E+00 -0.00000000000E+00 -0.34490889271E+02  0.34490889271E+02  0.00000000000E+00 0.  1.
         23    2    1    2    0    0  0.21332144051E+02  0.52635583623E+02  0.30784757837E+03  0.32603945495E+03  0.91137421757E+02 0.  0.
         23    2    1    2    0    0 -0.23266216993E+02 -0.72702138284E+02  0.20941568551E+03  0.24060858174E+03  0.90612595718E+02 0.  0.
        -11    1    4    4    0    0 -0.53707086106E+02 -0.21052725660E+02  0.11703103925E+03  0.13047579279E+03  0.00000000000E+00 0. -1.
         11    1    4    4    0    0  0.30440869113E+02 -0.51649412624E+02  0.92384646257E+02  0.11013278894E+03  0.00000000000E+00 0.  1.
        -11    1    3    3    0    0  0.55456841508E+02  0.45159834783E+02  0.18574792432E+03  0.19904060726E+03  0.00000000000E+00 0.  1.
         11    1    3    3    0    0 -0.34124697456E+02  0.74757488402E+01  0.12209965405E+03  0.12699884770E+03  0.00000000000E+00 0. -1.
          2    1    1    2  501    0  0.19340729414E+01  0.20066554661E+02  0.57061320171E+00  0.20167618936E+02  0.00000000000E+00 0. -1.
<scales pt_clust_5="13000.00000" pt_clust_6="13000.00000" pt_clust_7="13000.00000" pt_clust_8="13000.00000" pt_clust_9="20.15954"></scales>
<clustering>
<clus scale="   20.160">  2  9  1 -1</clus>
<clus scale="   90.613">  5  6 -1 -1</clus>
<clus scale="   91.137">  7  8 -1 -1</clus>
<clus scale="  110.905">  2  5  1 -1</clus>
<clus scale="   20.160">  2  5  1 -1</clus>
</clustering>
</event>
<event>
 9    1  0.1399746E-005  0.9642634E+02  0.7546771E-02  0.1288710E+00
         21   -1    0    0  501  502  0.00000000000E+00  0.00000000000E+00  0.16588683378E+03  0.16588683378E+03  0.00000000000E+00 0.  1.
         -1   -1    0    0    0  501 -0.00000000000E+00 -0.00000000000E+00 -0.11904549994E+03  0.11904549994E+03  0.00000000000E+00 0.  1.
         23    2    1    2    0    0 -0.35584201837E+02 -0.27452214427E+02 -0.43813441631E+02  0.10958853822E+03  0.89834127943E+02 0.  0.
         23    2    1    2    0    0  0.12567741330E+02 -0.51601843679E+01  0.20231448377E+02  0.94394607692E+02  0.91194598705E+02 0.  0.
        -11    1    3    3    0    0 -0.57414773782E+02 -0.20234037919E+01 -0.40609831728E+01  0.57593766986E+02  0.00000000000E+00 0.  1.
         11    1    3    3    0    0  0.21830571945E+02 -0.25428810635E+02 -0.39752458458E+02  0.51994771229E+02  0.00000000000E+00 0. -1.
        -11    1    4    4    0    0 -0.21534902979E+02  0.18600704934E+02  0.39417871244E+02  0.48615911426E+02  0.00000000000E+00 0. -1.
         11    1    4    4    0    0  0.34102644309E+02 -0.23760889302E+02 -0.19186422868E+02  0.45778696265E+02  0.00000000000E+00 0.  1.
         -1    1    1    2    0  502  0.23016460507E+02  0.32612398794E+02  0.70423327089E+02  0.80949187814E+02  0.00000000000E+00 0.  1.
<scales pt_clust_5="13000.00000" pt_clust_6="13000.00000" pt_clust_7="13000.00000" pt_clust_8="13000.00000" pt_clust_9="39.91649"></scales>
<clustering>
<clus scale="   39.916">  1  9  2 -1</clus>
<clus scale="   89.834">  5  6 -1 -1</clus>
<clus scale="   91.195">  7  8 -1 -1</clus>
<clus scale="   95.141">  2  5  1 -1</clus>
<clus scale="   39.916">  1  5  2 -1</clus>
</clustering>
</event>
<event>
 9    1  0.1399746E-005  0.1074412E+03  0.7546771E-02  0.1266358E+00
          1   -1    0    0  502    0 -0.00000000000E+00  0.00000000000E+00  0.57712433619E+03  0.57712433619E+03  0.00000000000E+00 0. -1.
         21   -1    0    0  501  502  0.00000000000E+00 -0.00000000000E+00 -0.32342637706E+02  0.32342637706E+02  0.00000000000E+00 0.  1.
         23    2    1    2    0    0 -0.54804663764E+02 -0.13115004221E+02  0.37983562572E+03  0.39436419658E+03  0.89846883494E+02 0.  0.
         23    2    1    2    0    0  0.68856169047E+02 -0.91206173080E+01  0.13008721690E+03  0.17143348035E+03  0.87420801340E+02 0.  0.
        -13    1    4    4    0    0  0.42860109794E+02 -0.14865244353E+02  0.13667525025E+03  0.14400725166E+03  0.00000000000E+00 0. -1.
         13    1    4    4    0    0  0.25996059253E+02  0.57446270452E+01 -0.65880333447E+01  0.27426228686E+02  0.00000000000E+00 0.  1.
        -13    1    3    3    0    0 -0.42789319780E+02 -0.50431055472E+02  0.21570100319E+03  0.22561280996E+03  0.00000000000E+00 0.  1.
         13    1    3    3    0    0 -0.12015343984E+02  0.37316051250E+02  0.16413462253E+03  0.16875138662E+03  0.00000000000E+00 0. -1.
          1    1    1    2  501    0 -0.14051505283E+02  0.22235621529E+02  0.34858855859E+02  0.43669296964E+02  0.00000000000E+00 0. -1.
<scales pt_clust_5="13000.00000" pt_clust_6="13000.00000" pt_clust_7="13000.00000" pt_clust_8="13000.00000" pt_clust_9="26.30338"></scales>
<clustering>
<clus scale="   26.303">  2  9  1 -1</clus>
<clus scale="   87.421">  5  6 -1 -1</clus>
<clus scale="   89.847">  7  8 -1 -1</clus>
<clus scale="  105.421">  2  5  1 -1</clus>
<clus scale="   26.303">  2  5  1 -1</clus>
</clustering>
</event>
<event>
 9    1  0.1399746E-005  0.1672959E+03  0.7546771E-02  0.1181180E+00
          1   -1    0    0  502    0 -0.00000000000E+00  0.00000000000E+00  0.51862782277E+03  0.51862782277E+03  0.00000000000E+00 0. -1.
         21   -1    0    0  501  502  0.00000000000E+00 -0.00000000000E+00 -0.11971747657E+03  0.11971747657E+03  0.00000000000E+00 0.  1.
         23    2    1    2    0    0  0.85220351441E+02  0.11712516107E+03  0.38845668110E+03  0.42444181312E+03  0.90947501224E+02 0.  0.
         23    2    1    2    0    0 -0.30258883560E+02 -0.12728850976E+03  0.12749952967E+02  0.15796307555E+03  0.87588853075E+02 0.  0.
        -13    1    4    4    0    0 -0.27566267195E+02 -0.35411300233E+02 -0.32600463268E+02  0.55467553367E+02  0.00000000000E+00 0.  1.
         13    1    4    4    0    0 -0.26926163645E+01 -0.91877209531E+02  0.45350416235E+02  0.10249552218E+03  0.00000000000E+00 0. -1.
        -13    1    3    3    0    0  0.92399349516E+02  0.79573966803E+02  0.21835877219E+03  0.25010039859E+03  0.00000000000E+00 0. -1.
         13    1    3    3    0    0 -0.71789980751E+01  0.37551194267E+02  0.17009790891E+03  0.17434141453E+03  0.00000000000E+00 0.  1.
          1    1    1    2  501    0 -0.54961467881E+02  0.10163348694E+02 -0.22962878645E+01  0.55940410673E+02  0.00000000000E+00 0. -1.
<scales pt_clust_5="13000.00000" pt_clust_6="13000.00000" pt_clust_7="13000.00000" pt_clust_8="13000.00000" pt_clust_9="55.89326"></scales>
<clustering>
<clus scale="   55.893">  2  9  1 -1</clus>
<clus scale="   87.589">  5  6 -1 -1</clus>
<clus scale="   90.948">  7  8 -1 -1</clus>
<clus scale="  165.494">  2  5  1 -1</clus>
<clus scale="   55.893">  2  5  1 -1</clus>
</clustering>
</event>
<event>
 9    1  0.1399746E-005  0.9792428E+02  0.7546771E-02  0.1285902E+00
         -2   -1    0    0    0  501 -0.00000000000E+00  0.00000000000E+00  0.36796517036E+03  0.36796517036E+03  0.00000000000E+00 0.  1.
         21   -1    0    0  501  502  0.00000000000E+00 -0.00000000000E+00 -0.53177331883E+02  0.53177331883E+02  0.00000000000E+00 0. -1.
         23    2    1    2    0    0 -0.34211072124E+02 -0.63785991959E+01  0.25683412901E+03  0.27478179251E+03  0.91269818061E+02 0.  0.
         23    2    1    2    0    0  0.14732530558E+02 -0.11344773340E+02  0.69100217760E+02  0.11776392385E+03  0.93529408888E+02 0.  0.
        -13    1    3    3    0    0 -0.64044712743E+02 -0.30813218035E+01  0.13725378410E+03  0.15149198337E+03  0.00000000000E+00 0.  1.
         13    1    3    3    0    0  0.29833640620E+02 -0.32972773924E+01  0.11958034490E+03  0.12328980914E+03  0.00000000000E+00 0. -1.
        -13    1    4    4    0    0  0.42897430578E+02 -0.23185556136E+02  0.79502181108E+01  0.49406128481E+02  0.00000000000E+00 0. -1.
         13    1    4    4    0    0 -0.28164900020E+02  0.11840782795E+02  0.61149999649E+02  0.68357795367E+02  0.00000000000E+00 0.  1.
         -2    1    1    2    0  502  0.19478541566E+02  0.17723372536E+02 -0.11146508293E+02  0.28596785881E+02  0.00000000000E+00 0.  1.
<scales pt_clust_5="13000.00000" pt_clust_6="13000.00000" pt_clust_7="13000.00000" pt_clust_8="13000.00000" pt_clust_9="26.33499"></scales>
<clustering>
<clus scale="   26.335">  2  9  1 -1</clus>
<clus scale="   91.270">  5  6 -1 -1</clus>
<clus scale="   93.529">  7  8 -1 -1</clus>
<clus scale="   95.768">  1  5  2 -1</clus>
<clus scale="   26.335">  2  5  1 -1</clus>
</clustering>
</event>
<event>
 9    1  0.1399746E-005  0.1684088E+03  0.7546771E-02  0.1194080E+00
         21   -1    0    0  501  502  0.00000000000E+00  0.00000000000E+00  0.61645072695E+03  0.61645072695E+03  0.00000000000E+00 0.  1.
         -1   -1    0    0    0  501 -0.00000000000E+00 -0.00000000000E+00 -0.11753168913E+03  0.11753168913E+03  0.00000000000E+00 0.  1.
         23    2    1    2    0    0  0.78725767249E+02 -0.21106957114E+02  0.63486069569E+02  0.13740438839E+03  0.90588271056E+02 0.  0.
         23    2    1    2    0    0  0.73728357559E+02  0.36925447510E+02 -0.11760581755E+02  0.12384707251E+03  0.91653841735E+02 0.  0.
        -11    1    4    4    0    0  0.29340438064E+02  0.64576787876E+02 -0.48339696223E+01  0.71094233947E+02  0.00000000000E+00 0.  1.
         11    1    4    4    0    0  0.44387919495E+02 -0.27651340366E+02 -0.69266121328E+01  0.52752838566E+02  0.00000000000E+00 0. -1.
        -11    1    3    3    0    0  0.43296905287E+02 -0.22658749427E+02  0.83452115041E+02  0.96707271897E+02  0.00000000000E+00 0. -1.
         11    1    3    3    0    0  0.35428861962E+02  0.15517923127E+01 -0.19966045472E+02  0.40697116496E+02  0.00000000000E+00 0.  1.
         -1    1    1    2    0  502 -0.15245412481E+03 -0.15818490396E+02  0.44719355001E+03  0.47273095518E+03  0.00000000000E+00 0.  1.
<scales pt_clust_5="13000.00000" pt_clust_6="13000.00000" pt_clust_7="13000.00000" pt_clust_8="13000.00000" pt_clust_9="141.28376"></scales>
<clustering>
<clus scale="   90.588">  7  8 -1 -1</clus>
<clus scale="   91.654">  5  6 -1 -1</clus>
<clus scale="  121.858">  2  7  1 -1</clus>
<clus scale="  141.284">  1  9  2 -1</clus>
<clus scale="  141.284">  1  5  2 -1</clus>
</clustering>
</event>
<event>
 9    1  0.1399746E-005  0.1116224E+03  0.7546771E-02  0.1258044E+00
         21   -1    0    0  501  502  0.00000000000E+00  0.00000000000E+00  0.29632015787E+02  0.29632015787E+02  0.00000000000E+00 0.  1.
         -1   -1    0    0    0  501 -0.00000000000E+00 -0.00000000000E+00 -0.86669577177E+03  0.86669577177E+03  0.00000000000E+00 0.  1.
         23    2    1    2    0    0  0.32179374574E+02 -0.62405269293E+02 -0.58302463786E+03  0.59428567893E+03  0.91256835609E+02 0.  0.
         23    2    1    2    0    0 -0.45749390497E+01  0.50571412490E+02 -0.25049947495E+03  0.27180018241E+03  0.92449739737E+02 0.  0.
        -11    1    4    4    0    0  0.47234773247E+01 -0.26818009063E+02 -0.56218429086E+02  0.62466219808E+02  0.00000000000E+00 0. -1.
         11    1    4    4    0    0 -0.92984163744E+01  0.77389421553E+02 -0.19428104587E+03  0.20933396260E+03  0.00000000000E+00 0.  1.
        -11    1    3    3    0    0  0.64106167774E+02 -0.45179944309E+02 -0.37372734108E+03  0.38186771740E+03  0.00000000000E+00 0.  1.
         11    1    3    3    0    0 -0.31926793201E+02 -0.17225324985E+02 -0.20929729678E+03  0.21241796154E+03  0.00000000000E+00 0. -1.
         -1    1    1    2    0  502 -0.27604435524E+02  0.11833856803E+02 -0.35396431656E+01  0.30241926215E+02  0.00000000000E+00 0.  1.
<scales pt_clust_5="13000.00000" pt_clust_6="13000.00000" pt_clust_7="13000.00000" pt_clust_8="13000.00000" pt_clust_9="30.03406"></scales>
<clustering>
<clus scale="   30.034">  1  9  2 -1</clus>
<clus scale="   91.257">  7  8 -1 -1</clus>
<clus scale="   92.450">  5  6 -1 -1</clus>
<clus scale="  110.636">  2  7  1 -1</clus>
<clus scale="   30.034">  1  5  2 -1</clus>
</clustering>
</event>
<event>
 9    1  0.1399746E-005  0.1082363E+03  0.7546771E-02  0.1266761E+00
         21   -1    0    0  501  502  0.00000000000E+00  0.00000000000E+00  0.14362796338E+03  0.14362796338E+03  0.00000000000E+00 0.  1.
          3   -1    0    0  502    0 -0.00000000000E+00 -0.00000000000E+00 -0.15144938018E+03  0.15144938018E+03  0.00000000000E+00 0. -1.
         23    2    1    2    0    0 -0.54784843148E+02  0.23245696834E+02 -0.55102068149E+02  0.12122494993E+03  0.90097220334E+02 0.  0.
         23    2    1    2    0    0  0.41420561925E+01 -0.30755294907E+02  0.63874274001E+02  0.12003386292E+03  0.96773759745E+02 0.  0.
        -11    1    4    4    0    0  0.13230889209E+02  0.30879083729E+02  0.43618190497E+01  0.33876241034E+02  0.00000000000E+00 0. -1.
         11    1    4    4    0    0 -0.90888330165E+01 -0.61634378636E+02  0.59512454951E+02  0.86157621890E+02  0.00000000000E+00 0.  1.
        -13    1    3    3    0    0 -0.62591558809E+02 -0.82137918161E-01 -0.19107422978E+01  0.62620770650E+02  0.00000000000E+00 0.  1.
         13    1    3    3    0    0  0.78067156603E+01  0.23327834752E+02 -0.53191325851E+02  0.58604179283E+02  0.00000000000E+00 0. -1.
          3    1    1    2  501    0  0.50642786956E+02  0.75095980736E+01 -0.16593622658E+02  0.53818530701E+02  0.00000000000E+00 0. -1.
<scales pt_clust_5="13000.00000" pt_clust_6="13000.00000" pt_clust_7="13000.00000" pt_clust_8="13000.00000" pt_clust_9="51.19657"></scales>
<clustering>
<clus scale="   51.197">  1  9  2 -1</clus>
<clus scale="   90.097">  7  8 -1 -1</clus>
<clus scale="   96.774">  5  6 -1 -1</clus>
<clus scale="  102.310">  2  7  1 -1</clus>
<clus scale="   51.197">  1  5  2 -1</clus>
</clustering>
</event>
<event>
 9    1  0.1399746E-005  0.2171940E+03  0.7546771E-02  0.1156655E+00
         -1   -1    0    0    0  501 -0.00000000000E+00  0.00000000000E+00  0.48525469296E+03  0.48525469296E+03  0.00000000000E+00 0.  1.
         21   -1    0    0  501  502  0.00000000000E+00 -0.00000000000E+00 -0.18732993666E+03  0.18732993666E+03  0.00000000000E+00 0.  1.
         23    2    1    2    0    0 -0.42885737717E+02 -0.82888317586E+02  0.93293377696E+02  0.16219687858E+03  0.94310727954E+02 0.  0.
         23    2    1    2    0    0  0.21634423666E+03  0.12921015263E+03  0.19349914386E+03  0.33050587339E+03  0.91061086032E+02 0.  0.
        -11    1    3    3    0    0 -0.21248123279E+02 -0.32341266326E+02  0.99599669078E+02  0.10685286300E+03  0.00000000000E+00 0.  1.
         11    1    3    3    0    0 -0.21637614438E+02 -0.50547051260E+02 -0.63062913820E+01  0.55344015581E+02  0.00000000000E+00 0. -1.
        -13    1    4    4    0    0  0.85214697549E+01  0.39457042362E+02  0.41121471000E+02  0.57623337425E+02  0.00000000000E+00 0. -1.
         13    1    4    4    0    0  0.20782276690E+03  0.89753110271E+02  0.15237767286E+03  0.27288253596E+03  0.00000000000E+00 0.  1.
         -1    1    1    2    0  502 -0.17345849894E+03 -0.46321835047E+02  0.11132234743E+02  0.17988187765E+03  0.00000000000E+00 0.  1.
<scales pt_clust_5="13000.00000" pt_clust_6="13000.00000" pt_clust_7="13000.00000" pt_clust_8="13000.00000" pt_clust_9="197.18293"></scales>
<clustering>
<clus scale="   91.061">  7  8 -1 -1</clus>
<clus scale="   94.311">  5  6 -1 -1</clus>
<clus scale="  132.681">  1  5  2 -1</clus>
<clus scale="  197.183">  2  9  1 -1</clus>
<clus scale="  197.183">  2  5  1 -1</clus>
</clustering>
</event>
<event>
 9    1  0.1399746E-005  0.1211551E+03  0.7546771E-02  0.1242621E+00
         -2   -1    0    0    0  501 -0.00000000000E+00  0.00000000000E+00  0.44045769189E+03  0.44045769189E+03  0.00000000000E+00 0.  1.
         21   -1    0    0  501  502  0.00000000000E+00 -0.00000000000E+00 -0.96591530153E+02  0.96591530153E+02  0.00000000000E+00 0. -1.
         23    2    1    2    0    0  0.66089180984E+01 -0.71469440844E+02  0.28181705238E+03  0.30335468991E+03  0.86322987142E+02 0.  0.
         23    2    1    2    0    0 -0.45474682752E+02  0.10570085718E+03  0.92706952540E+02  0.17350947689E+03  0.90941418197E+02 0.  0.
        -11    1    3    3    0    0  0.24792569452E+02 -0.48339320866E+02  0.26272063565E+03  0.26827876143E+03  0.00000000000E+00 0.  1.
         11    1    3    3    0    0 -0.18183651354E+02 -0.23130119978E+02  0.19096416730E+02  0.35075928479E+02  0.00000000000E+00 0. -1.
        -13    1    4    4    0    0 -0.70005826947E+02  0.95284526130E+02  0.64428216011E+02  0.13465122259E+03  0.00000000000E+00 0. -1.
         13    1    4    4    0    0  0.24531144195E+02  0.10416331047E+02  0.28278736528E+02  0.38858254305E+02  0.00000000000E+00 0.  1.
         -2    1    1    2    0  502  0.38865764654E+02 -0.34231416333E+02 -0.30657843174E+02  0.60185055241E+02  0.00000000000E+00 0.  1.
<scales pt_clust_5="13000.00000" pt_clust_6="13000.00000" pt_clust_7="13000.00000" pt_clust_8="13000.00000" pt_clust_9="51.79129"></scales>
<clustering>
<clus scale="   51.791">  2  9  1 -1</clus>
<clus scale="   86.323">  5  6 -1 -1</clus>
<clus scale="   90.941">  7  8 -1 -1</clus>
<clus scale="  117.728">  1  5  2 -1</clus>
<clus scale="   51.791">  2  5  1 -1</clus>
</clustering>
</event>
<event>
 9    1  0.1399746E-005  0.9074520E+02  0.7546771E-02  0.1307163E+00
         21   -1    0    0  501  502  0.00000000000E+00  0.00000000000E+00  0.83326535056E+02  0.83326535056E+02  0.00000000000E+00 0. -1.
          1   -1    0    0  502    0 -0.00000000000E+00 -0.00000000000E+00 -0.28312611032E+03  0.28312611032E+03  0.00000000000E+00 0. -1.
         23    2    1    2    0    0 -0.56314047279E+01 -0.90614280235E+01 -0.19075219018E+03  0.20752652001E+03  0.81037252247E+02 0.  0.
         23    2    1    2    0    0 -0.18926398903E+01 -0.24966601991E+02 -0.48889147303E+02  0.10599329916E+03  0.90650523675E+02 0.  0.
        -11    1    4    4    0    0 -0.39435701922E+02  0.11331670914E+02 -0.28376319742E+02  0.49887842947E+02  0.00000000000E+00 0.  1.
         11    1    4    4    0    0  0.37543062031E+02 -0.36298272905E+02 -0.20512827561E+02  0.56105456215E+02  0.00000000000E+00 0. -1.
        -11    1    3    3    0    0  0.85047066871E+01  0.33751646856E+02 -0.10539017829E+03  0.11098915884E+03  0.00000000000E+00 0.  1.
         11    1    3    3    0    0 -0.14136111415E+02 -0.42813074880E+02 -0.85362011893E+02  0.96537361167E+02  0.00000000000E+00 0. -1.
          1    1    1    2  501    0  0.75240446182E+01  0.34028030014E+02  0.39841762215E+02  0.52932826209E+02  0.00000000000E+00 0. -1.
<scales pt_clust_5="13000.00000" pt_clust_6="13000.00000" pt_clust_7="13000.00000" pt_clust_8="13000.00000" pt_clust_9="34.84994"></scales>
<clustering>
<clus scale="   34.850">  1  9  2 -1</clus>
<clus scale="   81.037">  7  8 -1 -1</clus>
<clus scale="   81.143">  2  7  1 -1</clus>
<clus scale="   90.651">  5  6 -1 -1</clus>
<clus scale="   34.850">  1  5  2 -1</clus>
</clustering>
</event>
<event>
 9    1  0.1399746E-005  0.1192261E+03  0.7546771E-02  0.1244924E+00
          1   -1    0    0  502    0 -0.00000000000E+00  0.00000000000E+00  0.31528875406E+03  0.31528875406E+03  0.00000000000E+00 0. -1.
         21   -1    0    0  501  502  0.00000000000E+00 -0.00000000000E+00 -0.15393870298E+03  0.15393870298E+03  0.00000000000E+00 0. -1.
         23    2    1    2    0    0 -0.67572419319E+02  0.57495502501E+02  0.24540374876E+03  0.27628233213E+03  0.90758814907E+02 0.  0.
         23    2    1    2    0    0  0.14668934982E+02 -0.39834567551E+02 -0.84641297125E+01  0.99006474378E+02  0.89043079751E+02 0.  0.
        -13    1    4    4    0    0  0.48056805318E+02 -0.31306055042E+02 -0.22751457513E+02  0.61702142902E+02  0.00000000000E+00 0.  1.
         13    1    4    4    0    0 -0.33387870336E+02 -0.85285125084E+01  0.14287327801E+02  0.37304331476E+02  0.00000000000E+00 0. -1.
        -13    1    3    3    0    0 -0.14953533943E+02  0.48608219913E+02  0.41886537183E+02  0.65885121368E+02  0.00000000000E+00 0.  1.
         13    1    3    3    0    0 -0.52618885376E+02  0.88872825887E+01  0.20351721158E+03  0.21039721077E+03  0.00000000000E+00 0. -1.
          1    1    1    2  501    0  0.52903484337E+02 -0.17660934951E+02 -0.75589567961E+02  0.93938650527E+02  0.00000000000E+00 0. -1.
<scales pt_clust_5="13000.00000" pt_clust_6="13000.00000" pt_clust_7="13000.00000" pt_clust_8="13000.00000" pt_clust_9="55.77354"></scales>
<clustering>
<clus scale="   55.774">  2  9  1 -1</clus>
<clus scale="   89.043">  5  6 -1 -1</clus>
<clus scale="   90.759">  7  8 -1 -1</clus>
<clus scale="  117.925">  2  5  1 -1</clus>
<clus scale="   55.774">  2  5  1 -1</clus>
</clustering>
</event>
<event>
 9    1  0.1399746E-005  0.1728668E+03  0.7546771E-02  0.1175271E+00
         21   -1    0    0  501  502  0.00000000000E+00  0.00000000000E+00  0.14348883483E+03  0.14348883483E+03  0.00000000000E+00 0.  1.
          1   -1    0    0  502    0 -0.00000000000E+00 -0.00000000000E+00 -0.10540591432E+04  0.10540591432E+04  0.00000000000E+00 0. -1.
         23    2    1    2    0    0 -0.53765672168E+02 -0.13153511812E+03 -0.86440947332E+03  0.88066459434E+03  0.90411035608E+02 0.  0.
         23    2    1    2    0    0  0.28489312884E+02  0.19897874020E+03 -0.84891193198E+02  0.23510577583E+03  0.87544452378E+02 0.  0.
        -11    1    3    3    0    0 -0.98338662651E+01 -0.12273183925E+03 -0.66240273260E+03  0.67374860998E+03  0.00000000000E+00 0.  1.
         11    1    3    3    0    0 -0.43931805903E+02 -0.88032788651E+01 -0.20200674072E+03  0.20691598437E+03  0.00000000000E+00 0. -1.
        -13    1    4    4    0    0  0.30016629133E+02  0.14249296411E+03 -0.16745266307E+02  0.14657983077E+03  0.00000000000E+00 0.  1.
         13    1    4    4    0    0 -0.15273162495E+01  0.56485776095E+02 -0.68145926891E+02  0.88525945054E+02  0.00000000000E+00 0. -1.
          1    1    1    2  501    0  0.25276359285E+02 -0.67443622088E+02  0.38730358176E+02  0.81777607837E+02  0.00000000000E+00 0. -1.
<scales pt_clust_5="13000.00000" pt_clust_6="13000.00000" pt_clust_7="13000.00000" pt_clust_8="13000.00000" pt_clust_9="72.02455"></scales>
<clustering>
<clus scale="   72.025">  1  9  2 -1</clus>
<clus scale="   87.544">  7  8 -1 -1</clus>
<clus scale="   90.411">  5  6 -1 -1</clus>
<clus scale="  171.385">  1  7  2 -1</clus>
<clus scale="   72.025">  1  5  2 -1</clus>
</clustering>
</event>
<event>
 9    1  0.1399746E-005  0.1474733E+03  0.7546771E-02  0.1203948E+00
          1   -1    0    0  502    0 -0.00000000000E+00  0.00000000000E+00  0.72323851554E+03  0.72323851554E+03  0.00000000000E+00 0. -1.
         21   -1    0    0  501  502  0.00000000000E+00 -0.00000000000E+00 -0.11345390068E+03  0.11345390068E+03  0.00000000000E+00 0.  1.
         23    2    1    2    0    0 -0.16586880144E+02  0.10888068792E+03  0.59109555801E+03  0.60846783537E+03  0.93322125902E+02 0.  0.
         23    2    1    2    0    0  0.11845914042E+02 -0.15479039011E+03  0.60451265231E+01  0.18037015065E+03  0.91632183977E+02 0.  0.
        -11    1    3    3    0    0  0.36685960055E+02  0.64565683931E+02  0.27364455074E+03  0.28354175593E+03  0.00000000000E+00 0.  1.
         11    1    3    3    0    0 -0.53272840199E+02  0.44315003989E+02  0.31745100727E+03  0.32492607944E+03  0.00000000000E+00 0. -1.
        -13    1    4    4    0    0 -0.16266224566E+02 -0.14222871038E+03 -0.13671867992E+02  0.14380721850E+03  0.00000000000E+00 0.  1.
         13    1    4    4    0    0  0.28112138608E+02 -0.12561679733E+02  0.19716994515E+02  0.36562932152E+02  0.00000000000E+00 0. -1.
          1    1    1    2  501    0  0.47409661024E+01  0.45909702194E+02  0.12643930329E+02  0.47854430195E+02  0.00000000000E+00 0. -1.
<scales pt_clust_5="13000.00000" pt_clust_6="13000.00000" pt_clust_7="13000.00000" pt_clust_8="13000.00000" pt_clust_9="46.15385"></scales>
<clustering>
<clus scale="   46.154">  2  9  1 -1</clus>
<clus scale="   91.632">  7  8 -1 -1</clus>
<clus scale="   93.322">  5  6 -1 -1</clus>
<clus scale="  146.410">  2  7  1 -1</clus>
<clus scale="   46.154">  2  5  1 -1</clus>
</clustering>
</event>
<event>
 9    1  0.1399746E-005  0.9288117E+02  0.7546771E-02  0.1307260E+00
          1   -1    0    0  502    0 -0.00000000000E+00  0.00000000000E+00  0.85942517719E+02  0.85942517719E+02  0.00000000000E+00 0. -1.
         21   -1    0    0  501  502  0.00000000000E+00 -0.00000000000E+00 -0.13687703113E+03  0.13687703113E+03  0.00000000000E+00 0. -1.
         23    2    1    2    0    0  0.23129432002E+02 -0.17361763910E+02  0.11559106070E+02  0.95650153664E+02  0.90437478359E+02 0.  0.
         23    2    1    2    0    0  0.11104364054E+02  0.21056439959E+02 -0.42796160228E+02  0.87500851922E+02  0.72513496620E+02 0.  0.
        -11    1    4    4    0    0 -0.31211059695E+01  0.46678783025E+02 -0.22968669879E+02  0.52117270489E+02  0.00000000000E+00 0. -1.
         11    1    4    4    0    0  0.14225470024E+02 -0.25622343065E+02 -0.19827490349E+02  0.35383581434E+02  0.00000000000E+00 0.  1.
        -13    1    3    3    0    0  0.47872295167E+02 -0.38546228239E+02  0.13828363683E+02  0.62998349171E+02  0.00000000000E+00 0. -1.
         13    1    3    3    0    0 -0.24742863166E+02  0.21184464329E+02 -0.22692576125E+01  0.32651804493E+02  0.00000000000E+00 0.  1.
          1    1    1    2  501    0 -0.34233796056E+02 -0.36946760491E+01 -0.19697459252E+02  0.39668543261E+02  0.00000000000E+00 0. -1.
<scales pt_clust_5="13000.00000" pt_clust_6="13000.00000" pt_clust_7="13000.00000" pt_clust_8="13000.00000" pt_clust_9="34.43259"></scales>
<clustering>
<clus scale="   34.433">  2  9  1 -1</clus>
<clus scale="   72.513">  5  6 -1 -1</clus>
<clus scale="   75.539">  2  5  1 -1</clus>
<clus scale="   90.437">  7  8 -1 -1</clus>
<clus scale="   34.433">  2  5  1 -1</clus>
</clustering>
</event>
<event>
 9    1  0.1399746E-005  0.9664928E+02  0.7546771E-02  0.1288822E+00
         -4   -1    0    0    0  501 -0.00000000000E+00  0.00000000000E+00  0.99718184882E+02  0.99718184882E+02  0.00000000000E+00 0.  1.
         21   -1    0    0  501  502  0.00000000000E+00 -0.00000000000E+00 -0.12481681173E+03  0.12481681173E+03  0.00000000000E+00 0.  1.
         23    2    1    2    0    0  0.29682696373E+02  0.17822447465E+02 -0.24957867176E+00  0.97263727877E+02  0.90892620017E+02 0.  0.
         23    2    1    2    0    0 -0.14157912321E+02  0.18160523041E+01 -0.34372030552E+02  0.10048737831E+03  0.93340945940E+02 0.  0.
        -11    1    4    4    0    0  0.43802235357E+01 -0.41985798730E+02 -0.71408945525E+00  0.42219706026E+02  0.00000000000E+00 0. -1.
         11    1    4    4    0    0 -0.18538135856E+02  0.43801851034E+02 -0.33657941096E+02  0.58267672288E+02  0.00000000000E+00 0.  1.
        -13    1    3    3    0    0  0.51230901595E+02  0.32290687816E+02 -0.20934513973E+02  0.64074547780E+02  0.00000000000E+00 0.  1.
         13    1    3    3    0    0 -0.21548205222E+02 -0.14468240350E+02  0.20684935301E+02  0.33189180098E+02  0.00000000000E+00 0. -1.
         -4    1    1    2    0  502 -0.15524784052E+02 -0.19638499770E+02  0.95229823705E+01  0.26783890425E+02  0.00000000000E+00 0.  1.
<scales pt_clust_5="13000.00000" pt_clust_6="13000.00000" pt_clust_7="13000.00000" pt_clust_8="13000.00000" pt_clust_9="25.03378"></scales>
<clustering>
<clus scale="   25.034">  2  9  1 -1</clus>
<clus scale="   90.893">  7  8 -1 -1</clus>
<clus scale="   93.341">  5  6 -1 -1</clus>
<clus scale="   94.287">  1  7  2 -1</clus>
<clus scale="   25.034">  2  5  1 -1</clus>
</clustering>
</event>
<event>
 9    1  0.1399746E-005  0.9865779E+02  0.7546771E-02  0.1283319E+00
         21   -1    0    0  501  502  0.00000000000E+00  0.00000000000E+00  0.20270893218E+03  0.20270893218E+03  0.00000000000E+00 0.  1.
         -1   -1    0    0    0  501 -0.00000000000E+00 -0.00000000000E+00 -0.14165722181E+03  0.14165722181E+03  0.00000000000E+00 0.  1.
         23    2    1    2    0    0 -0.76034525927E+00  0.78073480623E+01 -0.57800230720E+02  0.11208197816E+03  0.95707734001E+02 0.  0.
         23    2    1    2    0    0  0.47511921246E+02 -0.41854927882E+02  0.18579192385E+02  0.11652765688E+03  0.96043171434E+02 0.  0.
        -13    1    3    3    0    0 -0.45863395722E+02 -0.55174675213E+00 -0.45463577211E+02  0.64580897675E+02  0.00000000000E+00 0.  1.
         13    1    3    3    0    0  0.45103050463E+02  0.83590948145E+01 -0.12336653508E+02  0.47501080482E+02  0.00000000000E+00 0. -1.
        -13    1    4    4    0    0 -0.32957589161E+01 -0.27291075688E+02  0.48532025011E+02  0.55776538892E+02  0.00000000000E+00 0. -1.
         13    1    4    4    0    0  0.50807680162E+02 -0.14563852193E+02 -0.29952832626E+02  0.60751117985E+02  0.00000000000E+00 0.  1.
         -1    1    1    2    0  502 -0.46751575987E+02  0.34047579819E+02  0.10027274871E+03  0.11575651896E+03  0.00000000000E+00 0.  1.
<scales pt_clust_5="13000.00000" pt_clust_6="13000.00000" pt_clust_7="13000.00000" pt_clust_8="13000.00000" pt_clust_9="57.83552"></scales>
<clustering>
<clus scale="   57.836">  1  9  2 -1</clus>
<clus scale="   95.708">  5  6 -1 -1</clus>
<clus scale="   96.043">  7  8 -1 -1</clus>
<clus scale="   98.331">  2  5  1 -1</clus>
<clus scale="   57.836">  1  5  2 -1</clus>
</clustering>
</event>
<event>
 9    1  0.1399746E-005  0.1230591E+03  0.7546771E-02  0.1239519E+00
          1   -1    0    0  502    0 -0.00000000000E+00  0.00000000000E+00  0.61057199488E+03  0.61057199488E+03  0.00000000000E+00 0. -1.
         21   -1    0    0  501  502  0.00000000000E+00 -0.00000000000E+00 -0.49701753584E+02  0.49701753584E+02  0.00000000000E+00 0.  1.
         23    2    1    2    0    0 -0.27067345371E+02 -0.45098056391E+02  0.20411781763E+03  0.23006462600E+03  0.92190958259E+02 0.  0.
         23    2    1    2    0    0  0.86861323074E+02  0.83481597704E+02  0.31335457419E+03  0.34695055322E+03  0.87575856348E+02 0.  0.
        -11    1    4    4    0    0  0.51377959252E+02 -0.65340895370E+01  0.97496576224E+02  0.11039914582E+03  0.00000000000E+00 0. -1.
         11    1    4    4    0    0  0.35483363822E+02  0.90015687241E+02  0.21585799796E+03  0.23655140740E+03  0.00000000000E+00 0.  1.
        -13    1    3    3    0    0 -0.15986607599E+02  0.17655633621E+02  0.13068235432E+03  0.13283512620E+03  0.00000000000E+00 0.  1.
         13    1    3    3    0    0 -0.11080737772E+02 -0.62753690012E+02  0.73435463314E+02  0.97229499803E+02  0.00000000000E+00 0. -1.
          1    1    1    2  501    0 -0.59793977702E+02 -0.38383541314E+02  0.43397849471E+02  0.83258569240E+02  0.00000000000E+00 0. -1.
<scales pt_clust_5="13000.00000" pt_clust_6="13000.00000" pt_clust_7="13000.00000" pt_clust_8="13000.00000" pt_clust_9="71.05361"></scales>
<clustering>
<clus scale="   71.054">  2  9  1 -1</clus>
<clus scale="   87.576">  5  6 -1 -1</clus>
<clus scale="   92.191">  7  8 -1 -1</clus>
<clus scale="  119.641">  2  5  1 -1</clus>
<clus scale="   71.054">  2  5  1 -1</clus>
</clustering>
</event>
<event>
 9    1  0.1399746E-005  0.1079591E+03  0.7546771E-02  0.1265689E+00
         21   -1    0    0  501  502  0.00000000000E+00  0.00000000000E+00  0.22238459956E+03  0.22238459956E+03  0.00000000000E+00 0. -1.
          1   -1    0    0  502    0 -0.00000000000E+00 -0.00000000000E+00 -0.30633199669E+03  0.30633199669E+03  0.00000000000E+00 0. -1.
         23    2    1    2    0    0  0.48057606005E+02 -0.32027589689E+02 -0.19910956847E+03  0.22727255455E+03  0.93128372691E+02 0.  0.
         23    2    1    2    0    0 -0.49892727652E+02  0.99383063405E+01 -0.63555986935E+02  0.12135660680E+03  0.90000046298E+02 0.  0.
        -13    1    4    4    0    0  0.21443429114E+02  0.57868302567E+01  0.45168858725E+01  0.22665178459E+02  0.00000000000E+00 0. -1.
         13    1    4    4    0    0 -0.71336156767E+02  0.41514760839E+01 -0.68072872808E+02  0.98691428342E+02  0.00000000000E+00 0.  1.
        -13    1    3    3    0    0 -0.21671936405E+02 -0.25477222567E+02 -0.10339620411E+03  0.10867169236E+03  0.00000000000E+00 0.  1.
         13    1    3    3    0    0  0.69729542411E+02 -0.65503671216E+01 -0.95713364359E+02  0.11860086219E+03  0.00000000000E+00 0. -1.
          1    1    1    2  501    0  0.18351216468E+01  0.22089283348E+02  0.17871815827E+03  0.18008743489E+03  0.00000000000E+00 0. -1.
<scales pt_clust_5="13000.00000" pt_clust_6="13000.00000" pt_clust_7="13000.00000" pt_clust_8="13000.00000" pt_clust_9="22.16538"></scales>
<clustering>
<clus scale="   22.165">  1  9  2 -1</clus>
<clus scale="   90.000">  5  6 -1 -1</clus>
<clus scale="   93.128">  7  8 -1 -1</clus>
<clus scale="  105.272">  1  5  2 -1</clus>
<clus scale="   22.165">  1  5  2 -1</clus>
</clustering>
</event>
<event>
 9    1  0.1399746E-005  0.9356441E+02  0.7546771E-02  0.1294827E+00
         21   -1    0    0  501  502  0.00000000000E+00  0.00000000000E+00  0.23166508742E+03  0.23166508742E+03  0.00000000000E+00 0. -1.
          1   -1    0    0  502    0 -0.00000000000E+00 -0.00000000000E+00 -0.11708556097E+03  0.11708556097E+03  0.00000000000E+00 0. -1.
         23    2    1    2    0    0 -0.13837230004E+02  0.52023580079E+01 -0.56093008491E+02  0.10921983952E+03  0.92541959567E+02 0.  0.
         23    2    1    2    0    0 -0.25507058293E+02 -0.39700967001E+02  0.66167058962E+02  0.12265685303E+03  0.91868640466E+02 0.  0.
        -13    1    3    3    0    0  0.27924954282E+02  0.29907308440E+02 -0.96218984561E+01  0.42033690056E+02  0.00000000000E+00 0.  1.
         13    1    3    3    0    0 -0.41762184287E+02 -0.24704950432E+02 -0.46471110035E+02  0.67186149466E+02  0.00000000000E+00 0. -1.
        -13    1    4    4    0    0 -0.36591208108E+02 -0.66849511627E+01  0.77556220936E+02  0.86014955029E+02  0.00000000000E+00 0.  1.
         13    1    4    4    0    0  0.11084149815E+02 -0.33016015838E+02 -0.11389161974E+02  0.36641898005E+02  0.00000000000E+00 0. -1.
          1    1    1    2  501    0  0.39344288297E+02  0.34498608993E+02  0.10450547597E+03  0.11687395584E+03  0.00000000000E+00 0. -1.
<scales pt_clust_5="13000.00000" pt_clust_6="13000.00000" pt_clust_7="13000.00000" pt_clust_8="13000.00000" pt_clust_9="52.32712"></scales>
<clustering>
<clus scale="   52.327">  1  9  2 -1</clus>
<clus scale="   91.869">  7  8 -1 -1</clus>
<clus scale="   92.542">  5  6 -1 -1</clus>
<clus scale="   92.898">  1  7  2 -1</clus>
<clus scale="   52.327">  1  5  2 -1</clus>
</clustering>
</event>
<event>
 9    1  0.1399746E-005  0.9968468E+02  0.7546771E-02  0.1282494E+00
          4   -1    0    0  502    0 -0.00000000000E+00  0.00000000000E+00  0.13652430092E+03  0.13652430092E+03  0.00000000000E+00 0. -1.
         21   -1    0    0  501  502  0.00000000000E+00 -0.00000000000E+00 -0.10193225937E+03  0.10193225937E+03  0.00000000000E+00 0. -1.
         23    2    1    2    0    0  0.48646767394E+02 -0.10893701087E+00  0.28742123099E+02  0.10467543617E+03  0.88115364443E+02 0.  0.
         23    2    1    2    0    0 -0.27855718053E+02 -0.22989590301E+02  0.19134228373E+02  0.99983452806E+02  0.91247519688E+02 0.  0.
        -11    1    3    3    0    0 -0.17258543808E+02  0.22359329268E+02 -0.25038912249E+01  0.28356064801E+02  0.00000000000E+00 0.  1.
         11    1    3    3    0    0  0.65905311203E+02 -0.22468266279E+02  0.31246014324E+02  0.76319371364E+02  0.00000000000E+00 0. -1.
        -13    1    4    4    0    0  0.23942831037E+02 -0.34614481445E+02 -0.35820763960E+01  0.42240416133E+02  0.00000000000E+00 0. -1.
         13    1    4    4    0    0 -0.51798549090E+02  0.11624891143E+02  0.22716304769E+02  0.57743036674E+02  0.00000000000E+00 0.  1.
          4    1    1    2  501    0 -0.20791049341E+02  0.23098527312E+02 -0.13284309925E+02  0.33797671324E+02  0.00000000000E+00 0. -1.
<scales pt_clust_5="13000.00000" pt_clust_6="13000.00000" pt_clust_7="13000.00000" pt_clust_8="13000.00000" pt_clust_9="31.07748"></scales>
<clustering>
<clus scale="   31.077">  2  9  1 -1</clus>
<clus scale="   88.115">  5  6 -1 -1</clus>
<clus scale="   91.248">  7  8 -1 -1</clus>
<clus scale="   96.826">  1  5  2 -1</clus>
<clus scale="   31.077">  2  5  1 -1</clus>
</clustering>
</event>
<event>
 9    1  0.1399746E-005  0.1363547E+03  0.7546771E-02  0.1232600E+00
         21   -1    0    0  501  502  0.00000000000E+00  0.00000000000E+00  0.90891364750E+02  0.90891364750E+02  0.00000000000E+00 0. -1.
          1   -1    0    0  502    0 -0.00000000000E+00 -0.00000000000E+00 -0.49306154195E+03  0.49306154195E+03  0.00000000000E+00 0. -1.
         23    2    1    2    0    0 -0.42135863589E+02  0.19398968053E+00 -0.49938531247E+02  0.11294476683E+03  0.92125972553E+02 0.  0.
         23    2    1    2    0    0  0.80405654534E+02 -0.97927513677E+02 -0.33061605314E+03  0.36384633481E+03  0.83799245474E+02 0.  0.
        -13    1    3    3    0    0 -0.14484393491E+02  0.45604337268E+02 -0.27917456360E+02  0.55397992762E+02  0.00000000000E+00 0.  1.
         13    1    3    3    0    0 -0.27651470098E+02 -0.45410347587E+02 -0.22021074887E+02  0.57546774069E+02  0.00000000000E+00 0. -1.
        -13    1    4    4    0    0  0.57096216919E+02 -0.71092511067E+02 -0.30916357994E+03  0.32232940027E+03  0.00000000000E+00 0. -1.
         13    1    4    4    0    0  0.23309437615E+02 -0.26835002609E+02 -0.21452473200E+02  0.41516934537E+02  0.00000000000E+00 0.  1.
          1    1    1    2  501    0 -0.38269790945E+02  0.97733523996E+02 -0.21615592813E+02  0.10716180506E+03  0.00000000000E+00 0. -1.
<scales pt_clust_5="13000.00000" pt_clust_6="13000.00000" pt_clust_7="13000.00000" pt_clust_8="13000.00000" pt_clust_9="107.56525"></scales>
<clustering>
<clus scale="   83.799">  7  8 -1 -1</clus>
<clus scale="   92.126">  5  6 -1 -1</clus>
<clus scale="  101.305">  2  5  1 -1</clus>
<clus scale="  107.565">  1  9  2 -1</clus>
<clus scale="  107.565">  1  5  2 -1</clus>
</clustering>
</event>
<event>
 9    1  0.1399746E-005  0.9595026E+02  0.7546771E-02  0.1292014E+00
         21   -1    0    0  501  502  0.00000000000E+00  0.00000000000E+00  0.61817477228E+02  0.61817477228E+02  0.00000000000E+00 0.  1.
         -1   -1    0    0    0  501 -0.00000000000E+00 -0.00000000000E+00 -0.22097804843E+03  0.22097804843E+03  0.00000000000E+00 0.  1.
         23    2    1    2    0    0  0.10583338755E+02  0.18914319116E+02 -0.73220248161E+02  0.11434461520E+03  0.85110091979E+02 0.  0.
         23    2    1    2    0    0 -0.43502702613E+02 -0.16502465555E+02 -0.89051567395E+02  0.13529700578E+03  0.90610604306E+02 0.  0.
        -13    1    4    4    0    0 -0.44802573306E+02 -0.43194150714E+02 -0.88967475713E+02  0.10857355555E+03  0.00000000000E+00 0.  1.
         13    1    4    4    0    0  0.12998706931E+01  0.26691685159E+02 -0.84091682126E-01  0.26723450224E+02  0.00000000000E+00 0. -1.
        -13    1    3    3    0    0  0.37836725912E+02  0.12266051528E+02 -0.76378579931E+02  0.86114814754E+02  0.00000000000E+00 0. -1.
         13    1    3    3    0    0 -0.27253387156E+02  0.66482675882E+01  0.31583317704E+01  0.28229800442E+02  0.00000000000E+00 0.  1.
         -1    1    1    2    0  502  0.32919363857E+02 -0.24118535612E+01  0.31112443546E+01  0.33153904684E+02  0.00000000000E+00 0.  1.
<scales pt_clust_5="13000.00000" pt_clust_6="13000.00000" pt_clust_7="13000.00000" pt_clust_8="13000.00000" pt_clust_9="33.00760"></scales>
<clustering>
<clus scale="   33.008">  1  9  2 -1</clus>
<clus scale="   85.110">  7  8 -1 -1</clus>
<clus scale="   90.611">  5  6 -1 -1</clus>
<clus scale="   90.774">  2  7  1 -1</clus>
<clus scale="   33.008">  1  5  2 -1</clus>
</clustering>
</event>
<event>
 9    1  0.1399746E-005  0.9690244E+02  0.7546771E-02  0.1287340E+00
         -2   -1    0    0    0  501 -0.00000000000E+00  0.00000000000E+00  0.76093137835E+02  0.76093137835E+02  0.00000000000E+00 0.  1.
         21   -1    0    0  501  502  0.00000000000E+00 -0.00000000000E+00 -0.22543342940E+03  0.22543342940E+03  0.00000000000E+00 0. -1.
         23    2    1    2    0    0  0.17491299758E+01  0.27558481304E+02 -0.36793406452E+02  0.10257468649E+03  0.91680326154E+02 0.  0.
         23    2    1    2    0    0 -0.47044195222E+02 -0.12913281374E+02 -0.36927872324E+02  0.10959663516E+03  0.90927694049E+02 0.  0.
        -13    1    3    3    0    0 -0.43356010556E+02  0.11689852124E+01 -0.14145170421E+02  0.45620127400E+02  0.00000000000E+00 0. -1.
         13    1    3    3    0    0  0.45105140532E+02  0.26389496092E+02 -0.22648236031E+02  0.56954559095E+02  0.00000000000E+00 0.  1.
        -13    1    4    4    0    0 -0.64615147827E+02 -0.34769241816E+02 -0.35512275191E+02  0.81517723192E+02  0.00000000000E+00 0. -1.
         13    1    4    4    0    0  0.17570952605E+02  0.21855960442E+02 -0.14155971325E+01  0.28078911972E+02  0.00000000000E+00 0.  1.
         -2    1    1    2    0  502  0.45295065246E+02 -0.14645199931E+02 -0.75619012784E+02  0.89355245571E+02  0.00000000000E+00 0.  1.
<scales pt_clust_5="13000.00000" pt_clust_6="13000.00000" pt_clust_7="13000.00000" pt_clust_8="13000.00000" pt_clust_9="47.60383"></scales>
<clustering>
<clus scale="   47.604">  2  9  1 -1</clus>
<clus scale="   90.928">  7  8 -1 -1</clus>
<clus scale="   91.680">  5  6 -1 -1</clus>
<clus scale="   96.191">  2  7  1 -1</clus>
<clus scale="   47.604">  2  5  1 -1</clus>
</clustering>
</event>
<event>
 9    1  0.1399746E-005  0.1175838E+03  0.7546771E-02  0.1247467E+00
         21   -1    0    0  501  502  0.00000000000E+00  0.00000000000E+00  0.42098026548E+03  0.42098026548E+03  0.00000000000E+00 0.  1.
          1   -1    0    0  502    0 -0.00000000000E+00 -0.00000000000E+00 -0.52794923331E+02  0.52794923331E+02  0.00000000000E+00 0. -1.
         23    2    1    2    0    0 -0.20070435276E+02 -0.92451571016E+02  0.11349159885E+03  0.17396095424E+03  0.91825678507E+02 0.  0.
         23    2    1    2    0    0  0.27757999000E+02  0.44742398217E+02  0.13712870461E+03  0.17270482451E+03  0.90831085402E+02 0.  0.
        -11    1    3    3    0    0 -0.40480676533E+02 -0.33290707311E+02  0.95344411292E+02  0.10880033608E+03  0.00000000000E+00 0.  1.
         11    1    3    3    0    0  0.20410241258E+02 -0.59160863705E+02  0.18147187561E+02  0.65160618159E+02  0.00000000000E+00 0. -1.
        -11    1    4    4    0    0 -0.45608128396E+01 -0.25487052277E+02  0.49393247024E+02  0.55768124400E+02  0.00000000000E+00 0. -1.
         11    1    4    4    0    0  0.32318811840E+02  0.70229450494E+02  0.87735457585E+02  0.11693670011E+03  0.00000000000E+00 0.  1.
          1    1    1    2  501    0 -0.76875637245E+01  0.47709172799E+02  0.11756503869E+03  0.12710941006E+03  0.00000000000E+00 0. -1.
<scales pt_clust_5="13000.00000" pt_clust_6="13000.00000" pt_clust_7="13000.00000" pt_clust_8="13000.00000" pt_clust_9="48.32457"></scales>
<clustering>
<clus scale="   48.325">  1  9  2 -1</clus>
<clus scale="   90.831">  7  8 -1 -1</clus>
<clus scale="   91.826">  5  6 -1 -1</clus>
<clus scale="  116.809">  1  7  2 -1</clus>
<clus scale="   48.325">  1  5  2 -1</clus>
</clustering>
</event>
<event>
 9    1  0.1399746E-005  0.1037810E+03  0.7546771E-02  0.1273193E+00
          1   -1    0    0  502    0 -0.00000000000E+00  0.00000000000E+00  0.77615057458E+03  0.77615057458E+03  0.00000000000E+00 0. -1.
         21   -1    0    0  501  502  0.00000000000E+00 -0.00000000000E+00 -0.35151781718E+02  0.35151781718E+02  0.00000000000E+00 0.  1.
         23    2    1    2    0    0 -0.29564631546E+02  0.22346176604E+02  0.38784371696E+03  0.40012677489E+03  0.91133243943E+02 0.  0.
         23    2    1    2    0    0  0.38752147312E+02 -0.57394695450E+02  0.35718471599E+03  0.37471948290E+03  0.89654277869E+02 0.  0.
        -11    1    4    4    0    0  0.65710552030E+02 -0.30084660897E+02  0.26916471326E+03  0.27869805585E+03  0.00000000000E+00 0. -1.
         11    1    4    4    0    0 -0.26958404718E+02 -0.27310034552E+02  0.88020002727E+02  0.96021427047E+02  0.00000000000E+00 0.  1.
        -11    1    3    3    0    0  0.18908475489E+02 -0.24509568818E+02  0.12432499530E+03  0.12812085648E+03  0.00000000000E+00 0. -1.
         11    1    3    3    0    0 -0.48473107035E+02  0.46855745422E+02  0.26351872166E+03  0.27200591841E+03  0.00000000000E+00 0.  1.
          1    1    1    2  501    0 -0.91875157652E+01  0.35048518846E+02 -0.40296400873E+01  0.36456098508E+02  0.00000000000E+00 0. -1.
<scales pt_clust_5="13000.00000" pt_clust_6="13000.00000" pt_clust_7="13000.00000" pt_clust_8="13000.00000" pt_clust_9="36.23271"></scales>
<clustering>
<clus scale="   36.233">  2  9  1 -1</clus>
<clus scale="   89.654">  5  6 -1 -1</clus>
<clus scale="   91.133">  7  8 -1 -1</clus>
<clus scale="  102.485">  2  5  1 -1</clus>
<clus scale="   36.233">  2  5  1 -1</clus>
</clustering>
</event>
<event>
 9    1  0.1399746E-005  0.1363308E+03  0.7546771E-02  0.1218389E+00
          2   -1    0    0  502    0 -0.00000000000E+00  0.00000000000E+00  0.12009679382E+03  0.12009679382E+03  0.00000000000E+00 0. -1.
         21   -1    0    0  501  502  0.00000000000E+00 -0.00000000000E+00 -0.24367651175E+03  0.24367651175E+03  0.00000000000E+00 0. -1.
         23    2    1    2    0    0  0.78289274590E+02 -0.72543800611E+02  0.14680369618E+02  0.14153614804E+03  0.91788639971E+02 0.  0.
         23    2    1    2    0    0 -0.72440509889E+02  0.46193887122E+02 -0.14747080694E+03  0.19371763191E+03  0.91637215868E+02 0.  0.
        -11    1    3    3    0    0  0.19881214706E+02 -0.76598603930E+02  0.22971736692E+02  0.82403334331E+02  0.00000000000E+00 0. -1.
         11    1    3    3    0    0  0.58408059885E+02  0.40548033198E+01 -0.82913670737E+01  0.59132813711E+02  0.00000000000E+00 0.  1.
        -11    1    4    4    0    0 -0.44410145165E+02  0.53004007532E+02 -0.34799603946E+02  0.77412519936E+02  0.00000000000E+00 0.  1.
         11    1    4    4    0    0 -0.28030364725E+02 -0.68101204099E+01 -0.11267120300E+03  0.11630511197E+03  0.00000000000E+00 0. -1.
          2    1    1    2  501    0 -0.58487647009E+01  0.26349913488E+02  0.92107193943E+01  0.28519525612E+02  0.00000000000E+00 0. -1.
<scales pt_clust_5="13000.00000" pt_clust_6="13000.00000" pt_clust_7="13000.00000" pt_clust_8="13000.00000" pt_clust_9="26.99123"></scales>
<clustering>
<clus scale="   26.991">  2  9  1 -1</clus>
<clus scale="   91.637">  7  8 -1 -1</clus>
<clus scale="   91.789">  5  6 -1 -1</clus>
<clus scale="  136.229">  2  7  1 -1</clus>
<clus scale="   26.991">  2  5  1 -1</clus>
</clustering>
</event>
<event>
 9    1  0.1399746E-005  0.1009358E+03  0.7546771E-02  0.1282550E+00
          2   -1    0    0  502    0 -0.00000000000E+00  0.00000000000E+00  0.51761507572E+03  0.51761507572E+03  0.00000000000E+00 0. -1.
         21   -1    0    0  501  502  0.00000000000E+00 -0.00000000000E+00 -0.66963689693E+02  0.66963689693E+02  0.00000000000E+00 0.  1.
         23    2    1    2    0    0  0.40368575428E+02  0.12376766595E+01  0.41783725487E+03  0.42949052984E+03  0.90790913296E+02 0.  0.
         23    2    1    2    0    0 -0.76314921476E+02  0.68249632692E+01  0.12373019051E+02  0.11295766448E+03  0.82071889226E+02 0.  0.
        -11    1    4    4    0    0 -0.51727461834E+02 -0.15885432653E+02  0.41810993215E+02  0.68383012744E+02  0.00000000000E+00 0. -1.
         11    1    4    4    0    0 -0.24587459642E+02  0.22710395923E+02 -0.29437974164E+02  0.44574651737E+02  0.00000000000E+00 0.  1.
        -13    1    3    3    0    0 -0.70173466897E+01 -0.36873796197E+02  0.19036331746E+03  0.19402863870E+03  0.00000000000E+00 0.  1.
         13    1    3    3    0    0  0.47385922118E+02  0.38111472856E+02  0.22747393741E+03  0.23546189114E+03  0.00000000000E+00 0. -1.
          2    1    1    2  501    0  0.35946346048E+02 -0.80626399288E+01  0.20441112111E+02  0.42130571099E+02  0.00000000000E+00 0. -1.
<scales pt_clust_5="13000.00000" pt_clust_6="13000.00000" pt_clust_7="13000.00000" pt_clust_8="13000.00000" pt_clust_9="36.83946"></scales>
<clustering>
<clus scale="   36.839">  2  9  1 -1</clus>
<clus scale="   82.072">  5  6 -1 -1</clus>
<clus scale="   90.791">  7  8 -1 -1</clus>
<clus scale="   93.171">  2  5  1 -1</clus>
<clus scale="   36.839">  2  5  1 -1</clus>
</clustering>
</event>
<event>
 9    1  0.1399746E-005  0.1082171E+03  0.7546771E-02  0.1265315E+00
         21   -1    0    0  501  502  0.00000000000E+00  0.00000000000E+00  0.16120346047E+03  0.16120346047E+03  0.00000000000E+00 0. -1.
         -1   -1    0    0    0  501 -0.00000000000E+00 -0.00000000000E+00 -0.10273429649E+03  0.10273429649E+03  0.00000000000E+00 0.  1.
         23    2    1    2    0    0 -0.45904035448E+02  0.35136189371E+01  0.43643462642E+01  0.99866187052E+02  0.88513737971E+02 0.  0.
         23    2    1    2    0    0  0.69014264609E+02 -0.27873252820E+02  0.28134728962E+02  0.12162254207E+03  0.91981480876E+02 0.  0.
        -11    1    3    3    0    0 -0.72194242869E+02 -0.43399602093E+01  0.25983254693E+01  0.72371232222E+02  0.00000000000E+00 0.  1.
         11    1    3    3    0    0  0.26290207421E+02  0.78535791463E+01  0.17660207949E+01  0.27494954830E+02  0.00000000000E+00 0. -1.
        -13    1    4    4    0    0  0.11364155133E+01 -0.31858220525E+02 -0.20609914237E+02  0.37960587720E+02  0.00000000000E+00 0.  1.
         13    1    4    4    0    0  0.67877849095E+02  0.39849677049E+01  0.48744643199E+02  0.83661954352E+02  0.00000000000E+00 0. -1.
         -1    1    1    2    0  502 -0.23110229161E+02  0.24359633883E+02  0.25970088757E+02  0.42449027843E+02  0.00000000000E+00 0.  1.
<scales pt_clust_5="13000.00000" pt_clust_6="13000.00000" pt_clust_7="13000.00000" pt_clust_8="13000.00000" pt_clust_9="33.57789"></scales>
<clustering>
<clus scale="   33.578">  1  9  2 -1</clus>
<clus scale="   88.514">  5  6 -1 -1</clus>
<clus scale="   91.981">  7  8 -1 -1</clus>
<clus scale="  105.285">  2  5  1 -1</clus>
<clus scale="   33.578">  1  5  2 -1</clus>
</clustering>
</event>
<event>
 9    1  0.1399746E-005  0.9854866E+02  0.7546771E-02  0.1284256E+00
         21   -1    0    0  501  502  0.00000000000E+00  0.00000000000E+00  0.42140155103E+03  0.42140155103E+03  0.00000000000E+00 0.  1.
          2   -1    0    0  502    0 -0.00000000000E+00 -0.00000000000E+00 -0.38633727852E+02  0.38633727852E+02  0.00000000000E+00 0. -1.
         23    2    1    2    0    0 -0.14134662008E+02  0.45755489672E+02  0.11036343827E+03  0.15205266894E+03  0.92986945966E+02 0.  0.
         23    2    1    2    0    0  0.25797936752E+02 -0.20309311167E+01  0.14998305412E+03  0.17746498190E+03  0.91264697748E+02 0.  0.
        -11    1    3    3    0    0 -0.49160389206E+02  0.42380672906E+02  0.49036169309E+02  0.81347472016E+02  0.00000000000E+00 0. -1.
         11    1    3    3    0    0  0.35025727198E+02  0.33748167659E+01  0.61327268965E+02  0.70705196928E+02  0.00000000000E+00 0.  1.
        -13    1    4    4    0    0  0.16728153801E+02  0.21028136676E+02  0.15030129010E+03  0.15268428691E+03  0.00000000000E+00 0.  1.
         13    1    4    4    0    0  0.90697829507E+01 -0.23059067793E+02 -0.31823597880E+00  0.24780694994E+02  0.00000000000E+00 0. -1.
          2    1    1    2  501    0 -0.11663274744E+02 -0.43724558556E+02  0.12242133078E+03  0.13051762803E+03  0.00000000000E+00 0. -1.
<scales pt_clust_5="13000.00000" pt_clust_6="13000.00000" pt_clust_7="13000.00000" pt_clust_8="13000.00000" pt_clust_9="45.25339"></scales>
<clustering>
<clus scale="   45.253">  1  9  2 -1</clus>
<clus scale="   91.265">  7  8 -1 -1</clus>
<clus scale="   92.987">  5  6 -1 -1</clus>
<clus scale="   96.925">  1  7  2 -1</clus>
<clus scale="   45.253">  1  5  2 -1</clus>
</clustering>
</event>
<event>
 9    1  0.1399746E-005  0.1253500E+03  0.7546771E-02  0.1234700E+00
          1   -1    0    0  502    0 -0.00000000000E+00  0.00000000000E+00  0.53177043666E+03  0.53177043666E+03  0.00000000000E+00 0. -1.
         21   -1    0    0  501  502  0.00000000000E+00 -0.00000000000E+00 -0.43848574124E+02  0.43848574124E+02  0.00000000000E+00 0.  1.
         23    2    1    2    0    0  0.94250480591E+02 -0.14692199060E+02  0.33621662096E+03  0.36123895951E+03  0.91394506686E+02 0.  0.
         23    2    1    2    0    0 -0.65661801498E+02 -0.20436808008E+01  0.87627270377E+02  0.14224553360E+03  0.90772267289E+02 0.  0.
        -13    1    4    4    0    0 -0.24867432859E+02 -0.12987856814E+02 -0.14607197345E+02  0.31629793801E+02  0.00000000000E+00 0.  1.
         13    1    4    4    0    0 -0.40794368639E+02  0.10944176013E+02  0.10223446772E+03  0.11061573980E+03  0.00000000000E+00 0. -1.
        -13    1    3    3    0    0  0.37758019599E+02 -0.51512409124E+02  0.18350207907E+03  0.19429927782E+03  0.00000000000E+00 0.  1.
         13    1    3    3    0    0  0.56492460992E+02  0.36820210064E+02  0.15271454189E+03  0.16693968169E+03  0.00000000000E+00 0. -1.
          1    1    1    2  501    0 -0.28588679093E+02  0.16735879861E+02  0.64077971200E+02  0.72134517674E+02  0.00000000000E+00 0. -1.
<scales pt_clust_5="13000.00000" pt_clust_6="13000.00000" pt_clust_7="13000.00000" pt_clust_8="13000.00000" pt_clust_9="33.12708"></scales>
<clustering>
<clus scale="   33.127">  2  9  1 -1</clus>
<clus scale="   90.772">  5  6 -1 -1</clus>
<clus scale="   91.395">  7  8 -1 -1</clus>
<clus scale="  124.897">  2  5  1 -1</clus>
<clus scale="   33.127">  2  5  1 -1</clus>
</clustering>
</event>
<event>
 9    1  0.1399746E-005  0.1458194E+03  0.7546771E-02  0.1215181E+00
         21   -1    0    0  501  502  0.00000000000E+00  0.00000000000E+00  0.85363886804E+03  0.85363886804E+03  0.00000000000E+00 0.  1.
          4   -1    0    0  502    0 -0.00000000000E+00 -0.00000000000E+00 -0.26684402140E+02  0.26684402140E+02  0.00000000000E+00 0. -1.
         23    2    1    2    0    0 -0.30408576323E+02 -0.55587644993E+02  0.32989301990E+03  0.35866846646E+03  0.12569405897E+03 0.  0.
         23    2    1    2    0    0  0.58883866791E+02  0.65151538146E+02  0.40663841480E+03  0.42637293351E+03  0.93418656328E+02 0.  0.
        -11    1    3    3    0    0  0.35690630775E+02  0.16275060955E+02  0.13651380817E+03  0.14203773638E+03  0.00000000000E+00 0.  1.
         11    1    3    3    0    0 -0.66099207097E+02 -0.71862705948E+02  0.19337921173E+03  0.21663073008E+03  0.00000000000E+00 0. -1.
        -13    1    4    4    0    0 -0.78073561040E+00  0.47926311871E+02  0.75275074669E+02  0.89240561317E+02  0.00000000000E+00 0. -1.
         13    1    4    4    0    0  0.59664602402E+02  0.17225226275E+02  0.33136334013E+03  0.33713237220E+03  0.00000000000E+00 0.  1.
          4    1    1    2  501    0 -0.28475290468E+02 -0.95638931529E+01  0.90423031200E+02  0.95281870211E+02  0.00000000000E+00 0. -1.
<scales pt_clust_5="13000.00000" pt_clust_6="13000.00000" pt_clust_7="13000.00000" pt_clust_8="13000.00000" pt_clust_9="30.03848"></scales>
<clustering>
<clus scale="   30.038">  1  9  2 -1</clus>
<clus scale="   93.419">  7  8 -1 -1</clus>
<clus scale="  119.127">  1  7  2 -1</clus>
<clus scale="  125.694">  5  6 -1 -1</clus>
<clus scale="   30.038">  1  5  2 -1</clus>
</clustering>
</event>
<event>
 9    1  0.1399746E-005  0.1113593E+03  0.7546771E-02  0.1258491E+00
         -3   -1    0    0    0  501 -0.00000000000E+00  0.00000000000E+00  0.30088443404E+03  0.30088443404E+03  0.00000000000E+00 0.  1.
         21   -1    0    0  501  502  0.00000000000E+00 -0.00000000000E+00 -0.55117371849E+02  0.55117371849E+02  0.00000000000E+00 0. -1.
         23    2    1    2    0    0  0.54355398799E+02  0.22194609629E+02  0.13711526124E+03  0.17441869437E+03  0.90411149787E+02 0.  0.
         23    2    1    2    0    0 -0.53552111553E+02 -0.50157991885E+02  0.91474447800E+02  0.14875541774E+03  0.91525662546E+02 0.  0.
        -11    1    4    4    0    0 -0.87005049805E+01 -0.49123671167E+02  0.91128553032E+02  0.10389055315E+03  0.00000000000E+00 0.  1.
         11    1    4    4    0    0 -0.44851606572E+02 -0.10343207184E+01  0.34589476773E+00  0.44864864590E+02  0.00000000000E+00 0. -1.
        -11    1    3    3    0    0  0.17284307407E+02 -0.30172665128E+02  0.18077954300E+02  0.39191190785E+02  0.00000000000E+00 0. -1.
         11    1    3    3    0    0  0.37071091391E+02  0.52367274757E+02  0.11903730694E+03  0.13522750358E+03  0.00000000000E+00 0.  1.
         -3    1    1    2    0  502 -0.80328724607E+00  0.27963382257E+02  0.17177353152E+02  0.32827693780E+02  0.00000000000E+00 0.  1.
<scales pt_clust_5="13000.00000" pt_clust_6="13000.00000" pt_clust_7="13000.00000" pt_clust_8="13000.00000" pt_clust_9="27.97492"></scales>
<clustering>
<clus scale="   27.975">  2  9  1 -1</clus>
<clus scale="   90.411">  7  8 -1 -1</clus>
<clus scale="   91.526">  5  6 -1 -1</clus>
<clus scale="  110.445">  1  7  2 -1</clus>
<clus scale="   27.975">  2  5  1 -1</clus>
</clustering>
</event>
<event>
 9    1  0.1399746E-005  0.9231569E+02  0.7546771E-02  0.1297808E+00
          1   -1    0    0  502    0 -0.00000000000E+00  0.00000000000E+00  0.91224090111E+02  0.91224090111E+02  0.00000000000E+00 0. -1.
         21   -1    0    0  501  502  0.00000000000E+00 -0.00000000000E+00 -0.36333695199E+03  0.36333695199E+03  0.00000000000E+00 0.  1.
         23    2    1    2    0    0 -0.18230183728E+01  0.55120431368E+01  0.27460330830E+02  0.94987184052E+02  0.90745740116E+02 0.  0.
         23    2    1    2    0    0  0.39441557103E+02  0.25010720510E+02 -0.68580234883E+02  0.12355576526E+03  0.91551111113E+02 0.  0.
        -11    1    4    4    0    0  0.48366333162E+02 -0.23161215265E+02 -0.32416292596E+02  0.62662270161E+02  0.00000000000E+00 0.  1.
         11    1    4    4    0    0 -0.89247760584E+01  0.48171935775E+02 -0.36163942288E+02  0.60893495102E+02  0.00000000000E+00 0. -1.
        -13    1    3    3    0    0 -0.42349094056E+02  0.17932290102E+02  0.30874675226E+01  0.46092789581E+02  0.00000000000E+00 0. -1.
         13    1    3    3    0    0  0.40526075683E+02 -0.12420246965E+02  0.24372863307E+02  0.48894394471E+02  0.00000000000E+00 0.  1.
          1    1    1    2  501    0 -0.37618538731E+02 -0.30522763647E+02 -0.23099295783E+03  0.23601809279E+03  0.00000000000E+00 0. -1.
<scales pt_clust_5="13000.00000" pt_clust_6="13000.00000" pt_clust_7="13000.00000" pt_clust_8="13000.00000" pt_clust_9="48.44372"></scales>
<clustering>
<clus scale="   48.444">  2  9  1 -1</clus>
<clus scale="   90.746">  7  8 -1 -1</clus>
<clus scale="   91.517">  1  7  2 -1</clus>
<clus scale="   91.551">  5  6 -1 -1</clus>
<clus scale="   48.444">  2  5  1 -1</clus>
</clustering>
</event>
<event>
 9    1  0.1399746E-005  0.1081395E+03  0.7546771E-02  0.1265476E+00
         21   -1    0    0  501  502  0.00000000000E+00  0.00000000000E+00  0.17238055173E+03  0.17238055173E+03  0.00000000000E+00 0. -1.
         -1   -1    0    0    0  501 -0.00000000000E+00 -0.00000000000E+00 -0.10309536760E+03  0.10309536760E+03  0.00000000000E+00 0.  1.
         23    2    1    2    0    0 -0.54140347006E+02 -0.99592698465E+01 -0.23574379771E+02  0.11124753463E+03  0.93754457765E+02 0.  0.
         23    2    1    2    0    0  0.53237457714E+02 -0.11730599820E+02  0.51242638352E+02  0.11728976362E+03  0.90328549141E+02 0.  0.
        -11    1    3    3    0    0 -0.28531266335E+02 -0.26079506419E+02  0.30529200660E+02  0.49256531614E+02  0.00000000000E+00 0. -1.
         11    1    3    3    0    0 -0.25609080670E+02  0.16120236572E+02 -0.54103580431E+02  0.61991003020E+02  0.00000000000E+00 0.  1.
        -13    1    4    4    0    0  0.25240142442E+02 -0.39775516718E+02  0.60418932583E+02  0.76613340452E+02  0.00000000000E+00 0. -1.
         13    1    4    4    0    0  0.27997315273E+02  0.28044916898E+02 -0.91762942316E+01  0.40676423173E+02  0.00000000000E+00 0.  1.
         -1    1    1    2    0  502  0.90288929154E+00  0.21689869666E+02  0.41616925550E+02  0.46938621064E+02  0.00000000000E+00 0.  1.
<scales pt_clust_5="13000.00000" pt_clust_6="13000.00000" pt_clust_7="13000.00000" pt_clust_8="13000.00000" pt_clust_9="21.70865"></scales>
<clustering>
<clus scale="   21.709">  1  9  2 -1</clus>
<clus scale="   90.329">  7  8 -1 -1</clus>
<clus scale="   93.754">  5  6 -1 -1</clus>
<clus scale="  105.183">  1  7  2 -1</clus>
<clus scale="   21.709">  1  5  2 -1</clus>
</clustering>
</event>
<event>
 9    1  0.1399746E-005  0.9331075E+02  0.7546771E-02  0.1295092E+00
         21   -1    0    0  501  502  0.00000000000E+00  0.00000000000E+00  0.73387269750E+02  0.73387269750E+02  0.00000000000E+00 0. -1.
         -3   -1    0    0    0  501 -0.00000000000E+00 -0.00000000000E+00 -0.18855543236E+03  0.18855543236E+03  0.00000000000E+00 0.  1.
         23    2    1    2    0    0  0.14776203766E+01  0.25062759980E+02 -0.94920896215E+02  0.13382907230E+03  0.90939093650E+02 0.  0.
         23    2    1    2    0    0  0.14760902737E+02 -0.11430612955E+02 -0.38042253888E+02  0.10043355313E+03  0.91055710155E+02 0.  0.
        -11    1    3    3    0    0  0.42354601414E+02 -0.28267667028E+01 -0.58989318177E+02  0.72674909907E+02  0.00000000000E+00 0.  1.
         11    1    3    3    0    0 -0.40876981038E+02  0.27889526683E+02 -0.35931578037E+02  0.61154162390E+02  0.00000000000E+00 0. -1.
        -11    1    4    4    0    0  0.27173328024E+02 -0.47540537112E+02 -0.21775977046E+02  0.58929496868E+02  0.00000000000E+00 0.  1.
         11    1    4    4    0    0 -0.12412425287E+02  0.36109924157E+02 -0.16266276842E+02  0.41504056265E+02  0.00000000000E+00 0. -1.
         -3    1    1    2    0  502 -0.16238523114E+02 -0.13632147025E+02  0.17794987489E+02  0.27680076683E+02  0.00000000000E+00 0.  1.
<scales pt_clust_5="13000.00000" pt_clust_6="13000.00000" pt_clust_7="13000.00000" pt_clust_8="13000.00000" pt_clust_9="21.20201"></scales>
<clustering>
<clus scale="   21.202">  1  9  2 -1</clus>
<clus scale="   90.939">  5  6 -1 -1</clus>
<clus scale="   91.056">  7  8 -1 -1</clus>
<clus scale="   93.197">  2  5  1 -1</clus>
<clus scale="   21.202">  1  5  2 -1</clus>
</clustering>
</event>
<event>
 9    1  0.1399746E-005  0.1221551E+03  0.7546771E-02  0.1241868E+00
         21   -1    0    0  501  502  0.00000000000E+00  0.00000000000E+00  0.27449389604E+03  0.27449389604E+03  0.00000000000E+00 0.  1.
          2   -1    0    0  502    0 -0.00000000000E+00 -0.00000000000E+00 -0.15707283420E+03  0.15707283420E+03  0.00000000000E+00 0. -1.
         23    2    1    2    0    0 -0.42547270010E+02  0.71874515424E+02 -0.11219526511E+03  0.16346440166E+03  0.84596790386E+02 0.  0.
         23    2    1    2    0    0  0.26906158860E+02 -0.51746778899E+02  0.15685037743E+03  0.19100074920E+03  0.92073746436E+02 0.  0.
        -11    1    4    4    0    0  0.32134517527E+02 -0.76742085273E+02  0.11425308604E+03  0.14133556714E+03  0.00000000000E+00 0. -1.
         11    1    4    4    0    0 -0.52283586671E+01  0.24995306374E+02  0.42597291387E+02  0.49665182056E+02  0.00000000000E+00 0.  1.
        -11    1    3    3    0    0  0.25717744995E+02  0.25523751341E+02 -0.37863261895E+02  0.52406973691E+02  0.00000000000E+00 0.  1.
         11    1    3    3    0    0 -0.68265015004E+02  0.46350764083E+02 -0.74332003212E+02  0.11105742796E+03  0.00000000000E+00 0. -1.
          2    1    1    2  501    0  0.15641111150E+02 -0.20127736525E+02  0.72765949513E+02  0.77101579389E+02  0.00000000000E+00 0. -1.
<scales pt_clust_5="13000.00000" pt_clust_6="13000.00000" pt_clust_7="13000.00000" pt_clust_8="13000.00000" pt_clust_9="25.49059"></scales>
<clustering>
<clus scale="   25.491">  1  9  2 -1</clus>
<clus scale="   84.597">  7  8 -1 -1</clus>
<clus scale="   92.074">  5  6 -1 -1</clus>
<clus scale="  116.623">  2  7  1 -1</clus>
<clus scale="   25.491">  1  5  2 -1</clus>
</clustering>
</event>
<event>
 9    1  0.1399746E-005  0.1061210E+03  0.7546771E-02  0.1277486E+00
          1   -1    0    0  502    0 -0.00000000000E+00  0.00000000000E+00  0.34045430031E+03  0.34045430031E+03  0.00000000000E+00 0. -1.
         21   -1    0    0  501  502  0.00000000000E+00 -0.00000000000E+00 -0.46449209964E+02  0.46449209964E+02  0.00000000000E+00 0.  1.
         23    2    1    2    0    0 -0.10796978672E+02  0.42252980614E+02  0.21151848301E+03  0.22885429920E+03  0.75712168695E+02 0.  0.
         23    2    1    2    0    0  0.33338678649E+02 -0.44322606701E+02  0.59405348019E+02  0.12572033665E+03  0.95920001639E+02 0.  0.
        -13    1    3    3    0    0 -0.36741189089E+01 -0.20668214985E+02  0.30060706754E+02  0.36664974444E+02  0.00000000000E+00 0.  1.
         13    1    3    3    0    0 -0.71228597627E+01  0.62921195598E+02  0.18145777626E+03  0.19218932476E+03  0.00000000000E+00 0. -1.
        -13    1    4    4    0    0  0.18642440245E+02  0.13866431887E+02  0.61422815273E+02  0.65670242482E+02  0.00000000000E+00 0. -1.
         13    1    4    4    0    0  0.14696238404E+02 -0.58189038588E+02 -0.20174672539E+01  0.60050094165E+02  0.00000000000E+00 0.  1.
          1    1    1    2  501    0 -0.22541699978E+02  0.20696260877E+01  0.23081259311E+02  0.32328874422E+02  0.00000000000E+00 0. -1.
<scales pt_clust_5="13000.00000" pt_clust_6="13000.00000" pt_clust_7="13000.00000" pt_clust_8="13000.00000" pt_clust_9="22.63651"></scales>
<clustering>
<clus scale="   22.637">  2  9  1 -1</clus>
<clus scale="   75.712">  5  6 -1 -1</clus>
<clus scale="   88.280">  1  5  2 -1</clus>
<clus scale="   95.920">  7  8 -1 -1</clus>
<clus scale="   22.637">  2  5  1 -1</clus>
</clustering>
</event>
<event>
 9    1  0.1399746E-005  0.9822206E+02  0.7546771E-02  0.1284788E+00
         21   -1    0    0  501  502  0.00000000000E+00  0.00000000000E+00  0.59668485058E+02  0.59668485058E+02  0.00000000000E+00 0. -1.
          1   -1    0    0  502    0 -0.00000000000E+00 -0.00000000000E+00 -0.35130120443E+03  0.35130120443E+03  0.00000000000E+00 0. -1.
         23    2    1    2    0    0 -0.21570922081E+02  0.12601086710E+02 -0.19272922273E+03  0.21474232986E+03  0.91354380697E+02 0.  0.
         23    2    1    2    0    0  0.26330070695E+02 -0.39678753100E+02 -0.12188990998E+03  0.16039127851E+03  0.92739074814E+02 0.  0.
        -13    1    4    4    0    0 -0.15837187033E+02  0.23381952638E+02 -0.29319068055E+02  0.40707983908E+02  0.00000000000E+00 0.  1.
         13    1    4    4    0    0  0.42167257728E+02 -0.63060705738E+02 -0.92570841921E+02  0.11968329460E+03  0.00000000000E+00 0. -1.
        -13    1    3    3    0    0 -0.57271471751E+02  0.13166786819E+02 -0.12714808274E+03  0.14007148423E+03  0.00000000000E+00 0.  1.
         13    1    3    3    0    0  0.35700549670E+02 -0.56570010859E+00 -0.65581139994E+02  0.74670845625E+02  0.00000000000E+00 0. -1.
          1    1    1    2  501    0 -0.47591486140E+01  0.27077666389E+02  0.22986413331E+02  0.35836081125E+02  0.00000000000E+00 0. -1.
<scales pt_clust_5="13000.00000" pt_clust_6="13000.00000" pt_clust_7="13000.00000" pt_clust_8="13000.00000" pt_clust_9="27.49272"></scales>
<clustering>
<clus scale="   27.493">  1  9  2 -1</clus>
<clus scale="   91.354">  7  8 -1 -1</clus>
<clus scale="   92.739">  5  6 -1 -1</clus>
<clus scale="   96.916">  2  7  1 -1</clus>
<clus scale="   27.493">  1  5  2 -1</clus>
</clustering>
</event>
<event>
 9    1  0.1399746E-005  0.1010345E+03  0.7546771E-02  0.1279709E+00
         -1   -1    0    0    0  501 -0.00000000000E+00  0.00000000000E+00  0.37814332737E+02  0.37814332737E+02  0.00000000000E+00 0.  1.
         21   -1    0    0  501  502  0.00000000000E+00 -0.00000000000E+00 -0.39209415495E+03  0.39209415495E+03  0.00000000000E+00 0. -1.
         23    2    1    2    0    0 -0.31713865873E+02 -0.72700750266E+00 -0.93388846187E+02  0.13505035547E+03  0.92254127773E+02 0.  0.
         23    2    1    2    0    0  0.55782154354E+02  0.86479237846E+01 -0.16580421290E+03  0.19645327488E+03  0.88974248341E+02 0.  0.
        -11    1    3    3    0    0 -0.13024006047E+02 -0.42911778971E+02 -0.70477972759E+02  0.83535562200E+02  0.00000000000E+00 0. -1.
         11    1    3    3    0    0 -0.18689859825E+02  0.42184771468E+02 -0.22910873429E+02  0.51514793267E+02  0.00000000000E+00 0.  1.
        -13    1    4    4    0    0  0.69708140709E+02  0.30686853475E+02 -0.10021418132E+03  0.12587211762E+03  0.00000000000E+00 0.  1.
         13    1    4    4    0    0 -0.13925986356E+02 -0.22038929690E+02 -0.65590031578E+02  0.70581157261E+02  0.00000000000E+00 0. -1.
         -1    1    1    2    0  502 -0.24068288481E+02 -0.79209162820E+01 -0.95086763130E+02  0.98404857338E+02  0.00000000000E+00 0.  1.
<scales pt_clust_5="13000.00000" pt_clust_6="13000.00000" pt_clust_7="13000.00000" pt_clust_8="13000.00000" pt_clust_9="25.33818"></scales>
<clustering>
<clus scale="   25.338">  2  9  1 -1</clus>
<clus scale="   88.974">  7  8 -1 -1</clus>
<clus scale="   92.254">  5  6 -1 -1</clus>
<clus scale="   98.049">  2  7  1 -1</clus>
<clus scale="   25.338">  2  5  1 -1</clus>
</clustering>
</event>
<event>
 9    1  0.1399746E-005  0.1877455E+03  0.7546771E-02  0.1160879E+00
         21   -1    0    0  501  502  0.00000000000E+00  0.00000000000E+00  0.18055298206E+03  0.18055298206E+03  0.00000000000E+00 0. -1.
          1   -1    0    0  502    0 -0.00000000000E+00 -0.00000000000E+00 -0.38529304098E+03  0.38529304098E+03  0.00000000000E+00 0. -1.
         23    2    1    2    0    0  0.15550653053E+03 -0.18562982334E+02 -0.24339457423E+03  0.30502421662E+03  0.96291165792E+02 0.  0.
         23    2    1    2    0    0 -0.17715334028E+03 -0.11163151733E+02 -0.89692931789E+01  0.20065325521E+03  0.93130868554E+02 0.  0.
        -11    1    4    4    0    0 -0.16138025948E+03  0.21967918835E+02  0.43063898710E-01  0.16286859569E+03  0.00000000000E+00 0.  1.
         11    1    4    4    0    0 -0.15773080799E+02 -0.33131070568E+02 -0.90123570776E+01  0.37784659519E+02  0.00000000000E+00 0. -1.
        -13    1    3    3    0    0  0.96807657636E+02 -0.34239907102E+02 -0.21436314065E+03  0.23768813576E+03  0.00000000000E+00 0. -1.
         13    1    3    3    0    0  0.58698872895E+02  0.15676924768E+02 -0.29031433587E+02  0.67336080859E+02  0.00000000000E+00 0.  1.
          1    1    1    2  501    0  0.21646809749E+02  0.29726134067E+02  0.47623808497E+02  0.60168551210E+02  0.00000000000E+00 0. -1.
<scales pt_clust_5="13000.00000" pt_clust_6="13000.00000" pt_clust_7="13000.00000" pt_clust_8="13000.00000" pt_clust_9="36.77264"></scales>
<clustering>
<clus scale="   36.773">  1  9  2 -1</clus>
<clus scale="   93.131">  5  6 -1 -1</clus>
<clus scale="   96.291">  7  8 -1 -1</clus>
<clus scale="  186.144">  1  5  2 -1</clus>
<clus scale="   36.773">  1  5  2 -1</clus>
</clustering>
</event>
<event>
 9    1  0.1399746E-005  0.1261134E+03  0.7546771E-02  0.1233468E+00
         21   -1    0    0  501  502  0.00000000000E+00  0.00000000000E+00  0.26003885682E+03  0.26003885682E+03  0.00000000000E+00 0. -1.
          2   -1    0    0  502    0 -0.00000000000E+00 -0.00000000000E+00 -0.42740431613E+03  0.42740431613E+03  0.00000000000E+00 0. -1.
         23    2    1    2    0    0 -0.57313962546E+02 -0.62898093220E+02 -0.32858343291E+03  0.35148583104E+03  0.91291602054E+02 0.  0.
         23    2    1    2    0    0  0.44748586340E+02  0.84020861897E+02 -0.36150767984E+02  0.13706420428E+03  0.91748443349E+02 0.  0.
        -11    1    4    4    0    0  0.22145467278E+02 -0.96137234896E+01 -0.32741376215E+02  0.40679762988E+02  0.00000000000E+00 0. -1.
         11    1    4    4    0    0  0.22603119062E+02  0.93634585387E+02 -0.34093917693E+01  0.96384441297E+02  0.00000000000E+00 0.  1.
        -13    1    3    3    0    0 -0.18248343901E+02 -0.73517425744E+02 -0.26891809460E+03  0.27938281184E+03  0.00000000000E+00 0. -1.
         13    1    3    3    0    0 -0.39065618645E+02  0.10619332524E+02 -0.59665338307E+02  0.72103019206E+02  0.00000000000E+00 0.  1.
          2    1    1    2  501    0  0.12565376206E+02 -0.21122768677E+02  0.19736874159E+03  0.19889313762E+03  0.00000000000E+00 0. -1.
<scales pt_clust_5="13000.00000" pt_clust_6="13000.00000" pt_clust_7="13000.00000" pt_clust_8="13000.00000" pt_clust_9="24.57763"></scales>
<clustering>
<clus scale="   24.578">  1  9  2 -1</clus>
<clus scale="   91.292">  7  8 -1 -1</clus>
<clus scale="   91.748">  5  6 -1 -1</clus>
<clus scale="  125.781">  2  7  1 -1</clus>
<clus scale="   24.578">  1  5  2 -1</clus>
</clustering>
</event>
<event>
 9    1  0.1399746E-005  0.1771879E+03  0.7546771E-02  0.1170730E+00
         21   -1    0    0  501  502  0.00000000000E+00  0.00000000000E+00  0.38002752238E+03  0.38002752238E+03  0.00000000000E+00 0.  1.
          1   -1    0    0  502    0 -0.00000000000E+00 -0.00000000000E+00 -0.21894541833E+03  0.21894541833E+03  0.00000000000E+00 0. -1.
         23    2    1    2    0    0 -0.11929613462E+03 -0.92941941267E+02 -0.12190306440E+03  0.21411973991E+03  0.90095137091E+02 0.  0.
         23    2    1    2    0    0  0.15110200331E+03  0.56948690740E+02  0.28102680424E+03  0.33678072887E+03  0.91488938444E+02 0.  0.
        -11    1    3    3    0    0 -0.20209730606E+02  0.18140841879E+02 -0.17662670226E+02  0.32395883608E+02  0.00000000000E+00 0.  1.
         11    1    3    3    0    0 -0.99086404012E+02 -0.11108278315E+03 -0.10424039418E+03  0.18172385630E+03  0.00000000000E+00 0. -1.
        -13    1    4    4    0    0  0.10471686946E+03 -0.88443991990E+01  0.15802282380E+03  0.18977633938E+03  0.00000000000E+00 0. -1.
         13    1    4    4    0    0  0.46385133846E+02  0.65793089939E+02  0.12300398044E+03  0.14700438949E+03  0.00000000000E+00 0.  1.
          1    1    1    2  501    0 -0.31805868688E+02  0.35993250527E+02  0.19583642163E+01  0.48072471924E+02  0.00000000000E+00 0. -1.
<scales pt_clust_5="13000.00000" pt_clust_6="13000.00000" pt_clust_7="13000.00000" pt_clust_8="13000.00000" pt_clust_9="48.03259"></scales>
<clustering>
<clus scale="   48.033">  1  9  2 -1</clus>
<clus scale="   90.095">  5  6 -1 -1</clus>
<clus scale="   91.489">  7  8 -1 -1</clus>
<clus scale="  176.472">  2  5  1 -1</clus>
<clus scale="   48.033">  1  5  2 -1</clus>
</clustering>
</event>
<event>
 9    1  0.1399746E-005  0.1161684E+03  0.7546771E-02  0.1250065E+00
         -1   -1    0    0    0  501 -0.00000000000E+00  0.00000000000E+00  0.20673135856E+03  0.20673135856E+03  0.00000000000E+00 0.  1.
         21   -1    0    0  501  502  0.00000000000E+00 -0.00000000000E+00 -0.11327378145E+03  0.11327378145E+03  0.00000000000E+00 0. -1.
         23    2    1    2    0    0  0.13287317877E+02  0.51195229999E+02  0.52726526232E+02  0.11722093553E+03  0.90350189628E+02 0.  0.
         23    2    1    2    0    0 -0.44477673355E+02 -0.90067698383E+02  0.63048623163E+02  0.14817668572E+03  0.88829880039E+02 0.  0.
        -11    1    3    3    0    0  0.22812348970E+02  0.71875484879E+02  0.21199638125E+02  0.78332070372E+02  0.00000000000E+00 0. -1.
         11    1    3    3    0    0 -0.95250310928E+01 -0.20680254880E+02  0.31526888107E+02  0.38888865153E+02  0.00000000000E+00 0.  1.
        -11    1    4    4    0    0 -0.67527956997E+02 -0.87951373720E+02  0.53842430627E+02  0.12326587708E+03  0.00000000000E+00 0.  1.
         11    1    4    4    0    0  0.23050283642E+02 -0.21163246632E+01  0.92061925363E+01  0.24910808640E+02  0.00000000000E+00 0. -1.
         -1    1    1    2    0  502  0.31190355478E+02  0.38872468384E+02 -0.22317572287E+02  0.54607518766E+02  0.00000000000E+00 0.  1.
<scales pt_clust_5="13000.00000" pt_clust_6="13000.00000" pt_clust_7="13000.00000" pt_clust_8="13000.00000" pt_clust_9="49.83881"></scales>
<clustering>
<clus scale="   49.839">  2  9  1 -1</clus>
<clus scale="   88.830">  7  8 -1 -1</clus>
<clus scale="   90.350">  5  6 -1 -1</clus>
<clus scale="  114.990">  2  7  1 -1</clus>
<clus scale="   49.839">  2  5  1 -1</clus>
</clustering>
</event>
<event>
 9    1  0.1399746E-005  0.1005907E+03  0.7546771E-02  0.1280510E+00
         21   -1    0    0  501  502  0.00000000000E+00  0.00000000000E+00  0.72585196976E+02  0.72585196976E+02  0.00000000000E+00 0.  1.
          2   -1    0    0  502    0 -0.00000000000E+00 -0.00000000000E+00 -0.58679726759E+03  0.58679726759E+03  0.00000000000E+00 0. -1.
         23    2    1    2    0    0  0.17124843708E+02  0.28074871445E+02 -0.43863824380E+03  0.44967817978E+03  0.93410372924E+02 0.  0.
         23    2    1    2    0    0 -0.85549910427E+01 -0.56407951948E+02 -0.11717964528E+03  0.15864304748E+03  0.90451657418E+02 0.  0.
        -11    1    3    3    0    0  0.22058481781E+01 -0.34275395010E+02 -0.13073879614E+03  0.13517507642E+03  0.00000000000E+00 0.  1.
         11    1    3    3    0    0  0.14918995530E+02  0.62350266456E+02 -0.30789944765E+03  0.31450310335E+03  0.00000000000E+00 0. -1.
        -13    1    4    4    0    0 -0.40539800293E+02 -0.44616137936E+02 -0.35079562369E+02  0.69747049171E+02  0.00000000000E+00 0.  1.
         13    1    4    4    0    0  0.31984809250E+02 -0.11791814012E+02 -0.82100082914E+02  0.88895998307E+02  0.00000000000E+00 0. -1.
          2    1    1    2  501    0 -0.85698526652E+01  0.28333080502E+02  0.41605818465E+02  0.51061237309E+02  0.00000000000E+00 0. -1.
<scales pt_clust_5="13000.00000" pt_clust_6="13000.00000" pt_clust_7="13000.00000" pt_clust_8="13000.00000" pt_clust_9="29.60077"></scales>
<clustering>
<clus scale="   29.601">  1  9  2 -1</clus>
<clus scale="   90.452">  7  8 -1 -1</clus>
<clus scale="   93.410">  5  6 -1 -1</clus>
<clus scale="   97.849">  1  7  2 -1</clus>
<clus scale="   29.601">  1  5  2 -1</clus>
</clustering>
</event>
<event>
 9    1  0.1399746E-005  0.1111929E+03  0.7546771E-02  0.1260500E+00
          1   -1    0    0  502    0 -0.00000000000E+00  0.00000000000E+00  0.12868692920E+03  0.12868692920E+03  0.00000000000E+00 0. -1.
         21   -1    0    0  501  502  0.00000000000E+00 -0.00000000000E+00 -0.20600701043E+03  0.20600701043E+03  0.00000000000E+00 0.  1.
         23    2    1    2    0    0 -0.35104298863E+02  0.54567096377E+02  0.47187025896E+02  0.11137945268E+03  0.77258574025E+02 0.  0.
         23    2    1    2    0    0  0.65839004582E+02 -0.74195988244E+02 -0.47383969731E+02  0.13800391403E+03  0.83426737350E+02 0.  0.
        -11    1    4    4    0    0 -0.20090878222E+02 -0.17639730026E+02 -0.10349689139E+02  0.28669138954E+02  0.00000000000E+00 0.  1.
         11    1    4    4    0    0  0.85929882804E+02 -0.56556258218E+02 -0.37034280592E+02  0.10933477508E+03  0.00000000000E+00 0. -1.
        -11    1    3    3    0    0  0.18127154973E+02  0.39409001021E+02  0.94627125905E+01  0.44398266165E+02  0.00000000000E+00 0. -1.
         11    1    3    3    0    0 -0.53231453837E+02  0.15158095356E+02  0.37724313305E+02  0.66981186513E+02  0.00000000000E+00 0.  1.
          1    1    1    2  501    0 -0.30734705719E+02  0.19628891867E+02 -0.77123137392E+02  0.85310572925E+02  0.00000000000E+00 0. -1.
<scales pt_clust_5="13000.00000" pt_clust_6="13000.00000" pt_clust_7="13000.00000" pt_clust_8="13000.00000" pt_clust_9="36.46801"></scales>
<clustering>
<clus scale="   36.468">  2  9  1 -1</clus>
<clus scale="   77.259">  7  8 -1 -1</clus>
<clus scale="   83.427">  5  6 -1 -1</clus>
<clus scale="  106.643">  1  7  2 -1</clus>
<clus scale="   36.468">  2  5  1 -1</clus>
</clustering>
</event>
<event>
 9    1  0.1399746E-005  0.1044048E+03  0.7546771E-02  0.1271444E+00
         21   -1    0    0  501  502  0.00000000000E+00  0.00000000000E+00  0.13540905160E+03  0.13540905160E+03  0.00000000000E+00 0.  1.
         -2   -1    0    0    0  501 -0.00000000000E+00 -0.00000000000E+00 -0.38661715471E+03  0.38661715471E+03  0.00000000000E+00 0.  1.
         23    2    1    2    0    0  0.21591258654E+02 -0.52491639875E+02 -0.31637362359E+03  0.33410844800E+03  0.91184596347E+02 0.  0.
         23    2    1    2    0    0  0.32349365119E+02  0.24620206257E+02  0.18040265264E+01  0.10016192306E+03  0.91523332215E+02 0.  0.
        -11    1    4    4    0    0  0.24876514960E+02 -0.33266624775E+02 -0.26596020436E+01  0.41624305442E+02  0.00000000000E+00 0.  1.
         11    1    4    4    0    0  0.74728501583E+01  0.57886831032E+02  0.44636285700E+01  0.58537617618E+02  0.00000000000E+00 0. -1.
        -13    1    3    3    0    0  0.38376987361E+02 -0.67777440690E+02 -0.18406544710E+03  0.19986661413E+03  0.00000000000E+00 0. -1.
         13    1    3    3    0    0 -0.16785728707E+02  0.15285800815E+02 -0.13230817649E+03  0.13424183387E+03  0.00000000000E+00 0.  1.
         -2    1    1    2    0  502 -0.53940623773E+02  0.27871433618E+02  0.63361493951E+02  0.87755835251E+02  0.00000000000E+00 0.  1.
<scales pt_clust_5="13000.00000" pt_clust_6="13000.00000" pt_clust_7="13000.00000" pt_clust_8="13000.00000" pt_clust_9="60.71579"></scales>
<clustering>
<clus scale="   60.716">  1  9  2 -1</clus>
<clus scale="   91.185">  7  8 -1 -1</clus>
<clus scale="   91.523">  5  6 -1 -1</clus>
<clus scale="  104.108">  2  7  1 -1</clus>
<clus scale="   60.716">  1  5  2 -1</clus>
</clustering>
</event>
<event>
 9    1  0.1399746E-005  0.2171093E+03  0.7546771E-02  0.1136060E+00
          1   -1    0    0  502    0 -0.00000000000E+00  0.00000000000E+00  0.17082874134E+03  0.17082874134E+03  0.00000000000E+00 0.  1.
         21   -1    0    0  501  502  0.00000000000E+00 -0.00000000000E+00 -0.35172168831E+03  0.35172168831E+03  0.00000000000E+00 0. -1.
         23    2    1    2    0    0 -0.17212899820E+03  0.81673881186E+02 -0.34791174242E+02  0.21409375914E+03  0.91250737029E+02 0.  0.
         23    2    1    2    0    0  0.17924502242E+03 -0.10054079648E+03 -0.78888504014E+02  0.23828387104E+03  0.91206235057E+02 0.  0.
        -11    1    3    3    0    0 -0.48767595620E+01  0.35835144602E+02  0.40068076018E+01  0.36386740437E+02  0.00000000000E+00 0. -1.
         11    1    3    3    0    0 -0.16725223864E+03  0.45838736584E+02 -0.38797981844E+02  0.17770701871E+03  0.00000000000E+00 0.  1.
        -11    1    4    4    0    0  0.76354580350E+02 -0.38431527714E+02 -0.81451267886E+02  0.11807333866E+03  0.00000000000E+00 0. -1.
         11    1    4    4    0    0  0.10289044207E+03 -0.62109268764E+02  0.25627638712E+01  0.12021053237E+03  0.00000000000E+00 0.  1.
          1    1    1    2  501    0 -0.71160242127E+01  0.18866915292E+02 -0.67213268717E+02  0.70172799466E+02  0.00000000000E+00 0.  1.
<scales pt_clust_5="13000.00000" pt_clust_6="13000.00000" pt_clust_7="13000.00000" pt_clust_8="13000.00000" pt_clust_9="20.16428"></scales>
<clustering>
<clus scale="   20.164">  2  9  1 -1</clus>
<clus scale="   91.206">  7  8 -1 -1</clus>
<clus scale="   91.251">  5  6 -1 -1</clus>
<clus scale="  217.091">  2  7  1 -1</clus>
<clus scale="   20.164">  2  5  1 -1</clus>
</clustering>
</event>
<event>
 9    1  0.1399746E-005  0.1731551E+03  0.7546771E-02  0.1174680E+00
          2   -1    0    0  502    0 -0.00000000000E+00  0.00000000000E+00  0.78532410682E+03  0.78532410682E+03  0.00000000000E+00 0. -1.
         21   -1    0    0  501  502  0.00000000000E+00 -0.00000000000E+00 -0.71087450580E+02  0.71087450580E+02  0.00000000000E+00 0. -1.
         23    2    1    2    0    0 -0.12897394840E+03 -0.50082934161E+02  0.45846839456E+03  0.48762700600E+03  0.91892592236E+02 0.  0.
         23    2    1    2    0    0  0.14587935467E+03  0.74967258882E+02  0.27509284022E+03  0.33302896843E+03  0.91276212984E+02 0.  0.
        -11    1    4    4    0    0  0.67093183757E+02  0.12569236235E+02  0.44495895717E+02  0.81482303243E+02  0.00000000000E+00 0. -1.
         11    1    4    4    0    0  0.78786170909E+02  0.62398022648E+02  0.23059694450E+03  0.25154666519E+03  0.00000000000E+00 0.  1.
        -11    1    3    3    0    0 -0.51554703403E+02 -0.48511616517E+02  0.11113043676E+03  0.13176205202E+03  0.00000000000E+00 0. -1.
         11    1    3    3    0    0 -0.77419244997E+02 -0.15713176433E+01  0.34733795780E+03  0.35586495397E+03  0.00000000000E+00 0.  1.
          2    1    1    2  501    0 -0.16905406266E+02 -0.24884324722E+02 -0.19324578534E+02  0.35755582968E+02  0.00000000000E+00 0. -1.
<scales pt_clust_5="13000.00000" pt_clust_6="13000.00000" pt_clust_7="13000.00000" pt_clust_8="13000.00000" pt_clust_9="30.08359"></scales>
<clustering>
<clus scale="   30.084">  2  9  1 -1</clus>
<clus scale="   91.276">  5  6 -1 -1</clus>
<clus scale="   91.893">  7  8 -1 -1</clus>
<clus scale="  172.829">  2  5  1 -1</clus>
<clus scale="   30.084">  2  5  1 -1</clus>
</clustering>
</event>
<event>
 9    1  0.1399746E-005  0.1155491E+03  0.7546771E-02  0.1252589E+00
         21   -1    0    0  501  502  0.00000000000E+00  0.00000000000E+00  0.55221057398E+03  0.55221057398E+03  0.00000000000E+00 0. -1.
          3   -1    0    0  502    0 -0.00000000000E+00 -0.00000000000E+00 -0.92948374568E+02  0.92948374568E+02  0.00000000000E+00 0. -1.
         23    2    1    2    0    0 -0.77368544984E+02 -0.11258327657E+02  0.24778073658E+02  0.12240389902E+03  0.90863193140E+02 0.  0.
         23    2    1    2    0    0  0.30121472013E+02  0.56680037780E+02  0.39293416330E+02  0.12216658929E+03  0.96232911281E+02 0.  0.
        -13    1    3    3    0    0 -0.65629103353E+02  0.33336288746E+02  0.18161307784E+02  0.75817679038E+02  0.00000000000E+00 0. -1.
         13    1    3    3    0    0 -0.11739441631E+02 -0.44594616403E+02  0.66167658738E+01  0.46586219986E+02  0.00000000000E+00 0.  1.
        -13    1    4    4    0    0  0.19262793011E+02  0.80395515547E+02  0.10531692325E+02  0.83339130412E+02  0.00000000000E+00 0. -1.
         13    1    4    4    0    0  0.10858679002E+02 -0.23715477767E+02  0.28761724004E+02  0.38827458880E+02  0.00000000000E+00 0.  1.
          3    1    1    2  501    0  0.47247072971E+02 -0.45421710123E+02  0.39519070942E+03  0.40058846023E+03  0.00000000000E+00 0. -1.
<scales pt_clust_5="13000.00000" pt_clust_6="13000.00000" pt_clust_7="13000.00000" pt_clust_8="13000.00000" pt_clust_9="65.53944"></scales>
<clustering>
<clus scale="   65.539">  1  9  2 -1</clus>
<clus scale="   90.863">  5  6 -1 -1</clus>
<clus scale="   96.233">  7  8 -1 -1</clus>
<clus scale="  111.117">  2  5  1 -1</clus>
<clus scale="   65.539">  1  5  2 -1</clus>
</clustering>
</event>
<event>
 9    1  0.1399746E-005  0.1120831E+03  0.7546771E-02  0.1258152E+00
         21   -1    0    0  501  502  0.00000000000E+00  0.00000000000E+00  0.99541189384E+02  0.99541189384E+02  0.00000000000E+00 0. -1.
          1   -1    0    0  502    0 -0.00000000000E+00 -0.00000000000E+00 -0.46322642373E+03  0.46322642373E+03  0.00000000000E+00 0. -1.
         23    2    1    2    0    0 -0.19722013644E+02  0.61129553132E+02 -0.34338591746E+03  0.36099849804E+03  0.90995863556E+02 0.  0.
         23    2    1    2    0    0  0.39157439446E+02 -0.35458161120E+02 -0.79487326201E+02  0.13438976667E+03  0.94613889596E+02 0.  0.
        -13    1    4    4    0    0  0.15874285829E+02  0.31145910278E+02 -0.12576100578E+02  0.37151298542E+02  0.00000000000E+00 0.  1.
         13    1    4    4    0    0  0.23283153618E+02 -0.66604071398E+02 -0.66911225624E+02  0.97238468126E+02  0.00000000000E+00 0. -1.
        -13    1    3    3    0    0 -0.40549064270E+02 -0.49484515790E+01 -0.10228487537E+03  0.11014040819E+03  0.00000000000E+00 0.  1.
         13    1    3    3    0    0  0.20827050626E+02  0.66078004711E+02 -0.24110104210E+03  0.25085808985E+03  0.00000000000E+00 0. -1.
          1    1    1    2  501    0 -0.19435425803E+02 -0.25671392013E+02  0.59188009322E+02  0.67379348405E+02  0.00000000000E+00 0. -1.
<scales pt_clust_5="13000.00000" pt_clust_6="13000.00000" pt_clust_7="13000.00000" pt_clust_8="13000.00000" pt_clust_9="32.19870"></scales>
<clustering>
<clus scale="   32.199">  1  9  2 -1</clus>
<clus scale="   90.996">  7  8 -1 -1</clus>
<clus scale="   94.614">  5  6 -1 -1</clus>
<clus scale="  109.046">  2  7  1 -1</clus>
<clus scale="   32.199">  1  5  2 -1</clus>
</clustering>
</event>
<event>
 9    1  0.1399746E-005  0.1683075E+03  0.7546771E-02  0.1179747E+00
          1   -1    0    0  502    0 -0.00000000000E+00  0.00000000000E+00  0.60989280270E+03  0.60989280270E+03  0.00000000000E+00 0. -1.
         21   -1    0    0  501  502  0.00000000000E+00 -0.00000000000E+00 -0.27484785237E+03  0.27484785237E+03  0.00000000000E+00 0. -1.
         23    2    1    2    0    0 -0.69793671102E+02  0.12884215706E+03  0.45315205182E+03  0.48498970271E+03  0.91633900400E+02 0.  0.
         23    2    1    2    0    0  0.14066748318E+03 -0.53012196705E+02  0.66651161969E+02  0.18783376089E+03  0.90782765517E+02 0.  0.
        -11    1    3    3    0    0  0.13401330495E+02  0.55567915841E+02  0.10417980080E+03  0.11883105581E+03  0.00000000000E+00 0.  1.
         11    1    3    3    0    0 -0.83195001596E+02  0.73274241217E+02  0.34897225102E+03  0.36615864690E+03  0.00000000000E+00 0. -1.
        -11    1    4    4    0    0  0.98815499813E+02 -0.31573700682E+01  0.72321394464E+02  0.12249431042E+03  0.00000000000E+00 0.  1.
         11    1    4    4    0    0  0.41851983362E+02 -0.49854826636E+02 -0.56702324945E+01  0.65339450463E+02  0.00000000000E+00 0. -1.
          1    1    1    2  501    0 -0.70873812074E+02 -0.75829960353E+02 -0.18475826346E+03  0.21191719147E+03  0.00000000000E+00 0. -1.
<scales pt_clust_5="13000.00000" pt_clust_6="13000.00000" pt_clust_7="13000.00000" pt_clust_8="13000.00000" pt_clust_9="103.79441"></scales>
<clustering>
<clus scale="   90.783">  7  8 -1 -1</clus>
<clus scale="   91.634">  5  6 -1 -1</clus>
<clus scale="  103.794">  2  9  1 -1</clus>
<clus scale="  167.846">  2  7  1 -1</clus>
<clus scale="  103.794">  2  5  1 -1</clus>
</clustering>
</event>
<event>
 9    1  0.1399746E-005  0.1048281E+03  0.7546771E-02  0.1271388E+00
         21   -1    0    0  501  502  0.00000000000E+00  0.00000000000E+00  0.15369544208E+03  0.15369544208E+03  0.00000000000E+00 0.  1.
          1   -1    0    0  502    0 -0.00000000000E+00 -0.00000000000E+00 -0.17726661975E+03  0.17726661975E+03  0.00000000000E+00 0. -1.
         23    2    1    2    0    0 -0.19520575220E+02 -0.27405089170E+02 -0.12036271967E+03  0.15770682663E+03  0.96188185923E+02 0.  0.
         23    2    1    2    0    0  0.23778784267E+02  0.52433154876E+02  0.94186512403E+02  0.14773421256E+03  0.98181628278E+02 0.  0.
        -11    1    4    4    0    0 -0.12156002671E+02  0.23208450605E+02 -0.14246904656E+02  0.29822388783E+02  0.00000000000E+00 0. -1.
         11    1    4    4    0    0  0.35934786938E+02  0.29224704271E+02  0.10843341706E+03  0.11791182378E+03  0.00000000000E+00 0.  1.
        -13    1    3    3    0    0 -0.14455140370E+02 -0.62739137004E+02 -0.62564091478E+02  0.89774249858E+02  0.00000000000E+00 0. -1.
         13    1    3    3    0    0 -0.50654348506E+01  0.35334047834E+02 -0.57798628190E+02  0.67932576774E+02  0.00000000000E+00 0.  1.
          1    1    1    2  501    0 -0.42582090471E+01 -0.25028065707E+02  0.26050295956E+01  0.25521022638E+02  0.00000000000E+00 0. -1.
<scales pt_clust_5="13000.00000" pt_clust_6="13000.00000" pt_clust_7="13000.00000" pt_clust_8="13000.00000" pt_clust_9="25.38772"></scales>
<clustering>
<clus scale="   25.388">  1  9  2 -1</clus>
<clus scale="   96.188">  7  8 -1 -1</clus>
<clus scale="   98.182">  5  6 -1 -1</clus>
<clus scale="  102.963">  2  7  1 -1</clus>
<clus scale="   25.388">  1  5  2 -1</clus>
</clustering>
</event>
<event>
 9    1  0.1399746E-005  0.1383437E+03  0.7546771E-02  0.1225064E+00
         -1   -1    0    0    0  501 -0.00000000000E+00  0.00000000000E+00  0.83170726277E+02  0.83170726277E+02  0.00000000000E+00 0.  1.
         21   -1    0    0  501  502  0.00000000000E+00 -0.00000000000E+00 -0.44388471876E+03  0.44388471876E+03  0.00000000000E+00 0. -1.
         23    2    1    2    0    0 -0.58224871207E+02  0.73365284179E+01 -0.36670667433E+01  0.13611861300E+03  0.12276346830E+03 0.  0.
         23    2    1    2    0    0  0.79986074318E+02 -0.17042886150E+02 -0.22813232292E+03  0.25983863159E+03  0.93720465492E+02 0.  0.
        -11    1    4    4    0    0  0.35923841293E+02 -0.32617767293E+02 -0.31785153192E+02  0.58006353788E+02  0.00000000000E+00 0.  1.
         11    1    4    4    0    0  0.44062233025E+02  0.15574881144E+02 -0.19634716973E+03  0.20183227780E+03  0.00000000000E+00 0. -1.
        -11    1    3    3    0    0 -0.69738919361E+02 -0.43193626741E+02 -0.14151246139E+02  0.83243402333E+02  0.00000000000E+00 0.  1.
         11    1    3    3    0    0  0.11514048154E+02  0.50530155159E+02  0.10484179396E+02  0.52875210665E+02  0.00000000000E+00 0. -1.
         -1    1    1    2    0  502 -0.21761203111E+02  0.97063577317E+01 -0.12891460282E+03  0.13109820045E+03  0.00000000000E+00 0.  1.
<scales pt_clust_5="13000.00000" pt_clust_6="13000.00000" pt_clust_7="13000.00000" pt_clust_8="13000.00000" pt_clust_9="23.82779"></scales>
<clustering>
<clus scale="   23.828">  2  9  1 -1</clus>
<clus scale="   93.720">  5  6 -1 -1</clus>
<clus scale="  113.365">  2  5  1 -1</clus>
<clus scale="  122.763">  7  8 -1 -1</clus>
<clus scale="   23.828">  2  5  1 -1</clus>
</clustering>
</event>
<event>
 9    1  0.1399746E-005  0.1137976E+03  0.7546771E-02  0.1257228E+00
         -1   -1    0    0    0  501 -0.00000000000E+00  0.00000000000E+00  0.46235708691E+02  0.46235708691E+02  0.00000000000E+00 0.  1.
         21   -1    0    0  501  502  0.00000000000E+00 -0.00000000000E+00 -0.86419171354E+03  0.86419171354E+03  0.00000000000E+00 0.  1.
         23    2    1    2    0    0 -0.92397888130E+02  0.18363495176E+02 -0.13617796910E+03  0.19342967832E+03  0.99980065524E+02 0.  0.
         23    2    1    2    0    0 -0.26847023233E+01 -0.35799035146E+02 -0.17024014516E+03  0.19640605115E+03  0.91130957192E+02 0.  0.
        -11    1    4    4    0    0 -0.24661784381E+02  0.66433766051E+01 -0.13403396847E+03  0.13644575027E+03  0.00000000000E+00 0.  1.
         11    1    4    4    0    0  0.21977082057E+02 -0.42442411751E+02 -0.36206176685E+02  0.59960300876E+02  0.00000000000E+00 0. -1.
        -11    1    3    3    0    0 -0.61869050483E+02 -0.38096166623E+02 -0.80727656655E+02  0.10860963064E+03  0.00000000000E+00 0. -1.
         11    1    3    3    0    0 -0.30528837647E+02  0.56459661799E+02 -0.55450312441E+02  0.84820047679E+02  0.00000000000E+00 0.  1.
         -1    1    1    2    0  502  0.95082590454E+02  0.17435539970E+02 -0.51153789060E+03  0.52059169277E+03  0.00000000000E+00 0.  1.
<scales pt_clust_5="13000.00000" pt_clust_6="13000.00000" pt_clust_7="13000.00000" pt_clust_8="13000.00000" pt_clust_9="96.66797"></scales>
<clustering>
<clus scale="   91.131">  5  6 -1 -1</clus>
<clus scale="   96.668">  2  9  1 -1</clus>
<clus scale="   99.980">  7  8 -1 -1</clus>
<clus scale="  106.107">  2  5  1 -1</clus>
<clus scale="   96.668">  2  5  1 -1</clus>
</clustering>
</event>
<event>
 9    1  0.1399746E-005  0.1200964E+03  0.7546771E-02  0.1243550E+00
         21   -1    0    0  501  502  0.00000000000E+00  0.00000000000E+00  0.33185567175E+03  0.33185567175E+03  0.00000000000E+00 0.  1.
         -1   -1    0    0    0  501 -0.00000000000E+00 -0.00000000000E+00 -0.12774278388E+03  0.12774278388E+03  0.00000000000E+00 0.  1.
         23    2    1    2    0    0 -0.59579811892E+02 -0.83489689011E+02 -0.27889484204E+02  0.13834027619E+03  0.88543359617E+02 0.  0.
         23    2    1    2    0    0 -0.25327972155E+02  0.58746984781E+02  0.55764362084E+02  0.12407458637E+03  0.90510355821E+02 0.  0.
        -11    1    4    4    0    0 -0.28805486315E+02  0.82042468656E+02  0.39853660754E+02  0.95650598432E+02  0.00000000000E+00 0.  1.
         11    1    4    4    0    0  0.34775141600E+01 -0.23295483875E+02  0.15910701330E+02  0.28423987942E+02  0.00000000000E+00 0. -1.
        -13    1    3    3    0    0 -0.23423664360E+02  0.15608606311E+02  0.32933746490E+01  0.28339776985E+02  0.00000000000E+00 0.  1.
         13    1    3    3    0    0 -0.36156147532E+02 -0.99098295322E+02 -0.31182858853E+02  0.11000049921E+03  0.00000000000E+00 0. -1.
         -1    1    1    2    0  502  0.84907784047E+02  0.24742704230E+02  0.17623801000E+03  0.19718359306E+03  0.00000000000E+00 0.  1.
<scales pt_clust_5="13000.00000" pt_clust_6="13000.00000" pt_clust_7="13000.00000" pt_clust_8="13000.00000" pt_clust_9="88.43943"></scales>
<clustering>
<clus scale="   88.439">  1  9  2 -1</clus>
<clus scale="   88.543">  7  8 -1 -1</clus>
<clus scale="   90.510">  5  6 -1 -1</clus>
<clus scale="  118.621">  2  7  1 -1</clus>
<clus scale="   88.439">  1  5  2 -1</clus>
</clustering>
</event>
<event>
 9    1  0.1399746E-005  0.1561181E+03  0.7546771E-02  0.1193360E+00
         21   -1    0    0  501  502  0.00000000000E+00  0.00000000000E+00  0.13198829710E+03  0.13198829710E+03  0.00000000000E+00 0. -1.
          1   -1    0    0  502    0 -0.00000000000E+00 -0.00000000000E+00 -0.38152958059E+03  0.38152958059E+03  0.00000000000E+00 0. -1.
         23    2    1    2    0    0 -0.87431143443E+02 -0.12435287617E+03 -0.24271866223E+03  0.30061924979E+03  0.91387864048E+02 0.  0.
         23    2    1    2    0    0  0.61649817755E+02  0.60074139178E+02 -0.44529956460E+02  0.13404258240E+03  0.92600727031E+02 0.  0.
        -11    1    4    4    0    0  0.70207528625E+02  0.34239386304E+02  0.42036788706E+01  0.78224699208E+02  0.00000000000E+00 0. -1.
         11    1    4    4    0    0 -0.85577108700E+01  0.25834752874E+02 -0.48733635330E+02  0.55817883191E+02  0.00000000000E+00 0.  1.
        -11    1    3    3    0    0 -0.56184059354E+02 -0.40377845130E+02 -0.17538495195E+03  0.18853885614E+03  0.00000000000E+00 0. -1.
         11    1    3    3    0    0 -0.31247084089E+02 -0.83975031035E+02 -0.67333710282E+02  0.11208039365E+03  0.00000000000E+00 0.  1.
          1    1    1    2  501    0  0.25781325688E+02  0.64278736987E+02  0.37707335207E+02  0.78856045496E+02  0.00000000000E+00 0. -1.
<scales pt_clust_5="13000.00000" pt_clust_6="13000.00000" pt_clust_7="13000.00000" pt_clust_8="13000.00000" pt_clust_9="69.25628"></scales>
<clustering>
<clus scale="   69.256">  1  9  2 -1</clus>
<clus scale="   91.388">  7  8 -1 -1</clus>
<clus scale="   92.601">  5  6 -1 -1</clus>
<clus scale="  155.402">  2  7  1 -1</clus>
<clus scale="   69.256">  1  5  2 -1</clus>
</clustering>
</event>
<event>
 9    1  0.1399746E-005  0.1109883E+03  0.7546771E-02  0.1259044E+00
          3   -1    0    0  502    0 -0.00000000000E+00  0.00000000000E+00  0.48370983727E+02  0.48370983727E+02  0.00000000000E+00 0. -1.
         21   -1    0    0  501  502  0.00000000000E+00 -0.00000000000E+00 -0.76108538322E+03  0.76108538322E+03  0.00000000000E+00 0. -1.
         23    2    1    2    0    0 -0.95580681700E+01 -0.65777838716E+02 -0.42947477971E+02  0.12182914124E+03  0.92627064391E+02 0.  0.
         23    2    1    2    0    0  0.30481578362E+02  0.27412993326E+02 -0.33970379516E+03  0.35468380405E+03  0.93388080543E+02 0.  0.
        -13    1    3    3    0    0  0.10795402594E+02 -0.23223745229E+02 -0.64921997391E+02  0.69790750138E+02  0.00000000000E+00 0.  1.
         13    1    3    3    0    0 -0.20353470764E+02 -0.42554093488E+02  0.21974519419E+02  0.52038391101E+02  0.00000000000E+00 0. -1.
        -13    1    4    4    0    0 -0.29727222928E+02  0.26722618885E+02 -0.16929257624E+03  0.17394764303E+03  0.00000000000E+00 0.  1.
         13    1    4    4    0    0  0.60208801289E+02  0.69037444065E+00 -0.17041121892E+03  0.18073616103E+03  0.00000000000E+00 0. -1.
          3    1    1    2  501    0 -0.20923510192E+02  0.38364845391E+02 -0.33006312635E+03  0.33294342165E+03  0.00000000000E+00 0. -1.
<scales pt_clust_5="13000.00000" pt_clust_6="13000.00000" pt_clust_7="13000.00000" pt_clust_8="13000.00000" pt_clust_9="43.69960"></scales>
<clustering>
<clus scale="   43.700">  2  9  1 -1</clus>
<clus scale="   92.627">  5  6 -1 -1</clus>
<clus scale="   93.388">  7  8 -1 -1</clus>
<clus scale="  110.349">  1  5  2 -1</clus>
<clus scale="   43.700">  2  5  1 -1</clus>
</clustering>
</event>
<event>
 9    1  0.1399746E-005  0.1088835E+03  0.7546771E-02  0.1263461E+00
          4   -1    0    0  502    0 -0.00000000000E+00  0.00000000000E+00  0.33711677784E+03  0.33711677784E+03  0.00000000000E+00 0. -1.
         21   -1    0    0  501  502  0.00000000000E+00 -0.00000000000E+00 -0.57647349987E+02  0.57647349987E+02  0.00000000000E+00 0.  1.
         23    2    1    2    0    0 -0.35948161823E+02 -0.42887511124E+02  0.23215734959E+03  0.25592355403E+03  0.92022940547E+02 0.  0.
         23    2    1    2    0    0  0.48124687727E+02  0.26081414573E+02  0.45798979650E+02  0.11803187053E+03  0.94009308947E+02 0.  0.
        -11    1    4    4    0    0 -0.18214263642E+02 -0.16438482135E+02 -0.39412096177E+01  0.24849873806E+02  0.00000000000E+00 0. -1.
         11    1    4    4    0    0  0.66338951369E+02  0.42519896708E+02  0.49740189268E+02  0.93181996722E+02  0.00000000000E+00 0.  1.
        -13    1    3    3    0    0 -0.44617891128E+02 -0.88808185125E+01  0.39968029721E+02  0.60556325400E+02  0.00000000000E+00 0.  1.
         13    1    3    3    0    0  0.86697293048E+01 -0.34006692611E+02  0.19218931987E+03  0.19536722863E+03  0.00000000000E+00 0. -1.
          4    1    1    2  501    0 -0.12176525903E+02  0.16806096551E+02  0.15130986088E+01  0.20808703269E+02  0.00000000000E+00 0. -1.
<scales pt_clust_5="13000.00000" pt_clust_6="13000.00000" pt_clust_7="13000.00000" pt_clust_8="13000.00000" pt_clust_9="20.75362"></scales>
<clustering>
<clus scale="   20.754">  2  9  1 -1</clus>
<clus scale="   92.023">  7  8 -1 -1</clus>
<clus scale="   94.009">  5  6 -1 -1</clus>
<clus scale="  107.173">  1  7  2 -1</clus>
<clus scale="   20.754">  2  5  1 -1</clus>
</clustering>
</event>
<event>
 9    1  0.1399746E-005  0.2402264E+03  0.7546771E-02  0.1142174E+00
         -4   -1    0    0    0  501 -0.00000000000E+00  0.00000000000E+00  0.89403567249E+03  0.89403567249E+03  0.00000000000E+00 0.  1.
         21   -1    0    0  501  502  0.00000000000E+00 -0.00000000000E+00 -0.17916365830E+03  0.17916365830E+03  0.00000000000E+00 0.  1.
         23    2    1    2    0    0 -0.12507589642E+02  0.10463936982E+03  0.52316596204E+03  0.54112431658E+03  0.89482202948E+02 0.  0.
         23    2    1    2    0    0 -0.11807265920E+03 -0.25195879051E+03  0.15465714608E+03  0.33175817881E+03  0.93382393452E+02 0.  0.
        -11    1    4    4    0    0 -0.13415034458E+03 -0.22503059152E+03  0.13468603359E+03  0.29457666187E+03  0.00000000000E+00 0.  1.
         11    1    4    4    0    0  0.16077685384E+02 -0.26928198988E+02  0.19971112484E+02  0.37181516939E+02  0.00000000000E+00 0. -1.
        -13    1    3    3    0    0  0.11684709556E+02  0.88458086802E+02  0.48493464644E+03  0.49307502155E+03  0.00000000000E+00 0.  1.
         13    1    3    3    0    0 -0.24192299199E+02  0.16181283015E+02  0.38231315597E+02  0.48049295029E+02  0.00000000000E+00 0. -1.
         -4    1    1    2    0  502  0.13058024884E+03  0.14731942070E+03  0.37048906069E+02  0.20031683539E+03  0.00000000000E+00 0.  1.
<scales pt_clust_5="13000.00000" pt_clust_6="13000.00000" pt_clust_7="13000.00000" pt_clust_8="13000.00000" pt_clust_9="221.33338"></scales>
<clustering>
<clus scale="   89.482">  7  8 -1 -1</clus>
<clus scale="   93.382">  5  6 -1 -1</clus>
<clus scale="  138.249">  1  7  2 -1</clus>
<clus scale="  221.333">  2  9  1 -1</clus>
<clus scale="  221.333">  2  5  1 -1</clus>
</clustering>
</event>
<event>
 9    1  0.1399746E-005  0.9393760E+02  0.7546771E-02  0.1304163E+00
          1   -1    0    0  502    0 -0.00000000000E+00  0.00000000000E+00  0.13822494662E+03  0.13822494662E+03  0.00000000000E+00 0. -1.
         21   -1    0    0  501  502  0.00000000000E+00 -0.00000000000E+00 -0.27725056207E+03  0.27725056207E+03  0.00000000000E+00 0. -1.
         23    2    1    2    0    0 -0.10289887498E+01  0.11575886586E+02  0.10679025683E+03  0.14202389433E+03  0.92906230356E+02 0.  0.
         23    2    1    2    0    0  0.12666709142E+01 -0.41579874616E+02 -0.20689578474E+03  0.22430826279E+03  0.76012108121E+02 0.  0.
        -13    1    3    3    0    0 -0.39910003815E+02  0.29546300514E+02  0.46218639959E+02  0.67837710444E+02  0.00000000000E+00 0. -1.
         13    1    3    3    0    0  0.38881015065E+02 -0.17970413928E+02  0.60571616873E+02  0.74186183888E+02  0.00000000000E+00 0.  1.
        -13    1    4    4    0    0  0.13422827068E+01 -0.62242773828E+02 -0.12240989234E+03  0.13733224807E+03  0.00000000000E+00 0. -1.
         13    1    4    4    0    0 -0.75611792614E-01  0.20662899212E+02 -0.84485892406E+02  0.86976014720E+02  0.00000000000E+00 0.  1.
          1    1    1    2  501    0 -0.23768216440E+00  0.30003988030E+02 -0.38920087531E+02  0.49143351574E+02  0.00000000000E+00 0. -1.
<scales pt_clust_5="13000.00000" pt_clust_6="13000.00000" pt_clust_7="13000.00000" pt_clust_8="13000.00000" pt_clust_9="30.00493"></scales>
<clustering>
<clus scale="   30.005">  2  9  1 -1</clus>
<clus scale="   76.012">  7  8 -1 -1</clus>
<clus scale="   77.269">  2  7  1 -1</clus>
<clus scale="   92.906">  5  6 -1 -1</clus>
<clus scale="   30.005">  2  5  1 -1</clus>
</clustering>
</event>
<event>
 9    1  0.1399746E-005  0.9279180E+02  0.7546771E-02  0.1297148E+00
          1   -1    0    0  502    0 -0.00000000000E+00  0.00000000000E+00  0.26417211811E+03  0.26417211811E+03  0.00000000000E+00 0. -1.
         21   -1    0    0  501  502  0.00000000000E+00 -0.00000000000E+00 -0.94421342773E+02  0.94421342773E+02  0.00000000000E+00 0. -1.
         23    2    1    2    0    0  0.72834251272E+01 -0.41755760561E+01  0.15202830174E+03  0.17798919813E+03  0.92179533548E+02 0.  0.
         23    2    1    2    0    0  0.19338182594E+02 -0.52593440612E+02  0.40393912360E+02  0.11393023942E+03  0.90600198661E+02 0.  0.
        -11    1    3    3    0    0  0.45079748431E+02  0.68749545024E+01  0.11590028828E+03  0.12454848671E+03  0.00000000000E+00 0.  1.
         11    1    3    3    0    0 -0.37796323304E+02 -0.11050530559E+02  0.36128013457E+02  0.53440711422E+02  0.00000000000E+00 0. -1.
        -13    1    4    4    0    0  0.17956373464E+02  0.16516935176E+02 -0.12004251182E+02  0.27190854015E+02  0.00000000000E+00 0.  1.
         13    1    4    4    0    0  0.13818091296E+01 -0.69110375788E+02  0.52398163543E+02  0.86739385407E+02  0.00000000000E+00 0. -1.
          1    1    1    2  501    0 -0.26621607721E+02  0.56769016668E+02 -0.22671438764E+02  0.66674023328E+02  0.00000000000E+00 0. -1.
<scales pt_clust_5="13000.00000" pt_clust_6="13000.00000" pt_clust_7="13000.00000" pt_clust_8="13000.00000" pt_clust_9="62.70113"></scales>
<clustering>
<clus scale="   62.701">  2  9  1 -1</clus>
<clus scale="   90.600">  7  8 -1 -1</clus>
<clus scale="   91.223">  2  7  1 -1</clus>
<clus scale="   92.180">  5  6 -1 -1</clus>
<clus scale="   62.701">  2  5  1 -1</clus>
</clustering>
</event>
<event>
 9    1  0.1399746E-005  0.1422793E+03  0.7546771E-02  0.1211018E+00
         21   -1    0    0  501  502  0.00000000000E+00  0.00000000000E+00  0.92007864220E+02  0.92007864220E+02  0.00000000000E+00 0. -1.
          2   -1    0    0  502    0 -0.00000000000E+00 -0.00000000000E+00 -0.66204614632E+03  0.66204614632E+03  0.00000000000E+00 0. -1.
         23    2    1    2    0    0  0.31720069521E+02 -0.10172016993E+03 -0.46120081817E+03  0.48202768154E+03  0.91056769700E+02 0.  0.
         23    2    1    2    0    0 -0.17803230276E+02  0.13081634102E+03  0.63809856560E-01  0.15844924936E+03  0.87614442115E+02 0.  0.
        -13    1    4    4    0    0 -0.37682533195E+02  0.34825125041E+02 -0.25277144505E+02  0.57198747158E+02  0.00000000000E+00 0.  1.
         13    1    4    4    0    0  0.19879302919E+02  0.95991215976E+02  0.25340954362E+02  0.10125050221E+03  0.00000000000E+00 0. -1.
        -13    1    3    3    0    0  0.15007163633E+02 -0.82805595732E+02 -0.44296716256E+03  0.45089010717E+03  0.00000000000E+00 0.  1.
         13    1    3    3    0    0  0.16712905888E+02 -0.18914574197E+02 -0.18233655615E+02  0.31137574365E+02  0.00000000000E+00 0. -1.
          2    1    1    2  501    0 -0.13916839244E+02 -0.29096171089E+02 -0.10890127378E+03  0.11357707963E+03  0.00000000000E+00 0. -1.
<scales pt_clust_5="13000.00000" pt_clust_6="13000.00000" pt_clust_7="13000.00000" pt_clust_8="13000.00000" pt_clust_9="32.25316"></scales>
<clustering>
<clus scale="   32.253">  1  9  2 -1</clus>
<clus scale="   87.614">  5  6 -1 -1</clus>
<clus scale="   91.057">  7  8 -1 -1</clus>
<clus scale="  140.101">  1  5  2 -1</clus>
<clus scale="   32.253">  1  5  2 -1</clus>
</clustering>
</event>
<event>
 9    1  0.1399746E-005  0.9498402E+02  0.7546771E-02  0.1291366E+00
          1   -1    0    0  502    0 -0.00000000000E+00  0.00000000000E+00  0.10723269862E+03  0.10723269862E+03  0.00000000000E+00 0. -1.
         21   -1    0    0  501  502  0.00000000000E+00 -0.00000000000E+00 -0.16905704752E+03  0.16905704752E+03  0.00000000000E+00 0.  1.
         23    2    1    2    0    0  0.15096122905E+01  0.26138260641E+02  0.45905697046E+02  0.10539869355E+03  0.91192455732E+02 0.  0.
         23    2    1    2    0    0  0.19327264844E+02 -0.22829214116E+02 -0.48005581625E+02  0.10754962164E+03  0.91474964134E+02 0.  0.
        -11    1    3    3    0    0 -0.34679546068E+01 -0.34078137577E+02  0.13343459130E+02  0.36761312156E+02  0.00000000000E+00 0. -1.
         11    1    3    3    0    0  0.49775668973E+01  0.60216398219E+02  0.32562237916E+02  0.68637381395E+02  0.00000000000E+00 0.  1.
        -13    1    4    4    0    0  0.36524395288E+02  0.25722436369E+02 -0.24208611266E+02  0.50810747321E+02  0.00000000000E+00 0.  1.
         13    1    4    4    0    0 -0.17197130444E+02 -0.48551650485E+02 -0.23796970360E+02  0.56738874315E+02  0.00000000000E+00 0. -1.
          1    1    1    2  501    0 -0.20836877135E+02 -0.33090465253E+01 -0.59724464321E+02  0.63341430960E+02  0.00000000000E+00 0. -1.
<scales pt_clust_5="13000.00000" pt_clust_6="13000.00000" pt_clust_7="13000.00000" pt_clust_8="13000.00000" pt_clust_9="21.09799"></scales>
<clustering>
<clus scale="   21.098">  2  9  1 -1</clus>
<clus scale="   91.192">  5  6 -1 -1</clus>
<clus scale="   91.475">  7  8 -1 -1</clus>
<clus scale="   94.712">  1  5  2 -1</clus>
<clus scale="   21.098">  2  5  1 -1</clus>
</clustering>
</event>
<event>
 9    1  0.1399746E-005  0.1026873E+03  0.7546771E-02  0.1276340E+00
         -3   -1    0    0    0  501 -0.00000000000E+00  0.00000000000E+00  0.40153558319E+02  0.40153558319E+02  0.00000000000E+00 0.  1.
         21   -1    0    0  501  502  0.00000000000E+00 -0.00000000000E+00 -0.65831835658E+03  0.65831835658E+03  0.00000000000E+00 0. -1.
         23    2    1    2    0    0 -0.89643884707E+01  0.43750953780E+02 -0.56152926973E+02  0.11364032124E+03  0.88127550667E+02 0.  0.
         23    2    1    2    0    0 -0.28130541008E+02 -0.55967805597E+02 -0.29890335429E+03  0.31884028369E+03  0.91608889839E+02 0.  0.
        -11    1    3    3    0    0  0.22841340112E+02 -0.15010567805E+02 -0.15950446653E+01  0.27378607186E+02  0.00000000000E+00 0. -1.
         11    1    3    3    0    0 -0.31805728583E+02  0.58761521586E+02 -0.54557882308E+02  0.86261714055E+02  0.00000000000E+00 0.  1.
        -11    1    4    4    0    0 -0.43136231884E+02 -0.69579429609E+02 -0.27769305585E+03  0.28950900641E+03  0.00000000000E+00 0. -1.
         11    1    4    4    0    0  0.15005690876E+02  0.13611624012E+02 -0.21210298438E+02  0.29331277278E+02  0.00000000000E+00 0.  1.
         -3    1    1    2    0  502  0.37094929478E+02  0.12216851816E+02 -0.26310851700E+03  0.26599130997E+03  0.00000000000E+00 0.  1.
<scales pt_clust_5="13000.00000" pt_clust_6="13000.00000" pt_clust_7="13000.00000" pt_clust_8="13000.00000" pt_clust_9="39.05490"></scales>
<clustering>
<clus scale="   39.055">  2  9  1 -1</clus>
<clus scale="   88.128">  5  6 -1 -1</clus>
<clus scale="   91.609">  7  8 -1 -1</clus>
<clus scale="   99.594">  1  5  2 -1</clus>
<clus scale="   39.055">  2  5  1 -1</clus>
</clustering>
</event>
<event>
 9    1  0.1399746E-005  0.2852892E+03  0.7546771E-02  0.1136666E+00
         21   -1    0    0  501  502  0.00000000000E+00  0.00000000000E+00  0.23203576905E+03  0.23203576905E+03  0.00000000000E+00 0.  1.
         -3   -1    0    0    0  501 -0.00000000000E+00 -0.00000000000E+00 -0.56996294294E+03  0.56996294294E+03  0.00000000000E+00 0.  1.
         23    2    1    2    0    0 -0.14930994223E+02 -0.22209121045E+02 -0.15396950896E+03  0.18054304623E+03  0.90404658113E+02 0.  0.
         23    2    1    2    0    0 -0.25658692134E+03 -0.28296189832E+02 -0.20863641378E+03  0.34417998066E+03  0.91066916990E+02 0.  0.
        -11    1    3    3    0    0  0.61962409015E+01 -0.54097455313E+02 -0.73782161342E+02  0.91699157057E+02  0.00000000000E+00 0. -1.
         11    1    3    3    0    0 -0.21127235124E+02  0.31888334268E+02 -0.80187347615E+02  0.88843889176E+02  0.00000000000E+00 0.  1.
        -13    1    4    4    0    0 -0.23165660446E+03 -0.54054650093E+02 -0.18219722806E+03  0.29963730992E+03  0.00000000000E+00 0.  1.
         13    1    4    4    0    0 -0.24930316889E+02  0.25758460261E+02 -0.26439185718E+02  0.44542670740E+02  0.00000000000E+00 0. -1.
         -3    1    1    2    0  502  0.27151791557E+03  0.50505310877E+02  0.24678748847E+02  0.27727568510E+03  0.00000000000E+00 0.  1.
<scales pt_clust_5="13000.00000" pt_clust_6="13000.00000" pt_clust_7="13000.00000" pt_clust_8="13000.00000" pt_clust_9="270.36411"></scales>
<clustering>
<clus scale="   90.405">  5  6 -1 -1</clus>
<clus scale="   91.067">  7  8 -1 -1</clus>
<clus scale="   94.282">  2  5  1 -1</clus>
<clus scale="  270.364">  1  9  2 -1</clus>
<clus scale="  270.364">  1  5  2 -1</clus>
</clustering>
</event>
<event>
 9    1  0.1399746E-005  0.1085071E+03  0.7546771E-02  0.1263658E+00
          3   -1    0    0  502    0 -0.00000000000E+00  0.00000000000E+00  0.60120656587E+03  0.60120656587E+03  0.00000000000E+00 0. -1.
         21   -1    0    0  501  502  0.00000000000E+00 -0.00000000000E+00 -0.41116344674E+02  0.41116344674E+02  0.00000000000E+00 0. -1.
         23    2    1    2    0    0  0.28940742362E+01 -0.63639767887E+02  0.38923080302E+03  0.40460384825E+03  0.90251095678E+02 0.  0.
         23    2    1    2    0    0  0.15203191126E+02  0.50527334445E+02  0.18388776483E+03  0.21185045699E+03  0.91004162129E+02 0.  0.
        -11    1    3    3    0    0 -0.22544386325E+02 -0.55971337919E+01  0.22162829753E+02  0.32105580264E+02  0.00000000000E+00 0.  1.
         11    1    3    3    0    0  0.25438460562E+02 -0.58042634095E+02  0.36706797327E+03  0.37249826798E+03  0.00000000000E+00 0. -1.
        -11    1    4    4    0    0  0.13389913555E+02 -0.21825093941E+02  0.19337348574E+02  0.32086719378E+02  0.00000000000E+00 0.  1.
         11    1    4    4    0    0  0.18132775710E+01  0.72352428387E+02  0.16455041626E+03  0.17976373761E+03  0.00000000000E+00 0. -1.
          3    1    1    2  501    0 -0.18097265362E+02  0.13112433442E+02 -0.13028346654E+02  0.25868605314E+02  0.00000000000E+00 0. -1.
<scales pt_clust_5="13000.00000" pt_clust_6="13000.00000" pt_clust_7="13000.00000" pt_clust_8="13000.00000" pt_clust_9="22.34831"></scales>
<clustering>
<clus scale="   22.348">  2  9  1 -1</clus>
<clus scale="   90.251">  5  6 -1 -1</clus>
<clus scale="   91.004">  7  8 -1 -1</clus>
<clus scale="  107.876">  1  5  2 -1</clus>
<clus scale="   22.348">  2  5  1 -1</clus>
</clustering>
</event>
<event>
 9    1  0.1399746E-005  0.1582890E+03  0.7546771E-02  0.1210982E+00
         21   -1    0    0  501  502  0.00000000000E+00  0.00000000000E+00  0.28935972817E+02  0.28935972817E+02  0.00000000000E+00 0. -1.
          1   -1    0    0  502    0 -0.00000000000E+00 -0.00000000000E+00 -0.13690449395E+04  0.13690449395E+04  0.00000000000E+00 0. -1.
         23    2    1    2    0    0 -0.19038615949E+02 -0.44442996511E+02 -0.25199831778E+03  0.27179249088E+03  0.89612259763E+02 0.  0.
         23    2    1    2    0    0 -0.81713175909E+02  0.10958902455E+03 -0.69967961882E+03  0.71964987018E+03  0.98272932336E+02 0.  0.
        -11    1    3    3    0    0 -0.38463838119E+02  0.12541146254E+02 -0.81753906351E+02  0.91216491907E+02  0.00000000000E+00 0.  1.
         11    1    3    3    0    0  0.19425222170E+02 -0.56984142765E+02 -0.17024441143E+03  0.18057599898E+03  0.00000000000E+00 0. -1.
        -13    1    4    4    0    0 -0.93154057706E+02  0.74135911730E+02 -0.62449475879E+03  0.63574170512E+03  0.00000000000E+00 0. -1.
         13    1    4    4    0    0  0.11440881797E+02  0.35453112816E+02 -0.75184860038E+02  0.83908165059E+02  0.00000000000E+00 0.  1.
          1    1    1    2  501    0  0.10075179186E+03 -0.65146028035E+02 -0.38843103008E+03  0.40653855126E+03  0.00000000000E+00 0. -1.
<scales pt_clust_5="13000.00000" pt_clust_6="13000.00000" pt_clust_7="13000.00000" pt_clust_8="13000.00000" pt_clust_9="124.08800"></scales>
<clustering>
<clus scale="   89.612">  5  6 -1 -1</clus>
<clus scale="   98.273">  7  8 -1 -1</clus>
<clus scale="  101.823">  2  5  1 -1</clus>
<clus scale="  124.088">  1  9  2 -1</clus>
<clus scale="  124.088">  1  5  2 -1</clus>
</clustering>
</event>
<event>
 9    1  0.1399746E-005  0.2389360E+03  0.7546771E-02  0.1140227E+00
          2   -1    0    0  502    0 -0.00000000000E+00  0.00000000000E+00  0.13386227895E+04  0.13386227895E+04  0.00000000000E+00 0. -1.
         21   -1    0    0  501  502  0.00000000000E+00 -0.00000000000E+00 -0.13182745950E+03  0.13182745950E+03  0.00000000000E+00 0. -1.
         23    2    1    2    0    0  0.10964265882E+03 -0.34736288804E+02  0.14940702556E+03  0.20977050342E+03  0.91940646211E+02 0.  0.
         23    2    1    2    0    0 -0.27243111851E+03 -0.10297823212E+03  0.99176055933E+03  0.10375825183E+04  0.90361743367E+02 0.  0.
        -11    1    4    4    0    0 -0.24558447217E+03 -0.81749419880E+02  0.94388915661E+03  0.97873461192E+03  0.00000000000E+00 0. -1.
         11    1    4    4    0    0 -0.26846646340E+02 -0.21228812236E+02  0.47871402725E+02  0.58847906399E+02  0.00000000000E+00 0.  1.
        -11    1    3    3    0    0  0.42580688035E+02 -0.41811255630E+02  0.12417467112E+03  0.13777026181E+03  0.00000000000E+00 0. -1.
         11    1    3    3    0    0  0.67061970788E+02  0.70749668260E+01  0.25232354435E+02  0.72000241610E+02  0.00000000000E+00 0.  1.
          2    1    1    2  501    0  0.16278845968E+03  0.13771452092E+03  0.65627745089E+02  0.22309722724E+03  0.00000000000E+00 0. -1.
<scales pt_clust_5="13000.00000" pt_clust_6="13000.00000" pt_clust_7="13000.00000" pt_clust_8="13000.00000" pt_clust_9="221.19032"></scales>
<clustering>
<clus scale="   90.362">  5  6 -1 -1</clus>
<clus scale="   91.941">  7  8 -1 -1</clus>
<clus scale="  147.245">  1  7  2 -1</clus>
<clus scale="  221.190">  2  9  1 -1</clus>
<clus scale="  221.190">  2  5  1 -1</clus>
</clustering>
</event>
<event>
 9    1  0.1399746E-005  0.1316802E+03  0.7546771E-02  0.1226235E+00
         21   -1    0    0  501  502  0.00000000000E+00  0.00000000000E+00  0.61133946946E+02  0.61133946946E+02  0.00000000000E+00 0. -1.
         -2   -1    0    0    0  501 -0.00000000000E+00 -0.00000000000E+00 -0.44775316877E+03  0.44775316877E+03  0.00000000000E+00 0.  1.
         23    2    1    2    0    0 -0.24157253894E+02  0.96609201050E+02 -0.28026411915E+03  0.31226211541E+03  0.95093330970E+02 0.  0.
         23    2    1    2    0    0  0.25443405533E+02 -0.73971276534E+02 -0.12065140919E+03  0.16981988526E+03  0.90348847549E+02 0.  0.
        -11    1    3    3    0    0 -0.58728103799E+02  0.52494943633E+02 -0.19409174324E+03  0.20946673740E+03  0.00000000000E+00 0.  1.
         11    1    3    3    0    0  0.34570849905E+02  0.44114257417E+02 -0.86172375911E+02  0.10279537801E+03  0.00000000000E+00 0. -1.
        -11    1    4    4    0    0  0.14290042258E+02 -0.21590409462E+02  0.10665688412E+02  0.28001928465E+02  0.00000000000E+00 0. -1.
         11    1    4    4    0    0  0.11153363275E+02 -0.52380867073E+02 -0.13131709760E+03  0.14181795679E+03  0.00000000000E+00 0.  1.
         -2    1    1    2    0  502 -0.12861516393E+01 -0.22637924516E+02  0.14296306516E+02  0.26805115042E+02  0.00000000000E+00 0.  1.
<scales pt_clust_5="13000.00000" pt_clust_6="13000.00000" pt_clust_7="13000.00000" pt_clust_8="13000.00000" pt_clust_9="22.67443"></scales>
<clustering>
<clus scale="   22.674">  1  9  2 -1</clus>
<clus scale="   90.349">  7  8 -1 -1</clus>
<clus scale="   95.093">  5  6 -1 -1</clus>
<clus scale="  128.296">  1  7  2 -1</clus>
<clus scale="   22.674">  1  5  2 -1</clus>
</clustering>
</event>
<event>
 9    1  0.1399746E-005  0.1328731E+03  0.7546771E-02  0.1224237E+00
         21   -1    0    0  501  502  0.00000000000E+00  0.00000000000E+00  0.19559124655E+03  0.19559124655E+03  0.00000000000E+00 0.  1.
         -1   -1    0    0    0  501 -0.00000000000E+00 -0.00000000000E+00 -0.21932973169E+03  0.21932973169E+03  0.00000000000E+00 0.  1.
         23    2    1    2    0    0 -0.63860103577E+02  0.58131396274E+02 -0.83180313914E+02  0.15287908379E+03  0.94845545893E+02 0.  0.
         23    2    1    2    0    0  0.10811990640E+03 -0.62042829323E+02  0.11384780811E+03  0.19179774849E+03  0.91026513083E+02 0.  0.
        -11    1    3    3    0    0 -0.20018721589E+01  0.24001733442E+02  0.17579926672E+02  0.29818526492E+02  0.00000000000E+00 0. -1.
         11    1    3    3    0    0 -0.61858231418E+02  0.34129662831E+02 -0.10076024059E+03  0.12306055730E+03  0.00000000000E+00 0.  1.
        -13    1    4    4    0    0  0.66329717216E+02 -0.23331848688E+02  0.69333926334E+01  0.70654642328E+02  0.00000000000E+00 0. -1.
         13    1    4    4    0    0  0.41790189182E+02 -0.38710980636E+02  0.10691441548E+03  0.12114310616E+03  0.00000000000E+00 0.  1.
         -1    1    1    2    0  502 -0.44259802821E+02  0.39114330497E+01 -0.54405979334E+02  0.70244145959E+02  0.00000000000E+00 0.  1.
<scales pt_clust_5="13000.00000" pt_clust_6="13000.00000" pt_clust_7="13000.00000" pt_clust_8="13000.00000" pt_clust_9="44.43232"></scales>
<clustering>
<clus scale="   44.432">  1  9  2 -1</clus>
<clus scale="   91.027">  7  8 -1 -1</clus>
<clus scale="   94.846">  5  6 -1 -1</clus>
<clus scale="  130.175">  1  7  2 -1</clus>
<clus scale="   44.432">  1  5  2 -1</clus>
</clustering>
</event>
<event>
 9    1  0.1399746E-005  0.9784718E+02  0.7546771E-02  0.1285585E+00
         -2   -1    0    0    0  501 -0.00000000000E+00  0.00000000000E+00  0.21370337978E+03  0.21370337978E+03  0.00000000000E+00 0.  1.
         21   -1    0    0  501  502  0.00000000000E+00 -0.00000000000E+00 -0.23791117414E+03  0.23791117414E+03  0.00000000000E+00 0. -1.
         23    2    1    2    0    0  0.19645436155E+02 -0.23589058129E+02  0.18366567996E+03  0.20765747602E+03  0.91902984309E+02 0.  0.
         23    2    1    2    0    0  0.73549691423E+01  0.26774519612E+02 -0.13685217701E+03  0.16790976550E+03  0.93242696909E+02 0.  0.
        -11    1    3    3    0    0  0.45233047753E+02 -0.67318879569E+01  0.16622358673E+03  0.17239961633E+03  0.00000000000E+00 0.  1.
         11    1    3    3    0    0 -0.25587611598E+02 -0.16857170172E+02  0.17442093230E+02  0.35257859688E+02  0.00000000000E+00 0. -1.
        -13    1    4    4    0    0 -0.33070657582E+02 -0.17433405119E+02 -0.52659460943E+02  0.64580266597E+02  0.00000000000E+00 0.  1.
         13    1    4    4    0    0  0.40425626725E+02  0.44207924731E+02 -0.84192716068E+02  0.10332949890E+03  0.00000000000E+00 0. -1.
         -2    1    1    2    0  502 -0.27000405297E+02 -0.31854614827E+01 -0.71021297310E+02  0.76047312396E+02  0.00000000000E+00 0.  1.
<scales pt_clust_5="13000.00000" pt_clust_6="13000.00000" pt_clust_7="13000.00000" pt_clust_8="13000.00000" pt_clust_9="27.18766"></scales>
<clustering>
<clus scale="   27.188">  2  9  1 -1</clus>
<clus scale="   91.903">  5  6 -1 -1</clus>
<clus scale="   93.243">  7  8 -1 -1</clus>
<clus scale="   96.571">  1  5  2 -1</clus>
<clus scale="   27.188">  2  5  1 -1</clus>
</clustering>
</event>
<event>
 9    1  0.1399746E-005  0.9731040E+02  0.7546771E-02  0.1286182E+00
          1   -1    0    0  502    0 -0.00000000000E+00  0.00000000000E+00  0.55425378770E+03  0.55425378770E+03  0.00000000000E+00 0. -1.
         21   -1    0    0  501  502  0.00000000000E+00 -0.00000000000E+00 -0.21084918687E+03  0.21084918687E+03  0.00000000000E+00 0. -1.
         23    2    1    2    0    0  0.13927090088E+02 -0.15294042928E+02  0.35333125527E+03  0.36581750695E+03  0.92474866053E+02 0.  0.
         23    2    1    2    0    0 -0.51996050365E+02  0.21267128422E+02  0.17759137136E+03  0.20784896773E+03  0.92231329820E+02 0.  0.
        -13    1    3    3    0    0  0.34437066713E+02 -0.46036318096E+02  0.20032928018E+03  0.20841562956E+03  0.00000000000E+00 0.  1.
         13    1    3    3    0    0 -0.20509976625E+02  0.30742275168E+02  0.15300197509E+03  0.15740187739E+03  0.00000000000E+00 0. -1.
        -13    1    4    4    0    0  0.39463611277E+01 -0.24474366218E+02  0.12778081602E+02  0.27889921788E+02  0.00000000000E+00 0.  1.
         13    1    4    4    0    0 -0.55942411493E+02  0.45741494640E+02  0.16481328976E+03  0.17995904594E+03  0.00000000000E+00 0. -1.
          1    1    1    2  501    0  0.38068960277E+02 -0.59730854939E+01 -0.18751802581E+03  0.19143649989E+03  0.00000000000E+00 0. -1.
<scales pt_clust_5="13000.00000" pt_clust_6="13000.00000" pt_clust_7="13000.00000" pt_clust_8="13000.00000" pt_clust_9="38.53470"></scales>
<clustering>
<clus scale="   38.535">  2  9  1 -1</clus>
<clus scale="   92.231">  7  8 -1 -1</clus>
<clus scale="   92.475">  5  6 -1 -1</clus>
<clus scale="   97.079">  2  7  1 -1</clus>
<clus scale="   38.535">  2  5  1 -1</clus>
</clustering>
</event>
<event>
 9    1  0.1399746E-005  0.9568675E+02  0.7546771E-02  0.1289851E+00
         21   -1    0    0  501  502  0.00000000000E+00  0.00000000000E+00  0.59704073149E+02  0.59704073149E+02  0.00000000000E+00 0. -1.
          2   -1    0    0  502    0 -0.00000000000E+00 -0.00000000000E+00 -0.30022341955E+03  0.30022341955E+03  0.00000000000E+00 0. -1.
         23    2    1    2    0    0  0.71404754650E+01 -0.21890833795E+02 -0.18035335455E+03  0.20333669030E+03  0.91040002914E+02 0.  0.
         23    2    1    2    0    0 -0.34533163601E+02  0.42275671445E+02 -0.27463812556E+02  0.10931148874E+03  0.90636464989E+02 0.  0.
        -11    1    4    4    0    0 -0.62142194466E+02  0.10327659470E+02 -0.22044487177E+02  0.66740334866E+02  0.00000000000E+00 0. -1.
         11    1    4    4    0    0  0.27609030865E+02  0.31948011975E+02 -0.54193253783E+01  0.42571153872E+02  0.00000000000E+00 0.  1.
        -13    1    3    3    0    0  0.37754262773E+02 -0.10485289411E+01 -0.29277530836E+02  0.47787630014E+02  0.00000000000E+00 0.  1.
         13    1    3    3    0    0 -0.30613787308E+02 -0.20842304854E+02 -0.15107582372E+03  0.15554906029E+03  0.00000000000E+00 0. -1.
          2    1    1    2  501    0  0.27392688136E+02 -0.20384837651E+02 -0.32702179291E+02  0.47279313656E+02  0.00000000000E+00 0. -1.
<scales pt_clust_5="13000.00000" pt_clust_6="13000.00000" pt_clust_7="13000.00000" pt_clust_8="13000.00000" pt_clust_9="34.14531"></scales>
<clustering>
<clus scale="   34.145">  1  9  2 -1</clus>
<clus scale="   90.636">  5  6 -1 -1</clus>
<clus scale="   91.040">  7  8 -1 -1</clus>
<clus scale="   95.303">  1  5  2 -1</clus>
<clus scale="   34.145">  1  5  2 -1</clus>
</clustering>
</event>
<event>
 9    1  0.1399746E-005  0.1045522E+03  0.7546771E-02  0.1271485E+00
         21   -1    0    0  501  502  0.00000000000E+00  0.00000000000E+00  0.22651815756E+03  0.22651815756E+03  0.00000000000E+00 0.  1.
          2   -1    0    0  502    0 -0.00000000000E+00 -0.00000000000E+00 -0.11382545472E+03  0.11382545472E+03  0.00000000000E+00 0. -1.
         23    2    1    2    0    0 -0.27892359566E+02 -0.57906198329E+02 -0.37137907110E+02  0.11790142054E+03  0.91599177367E+02 0.  0.
         23    2    1    2    0    0  0.33487043806E+02  0.77800239627E+01  0.46361232082E+02  0.10733421633E+03  0.90495078755E+02 0.  0.
        -11    1    3    3    0    0  0.11253327791E+02 -0.18465820341E+02 -0.55349766455E+02  0.59424073858E+02  0.00000000000E+00 0. -1.
         11    1    3    3    0    0 -0.39145687357E+02 -0.39440377989E+02  0.18211859345E+02  0.58477346685E+02  0.00000000000E+00 0.  1.
        -11    1    4    4    0    0  0.51900336835E+02  0.29714392735E+02  0.50656711473E+02  0.78375331045E+02  0.00000000000E+00 0. -1.
         11    1    4    4    0    0 -0.18413293029E+02 -0.21934368773E+02 -0.42954793910E+01  0.28958885283E+02  0.00000000000E+00 0.  1.
          2    1    1    2  501    0 -0.55946842404E+01  0.50126174367E+02  0.10346937786E+03  0.11510797541E+03  0.00000000000E+00 0. -1.
<scales pt_clust_5="13000.00000" pt_clust_6="13000.00000" pt_clust_7="13000.00000" pt_clust_8="13000.00000" pt_clust_9="50.43743"></scales>
<clustering>
<clus scale="   50.437">  1  9  2 -1</clus>
<clus scale="   90.495">  7  8 -1 -1</clus>
<clus scale="   91.599">  5  6 -1 -1</clus>
<clus scale="  103.586">  1  7  2 -1</clus>
<clus scale="   50.437">  1  5  2 -1</clus>
</clustering>
</event>
<event>
 9    1  0.1399746E-005  0.1437794E+03  0.7546771E-02  0.1208638E+00
          2   -1    0    0  502    0 -0.00000000000E+00  0.00000000000E+00  0.64463453956E+03  0.64463453956E+03  0.00000000000E+00 0. -1.
         21   -1    0    0  501  502  0.00000000000E+00 -0.00000000000E+00 -0.13282411132E+03  0.13282411132E+03  0.00000000000E+00 0. -1.
         23    2    1    2    0    0 -0.50402134799E+02  0.10431346827E+03  0.56410684155E+03  0.58318213386E+03  0.91995639684E+02 0.  0.
         23    2    1    2    0    0  0.43090127324E+02 -0.67257768754E+02  0.10302693392E+02  0.12116537915E+03  0.90523682437E+02 0.  0.
        -11    1    3    3    0    0 -0.76663798067E+02  0.81257027625E+02  0.39450851459E+03  0.41002074406E+03  0.00000000000E+00 0.  1.
         11    1    3    3    0    0  0.26261663269E+02  0.23056440649E+02  0.16959832696E+03  0.17316138981E+03  0.00000000000E+00 0. -1.
        -11    1    4    4    0    0  0.60849275605E+02 -0.12696200656E+02  0.13824254656E+02  0.63678394056E+02  0.00000000000E+00 0.  1.
         11    1    4    4    0    0 -0.17759148281E+02 -0.54561568098E+02 -0.35215612646E+01  0.57486985090E+02  0.00000000000E+00 0. -1.
          2    1    1    2  501    0  0.73120074749E+01 -0.37055699521E+02 -0.62599106705E+02  0.73111137869E+02  0.00000000000E+00 0. -1.
<scales pt_clust_5="13000.00000" pt_clust_6="13000.00000" pt_clust_7="13000.00000" pt_clust_8="13000.00000" pt_clust_9="37.77023"></scales>
<clustering>
<clus scale="   37.770">  2  9  1 -1</clus>
<clus scale="   90.524">  7  8 -1 -1</clus>
<clus scale="   91.996">  5  6 -1 -1</clus>
<clus scale="  142.842">  2  7  1 -1</clus>
<clus scale="   37.770">  2  5  1 -1</clus>
</clustering>
</event>
<event>
 9    1  0.1399746E-005  0.1449015E+03  0.7546771E-02  0.1207933E+00
         21   -1    0    0  501  502  0.00000000000E+00  0.00000000000E+00  0.26191895738E+02  0.26191895738E+02  0.00000000000E+00 0. -1.
          2   -1    0    0  502    0 -0.00000000000E+00 -0.00000000000E+00 -0.11669707203E+04  0.11669707203E+04  0.00000000000E+00 0. -1.
         23    2    1    2    0    0  0.63286476173E+02 -0.76096978982E+02 -0.60924582759E+03  0.62414184207E+03  0.92610109104E+02 0.  0.
         23    2    1    2    0    0 -0.10023211635E+03  0.90957495796E+02 -0.45590671717E+03  0.48355060675E+03  0.87467201516E+02 0.  0.
        -11    1    4    4    0    0 -0.19680465039E+02  0.58583221691E+02 -0.10295755499E+03  0.12008152522E+03  0.00000000000E+00 0. -1.
         11    1    4    4    0    0 -0.80551651310E+02  0.32374274105E+02 -0.35294916217E+03  0.36346908153E+03  0.00000000000E+00 0.  1.
        -13    1    3    3    0    0  0.43508741997E+02 -0.96681969812E+02 -0.44677366267E+03  0.45918092248E+03  0.00000000000E+00 0. -1.
         13    1    3    3    0    0  0.19777734176E+02  0.20584990830E+02 -0.16247216493E+03  0.16496091959E+03  0.00000000000E+00 0.  1.
          2    1    1    2  501    0  0.36945640176E+02 -0.14860516814E+02 -0.75626279833E+02  0.85470167248E+02  0.00000000000E+00 0. -1.
<scales pt_clust_5="13000.00000" pt_clust_6="13000.00000" pt_clust_7="13000.00000" pt_clust_8="13000.00000" pt_clust_9="39.82230"></scales>
<clustering>
<clus scale="   39.822">  1  9  2 -1</clus>
<clus scale="   87.467">  5  6 -1 -1</clus>
<clus scale="   92.610">  7  8 -1 -1</clus>
<clus scale="  141.670">  1  5  2 -1</clus>
<clus scale="   39.822">  1  5  2 -1</clus>
</clustering>
</event>
<event>
 9    1  0.1399746E-005  0.9725392E+02  0.7546771E-02  0.1291277E+00
         21   -1    0    0  501  502  0.00000000000E+00  0.00000000000E+00  0.77417953490E+02  0.77417953490E+02  0.00000000000E+00 0. -1.
         -1   -1    0    0    0  501 -0.00000000000E+00 -0.00000000000E+00 -0.31300934781E+03  0.31300934781E+03  0.00000000000E+00 0.  1.
         23    2    1    2    0    0  0.65518361571E+01 -0.34152278613E+02 -0.12209762627E+03  0.15055448338E+03  0.80929088920E+02 0.  0.
         23    2    1    2    0    0  0.80382688955E+02  0.23585033873E+02 -0.59034721240E+02  0.13674636110E+03  0.90536392983E+02 0.  0.
        -11    1    4    4    0    0  0.20276446602E+02 -0.10834267562E+00 -0.68510033417E+02  0.71447678085E+02  0.00000000000E+00 0.  1.
         11    1    4    4    0    0  0.60106242353E+02  0.23693376549E+02  0.94753121763E+01  0.65298683011E+02  0.00000000000E+00 0. -1.
        -11    1    3    3    0    0  0.11995140926E+02 -0.60022776637E+02 -0.78143424146E+02  0.99262338570E+02  0.00000000000E+00 0. -1.
         11    1    3    3    0    0 -0.54433047688E+01  0.25870498024E+02 -0.43954202129E+02  0.51292144814E+02  0.00000000000E+00 0.  1.
         -1    1    1    2    0  502 -0.86934525112E+02  0.10567244740E+02 -0.54459046810E+02  0.10312645683E+03  0.00000000000E+00 0.  1.
<scales pt_clust_5="13000.00000" pt_clust_6="13000.00000" pt_clust_7="13000.00000" pt_clust_8="13000.00000" pt_clust_9="87.57442"></scales>
<clustering>
<clus scale="   80.929">  7  8 -1 -1</clus>
<clus scale="   87.574">  1  9  2 -1</clus>
<clus scale="   88.380">  2  7  1 -1</clus>
<clus scale="   90.536">  5  6 -1 -1</clus>
<clus scale="   87.574">  1  5  2 -1</clus>
</clustering>
</event>
<event>
 9    1  0.1399746E-005  0.9933647E+02  0.7546771E-02  0.1282515E+00
         21   -1    0    0  501  502  0.00000000000E+00  0.00000000000E+00  0.72477299011E+02  0.72477299011E+02  0.00000000000E+00 0. -1.
         -1   -1    0    0    0  501 -0.00000000000E+00 -0.00000000000E+00 -0.18856575413E+03  0.18856575413E+03  0.00000000000E+00 0.  1.
         23    2    1    2    0    0  0.11824034465E+02  0.42869731985E+02 -0.95894815067E+02  0.14032899858E+03  0.92297294516E+02 0.  0.
         23    2    1    2    0    0  0.32817670211E+00 -0.25179151013E+02 -0.27536365145E+02  0.98030392970E+02  0.90651029751E+02 0.  0.
        -11    1    3    3    0    0  0.17818143045E+02 -0.23031602674E+02 -0.55841699690E+02  0.62978062590E+02  0.00000000000E+00 0.  1.
         11    1    3    3    0    0 -0.59941085796E+01  0.65901334660E+02 -0.40053115378E+02  0.77350935993E+02  0.00000000000E+00 0. -1.
        -13    1    4    4    0    0  0.22183636075E+02 -0.50778310188E+01 -0.53782940489E+02  0.58399509972E+02  0.00000000000E+00 0.  1.
         13    1    4    4    0    0 -0.21855459373E+02 -0.20101319994E+02  0.26246575345E+02  0.39630882998E+02  0.00000000000E+00 0. -1.
         -1    1    1    2    0  502 -0.12152211167E+02 -0.17690580973E+02  0.73427250900E+01  0.22683661591E+02  0.00000000000E+00 0.  1.
<scales pt_clust_5="13000.00000" pt_clust_6="13000.00000" pt_clust_7="13000.00000" pt_clust_8="13000.00000" pt_clust_9="21.46236"></scales>
<clustering>
<clus scale="   21.462">  1  9  2 -1</clus>
<clus scale="   90.651">  7  8 -1 -1</clus>
<clus scale="   92.297">  5  6 -1 -1</clus>
<clus scale="   97.809">  1  7  2 -1</clus>
<clus scale="   21.462">  1  5  2 -1</clus>
</clustering>
</event>
<event>
 9    1  0.1399746E-005  0.9777141E+02  0.7546771E-02  0.1286575E+00
          4   -1    0    0  502    0 -0.00000000000E+00  0.00000000000E+00  0.34281904271E+03  0.34281904271E+03  0.00000000000E+00 0. -1.
         21   -1    0    0  501  502  0.00000000000E+00 -0.00000000000E+00 -0.17118023988E+03  0.17118023988E+03  0.00000000000E+00 0.  1.
         23    2    1    2    0    0  0.23355006581E+02 -0.94766195032E+01  0.30566675769E+03  0.32082396571E+03  0.94130694063E+02 0.  0.
         23    2    1    2    0    0 -0.40687559106E+02  0.31848018656E+02 -0.12564854287E+03  0.16366072011E+03  0.91255143547E+02 0.  0.
        -11    1    4    4    0    0 -0.68277961871E+02  0.13022015753E+02 -0.69275261801E+02  0.98135186703E+02  0.00000000000E+00 0.  1.
         11    1    4    4    0    0  0.27590402765E+02  0.18826002902E+02 -0.56373281071E+02  0.65525533411E+02  0.00000000000E+00 0. -1.
        -13    1    3    3    0    0  0.55647085794E+02 -0.11525268336E+02  0.25052704720E+03  0.25689147776E+03  0.00000000000E+00 0. -1.
         13    1    3    3    0    0 -0.32292079213E+02  0.20486488329E+01  0.55139710494E+02  0.63932487949E+02  0.00000000000E+00 0.  1.
          4    1    1    2  501    0  0.17332552525E+02 -0.22371399153E+02 -0.83794119837E+01  0.29514596766E+02  0.00000000000E+00 0. -1.
<scales pt_clust_5="13000.00000" pt_clust_6="13000.00000" pt_clust_7="13000.00000" pt_clust_8="13000.00000" pt_clust_9="28.30012"></scales>
<clustering>
<clus scale="   28.300">  2  9  1 -1</clus>
<clus scale="   91.255">  5  6 -1 -1</clus>
<clus scale="   94.131">  7  8 -1 -1</clus>
<clus scale="   95.006">  2  5  1 -1</clus>
<clus scale="   28.300">  2  5  1 -1</clus>
</clustering>
</event>
<event>
 9    1  0.1399746E-005  0.1144403E+03  0.7546771E-02  0.1253626E+00
         21   -1    0    0  501  502  0.00000000000E+00  0.00000000000E+00  0.26296173679E+02  0.26296173679E+02  0.00000000000E+00 0. -1.
          1   -1    0    0  502    0 -0.00000000000E+00 -0.00000000000E+00 -0.85049255187E+03  0.85049255187E+03  0.00000000000E+00 0. -1.
         23    2    1    2    0    0 -0.50925367091E+02  0.60463647195E+02 -0.46142478372E+03  0.47653024954E+03  0.88988774839E+02 0.  0.
         23    2    1    2    0    0 -0.12447352429E+01 -0.63197712900E+02 -0.28950208934E+03  0.31027172657E+03  0.91986870233E+02 0.  0.
        -13    1    3    3    0    0 -0.74040913477E+02  0.49812810438E+02 -0.40367214171E+03  0.41341815507E+03  0.00000000000E+00 0. -1.
         13    1    3    3    0    0  0.23115546387E+02  0.10650836757E+02 -0.57752642013E+02  0.63112094465E+02  0.00000000000E+00 0.  1.
        -13    1    4    4    0    0 -0.16033198973E+02  0.20831902184E+02 -0.69126948847E+02  0.73956518812E+02  0.00000000000E+00 0. -1.
         13    1    4    4    0    0  0.14788463730E+02 -0.84029615084E+02 -0.22037514050E+03  0.23631520776E+03  0.00000000000E+00 0.  1.
          1    1    1    2  501    0  0.52170102334E+02  0.27340657051E+01 -0.73269505130E+02  0.89986749440E+02  0.00000000000E+00 0. -1.
<scales pt_clust_5="13000.00000" pt_clust_6="13000.00000" pt_clust_7="13000.00000" pt_clust_8="13000.00000" pt_clust_9="52.24169"></scales>
<clustering>
<clus scale="   52.242">  1  9  2 -1</clus>
<clus scale="   88.989">  5  6 -1 -1</clus>
<clus scale="   91.987">  7  8 -1 -1</clus>
<clus scale="  112.045">  2  5  1 -1</clus>
<clus scale="   52.242">  1  5  2 -1</clus>
</clustering>
</event>
<event>
 9    1  0.1399746E-005  0.9526665E+02  0.7546771E-02  0.1293423E+00
         21   -1    0    0  501  502  0.00000000000E+00  0.00000000000E+00  0.21445715408E+03  0.21445715408E+03  0.00000000000E+00 0. -1.
          1   -1    0    0  502    0 -0.00000000000E+00 -0.00000000000E+00 -0.29719774918E+03  0.29719774918E+03  0.00000000000E+00 0. -1.
         23    2    1    2    0    0  0.22593090881E+02  0.17208564516E+02 -0.26356140658E+03  0.28009484111E+03  0.90453980198E+02 0.  0.
         23    2    1    2    0    0 -0.25790725828E+02 -0.48020773300E+02  0.89351982906E+02  0.13498799745E+03  0.85245682590E+02 0.  0.
        -11    1    3    3    0    0  0.26554104401E+02  0.41888310426E+02 -0.24216703364E+03  0.24719349342E+03  0.00000000000E+00 0. -1.
         11    1    3    3    0    0 -0.39610135195E+01 -0.24679745910E+02 -0.21394372939E+02  0.32901347689E+02  0.00000000000E+00 0.  1.
        -13    1    4    4    0    0 -0.44412606745E+02 -0.27240641958E+02  0.93245847253E+02  0.10681441964E+03  0.00000000000E+00 0.  1.
         13    1    4    4    0    0  0.18621880918E+02 -0.20780131342E+02 -0.38938643470E+01  0.28173577818E+02  0.00000000000E+00 0. -1.
          1    1    1    2  501    0  0.31976349465E+01  0.30812208784E+02  0.91468828570E+02  0.96572064695E+02  0.00000000000E+00 0. -1.
<scales pt_clust_5="13000.00000" pt_clust_6="13000.00000" pt_clust_7="13000.00000" pt_clust_8="13000.00000" pt_clust_9="30.97769"></scales>
<clustering>
<clus scale="   30.978">  1  9  2 -1</clus>
<clus scale="   85.246">  7  8 -1 -1</clus>
<clus scale="   90.336">  1  7  2 -1</clus>
<clus scale="   90.454">  5  6 -1 -1</clus>
<clus scale="   30.978">  1  5  2 -1</clus>
</clustering>
</event>
<event>
 9    1  0.1399746E-005  0.9901781E+02  0.7546771E-02  0.1282904E+00
         -3   -1    0    0    0  501 -0.00000000000E+00  0.00000000000E+00  0.16358782595E+03  0.16358782595E+03  0.00000000000E+00 0.  1.
         21   -1    0    0  501  502  0.00000000000E+00 -0.00000000000E+00 -0.19429118418E+03  0.19429118418E+03  0.00000000000E+00 0.  1.
         23    2    1    2    0    0 -0.80910390965E+00  0.26064997832E+02 -0.18389415204E+02  0.96811131751E+02  0.91401235650E+02 0.  0.
         23    2    1    2    0    0 -0.49796374695E+02 -0.45972848696E+02 -0.10379409062E+03  0.15464488089E+03  0.92458878355E+02 0.  0.
        -11    1    4    4    0    0 -0.69944543819E+02 -0.13466067650E+02 -0.88132714088E+02  0.11331791333E+03  0.00000000000E+00 0.  1.
         11    1    4    4    0    0  0.20148169123E+02 -0.32506781046E+02 -0.15661376536E+02  0.41326967563E+02  0.00000000000E+00 0. -1.
        -13    1    3    3    0    0  0.26063946864E+01  0.57463247327E+02  0.46608883559E+01  0.57710847914E+02  0.00000000000E+00 0.  1.
         13    1    3    3    0    0 -0.34154985960E+01 -0.31398249495E+02 -0.23050303560E+02  0.39100283838E+02  0.00000000000E+00 0. -1.
         -3    1    1    2    0  502  0.50605478605E+02  0.19907850864E+02  0.91480147601E+02  0.10642299750E+03  0.00000000000E+00 0.  1.
<scales pt_clust_5="13000.00000" pt_clust_6="13000.00000" pt_clust_7="13000.00000" pt_clust_8="13000.00000" pt_clust_9="54.38051"></scales>
<clustering>
<clus scale="   54.381">  2  9  1 -1</clus>
<clus scale="   91.401">  7  8 -1 -1</clus>
<clus scale="   92.459">  5  6 -1 -1</clus>
<clus scale="   98.031">  1  7  2 -1</clus>
<clus scale="   54.381">  2  5  1 -1</clus>
</clustering>
</event>
<event>
 9    1  0.1399746E-005  0.9785048E+02  0.7546771E-02  0.1284972E+00
         21   -1    0    0  501  502  0.00000000000E+00  0.00000000000E+00  0.19004199934E+03  0.19004199934E+03  0.00000000000E+00 0.  1.
         -1   -1    0    0    0  501 -0.00000000000E+00 -0.00000000000E+00 -0.21689407419E+03  0.21689407419E+03  0.00000000000E+00 0.  1.
         23    2    1    2    0    0 -0.78311170731E+01  0.31912631907E+02 -0.13390011495E+03  0.16721573732E+03  0.94615641178E+02 0.  0.
         23    2    1    2    0    0 -0.64428541732E+00 -0.89461239621E+01 -0.30778287658E+02  0.99736803033E+02  0.94444050371E+02 0.  0.
        -11    1    3    3    0    0 -0.39964801290E+02  0.23070540648E+02 -0.12421404501E+03  0.13250873241E+03  0.00000000000E+00 0.  1.
         11    1    3    3    0    0  0.32133684217E+02  0.88420912584E+01 -0.96860699421E+01  0.34707004914E+02  0.00000000000E+00 0. -1.
        -13    1    4    4    0    0  0.21898103485E+02  0.10584078654E+02 -0.55758226483E+02  0.60831977428E+02  0.00000000000E+00 0.  1.
         13    1    4    4    0    0 -0.22542388902E+02 -0.19530202616E+02  0.24979938825E+02  0.38904825605E+02  0.00000000000E+00 0. -1.
         -1    1    1    2    0  502  0.84754024904E+01 -0.22966507945E+02  0.13782632776E+03  0.13998353316E+03  0.00000000000E+00 0.  1.
<scales pt_clust_5="13000.00000" pt_clust_6="13000.00000" pt_clust_7="13000.00000" pt_clust_8="13000.00000" pt_clust_9="24.48046"></scales>
<clustering>
<clus scale="   24.480">  1  9  2 -1</clus>
<clus scale="   94.444">  7  8 -1 -1</clus>
<clus scale="   94.616">  5  6 -1 -1</clus>
<clus scale="   97.685">  1  7  2 -1</clus>
<clus scale="   24.480">  1  5  2 -1</clus>
</clustering>
</event>
<event>
 9    1  0.1399746E-005  0.1073458E+03  0.7546771E-02  0.1265593E+00
         21   -1    0    0  501  502  0.00000000000E+00  0.00000000000E+00  0.30175780067E+02  0.30175780067E+02  0.00000000000E+00 0.  1.
         -1   -1    0    0    0  501 -0.00000000000E+00 -0.00000000000E+00 -0.72005518627E+03  0.72005518627E+03  0.00000000000E+00 0.  1.
         23    2    1    2    0    0  0.42525308239E+02 -0.40928050752E+02 -0.31618891236E+03  0.33428774530E+03  0.91045928954E+02 0.  0.
         23    2    1    2    0    0  0.26233997638E+01  0.67498269696E+02 -0.16088466183E+03  0.19678413610E+03  0.90979245833E+02 0.  0.
        -13    1    3    3    0    0  0.50291910063E+02 -0.65546620460E+02 -0.24595012275E+03  0.25945538837E+03  0.00000000000E+00 0.  1.
         13    1    3    3    0    0 -0.77666018240E+01  0.24618569708E+02 -0.70238789608E+02  0.74832356932E+02  0.00000000000E+00 0. -1.
        -13    1    4    4    0    0  0.18363837864E+02  0.86291865024E+02 -0.11725008290E+03  0.14673478950E+03  0.00000000000E+00 0.  1.
         13    1    4    4    0    0 -0.15740438100E+02 -0.18793595328E+02 -0.43634578925E+02  0.50049346598E+02  0.00000000000E+00 0. -1.
         -1    1    1    2    0  502 -0.45148708002E+02 -0.26570218944E+02 -0.21280583202E+03  0.21915908494E+03  0.00000000000E+00 0.  1.
<scales pt_clust_5="13000.00000" pt_clust_6="13000.00000" pt_clust_7="13000.00000" pt_clust_8="13000.00000" pt_clust_9="52.38688"></scales>
<clustering>
<clus scale="   52.387">  1  9  2 -1</clus>
<clus scale="   90.979">  7  8 -1 -1</clus>
<clus scale="   91.046">  5  6 -1 -1</clus>
<clus scale="  107.289">  1  7  2 -1</clus>
<clus scale="   52.387">  1  5  2 -1</clus>
</clustering>
</event>
<event>
 9    1  0.1399746E-005  0.1592303E+03  0.7546771E-02  0.1190864E+00
          2   -1    0    0  502    0 -0.00000000000E+00  0.00000000000E+00  0.12074237330E+04  0.12074237330E+04  0.00000000000E+00 0. -1.
         21   -1    0    0  501  502  0.00000000000E+00 -0.00000000000E+00 -0.61104915676E+02  0.61104915676E+02  0.00000000000E+00 0. -1.
         23    2    1    2    0    0  0.68856586715E+02 -0.11615677279E+03  0.67301300702E+03  0.69260908652E+03  0.92342913744E+02 0.  0.
         23    2    1    2    0    0 -0.11248243437E+01  0.13327378326E+03  0.48046339945E+03  0.50569268157E+03  0.84361386007E+02 0.  0.
        -11    1    3    3    0    0  0.85138899475E+02 -0.58329303549E+02  0.40456574969E+03  0.41752171881E+03  0.00000000000E+00 0. -1.
         11    1    3    3    0    0 -0.16282312761E+02 -0.57827469236E+02  0.26844725732E+03  0.27508736771E+03  0.00000000000E+00 0.  1.
        -13    1    4    4    0    0  0.16535575816E+02  0.64322666650E+02  0.11032490071E+03  0.12877272393E+03  0.00000000000E+00 0.  1.
         13    1    4    4    0    0 -0.17660400160E+02  0.68951116607E+02  0.37013849874E+03  0.37691995764E+03  0.00000000000E+00 0. -1.
          2    1    1    2  501    0 -0.67731762371E+02 -0.17117010472E+02 -0.71575890986E+01  0.70226880630E+02  0.00000000000E+00 0. -1.
<scales pt_clust_5="13000.00000" pt_clust_6="13000.00000" pt_clust_7="13000.00000" pt_clust_8="13000.00000" pt_clust_9="69.86117"></scales>
<clustering>
<clus scale="   69.861">  2  9  1 -1</clus>
<clus scale="   84.361">  7  8 -1 -1</clus>
<clus scale="   92.343">  5  6 -1 -1</clus>
<clus scale="  154.738">  2  7  1 -1</clus>
<clus scale="   69.861">  2  5  1 -1</clus>
</clustering>
</event>
<event>
 9    1  0.1399746E-005  0.1533959E+03  0.7546771E-02  0.1197044E+00
          4   -1    0    0  502    0 -0.00000000000E+00  0.00000000000E+00  0.54826837589E+03  0.54826837589E+03  0.00000000000E+00 0. -1.
         21   -1    0    0  501  502  0.00000000000E+00 -0.00000000000E+00 -0.16033258972E+03  0.16033258972E+03  0.00000000000E+00 0. -1.
         23    2    1    2    0    0  0.14158734030E+03  0.53144899216E+02  0.42025348832E+03  0.45742354458E+03  0.98751959227E+02 0.  0.
         23    2    1    2    0    0 -0.47255196407E+02 -0.28143343185E+02  0.52551331169E+02  0.12184689875E+03  0.95183627662E+02 0.  0.
        -11    1    4    4    0    0 -0.31071667495E+02 -0.54233287634E+02  0.17973014034E+01  0.62529419483E+02  0.00000000000E+00 0. -1.
         11    1    4    4    0    0 -0.16183528912E+02  0.26089944450E+02  0.50754029766E+02  0.59317479269E+02  0.00000000000E+00 0.  1.
        -13    1    3    3    0    0  0.94386848094E+02  0.11989993054E+02  0.35270441894E+03  0.36531225570E+03  0.00000000000E+00 0. -1.
         13    1    3    3    0    0  0.47200492209E+02  0.41154906162E+02  0.67549069379E+02  0.92111288885E+02  0.00000000000E+00 0.  1.
          4    1    1    2  501    0 -0.94332143896E+02 -0.25001556031E+02 -0.84869033314E+02  0.12933052227E+03  0.00000000000E+00 0. -1.
<scales pt_clust_5="13000.00000" pt_clust_6="13000.00000" pt_clust_7="13000.00000" pt_clust_8="13000.00000" pt_clust_9="97.58909"></scales>
<clustering>
<clus scale="   95.184">  5  6 -1 -1</clus>
<clus scale="   97.589">  2  9  1 -1</clus>
<clus scale="   98.752">  7  8 -1 -1</clus>
<clus scale="  151.123">  2  5  1 -1</clus>
<clus scale="   97.589">  2  5  1 -1</clus>
</clustering>
</event>
<event>
 9    1  0.1399746E-005  0.2438854E+03  0.7546771E-02  0.1151142E+00
         -3   -1    0    0    0  501 -0.00000000000E+00  0.00000000000E+00  0.19612524635E+03  0.19612524635E+03  0.00000000000E+00 0.  1.
         21   -1    0    0  501  502  0.00000000000E+00 -0.00000000000E+00 -0.44360951168E+03  0.44360951168E+03  0.00000000000E+00 0.  1.
         23    2    1    2    0    0  0.44512309846E+02  0.28464374169E+02 -0.24461243833E+02  0.10946027119E+03  0.92691057796E+02 0.  0.
         23    2    1    2    0    0 -0.15637303407E+02  0.20883328708E+03 -0.45869796483E+02  0.23273926007E+03  0.90596125190E+02 0.  0.
        -11    1    3    3    0    0  0.72808312029E+02  0.28022057888E+02 -0.13837033077E+02  0.79232250461E+02  0.00000000000E+00 0.  1.
         11    1    3    3    0    0 -0.28296002183E+02  0.44231628061E+00 -0.10624210757E+02  0.30228020733E+02  0.00000000000E+00 0. -1.
        -13    1    4    4    0    0 -0.17002594376E+02  0.36290409743E+02  0.23852160420E+02  0.46636976870E+02  0.00000000000E+00 0. -1.
         13    1    4    4    0    0  0.13652909684E+01  0.17254287734E+03 -0.69721956903E+02  0.18610228320E+03  0.00000000000E+00 0.  1.
         -3    1    1    2    0  502 -0.28875006438E+02 -0.23729766125E+03 -0.17715322501E+03  0.29753522676E+03  0.00000000000E+00 0.  1.
<scales pt_clust_5="13000.00000" pt_clust_6="13000.00000" pt_clust_7="13000.00000" pt_clust_8="13000.00000" pt_clust_9="226.43416"></scales>
<clustering>
<clus scale="   90.596">  7  8 -1 -1</clus>
<clus scale="   92.691">  5  6 -1 -1</clus>
<clus scale="  106.692">  1  5  2 -1</clus>
<clus scale="  226.434">  2  9  1 -1</clus>
<clus scale="  226.434">  2  5  1 -1</clus>
</clustering>
</event>
<event>
 9    1  0.1399746E-005  0.1040982E+03  0.7546771E-02  0.1278334E+00
         21   -1    0    0  501  502  0.00000000000E+00  0.00000000000E+00  0.80491885118E+02  0.80491885118E+02  0.00000000000E+00 0. -1.
          2   -1    0    0  502    0 -0.00000000000E+00 -0.00000000000E+00 -0.20557495602E+03  0.20557495602E+03  0.00000000000E+00 0. -1.
         23    2    1    2    0    0 -0.27680176162E+01 -0.86795048072E+01 -0.12541486226E+03  0.15573343154E+03  0.91875014545E+02 0.  0.
         23    2    1    2    0    0  0.81409338555E+01 -0.13605829843E+02 -0.90672108475E+01  0.10555750171E+03  0.10396527519E+03 0.  0.
        -11    1    4    4    0    0  0.55569031425E+02 -0.81350012571E+01 -0.13022442058E+02  0.57651361616E+02  0.00000000000E+00 0.  1.
         11    1    4    4    0    0 -0.47428097570E+02 -0.54708285859E+01  0.39552312105E+01  0.47906140091E+02  0.00000000000E+00 0. -1.
        -13    1    3    3    0    0  0.25520452279E+02  0.64677562868E+01 -0.12041279866E+03  0.12325732204E+03  0.00000000000E+00 0. -1.
         13    1    3    3    0    0 -0.28288469895E+02 -0.15147261094E+02 -0.50020635995E+01  0.32476109495E+02  0.00000000000E+00 0.  1.
          2    1    1    2  501    0 -0.53729162393E+01  0.22285334650E+02  0.93990022073E+01  0.24775907892E+02  0.00000000000E+00 0. -1.
<scales pt_clust_5="13000.00000" pt_clust_6="13000.00000" pt_clust_7="13000.00000" pt_clust_8="13000.00000" pt_clust_9="22.92388"></scales>
<clustering>
<clus scale="   22.924">  1  9  2 -1</clus>
<clus scale="   91.875">  7  8 -1 -1</clus>
<clus scale="   92.025">  2  7  1 -1</clus>
<clus scale="  103.965">  5  6 -1 -1</clus>
<clus scale="   22.924">  1  5  2 -1</clus>
</clustering>
</event>
<event>
 9    1  0.1399746E-005  0.1580451E+03  0.7546771E-02  0.1208804E+00
          1   -1    0    0  502    0 -0.00000000000E+00  0.00000000000E+00  0.74614649500E+03  0.74614649500E+03  0.00000000000E+00 0. -1.
         21   -1    0    0  501  502  0.00000000000E+00 -0.00000000000E+00 -0.12459991769E+03  0.12459991769E+03  0.00000000000E+00 0. -1.
         23    2    1    2    0    0  0.61256959591E+02  0.89340226283E+01  0.36132694763E+03  0.37688443354E+03  0.87478461930E+02 0.  0.
         23    2    1    2    0    0 -0.18339701107E+03 -0.14001617304E+02  0.30166578095E+03  0.36478194140E+03  0.90736499936E+02 0.  0.
        -11    1    4    4    0    0 -0.29859911728E+02 -0.37472781401E+02  0.93430184565E+02  0.10500010982E+03  0.00000000000E+00 0.  1.
         11    1    4    4    0    0 -0.15353709935E+03  0.23471164097E+02  0.20823559638E+03  0.25978183158E+03  0.00000000000E+00 0. -1.
        -11    1    3    3    0    0  0.75384767848E+02 -0.13317934030E+02  0.21546260929E+03  0.22865774991E+03  0.00000000000E+00 0. -1.
         11    1    3    3    0    0 -0.14127808257E+02  0.22251956658E+02  0.14586433834E+03  0.14822668363E+03  0.00000000000E+00 0.  1.
          1    1    1    2  501    0  0.12214005148E+03  0.50675946760E+01 -0.41446151262E+02  0.12908003775E+03  0.00000000000E+00 0. -1.
<scales pt_clust_5="13000.00000" pt_clust_6="13000.00000" pt_clust_7="13000.00000" pt_clust_8="13000.00000" pt_clust_9="129.40302"></scales>
<clustering>
<clus scale="   87.478">  7  8 -1 -1</clus>
<clus scale="   90.736">  5  6 -1 -1</clus>
<clus scale="  107.167">  1  7  2 -1</clus>
<clus scale="  129.403">  2  9  1 -1</clus>
<clus scale="  129.403">  2  5  1 -1</clus>
</clustering>
</event>
<event>
 9    1  0.1727995E-005  0.9669365E+02  0.7546771E-02  0.1289384E+00
          2   -1    0    0  502    0 -0.00000000000E+00  0.00000000000E+00  0.50883850729E+03  0.50883850729E+03  0.00000000000E+00 0. -1.
         21   -1    0    0  501  502  0.00000000000E+00 -0.00000000000E+00 -0.55151037050E+02  0.55151037050E+02  0.00000000000E+00 0.  1.
         23    2    1    2    0    0  0.53966453175E+01  0.33188240275E+02  0.41995035098E+03  0.43119996157E+03  0.91894104825E+02 0.  0.
         23    2    1    2    0    0  0.17312216934E+02 -0.14156041654E+02  0.44494842370E+02  0.10126743792E+03  0.88177075339E+02 0.  0.
        -13    1    3    3    0    0  0.18585240715E+02 -0.26345835760E+02  0.88564108810E+02  0.94250281716E+02  0.00000000000E+00 0.  1.
         13    1    3    3    0    0 -0.13188595397E+02  0.59534076035E+02  0.33138624217E+03  0.33694967986E+03  0.00000000000E+00 0. -1.
        -13    1    4    4    0    0  0.19264686667E+02 -0.48963063220E+02  0.12799067376E+02  0.54150954174E+02  0.00000000000E+00 0.  1.
         13    1    4    4    0    0 -0.19524697329E+01  0.34807021566E+02  0.31695774994E+02  0.47116483749E+02  0.00000000000E+00 0. -1.
          2    1    1    2  501    0 -0.22708862252E+02 -0.19032198621E+02 -0.10757723106E+02  0.31522144844E+02  0.00000000000E+00 0. -1.
<scales pt_clust_5="13000.00000" pt_clust_6="13000.00000" pt_clust_7="13000.00000" pt_clust_8="13000.00000" pt_clust_9="29.62966"></scales>
<clustering>
<clus scale="   29.630">  2  9  1 -1</clus>
<clus scale="   88.177">  7  8 -1 -1</clus>
<clus scale="   91.894">  5  6 -1 -1</clus>
<clus scale="   93.168">  2  7  1 -1</clus>
<clus scale="   29.630">  2  5  1 -1</clus>
</clustering>
</event>
<event>
 9    1  0.1399746E-005  0.1468697E+03  0.7546771E-02  0.1224240E+00
          1   -1    0    0  502    0 -0.00000000000E+00  0.00000000000E+00  0.55779665401E+03  0.55779665401E+03  0.00000000000E+00 0. -1.
         21   -1    0    0  501  502  0.00000000000E+00 -0.00000000000E+00 -0.25305056516E+03  0.25305056516E+03  0.00000000000E+00 0. -1.
         23    2    1    2    0    0 -0.93645854555E+01 -0.37295999452E+02  0.39219329393E+03  0.40386358345E+03  0.88382844460E+02 0.  0.
         23    2    1    2    0    0  0.11338469106E+03  0.79242885094E+02  0.96046900518E+02  0.19192594492E+03  0.92059970831E+02 0.  0.
        -13    1    3    3    0    0  0.22196296988E+02  0.12814112584E+02  0.46148093559E+02  0.52787532812E+02  0.00000000000E+00 0.  1.
         13    1    3    3    0    0 -0.31560882444E+02 -0.50110112037E+02  0.34604520037E+03  0.35107605063E+03  0.00000000000E+00 0. -1.
        -13    1    4    4    0    0  0.74343119542E+02  0.93180356414E+02  0.48097919055E+02  0.12854138657E+03  0.00000000000E+00 0.  1.
         13    1    4    4    0    0  0.39041571520E+02 -0.13937471320E+02  0.47948981463E+02  0.63384558348E+02  0.00000000000E+00 0. -1.
          1    1    1    2  501    0 -0.10402010561E+03 -0.41946885641E+02 -0.18349410560E+03  0.21505769080E+03  0.00000000000E+00 0. -1.
<scales pt_clust_5="13000.00000" pt_clust_6="13000.00000" pt_clust_7="13000.00000" pt_clust_8="13000.00000" pt_clust_9="114.43629"></scales>
<clustering>
<clus scale="   88.383">  5  6 -1 -1</clus>
<clus scale="   92.060">  7  8 -1 -1</clus>
<clus scale="   96.386">  1  5  2 -1</clus>
<clus scale="  114.436">  2  9  1 -1</clus>
<clus scale="  114.436">  2  5  1 -1</clus>
</clustering>
</event>
<event>
 9    1  0.1399746E-005  0.1323500E+03  0.7546771E-02  0.1224566E+00
         21   -1    0    0  501  502  0.00000000000E+00  0.00000000000E+00  0.34400568001E+02  0.34400568001E+02  0.00000000000E+00 0. -1.
          1   -1    0    0  502    0 -0.00000000000E+00 -0.00000000000E+00 -0.92523060690E+03  0.92523060690E+03  0.00000000000E+00 0. -1.
         23    2    1    2    0    0 -0.74228661187E+02 -0.79511713931E+02 -0.55473439361E+03  0.57208730114E+03  0.87872782376E+02 0.  0.
         23    2    1    2    0    0  0.48254573306E+02  0.67107814659E+02 -0.33724922703E+03  0.35873691784E+03  0.90128643932E+02 0.  0.
        -11    1    3    3    0    0 -0.28580479659E+02 -0.83686650670E+02 -0.43457651791E+03  0.44348286240E+03  0.00000000000E+00 0. -1.
         11    1    3    3    0    0 -0.45648181528E+02  0.41749367388E+01 -0.12015787569E+03  0.12860443874E+03  0.00000000000E+00 0.  1.
        -13    1    4    4    0    0 -0.20106076738E+02  0.82704354188E+01 -0.22367749789E+02  0.31192477530E+02  0.00000000000E+00 0. -1.
         13    1    4    4    0    0  0.68360650044E+02  0.58837379240E+02 -0.31488147724E+03  0.32754444031E+03  0.00000000000E+00 0.  1.
          1    1    1    2  501    0  0.25974087881E+02  0.12403899272E+02  0.11535817391E+01  0.28806955917E+02  0.00000000000E+00 0. -1.
<scales pt_clust_5="13000.00000" pt_clust_6="13000.00000" pt_clust_7="13000.00000" pt_clust_8="13000.00000" pt_clust_9="28.78385"></scales>
<clustering>
<clus scale="   28.784">  1  9  2 -1</clus>
<clus scale="   87.873">  5  6 -1 -1</clus>
<clus scale="   90.129">  7  8 -1 -1</clus>
<clus scale="  130.824">  2  5  1 -1</clus>
<clus scale="   28.784">  1  5  2 -1</clus>
</clustering>
</event>
<event>
 9    1  0.1399746E-005  0.1387456E+03  0.7546771E-02  0.1215632E+00
         21   -1    0    0  501  502  0.00000000000E+00  0.00000000000E+00  0.53289221938E+03  0.53289221938E+03  0.00000000000E+00 0.  1.
         -2   -1    0    0    0  501 -0.00000000000E+00 -0.00000000000E+00 -0.88361353911E+02  0.88361353911E+02  0.00000000000E+00 0.  1.
         23    2    1    2    0    0  0.68132689209E+02 -0.70495064682E+02  0.64323958116E+01  0.13265797205E+03  0.89135539199E+02 0.  0.
         23    2    1    2    0    0 -0.81013148636E+02  0.96006972768E+02  0.22485131115E+03  0.27344190199E+03  0.91825337289E+02 0.  0.
        -13    1    4    4    0    0 -0.52970795645E+02  0.62072172721E+02  0.56056442015E+02  0.99000931859E+02  0.00000000000E+00 0.  1.
         13    1    4    4    0    0 -0.28042352991E+02  0.33934800048E+02  0.16879486913E+03  0.17444097014E+03  0.00000000000E+00 0. -1.
        -13    1    3    3    0    0 -0.16830668527E+02 -0.29773325043E+02 -0.12762004057E+02  0.36504671410E+02  0.00000000000E+00 0. -1.
         13    1    3    3    0    0  0.84963357736E+02 -0.40721739638E+02  0.19194399869E+02  0.96153300636E+02  0.00000000000E+00 0.  1.
         -2    1    1    2    0  502  0.12880459428E+02 -0.25511908087E+02  0.21324715851E+03  0.21515369925E+03  0.00000000000E+00 0.  1.
<scales pt_clust_5="13000.00000" pt_clust_6="13000.00000" pt_clust_7="13000.00000" pt_clust_8="13000.00000" pt_clust_9="28.57908"></scales>
<clustering>
<clus scale="   28.579">  1  9  2 -1</clus>
<clus scale="   89.136">  7  8 -1 -1</clus>
<clus scale="   91.825">  5  6 -1 -1</clus>
<clus scale="  136.980">  2  7  1 -1</clus>
<clus scale="   28.579">  1  5  2 -1</clus>
</clustering>
</event>
<event>
 9    1  0.1399746E-005  0.1135821E+03  0.7546771E-02  0.1256456E+00
         21   -1    0    0  501  502  0.00000000000E+00  0.00000000000E+00  0.43020071432E+02  0.43020071432E+02  0.00000000000E+00 0.  1.
          1   -1    0    0  502    0 -0.00000000000E+00 -0.00000000000E+00 -0.36876850835E+03  0.36876850835E+03  0.00000000000E+00 0. -1.
         23    2    1    2    0    0 -0.45059895616E+02 -0.19888034673E+02 -0.15332708954E+03  0.18507693872E+03  0.91204982017E+02 0.  0.
         23    2    1    2    0    0  0.69109234509E+02  0.16217061549E+02 -0.15700745852E+03  0.19791173282E+03  0.97358269171E+02 0.  0.
        -11    1    3    3    0    0 -0.17593946684E+02  0.34412670792E+02 -0.35569714702E+02  0.52526026644E+02  0.00000000000E+00 0.  1.
         11    1    3    3    0    0 -0.27465948931E+02 -0.54300705465E+02 -0.11775737483E+03  0.13255091208E+03  0.00000000000E+00 0. -1.
        -13    1    4    4    0    0  0.91373180558E+02 -0.22795924010E+01 -0.11502804322E+03  0.14692074528E+03  0.00000000000E+00 0.  1.
         13    1    4    4    0    0 -0.22263946049E+02  0.18496653950E+02 -0.41979415306E+02  0.50990987542E+02  0.00000000000E+00 0. -1.
          1    1    1    2  501    0 -0.24049338894E+02  0.36709731238E+01 -0.15413888855E+02  0.28799908238E+02  0.00000000000E+00 0. -1.
<scales pt_clust_5="13000.00000" pt_clust_6="13000.00000" pt_clust_7="13000.00000" pt_clust_8="13000.00000" pt_clust_9="24.32790"></scales>
<clustering>
<clus scale="   24.328">  1  9  2 -1</clus>
<clus scale="   91.205">  5  6 -1 -1</clus>
<clus scale="   97.358">  7  8 -1 -1</clus>
<clus scale="  108.354">  2  5  1 -1</clus>
<clus scale="   24.328">  1  5  2 -1</clus>
</clustering>
</event>
<event>
 9    1  0.1399746E-005  0.2481044E+03  0.7546771E-02  0.1155270E+00
         21   -1    0    0  501  502  0.00000000000E+00  0.00000000000E+00  0.28016778748E+03  0.28016778748E+03  0.00000000000E+00 0. -1.
          1   -1    0    0  502    0 -0.00000000000E+00 -0.00000000000E+00 -0.32099784866E+03  0.32099784866E+03  0.00000000000E+00 0. -1.
         23    2    1    2    0    0  0.90538466169E+01 -0.15366569604E+02 -0.72140761641E+02  0.11687261813E+03  0.90204300221E+02 0.  0.
         23    2    1    2    0    0 -0.84595301927E+02 -0.20888771017E+03  0.43457996641E+02  0.24734566042E+03  0.92199987463E+02 0.  0.
        -11    1    3    3    0    0  0.27163647300E+02 -0.47488317607E+02 -0.48156222784E+02  0.72883645879E+02  0.00000000000E+00 0.  1.
         11    1    3    3    0    0 -0.18109800683E+02  0.32121748003E+02 -0.23984538857E+02  0.43988972251E+02  0.00000000000E+00 0. -1.
        -11    1    4    4    0    0  0.16064099865E+02 -0.48803641400E+02  0.25597981860E+02  0.57403025998E+02  0.00000000000E+00 0.  1.
         11    1    4    4    0    0 -0.10065940179E+03 -0.16008406877E+03  0.17860014781E+02  0.18994263442E+03  0.00000000000E+00 0. -1.
          1    1    1    2  501    0  0.75541455310E+02  0.22425427978E+03 -0.12147296180E+02  0.23694735760E+03  0.00000000000E+00 0. -1.
<scales pt_clust_5="13000.00000" pt_clust_6="13000.00000" pt_clust_7="13000.00000" pt_clust_8="13000.00000" pt_clust_9="230.33673"></scales>
<clustering>
<clus scale="   90.204">  5  6 -1 -1</clus>
<clus scale="   91.951">  2  5  1 -1</clus>
<clus scale="   92.200">  7  8 -1 -1</clus>
<clus scale="  230.337">  1  9  2 -1</clus>
<clus scale="  230.337">  1  5  2 -1</clus>
</clustering>
</event>
<event>
 9    1  0.1399746E-005  0.9555089E+02  0.7546771E-02  0.1291472E+00
         21   -1    0    0  501  502  0.00000000000E+00  0.00000000000E+00  0.22929946599E+03  0.22929946599E+03  0.00000000000E+00 0. -1.
          3   -1    0    0  502    0 -0.00000000000E+00 -0.00000000000E+00 -0.17928430259E+03  0.17928430259E+03  0.00000000000E+00 0. -1.
         23    2    1    2    0    0 -0.16987219865E+02  0.42368953454E+01 -0.13278684140E+03  0.16224127955E+03  0.91560748237E+02 0.  0.
         23    2    1    2    0    0  0.57438673502E+01  0.33983970817E+02  0.59368159652E+02  0.11663835759E+03  0.94297538654E+02 0.  0.
        -13    1    3    3    0    0  0.34217174023E+02  0.66102913954E+01 -0.25008947514E+02  0.42894736346E+02  0.00000000000E+00 0.  1.
         13    1    3    3    0    0 -0.51204393888E+02 -0.23733960500E+01 -0.10777789389E+03  0.11934654320E+03  0.00000000000E+00 0. -1.
        -13    1    4    4    0    0  0.14356634458E+02 -0.21728136880E+02  0.54071370155E+02  0.60016147458E+02  0.00000000000E+00 0.  1.
         13    1    4    4    0    0 -0.86127671078E+01  0.55712107696E+02  0.52967894965E+01  0.56622210132E+02  0.00000000000E+00 0. -1.
          3    1    1    2  501    0  0.11243352515E+02 -0.38220866162E+02  0.12343384515E+03  0.12970413144E+03  0.00000000000E+00 0. -1.
<scales pt_clust_5="13000.00000" pt_clust_6="13000.00000" pt_clust_7="13000.00000" pt_clust_8="13000.00000" pt_clust_9="39.84028"></scales>
<clustering>
<clus scale="   39.840">  1  9  2 -1</clus>
<clus scale="   91.561">  5  6 -1 -1</clus>
<clus scale="   92.851">  2  5  1 -1</clus>
<clus scale="   94.298">  7  8 -1 -1</clus>
<clus scale="   39.840">  1  5  2 -1</clus>
</clustering>
</event>
<event>
 9    1  0.1399746E-005  0.1016099E+03  0.7546771E-02  0.1277157E+00
         -4   -1    0    0    0  501 -0.00000000000E+00  0.00000000000E+00  0.17377505297E+03  0.17377505297E+03  0.00000000000E+00 0.  1.
         21   -1    0    0  501  502  0.00000000000E+00 -0.00000000000E+00 -0.76338901786E+02  0.76338901786E+02  0.00000000000E+00 0. -1.
         23    2    1    2    0    0  0.58108022242E+01 -0.36785673592E+02  0.48825978704E+02  0.10894694895E+03  0.89991723419E+02 0.  0.
         23    2    1    2    0    0 -0.17293368292E+02  0.53658087836E+02  0.54795244906E+02  0.11984136849E+03  0.90449896414E+02 0.  0.
        -11    1    3    3    0    0  0.27277066744E+02 -0.96585758069E+01  0.64707187443E+02  0.70882625259E+02  0.00000000000E+00 0.  1.
         11    1    3    3    0    0 -0.21466264520E+02 -0.27127097785E+02 -0.15881208739E+02  0.38064323686E+02  0.00000000000E+00 0. -1.
        -11    1    4    4    0    0 -0.51627764956E+02  0.41156522026E+02  0.50349647454E+02  0.83032357659E+02  0.00000000000E+00 0. -1.
         11    1    4    4    0    0  0.34334396664E+02  0.12501565810E+02  0.44455974518E+01  0.36809010836E+02  0.00000000000E+00 0.  1.
         -4    1    1    2    0  502  0.11482566068E+02 -0.16872414244E+02 -0.61850724271E+01  0.21325637314E+02  0.00000000000E+00 0.  1.
<scales pt_clust_5="13000.00000" pt_clust_6="13000.00000" pt_clust_7="13000.00000" pt_clust_8="13000.00000" pt_clust_9="20.40901"></scales>
<clustering>
<clus scale="   20.409">  2  9  1 -1</clus>
<clus scale="   89.992">  5  6 -1 -1</clus>
<clus scale="   90.450">  7  8 -1 -1</clus>
<clus scale="  101.202">  1  5  2 -1</clus>
<clus scale="   20.409">  2  5  1 -1</clus>
</clustering>
</event>
<event>
 9    1  0.1399746E-005  0.1418379E+03  0.7546771E-02  0.1211496E+00
         21   -1    0    0  501  502  0.00000000000E+00  0.00000000000E+00  0.31592973382E+03  0.31592973382E+03  0.00000000000E+00 0.  1.
         -2   -1    0    0    0  501 -0.00000000000E+00 -0.00000000000E+00 -0.27221569502E+03  0.27221569502E+03  0.00000000000E+00 0.  1.
         23    2    1    2    0    0 -0.43483746399E+02 -0.99581355425E+02 -0.18601426611E+03  0.23241535436E+03  0.87225610917E+02 0.  0.
         23    2    1    2    0    0  0.78120595172E+02  0.87397374784E+02  0.27794843630E+02  0.15048562640E+03  0.90178943842E+02 0.  0.
        -13    1    4    4    0    0  0.25455222447E+02  0.23156206695E+02 -0.32897074433E+02  0.47606677731E+02  0.00000000000E+00 0.  1.
         13    1    4    4    0    0  0.52665372725E+02  0.64241168088E+02  0.60691918064E+02  0.10287894867E+03  0.00000000000E+00 0. -1.
        -13    1    3    3    0    0  0.57308562347E+01 -0.86969313925E+02 -0.10130006370E+03  0.13363460324E+03  0.00000000000E+00 0. -1.
         13    1    3    3    0    0 -0.49214602633E+02 -0.12612041500E+02 -0.84714202402E+02  0.98780751120E+02  0.00000000000E+00 0.  1.
         -2    1    1    2    0  502 -0.34636848774E+02  0.12183980641E+02  0.20193346129E+03  0.20524444807E+03  0.00000000000E+00 0.  1.
<scales pt_clust_5="13000.00000" pt_clust_6="13000.00000" pt_clust_7="13000.00000" pt_clust_8="13000.00000" pt_clust_9="36.71731"></scales>
<clustering>
<clus scale="   36.717">  1  9  2 -1</clus>
<clus scale="   87.226">  7  8 -1 -1</clus>
<clus scale="   90.179">  5  6 -1 -1</clus>
<clus scale="  139.979">  2  7  1 -1</clus>
<clus scale="   36.717">  1  5  2 -1</clus>
</clustering>
</event>
<event>
 9    1  0.1399746E-005  0.2278525E+03  0.7546771E-02  0.1128187E+00
          2   -1    0    0  502    0 -0.00000000000E+00  0.00000000000E+00  0.13142862319E+04  0.13142862319E+04  0.00000000000E+00 0. -1.
         21   -1    0    0  501  502  0.00000000000E+00 -0.00000000000E+00 -0.63592887788E+02  0.63592887788E+02  0.00000000000E+00 0.  1.
         23    2    1    2    0    0 -0.19189678573E+03  0.52297113912E+02  0.75925025671E+03  0.79015848884E+03  0.91269494765E+02 0.  0.
         23    2    1    2    0    0  0.23281627766E+03 -0.10255895900E+02  0.45331765004E+03  0.51775336846E+03  0.90901354061E+02 0.  0.
        -11    1    4    4    0    0  0.13480122735E+03 -0.19948790945E+02  0.34713492734E+03  0.37292356179E+03  0.00000000000E+00 0.  1.
         11    1    4    4    0    0  0.98015050306E+02  0.96928950458E+01  0.10618272270E+03  0.14482980667E+03  0.00000000000E+00 0. -1.
        -11    1    3    3    0    0 -0.17586705635E+03  0.68849057203E+02  0.72254462724E+03  0.74682002687E+03  0.00000000000E+00 0. -1.
         11    1    3    3    0    0 -0.16029729381E+02 -0.16551943291E+02  0.36705629466E+02  0.43338461962E+02  0.00000000000E+00 0.  1.
          2    1    1    2  501    0 -0.40919491925E+02 -0.42041218012E+02  0.38125437349E+02  0.69967262376E+02  0.00000000000E+00 0. -1.
<scales pt_clust_5="13000.00000" pt_clust_6="13000.00000" pt_clust_7="13000.00000" pt_clust_8="13000.00000" pt_clust_9="58.66744"></scales>
<clustering>
<clus scale="   58.667">  2  9  1 -1</clus>
<clus scale="   90.901">  5  6 -1 -1</clus>
<clus scale="   91.269">  7  8 -1 -1</clus>
<clus scale="  227.705">  2  5  1 -1</clus>
<clus scale="   58.667">  2  5  1 -1</clus>
</clustering>
</event>
<event>
 9    1  0.1399746E-005  0.9941455E+02  0.7546771E-02  0.1281694E+00
          1   -1    0    0  502    0 -0.00000000000E+00  0.00000000000E+00  0.38894816934E+03  0.38894816934E+03  0.00000000000E+00 0. -1.
         21   -1    0    0  501  502  0.00000000000E+00 -0.00000000000E+00 -0.98071803336E+02  0.98071803336E+02  0.00000000000E+00 0.  1.
         23    2    1    2    0    0 -0.16100116943E+01  0.65713632537E+02  0.24618185745E+03  0.27068072479E+03  0.91332766266E+02 0.  0.
         23    2    1    2    0    0  0.12997448234E+02  0.59567474508E+01  0.91243527066E+02  0.13012365647E+03  0.91664432800E+02 0.  0.
        -11    1    4    4    0    0 -0.16872924713E+02 -0.34699898198E+02  0.58154353416E+02  0.69790453105E+02  0.00000000000E+00 0.  1.
         11    1    4    4    0    0  0.29870372946E+02  0.40656645648E+02  0.33089173650E+02  0.60333203364E+02  0.00000000000E+00 0. -1.
        -13    1    3    3    0    0  0.17443406305E+02 -0.13967140536E+02  0.19535390599E+02  0.29681390199E+02  0.00000000000E+00 0.  1.
         13    1    3    3    0    0 -0.19053417999E+02  0.79680773073E+02  0.22664646686E+03  0.24099933459E+03  0.00000000000E+00 0. -1.
          1    1    1    2  501    0 -0.11387436539E+02 -0.71670379987E+02 -0.46549018518E+02  0.86215591417E+02  0.00000000000E+00 0. -1.
<scales pt_clust_5="13000.00000" pt_clust_6="13000.00000" pt_clust_7="13000.00000" pt_clust_8="13000.00000" pt_clust_9="72.56939"></scales>
<clustering>
<clus scale="   72.569">  2  9  1 -1</clus>
<clus scale="   91.333">  7  8 -1 -1</clus>
<clus scale="   91.664">  5  6 -1 -1</clus>
<clus scale="   99.109">  1  7  2 -1</clus>
<clus scale="   72.569">  2  5  1 -1</clus>
</clustering>
</event>
<event>
 9    1  0.1399746E-005  0.1704860E+03  0.7546771E-02  0.1177446E+00
         21   -1    0    0  501  502  0.00000000000E+00  0.00000000000E+00  0.49631846852E+03  0.49631846852E+03  0.00000000000E+00 0.  1.
          1   -1    0    0  502    0 -0.00000000000E+00 -0.00000000000E+00 -0.80789458870E+02  0.80789458870E+02  0.00000000000E+00 0. -1.
         23    2    1    2    0    0  0.72160756555E+02 -0.13584836988E+03  0.12113783526E+03  0.21618650116E+03  0.91653007416E+02 0.  0.
         23    2    1    2    0    0 -0.24442150441E+02  0.13031647068E+03  0.22567972535E+03  0.27708270899E+03  0.90904829016E+02 0.  0.
        -11    1    4    4    0    0  0.26088950605E+02  0.23744445075E+02  0.21577043689E+02  0.41352156291E+02  0.00000000000E+00 0. -1.
         11    1    4    4    0    0 -0.50531101046E+02  0.10657202561E+03  0.20410268166E+03  0.23573055270E+03  0.00000000000E+00 0.  1.
        -13    1    3    3    0    0  0.81938727486E+02 -0.85936526147E+02  0.11439741138E+03  0.16488119759E+03  0.00000000000E+00 0. -1.
         13    1    3    3    0    0 -0.97779709312E+01 -0.49911843735E+02  0.67404238739E+01  0.51305303571E+02  0.00000000000E+00 0.  1.
          1    1    1    2  501    0 -0.47718606114E+02  0.55318992012E+01  0.68711449040E+02  0.83838717234E+02  0.00000000000E+00 0. -1.
<scales pt_clust_5="13000.00000" pt_clust_6="13000.00000" pt_clust_7="13000.00000" pt_clust_8="13000.00000" pt_clust_9="48.03819"></scales>
<clustering>
<clus scale="   48.038">  1  9  2 -1</clus>
<clus scale="   90.905">  5  6 -1 -1</clus>
<clus scale="   91.653">  7  8 -1 -1</clus>
<clus scale="  170.085">  1  5  2 -1</clus>
<clus scale="   48.038">  1  5  2 -1</clus>
</clustering>
</event>
<event>
 9    1  0.1399746E-005  0.9904159E+02  0.7546771E-02  0.1283258E+00
         21   -1    0    0  501  502  0.00000000000E+00  0.00000000000E+00  0.39518018135E+02  0.39518018135E+02  0.00000000000E+00 0.  1.
          1   -1    0    0  502    0 -0.00000000000E+00 -0.00000000000E+00 -0.44098942682E+03  0.44098942682E+03  0.00000000000E+00 0. -1.
         23    2    1    2    0    0  0.27298392113E+02 -0.28670850879E+02 -0.23075599532E+03  0.25059153639E+03  0.89334029529E+02 0.  0.
         23    2    1    2    0    0 -0.34190502253E+01  0.42497516631E+02 -0.17508787011E+03  0.20197815574E+03  0.91223266272E+02 0.  0.
        -11    1    3    3    0    0  0.23200772172E+02  0.22417129069E+02 -0.32405876186E+02  0.45726844593E+02  0.00000000000E+00 0.  1.
         11    1    3    3    0    0  0.40976199415E+01 -0.51087979948E+02 -0.19835011914E+03  0.20486469180E+03  0.00000000000E+00 0. -1.
        -13    1    4    4    0    0  0.28226860700E+02  0.41001507468E+02 -0.15867098936E+03  0.16629600760E+03  0.00000000000E+00 0.  1.
         13    1    4    4    0    0 -0.31645910925E+02  0.14960091631E+01 -0.16416880750E+02  0.35682148132E+02  0.00000000000E+00 0. -1.
          1    1    1    2  501    0 -0.23879341888E+02 -0.13826665752E+02  0.43724567532E+01  0.27937752824E+02  0.00000000000E+00 0. -1.
<scales pt_clust_5="13000.00000" pt_clust_6="13000.00000" pt_clust_7="13000.00000" pt_clust_8="13000.00000" pt_clust_9="27.59347"></scales>
<clustering>
<clus scale="   27.593">  1  9  2 -1</clus>
<clus scale="   89.334">  5  6 -1 -1</clus>
<clus scale="   91.223">  7  8 -1 -1</clus>
<clus scale="   97.304">  2  5  1 -1</clus>
<clus scale="   27.593">  1  5  2 -1</clus>
</clustering>
</event>
<event>
 9    1  0.1399746E-005  0.1104174E+03  0.7546771E-02  0.1262835E+00
          1   -1    0    0  502    0 -0.00000000000E+00  0.00000000000E+00  0.10481108945E+03  0.10481108945E+03  0.00000000000E+00 0. -1.
         21   -1    0    0  501  502  0.00000000000E+00 -0.00000000000E+00 -0.24318195675E+03  0.24318195675E+03  0.00000000000E+00 0.  1.
         23    2    1    2    0    0  0.44974035162E+02  0.58643364643E+02  0.61836990099E+01  0.11563438084E+03  0.88720706960E+02 0.  0.
         23    2    1    2    0    0 -0.11594169917E+02 -0.30177628388E+02 -0.24207267667E+02  0.10426500496E+03  0.96125363038E+02 0.  0.
        -13    1    4    4    0    0  0.12149182798E+02 -0.27304021507E+02 -0.56596721893E+02  0.64002352786E+02  0.00000000000E+00 0.  1.
         13    1    4    4    0    0 -0.23743352715E+02 -0.28736068816E+01  0.32389454226E+02  0.40262652169E+02  0.00000000000E+00 0. -1.
        -13    1    3    3    0    0  0.39997662127E+02 -0.13957867149E+02 -0.19606057966E+01  0.42408477998E+02  0.00000000000E+00 0.  1.
         13    1    3    3    0    0  0.49763730347E+01  0.72601231792E+02  0.81443048065E+01  0.73225902842E+02  0.00000000000E+00 0. -1.
          1    1    1    2  501    0 -0.33379865245E+02 -0.28465736255E+02 -0.12034729865E+03  0.12809366040E+03  0.00000000000E+00 0. -1.
<scales pt_clust_5="13000.00000" pt_clust_6="13000.00000" pt_clust_7="13000.00000" pt_clust_8="13000.00000" pt_clust_9="43.86928"></scales>
<clustering>
<clus scale="   43.869">  2  9  1 -1</clus>
<clus scale="   88.721">  7  8 -1 -1</clus>
<clus scale="   96.125">  5  6 -1 -1</clus>
<clus scale="  104.035">  1  7  2 -1</clus>
<clus scale="   43.869">  2  5  1 -1</clus>
</clustering>
</event>
<event>
 9    1  0.1399746E-005  0.1348371E+03  0.7546771E-02  0.1234439E+00
         21   -1    0    0  501  502  0.00000000000E+00  0.00000000000E+00  0.26858098394E+03  0.26858098394E+03  0.00000000000E+00 0. -1.
          1   -1    0    0  502    0 -0.00000000000E+00 -0.00000000000E+00 -0.14869952904E+03  0.14869952904E+03  0.00000000000E+00 0. -1.
         23    2    1    2    0    0 -0.32312932269E+02 -0.30021845353E+02  0.33866973411E+02  0.10641588249E+03  0.90729991557E+02 0.  0.
         23    2    1    2    0    0 -0.51312686456E+02  0.89223799386E+02 -0.46097801526E+02  0.14367679962E+03  0.89017623400E+02 0.  0.
        -11    1    4    4    0    0 -0.59728723681E+01  0.58252017936E+02  0.16079723859E+02  0.60725038636E+02  0.00000000000E+00 0.  1.
         11    1    4    4    0    0 -0.45339814088E+02  0.30971781450E+02 -0.62177525385E+02  0.82951760986E+02  0.00000000000E+00 0. -1.
        -13    1    3    3    0    0  0.27056359921E+02 -0.25461878693E+02 -0.14581391419E+01  0.37181716589E+02  0.00000000000E+00 0.  1.
         13    1    3    3    0    0 -0.59369292190E+02 -0.45599666599E+01  0.35325112553E+02  0.69234165901E+02  0.00000000000E+00 0. -1.
          1    1    1    2  501    0  0.83625618725E+02 -0.59201954033E+02  0.13211228302E+03  0.16718783087E+03  0.00000000000E+00 0. -1.
<scales pt_clust_5="13000.00000" pt_clust_6="13000.00000" pt_clust_7="13000.00000" pt_clust_8="13000.00000" pt_clust_9="101.27644"></scales>
<clustering>
<clus scale="   89.018">  5  6 -1 -1</clus>
<clus scale="   90.730">  7  8 -1 -1</clus>
<clus scale="  100.883">  2  7  1 -1</clus>
<clus scale="  101.276">  1  9  2 -1</clus>
<clus scale="  101.276">  1  5  2 -1</clus>
</clustering>
</event>
<event>
 9    1  0.1399746E-005  0.1644084E+03  0.7546771E-02  0.1184332E+00
         21   -1    0    0  501  502  0.00000000000E+00  0.00000000000E+00  0.15435557922E+03  0.15435557922E+03  0.00000000000E+00 0.  1.
         -4   -1    0    0    0  501 -0.00000000000E+00 -0.00000000000E+00 -0.21652960412E+03  0.21652960412E+03  0.00000000000E+00 0.  1.
         23    2    1    2    0    0  0.97324193782E+02  0.97349014691E+02 -0.67833911739E+02  0.17740863360E+03  0.89014349052E+02 0.  0.
         23    2    1    2    0    0 -0.74589137968E+02 -0.11262977115E+03 -0.57486673137E+01  0.16380266579E+03  0.92462215486E+02 0.  0.
        -11    1    3    3    0    0  0.10749564670E+03  0.71189138146E+02 -0.74019023400E+02  0.14866749233E+03  0.00000000000E+00 0.  1.
         11    1    3    3    0    0 -0.10171452920E+02  0.26159876546E+02  0.61851116613E+01  0.28741141272E+02  0.00000000000E+00 0. -1.
        -13    1    4    4    0    0 -0.60019186741E+02 -0.12189613075E+02 -0.10782756142E+02  0.62186471793E+02  0.00000000000E+00 0. -1.
         13    1    4    4    0    0 -0.14569951227E+02 -0.10044015807E+03  0.50340888285E+01  0.10161619400E+03  0.00000000000E+00 0.  1.
         -4    1    1    2    0  502 -0.22735055815E+02  0.15280756455E+02  0.11408554155E+02  0.29673883949E+02  0.00000000000E+00 0.  1.
<scales pt_clust_5="13000.00000" pt_clust_6="13000.00000" pt_clust_7="13000.00000" pt_clust_8="13000.00000" pt_clust_9="27.39314"></scales>
<clustering>
<clus scale="   27.393">  1  9  2 -1</clus>
<clus scale="   89.014">  5  6 -1 -1</clus>
<clus scale="   92.462">  7  8 -1 -1</clus>
<clus scale="  162.494">  2  5  1 -1</clus>
<clus scale="   27.393">  1  5  2 -1</clus>
</clustering>
</event>
<event>
 9    1  0.1399746E-005  0.1275415E+03  0.7546771E-02  0.1231284E+00
         -1   -1    0    0    0  501 -0.00000000000E+00  0.00000000000E+00  0.40064419941E+03  0.40064419941E+03  0.00000000000E+00 0.  1.
         21   -1    0    0  501  502  0.00000000000E+00 -0.00000000000E+00 -0.76538629956E+02  0.76538629956E+02  0.00000000000E+00 0.  1.
         23    2    1    2    0    0  0.11206126250E+03 -0.52061973815E+02  0.22288907947E+03  0.27037368800E+03  0.90300685195E+02 0.  0.
         23    2    1    2    0    0 -0.45239009583E+02  0.11382719464E+02  0.55206162129E+02  0.11605141172E+03  0.90796891664E+02 0.  0.
        -13    1    4    4    0    0 -0.13747758697E+02 -0.39494193671E+02  0.27966954856E+02  0.50308476093E+02  0.00000000000E+00 0.  1.
         13    1    4    4    0    0 -0.31491250886E+02  0.50876913135E+02  0.27239207273E+02  0.65742935631E+02  0.00000000000E+00 0. -1.
        -13    1    3    3    0    0  0.33328842419E+02  0.24230237083E+02  0.41880570534E+02  0.58752857925E+02  0.00000000000E+00 0. -1.
         13    1    3    3    0    0  0.78732420083E+02 -0.76292210898E+02  0.18100850894E+03  0.21162083008E+03  0.00000000000E+00 0.  1.
         -1    1    1    2    0  502 -0.66822252919E+02  0.40679254350E+02  0.46010327856E+02  0.90757729639E+02  0.00000000000E+00 0.  1.
<scales pt_clust_5="13000.00000" pt_clust_6="13000.00000" pt_clust_7="13000.00000" pt_clust_8="13000.00000" pt_clust_9="78.23053"></scales>
<clustering>
<clus scale="   78.231">  2  9  1 -1</clus>
<clus scale="   90.301">  7  8 -1 -1</clus>
<clus scale="   90.797">  5  6 -1 -1</clus>
<clus scale="  127.189">  1  7  2 -1</clus>
<clus scale="   78.231">  2  5  1 -1</clus>
</clustering>
</event>
<event>
 9    1  0.1399746E-005  0.1000493E+03  0.7546771E-02  0.1280924E+00
         21   -1    0    0  501  502  0.00000000000E+00  0.00000000000E+00  0.11759194768E+03  0.11759194768E+03  0.00000000000E+00 0. -1.
          2   -1    0    0  502    0 -0.00000000000E+00 -0.00000000000E+00 -0.21058529208E+03  0.21058529208E+03  0.00000000000E+00 0. -1.
         23    2    1    2    0    0  0.14833565142E+02 -0.35561630402E+02 -0.85066402787E+02  0.13063822843E+03  0.91353104119E+02 0.  0.
         23    2    1    2    0    0 -0.31597345726E+02  0.22796701761E+02 -0.76082433323E+02  0.12620081123E+03  0.92844096344E+02 0.  0.
        -11    1    3    3    0    0  0.20345918590E+02  0.27935907573E+02 -0.38283690684E+02  0.51575307150E+02  0.00000000000E+00 0. -1.
         11    1    3    3    0    0 -0.55123534479E+01 -0.63497537975E+02 -0.46782712103E+02  0.79062921279E+02  0.00000000000E+00 0.  1.
        -13    1    4    4    0    0 -0.27262258408E+02  0.49348108853E+02 -0.81162747236E+02  0.98822356376E+02  0.00000000000E+00 0. -1.
         13    1    4    4    0    0 -0.43350873186E+01 -0.26551407092E+02  0.50803139125E+01  0.27378454851E+02  0.00000000000E+00 0.  1.
          2    1    1    2  501    0  0.16763780584E+02  0.12764928641E+02  0.68155491718E+02  0.71338200103E+02  0.00000000000E+00 0. -1.
<scales pt_clust_5="13000.00000" pt_clust_6="13000.00000" pt_clust_7="13000.00000" pt_clust_8="13000.00000" pt_clust_9="21.07054"></scales>
<clustering>
<clus scale="   21.071">  1  9  2 -1</clus>
<clus scale="   91.353">  5  6 -1 -1</clus>
<clus scale="   92.844">  7  8 -1 -1</clus>
<clus scale="   98.667">  2  5  1 -1</clus>
<clus scale="   21.071">  1  5  2 -1</clus>
</clustering>
</event>
<event>
 9    1  0.1399746E-005  0.1086855E+03  0.7546771E-02  0.1263822E+00
          1   -1    0    0  502    0 -0.00000000000E+00  0.00000000000E+00  0.30760811375E+03  0.30760811375E+03  0.00000000000E+00 0. -1.
         21   -1    0    0  501  502  0.00000000000E+00 -0.00000000000E+00 -0.17953435381E+03  0.17953435381E+03  0.00000000000E+00 0. -1.
         23    2    1    2    0    0 -0.52951827439E+02 -0.45255417455E+01  0.24847275798E+03  0.26988706450E+03  0.90972191196E+02 0.  0.
         23    2    1    2    0    0  0.80051160030E+02  0.14621383083E+02 -0.36956201773E+02  0.12894345546E+03  0.92944503820E+02 0.  0.
        -13    1    3    3    0    0  0.23439723078E+02  0.12750239669E+02  0.73189054231E+02  0.77901392086E+02  0.00000000000E+00 0.  1.
         13    1    3    3    0    0 -0.76391550518E+02 -0.17275781415E+02  0.17528370375E+03  0.19198567242E+03  0.00000000000E+00 0. -1.
        -13    1    4    4    0    0  0.47327739915E+02  0.53332406072E+02 -0.31532802546E+02  0.77965236736E+02  0.00000000000E+00 0. -1.
         13    1    4    4    0    0  0.32723420115E+02 -0.38711022989E+02 -0.54233992272E+01  0.50978218722E+02  0.00000000000E+00 0.  1.
          1    1    1    2  501    0 -0.27099332590E+02 -0.10095841338E+02 -0.83442796272E+02  0.88311947600E+02  0.00000000000E+00 0. -1.
<scales pt_clust_5="13000.00000" pt_clust_6="13000.00000" pt_clust_7="13000.00000" pt_clust_8="13000.00000" pt_clust_9="28.91885"></scales>
<clustering>
<clus scale="   28.919">  2  9  1 -1</clus>
<clus scale="   90.972">  5  6 -1 -1</clus>
<clus scale="   92.945">  7  8 -1 -1</clus>
<clus scale="  107.004">  1  5  2 -1</clus>
<clus scale="   28.919">  2  5  1 -1</clus>
</clustering>
</event>
<event>
 9    1  0.1399746E-005  0.1141412E+03  0.7546771E-02  0.1254343E+00
         21   -1    0    0  501  502  0.00000000000E+00  0.00000000000E+00  0.42491004007E+02  0.42491004007E+02  0.00000000000E+00 0. -1.
          1   -1    0    0  502    0 -0.00000000000E+00 -0.00000000000E+00 -0.78481281851E+03  0.78481281851E+03  0.00000000000E+00 0. -1.
         23    2    1    2    0    0 -0.10534276561E+03  0.29727527616E+02 -0.28323906756E+03  0.31634241841E+03  0.88697982638E+02 0.  0.
         23    2    1    2    0    0  0.17328689746E+02  0.26869159278E+01 -0.89583524902E+02  0.12974381691E+03  0.92199496139E+02 0.  0.
        -13    1    4    4    0    0  0.19279364913E+02  0.34573200708E+02 -0.57132914128E+01  0.39995522467E+02  0.00000000000E+00 0. -1.
         13    1    4    4    0    0 -0.19506751668E+01 -0.31886284781E+02 -0.83870233489E+02  0.89748294447E+02  0.00000000000E+00 0.  1.
        -13    1    3    3    0    0 -0.63197342286E+02 -0.16255937423E+02 -0.21120230732E+03  0.22105332884E+03  0.00000000000E+00 0.  1.
         13    1    3    3    0    0 -0.42145423326E+02  0.45983465039E+02 -0.72036760247E+02  0.95289089571E+02  0.00000000000E+00 0. -1.
          1    1    1    2  501    0  0.88014075865E+02 -0.32414443544E+02 -0.36949922204E+03  0.38121758719E+03  0.00000000000E+00 0. -1.
<scales pt_clust_5="13000.00000" pt_clust_6="13000.00000" pt_clust_7="13000.00000" pt_clust_8="13000.00000" pt_clust_9="93.79330"></scales>
<clustering>
<clus scale="   88.698">  7  8 -1 -1</clus>
<clus scale="   92.199">  5  6 -1 -1</clus>
<clus scale="   93.793">  1  9  2 -1</clus>
<clus scale="  111.332">  2  7  1 -1</clus>
<clus scale="   93.793">  1  5  2 -1</clus>
</clustering>
</event>
<event>
 9    1  0.1399746E-005  0.9131962E+02  0.7546771E-02  0.1300357E+00
         21   -1    0    0  501  502  0.00000000000E+00  0.00000000000E+00  0.34722422782E+02  0.34722422782E+02  0.00000000000E+00 0. -1.
          2   -1    0    0  502    0 -0.00000000000E+00 -0.00000000000E+00 -0.65233346340E+03  0.65233346340E+03  0.00000000000E+00 0. -1.
         23    2    1    2    0    0 -0.20110742986E+01 -0.14152483212E+02 -0.44838285920E+03  0.45774102031E+03  0.90968764167E+02 0.  0.
         23    2    1    2    0    0  0.10128472526E+00 -0.61650301776E+01 -0.18350358423E+03  0.20441033271E+03  0.89844314461E+02 0.  0.
        -13    1    4    4    0    0 -0.29279463142E+02  0.30990799294E+02 -0.90411342916E+02  0.99959629505E+02  0.00000000000E+00 0. -1.
         13    1    4    4    0    0  0.29380747867E+02 -0.37155829472E+02 -0.93092241310E+02  0.10445070321E+03  0.00000000000E+00 0.  1.
        -13    1    3    3    0    0  0.52724619582E+01 -0.52381264559E+02 -0.28150536914E+03  0.28638587358E+03  0.00000000000E+00 0. -1.
         13    1    3    3    0    0 -0.72835362568E+01  0.38228781348E+02 -0.16687749006E+03  0.17135514673E+03  0.00000000000E+00 0.  1.
          2    1    1    2  501    0  0.19097895733E+01  0.20317513389E+02  0.14275402804E+02  0.24904533157E+02  0.00000000000E+00 0. -1.
<scales pt_clust_5="13000.00000" pt_clust_6="13000.00000" pt_clust_7="13000.00000" pt_clust_8="13000.00000" pt_clust_9="20.40707"></scales>
<clustering>
<clus scale="   20.407">  1  9  2 -1</clus>
<clus scale="   89.844">  5  6 -1 -1</clus>
<clus scale="   90.200">  1  5  2 -1</clus>
<clus scale="   90.969">  7  8 -1 -1</clus>
<clus scale="   20.407">  1  5  2 -1</clus>
</clustering>
</event>
<event>
 9    1  0.1399746E-005  0.1314015E+03  0.7546771E-02  0.1229443E+00
         -1   -1    0    0    0  501 -0.00000000000E+00  0.00000000000E+00  0.83937490186E+03  0.83937490186E+03  0.00000000000E+00 0.  1.
         21   -1    0    0  501  502  0.00000000000E+00 -0.00000000000E+00 -0.26411497090E+02  0.26411497090E+02  0.00000000000E+00 0. -1.
         23    2    1    2    0    0 -0.44997213746E+02 -0.59911234443E+02  0.39623091149E+03  0.41606287879E+03  0.10244646714E+03 0.  0.
         23    2    1    2    0    0  0.24701306444E+02  0.90526973997E+02  0.35726887696E+03  0.37982953596E+03  0.88454159771E+02 0.  0.
        -13    1    4    4    0    0  0.31491497584E+02  0.38212704659E+01  0.17527354342E+03  0.17812111484E+03  0.00000000000E+00 0.  1.
         13    1    4    4    0    0 -0.67901911404E+01  0.86705703531E+02  0.18199533354E+03  0.20170842112E+03  0.00000000000E+00 0. -1.
        -13    1    3    3    0    0  0.33108206870E+02 -0.24362023651E+02  0.12950618611E+03  0.13587315335E+03  0.00000000000E+00 0.  1.
         13    1    3    3    0    0 -0.78105420616E+02 -0.35549210791E+02  0.26672472538E+03  0.28018972545E+03  0.00000000000E+00 0. -1.
         -1    1    1    2    0  502  0.20295907302E+02 -0.30615739554E+02  0.59463616311E+02  0.69893984194E+02  0.00000000000E+00 0.  1.
<scales pt_clust_5="13000.00000" pt_clust_6="13000.00000" pt_clust_7="13000.00000" pt_clust_8="13000.00000" pt_clust_9="36.73210"></scales>
<clustering>
<clus scale="   36.732">  2  9  1 -1</clus>
<clus scale="   88.454">  5  6 -1 -1</clus>
<clus scale="  102.446">  7  8 -1 -1</clus>
<clus scale="  120.811">  2  5  1 -1</clus>
<clus scale="   36.732">  2  5  1 -1</clus>
</clustering>
</event>
<event>
 9    1  0.1418186E-005  0.2851047E+03  0.7546771E-02  0.1092960E+00
          2   -1    0    0  502    0 -0.00000000000E+00  0.00000000000E+00  0.81726665500E+03  0.81726665500E+03  0.00000000000E+00 0. -1.
         21   -1    0    0  501  502  0.00000000000E+00 -0.00000000000E+00 -0.19528348090E+03  0.19528348090E+03  0.00000000000E+00 0. -1.
         23    2    1    2    0    0  0.21061197541E+03 -0.18195280735E+03  0.64132168212E+03  0.70511604466E+03  0.91819977119E+02 0.  0.
         23    2    1    2    0    0 -0.16102109579E+03  0.17443609061E+03 -0.18388736751E+01  0.25431165178E+03  0.91188221704E+02 0.  0.
        -11    1    4    4    0    0 -0.43131811821E+02  0.20438510756E+01 -0.13209684938E+02  0.45155578773E+02  0.00000000000E+00 0.  1.
         11    1    4    4    0    0 -0.11788928397E+03  0.17239223954E+03  0.11370811263E+02  0.20915607301E+03  0.00000000000E+00 0. -1.
        -13    1    3    3    0    0  0.68823551019E+02 -0.10940448019E+02  0.18227770012E+03  0.19514490651E+03  0.00000000000E+00 0.  1.
         13    1    3    3    0    0  0.14178842439E+03 -0.17101235933E+03  0.45904398200E+03  0.50997113815E+03  0.00000000000E+00 0. -1.
          2    1    1    2  501    0 -0.49590879616E+02  0.75167167387E+01 -0.17499634345E+02  0.53122439456E+02  0.00000000000E+00 0. -1.
<scales pt_clust_5="13000.00000" pt_clust_6="13000.00000" pt_clust_7="13000.00000" pt_clust_8="13000.00000" pt_clust_9="50.15732"></scales>
<clustering>
<clus scale="   50.157">  2  9  1 -1</clus>
<clus scale="   91.188">  5  6 -1 -1</clus>
<clus scale="   91.820">  7  8 -1 -1</clus>
<clus scale="  284.902">  2  5  1 -1</clus>
<clus scale="   50.157">  2  5  1 -1</clus>
</clustering>
</event>
<event>
 9    1  0.1399746E-005  0.1069502E+03  0.7546771E-02  0.1268435E+00
          1   -1    0    0  502    0 -0.00000000000E+00  0.00000000000E+00  0.32230538580E+03  0.32230538580E+03  0.00000000000E+00 0. -1.
         21   -1    0    0  501  502  0.00000000000E+00 -0.00000000000E+00 -0.90118640178E+02  0.90118640178E+02  0.00000000000E+00 0.  1.
         23    2    1    2    0    0 -0.50184014637E+02  0.25247440620E+02  0.24262134726E+03  0.26280220891E+03  0.83928626105E+02 0.  0.
         23    2    1    2    0    0  0.60624687194E+02 -0.44025738303E+02  0.13777474668E+02  0.11725120158E+03  0.89131403746E+02 0.  0.
        -13    1    4    4    0    0  0.79643346497E+02 -0.52570178028E+02  0.13655120077E+02  0.96400978021E+02  0.00000000000E+00 0.  1.
         13    1    4    4    0    0 -0.19018659303E+02  0.85444397252E+01  0.12235459117E+00  0.20850223561E+02  0.00000000000E+00 0. -1.
        -13    1    3    3    0    0 -0.28899473100E+02 -0.29278939648E+02  0.12156429369E+03  0.12833671864E+03  0.00000000000E+00 0.  1.
         13    1    3    3    0    0 -0.21284541538E+02  0.54526380268E+02  0.12105705357E+03  0.13446549027E+03  0.00000000000E+00 0. -1.
          1    1    1    2  501    0 -0.10440672557E+02  0.18778297683E+02 -0.24212076310E+02  0.32370615480E+02  0.00000000000E+00 0. -1.
<scales pt_clust_5="13000.00000" pt_clust_6="13000.00000" pt_clust_7="13000.00000" pt_clust_8="13000.00000" pt_clust_9="21.48563"></scales>
<clustering>
<clus scale="   21.486">  2  9  1 -1</clus>
<clus scale="   83.929">  7  8 -1 -1</clus>
<clus scale="   89.131">  5  6 -1 -1</clus>
<clus scale="  102.655">  1  7  2 -1</clus>
<clus scale="   21.486">  2  5  1 -1</clus>
</clustering>
</event>
<event>
 9    1  0.1399746E-005  0.1028481E+03  0.7546771E-02  0.1276096E+00
         21   -1    0    0  501  502  0.00000000000E+00  0.00000000000E+00  0.12293754126E+03  0.12293754126E+03  0.00000000000E+00 0. -1.
          1   -1    0    0  502    0 -0.00000000000E+00 -0.00000000000E+00 -0.24188299765E+03  0.24188299765E+03  0.00000000000E+00 0. -1.
         23    2    1    2    0    0 -0.11030838696E+02  0.59816126819E+02 -0.13652604450E+03  0.17297035966E+03  0.87061679654E+02 0.  0.
         23    2    1    2    0    0  0.16447974231E+02 -0.26415204179E+02 -0.55832056308E+02  0.11101464652E+03  0.90767474140E+02 0.  0.
        -11    1    4    4    0    0 -0.24125888280E+02 -0.38013684546E+01 -0.59601671399E+02  0.64411707950E+02  0.00000000000E+00 0.  1.
         11    1    4    4    0    0  0.40573862511E+02 -0.22613835724E+02  0.37696150909E+01  0.46602938568E+02  0.00000000000E+00 0. -1.
        -13    1    3    3    0    0 -0.90098966472E+01 -0.21278021992E+02 -0.45586731890E+02  0.51108537271E+02  0.00000000000E+00 0.  1.
         13    1    3    3    0    0 -0.20209420487E+01  0.81094148811E+02 -0.90939312611E+02  0.12186182239E+03  0.00000000000E+00 0. -1.
          1    1    1    2  501    0 -0.54171355350E+01 -0.33400922641E+02  0.73412644423E+02  0.80835532731E+02  0.00000000000E+00 0. -1.
<scales pt_clust_5="13000.00000" pt_clust_6="13000.00000" pt_clust_7="13000.00000" pt_clust_8="13000.00000" pt_clust_9="33.83736"></scales>
<clustering>
<clus scale="   33.837">  1  9  2 -1</clus>
<clus scale="   87.062">  7  8 -1 -1</clus>
<clus scale="   90.767">  5  6 -1 -1</clus>
<clus scale="   99.593">  2  7  1 -1</clus>
<clus scale="   33.837">  1  5  2 -1</clus>
</clustering>
</event>
<event>
 9    1  0.1399746E-005  0.9366086E+02  0.7546771E-02  0.1294822E+00
          1   -1    0    0  502    0 -0.00000000000E+00  0.00000000000E+00  0.47280439399E+03  0.47280439399E+03  0.00000000000E+00 0. -1.
         21   -1    0    0  501  502  0.00000000000E+00 -0.00000000000E+00 -0.27305900947E+02  0.27305900947E+02  0.00000000000E+00 0.  1.
         23    2    1    2    0    0  0.41956117354E+01  0.32577393803E+02  0.19023709615E+03  0.21372209348E+03  0.91695641910E+02 0.  0.
         23    2    1    2    0    0  0.17501093502E+02 -0.30549366179E+01  0.16726636703E+03  0.19107058621E+03  0.90632833245E+02 0.  0.
        -11    1    3    3    0    0 -0.37126237934E+02  0.21773894840E+01  0.38417470933E+02  0.53469623535E+02  0.00000000000E+00 0.  1.
         11    1    3    3    0    0  0.41321849669E+02  0.30400004319E+02  0.15181962521E+03  0.16025246994E+03  0.00000000000E+00 0. -1.
        -11    1    4    4    0    0  0.41471308662E+02 -0.33240670450E+02  0.85477268948E+02  0.10065373873E+03  0.00000000000E+00 0. -1.
         11    1    4    4    0    0 -0.23970215160E+02  0.30185733832E+02  0.81789098083E+02  0.90416847474E+02  0.00000000000E+00 0.  1.
          1    1    1    2  501    0 -0.21696705237E+02 -0.29522457185E+02  0.87995029862E+02  0.95317615250E+02  0.00000000000E+00 0. -1.
<scales pt_clust_5="13000.00000" pt_clust_6="13000.00000" pt_clust_7="13000.00000" pt_clust_8="13000.00000" pt_clust_9="36.63774"></scales>
<clustering>
<clus scale="   36.638">  2  9  1 -1</clus>
<clus scale="   90.633">  7  8 -1 -1</clus>
<clus scale="   91.696">  5  6 -1 -1</clus>
<clus scale="   92.621">  2  7  1 -1</clus>
<clus scale="   36.638">  2  5  1 -1</clus>
</clustering>
</event>
<event>
 9    1  0.1399746E-005  0.1078005E+03  0.7546771E-02  0.1265489E+00
          3   -1    0    0  502    0 -0.00000000000E+00  0.00000000000E+00  0.15824966353E+03  0.15824966353E+03  0.00000000000E+00 0. -1.
         21   -1    0    0  501  502  0.00000000000E+00 -0.00000000000E+00 -0.15643256538E+03  0.15643256538E+03  0.00000000000E+00 0.  1.
         23    2    1    2    0    0  0.55980748236E+02 -0.13681852831E+02  0.50657018992E+02  0.11984231674E+03  0.92059817719E+02 0.  0.
         23    2    1    2    0    0 -0.55579740811E+02 -0.52876942853E+02 -0.49474933952E+02  0.12827687940E+03  0.90122749758E+02 0.  0.
        -11    1    4    4    0    0 -0.24007162491E+02  0.74705513044E+01  0.19139875530E+02  0.31598857938E+02  0.00000000000E+00 0. -1.
         11    1    4    4    0    0 -0.31572578320E+02 -0.60347494157E+02 -0.68614809482E+02  0.96678021458E+02  0.00000000000E+00 0.  1.
        -11    1    3    3    0    0  0.16174506795E+02  0.32492928755E+02 -0.57942479588E+01  0.36755658048E+02  0.00000000000E+00 0. -1.
         11    1    3    3    0    0  0.39806241440E+02 -0.46174781586E+02  0.56451266951E+02  0.83086658691E+02  0.00000000000E+00 0.  1.
          3    1    1    2  501    0 -0.40100742434E+00  0.66558795684E+02  0.63501310688E+00  0.66563032769E+02  0.00000000000E+00 0. -1.
<scales pt_clust_5="13000.00000" pt_clust_6="13000.00000" pt_clust_7="13000.00000" pt_clust_8="13000.00000" pt_clust_9="66.56004"></scales>
<clustering>
<clus scale="   66.560">  2  9  1 -1</clus>
<clus scale="   90.123">  5  6 -1 -1</clus>
<clus scale="   92.060">  7  8 -1 -1</clus>
<clus scale="  106.151">  2  5  1 -1</clus>
<clus scale="   66.560">  2  5  1 -1</clus>
</clustering>
</event>
<event>
 9    1  0.1399746E-005  0.9942408E+02  0.7546771E-02  0.1283457E+00
          1   -1    0    0  502    0 -0.00000000000E+00  0.00000000000E+00  0.86772523840E+03  0.86772523840E+03  0.00000000000E+00 0. -1.
         21   -1    0    0  501  502  0.00000000000E+00 -0.00000000000E+00 -0.20865320943E+02  0.20865320943E+02  0.00000000000E+00 0.  1.
         23    2    1    2    0    0 -0.69531984171E+01 -0.42096457298E+02  0.46871782109E+03  0.48002837609E+03  0.94394848179E+02 0.  0.
         23    2    1    2    0    0  0.21838221127E+02  0.12511276636E+02  0.35722246456E+03  0.36938977190E+03  0.90595112743E+02 0.  0.
        -13    1    4    4    0    0  0.33853852060E+02 -0.32792645473E+02  0.17496044460E+03  0.18119767678E+03  0.00000000000E+00 0.  1.
         13    1    4    4    0    0 -0.12015630933E+02  0.45303922109E+02  0.18226201996E+03  0.18819209512E+03  0.00000000000E+00 0. -1.
        -13    1    3    3    0    0  0.25161902991E+02 -0.58959081643E+02  0.35250310812E+03  0.35828443436E+03  0.00000000000E+00 0.  1.
         13    1    3    3    0    0 -0.32115101408E+02  0.16862624345E+02  0.11621471297E+03  0.12174394174E+03  0.00000000000E+00 0. -1.
          1    1    1    2  501    0 -0.14885022710E+02  0.29585180662E+02  0.20919631806E+02  0.39172411348E+02  0.00000000000E+00 0. -1.
<scales pt_clust_5="13000.00000" pt_clust_6="13000.00000" pt_clust_7="13000.00000" pt_clust_8="13000.00000" pt_clust_9="33.11868"></scales>
<clustering>
<clus scale="   33.119">  2  9  1 -1</clus>
<clus scale="   90.595">  5  6 -1 -1</clus>
<clus scale="   94.395">  7  8 -1 -1</clus>
<clus scale="   95.824">  2  5  1 -1</clus>
<clus scale="   33.119">  2  5  1 -1</clus>
</clustering>
</event>
<event>
 9    1  0.1399746E-005  0.1045254E+03  0.7546771E-02  0.1271252E+00
         21   -1    0    0  501  502  0.00000000000E+00  0.00000000000E+00  0.85656287977E+03  0.85656287977E+03  0.00000000000E+00 0.  1.
         -2   -1    0    0    0  501 -0.00000000000E+00 -0.00000000000E+00 -0.44518345517E+02  0.44518345517E+02  0.00000000000E+00 0.  1.
         23    2    1    2    0    0 -0.72491043079E+01 -0.35874275035E+02  0.10855071693E+03  0.14752904769E+03  0.92962619601E+02 0.  0.
         23    2    1    2    0    0  0.82921557386E+02  0.15933216675E+02  0.15397997250E+03  0.19849413413E+03  0.92521550365E+02 0.  0.
        -11    1    4    4    0    0  0.55882404736E+02  0.32770572205E+02  0.15353000225E+03  0.16663797632E+03  0.00000000000E+00 0. -1.
         11    1    4    4    0    0  0.27039152650E+02 -0.16837355530E+02  0.44997024804E+00  0.31856157811E+02  0.00000000000E+00 0.  1.
        -13    1    3    3    0    0 -0.49623474883E+02 -0.24622293976E+02  0.52047002342E+02  0.76010769453E+02  0.00000000000E+00 0.  1.
         13    1    3    3    0    0  0.42374370575E+02 -0.11251981059E+02  0.56503714588E+02  0.71518278235E+02  0.00000000000E+00 0. -1.
         -2    1    1    2    0  502 -0.75672453078E+02  0.19941058360E+02  0.54951384483E+03  0.55505804347E+03  0.00000000000E+00 0.  1.
<scales pt_clust_5="13000.00000" pt_clust_6="13000.00000" pt_clust_7="13000.00000" pt_clust_8="13000.00000" pt_clust_9="78.25577"></scales>
<clustering>
<clus scale="   78.256">  1  9  2 -1</clus>
<clus scale="   92.522">  5  6 -1 -1</clus>
<clus scale="   92.963">  7  8 -1 -1</clus>
<clus scale="  104.133">  1  5  2 -1</clus>
<clus scale="   78.256">  1  5  2 -1</clus>
</clustering>
</event>
<event>
 9    1  0.1399746E-005  0.9522003E+02  0.7546771E-02  0.1291722E+00
          4   -1    0    0  502    0 -0.00000000000E+00  0.00000000000E+00  0.24613553935E+03  0.24613553935E+03  0.00000000000E+00 0. -1.
         21   -1    0    0  501  502  0.00000000000E+00 -0.00000000000E+00 -0.52878099154E+02  0.52878099154E+02  0.00000000000E+00 0.  1.
         23    2    1    2    0    0  0.82059035984E+01 -0.48672104262E+01  0.12003946418E+03  0.15221877210E+03  0.93113130265E+02 0.  0.
         23    2    1    2    0    0 -0.30304338748E+02  0.22310859330E+02  0.61596709606E+02  0.11633709964E+03  0.91236170063E+02 0.  0.
        -11    1    3    3    0    0 -0.28841709491E+02 -0.34986325964E+02  0.50534052939E+02  0.67893870984E+02  0.00000000000E+00 0.  1.
         11    1    3    3    0    0  0.37047613090E+02  0.30119115537E+02  0.69505411237E+02  0.84324901113E+02  0.00000000000E+00 0. -1.
        -11    1    4    4    0    0  0.62306173876E+01  0.51097116778E+02  0.39261516298E+02  0.64739497975E+02  0.00000000000E+00 0.  1.
         11    1    4    4    0    0 -0.36534956135E+02 -0.28786257447E+02  0.22335193308E+02  0.51597601666E+02  0.00000000000E+00 0. -1.
          4    1    1    2  501    0  0.22098435149E+02 -0.17443648904E+02  0.11621266410E+02  0.30457766762E+02  0.00000000000E+00 0. -1.
<scales pt_clust_5="13000.00000" pt_clust_6="13000.00000" pt_clust_7="13000.00000" pt_clust_8="13000.00000" pt_clust_9="28.15354"></scales>
<clustering>
<clus scale="   28.154">  2  9  1 -1</clus>
<clus scale="   91.236">  7  8 -1 -1</clus>
<clus scale="   93.113">  5  6 -1 -1</clus>
<clus scale="   93.385">  2  7  1 -1</clus>
<clus scale="   28.154">  2  5  1 -1</clus>
</clustering>
</event>
<event>
 9    1  0.1399746E-005  0.9263801E+02  0.7546771E-02  0.1297098E+00
         21   -1    0    0  501  502  0.00000000000E+00  0.00000000000E+00  0.36865328895E+02  0.36865328895E+02  0.00000000000E+00 0. -1.
         -3   -1    0    0    0  501 -0.00000000000E+00 -0.00000000000E+00 -0.60775608220E+03  0.60775608220E+03  0.00000000000E+00 0.  1.
         23    2    1    2    0    0 -0.50045783979E+01 -0.10677260204E+01 -0.33814886931E+03  0.35021480222E+03  0.90992109712E+02 0.  0.
         23    2    1    2    0    0  0.43415318072E+02  0.69179614391E+01 -0.61863865394E+02  0.11916703739E+03  0.91874354007E+02 0.  0.
        -11    1    3    3    0    0  0.12262338583E+02  0.40413337339E+02 -0.11317740666E+03  0.12080036491E+03  0.00000000000E+00 0. -1.
         11    1    3    3    0    0 -0.17266916981E+02 -0.41481063360E+02 -0.22497146265E+03  0.22941443731E+03  0.00000000000E+00 0.  1.
        -13    1    4    4    0    0  0.72066713367E+01 -0.28308508211E+02  0.10390472432E+02  0.31004349150E+02  0.00000000000E+00 0. -1.
         13    1    4    4    0    0  0.36208646736E+02  0.35226469650E+02 -0.72254337825E+02  0.88162688236E+02  0.00000000000E+00 0.  1.
         -3    1    1    2    0  502 -0.38410739674E+02 -0.58502354187E+01 -0.17087801860E+03  0.17523957150E+03  0.00000000000E+00 0.  1.
<scales pt_clust_5="13000.00000" pt_clust_6="13000.00000" pt_clust_7="13000.00000" pt_clust_8="13000.00000" pt_clust_9="38.85372"></scales>
<clustering>
<clus scale="   38.854">  1  9  2 -1</clus>
<clus scale="   90.992">  5  6 -1 -1</clus>
<clus scale="   91.763">  2  5  1 -1</clus>
<clus scale="   91.874">  7  8 -1 -1</clus>
<clus scale="   38.854">  1  5  2 -1</clus>
</clustering>
</event>
<event>
 9    1  0.1399746E-005  0.1982944E+03  0.7546771E-02  0.1178379E+00
          1   -1    0    0  502    0 -0.00000000000E+00  0.00000000000E+00  0.78236063033E+03  0.78236063033E+03  0.00000000000E+00 0. -1.
         21   -1    0    0  501  502  0.00000000000E+00 -0.00000000000E+00 -0.75169880463E+02  0.75169880463E+02  0.00000000000E+00 0.  1.
         23    2    1    2    0    0 -0.36865285304E+02 -0.10240485817E+02  0.17005054787E+03  0.20029898707E+03  0.98684236737E+02 0.  0.
         23    2    1    2    0    0 -0.44727439136E+02  0.16878553712E+03  0.32427429172E+03  0.37955220917E+03  0.91744001766E+02 0.  0.
        -11    1    4    4    0    0 -0.46518912044E+02  0.23933971752E+02  0.81666179192E+02  0.96985612362E+02  0.00000000000E+00 0. -1.
         11    1    4    4    0    0  0.17914729079E+01  0.14485156537E+03  0.24260811253E+03  0.28256659681E+03  0.00000000000E+00 0.  1.
        -11    1    3    3    0    0 -0.64712045316E+02 -0.66651603060E+00  0.67112037575E+02  0.93231532435E+02  0.00000000000E+00 0.  1.
         11    1    3    3    0    0  0.27846760012E+02 -0.95739697867E+01  0.10293851029E+03  0.10706745463E+03  0.00000000000E+00 0. -1.
          1    1    1    2  501    0  0.81592724440E+02 -0.15854505130E+03  0.21286591028E+03  0.27767931456E+03  0.00000000000E+00 0. -1.
<scales pt_clust_5="13000.00000" pt_clust_6="13000.00000" pt_clust_7="13000.00000" pt_clust_8="13000.00000" pt_clust_9="175.79447"></scales>
<clustering>
<clus scale="   91.744">  5  6 -1 -1</clus>
<clus scale="   98.684">  7  8 -1 -1</clus>
<clus scale="  105.842">  1  7  2 -1</clus>
<clus scale="  175.794">  2  9  1 -1</clus>
<clus scale="  175.794">  2  5  1 -1</clus>
</clustering>
</event>
<event>
 9    1  0.1399746E-005  0.9346309E+02  0.7546771E-02  0.1298298E+00
         -2   -1    0    0    0  501 -0.00000000000E+00  0.00000000000E+00  0.12139414163E+03  0.12139414163E+03  0.00000000000E+00 0.  1.
         21   -1    0    0  501  502  0.00000000000E+00 -0.00000000000E+00 -0.11773545010E+03  0.11773545010E+03  0.00000000000E+00 0.  1.
         23    2    1    2    0    0 -0.74111240321E+01 -0.16946752170E+02  0.20414699813E+02  0.89602939525E+02  0.85263178656E+02 0.  0.
         23    2    1    2    0    0 -0.39540731162E+02  0.15855674444E+02 -0.18218116686E+02  0.10253936756E+03  0.91474314927E+02 0.  0.
        -13    1    4    4    0    0  0.23238250970E+02 -0.17571706226E+02 -0.58515199593E-01  0.29133907940E+02  0.00000000000E+00 0. -1.
         13    1    4    4    0    0 -0.62778982132E+02  0.33427380670E+02 -0.18159601486E+02  0.73405459621E+02  0.00000000000E+00 0.  1.
        -13    1    3    3    0    0 -0.21301438560E+02  0.30326605042E+02  0.23879413917E+01  0.37136996677E+02  0.00000000000E+00 0.  1.
         13    1    3    3    0    0  0.13890314528E+02 -0.47273357212E+02  0.18026758421E+02  0.52465942848E+02  0.00000000000E+00 0. -1.
         -2    1    1    2    0  502  0.46951855194E+02  0.10910777255E+01  0.14621084005E+01  0.46987284639E+02  0.00000000000E+00 0.  1.
<scales pt_clust_5="13000.00000" pt_clust_6="13000.00000" pt_clust_7="13000.00000" pt_clust_8="13000.00000" pt_clust_9="46.96455"></scales>
<clustering>
<clus scale="   46.965">  2  9  1 -1</clus>
<clus scale="   85.263">  7  8 -1 -1</clus>
<clus scale="   87.393">  1  7  2 -1</clus>
<clus scale="   91.474">  5  6 -1 -1</clus>
<clus scale="   46.965">  2  5  1 -1</clus>
</clustering>
</event>
<event>
 9    1  0.1399746E-005  0.1160790E+03  0.7546771E-02  0.1252308E+00
          1   -1    0    0  502    0 -0.00000000000E+00  0.00000000000E+00  0.34841331514E+03  0.34841331514E+03  0.00000000000E+00 0. -1.
         21   -1    0    0  501  502  0.00000000000E+00 -0.00000000000E+00 -0.88867475552E+02  0.88867475552E+02  0.00000000000E+00 0. -1.
         23    2    1    2    0    0 -0.23533594954E+02 -0.37621480724E+02  0.15284461052E+03  0.18303375872E+03  0.90391791455E+02 0.  0.
         23    2    1    2    0    0  0.71439825534E+02  0.75007844137E+02  0.12649441167E+03  0.19033680449E+03  0.97454797765E+02 0.  0.
        -13    1    3    3    0    0 -0.31961887538E+02 -0.56949130523E+02  0.14745691540E+03  0.16127091375E+03  0.00000000000E+00 0.  1.
         13    1    3    3    0    0  0.84282925844E+01  0.19327649799E+02  0.53876951264E+01  0.21762844975E+02  0.00000000000E+00 0. -1.
        -13    1    4    4    0    0 -0.36273335885E+01  0.57100853064E+02  0.85700559053E+02  0.10304489697E+03  0.00000000000E+00 0.  1.
         13    1    4    4    0    0  0.75067159123E+02  0.17906991074E+02  0.40793852614E+02  0.87291907524E+02  0.00000000000E+00 0. -1.
          1    1    1    2  501    0 -0.47906230580E+02 -0.37386363414E+02 -0.19793182608E+02  0.63910227472E+02  0.00000000000E+00 0. -1.
<scales pt_clust_5="13000.00000" pt_clust_6="13000.00000" pt_clust_7="13000.00000" pt_clust_8="13000.00000" pt_clust_9="60.76798"></scales>
<clustering>
<clus scale="   60.768">  2  9  1 -1</clus>
<clus scale="   90.392">  5  6 -1 -1</clus>
<clus scale="   97.455">  7  8 -1 -1</clus>
<clus scale="  110.216">  1  5  2 -1</clus>
<clus scale="   60.768">  2  5  1 -1</clus>
</clustering>
</event>
<event>
 9    1  0.1399746E-005  0.1390566E+03  0.7546771E-02  0.1216283E+00
         21   -1    0    0  501  502  0.00000000000E+00  0.00000000000E+00  0.78245905076E+02  0.78245905076E+02  0.00000000000E+00 0.  1.
          2   -1    0    0  502    0 -0.00000000000E+00 -0.00000000000E+00 -0.30311662130E+03  0.30311662130E+03  0.00000000000E+00 0. -1.
         23    2    1    2    0    0 -0.61228639630E+02 -0.87354411803E+02 -0.12795432733E+03  0.18742971983E+03  0.85894414374E+02 0.  0.
         23    2    1    2    0    0  0.74751653924E+02  0.67002887085E+02 -0.99507153599E+02  0.16936110461E+03  0.93296910427E+02 0.  0.
        -11    1    4    4    0    0  0.37425177329E+02  0.84343113721E+02 -0.49895611532E+02  0.10489984166E+03  0.00000000000E+00 0.  1.
         11    1    4    4    0    0  0.37326476596E+02 -0.17340226636E+02 -0.49611542067E+02  0.64461262950E+02  0.00000000000E+00 0. -1.
        -13    1    3    3    0    0 -0.29791722201E+02 -0.29427060959E+02  0.17813805688E+01  0.41912670460E+02  0.00000000000E+00 0.  1.
         13    1    3    3    0    0 -0.31436917429E+02 -0.57927350845E+02 -0.12973570790E+03  0.14551704937E+03  0.00000000000E+00 0. -1.
          2    1    1    2  501    0 -0.13523014294E+02  0.20351524718E+02  0.25907647113E+01  0.24571701930E+02  0.00000000000E+00 0. -1.
<scales pt_clust_5="13000.00000" pt_clust_6="13000.00000" pt_clust_7="13000.00000" pt_clust_8="13000.00000" pt_clust_9="24.43474"></scales>
<clustering>
<clus scale="   24.435">  1  9  2 -1</clus>
<clus scale="   85.894">  7  8 -1 -1</clus>
<clus scale="   93.297">  5  6 -1 -1</clus>
<clus scale="  134.202">  2  7  1 -1</clus>
<clus scale="   24.435">  1  5  2 -1</clus>
</clustering>
</event>
<event>
 9    1  0.1399746E-005  0.1189806E+03  0.7546771E-02  0.1244852E+00
         -3   -1    0    0    0  501 -0.00000000000E+00  0.00000000000E+00  0.12940317403E+04  0.12940317403E+04  0.00000000000E+00 0.  1.
         21   -1    0    0  501  502  0.00000000000E+00 -0.00000000000E+00 -0.24610805449E+02  0.24610805449E+02  0.00000000000E+00 0.  1.
         23    2    1    2    0    0 -0.84760305946E+02 -0.36545858771E+02  0.72348902535E+03  0.73529862053E+03  0.93315498665E+02 0.  0.
         23    2    1    2    0    0  0.59819428359E+02 -0.18966738816E+02  0.48238530800E+03  0.49535604862E+03  0.93508974622E+02 0.  0.
        -11    1    4    4    0    0 -0.19262518314E+02 -0.21412687249E+02  0.74616369733E+02  0.79982188137E+02  0.00000000000E+00 0. -1.
         11    1    4    4    0    0  0.79081946673E+02  0.24459484325E+01  0.40776893827E+03  0.41537386048E+03  0.00000000000E+00 0.  1.
        -13    1    3    3    0    0 -0.96670150875E+02 -0.42416866141E+01  0.52356023311E+03  0.53242692237E+03  0.00000000000E+00 0.  1.
         13    1    3    3    0    0  0.11909844929E+02 -0.32304172157E+02  0.19992879224E+03  0.20287169816E+03  0.00000000000E+00 0. -1.
         -3    1    1    2    0  502  0.24940877587E+02  0.55512597587E+02  0.63546601471E+02  0.87987876575E+02  0.00000000000E+00 0.  1.
<scales pt_clust_5="13000.00000" pt_clust_6="13000.00000" pt_clust_7="13000.00000" pt_clust_8="13000.00000" pt_clust_9="60.85800"></scales>
<clustering>
<clus scale="   60.858">  2  9  1 -1</clus>
<clus scale="   93.315">  7  8 -1 -1</clus>
<clus scale="   93.509">  5  6 -1 -1</clus>
<clus scale="  118.829">  1  7  2 -1</clus>
<clus scale="   60.858">  2  5  1 -1</clus>
</clustering>
</event>
<event>
 9    1  0.1399746E-005  0.1212933E+03  0.7546771E-02  0.1248522E+00
         21   -1    0    0  501  502  0.00000000000E+00  0.00000000000E+00  0.11219666877E+03  0.11219666877E+03  0.00000000000E+00 0. -1.
          4   -1    0    0  502    0 -0.00000000000E+00 -0.00000000000E+00 -0.31464076600E+03  0.31464076600E+03  0.00000000000E+00 0. -1.
         23    2    1    2    0    0 -0.34729987642E+02 -0.27237073553E+02 -0.20381368066E+03  0.22779822599E+03  0.91673251944E+02 0.  0.
         23    2    1    2    0    0  0.32633494058E+02  0.83351121633E+02 -0.53573711632E+01  0.14248451317E+03  0.11072840944E+03 0.  0.
        -11    1    3    3    0    0  0.25108229462E+02 -0.32567375940E+02 -0.94616832323E+02  0.10316686542E+03  0.00000000000E+00 0.  1.
         11    1    3    3    0    0 -0.59838217104E+02  0.53303023875E+01 -0.10919684834E+03  0.12463136056E+03  0.00000000000E+00 0. -1.
        -11    1    4    4    0    0 -0.77253056656E+01  0.36474137259E+02 -0.52724413005E+02  0.64574815239E+02  0.00000000000E+00 0. -1.
         11    1    4    4    0    0  0.40358799724E+02  0.46876984374E+02  0.47367041842E+02  0.77909697933E+02  0.00000000000E+00 0.  1.
          4    1    1    2  501    0  0.20964935836E+01 -0.56114048080E+02  0.67269545972E+01  0.56554695609E+02  0.00000000000E+00 0. -1.
<scales pt_clust_5="13000.00000" pt_clust_6="13000.00000" pt_clust_7="13000.00000" pt_clust_8="13000.00000" pt_clust_9="56.15320"></scales>
<clustering>
<clus scale="   56.153">  1  9  2 -1</clus>
<clus scale="   91.673">  5  6 -1 -1</clus>
<clus scale="  104.189">  2  5  1 -1</clus>
<clus scale="  110.728">  7  8 -1 -1</clus>
<clus scale="   56.153">  1  5  2 -1</clus>
</clustering>
</event>
<event>
 9    1  0.1399746E-005  0.2935195E+03  0.7546771E-02  0.1088937E+00
          1   -1    0    0  502    0 -0.00000000000E+00  0.00000000000E+00  0.44935095486E+03  0.44935095486E+03  0.00000000000E+00 0. -1.
         21   -1    0    0  501  502  0.00000000000E+00 -0.00000000000E+00 -0.39727261528E+03  0.39727261528E+03  0.00000000000E+00 0. -1.
         23    2    1    2    0    0  0.74452957844E+02 -0.20293983302E+03  0.53181600373E+02  0.24250616853E+03  0.96193245072E+02 0.  0.
         23    2    1    2    0    0 -0.18659521920E+03  0.35532111009E+03  0.33371937352E+02  0.41180390840E+03  0.86011078759E+02 0.  0.
        -11    1    4    4    0    0 -0.16458472363E+03  0.34903268659E+03  0.40036071063E+02  0.38796241384E+03  0.00000000000E+00 0. -1.
         11    1    4    4    0    0 -0.22010495563E+02  0.62884234986E+01 -0.66641337107E+01  0.23841494566E+02  0.00000000000E+00 0.  1.
        -13    1    3    3    0    0  0.37840625921E+02 -0.21191806734E+02  0.35904238452E+02  0.56303818535E+02  0.00000000000E+00 0.  1.
         13    1    3    3    0    0  0.36612331923E+02 -0.18174802629E+03  0.17277361921E+02  0.18620235000E+03  0.00000000000E+00 0. -1.
          1    1    1    2  501    0  0.11214226135E+03 -0.15238127707E+03 -0.34475198144E+02  0.19231349320E+03  0.00000000000E+00 0. -1.
<scales pt_clust_5="13000.00000" pt_clust_6="13000.00000" pt_clust_7="13000.00000" pt_clust_8="13000.00000" pt_clust_9="189.19815"></scales>
<clustering>
<clus scale="   86.011">  5  6 -1 -1</clus>
<clus scale="   96.193">  7  8 -1 -1</clus>
<clus scale="  189.198">  2  9  1 -1</clus>
<clus scale="  290.342">  2  5  1 -1</clus>
<clus scale="  189.198">  2  5  1 -1</clus>
</clustering>
</event>
<event>
 9    1  0.1399746E-005  0.1143244E+03  0.7546771E-02  0.1253195E+00
         21   -1    0    0  501  502  0.00000000000E+00  0.00000000000E+00  0.14560705216E+03  0.14560705216E+03  0.00000000000E+00 0. -1.
         -3   -1    0    0    0  501 -0.00000000000E+00 -0.00000000000E+00 -0.13646496944E+03  0.13646496944E+03  0.00000000000E+00 0.  1.
         23    2    1    2    0    0  0.55761071005E+02  0.52834580009E+02 -0.51843399832E+02  0.12919028550E+03  0.90008898880E+02 0.  0.
         23    2    1    2    0    0 -0.22540905099E+02 -0.49632030229E+02  0.52017300171E+02  0.11832361052E+03  0.91231828124E+02 0.  0.
        -11    1    4    4    0    0  0.14910077367E+02 -0.63866378835E+02  0.25983506941E+02  0.70543372371E+02  0.00000000000E+00 0.  1.
         11    1    4    4    0    0 -0.37450982467E+02  0.14234348606E+02  0.26033793230E+02  0.47780238152E+02  0.00000000000E+00 0. -1.
        -13    1    3    3    0    0  0.46647355998E+02  0.26600957806E+02  0.15876656806E+02  0.55996919640E+02  0.00000000000E+00 0. -1.
         13    1    3    3    0    0  0.91137150065E+01  0.26233622203E+02 -0.67720056638E+02  0.73193365862E+02  0.00000000000E+00 0.  1.
         -3    1    1    2    0  502 -0.33220165905E+02 -0.32025497798E+01  0.89681823829E+01  0.34558125573E+02  0.00000000000E+00 0.  1.
<scales pt_clust_5="13000.00000" pt_clust_6="13000.00000" pt_clust_7="13000.00000" pt_clust_8="13000.00000" pt_clust_9="33.37418"></scales>
<clustering>
<clus scale="   33.374">  1  9  2 -1</clus>
<clus scale="   90.009">  7  8 -1 -1</clus>
<clus scale="   91.232">  5  6 -1 -1</clus>
<clus scale="  113.351">  2  7  1 -1</clus>
<clus scale="   33.374">  1  5  2 -1</clus>
</clustering>
</event>
<event>
 9    1  0.1399746E-005  0.1042995E+03  0.7546771E-02  0.1281276E+00
         21   -1    0    0  501  502  0.00000000000E+00  0.00000000000E+00  0.41962002071E+03  0.41962002071E+03  0.00000000000E+00 0.  1.
         -3   -1    0    0    0  501 -0.00000000000E+00 -0.00000000000E+00 -0.10252164343E+03  0.10252164343E+03  0.00000000000E+00 0.  1.
         23    2    1    2    0    0 -0.30496307971E+02 -0.43833280889E+02 -0.34120015901E+02  0.11652555878E+03  0.97788798189E+02 0.  0.
         23    2    1    2    0    0  0.18223070413E+02 -0.28032119890E+01  0.38835865792E+02  0.89533144330E+02  0.78536750436E+02 0.  0.
        -11    1    4    4    0    0  0.42582446591E+01 -0.39722050747E+02  0.11679511961E+02  0.41621928869E+02  0.00000000000E+00 0.  1.
         11    1    4    4    0    0  0.13964825754E+02  0.36918838758E+02  0.27156353830E+02  0.47911215461E+02  0.00000000000E+00 0. -1.
        -13    1    3    3    0    0 -0.40423263889E+02 -0.70329842063E+02 -0.15317240805E+02  0.82552679023E+02  0.00000000000E+00 0.  1.
         13    1    3    3    0    0  0.99269559175E+01  0.26496561174E+02 -0.18802775096E+02  0.33972879760E+02  0.00000000000E+00 0. -1.
         -3    1    1    2    0  502  0.12273237558E+02  0.46636492878E+02  0.31238252739E+03  0.31608296102E+03  0.00000000000E+00 0.  1.
<scales pt_clust_5="13000.00000" pt_clust_6="13000.00000" pt_clust_7="13000.00000" pt_clust_8="13000.00000" pt_clust_9="48.22442"></scales>
<clustering>
<clus scale="   48.224">  1  9  2 -1</clus>
<clus scale="   78.537">  5  6 -1 -1</clus>
<clus scale="   86.509">  1  5  2 -1</clus>
<clus scale="   97.789">  7  8 -1 -1</clus>
<clus scale="   48.224">  1  5  2 -1</clus>
</clustering>
</event>
<event>
 9    1  0.1399746E-005  0.3811753E+03  0.7546771E-02  0.1051158E+00
          2   -1    0    0  502    0 -0.00000000000E+00  0.00000000000E+00  0.79886450111E+03  0.79886450111E+03  0.00000000000E+00 0. -1.
         21   -1    0    0  501  502  0.00000000000E+00 -0.00000000000E+00 -0.26335869069E+03  0.26335869069E+03  0.00000000000E+00 0. -1.
         23    2    1    2    0    0  0.33735819219E+03  0.92364719790E+02  0.34569060745E+03  0.50538444211E+03  0.11648882758E+03 0.  0.
         23    2    1    2    0    0 -0.36496648905E+03 -0.10561408538E+03  0.26743523707E+03  0.47339635377E+03  0.90706276395E+02 0.  0.
        -11    1    3    3    0    0  0.22033777127E+02  0.30559195739E+02  0.80056103662E+02  0.88477858882E+02  0.00000000000E+00 0. -1.
         11    1    3    3    0    0  0.31532441507E+03  0.61805524050E+02  0.26563450379E+03  0.41690658323E+03  0.00000000000E+00 0.  1.
        -11    1    4    4    0    0 -0.21537978191E+03 -0.99187984694E+02  0.13136514606E+03  0.27107841736E+03  0.00000000000E+00 0.  1.
         11    1    4    4    0    0 -0.14958670714E+03 -0.64261006836E+01  0.13607009101E+03  0.20231793641E+03  0.00000000000E+00 0. -1.
          2    1    1    2  501    0  0.27608296856E+02  0.13249365588E+02 -0.77620034093E+02  0.83442395917E+02  0.00000000000E+00 0. -1.
<scales pt_clust_5="13000.00000" pt_clust_6="13000.00000" pt_clust_7="13000.00000" pt_clust_8="13000.00000" pt_clust_9="30.62293"></scales>
<clustering>
<clus scale="   30.623">  2  9  1 -1</clus>
<clus scale="   90.706">  7  8 -1 -1</clus>
<clus scale="  116.489">  5  6 -1 -1</clus>
<clus scale="  374.102">  2  7  1 -1</clus>
<clus scale="   30.623">  2  5  1 -1</clus>
</clustering>
</event>
<event>
 9    1  0.1399746E-005  0.1115196E+03  0.7546771E-02  0.1257811E+00
          1   -1    0    0  502    0 -0.00000000000E+00  0.00000000000E+00  0.42631637144E+03  0.42631637144E+03  0.00000000000E+00 0. -1.
         21   -1    0    0  501  502  0.00000000000E+00 -0.00000000000E+00 -0.66449110695E+02  0.66449110695E+02  0.00000000000E+00 0. -1.
         23    2    1    2    0    0 -0.40814597867E+02  0.35979072320E+02  0.21037892569E+03  0.23555201586E+03  0.90912786541E+02 0.  0.
         23    2    1    2    0    0  0.51570970489E+02 -0.61119321651E+02  0.17958127467E+03  0.21655246895E+03  0.90831718701E+02 0.  0.
        -11    1    3    3    0    0  0.24028898837E+02 -0.10382749792E+02  0.55532192683E+02  0.61392295093E+02  0.00000000000E+00 0.  1.
         11    1    3    3    0    0 -0.64843496704E+02  0.46361822112E+02  0.15484673301E+03  0.17415972077E+03  0.00000000000E+00 0. -1.
        -13    1    4    4    0    0 -0.23479226109E+02 -0.96585543207E+01  0.67904389730E+02  0.72495295536E+02  0.00000000000E+00 0. -1.
         13    1    4    4    0    0  0.75050196597E+02 -0.51460767330E+02  0.11167688494E+03  0.14405717342E+03  0.00000000000E+00 0.  1.
          1    1    1    2  501    0 -0.10756372622E+02  0.25140249331E+02 -0.30092939616E+02  0.40660997321E+02  0.00000000000E+00 0. -1.
<scales pt_clust_5="13000.00000" pt_clust_6="13000.00000" pt_clust_7="13000.00000" pt_clust_8="13000.00000" pt_clust_9="27.34468"></scales>
<clustering>
<clus scale="   27.345">  2  9  1 -1</clus>
<clus scale="   90.832">  7  8 -1 -1</clus>
<clus scale="   90.913">  5  6 -1 -1</clus>
<clus scale="  111.454">  2  7  1 -1</clus>
<clus scale="   27.345">  2  5  1 -1</clus>
</clustering>
</event>
<event>
 9    1  0.1399746E-005  0.9910890E+02  0.7546771E-02  0.1284078E+00
         21   -1    0    0  501  502  0.00000000000E+00  0.00000000000E+00  0.40443254817E+02  0.40443254817E+02  0.00000000000E+00 0.  1.
          2   -1    0    0  502    0 -0.00000000000E+00 -0.00000000000E+00 -0.50401666994E+03  0.50401666994E+03  0.00000000000E+00 0. -1.
         23    2    1    2    0    0 -0.19977818957E+02  0.25481723496E+02 -0.30929939795E+03  0.32462182223E+03  0.93084791529E+02 0.  0.
         23    2    1    2    0    0  0.11608874096E+02  0.76654460102E+01 -0.15768347459E+03  0.18548117478E+03  0.96672969431E+02 0.  0.
        -11    1    3    3    0    0  0.26919411033E+02 -0.12750102966E+02 -0.48670887776E+02  0.57062028819E+02  0.00000000000E+00 0.  1.
         11    1    3    3    0    0 -0.46897229991E+02  0.38231826462E+02 -0.26062851017E+03  0.26755979341E+03  0.00000000000E+00 0. -1.
        -13    1    4    4    0    0 -0.29423642304E+01  0.47467986399E+02 -0.11880294384E+03  0.12796877238E+03  0.00000000000E+00 0. -1.
         13    1    4    4    0    0  0.14551238326E+02 -0.39802540389E+02 -0.38880530755E+02  0.57512402402E+02  0.00000000000E+00 0.  1.
          2    1    1    2  501    0  0.83689448614E+01 -0.33147169506E+02  0.34094574170E+01  0.34356927747E+02  0.00000000000E+00 0. -1.
<scales pt_clust_5="13000.00000" pt_clust_6="13000.00000" pt_clust_7="13000.00000" pt_clust_8="13000.00000" pt_clust_9="34.18734"></scales>
<clustering>
<clus scale="   34.187">  1  9  2 -1</clus>
<clus scale="   93.085">  5  6 -1 -1</clus>
<clus scale="   95.612">  2  5  1 -1</clus>
<clus scale="   96.673">  7  8 -1 -1</clus>
<clus scale="   34.187">  1  5  2 -1</clus>
</clustering>
</event>
<event>
 9    1  0.1399746E-005  0.9583319E+02  0.7546771E-02  0.1289465E+00
         21   -1    0    0  501  502  0.00000000000E+00  0.00000000000E+00  0.44248445649E+02  0.44248445649E+02  0.00000000000E+00 0.  1.
          1   -1    0    0  502    0 -0.00000000000E+00 -0.00000000000E+00 -0.28678788740E+03  0.28678788740E+03  0.00000000000E+00 0. -1.
         23    2    1    2    0    0  0.11339629080E+01  0.32073143851E+02 -0.16444781864E+03  0.19091150561E+03  0.91510357300E+02 0.  0.
         23    2    1    2    0    0  0.16716786004E+02 -0.20231604275E+02 -0.63190525266E+02  0.11403049829E+03  0.91220300984E+02 0.  0.
        -13    1    4    4    0    0 -0.24953184552E+02  0.23665924351E+02 -0.22409164472E+02  0.41047631442E+02  0.00000000000E+00 0.  1.
         13    1    4    4    0    0  0.41669970556E+02 -0.43897528626E+02 -0.40781360793E+02  0.72982866850E+02  0.00000000000E+00 0. -1.
        -13    1    3    3    0    0 -0.27685500455E+02  0.41727960199E+02 -0.14823265606E+03  0.15646287074E+03  0.00000000000E+00 0.  1.
         13    1    3    3    0    0  0.28819463364E+02 -0.96548163476E+01 -0.16215162576E+02  0.34448634873E+02  0.00000000000E+00 0. -1.
          1    1    1    2  501    0 -0.17850748912E+02 -0.11841539576E+02 -0.14901097848E+02  0.26094329141E+02  0.00000000000E+00 0. -1.
<scales pt_clust_5="13000.00000" pt_clust_6="13000.00000" pt_clust_7="13000.00000" pt_clust_8="13000.00000" pt_clust_9="21.42128"></scales>
<clustering>
<clus scale="   21.421">  1  9  2 -1</clus>
<clus scale="   91.220">  5  6 -1 -1</clus>
<clus scale="   91.510">  7  8 -1 -1</clus>
<clus scale="   95.556">  1  5  2 -1</clus>
<clus scale="   21.421">  1  5  2 -1</clus>
</clustering>
</event>
<event>
 9    1  0.1399746E-005  0.1065615E+03  0.7546771E-02  0.1269668E+00
         -1   -1    0    0    0  501 -0.00000000000E+00  0.00000000000E+00  0.26228432354E+03  0.26228432354E+03  0.00000000000E+00 0.  1.
         21   -1    0    0  501  502  0.00000000000E+00 -0.00000000000E+00 -0.37430664209E+03  0.37430664209E+03  0.00000000000E+00 0.  1.
         23    2    1    2    0    0  0.21037128511E+02 -0.41611574163E+02  0.23609479838E+03  0.25924629316E+03  0.96404371358E+02 0.  0.
         23    2    1    2    0    0 -0.29369268238E+02  0.15536947848E+02 -0.15703116521E+03  0.18430801368E+03  0.90590873688E+02 0.  0.
        -11    1    3    3    0    0 -0.31256791282E+02 -0.33528682920E+02  0.60826508041E+02  0.76164451420E+02  0.00000000000E+00 0. -1.
         11    1    3    3    0    0  0.52293919793E+02 -0.80828912435E+01  0.17526829034E+03  0.18308184174E+03  0.00000000000E+00 0.  1.
        -13    1    4    4    0    0 -0.15903626416E+02 -0.27973620637E+02 -0.15671159820E+02  0.35791535799E+02  0.00000000000E+00 0. -1.
         13    1    4    4    0    0 -0.13465641822E+02  0.43510568485E+02 -0.14136000539E+03  0.14851647789E+03  0.00000000000E+00 0.  1.
         -1    1    1    2    0  502  0.83321397271E+01  0.26074626315E+02 -0.19108595172E+03  0.19303665878E+03  0.00000000000E+00 0.  1.
<scales pt_clust_5="13000.00000" pt_clust_6="13000.00000" pt_clust_7="13000.00000" pt_clust_8="13000.00000" pt_clust_9="27.37354"></scales>
<clustering>
<clus scale="   27.374">  2  9  1 -1</clus>
<clus scale="   90.591">  7  8 -1 -1</clus>
<clus scale="   96.404">  5  6 -1 -1</clus>
<clus scale="  101.332">  2  7  1 -1</clus>
<clus scale="   27.374">  2  5  1 -1</clus>
</clustering>
</event>
<event>
 9    1  0.1399746E-005  0.1812090E+03  0.7546771E-02  0.1166844E+00
         21   -1    0    0  501  502  0.00000000000E+00  0.00000000000E+00  0.16986340032E+03  0.16986340032E+03  0.00000000000E+00 0.  1.
          2   -1    0    0  502    0 -0.00000000000E+00 -0.00000000000E+00 -0.35271808789E+03  0.35271808789E+03  0.00000000000E+00 0. -1.
         23    2    1    2    0    0 -0.33637139359E+02 -0.15380497331E+03 -0.24924759096E+03  0.30818305121E+03  0.89805370088E+02 0.  0.
         23    2    1    2    0    0  0.54077453296E+02  0.14376149843E+03  0.47991668383E+02  0.18511903688E+03  0.91510208153E+02 0.  0.
        -11    1    4    4    0    0 -0.85575716994E+00  0.11777480106E+03  0.27070981537E+02  0.12084897239E+03  0.00000000000E+00 0. -1.
         11    1    4    4    0    0  0.54933210466E+02  0.25986697368E+02  0.20920686846E+02  0.64270064496E+02  0.00000000000E+00 0.  1.
        -13    1    3    3    0    0  0.28705390684E+02 -0.49221259631E+02 -0.56804019880E+02  0.80457619456E+02  0.00000000000E+00 0.  1.
         13    1    3    3    0    0 -0.62342530042E+02 -0.10458371368E+03 -0.19244357108E+03  0.22772543176E+03  0.00000000000E+00 0. -1.
          2    1    1    2  501    0 -0.20440313938E+02  0.10043474878E+02  0.18401235010E+02  0.29279400120E+02  0.00000000000E+00 0. -1.
<scales pt_clust_5="13000.00000" pt_clust_6="13000.00000" pt_clust_7="13000.00000" pt_clust_8="13000.00000" pt_clust_9="22.77450"></scales>
<clustering>
<clus scale="   22.774">  1  9  2 -1</clus>
<clus scale="   89.805">  7  8 -1 -1</clus>
<clus scale="   91.510">  5  6 -1 -1</clus>
<clus scale="  180.354">  2  7  1 -1</clus>
<clus scale="   22.774">  1  5  2 -1</clus>
</clustering>
</event>
<event>
 9    1  0.1399746E-005  0.9264174E+02  0.7546771E-02  0.1297581E+00
         21   -1    0    0  501  502  0.00000000000E+00  0.00000000000E+00  0.20393674722E+03  0.20393674722E+03  0.00000000000E+00 0. -1.
         -1   -1    0    0    0  501 -0.00000000000E+00 -0.00000000000E+00 -0.10384401328E+03  0.10384401328E+03  0.00000000000E+00 0.  1.
         23    2    1    2    0    0 -0.20703682462E+02 -0.50817160281E+01 -0.45483227219E+02  0.10460223479E+03  0.91752042268E+02 0.  0.
         23    2    1    2    0    0 -0.92393040780E+01 -0.13828721843E+02  0.57153077453E+02  0.10792731330E+03  0.90029064227E+02 0.  0.
        -11    1    3    3    0    0 -0.35591364738E+02  0.25243399725E+02 -0.54327649062E+02  0.69681187749E+02  0.00000000000E+00 0.  1.
         11    1    3    3    0    0  0.14887682276E+02 -0.30325115753E+02  0.88444218431E+01  0.34921047045E+02  0.00000000000E+00 0. -1.
        -13    1    4    4    0    0  0.17204101582E+02  0.29022644411E+02  0.28309871668E+01  0.33857192562E+02  0.00000000000E+00 0.  1.
         13    1    4    4    0    0 -0.26443405660E+02 -0.42851366253E+02  0.54322090287E+02  0.74070120735E+02  0.00000000000E+00 0. -1.
         -1    1    1    2    0  502  0.29942986540E+02  0.18910437871E+02  0.88422883703E+02  0.95251212411E+02  0.00000000000E+00 0.  1.
<scales pt_clust_5="13000.00000" pt_clust_6="13000.00000" pt_clust_7="13000.00000" pt_clust_8="13000.00000" pt_clust_9="35.41450"></scales>
<clustering>
<clus scale="   35.415">  1  9  2 -1</clus>
<clus scale="   90.029">  7  8 -1 -1</clus>
<clus scale="   90.936">  1  7  2 -1</clus>
<clus scale="   91.752">  5  6 -1 -1</clus>
<clus scale="   35.415">  1  5  2 -1</clus>
</clustering>
</event>
<event>
 9    1  0.1399746E-005  0.1637379E+03  0.7546771E-02  0.1188836E+00
         21   -1    0    0  501  502  0.00000000000E+00  0.00000000000E+00  0.12499608416E+03  0.12499608416E+03  0.00000000000E+00 0. -1.
         -1   -1    0    0    0  501 -0.00000000000E+00 -0.00000000000E+00 -0.25616133619E+03  0.25616133619E+03  0.00000000000E+00 0.  1.
         23    2    1    2    0    0 -0.23502983306E+02  0.94657641260E+02 -0.89522314333E+02  0.16987783301E+03  0.10645080606E+03 0.  0.
         23    2    1    2    0    0  0.41860833463E+02 -0.10623510850E+03 -0.62207180681E+02  0.18138081647E+03  0.12645568235E+03 0.  0.
        -13    1    3    3    0    0  0.28554004091E+02  0.74264788242E+02 -0.80609747620E+02  0.11326306253E+03  0.00000000000E+00 0.  1.
         13    1    3    3    0    0 -0.52056987397E+02  0.20392853018E+02 -0.89125667137E+01  0.56614770480E+02  0.00000000000E+00 0. -1.
        -13    1    4    4    0    0 -0.35132790774E+02 -0.49693516411E+02  0.99493527172E+01  0.61666426687E+02  0.00000000000E+00 0. -1.
         13    1    4    4    0    0  0.76993624237E+02 -0.56541592087E+02 -0.72156533398E+02  0.11971438978E+03  0.00000000000E+00 0.  1.
         -1    1    1    2    0  502 -0.18357850157E+02  0.11577467238E+02  0.20564242989E+02  0.29898770873E+02  0.00000000000E+00 0.  1.
<scales pt_clust_5="13000.00000" pt_clust_6="13000.00000" pt_clust_7="13000.00000" pt_clust_8="13000.00000" pt_clust_9="21.70365"></scales>
<clustering>
<clus scale="   21.704">  1  9  2 -1</clus>
<clus scale="  106.451">  5  6 -1 -1</clus>
<clus scale="  126.456">  7  8 -1 -1</clus>
<clus scale="  148.832">  2  5  1 -1</clus>
<clus scale="   21.704">  1  5  2 -1</clus>
</clustering>
</event>
<event>
 9    1  0.1399746E-005  0.1879131E+03  0.7546771E-02  0.1162424E+00
          1   -1    0    0  502    0 -0.00000000000E+00  0.00000000000E+00  0.82182438710E+03  0.82182438710E+03  0.00000000000E+00 0. -1.
         21   -1    0    0  501  502  0.00000000000E+00 -0.00000000000E+00 -0.30888427932E+03  0.30888427932E+03  0.00000000000E+00 0. -1.
         23    2    1    2    0    0  0.12817187954E+02 -0.13937334033E+03  0.37287554804E+03  0.41256513867E+03  0.10763183089E+03 0.  0.
         23    2    1    2    0    0 -0.65646811501E+02  0.16081368793E+03  0.40344963245E+03  0.44865817720E+03  0.91389320827E+02 0.  0.
        -11    1    3    3    0    0  0.12441361384E+02  0.15781112288E+02  0.61040972960E+02  0.64263763958E+02  0.00000000000E+00 0.  1.
         11    1    3    3    0    0  0.37582656980E+00 -0.15515445262E+03  0.31183457508E+03  0.34830137472E+03  0.00000000000E+00 0. -1.
        -13    1    4    4    0    0 -0.29597871386E+02  0.59344445735E+02  0.26549757798E+03  0.27365445574E+03  0.00000000000E+00 0. -1.
         13    1    4    4    0    0 -0.36048940115E+02  0.10146924220E+03  0.13795205447E+03  0.17500372147E+03  0.00000000000E+00 0.  1.
          1    1    1    2  501    0  0.52829623546E+02 -0.21440347599E+02 -0.26338507271E+03  0.26948535054E+03  0.00000000000E+00 0. -1.
<scales pt_clust_5="13000.00000" pt_clust_6="13000.00000" pt_clust_7="13000.00000" pt_clust_8="13000.00000" pt_clust_9="57.01454"></scales>
<clustering>
<clus scale="   57.015">  2  9  1 -1</clus>
<clus scale="   91.389">  7  8 -1 -1</clus>
<clus scale="  107.632">  5  6 -1 -1</clus>
<clus scale="  179.105">  2  7  1 -1</clus>
<clus scale="   57.015">  2  5  1 -1</clus>
</clustering>
</event>
<event>
 9    1  0.1399746E-005  0.1472432E+03  0.7546771E-02  0.1207313E+00
         21   -1    0    0  501  502  0.00000000000E+00  0.00000000000E+00  0.59732808821E+03  0.59732808821E+03  0.00000000000E+00 0. -1.
         -4   -1    0    0    0  501 -0.00000000000E+00 -0.00000000000E+00 -0.14580009151E+03  0.14580009151E+03  0.00000000000E+00 0.  1.
         23    2    1    2    0    0  0.10085373288E+03  0.14916355747E+02 -0.30429546947E+02  0.14031944990E+03  0.91485614094E+02 0.  0.
         23    2    1    2    0    0 -0.99569934658E+02  0.99019726463E+02  0.96573691392E+02  0.20093338528E+03  0.10643622190E+03 0.  0.
        -11    1    3    3    0    0  0.33618386331E+02  0.28977388165E+02 -0.51958944201E+02  0.68334594510E+02  0.00000000000E+00 0.  1.
         11    1    3    3    0    0  0.67235346554E+02 -0.14061032418E+02  0.21529397254E+02  0.71984855386E+02  0.00000000000E+00 0. -1.
        -13    1    4    4    0    0 -0.10425301792E+03  0.64192453057E+02  0.10873709305E+03  0.16374711655E+03  0.00000000000E+00 0.  1.
         13    1    4    4    0    0  0.46830832648E+01  0.34827273406E+02 -0.12163401655E+02  0.37186268723E+02  0.00000000000E+00 0. -1.
         -4    1    1    2    0  502 -0.12837982269E+01 -0.11393608221E+03  0.38538385226E+03  0.40187534454E+03  0.00000000000E+00 0.  1.
<scales pt_clust_5="13000.00000" pt_clust_6="13000.00000" pt_clust_7="13000.00000" pt_clust_8="13000.00000" pt_clust_9="113.94331"></scales>
<clustering>
<clus scale="   91.486">  5  6 -1 -1</clus>
<clus scale="  106.436">  7  8 -1 -1</clus>
<clus scale="  113.943">  1  9  2 -1</clus>
<clus scale="  136.827">  2  5  1 -1</clus>
<clus scale="  113.943">  1  5  2 -1</clus>
</clustering>
</event>
<event>
 9    1  0.1399746E-005  0.1407707E+03  0.7546771E-02  0.1214329E+00
          1   -1    0    0  502    0 -0.00000000000E+00  0.00000000000E+00  0.62509442287E+03  0.62509442287E+03  0.00000000000E+00 0. -1.
         21   -1    0    0  501  502  0.00000000000E+00 -0.00000000000E+00 -0.51055987156E+02  0.51055987156E+02  0.00000000000E+00 0.  1.
         23    2    1    2    0    0 -0.86429413847E+02  0.52687802764E+02  0.43739889122E+03  0.45988303151E+03  0.99642182319E+02 0.  0.
         23    2    1    2    0    0  0.64775633268E+02 -0.73694489326E+02  0.12721388325E+03  0.18466025615E+03  0.91045470450E+02 0.  0.
        -11    1    4    4    0    0  0.48875091774E+02 -0.12625781494E+02  0.98860366380E+01  0.51438494095E+02  0.00000000000E+00 0. -1.
         11    1    4    4    0    0  0.15900541494E+02 -0.61068707832E+02  0.11732784661E+03  0.13322176206E+03  0.00000000000E+00 0.  1.
        -13    1    3    3    0    0 -0.74995973805E+01  0.52402851222E+02  0.97541354603E+02  0.11098026237E+03  0.00000000000E+00 0.  1.
         13    1    3    3    0    0 -0.78929816467E+02  0.28495154220E+00  0.33985753662E+03  0.34890276915E+03  0.00000000000E+00 0. -1.
          1    1    1    2  501    0  0.21653780579E+02  0.21006686562E+02  0.94256612446E+01  0.31607122355E+02  0.00000000000E+00 0. -1.
<scales pt_clust_5="13000.00000" pt_clust_6="13000.00000" pt_clust_7="13000.00000" pt_clust_8="13000.00000" pt_clust_9="30.16898"></scales>
<clustering>
<clus scale="   30.169">  2  9  1 -1</clus>
<clus scale="   91.045">  5  6 -1 -1</clus>
<clus scale="   99.642">  7  8 -1 -1</clus>
<clus scale="  134.823">  2  5  1 -1</clus>
<clus scale="   30.169">  2  5  1 -1</clus>
</clustering>
</event>
<event>
 9    1  0.1399746E-005  0.1020216E+03  0.7546771E-02  0.1276193E+00
          2   -1    0    0  502    0 -0.00000000000E+00  0.00000000000E+00  0.28148704511E+03  0.28148704511E+03  0.00000000000E+00 0. -1.
         21   -1    0    0  501  502  0.00000000000E+00 -0.00000000000E+00 -0.59083730512E+02  0.59083730512E+02  0.00000000000E+00 0.  1.
         23    2    1    2    0    0  0.49323165211E+02  0.23763728683E+02  0.16211970679E+03  0.19413497250E+03  0.91695685782E+02 0.  0.
         23    2    1    2    0    0 -0.28831462386E+02 -0.32088493627E+01  0.66071998399E+02  0.11683988425E+03  0.91893958677E+02 0.  0.
        -13    1    4    4    0    0 -0.46972471298E+02  0.89645108436E+01  0.78341604461E+02  0.91783345461E+02  0.00000000000E+00 0.  1.
         13    1    4    4    0    0  0.18141008912E+02 -0.12173360206E+02 -0.12269606062E+02  0.25056538787E+02  0.00000000000E+00 0. -1.
        -13    1    3    3    0    0  0.18163217583E+02 -0.29228228697E+02  0.21271557982E+02  0.40455790744E+02  0.00000000000E+00 0.  1.
         13    1    3    3    0    0  0.31159947628E+02  0.52991957380E+02  0.14084814880E+03  0.15367918175E+03  0.00000000000E+00 0. -1.
          2    1    1    2  501    0 -0.20491702825E+02 -0.20554879320E+02 -0.57883905853E+01  0.29595918876E+02  0.00000000000E+00 0. -1.
<scales pt_clust_5="13000.00000" pt_clust_6="13000.00000" pt_clust_7="13000.00000" pt_clust_8="13000.00000" pt_clust_9="29.02435"></scales>
<clustering>
<clus scale="   29.024">  2  9  1 -1</clus>
<clus scale="   91.696">  7  8 -1 -1</clus>
<clus scale="   91.894">  5  6 -1 -1</clus>
<clus scale="  101.843">  1  7  2 -1</clus>
<clus scale="   29.024">  2  5  1 -1</clus>
</clustering>
</event>
<event>
 9    1  0.1399746E-005  0.9993050E+02  0.7546771E-02  0.1292991E+00
         -3   -1    0    0    0  501 -0.00000000000E+00  0.00000000000E+00  0.31917052877E+02  0.31917052877E+02  0.00000000000E+00 0.  1.
         21   -1    0    0  501  502  0.00000000000E+00 -0.00000000000E+00 -0.45607311174E+03  0.45607311174E+03  0.00000000000E+00 0. -1.
         23    2    1    2    0    0 -0.95553309013E+01 -0.52892888578E+02 -0.10477440254E+03  0.13501771373E+03  0.66054111024E+02 0.  0.
         23    2    1    2    0    0 -0.20010519797E+02  0.20275017960E+02 -0.27355433190E+03  0.28942554951E+03  0.90131453717E+02 0.  0.
        -11    1    4    4    0    0  0.19610527138E+02  0.35789166048E+02 -0.66337558515E+02  0.77885228707E+02  0.00000000000E+00 0.  1.
         11    1    4    4    0    0 -0.39621046935E+02 -0.15514148088E+02 -0.20721677339E+03  0.21154032080E+03  0.00000000000E+00 0. -1.
        -13    1    3    3    0    0 -0.36427159832E+02 -0.43393997869E+02 -0.69348724458E+02  0.89550112274E+02  0.00000000000E+00 0. -1.
         13    1    3    3    0    0  0.26871828931E+02 -0.94988907092E+01 -0.35425678082E+02  0.45467601458E+02  0.00000000000E+00 0.  1.
         -3    1    1    2    0  502  0.29565850698E+02  0.32617870618E+02 -0.45827324424E+02  0.63546901380E+02  0.00000000000E+00 0.  1.
<scales pt_clust_5="13000.00000" pt_clust_6="13000.00000" pt_clust_7="13000.00000" pt_clust_8="13000.00000" pt_clust_9="44.02348"></scales>
<clustering>
<clus scale="   44.023">  2  9  1 -1</clus>
<clus scale="   66.054">  7  8 -1 -1</clus>
<clus scale="   78.902">  1  7  2 -1</clus>
<clus scale="   90.131">  5  6 -1 -1</clus>
<clus scale="   44.023">  2  5  1 -1</clus>
</clustering>
</event>
<event>
 9    1  0.1399746E-005  0.1064278E+03  0.7546771E-02  0.1269766E+00
         -3   -1    0    0    0  501 -0.00000000000E+00  0.00000000000E+00  0.13874327299E+03  0.13874327299E+03  0.00000000000E+00 0.  1.
         21   -1    0    0  501  502  0.00000000000E+00 -0.00000000000E+00 -0.30066365691E+03  0.30066365691E+03  0.00000000000E+00 0. -1.
         23    2    1    2    0    0 -0.31221128495E+01 -0.40179466502E+02  0.86420952428E+02  0.13266140522E+03  0.92229769053E+02 0.  0.
         23    2    1    2    0    0 -0.15955864469E+02  0.53252764635E+02 -0.82669181205E+02  0.13946688488E+03  0.97603134702E+02 0.  0.
        -13    1    3    3    0    0 -0.22641385956E+02 -0.64521217427E+02  0.67967077223E+02  0.96411324244E+02  0.00000000000E+00 0.  1.
         13    1    3    3    0    0  0.19519273106E+02  0.24341750925E+02  0.18453875204E+02  0.36250080976E+02  0.00000000000E+00 0. -1.
        -13    1    4    4    0    0 -0.43246518004E+02  0.20011292492E+02 -0.15804199480E+01  0.47678201244E+02  0.00000000000E+00 0.  1.
         13    1    4    4    0    0  0.27290653535E+02  0.33241472144E+02 -0.81088761257E+02  0.91788683632E+02  0.00000000000E+00 0. -1.
         -3    1    1    2    0  502  0.19077977319E+02 -0.13073298134E+02 -0.16567215514E+03  0.16727863980E+03  0.00000000000E+00 0.  1.
<scales pt_clust_5="13000.00000" pt_clust_6="13000.00000" pt_clust_7="13000.00000" pt_clust_8="13000.00000" pt_clust_9="23.12748"></scales>
<clustering>
<clus scale="   23.127">  2  9  1 -1</clus>
<clus scale="   92.230">  5  6 -1 -1</clus>
<clus scale="   97.603">  7  8 -1 -1</clus>
<clus scale="  101.523">  1  5  2 -1</clus>
<clus scale="   23.127">  2  5  1 -1</clus>
</clustering>
</event>
<event>
 9    1  0.1399746E-005  0.1153267E+03  0.7546771E-02  0.1252752E+00
         21   -1    0    0  501  502  0.00000000000E+00  0.00000000000E+00  0.13561129155E+03  0.13561129155E+03  0.00000000000E+00 0.  1.
          2   -1    0    0  502    0 -0.00000000000E+00 -0.00000000000E+00 -0.20393865456E+03  0.20393865456E+03  0.00000000000E+00 0. -1.
         23    2    1    2    0    0  0.68762961164E+02  0.23525002324E+02 -0.13726496851E+03  0.17766339642E+03  0.86260305392E+02 0.  0.
         23    2    1    2    0    0 -0.66169456117E+02  0.43176727913E+01  0.35450302386E+02  0.11825926127E+03  0.91276994450E+02 0.  0.
        -11    1    4    4    0    0 -0.50659997722E+02  0.34852621786E+02 -0.89993198886E+01  0.62146024596E+02  0.00000000000E+00 0. -1.
         11    1    4    4    0    0 -0.15509458395E+02 -0.30534948995E+02  0.44449622274E+02  0.56113236675E+02  0.00000000000E+00 0.  1.
        -13    1    3    3    0    0  0.16190086129E+02  0.15373243234E+02  0.74044278445E+01  0.23521926964E+02  0.00000000000E+00 0.  1.
         13    1    3    3    0    0  0.52572875034E+02  0.81517590898E+01 -0.14466939635E+03  0.15414146946E+03  0.00000000000E+00 0. -1.
          2    1    1    2  501    0 -0.25935050462E+01 -0.27842675115E+02  0.33487303108E+02  0.43627288427E+02  0.00000000000E+00 0. -1.
<scales pt_clust_5="13000.00000" pt_clust_6="13000.00000" pt_clust_7="13000.00000" pt_clust_8="13000.00000" pt_clust_9="27.96320"></scales>
<clustering>
<clus scale="   27.963">  1  9  2 -1</clus>
<clus scale="   86.260">  7  8 -1 -1</clus>
<clus scale="   91.277">  5  6 -1 -1</clus>
<clus scale="  111.398">  2  7  1 -1</clus>
<clus scale="   27.963">  1  5  2 -1</clus>
</clustering>
</event>
<event>
 9    1  0.1399746E-005  0.1091757E+03  0.7546771E-02  0.1263547E+00
         -2   -1    0    0    0  501 -0.00000000000E+00  0.00000000000E+00  0.28499643903E+02  0.28499643903E+02  0.00000000000E+00 0.  1.
         21   -1    0    0  501  502  0.00000000000E+00 -0.00000000000E+00 -0.72517232054E+03  0.72517232054E+03  0.00000000000E+00 0. -1.
         23    2    1    2    0    0  0.56262968327E+02 -0.22495750027E+02 -0.16187413126E+03  0.19655679084E+03  0.93593574985E+02 0.  0.
         23    2    1    2    0    0 -0.94301662609E+01  0.40865182367E+02 -0.37122402549E+03  0.38597963974E+03  0.97026357405E+02 0.  0.
        -11    1    3    3    0    0 -0.90742065728E+01  0.27325883043E+02 -0.50841815690E+02  0.58428891241E+02  0.00000000000E+00 0.  1.
         11    1    3    3    0    0  0.65337174900E+02 -0.49821633070E+02 -0.11103231557E+03  0.13812789959E+03  0.00000000000E+00 0. -1.
        -13    1    4    4    0    0  0.60674263337E+01  0.68766894341E+02 -0.30142871065E+03  0.30923286860E+03  0.00000000000E+00 0.  1.
         13    1    4    4    0    0 -0.15497592595E+02 -0.27901711974E+02 -0.69795314837E+02  0.76746771140E+02  0.00000000000E+00 0. -1.
         -2    1    1    2    0  502 -0.46832802066E+02 -0.18369432340E+02 -0.16357451989E+03  0.17113553386E+03  0.00000000000E+00 0.  1.
<scales pt_clust_5="13000.00000" pt_clust_6="13000.00000" pt_clust_7="13000.00000" pt_clust_8="13000.00000" pt_clust_9="50.30653"></scales>
<clustering>
<clus scale="   50.307">  2  9  1 -1</clus>
<clus scale="   93.594">  5  6 -1 -1</clus>
<clus scale="   97.026">  7  8 -1 -1</clus>
<clus scale="  106.137">  1  5  2 -1</clus>
<clus scale="   50.307">  2  5  1 -1</clus>
</clustering>
</event>
<event>
 9    1  0.1399746E-005  0.1679059E+03  0.7546771E-02  0.1180376E+00
          1   -1    0    0  502    0 -0.00000000000E+00  0.00000000000E+00  0.60746390038E+03  0.60746390038E+03  0.00000000000E+00 0. -1.
         21   -1    0    0  501  502  0.00000000000E+00 -0.00000000000E+00 -0.53353675659E+02  0.53353675659E+02  0.00000000000E+00 0.  1.
         23    2    1    2    0    0 -0.91055760204E+02 -0.94444779401E+02  0.27358185452E+03  0.31668638976E+03  0.90731860546E+02 0.  0.
         23    2    1    2    0    0  0.11130438506E+03  0.10242898212E+03  0.25086314434E+03  0.30733743780E+03  0.92971076003E+02 0.  0.
        -11    1    4    4    0    0  0.37893311958E+02  0.59654709253E+02  0.19029661988E+03  0.20299603682E+03  0.00000000000E+00 0. -1.
         11    1    4    4    0    0  0.73411073100E+02  0.42774272863E+02  0.60566524462E+02  0.10434140098E+03  0.00000000000E+00 0.  1.
        -13    1    3    3    0    0 -0.10183111549E+03 -0.50317027699E+02  0.20639513545E+03  0.23558508293E+03  0.00000000000E+00 0. -1.
         13    1    3    3    0    0  0.10775355291E+02 -0.44127751702E+02  0.67186719064E+02  0.81101306836E+02  0.00000000000E+00 0.  1.
          1    1    1    2  501    0 -0.20248624854E+02 -0.79842027154E+01  0.29665225862E+02  0.36793748476E+02  0.00000000000E+00 0. -1.
<scales pt_clust_5="13000.00000" pt_clust_6="13000.00000" pt_clust_7="13000.00000" pt_clust_8="13000.00000" pt_clust_9="21.76590"></scales>
<clustering>
<clus scale="   21.766">  2  9  1 -1</clus>
<clus scale="   90.732">  7  8 -1 -1</clus>
<clus scale="   92.971">  5  6 -1 -1</clus>
<clus scale="  166.676">  1  7  2 -1</clus>
<clus scale="   21.766">  2  5  1 -1</clus>
</clustering>
</event>
<event>
 9    1  0.1399746E-005  0.1088750E+03  0.7546771E-02  0.1263716E+00
         21   -1    0    0  501  502  0.00000000000E+00  0.00000000000E+00  0.56715929394E+02  0.56715929394E+02  0.00000000000E+00 0.  1.
          1   -1    0    0  502    0 -0.00000000000E+00 -0.00000000000E+00 -0.47252330337E+03  0.47252330337E+03  0.00000000000E+00 0. -1.
         23    2    1    2    0    0 -0.40567639187E+02 -0.29999490763E+02 -0.25888699087E+03  0.27975877140E+03  0.93256599441E+02 0.  0.
         23    2    1    2    0    0  0.27858755853E+02  0.84015165766E+02 -0.65753692657E+02  0.14275382781E+03  0.90666691241E+02 0.  0.
        -11    1    4    4    0    0  0.99497456118E+01  0.22983267238E+02  0.22703106235E+02  0.33803240131E+02  0.00000000000E+00 0.  1.
         11    1    4    4    0    0  0.17909010242E+02  0.61031898528E+02 -0.88456798892E+02  0.10895058768E+03  0.00000000000E+00 0. -1.
        -11    1    3    3    0    0  0.25198267168E+02 -0.22459363798E+01 -0.12987103641E+03  0.13231206671E+03  0.00000000000E+00 0.  1.
         11    1    3    3    0    0 -0.65765906355E+02 -0.27753554383E+02 -0.12901595445E+03  0.14744670469E+03  0.00000000000E+00 0. -1.
          1    1    1    2  501    0  0.12708883334E+02 -0.54015675003E+02 -0.91166690450E+02  0.10672663355E+03  0.00000000000E+00 0. -1.
<scales pt_clust_5="13000.00000" pt_clust_6="13000.00000" pt_clust_7="13000.00000" pt_clust_8="13000.00000" pt_clust_9="55.49065"></scales>
<clustering>
<clus scale="   55.491">  1  9  2 -1</clus>
<clus scale="   90.667">  5  6 -1 -1</clus>
<clus scale="   93.257">  7  8 -1 -1</clus>
<clus scale="  106.665">  1  5  2 -1</clus>
<clus scale="   55.491">  1  5  2 -1</clus>
</clustering>
</event>
<event>
 9    1  0.1399746E-005  0.1317878E+03  0.7546771E-02  0.1229018E+00
          1   -1    0    0  502    0 -0.00000000000E+00  0.00000000000E+00  0.66880535322E+02  0.66880535322E+02  0.00000000000E+00 0. -1.
         21   -1    0    0  501  502  0.00000000000E+00 -0.00000000000E+00 -0.40264770472E+03  0.40264770472E+03  0.00000000000E+00 0.  1.
         23    2    1    2    0    0  0.55886732090E+02  0.66763537988E+02 -0.42047312141E+02  0.14252455111E+03  0.10471186362E+03 0.  0.
         23    2    1    2    0    0 -0.31294203015E+02 -0.50729285674E+02 -0.26329238883E+03  0.28472224420E+03  0.90504622861E+02 0.  0.
        -11    1    4    4    0    0 -0.30275902526E+02  0.20522890295E+02 -0.76354144441E+02  0.84662711232E+02  0.00000000000E+00 0. -1.
         11    1    4    4    0    0 -0.10183004889E+01 -0.71252175969E+02 -0.18693824439E+03  0.20005953297E+03  0.00000000000E+00 0.  1.
        -13    1    3    3    0    0  0.16452868323E+01  0.21994219806E+02  0.32987585157E+02  0.39681651278E+02  0.00000000000E+00 0.  1.
         13    1    3    3    0    0  0.54241445257E+02  0.44769318181E+02 -0.75034897298E+02  0.10284289984E+03  0.00000000000E+00 0. -1.
          1    1    1    2  501    0 -0.24592529074E+02 -0.16034252314E+02 -0.30427468431E+02  0.42281444732E+02  0.00000000000E+00 0. -1.
<scales pt_clust_5="13000.00000" pt_clust_6="13000.00000" pt_clust_7="13000.00000" pt_clust_8="13000.00000" pt_clust_9="29.35796"></scales>
<clustering>
<clus scale="   29.358">  2  9  1 -1</clus>
<clus scale="   90.505">  5  6 -1 -1</clus>
<clus scale="  104.712">  7  8 -1 -1</clus>
<clus scale="  120.808">  2  5  1 -1</clus>
<clus scale="   29.358">  2  5  1 -1</clus>
</clustering>
</event>
<event>
 9    1  0.1399746E-005  0.9576757E+02  0.7546771E-02  0.1289746E+00
          1   -1    0    0  502    0 -0.00000000000E+00  0.00000000000E+00  0.16836004652E+03  0.16836004652E+03  0.00000000000E+00 0. -1.
         21   -1    0    0  501  502  0.00000000000E+00 -0.00000000000E+00 -0.16497842493E+03  0.16497842493E+03  0.00000000000E+00 0. -1.
         23    2    1    2    0    0 -0.17348864128E+02  0.18929764349E+02  0.12723088009E+03  0.15889579056E+03  0.91656185511E+02 0.  0.
         23    2    1    2    0    0  0.25458415972E+02 -0.37458392217E+02 -0.11048916110E+03  0.15020289780E+03  0.91114179441E+02 0.  0.
        -13    1    4    4    0    0 -0.27959562332E+01 -0.57707143042E+02 -0.36188225327E+02  0.68172717282E+02  0.00000000000E+00 0. -1.
         13    1    4    4    0    0  0.28254372206E+02  0.20248750825E+02 -0.74300935775E+02  0.82030180518E+02  0.00000000000E+00 0.  1.
        -13    1    3    3    0    0 -0.20062994923E+02  0.43739158381E+02  0.26125483316E+02  0.54755626375E+02  0.00000000000E+00 0.  1.
         13    1    3    3    0    0  0.27141307958E+01 -0.24809394032E+02  0.10110539678E+03  0.10414016418E+03  0.00000000000E+00 0. -1.
          1    1    1    2  501    0 -0.81095518448E+01  0.18528627868E+02 -0.13360097401E+02  0.24239783092E+02  0.00000000000E+00 0. -1.
<scales pt_clust_5="13000.00000" pt_clust_6="13000.00000" pt_clust_7="13000.00000" pt_clust_8="13000.00000" pt_clust_9="20.22560"></scales>
<clustering>
<clus scale="   20.226">  2  9  1 -1</clus>
<clus scale="   91.114">  5  6 -1 -1</clus>
<clus scale="   91.656">  7  8 -1 -1</clus>
<clus scale="   95.249">  2  5  1 -1</clus>
<clus scale="   20.226">  2  5  1 -1</clus>
</clustering>
</event>
<event>
 9    1  0.1399746E-005  0.1081671E+03  0.7546771E-02  0.1266893E+00
          1   -1    0    0  502    0 -0.00000000000E+00  0.00000000000E+00  0.70706431549E+03  0.70706431549E+03  0.00000000000E+00 0. -1.
         21   -1    0    0  501  502  0.00000000000E+00 -0.00000000000E+00 -0.24193649938E+02  0.24193649938E+02  0.00000000000E+00 0.  1.
         23    2    1    2    0    0 -0.36640882000E+02 -0.42385768265E+02  0.33338126712E+03  0.35143264841E+03  0.96035043174E+02 0.  0.
         23    2    1    2    0    0 -0.44190629664E+01  0.51760136417E+02  0.28134177298E+03  0.29971354064E+03  0.89310544632E+02 0.  0.
        -11    1    4    4    0    0 -0.31199877775E+02 -0.72914888420E+01  0.49415442799E+02  0.58893838131E+02  0.00000000000E+00 0.  1.
         11    1    4    4    0    0  0.26780814809E+02  0.59051625259E+02  0.23192633018E+03  0.24081970251E+03  0.00000000000E+00 0. -1.
        -13    1    3    3    0    0 -0.59407079706E+02 -0.45377946538E+02  0.30910948187E+03  0.31802048823E+03  0.00000000000E+00 0.  1.
         13    1    3    3    0    0  0.22766197706E+02  0.29921782732E+01  0.24271785250E+02  0.33412160182E+02  0.00000000000E+00 0. -1.
          1    1    1    2  501    0  0.41059944966E+02 -0.93743681515E+01  0.68147625452E+02  0.80111776373E+02  0.00000000000E+00 0. -1.
<scales pt_clust_5="13000.00000" pt_clust_6="13000.00000" pt_clust_7="13000.00000" pt_clust_8="13000.00000" pt_clust_9="42.11648"></scales>
<clustering>
<clus scale="   42.116">  2  9  1 -1</clus>
<clus scale="   89.311">  5  6 -1 -1</clus>
<clus scale="   96.035">  7  8 -1 -1</clus>
<clus scale="  102.244">  2  5  1 -1</clus>
<clus scale="   42.116">  2  5  1 -1</clus>
</clustering>
</event>
<event>
 9    1  0.1399746E-005  0.2287730E+03  0.7546771E-02  0.1162567E+00
          1   -1    0    0  502    0 -0.00000000000E+00  0.00000000000E+00  0.50668979641E+03  0.50668979641E+03  0.00000000000E+00 0. -1.
         21   -1    0    0  501  502  0.00000000000E+00 -0.00000000000E+00 -0.19589298596E+03  0.19589298596E+03  0.00000000000E+00 0. -1.
         23    2    1    2    0    0  0.91902820392E+00  0.34790107957E+02  0.23983672625E+02  0.10179601473E+03  0.92606780731E+02 0.  0.
         23    2    1    2    0    0  0.18222144144E+03  0.77881709918E+02  0.31653705418E+03  0.38371792749E+03  0.88167605972E+02 0.  0.
        -11    1    3    3    0    0 -0.41599578345E+02  0.33001999948E+01  0.25426814399E+02  0.48866544066E+02  0.00000000000E+00 0. -1.
         11    1    3    3    0    0  0.42518606549E+02  0.31489907962E+02 -0.14431417746E+01  0.52929470661E+02  0.00000000000E+00 0.  1.
        -13    1    4    4    0    0  0.10499065367E+03 -0.49867792598E+00  0.17973235333E+03  0.20815139891E+03  0.00000000000E+00 0.  1.
         13    1    4    4    0    0  0.77230787773E+02  0.78380387844E+02  0.13680470085E+03  0.17556652857E+03  0.00000000000E+00 0. -1.
          1    1    1    2  501    0 -0.18314046964E+03 -0.11267181788E+03 -0.29723916354E+02  0.21706884016E+03  0.00000000000E+00 0. -1.
<scales pt_clust_5="13000.00000" pt_clust_6="13000.00000" pt_clust_7="13000.00000" pt_clust_8="13000.00000" pt_clust_9="211.10081"></scales>
<clustering>
<clus scale="   88.168">  7  8 -1 -1</clus>
<clus scale="   92.607">  5  6 -1 -1</clus>
<clus scale="   98.930">  1  5  2 -1</clus>
<clus scale="  211.101">  2  9  1 -1</clus>
<clus scale="  211.101">  2  5  1 -1</clus>
</clustering>
</event>
<event>
 9    1  0.1399746E-005  0.1188932E+03  0.7546771E-02  0.1247263E+00
         21   -1    0    0  501  502  0.00000000000E+00  0.00000000000E+00  0.36277835300E+03  0.36277835300E+03  0.00000000000E+00 0.  1.
          1   -1    0    0  502    0 -0.00000000000E+00 -0.00000000000E+00 -0.56051489075E+02  0.56051489075E+02  0.00000000000E+00 0. -1.
         23    2    1    2    0    0  0.36607880549E+02  0.63889854707E+02  0.53313398262E+02  0.13256335482E+03  0.96481470521E+02 0.  0.
         23    2    1    2    0    0 -0.12734062227E+02 -0.60627363881E+02  0.20440953663E+03  0.23165890437E+03  0.89692562221E+02 0.  0.
        -11    1    3    3    0    0 -0.23590525602E+02  0.41242339436E+02 -0.22544799317E+01  0.47566018754E+02  0.00000000000E+00 0. -1.
         11    1    3    3    0    0  0.60198406152E+02  0.22647515271E+02  0.55567878193E+02  0.84997336065E+02  0.00000000000E+00 0.  1.
        -13    1    4    4    0    0 -0.32335381970E+02 -0.42084350967E+02  0.19650008732E+03  0.20354103724E+03  0.00000000000E+00 0.  1.
         13    1    4    4    0    0  0.19601319743E+02 -0.18543012914E+02  0.79094493053E+01  0.28117867129E+02  0.00000000000E+00 0. -1.
          1    1    1    2  501    0 -0.23873818322E+02 -0.32624908263E+01  0.49003929030E+02  0.54607582881E+02  0.00000000000E+00 0. -1.
<scales pt_clust_5="13000.00000" pt_clust_6="13000.00000" pt_clust_7="13000.00000" pt_clust_8="13000.00000" pt_clust_9="24.09571"></scales>
<clustering>
<clus scale="   24.096">  1  9  2 -1</clus>
<clus scale="   89.693">  7  8 -1 -1</clus>
<clus scale="   96.481">  5  6 -1 -1</clus>
<clus scale="  113.453">  1  7  2 -1</clus>
<clus scale="   24.096">  1  5  2 -1</clus>
</clustering>
</event>
<event>
 9    1  0.1399746E-005  0.1331122E+03  0.7546771E-02  0.1224686E+00
          2   -1    0    0  502    0 -0.00000000000E+00  0.00000000000E+00  0.28022502873E+03  0.28022502873E+03  0.00000000000E+00 0. -1.
         21   -1    0    0  501  502  0.00000000000E+00 -0.00000000000E+00 -0.14255546651E+03  0.14255546651E+03  0.00000000000E+00 0.  1.
         23    2    1    2    0    0  0.90158780444E+02 -0.40527709119E+02  0.20503962848E+03  0.24542882579E+03  0.91776676683E+02 0.  0.
         23    2    1    2    0    0 -0.62455388553E+02  0.67256827930E+02 -0.44190486356E+02  0.13241597496E+03  0.84599260503E+02 0.  0.
        -11    1    4    4    0    0  0.20670900902E+01  0.34610482689E+02  0.16137627297E+02  0.38243710440E+02  0.00000000000E+00 0. -1.
         11    1    4    4    0    0 -0.64522478643E+02  0.32646345241E+02 -0.60328113653E+02  0.94172264520E+02  0.00000000000E+00 0.  1.
        -13    1    3    3    0    0  0.62059647917E+02  0.36820171429E+00  0.41826036194E+02  0.74839513466E+02  0.00000000000E+00 0.  1.
         13    1    3    3    0    0  0.28099132527E+02 -0.40895910833E+02  0.16321359229E+03  0.17058931233E+03  0.00000000000E+00 0. -1.
          2    1    1    2  501    0 -0.27703391891E+02 -0.26729118811E+02 -0.23179579911E+02  0.44935694493E+02  0.00000000000E+00 0. -1.
<scales pt_clust_5="13000.00000" pt_clust_6="13000.00000" pt_clust_7="13000.00000" pt_clust_8="13000.00000" pt_clust_9="38.49576"></scales>
<clustering>
<clus scale="   38.496">  2  9  1 -1</clus>
<clus scale="   84.599">  5  6 -1 -1</clus>
<clus scale="   91.777">  7  8 -1 -1</clus>
<clus scale="  128.269">  2  5  1 -1</clus>
<clus scale="   38.496">  2  5  1 -1</clus>
</clustering>
</event>
<event>
 9    1  0.1399746E-005  0.9351089E+02  0.7546771E-02  0.1317953E+00
          2   -1    0    0  502    0 -0.00000000000E+00  0.00000000000E+00  0.12697295606E+03  0.12697295606E+03  0.00000000000E+00 0. -1.
         21   -1    0    0  501  502  0.00000000000E+00 -0.00000000000E+00 -0.92135338552E+02  0.92135338552E+02  0.00000000000E+00 0.  1.
         23    2    1    2    0    0 -0.37305985253E+01 -0.22325946915E+02  0.65079609926E+02  0.11433399376E+03  0.91238923876E+02 0.  0.
         23    2    1    2    0    0  0.24809785234E+02  0.75116772369E+01  0.25171806600E+01  0.63097471324E+02  0.57471766553E+02 0.  0.
        -11    1    4    4    0    0 -0.83163426384E+01  0.23650422704E+02 -0.48112148421E+01  0.25527472206E+02  0.00000000000E+00 0.  1.
         11    1    4    4    0    0  0.33126127872E+02 -0.16138745467E+02  0.73283955022E+01  0.37569999118E+02  0.00000000000E+00 0. -1.
        -11    1    3    3    0    0 -0.23348595391E+02 -0.90373924853E+01 -0.16100352227E+02  0.29766637558E+02  0.00000000000E+00 0.  1.
         11    1    3    3    0    0  0.19617996865E+02 -0.13288554430E+02  0.81179962154E+02  0.84567356203E+02  0.00000000000E+00 0. -1.
          2    1    1    2  501    0 -0.21079186708E+02  0.14814269678E+02 -0.32759173081E+02  0.41676829526E+02  0.00000000000E+00 0. -1.
<scales pt_clust_5="13000.00000" pt_clust_6="13000.00000" pt_clust_7="13000.00000" pt_clust_8="13000.00000" pt_clust_9="25.76421"></scales>
<clustering>
<clus scale="   25.764">  2  9  1 -1</clus>
<clus scale="   57.472">  5  6 -1 -1</clus>
<clus scale="   61.014">  2  5  1 -1</clus>
<clus scale="   91.239">  7  8 -1 -1</clus>
<clus scale="   25.764">  2  5  1 -1</clus>
</clustering>
</event>
<event>
 9    1  0.1399746E-005  0.1014301E+03  0.7546771E-02  0.1278185E+00
         -1   -1    0    0    0  501 -0.00000000000E+00  0.00000000000E+00  0.44678436991E+03  0.44678436991E+03  0.00000000000E+00 0.  1.
         21   -1    0    0  501  502  0.00000000000E+00 -0.00000000000E+00 -0.13024630341E+03  0.13024630341E+03  0.00000000000E+00 0. -1.
         23    2    1    2    0    0 -0.37364400966E+02 -0.60927505548E+01  0.37773107476E+03  0.39078769979E+03  0.92741799663E+02 0.  0.
         23    2    1    2    0    0  0.69883390380E+02 -0.22660821846E+01  0.19712620706E+01  0.11470920666E+03  0.90914755887E+02 0.  0.
        -11    1    3    3    0    0  0.30476464064E+02 -0.40661010977E+01  0.15179276725E+03  0.15487540874E+03  0.00000000000E+00 0. -1.
         11    1    3    3    0    0 -0.67840865029E+02 -0.20266494571E+01  0.22593830750E+03  0.23591229106E+03  0.00000000000E+00 0.  1.
        -11    1    4    4    0    0 -0.17862861318E+02 -0.15631637832E+02 -0.87663497588E+01  0.25303731027E+02  0.00000000000E+00 0. -1.
         11    1    4    4    0    0  0.87746251697E+02  0.13365555648E+02  0.10737611829E+02  0.89405475629E+02  0.00000000000E+00 0.  1.
         -1    1    1    2    0  502 -0.32518989414E+02  0.83588327394E+01 -0.63164270328E+02  0.71533766876E+02  0.00000000000E+00 0.  1.
<scales pt_clust_5="13000.00000" pt_clust_6="13000.00000" pt_clust_7="13000.00000" pt_clust_8="13000.00000" pt_clust_9="33.57610"></scales>
<clustering>
<clus scale="   33.576">  2  9  1 -1</clus>
<clus scale="   90.915">  7  8 -1 -1</clus>
<clus scale="   92.742">  5  6 -1 -1</clus>
<clus scale="   99.762">  2  7  1 -1</clus>
<clus scale="   33.576">  2  5  1 -1</clus>
</clustering>
</event>
<event>
 9    1  0.1399746E-005  0.9356133E+02  0.7546771E-02  0.1294896E+00
          3   -1    0    0  502    0 -0.00000000000E+00  0.00000000000E+00  0.17231000340E+03  0.17231000340E+03  0.00000000000E+00 0. -1.
         21   -1    0    0  501  502  0.00000000000E+00 -0.00000000000E+00 -0.78746607470E+02  0.78746607470E+02  0.00000000000E+00 0.  1.
         23    2    1    2    0    0  0.19582095181E+02 -0.34067686224E+01  0.91551914266E+02  0.13113059823E+03  0.91751927835E+02 0.  0.
         23    2    1    2    0    0 -0.59189010552E+01  0.24643067687E+02  0.46120621308E+01  0.94540459852E+02  0.90963252235E+02 0.  0.
        -11    1    3    3    0    0  0.42178609124E+01 -0.46764314666E+02  0.55426022014E+02  0.72641141189E+02  0.00000000000E+00 0. -1.
         11    1    3    3    0    0  0.15364234269E+02  0.43357546044E+02  0.36125892252E+02  0.58489457038E+02  0.00000000000E+00 0.  1.
        -11    1    4    4    0    0  0.58296930329E+01  0.58392460195E+02  0.22228651005E+01  0.58724831696E+02  0.00000000000E+00 0.  1.
         11    1    4    4    0    0 -0.11748594088E+02 -0.33749392508E+02  0.23891970303E+01  0.35815628155E+02  0.00000000000E+00 0. -1.
          3    1    1    2  501    0 -0.13663194126E+02 -0.21236299065E+02 -0.26005804679E+01  0.25385552790E+02  0.00000000000E+00 0. -1.
<scales pt_clust_5="13000.00000" pt_clust_6="13000.00000" pt_clust_7="13000.00000" pt_clust_8="13000.00000" pt_clust_9="25.25200"></scales>
<clustering>
<clus scale="   25.252">  2  9  1 -1</clus>
<clus scale="   90.963">  7  8 -1 -1</clus>
<clus scale="   91.752">  5  6 -1 -1</clus>
<clus scale="   92.788">  2  7  1 -1</clus>
<clus scale="   25.252">  2  5  1 -1</clus>
</clustering>
</event>
<event>
 9    1  0.1881683E-005  0.9315789E+02  0.7546771E-02  0.1299330E+00
         21   -1    0    0  501  502  0.00000000000E+00  0.00000000000E+00  0.64601978060E+02  0.64601978060E+02  0.00000000000E+00 0. -1.
          1   -1    0    0  502    0 -0.00000000000E+00 -0.00000000000E+00 -0.55536123044E+03  0.55536123044E+03  0.00000000000E+00 0. -1.
         23    2    1    2    0    0 -0.13279090253E+01  0.11834593174E+02 -0.39351660571E+03  0.40455521637E+03  0.93100930080E+02 0.  0.
         23    2    1    2    0    0  0.59671790734E+01  0.22378632188E+02 -0.13641342273E+03  0.16319288594E+03  0.86526791901E+02 0.  0.
        -11    1    4    4    0    0  0.33689656120E+02 -0.15665887677E+02 -0.33509044282E+02  0.50032679470E+02  0.00000000000E+00 0.  1.
         11    1    4    4    0    0 -0.27722477047E+02  0.38044519865E+02 -0.10290437845E+03  0.11316020647E+03  0.00000000000E+00 0. -1.
        -13    1    3    3    0    0 -0.11565143587E+01 -0.37398541607E+02 -0.96762003653E+02  0.10374427112E+03  0.00000000000E+00 0.  1.
         13    1    3    3    0    0 -0.17139466658E+00  0.49233134781E+02 -0.29675460206E+03  0.30081094525E+03  0.00000000000E+00 0. -1.
          1    1    1    2  501    0 -0.46392700481E+01 -0.34213225362E+02  0.39170776066E+02  0.52215106185E+02  0.00000000000E+00 0. -1.
<scales pt_clust_5="13000.00000" pt_clust_6="13000.00000" pt_clust_7="13000.00000" pt_clust_8="13000.00000" pt_clust_9="34.52633"></scales>
<clustering>
<clus scale="   34.526">  1  9  2 -1</clus>
<clus scale="   86.527">  5  6 -1 -1</clus>
<clus scale="   86.588">  1  5  2 -1</clus>
<clus scale="   93.101">  7  8 -1 -1</clus>
<clus scale="   34.526">  1  5  2 -1</clus>
</clustering>
</event>
<event>
 9    1  0.1399746E-005  0.1171018E+03  0.7546771E-02  0.1248315E+00
          2   -1    0    0  502    0 -0.00000000000E+00  0.00000000000E+00  0.18956675873E+03  0.18956675873E+03  0.00000000000E+00 0. -1.
         21   -1    0    0  501  502  0.00000000000E+00 -0.00000000000E+00 -0.23652519985E+03  0.23652519985E+03  0.00000000000E+00 0. -1.
         23    2    1    2    0    0  0.76423469378E+00 -0.63969582084E+02  0.63486579336E+02  0.12823462779E+03  0.91218871529E+02 0.  0.
         23    2    1    2    0    0 -0.16125688951E+02  0.81605110969E+02  0.51309212825E+02  0.13442104919E+03  0.92287329375E+02 0.  0.
        -11    1    3    3    0    0 -0.40837311223E+02 -0.47998333745E+02  0.20375860345E+02  0.66232180358E+02  0.00000000000E+00 0.  1.
         11    1    3    3    0    0  0.41601545916E+02 -0.15971248339E+02  0.43110718990E+02  0.62002447436E+02  0.00000000000E+00 0. -1.
        -13    1    4    4    0    0 -0.15188549611E+02  0.20294580864E+02  0.66569935636E+02  0.71232846232E+02  0.00000000000E+00 0. -1.
         13    1    4    4    0    0 -0.93713933914E+00  0.61310530105E+02 -0.15260722811E+02  0.63188202955E+02  0.00000000000E+00 0.  1.
          2    1    1    2  501    0  0.15361454257E+02 -0.17635528885E+02 -0.16175423329E+03  0.16343628160E+03  0.00000000000E+00 0. -1.
<scales pt_clust_5="13000.00000" pt_clust_6="13000.00000" pt_clust_7="13000.00000" pt_clust_8="13000.00000" pt_clust_9="23.38774"></scales>
<clustering>
<clus scale="   23.388">  2  9  1 -1</clus>
<clus scale="   91.219">  5  6 -1 -1</clus>
<clus scale="   92.287">  7  8 -1 -1</clus>
<clus scale="  116.262">  1  5  2 -1</clus>
<clus scale="   23.388">  2  5  1 -1</clus>
</clustering>
</event>
<event>
 9    1  0.1399746E-005  0.9760386E+02  0.7546771E-02  0.1286454E+00
          1   -1    0    0  502    0 -0.00000000000E+00  0.00000000000E+00  0.55264330393E+03  0.55264330393E+03  0.00000000000E+00 0. -1.
         21   -1    0    0  501  502  0.00000000000E+00 -0.00000000000E+00 -0.10706464671E+03  0.10706464671E+03  0.00000000000E+00 0. -1.
         23    2    1    2    0    0  0.66453412931E+02 -0.24531570730E+01  0.37558511942E+03  0.39170414590E+03  0.89139676443E+02 0.  0.
         23    2    1    2    0    0  0.28126895805E+02 -0.43420862401E+01  0.12582414146E+03  0.15796441890E+03  0.91165054072E+02 0.  0.
        -11    1    4    4    0    0 -0.26525438109E+02  0.20760586513E+02  0.59955904991E+02  0.68769988822E+02  0.00000000000E+00 0.  1.
         11    1    4    4    0    0  0.54652333915E+02 -0.25102672753E+02  0.65868236471E+02  0.89194430081E+02  0.00000000000E+00 0. -1.
        -13    1    3    3    0    0 -0.29453058539E+01 -0.22014494815E+02  0.23592083149E+02  0.32402148013E+02  0.00000000000E+00 0.  1.
         13    1    3    3    0    0  0.69398718785E+02  0.19561337742E+02  0.35199303627E+03  0.35930199788E+03  0.00000000000E+00 0. -1.
          1    1    1    2  501    0 -0.94580308736E+02  0.67952433131E+01 -0.55830603649E+02  0.11003938584E+03  0.00000000000E+00 0. -1.
<scales pt_clust_5="13000.00000" pt_clust_6="13000.00000" pt_clust_7="13000.00000" pt_clust_8="13000.00000" pt_clust_9="94.82410"></scales>
<clustering>
<clus scale="   89.140">  7  8 -1 -1</clus>
<clus scale="   91.165">  5  6 -1 -1</clus>
<clus scale="   94.824">  2  9  1 -1</clus>
<clus scale="   95.715">  1  7  2 -1</clus>
<clus scale="   94.824">  2  5  1 -1</clus>
</clustering>
</event>
<event>
 9    1  0.1399746E-005  0.9798605E+02  0.7546771E-02  0.1285370E+00
         -1   -1    0    0    0  501 -0.00000000000E+00  0.00000000000E+00  0.42831920072E+03  0.42831920072E+03  0.00000000000E+00 0.  1.
         21   -1    0    0  501  502  0.00000000000E+00 -0.00000000000E+00 -0.48101459866E+02  0.48101459866E+02  0.00000000000E+00 0. -1.
         23    2    1    2    0    0  0.43676939922E+02 -0.12061327171E+02  0.22687167812E+03  0.24895892364E+03  0.91959973004E+02 0.  0.
         23    2    1    2    0    0  0.13271041743E+02  0.32638521184E+02  0.12661709516E+03  0.16127313342E+03  0.93465186904E+02 0.  0.
        -11    1    3    3    0    0  0.49568417663E+02 -0.42771824814E+02  0.18797900800E+03  0.19905417472E+03  0.00000000000E+00 0.  1.
         11    1    3    3    0    0 -0.58914777412E+01  0.30710497643E+02  0.38892670120E+02  0.49904748917E+02  0.00000000000E+00 0. -1.
        -13    1    4    4    0    0  0.37632951283E+02  0.16713193046E+02  0.12556984926E+03  0.13214899503E+03  0.00000000000E+00 0.  1.
         13    1    4    4    0    0 -0.24361909540E+02  0.15925328137E+02  0.10472458920E+01  0.29124138386E+02  0.00000000000E+00 0. -1.
         -1    1    1    2    0  502 -0.56947981665E+02 -0.20577194013E+02  0.26728967586E+02  0.66188603531E+02  0.00000000000E+00 0.  1.
<scales pt_clust_5="13000.00000" pt_clust_6="13000.00000" pt_clust_7="13000.00000" pt_clust_8="13000.00000" pt_clust_9="60.55158"></scales>
<clustering>
<clus scale="   60.552">  2  9  1 -1</clus>
<clus scale="   91.960">  5  6 -1 -1</clus>
<clus scale="   93.465">  7  8 -1 -1</clus>
<clus scale="   96.551">  1  5  2 -1</clus>
<clus scale="   60.552">  2  5  1 -1</clus>
</clustering>
</event>
<event>
 9    1  0.1399746E-005  0.1382134E+03  0.7546771E-02  0.1215986E+00
          1   -1    0    0  502    0 -0.00000000000E+00  0.00000000000E+00  0.42844914712E+03  0.42844914712E+03  0.00000000000E+00 0. -1.
         21   -1    0    0  501  502  0.00000000000E+00 -0.00000000000E+00 -0.73124111196E+02  0.73124111196E+02  0.00000000000E+00 0.  1.
         23    2    1    2    0    0  0.20045962793E+02 -0.10668760770E+03  0.25469716892E+03  0.29139279287E+03  0.90857171534E+02 0.  0.
         23    2    1    2    0    0  0.67700606222E+01  0.96326693666E+02  0.11677339913E+03  0.17720887374E+03  0.91881949014E+02 0.  0.
        -11    1    3    3    0    0  0.44004645067E+02 -0.25689907567E+02  0.57276714637E+02  0.76661608240E+02  0.00000000000E+00 0.  1.
         11    1    3    3    0    0 -0.23958682274E+02 -0.80997700135E+02  0.19742045429E+03  0.21473118463E+03  0.00000000000E+00 0. -1.
        -13    1    4    4    0    0 -0.21318676116E+02 -0.61225879273E+01  0.41360325177E+02  0.46932382563E+02  0.00000000000E+00 0. -1.
         13    1    4    4    0    0  0.28088736739E+02  0.10244928159E+03  0.75413073951E+02  0.13027649118E+03  0.00000000000E+00 0.  1.
          1    1    1    2  501    0 -0.26816023415E+02  0.10360914036E+02 -0.16145532131E+02  0.32971591700E+02  0.00000000000E+00 0. -1.
<scales pt_clust_5="13000.00000" pt_clust_6="13000.00000" pt_clust_7="13000.00000" pt_clust_8="13000.00000" pt_clust_9="28.74800"></scales>
<clustering>
<clus scale="   28.748">  2  9  1 -1</clus>
<clus scale="   90.857">  5  6 -1 -1</clus>
<clus scale="   91.882">  7  8 -1 -1</clus>
<clus scale="  137.534">  1  5  2 -1</clus>
<clus scale="   28.748">  2  5  1 -1</clus>
</clustering>
</event>
<event>
 9    1  0.1399746E-005  0.1754068E+03  0.7546771E-02  0.1198243E+00
          3   -1    0    0  502    0 -0.00000000000E+00  0.00000000000E+00  0.38249342168E+03  0.38249342168E+03  0.00000000000E+00 0. -1.
         21   -1    0    0  501  502  0.00000000000E+00 -0.00000000000E+00 -0.16845325386E+03  0.16845325386E+03  0.00000000000E+00 0.  1.
         23    2    1    2    0    0 -0.18393474323E+02 -0.34157431509E+02  0.70522486789E+02  0.12111456977E+03  0.90500098580E+02 0.  0.
         23    2    1    2    0    0  0.10020258528E+02 -0.14119989540E+03 -0.42306003469E+02  0.17419418885E+03  0.92282183851E+02 0.  0.
        -11    1    4    4    0    0 -0.29520700217E+02 -0.11552183418E+03 -0.43797292413E+02  0.12702349679E+03  0.00000000000E+00 0.  1.
         11    1    4    4    0    0  0.39540958745E+02 -0.25678061219E+02  0.14912889437E+01  0.47170692057E+02  0.00000000000E+00 0. -1.
        -13    1    3    3    0    0 -0.15950564744E+02 -0.64423136416E+02  0.37401814233E+02  0.76181734880E+02  0.00000000000E+00 0.  1.
         13    1    3    3    0    0 -0.24429095793E+01  0.30265704908E+02  0.33120672556E+02  0.44932834891E+02  0.00000000000E+00 0. -1.
          3    1    1    2  501    0  0.83732157951E+01  0.17535732691E+03  0.18582368450E+03  0.25563791692E+03  0.00000000000E+00 0. -1.
<scales pt_clust_5="13000.00000" pt_clust_6="13000.00000" pt_clust_7="13000.00000" pt_clust_8="13000.00000" pt_clust_9="149.16962"></scales>
<clustering>
<clus scale="   90.500">  7  8 -1 -1</clus>
<clus scale="   92.282">  5  6 -1 -1</clus>
<clus scale="   98.465">  1  7  2 -1</clus>
<clus scale="  149.170">  2  9  1 -1</clus>
<clus scale="  149.170">  2  5  1 -1</clus>
</clustering>
</event>
<event>
 9    1  0.1399746E-005  0.9483243E+02  0.7546771E-02  0.1292985E+00
         21   -1    0    0  501  502  0.00000000000E+00  0.00000000000E+00  0.46129209189E+02  0.46129209189E+02  0.00000000000E+00 0.  1.
          1   -1    0    0  502    0 -0.00000000000E+00 -0.00000000000E+00 -0.37965773680E+03  0.37965773680E+03  0.00000000000E+00 0. -1.
         23    2    1    2    0    0 -0.32354634842E+02  0.37583720771E+02 -0.13102895202E+03  0.16772685624E+03  0.92219052124E+02 0.  0.
         23    2    1    2    0    0 -0.37464268260E+01  0.96571712905E+01 -0.74858196002E+02  0.11725060740E+03  0.89647413543E+02 0.  0.
        -11    1    4    4    0    0  0.69910958297E+01 -0.37861488577E+02 -0.18377921081E+02  0.42662814270E+02  0.00000000000E+00 0. -1.
         11    1    4    4    0    0 -0.10737522656E+02  0.47518659868E+02 -0.56480274921E+02  0.74587793127E+02  0.00000000000E+00 0.  1.
        -13    1    3    3    0    0 -0.42542616075E+02 -0.12578430114E+02 -0.27391568195E+02  0.52138173106E+02  0.00000000000E+00 0. -1.
         13    1    3    3    0    0  0.10187981233E+02  0.50162150885E+02 -0.10363738382E+03  0.11558868313E+03  0.00000000000E+00 0.  1.
          1    1    1    2  501    0  0.36101061668E+02 -0.47240892062E+02 -0.12764137959E+03  0.14080948235E+03  0.00000000000E+00 0. -1.
<scales pt_clust_5="13000.00000" pt_clust_6="13000.00000" pt_clust_7="13000.00000" pt_clust_8="13000.00000" pt_clust_9="59.45580"></scales>
<clustering>
<clus scale="   59.456">  1  9  2 -1</clus>
<clus scale="   89.647">  5  6 -1 -1</clus>
<clus scale="   92.219">  7  8 -1 -1</clus>
<clus scale="   92.334">  1  5  2 -1</clus>
<clus scale="   59.456">  1  5  2 -1</clus>
</clustering>
</event>
<event>
 9    1  0.1399746E-005  0.1452078E+03  0.7546771E-02  0.1207288E+00
         -2   -1    0    0    0  501 -0.00000000000E+00  0.00000000000E+00  0.89336065876E+03  0.89336065876E+03  0.00000000000E+00 0.  1.
         21   -1    0    0  501  502  0.00000000000E+00 -0.00000000000E+00 -0.72795289036E+02  0.72795289036E+02  0.00000000000E+00 0.  1.
         23    2    1    2    0    0 -0.94967969058E+02 -0.34139461355E+01  0.45810334800E+03  0.47689723127E+03  0.92421434572E+02 0.  0.
         23    2    1    2    0    0  0.14243481792E+03  0.12827571928E+02  0.39610122901E+03  0.43032388508E+03  0.88488634847E+02 0.  0.
        -11    1    3    3    0    0 -0.96305904334E+02 -0.24193811735E+02  0.43320232426E+03  0.44443719633E+03  0.00000000000E+00 0. -1.
         11    1    3    3    0    0  0.13379352762E+01  0.20779865599E+02  0.24901023744E+02  0.32460034945E+02  0.00000000000E+00 0.  1.
        -13    1    4    4    0    0  0.84966219307E+02  0.47011896152E+02  0.18575366507E+03  0.20960391430E+03  0.00000000000E+00 0.  1.
         13    1    4    4    0    0  0.57468598610E+02 -0.34184324224E+02  0.21034756393E+03  0.22071997078E+03  0.00000000000E+00 0. -1.
         -2    1    1    2    0  502 -0.47466848858E+02 -0.94136257929E+01 -0.33639207279E+02  0.58934831445E+02  0.00000000000E+00 0.  1.
<scales pt_clust_5="13000.00000" pt_clust_6="13000.00000" pt_clust_7="13000.00000" pt_clust_8="13000.00000" pt_clust_9="48.39130"></scales>
<clustering>
<clus scale="   48.391">  2  9  1 -1</clus>
<clus scale="   88.489">  7  8 -1 -1</clus>
<clus scale="   92.421">  5  6 -1 -1</clus>
<clus scale="  142.737">  2  7  1 -1</clus>
<clus scale="   48.391">  2  5  1 -1</clus>
</clustering>
</event>
<event>
 9    1  0.1428892E-005  0.1119013E+03  0.7546771E-02  0.1257271E+00
          2   -1    0    0  502    0 -0.00000000000E+00  0.00000000000E+00  0.28986507504E+03  0.28986507504E+03  0.00000000000E+00 0. -1.
         21   -1    0    0  501  502  0.00000000000E+00 -0.00000000000E+00 -0.24607844022E+03  0.24607844022E+03  0.00000000000E+00 0. -1.
         23    2    1    2    0    0 -0.17783128584E+02 -0.39246979778E+02  0.10929950433E+03  0.15033251308E+03  0.93791885356E+02 0.  0.
         23    2    1    2    0    0 -0.19020855435E+02  0.90498003642E+02  0.12718109768E+03  0.18284965066E+03  0.93312815489E+02 0.  0.
        -11    1    3    3    0    0 -0.19756242901E+02  0.14543693586E+02  0.89786996678E+02  0.93078101233E+02  0.00000000000E+00 0. -1.
         11    1    3    3    0    0  0.19731143173E+01 -0.53790673364E+02  0.19512507648E+02  0.57254411846E+02  0.00000000000E+00 0.  1.
        -13    1    4    4    0    0 -0.26017797660E+02  0.15168792082E+02 -0.50200388309E+01  0.30532258976E+02  0.00000000000E+00 0.  1.
         13    1    4    4    0    0  0.69969422246E+01  0.75329211560E+02  0.13220113651E+03  0.15231739168E+03  0.00000000000E+00 0. -1.
          2    1    1    2  501    0  0.36803984018E+02 -0.51251023864E+02 -0.19269396717E+03  0.20276135152E+03  0.00000000000E+00 0. -1.
<scales pt_clust_5="13000.00000" pt_clust_6="13000.00000" pt_clust_7="13000.00000" pt_clust_8="13000.00000" pt_clust_9="63.09676"></scales>
<clustering>
<clus scale="   63.097">  2  9  1 -1</clus>
<clus scale="   93.313">  7  8 -1 -1</clus>
<clus scale="   93.792">  5  6 -1 -1</clus>
<clus scale="  111.500">  2  7  1 -1</clus>
<clus scale="   63.097">  2  5  1 -1</clus>
</clustering>
</event>
<event>
 9    1  0.1399746E-005  0.9026962E+02  0.7546771E-02  0.1302425E+00
         21   -1    0    0  501  502  0.00000000000E+00  0.00000000000E+00  0.28137079549E+03  0.28137079549E+03  0.00000000000E+00 0. -1.
          1   -1    0    0  502    0 -0.00000000000E+00 -0.00000000000E+00 -0.45886291125E+02  0.45886291125E+02  0.00000000000E+00 0. -1.
         23    2    1    2    0    0  0.65807716340E+01 -0.17756410822E+01  0.49834690153E+02  0.10296439773E+03  0.89842703658E+02 0.  0.
         23    2    1    2    0    0  0.16522361055E+02 -0.82198366921E+01  0.10427794084E+03  0.13911613054E+03  0.90215601200E+02 0.  0.
        -11    1    3    3    0    0  0.87020125251E+01  0.42378649893E+02  0.12310619819E+02  0.44980288451E+02  0.00000000000E+00 0.  1.
         11    1    3    3    0    0 -0.21212408910E+01 -0.44154290976E+02  0.37524070334E+02  0.57984109279E+02  0.00000000000E+00 0. -1.
        -13    1    4    4    0    0 -0.35264672400E+02  0.83134457720E+01  0.54258337787E+02  0.65243219720E+02  0.00000000000E+00 0.  1.
         13    1    4    4    0    0  0.51787033454E+02 -0.16533282464E+02  0.50019603055E+02  0.73872910819E+02  0.00000000000E+00 0. -1.
          1    1    1    2  501    0 -0.23103132689E+02  0.99954777743E+01  0.81371873372E+02  0.85176558348E+02  0.00000000000E+00 0. -1.
<scales pt_clust_5="13000.00000" pt_clust_6="13000.00000" pt_clust_7="13000.00000" pt_clust_8="13000.00000" pt_clust_9="25.17269"></scales>
<clustering>
<clus scale="   25.173">  1  9  2 -1</clus>
<clus scale="   89.843">  5  6 -1 -1</clus>
<clus scale="   89.897">  2  5  1 -1</clus>
<clus scale="   90.216">  7  8 -1 -1</clus>
<clus scale="   25.173">  1  5  2 -1</clus>
</clustering>
</event>
<event>
 9    1  0.1399746E-005  0.1127141E+03  0.7546771E-02  0.1259729E+00
         21   -1    0    0  501  502  0.00000000000E+00  0.00000000000E+00  0.14573582546E+03  0.14573582546E+03  0.00000000000E+00 0.  1.
         -3   -1    0    0    0  501 -0.00000000000E+00 -0.00000000000E+00 -0.11711121897E+03  0.11711121897E+03  0.00000000000E+00 0.  1.
         23    2    1    2    0    0  0.33148267412E+02 -0.19851232621E+02 -0.58632028777E+01  0.10100090425E+03  0.93133916718E+02 0.  0.
         23    2    1    2    0    0 -0.54654116673E+02  0.13361048412E+02 -0.40015361133E+01  0.11728097711E+03  0.10282618935E+03 0.  0.
        -11    1    3    3    0    0  0.63192043629E+02 -0.18852326468E+02  0.10500802536E+02  0.66775081020E+02  0.00000000000E+00 0. -1.
         11    1    3    3    0    0 -0.30043776217E+02 -0.99890615325E+00 -0.16364005414E+02  0.34225823235E+02  0.00000000000E+00 0.  1.
        -11    1    4    4    0    0 -0.12453316420E+02  0.29725973147E+02  0.41870146798E+02  0.52837749406E+02  0.00000000000E+00 0. -1.
         11    1    4    4    0    0 -0.42200800253E+02 -0.16364924735E+02 -0.45871682912E+02  0.64443227703E+02  0.00000000000E+00 0.  1.
         -3    1    1    2    0  502  0.21505849261E+02  0.64901842092E+01  0.38489345478E+02  0.44565163063E+02  0.00000000000E+00 0.  1.
<scales pt_clust_5="13000.00000" pt_clust_6="13000.00000" pt_clust_7="13000.00000" pt_clust_8="13000.00000" pt_clust_9="22.46384"></scales>
<clustering>
<clus scale="   22.464">  1  9  2 -1</clus>
<clus scale="   93.134">  5  6 -1 -1</clus>
<clus scale="  102.826">  7  8 -1 -1</clus>
<clus scale="  103.948">  2  5  1 -1</clus>
<clus scale="   22.464">  1  5  2 -1</clus>
</clustering>
</event>
<event>
 9    1  0.1399746E-005  0.1231688E+03  0.7546771E-02  0.1238283E+00
          2   -1    0    0  502    0 -0.00000000000E+00  0.00000000000E+00  0.92971718130E+03  0.92971718130E+03  0.00000000000E+00 0. -1.
         21   -1    0    0  501  502  0.00000000000E+00 -0.00000000000E+00 -0.31665749835E+02  0.31665749835E+02  0.00000000000E+00 0.  1.
         23    2    1    2    0    0  0.81950778268E+02 -0.13298497153E+02  0.43840388525E+03  0.45550335861E+03  0.91610932860E+02 0.  0.
         23    2    1    2    0    0 -0.56626933002E+02  0.72904001113E+02  0.38722304898E+03  0.40872288957E+03  0.92688229479E+02 0.  0.
        -11    1    4    4    0    0  0.21159989717E+02  0.39889782146E+02  0.11001492455E+03  0.11892108101E+03  0.00000000000E+00 0.  1.
         11    1    4    4    0    0 -0.77786922719E+02  0.33014218967E+02  0.27720812443E+03  0.28980180856E+03  0.00000000000E+00 0. -1.
        -13    1    3    3    0    0  0.60254238006E+02  0.29764349592E+02  0.16998789604E+03  0.18279052083E+03  0.00000000000E+00 0.  1.
         13    1    3    3    0    0  0.21696540263E+02 -0.43062846745E+02  0.26841598921E+03  0.27271283779E+03  0.00000000000E+00 0. -1.
          2    1    1    2  501    0 -0.25323845266E+02 -0.59605503960E+02  0.72424497241E+02  0.97156682951E+02  0.00000000000E+00 0. -1.
<scales pt_clust_5="13000.00000" pt_clust_6="13000.00000" pt_clust_7="13000.00000" pt_clust_8="13000.00000" pt_clust_9="64.76197"></scales>
<clustering>
<clus scale="   64.762">  2  9  1 -1</clus>
<clus scale="   91.611">  7  8 -1 -1</clus>
<clus scale="   92.688">  5  6 -1 -1</clus>
<clus scale="  122.360">  1  7  2 -1</clus>
<clus scale="   64.762">  2  5  1 -1</clus>
</clustering>
</event>
<event>
 9    1  0.1399746E-005  0.1008608E+03  0.7546771E-02  0.1279314E+00
         21   -1    0    0  501  502  0.00000000000E+00  0.00000000000E+00  0.17356134152E+03  0.17356134152E+03  0.00000000000E+00 0. -1.
          1   -1    0    0  502    0 -0.00000000000E+00 -0.00000000000E+00 -0.12580047559E+03  0.12580047559E+03  0.00000000000E+00 0. -1.
         23    2    1    2    0    0  0.20763992383E+02  0.31128733639E+02 -0.64051861438E+02  0.11830786344E+03  0.92162726520E+02 0.  0.
         23    2    1    2    0    0 -0.44586665964E+02 -0.31857027004E+02  0.54480933492E+02  0.11896542996E+03  0.90453084307E+02 0.  0.
        -11    1    4    4    0    0 -0.19423323132E+02 -0.89967307119E+01 -0.24765561206E+02  0.32734380502E+02  0.00000000000E+00 0. -1.
         11    1    4    4    0    0 -0.25163342832E+02 -0.22860296292E+02  0.79246494699E+02  0.86231049461E+02  0.00000000000E+00 0.  1.
        -13    1    3    3    0    0  0.54662905338E+02  0.25467075428E+02 -0.22454182855E+02  0.64349013035E+02  0.00000000000E+00 0. -1.
         13    1    3    3    0    0 -0.33898912955E+02  0.56616582113E+01 -0.41597678583E+02  0.53958850402E+02  0.00000000000E+00 0.  1.
          1    1    1    2  501    0  0.23822673581E+02  0.72829336508E+00  0.57331793877E+02  0.62088523714E+02  0.00000000000E+00 0. -1.
<scales pt_clust_5="13000.00000" pt_clust_6="13000.00000" pt_clust_7="13000.00000" pt_clust_8="13000.00000" pt_clust_9="23.83380"></scales>
<clustering>
<clus scale="   23.834">  1  9  2 -1</clus>
<clus scale="   90.453">  5  6 -1 -1</clus>
<clus scale="   92.163">  7  8 -1 -1</clus>
<clus scale="   99.301">  1  5  2 -1</clus>
<clus scale="   23.834">  1  5  2 -1</clus>
</clustering>
</event>
<event>
 9    1  0.1399746E-005  0.1122312E+03  0.7546771E-02  0.1257392E+00
         21   -1    0    0  501  502  0.00000000000E+00  0.00000000000E+00  0.41260628180E+02  0.41260628180E+02  0.00000000000E+00 0. -1.
          2   -1    0    0  502    0 -0.00000000000E+00 -0.00000000000E+00 -0.50795842804E+03  0.50795842804E+03  0.00000000000E+00 0. -1.
         23    2    1    2    0    0  0.56845723207E+02 -0.62732036923E+02 -0.25995645360E+03  0.28921157353E+03  0.94335739745E+02 0.  0.
         23    2    1    2    0    0 -0.36993599462E+02  0.81093539792E+01 -0.12624779100E+03  0.16072527508E+03  0.91977286836E+02 0.  0.
        -13    1    4    4    0    0 -0.31371808412E+02  0.48789816181E+02 -0.80894528382E+02  0.99541756304E+02  0.00000000000E+00 0.  1.
         13    1    4    4    0    0 -0.56217910504E+01 -0.40680462202E+02 -0.45353262619E+02  0.61183518775E+02  0.00000000000E+00 0. -1.
        -13    1    3    3    0    0  0.25292687612E+02  0.11051826302E+02 -0.15315250030E+03  0.15561989352E+03  0.00000000000E+00 0.  1.
         13    1    3    3    0    0  0.31553035595E+02 -0.73783863226E+02 -0.10680395330E+03  0.13359168001E+03  0.00000000000E+00 0. -1.
          2    1    1    2  501    0 -0.19852123744E+02  0.54622682944E+02 -0.80493555254E+02  0.99282207603E+02  0.00000000000E+00 0. -1.
<scales pt_clust_5="13000.00000" pt_clust_6="13000.00000" pt_clust_7="13000.00000" pt_clust_8="13000.00000" pt_clust_9="58.11836"></scales>
<clustering>
<clus scale="   58.118">  1  9  2 -1</clus>
<clus scale="   91.977">  5  6 -1 -1</clus>
<clus scale="   94.336">  7  8 -1 -1</clus>
<clus scale="  110.256">  1  5  2 -1</clus>
<clus scale="   58.118">  1  5  2 -1</clus>
</clustering>
</event>
<event>
 9    1  0.1399746E-005  0.1565531E+03  0.7546771E-02  0.1192952E+00
         21   -1    0    0  501  502  0.00000000000E+00  0.00000000000E+00  0.13869266358E+03  0.13869266358E+03  0.00000000000E+00 0. -1.
         -3   -1    0    0    0  501 -0.00000000000E+00 -0.00000000000E+00 -0.49314156030E+03  0.49314156030E+03  0.00000000000E+00 0.  1.
         23    2    1    2    0    0 -0.56731010463E+02 -0.11256891107E+03 -0.29740714162E+03  0.33594739404E+03  0.92301009683E+02 0.  0.
         23    2    1    2    0    0  0.33165302950E+02  0.12460686604E+03 -0.13879657788E+03  0.20995600895E+03  0.90499874465E+02 0.  0.
        -11    1    3    3    0    0 -0.70768207825E+02 -0.39370039367E+02 -0.17091742593E+03  0.18913197965E+03  0.00000000000E+00 0. -1.
         11    1    3    3    0    0  0.14037197361E+02 -0.73198871704E+02 -0.12648971569E+03  0.14681541440E+03  0.00000000000E+00 0.  1.
        -13    1    4    4    0    0  0.28900213375E+02  0.14981415363E+02 -0.78018070068E+02  0.84536881872E+02  0.00000000000E+00 0.  1.
         13    1    4    4    0    0  0.42650895752E+01  0.10962545067E+03 -0.60778507814E+02  0.12541912708E+03  0.00000000000E+00 0. -1.
         -3    1    1    2    0  502  0.23565707513E+02 -0.12037954964E+02  0.81754822784E+02  0.85930820890E+02  0.00000000000E+00 0.  1.
<scales pt_clust_5="13000.00000" pt_clust_6="13000.00000" pt_clust_7="13000.00000" pt_clust_8="13000.00000" pt_clust_9="26.46233"></scales>
<clustering>
<clus scale="   26.462">  1  9  2 -1</clus>
<clus scale="   90.500">  7  8 -1 -1</clus>
<clus scale="   92.301">  5  6 -1 -1</clus>
<clus scale="  155.498">  1  7  2 -1</clus>
<clus scale="   26.462">  1  5  2 -1</clus>
</clustering>
</event>
<event>
 9    1  0.1399746E-005  0.1060758E+03  0.7546771E-02  0.1269418E+00
         21   -1    0    0  501  502  0.00000000000E+00  0.00000000000E+00  0.60531210914E+03  0.60531210914E+03  0.00000000000E+00 0.  1.
          1   -1    0    0  502    0 -0.00000000000E+00 -0.00000000000E+00 -0.38854705345E+02  0.38854705345E+02  0.00000000000E+00 0. -1.
         23    2    1    2    0    0 -0.87466965246E+01 -0.21189422026E+02  0.14669754591E+03  0.17374113446E+03  0.90223697106E+02 0.  0.
         23    2    1    2    0    0  0.48988116179E+02  0.62654546667E+02  0.14644377386E+03  0.19106854266E+03  0.93466471769E+02 0.  0.
        -11    1    4    4    0    0 -0.22119618582E+01  0.60882727668E+02  0.39838262975E+02  0.72792077181E+02  0.00000000000E+00 0. -1.
         11    1    4    4    0    0  0.51200078038E+02  0.17718189995E+01  0.10660551089E+03  0.11827646548E+03  0.00000000000E+00 0.  1.
        -13    1    3    3    0    0  0.16927948961E+02 -0.46962471339E+02  0.11546474670E+03  0.12579402570E+03  0.00000000000E+00 0. -1.
         13    1    3    3    0    0 -0.25674645486E+02  0.25773049313E+02  0.31232799208E+02  0.47947108756E+02  0.00000000000E+00 0.  1.
          1    1    1    2  501    0 -0.40241419655E+02 -0.41465124641E+02  0.27331608402E+03  0.27935713738E+03  0.00000000000E+00 0. -1.
<scales pt_clust_5="13000.00000" pt_clust_6="13000.00000" pt_clust_7="13000.00000" pt_clust_8="13000.00000" pt_clust_9="57.78173"></scales>
<clustering>
<clus scale="   57.782">  1  9  2 -1</clus>
<clus scale="   90.224">  7  8 -1 -1</clus>
<clus scale="   93.466">  5  6 -1 -1</clus>
<clus scale="  103.230">  2  7  1 -1</clus>
<clus scale="   57.782">  1  5  2 -1</clus>
</clustering>
</event>
<event>
 9    1  0.1399746E-005  0.1117160E+03  0.7546771E-02  0.1259558E+00
         21   -1    0    0  501  502  0.00000000000E+00  0.00000000000E+00  0.48028275363E+02  0.48028275363E+02  0.00000000000E+00 0. -1.
          1   -1    0    0  502    0 -0.00000000000E+00 -0.00000000000E+00 -0.79895096288E+03  0.79895096288E+03  0.00000000000E+00 0. -1.
         23    2    1    2    0    0 -0.66697688049E+02 -0.35316919980E+02 -0.57566582708E+03  0.58801812600E+03  0.93157423790E+02 0.  0.
         23    2    1    2    0    0  0.23675136312E+02  0.31001866795E+02 -0.19037322717E+03  0.21315648164E+03  0.87590480165E+02 0.  0.
        -13    1    4    4    0    0  0.41830760912E+02 -0.11060331521E+02 -0.13225283487E+03  0.13915083838E+03  0.00000000000E+00 0. -1.
         13    1    4    4    0    0 -0.18155624600E+02  0.42062198316E+02 -0.58120392301E+02  0.74005643251E+02  0.00000000000E+00 0.  1.
        -13    1    3    3    0    0 -0.77399018839E+02  0.51123587508E+01 -0.34760894611E+03  0.35615828468E+03  0.00000000000E+00 0.  1.
         13    1    3    3    0    0  0.10701330789E+02 -0.40429278731E+02 -0.22805688097E+03  0.23185984132E+03  0.00000000000E+00 0. -1.
          1    1    1    2  501    0  0.43022551738E+02  0.43150531846E+01  0.15116366735E+02  0.45804630609E+02  0.00000000000E+00 0. -1.
<scales pt_clust_5="13000.00000" pt_clust_6="13000.00000" pt_clust_7="13000.00000" pt_clust_8="13000.00000" pt_clust_9="43.23840"></scales>
<clustering>
<clus scale="   43.238">  1  9  2 -1</clus>
<clus scale="   87.590">  5  6 -1 -1</clus>
<clus scale="   93.157">  7  8 -1 -1</clus>
<clus scale="  107.118">  1  5  2 -1</clus>
<clus scale="   43.238">  1  5  2 -1</clus>
</clustering>
</event>
<event>
 9    1  0.1399746E-005  0.9638997E+02  0.7546771E-02  0.1289027E+00
          2   -1    0    0  502    0 -0.00000000000E+00  0.00000000000E+00  0.11816620226E+03  0.11816620226E+03  0.00000000000E+00 0. -1.
         21   -1    0    0  501  502  0.00000000000E+00 -0.00000000000E+00 -0.11670812226E+03  0.11670812226E+03  0.00000000000E+00 0. -1.
         23    2    1    2    0    0  0.80814879191E+01 -0.31994442245E+02  0.30338444856E+02  0.10150540312E+03  0.91071240492E+02 0.  0.
         23    2    1    2    0    0 -0.22772595348E+02  0.39740901192E+01 -0.33546952761E+02  0.10138852408E+03  0.92843148825E+02 0.  0.
        -13    1    4    4    0    0  0.31686463779E+02 -0.15725148318E+02 -0.23867340628E+02  0.42672733977E+02  0.00000000000E+00 0. -1.
         13    1    4    4    0    0 -0.54459059127E+02  0.19699238437E+02 -0.96796121331E+01  0.58715790099E+02  0.00000000000E+00 0.  1.
        -13    1    3    3    0    0  0.26655316886E+02  0.13187801756E+02 -0.16344970854E+02  0.33934968774E+02  0.00000000000E+00 0. -1.
         13    1    3    3    0    0 -0.18573828967E+02 -0.45182244002E+02  0.46683415710E+02  0.67570434347E+02  0.00000000000E+00 0.  1.
          2    1    1    2  501    0  0.14691107429E+02  0.28020352126E+02  0.46665879041E+01  0.31980397331E+02  0.00000000000E+00 0. -1.
<scales pt_clust_5="13000.00000" pt_clust_6="13000.00000" pt_clust_7="13000.00000" pt_clust_8="13000.00000" pt_clust_9="31.63811"></scales>
<clustering>
<clus scale="   31.638">  2  9  1 -1</clus>
<clus scale="   91.071">  7  8 -1 -1</clus>
<clus scale="   92.843">  5  6 -1 -1</clus>
<clus scale="   94.684">  1  7  2 -1</clus>
<clus scale="   31.638">  2  5  1 -1</clus>
</clustering>
</event>
<event>
 9    1  0.1399746E-005  0.1605525E+03  0.7546771E-02  0.1188250E+00
          2   -1    0    0  502    0 -0.00000000000E+00  0.00000000000E+00  0.85727426022E+03  0.85727426022E+03  0.00000000000E+00 0. -1.
         21   -1    0    0  501  502  0.00000000000E+00 -0.00000000000E+00 -0.51707625476E+02  0.51707625476E+02  0.00000000000E+00 0.  1.
         23    2    1    2    0    0 -0.38483171799E+01 -0.12680703058E+03  0.50723596050E+03  0.53065297532E+03  0.90605894084E+02 0.  0.
         23    2    1    2    0    0  0.51812967213E+02  0.14244594412E+03  0.19574004060E+03  0.26400471617E+03  0.91700033255E+02 0.  0.
        -11    1    4    4    0    0  0.37797985639E+02  0.23353609400E+02  0.10377272266E+03  0.11288426267E+03  0.00000000000E+00 0. -1.
         11    1    4    4    0    0  0.14014981574E+02  0.11909233472E+03  0.91967317941E+02  0.15112045350E+03  0.00000000000E+00 0.  1.
        -13    1    3    3    0    0 -0.43632270874E+02 -0.37848220724E+02  0.21341841032E+03  0.22109654167E+03  0.00000000000E+00 0.  1.
         13    1    3    3    0    0  0.39783953694E+02 -0.88958809861E+02  0.29381755018E+03  0.30955643365E+03  0.00000000000E+00 0. -1.
          2    1    1    2  501    0 -0.47964650033E+02 -0.15638913531E+02  0.10259063365E+03  0.11432419421E+03  0.00000000000E+00 0. -1.
<scales pt_clust_5="13000.00000" pt_clust_6="13000.00000" pt_clust_7="13000.00000" pt_clust_8="13000.00000" pt_clust_9="50.44983"></scales>
<clustering>
<clus scale="   50.450">  2  9  1 -1</clus>
<clus scale="   90.606">  7  8 -1 -1</clus>
<clus scale="   91.700">  5  6 -1 -1</clus>
<clus scale="  159.930">  1  7  2 -1</clus>
<clus scale="   50.450">  2  5  1 -1</clus>
</clustering>
</event>
<event>
 9    1  0.1399746E-005  0.9669765E+02  0.7546771E-02  0.1290520E+00
          1   -1    0    0  502    0 -0.00000000000E+00  0.00000000000E+00  0.79249475947E+03  0.79249475947E+03  0.00000000000E+00 0. -1.
         21   -1    0    0  501  502  0.00000000000E+00 -0.00000000000E+00 -0.23066889641E+02  0.23066889641E+02  0.00000000000E+00 0. -1.
         23    2    1    2    0    0  0.85446227089E+01 -0.40661644136E+02  0.41770298021E+03  0.42978362638E+03  0.92259449093E+02 0.  0.
         23    2    1    2    0    0 -0.28637705110E+02  0.32017483053E+01  0.32002001175E+03  0.33274807801E+03  0.86476043827E+02 0.  0.
        -13    1    3    3    0    0 -0.37147101918E+02 -0.36842705884E+02  0.16985458377E+03  0.17772977180E+03  0.00000000000E+00 0.  1.
         13    1    3    3    0    0  0.45691724627E+02 -0.38189382514E+01  0.24784839644E+03  0.25205385457E+03  0.00000000000E+00 0. -1.
        -13    1    4    4    0    0  0.24176924637E+02  0.61198568534E+01  0.35692983822E+02  0.43542685114E+02  0.00000000000E+00 0.  1.
         13    1    4    4    0    0 -0.52814629747E+02 -0.29181085481E+01  0.28432702792E+03  0.28920539290E+03  0.00000000000E+00 0. -1.
          1    1    1    2  501    0  0.20093082401E+02  0.37459895830E+02  0.31704877873E+02  0.53029944719E+02  0.00000000000E+00 0. -1.
<scales pt_clust_5="13000.00000" pt_clust_6="13000.00000" pt_clust_7="13000.00000" pt_clust_8="13000.00000" pt_clust_9="42.50854"></scales>
<clustering>
<clus scale="   42.509">  2  9  1 -1</clus>
<clus scale="   86.476">  7  8 -1 -1</clus>
<clus scale="   91.196">  2  7  1 -1</clus>
<clus scale="   92.259">  5  6 -1 -1</clus>
<clus scale="   42.509">  2  5  1 -1</clus>
</clustering>
</event>
<event>
 9    1  0.1399746E-005  0.1111746E+03  0.7546771E-02  0.1260584E+00
          1   -1    0    0  502    0 -0.00000000000E+00  0.00000000000E+00  0.59153820394E+03  0.59153820394E+03  0.00000000000E+00 0. -1.
         21   -1    0    0  501  502  0.00000000000E+00 -0.00000000000E+00 -0.33912482259E+02  0.33912482259E+02  0.00000000000E+00 0. -1.
         23    2    1    2    0    0  0.46731350619E+02  0.11320298122E+01  0.38405772722E+03  0.39892134156E+03  0.97225502293E+02 0.  0.
         23    2    1    2    0    0 -0.72873433417E+02 -0.34051050126E+00  0.15542649296E+03  0.19469934193E+03  0.91868306757E+02 0.  0.
        -13    1    4    4    0    0 -0.49967809344E+02  0.39313683405E+02  0.12340335817E+03  0.13881907823E+03  0.00000000000E+00 0. -1.
         13    1    4    4    0    0 -0.22905624074E+02 -0.39654193906E+02  0.32023134790E+02  0.55880263692E+02  0.00000000000E+00 0.  1.
        -13    1    3    3    0    0  0.50839726123E+02 -0.40037780754E+02  0.26823192665E+03  0.27592765015E+03  0.00000000000E+00 0. -1.
         13    1    3    3    0    0 -0.41083755046E+01  0.41169810566E+02  0.11582580057E+03  0.12299369142E+03  0.00000000000E+00 0.  1.
          1    1    1    2  501    0  0.26142082799E+02 -0.79151931093E+00  0.18141501504E+02  0.31830002713E+02  0.00000000000E+00 0. -1.
<scales pt_clust_5="13000.00000" pt_clust_6="13000.00000" pt_clust_7="13000.00000" pt_clust_8="13000.00000" pt_clust_9="26.15406"></scales>
<clustering>
<clus scale="   26.154">  2  9  1 -1</clus>
<clus scale="   91.868">  5  6 -1 -1</clus>
<clus scale="   97.226">  7  8 -1 -1</clus>
<clus scale="  106.521">  2  5  1 -1</clus>
<clus scale="   26.154">  2  5  1 -1</clus>
</clustering>
</event>
<event>
 9    1  0.1399746E-005  0.1019503E+03  0.7546771E-02  0.1277483E+00
         21   -1    0    0  501  502  0.00000000000E+00  0.00000000000E+00  0.25544115120E+03  0.25544115120E+03  0.00000000000E+00 0. -1.
         -3   -1    0    0    0  501 -0.00000000000E+00 -0.00000000000E+00 -0.33863107825E+03  0.33863107825E+03  0.00000000000E+00 0.  1.
         23    2    1    2    0    0  0.18948038927E+02 -0.37087194359E+02 -0.31674489865E+03  0.33282995770E+03  0.93348603399E+02 0.  0.
         23    2    1    2    0    0 -0.21624258068E+02  0.15466224915E+02  0.20014678723E+03  0.22135824923E+03  0.90740979790E+02 0.  0.
        -11    1    4    4    0    0 -0.44232552918E+01 -0.28353932976E+02  0.19541436743E+02  0.34718560635E+02  0.00000000000E+00 0.  1.
         11    1    4    4    0    0 -0.17201002776E+02  0.43820157891E+02  0.18060535049E+03  0.18663968859E+03  0.00000000000E+00 0. -1.
        -11    1    3    3    0    0  0.45952811556E+02 -0.10547646279E+02 -0.26236112221E+03  0.26656382384E+03  0.00000000000E+00 0.  1.
         11    1    3    3    0    0 -0.27004772629E+02 -0.26539548080E+02 -0.54383776441E+02  0.66266133861E+02  0.00000000000E+00 0. -1.
         -3    1    1    2    0  502  0.26762191405E+01  0.21620969444E+02  0.33408184376E+02  0.39884022514E+02  0.00000000000E+00 0.  1.
<scales pt_clust_5="13000.00000" pt_clust_6="13000.00000" pt_clust_7="13000.00000" pt_clust_8="13000.00000" pt_clust_9="21.78597"></scales>
<clustering>
<clus scale="   21.786">  1  9  2 -1</clus>
<clus scale="   90.741">  5  6 -1 -1</clus>
<clus scale="   93.349">  7  8 -1 -1</clus>
<clus scale="   99.568">  1  5  2 -1</clus>
<clus scale="   21.786">  1  5  2 -1</clus>
</clustering>
</event>
<event>
 9    1  0.1399746E-005  0.1465325E+03  0.7546771E-02  0.1205667E+00
          2   -1    0    0  502    0 -0.00000000000E+00  0.00000000000E+00  0.21727558939E+03  0.21727558939E+03  0.00000000000E+00 0. -1.
         21   -1    0    0  501  502  0.00000000000E+00 -0.00000000000E+00 -0.31150019081E+03  0.31150019081E+03  0.00000000000E+00 0.  1.
         23    2    1    2    0    0 -0.31072114996E+01  0.10218863008E+03  0.11972014652E+03  0.18176825562E+03  0.90854908440E+02 0.  0.
         23    2    1    2    0    0  0.57169639330E+01 -0.14789202754E+03 -0.59162556123E+02  0.18559767899E+03  0.95087091210E+02 0.  0.
        -13    1    3    3    0    0 -0.27571165957E+02  0.10385002871E+02  0.68945293302E+00  0.29470202277E+02  0.00000000000E+00 0.  1.
         13    1    3    3    0    0  0.24463954458E+02  0.91803627207E+02  0.11903069359E+03  0.15229805334E+03  0.00000000000E+00 0. -1.
        -13    1    4    4    0    0  0.96948861785E+01 -0.56526738147E+02 -0.73288143136E+02  0.93061350022E+02  0.00000000000E+00 0.  1.
         13    1    4    4    0    0 -0.39779222455E+01 -0.91365289393E+02  0.14125587014E+02  0.92536328972E+02  0.00000000000E+00 0. -1.
          2    1    1    2  501    0 -0.26097524334E+01  0.45703397461E+02 -0.15478219182E+03  0.16140984559E+03  0.00000000000E+00 0. -1.
<scales pt_clust_5="13000.00000" pt_clust_6="13000.00000" pt_clust_7="13000.00000" pt_clust_8="13000.00000" pt_clust_9="45.77785"></scales>
<clustering>
<clus scale="   45.778">  2  9  1 -1</clus>
<clus scale="   90.855">  5  6 -1 -1</clus>
<clus scale="   95.087">  7  8 -1 -1</clus>
<clus scale="  143.822">  1  5  2 -1</clus>
<clus scale="   45.778">  2  5  1 -1</clus>
</clustering>
</event>
<event>
 9    1  0.1399746E-005  0.1487214E+03  0.7546771E-02  0.1209426E+00
         21   -1    0    0  501  502  0.00000000000E+00  0.00000000000E+00  0.15035560803E+03  0.15035560803E+03  0.00000000000E+00 0. -1.
          2   -1    0    0  502    0 -0.00000000000E+00 -0.00000000000E+00 -0.62730536591E+03  0.62730536591E+03  0.00000000000E+00 0. -1.
         23    2    1    2    0    0  0.77337002232E+02  0.21934763882E+02 -0.42627650965E+03  0.45022618522E+03  0.12053965901E+03 0.  0.
         23    2    1    2    0    0 -0.16039825823E+03  0.63164837553E+02  0.61585864667E+01  0.19563580601E+03  0.92293241677E+02 0.  0.
        -11    1    3    3    0    0  0.57153059882E+01  0.60374838044E+02 -0.13861534189E+03  0.15130102048E+03  0.00000000000E+00 0.  1.
         11    1    3    3    0    0  0.71621696244E+02 -0.38440074162E+02 -0.28766116776E+03  0.29892516473E+03  0.00000000000E+00 0. -1.
        -13    1    4    4    0    0 -0.31307375322E+02  0.54664898773E+02  0.18559616571E+02  0.65672385937E+02  0.00000000000E+00 0.  1.
         13    1    4    4    0    0 -0.12909088291E+03  0.84999387797E+01 -0.12401030104E+02  0.12996342007E+03  0.00000000000E+00 0. -1.
          2    1    1    2  501    0  0.83061255996E+02 -0.85099601435E+02 -0.56831834695E+02  0.13179898272E+03  0.00000000000E+00 0. -1.
<scales pt_clust_5="13000.00000" pt_clust_6="13000.00000" pt_clust_7="13000.00000" pt_clust_8="13000.00000" pt_clust_9="118.91642"></scales>
<clustering>
<clus scale="   92.293">  7  8 -1 -1</clus>
<clus scale="  118.916">  1  9  2 -1</clus>
<clus scale="  120.540">  5  6 -1 -1</clus>
<clus scale="  126.911">  1  7  2 -1</clus>
<clus scale="  118.916">  1  5  2 -1</clus>
</clustering>
</event>
<event>
 9    1  0.1399746E-005  0.1352235E+03  0.7546771E-02  0.1220394E+00
         -1   -1    0    0    0  501 -0.00000000000E+00  0.00000000000E+00  0.60993212120E+03  0.60993212120E+03  0.00000000000E+00 0.  1.
         21   -1    0    0  501  502  0.00000000000E+00 -0.00000000000E+00 -0.95124497780E+02  0.95124497780E+02  0.00000000000E+00 0.  1.
         23    2    1    2    0    0  0.39840404548E+02  0.85197924095E+02  0.31248077961E+03  0.33929601608E+03  0.92906430359E+02 0.  0.
         23    2    1    2    0    0  0.25543790146E+02 -0.11621679080E+03  0.24098605888E+03  0.28371306840E+03  0.90884525232E+02 0.  0.
        -11    1    3    3    0    0  0.59400178419E+02  0.92641703015E+02  0.27760834683E+03  0.29862561940E+03  0.00000000000E+00 0.  1.
         11    1    3    3    0    0 -0.19559773871E+02 -0.74437789194E+01  0.34872432781E+02  0.40670396685E+02  0.00000000000E+00 0. -1.
        -13    1    4    4    0    0 -0.10708991403E+02 -0.10769789900E+03  0.14641429708E+03  0.18207324442E+03  0.00000000000E+00 0.  1.
         13    1    4    4    0    0  0.36252781549E+02 -0.85188918005E+01  0.94571761801E+02  0.10163982398E+03  0.00000000000E+00 0. -1.
         -1    1    1    2    0  502 -0.65384194694E+02  0.31018866703E+02 -0.38659215068E+02  0.82047534497E+02  0.00000000000E+00 0.  1.
<scales pt_clust_5="13000.00000" pt_clust_6="13000.00000" pt_clust_7="13000.00000" pt_clust_8="13000.00000" pt_clust_9="72.36894"></scales>
<clustering>
<clus scale="   72.369">  2  9  1 -1</clus>
<clus scale="   90.885">  7  8 -1 -1</clus>
<clus scale="   92.906">  5  6 -1 -1</clus>
<clus scale="  133.842">  2  7  1 -1</clus>
<clus scale="   72.369">  2  5  1 -1</clus>
</clustering>
</event>
<event>
 9    1  0.1399746E-005  0.1680167E+03  0.7546771E-02  0.1190085E+00
         21   -1    0    0  501  502  0.00000000000E+00  0.00000000000E+00  0.12719619311E+03  0.12719619311E+03  0.00000000000E+00 0. -1.
          1   -1    0    0  502    0 -0.00000000000E+00 -0.00000000000E+00 -0.48233269456E+03  0.48233269456E+03  0.00000000000E+00 0. -1.
         23    2    1    2    0    0 -0.74150232211E+02 -0.64917942129E+02 -0.22908298167E+03  0.26539269102E+03  0.90783653862E+02 0.  0.
         23    2    1    2    0    0 -0.72996957958E+02  0.77344178080E+02 -0.12415382127E+03  0.19645303658E+03  0.10894469465E+03 0.  0.
        -11    1    4    4    0    0  0.19933828245E+02  0.40642983550E+02 -0.68433264130E+02  0.82050723701E+02  0.00000000000E+00 0.  1.
         11    1    4    4    0    0 -0.92930786203E+02  0.36701194530E+02 -0.55720557143E+02  0.11440231288E+03  0.00000000000E+00 0. -1.
        -11    1    3    3    0    0 -0.57876192871E+02 -0.86008785217E+02 -0.15328683219E+03  0.18505139221E+03  0.00000000000E+00 0. -1.
         11    1    3    3    0    0 -0.16274039340E+02  0.21090843088E+02 -0.75796149475E+02  0.80341298806E+02  0.00000000000E+00 0.  1.
          1    1    1    2  501    0  0.14714719017E+03 -0.12426235951E+02 -0.18996985024E+01  0.14768316007E+03  0.00000000000E+00 0. -1.
<scales pt_clust_5="13000.00000" pt_clust_6="13000.00000" pt_clust_7="13000.00000" pt_clust_8="13000.00000" pt_clust_9="127.90885"></scales>
<clustering>
<clus scale="   90.784">  7  8 -1 -1</clus>
<clus scale="  108.945">  5  6 -1 -1</clus>
<clus scale="  133.994">  2  7  1 -1</clus>
<clus scale="  127.909">  1  9  2 -1</clus>
<clus scale="  127.909">  1  5  2 -1</clus>
</clustering>
</event>
<event>
 9    1  0.1399746E-005  0.1056211E+03  0.7546771E-02  0.1270753E+00
          1   -1    0    0  502    0 -0.00000000000E+00  0.00000000000E+00  0.15438856131E+03  0.15438856131E+03  0.00000000000E+00 0. -1.
         21   -1    0    0  501  502  0.00000000000E+00 -0.00000000000E+00 -0.24392642257E+03  0.24392642257E+03  0.00000000000E+00 0. -1.
         23    2    1    2    0    0  0.28527378677E+02  0.26087614415E+02  0.87750521291E+02  0.13452641729E+03  0.94354798517E+02 0.  0.
         23    2    1    2    0    0 -0.78812246686E+02 -0.56679927720E+02 -0.96872271585E+02  0.16413311774E+03  0.90174602311E+02 0.  0.
        -11    1    4    4    0    0  0.83217265637E+01 -0.43509728871E+02 -0.29820838661E+02  0.53400655969E+02  0.00000000000E+00 0.  1.
         11    1    4    4    0    0 -0.87133973250E+02 -0.13170198849E+02 -0.67051432924E+02  0.11073246177E+03  0.00000000000E+00 0. -1.
        -13    1    3    3    0    0  0.37131014547E+01 -0.35427218155E+02  0.29590894697E+02  0.46308702828E+02  0.00000000000E+00 0. -1.
         13    1    3    3    0    0  0.24814277222E+02  0.61514832570E+02  0.58159626594E+02  0.88217714466E+02  0.00000000000E+00 0.  1.
          1    1    1    2  501    0  0.50284868010E+02  0.30592313306E+02 -0.80416110962E+02  0.99655448854E+02  0.00000000000E+00 0. -1.
<scales pt_clust_5="13000.00000" pt_clust_6="13000.00000" pt_clust_7="13000.00000" pt_clust_8="13000.00000" pt_clust_9="58.85964"></scales>
<clustering>
<clus scale="   58.860">  2  9  1 -1</clus>
<clus scale="   90.175">  5  6 -1 -1</clus>
<clus scale="   94.355">  7  8 -1 -1</clus>
<clus scale="  101.904">  2  5  1 -1</clus>
<clus scale="   58.860">  2  5  1 -1</clus>
</clustering>
</event>
<event>
 9    1  0.1399746E-005  0.1058855E+03  0.7546771E-02  0.1271131E+00
          2   -1    0    0  502    0 -0.00000000000E+00  0.00000000000E+00  0.33053476208E+03  0.33053476208E+03  0.00000000000E+00 0. -1.
         21   -1    0    0  501  502  0.00000000000E+00 -0.00000000000E+00 -0.15560066818E+03  0.15560066818E+03  0.00000000000E+00 0.  1.
         23    2    1    2    0    0  0.18602364793E+02 -0.19389660451E+02  0.12843755709E+03  0.16345668933E+03  0.97467308909E+02 0.  0.
         23    2    1    2    0    0 -0.63024030834E+02 -0.72934680362E+01  0.16172109918E+03  0.19633803675E+03  0.91485996839E+02 0.  0.
        -11    1    4    4    0    0 -0.26178496739E+02 -0.27023326802E+02  0.99505396983E+01  0.38917696788E+02  0.00000000000E+00 0.  1.
         11    1    4    4    0    0 -0.36845534094E+02  0.19729858766E+02  0.15177055948E+03  0.15742033997E+03  0.00000000000E+00 0. -1.
        -13    1    3    3    0    0  0.57951135478E+02 -0.69860364753E+01  0.88639865046E+02  0.10613276819E+03  0.00000000000E+00 0.  1.
         13    1    3    3    0    0 -0.39348770685E+02 -0.12403623976E+02  0.39797692048E+02  0.57323921137E+02  0.00000000000E+00 0. -1.
          2    1    1    2  501    0  0.44421666041E+02  0.26683128487E+02 -0.11522456237E+03  0.12634070418E+03  0.00000000000E+00 0. -1.
<scales pt_clust_5="13000.00000" pt_clust_6="13000.00000" pt_clust_7="13000.00000" pt_clust_8="13000.00000" pt_clust_9="51.81963"></scales>
<clustering>
<clus scale="   51.820">  2  9  1 -1</clus>
<clus scale="   91.486">  5  6 -1 -1</clus>
<clus scale="   97.467">  7  8 -1 -1</clus>
<clus scale="  100.407">  2  5  1 -1</clus>
<clus scale="   51.820">  2  5  1 -1</clus>
</clustering>
</event>
<event>
 9    1  0.1399746E-005  0.9597728E+02  0.7546771E-02  0.1289374E+00
         -1   -1    0    0    0  501 -0.00000000000E+00  0.00000000000E+00  0.29495584735E+02  0.29495584735E+02  0.00000000000E+00 0.  1.
         21   -1    0    0  501  502  0.00000000000E+00 -0.00000000000E+00 -0.73642733086E+03  0.73642733086E+03  0.00000000000E+00 0.  1.
         23    2    1    2    0    0 -0.16351292449E+02  0.26244147506E+02 -0.13972042449E+03  0.16977890675E+03  0.91361699384E+02 0.  0.
         23    2    1    2    0    0 -0.30176289522E+02 -0.32715267486E+02 -0.18247305662E+03  0.20854857047E+03  0.90637700099E+02 0.  0.
        -11    1    3    3    0    0 -0.17732293287E+02 -0.18087772174E+02 -0.23651072093E+01  0.25440036548E+02  0.00000000000E+00 0.  1.
         11    1    3    3    0    0  0.13810008376E+01  0.44331919679E+02 -0.13735531728E+03  0.14433887020E+03  0.00000000000E+00 0. -1.
        -13    1    4    4    0    0 -0.54455103076E+02 -0.26644080417E+02 -0.66837728336E+02  0.90236063752E+02  0.00000000000E+00 0.  1.
         13    1    4    4    0    0  0.24278813554E+02 -0.60711870690E+01 -0.11563532828E+03  0.11831250672E+03  0.00000000000E+00 0. -1.
         -1    1    1    2    0  502  0.46527581972E+02  0.64711199802E+01 -0.38473826501E+03  0.38759543837E+03  0.00000000000E+00 0.  1.
<scales pt_clust_5="13000.00000" pt_clust_6="13000.00000" pt_clust_7="13000.00000" pt_clust_8="13000.00000" pt_clust_9="46.97543"></scales>
<clustering>
<clus scale="   46.975">  2  9  1 -1</clus>
<clus scale="   90.638">  7  8 -1 -1</clus>
<clus scale="   91.362">  5  6 -1 -1</clus>
<clus scale="   95.288">  2  7  1 -1</clus>
<clus scale="   46.975">  2  5  1 -1</clus>
</clustering>
</event>
<event>
 9    1  0.1399746E-005  0.1065228E+03  0.7546771E-02  0.1268926E+00
         21   -1    0    0  501  502  0.00000000000E+00  0.00000000000E+00  0.33512037000E+02  0.33512037000E+02  0.00000000000E+00 0.  1.
         -2   -1    0    0    0  501 -0.00000000000E+00 -0.00000000000E+00 -0.44613977863E+03  0.44613977863E+03  0.00000000000E+00 0.  1.
         23    2    1    2    0    0  0.45365816030E+02  0.46989412248E+02 -0.23289015608E+03  0.25708608973E+03  0.87116993791E+02 0.  0.
         23    2    1    2    0    0 -0.29478736093E+02 -0.31006767972E+02 -0.17071315717E+03  0.19829054239E+03  0.91355030661E+02 0.  0.
        -13    1    3    3    0    0  0.62320598881E+02  0.23552674885E+02 -0.20964695159E+03  0.21997824858E+03  0.00000000000E+00 0.  1.
         13    1    3    3    0    0 -0.16954782851E+02  0.23436737363E+02 -0.23243204494E+02  0.37107841151E+02  0.00000000000E+00 0. -1.
        -13    1    4    4    0    0 -0.31358748679E+02  0.83288240614E+00 -0.78547199580E+01  0.32338234916E+02  0.00000000000E+00 0. -1.
         13    1    4    4    0    0  0.18800125868E+01 -0.31839650378E+02 -0.16285843721E+03  0.16595230747E+03  0.00000000000E+00 0.  1.
         -2    1    1    2    0  502 -0.15887079937E+02 -0.15982644276E+02 -0.90244283793E+01  0.24275183512E+02  0.00000000000E+00 0.  1.
<scales pt_clust_5="13000.00000" pt_clust_6="13000.00000" pt_clust_7="13000.00000" pt_clust_8="13000.00000" pt_clust_9="22.53540"></scales>
<clustering>
<clus scale="   22.535">  1  9  2 -1</clus>
<clus scale="   87.117">  5  6 -1 -1</clus>
<clus scale="   91.355">  7  8 -1 -1</clus>
<clus scale="  102.911">  2  5  1 -1</clus>
<clus scale="   22.535">  1  5  2 -1</clus>
</clustering>
</event>
<event>
 9    1  0.1399746E-005  0.1028049E+03  0.7546771E-02  0.1275083E+00
          3   -1    0    0  502    0 -0.00000000000E+00  0.00000000000E+00  0.41005301535E+03  0.41005301535E+03  0.00000000000E+00 0. -1.
         21   -1    0    0  501  502  0.00000000000E+00 -0.00000000000E+00 -0.77321728932E+02  0.77321728932E+02  0.00000000000E+00 0.  1.
         23    2    1    2    0    0  0.34588857019E+02 -0.25150717701E+02  0.26608734033E+03  0.28491508161E+03  0.92440161262E+02 0.  0.
         23    2    1    2    0    0  0.11233964390E+02  0.67104616671E+02  0.77585658890E+02  0.13937573699E+03  0.93684737607E+02 0.  0.
        -11    1    4    4    0    0  0.28855595037E+02  0.66938256565E+01 -0.10231849737E+02  0.31339167441E+02  0.00000000000E+00 0.  1.
         11    1    4    4    0    0 -0.17621630647E+02  0.60410791014E+02  0.87817508627E+02  0.10803656955E+03  0.00000000000E+00 0. -1.
        -13    1    3    3    0    0  0.59652201475E+02 -0.30072412404E+02  0.12696232643E+03  0.14346486490E+03  0.00000000000E+00 0.  1.
         13    1    3    3    0    0 -0.25063344457E+02  0.49216947026E+01  0.13912501390E+03  0.14145021671E+03  0.00000000000E+00 0. -1.
          3    1    1    2  501    0 -0.45822821408E+02 -0.41953898969E+02 -0.10941712805E+02  0.63083925684E+02  0.00000000000E+00 0. -1.
<scales pt_clust_5="13000.00000" pt_clust_6="13000.00000" pt_clust_7="13000.00000" pt_clust_8="13000.00000" pt_clust_9="62.12778"></scales>
<clustering>
<clus scale="   62.128">  2  9  1 -1</clus>
<clus scale="   92.440">  7  8 -1 -1</clus>
<clus scale="   93.685">  5  6 -1 -1</clus>
<clus scale="  101.672">  1  7  2 -1</clus>
<clus scale="   62.128">  2  5  1 -1</clus>
</clustering>
</event>
<event>
 9    1  0.1399746E-005  0.1489049E+03  0.7546771E-02  0.1210898E+00
         21   -1    0    0  501  502  0.00000000000E+00  0.00000000000E+00  0.26266563286E+02  0.26266563286E+02  0.00000000000E+00 0. -1.
          1   -1    0    0  502    0 -0.00000000000E+00 -0.00000000000E+00 -0.15261685760E+04  0.15261685760E+04  0.00000000000E+00 0. -1.
         23    2    1    2    0    0 -0.81879017912E+02  0.14568034407E+02 -0.65160362014E+03  0.66343784245E+03  0.92984363264E+02 0.  0.
         23    2    1    2    0    0  0.37008080436E+02 -0.10264312282E+03 -0.50296724464E+03  0.52979787595E+03  0.12571607497E+03 0.  0.
        -11    1    4    4    0    0 -0.91177828692E+01  0.25860235394E+02 -0.12374778620E+03  0.12674936027E+03  0.00000000000E+00 0.  1.
         11    1    4    4    0    0  0.46125863305E+02 -0.12850335821E+03 -0.37921945844E+03  0.40304851568E+03  0.00000000000E+00 0. -1.
        -13    1    3    3    0    0 -0.10161122789E+03  0.46155084867E+01 -0.56336010733E+03  0.57246899923E+03  0.00000000000E+00 0. -1.
         13    1    3    3    0    0  0.19732209978E+02  0.99525259202E+01 -0.88243512818E+02  0.90968843223E+02  0.00000000000E+00 0.  1.
          1    1    1    2  501    0  0.44870937476E+02  0.88075088411E+02 -0.34533114793E+03  0.35919942087E+03  0.00000000000E+00 0. -1.
<scales pt_clust_5="13000.00000" pt_clust_6="13000.00000" pt_clust_7="13000.00000" pt_clust_8="13000.00000" pt_clust_9="98.84646"></scales>
<clustering>
<clus scale="   92.984">  7  8 -1 -1</clus>
<clus scale="   98.846">  1  9  2 -1</clus>
<clus scale="  122.533">  2  7  1 -1</clus>
<clus scale="  125.716">  5  6 -1 -1</clus>
<clus scale="   98.846">  1  5  2 -1</clus>
</clustering>
</event>
<event>
 9    1  0.1399746E-005  0.9636615E+02  0.7546771E-02  0.1290234E+00
          2   -1    0    0  502    0 -0.00000000000E+00  0.00000000000E+00  0.39259729928E+03  0.39259729928E+03  0.00000000000E+00 0. -1.
         21   -1    0    0  501  502  0.00000000000E+00 -0.00000000000E+00 -0.78994359699E+02  0.78994359699E+02  0.00000000000E+00 0. -1.
         23    2    1    2    0    0 -0.12197535458E+02 -0.10947942450E+02  0.26411706006E+03  0.27973981030E+03  0.90707787644E+02 0.  0.
         23    2    1    2    0    0  0.33693424923E+02 -0.84416961749E+01  0.94656830398E+02  0.13820069629E+03  0.94514590385E+02 0.  0.
        -11    1    4    4    0    0  0.44238675086E+02 -0.43836391378E+02  0.70504756743E+02  0.94072367387E+02  0.00000000000E+00 0.  1.
         11    1    4    4    0    0 -0.10545250164E+02  0.35394695203E+02  0.24152073655E+02  0.44128328899E+02  0.00000000000E+00 0. -1.
        -13    1    3    3    0    0  0.36337632949E+02 -0.41228416193E-01  0.16359810934E+03  0.16758510271E+03  0.00000000000E+00 0. -1.
         13    1    3    3    0    0 -0.48535168407E+02 -0.10906714034E+02  0.10051895071E+03  0.11215470760E+03  0.00000000000E+00 0.  1.
          2    1    1    2  501    0 -0.21495889465E+02  0.19389638625E+02 -0.45170950875E+02  0.53651152391E+02  0.00000000000E+00 0. -1.
<scales pt_clust_5="13000.00000" pt_clust_6="13000.00000" pt_clust_7="13000.00000" pt_clust_8="13000.00000" pt_clust_9="28.94877"></scales>
<clustering>
<clus scale="   28.949">  2  9  1 -1</clus>
<clus scale="   90.708">  7  8 -1 -1</clus>
<clus scale="   92.635">  1  7  2 -1</clus>
<clus scale="   94.515">  5  6 -1 -1</clus>
<clus scale="   28.949">  2  5  1 -1</clus>
</clustering>
</event>
<event>
 9    1  0.1399746E-005  0.9578139E+02  0.7546771E-02  0.1290453E+00
          2   -1    0    0  502    0 -0.00000000000E+00  0.00000000000E+00  0.47173390156E+03  0.47173390156E+03  0.00000000000E+00 0. -1.
         21   -1    0    0  501  502  0.00000000000E+00 -0.00000000000E+00 -0.54267249249E+02  0.54267249249E+02  0.00000000000E+00 0.  1.
         23    2    1    2    0    0  0.21581496487E+02 -0.80432939294E+01  0.25100869097E+03  0.26870590304E+03  0.93096959220E+02 0.  0.
         23    2    1    2    0    0 -0.23484991586E+02 -0.14200289879E+02  0.19737571944E+03  0.21915985634E+03  0.91217733706E+02 0.  0.
        -11    1    3    3    0    0  0.42773353960E+02 -0.83125358414E+01  0.24163427429E+03  0.24553162845E+03  0.00000000000E+00 0. -1.
         11    1    3    3    0    0 -0.21191857473E+02  0.26924191198E+00  0.93744166887E+01  0.23174274587E+02  0.00000000000E+00 0.  1.
        -13    1    4    4    0    0 -0.33035503433E+02  0.21024116181E+02  0.16743714441E+03  0.17195509669E+03  0.00000000000E+00 0.  1.
         13    1    4    4    0    0  0.95505118469E+01 -0.35224406060E+02  0.29938575031E+02  0.47204759651E+02  0.00000000000E+00 0. -1.
          2    1    1    2  501    0  0.19034950994E+01  0.22243583808E+02 -0.30917758098E+02  0.38135391437E+02  0.00000000000E+00 0. -1.
<scales pt_clust_5="13000.00000" pt_clust_6="13000.00000" pt_clust_7="13000.00000" pt_clust_8="13000.00000" pt_clust_9="22.32488"></scales>
<clustering>
<clus scale="   22.325">  2  9  1 -1</clus>
<clus scale="   91.218">  7  8 -1 -1</clus>
<clus scale="   93.097">  5  6 -1 -1</clus>
<clus scale="   93.956">  2  7  1 -1</clus>
<clus scale="   22.325">  2  5  1 -1</clus>
</clustering>
</event>
<event>
 9    1  0.1399746E-005  0.1497508E+03  0.7546771E-02  0.1215724E+00
         21   -1    0    0  501  502  0.00000000000E+00  0.00000000000E+00  0.68585045651E+03  0.68585045651E+03  0.00000000000E+00 0. -1.
          2   -1    0    0  502    0 -0.00000000000E+00 -0.00000000000E+00 -0.15418063662E+03  0.15418063662E+03  0.00000000000E+00 0. -1.
         23    2    1    2    0    0  0.38507721799E+02 -0.45606361331E+02  0.68275139055E+02  0.12839243258E+03  0.90886397767E+02 0.  0.
         23    2    1    2    0    0 -0.11558764694E+03  0.13039902979E+03 -0.34866612523E+02  0.20037021056E+03  0.92564191344E+02 0.  0.
        -11    1    3    3    0    0  0.47664298956E+01  0.27635276497E+02  0.15914164944E+02  0.32244193383E+02  0.00000000000E+00 0. -1.
         11    1    3    3    0    0  0.33741291903E+02 -0.73241637829E+02  0.52360974111E+02  0.96148239198E+02  0.00000000000E+00 0.  1.
        -13    1    4    4    0    0 -0.47715778680E+02 -0.18482420768E+01 -0.27945711080E+00  0.47752378266E+02  0.00000000000E+00 0.  1.
         13    1    4    4    0    0 -0.67871868257E+02  0.13224727186E+03 -0.34587155412E+02  0.15261783230E+03  0.00000000000E+00 0. -1.
          2    1    1    2  501    0  0.77079925138E+02 -0.84792668455E+02  0.49826129336E+03  0.51126844998E+03  0.00000000000E+00 0. -1.
<scales pt_clust_5="13000.00000" pt_clust_6="13000.00000" pt_clust_7="13000.00000" pt_clust_8="13000.00000" pt_clust_9="117.71653"></scales>
<clustering>
<clus scale="   90.886">  5  6 -1 -1</clus>
<clus scale="   92.564">  7  8 -1 -1</clus>
<clus scale="  108.734">  2  5  1 -1</clus>
<clus scale="  117.717">  1  9  2 -1</clus>
<clus scale="  117.717">  1  5  2 -1</clus>
</clustering>
</event>
<event>
 9    1  0.1399746E-005  0.1802541E+03  0.7546771E-02  0.1167812E+00
         -1   -1    0    0    0  501 -0.00000000000E+00  0.00000000000E+00  0.32145701805E+03  0.32145701805E+03  0.00000000000E+00 0.  1.
         21   -1    0    0  501  502  0.00000000000E+00 -0.00000000000E+00 -0.20980883295E+03  0.20980883295E+03  0.00000000000E+00 0.  1.
         23    2    1    2    0    0  0.10883808125E+02 -0.16704682579E+03  0.20812297377E+03  0.28145754342E+03  0.88769799201E+02 0.  0.
         23    2    1    2    0    0  0.14305736947E+02  0.12810648798E+03 -0.18111908344E+02  0.15875006192E+03  0.90871417758E+02 0.  0.
        -11    1    3    3    0    0  0.47881354754E+02 -0.65574001214E+02  0.81794218522E+02  0.11525132516E+03  0.00000000000E+00 0.  1.
         11    1    3    3    0    0 -0.36997546629E+02 -0.10147282458E+03  0.12632875525E+03  0.16620621826E+03  0.00000000000E+00 0. -1.
        -13    1    4    4    0    0  0.37510290106E+02  0.12672843070E+02 -0.93461872372E+01  0.40681372041E+02  0.00000000000E+00 0.  1.
         13    1    4    4    0    0 -0.23204553159E+02  0.11543364491E+03 -0.87657211069E+01  0.11806868988E+03  0.00000000000E+00 0. -1.
         -1    1    1    2    0  502 -0.25189545072E+02  0.38940337814E+02 -0.78362880325E+02  0.91058245661E+02  0.00000000000E+00 0.  1.
<scales pt_clust_5="13000.00000" pt_clust_6="13000.00000" pt_clust_7="13000.00000" pt_clust_8="13000.00000" pt_clust_9="46.37740"></scales>
<clustering>
<clus scale="   46.377">  2  9  1 -1</clus>
<clus scale="   88.770">  5  6 -1 -1</clus>
<clus scale="   90.871">  7  8 -1 -1</clus>
<clus scale="  179.204">  1  5  2 -1</clus>
<clus scale="   46.377">  2  5  1 -1</clus>
</clustering>
</event>
<event>
 9    1  0.1399746E-005  0.1153167E+03  0.7546771E-02  0.1251364E+00
          2   -1    0    0  502    0 -0.00000000000E+00  0.00000000000E+00  0.10531723434E+04  0.10531723434E+04  0.00000000000E+00 0. -1.
         21   -1    0    0  501  502  0.00000000000E+00 -0.00000000000E+00 -0.17933858631E+02  0.17933858631E+02  0.00000000000E+00 0.  1.
         23    2    1    2    0    0  0.67956206066E+02 -0.17111339338E+02  0.55480361630E+03  0.56684201790E+03  0.92692916250E+02 0.  0.
         23    2    1    2    0    0 -0.58062864590E+02  0.36851622705E+02  0.46035947291E+03  0.47442162223E+03  0.91737086299E+02 0.  0.
        -11    1    4    4    0    0 -0.38824896055E+02  0.66941540892E+02  0.34894590761E+03  0.35742382250E+03  0.00000000000E+00 0.  1.
         11    1    4    4    0    0 -0.19237968534E+02 -0.30089918187E+02  0.11141356529E+03  0.11699779973E+03  0.00000000000E+00 0. -1.
        -13    1    3    3    0    0  0.44499178088E+01  0.33066646947E+02  0.11912817892E+03  0.12371227878E+03  0.00000000000E+00 0.  1.
         13    1    3    3    0    0  0.63506288257E+02 -0.50177986285E+02  0.43567543738E+03  0.44312973912E+03  0.00000000000E+00 0. -1.
          2    1    1    2  501    0 -0.98933414762E+01 -0.19740283367E+02  0.20075395522E+02  0.29842561859E+02  0.00000000000E+00 0. -1.
<scales pt_clust_5="13000.00000" pt_clust_6="13000.00000" pt_clust_7="13000.00000" pt_clust_8="13000.00000" pt_clust_9="22.08069"></scales>
<clustering>
<clus scale="   22.081">  2  9  1 -1</clus>
<clus scale="   91.737">  5  6 -1 -1</clus>
<clus scale="   92.693">  7  8 -1 -1</clus>
<clus scale="  114.550">  2  5  1 -1</clus>
<clus scale="   22.081">  2  5  1 -1</clus>
</clustering>
</event>
<event>
 9    1  0.1399746E-005  0.1233683E+03  0.7546771E-02  0.1240987E+00
         21   -1    0    0  501  502  0.00000000000E+00  0.00000000000E+00  0.13710744272E+03  0.13710744272E+03  0.00000000000E+00 0. -1.
          1   -1    0    0  502    0 -0.00000000000E+00 -0.00000000000E+00 -0.40245760001E+03  0.40245760001E+03  0.00000000000E+00 0. -1.
         23    2    1    2    0    0 -0.45272359701E+02 -0.55468956243E+02 -0.20378331963E+03  0.22851461734E+03  0.74598239378E+02 0.  0.
         23    2    1    2    0    0  0.80410966142E+02  0.14607565139E+03 -0.92006580773E+02  0.20921294297E+03  0.86607304516E+02 0.  0.
        -11    1    3    3    0    0 -0.21142584304E+02 -0.10020423041E+02 -0.60095662756E+01  0.24156420178E+02  0.00000000000E+00 0.  1.
         11    1    3    3    0    0 -0.24129775396E+02 -0.45448533202E+02 -0.19777375335E+03  0.20435819716E+03  0.00000000000E+00 0. -1.
        -11    1    4    4    0    0  0.21492249352E+01  0.21903236428E+02 -0.52929054368E+02  0.57322384198E+02  0.00000000000E+00 0.  1.
         11    1    4    4    0    0  0.78261741207E+02  0.12417241496E+03 -0.39077526405E+02  0.15189055877E+03  0.00000000000E+00 0. -1.
          1    1    1    2  501    0 -0.35138606442E+02 -0.90606695144E+02  0.30439743102E+02  0.10183748243E+03  0.00000000000E+00 0. -1.
<scales pt_clust_5="13000.00000" pt_clust_6="13000.00000" pt_clust_7="13000.00000" pt_clust_8="13000.00000" pt_clust_9="97.18176"></scales>
<clustering>
<clus scale="   74.598">  5  6 -1 -1</clus>
<clus scale="   86.607">  7  8 -1 -1</clus>
<clus scale="   97.182">  1  9  2 -1</clus>
<clus scale="  115.255">  2  5  1 -1</clus>
<clus scale="   97.182">  1  5  2 -1</clus>
</clustering>
</event>
<event>
 9    1  0.1399746E-005  0.9731450E+02  0.7546771E-02  0.1289888E+00
         21   -1    0    0  501  502  0.00000000000E+00  0.00000000000E+00  0.90816816808E+02  0.90816816808E+02  0.00000000000E+00 0. -1.
         -2   -1    0    0    0  501 -0.00000000000E+00 -0.00000000000E+00 -0.23127933928E+03  0.23127933928E+03  0.00000000000E+00 0.  1.
         23    2    1    2    0    0 -0.26946673975E+02  0.51046119969E+01 -0.17808682118E+03  0.20320678338E+03  0.93946264578E+02 0.  0.
         23    2    1    2    0    0  0.10761839182E+02 -0.20721080809E+02  0.26578558545E+02  0.93832809678E+02  0.86907974463E+02 0.  0.
        -11    1    3    3    0    0 -0.23319544120E+02 -0.39631550158E+02 -0.52236514028E+02  0.69592487408E+02  0.00000000000E+00 0. -1.
         11    1    3    3    0    0 -0.36271298550E+01  0.44736162155E+02 -0.12585030716E+03  0.13361429597E+03  0.00000000000E+00 0.  1.
        -11    1    4    4    0    0 -0.10335261675E+02 -0.48475613810E+02 -0.69404565982E+00  0.49569995638E+02  0.00000000000E+00 0. -1.
         11    1    4    4    0    0  0.21097100857E+02  0.27754533001E+02  0.27272604205E+02  0.44262814041E+02  0.00000000000E+00 0.  1.
         -2    1    1    2    0  502  0.16184834793E+02  0.15616468812E+02  0.11045740165E+02  0.25056563037E+02  0.00000000000E+00 0.  1.
<scales pt_clust_5="13000.00000" pt_clust_6="13000.00000" pt_clust_7="13000.00000" pt_clust_8="13000.00000" pt_clust_9="22.49051"></scales>
<clustering>
<clus scale="   22.491">  1  9  2 -1</clus>
<clus scale="   86.908">  7  8 -1 -1</clus>
<clus scale="   90.538">  1  7  2 -1</clus>
<clus scale="   93.946">  5  6 -1 -1</clus>
<clus scale="   22.491">  1  5  2 -1</clus>
</clustering>
</event>
<event>
 9    1  0.1399746E-005  0.1084308E+03  0.7546771E-02  0.1264001E+00
          3   -1    0    0  502    0 -0.00000000000E+00  0.00000000000E+00  0.26450252848E+03  0.26450252848E+03  0.00000000000E+00 0. -1.
         21   -1    0    0  501  502  0.00000000000E+00 -0.00000000000E+00 -0.58407702800E+02  0.58407702800E+02  0.00000000000E+00 0. -1.
         23    2    1    2    0    0 -0.31249792181E+02  0.59823425970E+02  0.13186766870E+03  0.17394877594E+03  0.91179508654E+02 0.  0.
         23    2    1    2    0    0  0.13647314907E+02 -0.46492159850E+02  0.75218751472E+02  0.12685821751E+03  0.89929842910E+02 0.  0.
        -11    1    3    3    0    0 -0.53364850200E+02  0.23093897335E+02  0.11304955498E+03  0.12712724811E+03  0.00000000000E+00 0. -1.
         11    1    3    3    0    0  0.22115058019E+02  0.36729528635E+02  0.18818113722E+02  0.46821527837E+02  0.00000000000E+00 0.  1.
        -13    1    4    4    0    0  0.47784315340E+02 -0.46590942022E+01  0.38814336190E+02  0.61738161984E+02  0.00000000000E+00 0.  1.
         13    1    4    4    0    0 -0.34137000433E+02 -0.41833065648E+02  0.36404415282E+02  0.65120055529E+02  0.00000000000E+00 0. -1.
          3    1    1    2  501    0  0.17602477274E+02 -0.13331266120E+02 -0.99159449385E+00  0.22103237821E+02  0.00000000000E+00 0. -1.
<scales pt_clust_5="13000.00000" pt_clust_6="13000.00000" pt_clust_7="13000.00000" pt_clust_8="13000.00000" pt_clust_9="22.08098"></scales>
<clustering>
<clus scale="   22.081">  2  9  1 -1</clus>
<clus scale="   89.930">  7  8 -1 -1</clus>
<clus scale="   91.180">  5  6 -1 -1</clus>
<clus scale="  107.382">  2  7  1 -1</clus>
<clus scale="   22.081">  2  5  1 -1</clus>
</clustering>
</event>
<event>
 9    1  0.1399746E-005  0.1081952E+03  0.7546771E-02  0.1267542E+00
         21   -1    0    0  501  502  0.00000000000E+00  0.00000000000E+00  0.74568983725E+02  0.74568983725E+02  0.00000000000E+00 0.  1.
          2   -1    0    0  502    0 -0.00000000000E+00 -0.00000000000E+00 -0.53426728568E+03  0.53426728568E+03  0.00000000000E+00 0. -1.
         23    2    1    2    0    0  0.26292051623E+02  0.32822032826E+02 -0.40086970800E+03  0.41332939105E+03  0.91521062576E+02 0.  0.
         23    2    1    2    0    0  0.17978943458E+02 -0.68187391375E+02 -0.13064396830E+02  0.12267150694E+03  0.99523150074E+02 0.  0.
        -11    1    3    3    0    0  0.46802660475E+02  0.51111003494E+02 -0.33246353530E+03  0.33960981437E+03  0.00000000000E+00 0.  1.
         11    1    3    3    0    0 -0.20510608852E+02 -0.18288970667E+02 -0.68406172693E+02  0.73719576681E+02  0.00000000000E+00 0. -1.
        -11    1    4    4    0    0 -0.34736603346E+02  0.65574214643E+00 -0.88938377818E+01  0.35863100260E+02  0.00000000000E+00 0. -1.
         11    1    4    4    0    0  0.52715546805E+02 -0.68843133521E+02 -0.41705590483E+01  0.86808406682E+02  0.00000000000E+00 0.  1.
          2    1    1    2  501    0 -0.44270995081E+02  0.35365358548E+02 -0.45764197128E+02  0.72835371417E+02  0.00000000000E+00 0. -1.
<scales pt_clust_5="13000.00000" pt_clust_6="13000.00000" pt_clust_7="13000.00000" pt_clust_8="13000.00000" pt_clust_9="56.66242"></scales>
<clustering>
<clus scale="   56.662">  1  9  2 -1</clus>
<clus scale="   91.521">  5  6 -1 -1</clus>
<clus scale="   99.523">  7  8 -1 -1</clus>
<clus scale="  100.883">  2  5  1 -1</clus>
<clus scale="   56.662">  1  5  2 -1</clus>
</clustering>
</event>
<event>
 9    1  0.1399746E-005  0.1415750E+03  0.7546771E-02  0.1211485E+00
         21   -1    0    0  501  502  0.00000000000E+00  0.00000000000E+00  0.79626854460E+02  0.79626854460E+02  0.00000000000E+00 0. -1.
          1   -1    0    0  502    0 -0.00000000000E+00 -0.00000000000E+00 -0.72726484679E+03  0.72726484679E+03  0.00000000000E+00 0. -1.
         23    2    1    2    0    0 -0.89566531757E+02 -0.41294886215E+02 -0.43691688891E+03  0.45709927215E+03  0.91191806368E+02 0.  0.
         23    2    1    2    0    0  0.12975031519E+03  0.29163567919E+02 -0.24680572128E+03  0.29443897410E+03  0.89975482394E+02 0.  0.
        -13    1    4    4    0    0  0.10364114961E+03  0.50448565795E+02 -0.13422322997E+03  0.17692490256E+03  0.00000000000E+00 0.  1.
         13    1    4    4    0    0  0.26109165580E+02 -0.21284997876E+02 -0.11258249131E+03  0.11751407155E+03  0.00000000000E+00 0. -1.
        -13    1    3    3    0    0 -0.50386706480E+02  0.94914825780E+01 -0.84086040126E+02  0.98485382547E+02  0.00000000000E+00 0.  1.
         13    1    3    3    0    0 -0.39179825277E+02 -0.50786368793E+02 -0.35283084878E+03  0.35861388960E+03  0.00000000000E+00 0. -1.
          1    1    1    2  501    0 -0.40183783429E+02  0.12131318296E+02  0.36084617855E+02  0.55353454996E+02  0.00000000000E+00 0. -1.
<scales pt_clust_5="13000.00000" pt_clust_6="13000.00000" pt_clust_7="13000.00000" pt_clust_8="13000.00000" pt_clust_9="41.97506"></scales>
<clustering>
<clus scale="   41.975">  1  9  2 -1</clus>
<clus scale="   89.975">  5  6 -1 -1</clus>
<clus scale="   91.192">  7  8 -1 -1</clus>
<clus scale="  140.795">  1  5  2 -1</clus>
<clus scale="   41.975">  1  5  2 -1</clus>
</clustering>
</event>
<event>
 9    1  0.1399746E-005  0.2902801E+03  0.7546771E-02  0.1122508E+00
          2   -1    0    0  502    0 -0.00000000000E+00  0.00000000000E+00  0.85165324980E+03  0.85165324980E+03  0.00000000000E+00 0. -1.
         21   -1    0    0  501  502  0.00000000000E+00 -0.00000000000E+00 -0.20845643181E+03  0.20845643181E+03  0.00000000000E+00 0. -1.
         23    2    1    2    0    0 -0.74770092903E+01 -0.90947213174E+02  0.34236530150E+03  0.36507598392E+03  0.87972570213E+02 0.  0.
         23    2    1    2    0    0 -0.60058795510E+02 -0.20272753631E+03  0.31870281047E+03  0.39316397982E+03  0.91109388794E+02 0.  0.
        -13    1    4    4    0    0 -0.37096628758E+02 -0.11121864038E+03  0.25102425410E+03  0.27705400553E+03  0.00000000000E+00 0. -1.
         13    1    4    4    0    0 -0.22962166752E+02 -0.91508895934E+02  0.67678556369E+02  0.11610997429E+03  0.00000000000E+00 0.  1.
        -13    1    3    3    0    0 -0.18839356807E+02 -0.18377949238E+02  0.16564229001E+02  0.31097332129E+02  0.00000000000E+00 0.  1.
         13    1    3    3    0    0  0.11362347517E+02 -0.72569263936E+02  0.32580107250E+03  0.33397865179E+03  0.00000000000E+00 0. -1.
          2    1    1    2  501    0  0.67535804801E+02  0.29367474949E+03 -0.17871293978E+02  0.30186971787E+03  0.00000000000E+00 0. -1.
<scales pt_clust_5="13000.00000" pt_clust_6="13000.00000" pt_clust_7="13000.00000" pt_clust_8="13000.00000" pt_clust_9="275.61133"></scales>
<clustering>
<clus scale="   87.973">  7  8 -1 -1</clus>
<clus scale="   91.109">  5  6 -1 -1</clus>
<clus scale="  126.754">  1  7  2 -1</clus>
<clus scale="  275.611">  2  9  1 -1</clus>
<clus scale="  275.611">  2  5  1 -1</clus>
</clustering>
</event>
<event>
 9    1  0.1399746E-005  0.9267523E+02  0.7546771E-02  0.1297966E+00
         -4   -1    0    0    0  501 -0.00000000000E+00  0.00000000000E+00  0.71583287692E+02  0.71583287692E+02  0.00000000000E+00 0.  1.
         21   -1    0    0  501  502  0.00000000000E+00 -0.00000000000E+00 -0.21947597568E+03  0.21947597568E+03  0.00000000000E+00 0. -1.
         23    2    1    2    0    0 -0.16873412778E+02 -0.52478751272E+01 -0.91055691433E+01  0.94177217038E+02  0.92055334270E+02 0.  0.
         23    2    1    2    0    0 -0.43437557374E+01  0.94964114440E+01 -0.45260845587E+02  0.10088526467E+03  0.89555806287E+02 0.  0.
        -11    1    4    4    0    0 -0.15445915749E+02 -0.33660501643E+02  0.46315748566E+00  0.37038091190E+02  0.00000000000E+00 0.  1.
         11    1    4    4    0    0  0.11102160012E+02  0.43156913087E+02 -0.45724003072E+02  0.63847173478E+02  0.00000000000E+00 0. -1.
        -11    1    3    3    0    0  0.28062172590E+02  0.16686042968E+02  0.18019307736E+02  0.37290816721E+02  0.00000000000E+00 0. -1.
         11    1    3    3    0    0 -0.44935585368E+02 -0.21933918095E+02 -0.27124876879E+02  0.56886400317E+02  0.00000000000E+00 0.  1.
         -4    1    1    2    0  502  0.21217168515E+02 -0.42485363168E+01 -0.93526273254E+02  0.95996781661E+02  0.00000000000E+00 0.  1.
<scales pt_clust_5="13000.00000" pt_clust_6="13000.00000" pt_clust_7="13000.00000" pt_clust_8="13000.00000" pt_clust_9="21.63835"></scales>
<clustering>
<clus scale="   21.638">  2  9  1 -1</clus>
<clus scale="   89.556">  5  6 -1 -1</clus>
<clus scale="   90.193">  2  5  1 -1</clus>
<clus scale="   92.055">  7  8 -1 -1</clus>
<clus scale="   21.638">  2  5  1 -1</clus>
</clustering>
</event>
<event>
 9    1  0.1399746E-005  0.1601506E+03  0.7546771E-02  0.1189797E+00
          1   -1    0    0  502    0 -0.00000000000E+00  0.00000000000E+00  0.30196761487E+03  0.30196761487E+03  0.00000000000E+00 0. -1.
         21   -1    0    0  501  502  0.00000000000E+00 -0.00000000000E+00 -0.18143876367E+03  0.18143876367E+03  0.00000000000E+00 0. -1.
         23    2    1    2    0    0  0.11016233452E+03  0.76908254019E+02  0.15950559256E+03  0.23099347632E+03  0.99324380508E+02 0.  0.
         23    2    1    2    0    0 -0.93598483089E+02 -0.63880366118E+02  0.55090938886E+02  0.15601365169E+03  0.91999297568E+02 0.  0.
        -13    1    4    4    0    0 -0.76242131541E+01  0.20104038619E+02  0.23275516005E+02  0.31686758122E+02  0.00000000000E+00 0.  1.
         13    1    4    4    0    0 -0.85974269935E+02 -0.83984404737E+02  0.31815422882E+02  0.12432689356E+03  0.00000000000E+00 0. -1.
        -13    1    3    3    0    0  0.51133733950E+02  0.54883299464E+02  0.19561435885E+02  0.77520868684E+02  0.00000000000E+00 0.  1.
         13    1    3    3    0    0  0.59028600569E+02  0.22024954556E+02  0.13994415667E+03  0.15347260764E+03  0.00000000000E+00 0. -1.
          1    1    1    2  501    0 -0.16563851430E+02 -0.13027887901E+02 -0.94067680244E+02  0.96399250536E+02  0.00000000000E+00 0. -1.
<scales pt_clust_5="13000.00000" pt_clust_6="13000.00000" pt_clust_7="13000.00000" pt_clust_8="13000.00000" pt_clust_9="21.07337"></scales>
<clustering>
<clus scale="   21.073">  2  9  1 -1</clus>
<clus scale="   91.999">  5  6 -1 -1</clus>
<clus scale="   99.324">  7  8 -1 -1</clus>
<clus scale="  155.714">  2  5  1 -1</clus>
<clus scale="   21.073">  2  5  1 -1</clus>
</clustering>
</event>
<event>
 9    1  0.1399746E-005  0.1007745E+03  0.7546771E-02  0.1278756E+00
         21   -1    0    0  501  502  0.00000000000E+00  0.00000000000E+00  0.42593923505E+02  0.42593923505E+02  0.00000000000E+00 0.  1.
          1   -1    0    0  502    0 -0.00000000000E+00 -0.00000000000E+00 -0.65798775695E+03  0.65798775695E+03  0.00000000000E+00 0. -1.
         23    2    1    2    0    0 -0.80950812704E+02  0.87988925723E+01 -0.36446689378E+03  0.38423831108E+03  0.90401927240E+02 0.  0.
         23    2    1    2    0    0  0.69913639531E+01  0.19809201137E+02 -0.20436846837E+03  0.22438623624E+03  0.90229864969E+02 0.  0.
        -11    1    4    4    0    0  0.48442467113E+02  0.66777578771E+01 -0.11654605700E+03  0.12638927357E+03  0.00000000000E+00 0. -1.
         11    1    4    4    0    0 -0.41451103160E+02  0.13131443260E+02 -0.87822411366E+02  0.97996962675E+02  0.00000000000E+00 0.  1.
        -11    1    3    3    0    0 -0.12078569775E+02  0.43042775877E+02 -0.13911791448E+03  0.14612448984E+03  0.00000000000E+00 0. -1.
         11    1    3    3    0    0 -0.68872242930E+02 -0.34243883305E+02 -0.22534897930E+03  0.23811382124E+03  0.00000000000E+00 0.  1.
          1    1    1    2  501    0  0.73959448751E+02 -0.28608093710E+02 -0.46558471299E+02  0.91957133138E+02  0.00000000000E+00 0. -1.
<scales pt_clust_5="13000.00000" pt_clust_6="13000.00000" pt_clust_7="13000.00000" pt_clust_8="13000.00000" pt_clust_9="79.29958"></scales>
<clustering>
<clus scale="   79.300">  1  9  2 -1</clus>
<clus scale="   90.230">  5  6 -1 -1</clus>
<clus scale="   90.402">  7  8 -1 -1</clus>
<clus scale="  100.620">  1  5  2 -1</clus>
<clus scale="   79.300">  1  5  2 -1</clus>
</clustering>
</event>
<event>
 9    1  0.1399746E-005  0.1871709E+03  0.7546771E-02  0.1171341E+00
          4   -1    0    0  502    0 -0.00000000000E+00  0.00000000000E+00  0.26643200124E+03  0.26643200124E+03  0.00000000000E+00 0. -1.
         21   -1    0    0  501  502  0.00000000000E+00 -0.00000000000E+00 -0.29450067428E+03  0.29450067428E+03  0.00000000000E+00 0. -1.
         23    2    1    2    0    0 -0.11512253838E+03  0.18758773870E+02  0.89007606951E+02  0.17239434041E+03  0.90511679197E+02 0.  0.
         23    2    1    2    0    0  0.51402941218E+02 -0.17232584878E+03 -0.85980703666E+02  0.21939352015E+03  0.91664468362E+02 0.  0.
        -11    1    3    3    0    0 -0.12580158348E+02  0.40839307045E+02  0.24697270570E+02  0.49356504714E+02  0.00000000000E+00 0.  1.
         11    1    3    3    0    0 -0.10254238003E+03 -0.22080533175E+02  0.64310336380E+02  0.12303783570E+03  0.00000000000E+00 0. -1.
        -13    1    4    4    0    0 -0.13910190209E+02 -0.21555473324E+02 -0.42142405400E+02  0.49336742442E+02  0.00000000000E+00 0.  1.
         13    1    4    4    0    0  0.65313131427E+02 -0.15077037545E+03 -0.43838298266E+02  0.17005677771E+03  0.00000000000E+00 0. -1.
          4    1    1    2  501    0  0.63719597163E+02  0.15356707491E+03 -0.31095576334E+02  0.16914481495E+03  0.00000000000E+00 0. -1.
<scales pt_clust_5="13000.00000" pt_clust_6="13000.00000" pt_clust_7="13000.00000" pt_clust_8="13000.00000" pt_clust_9="163.18882"></scales>
<clustering>
<clus scale="   90.512">  5  6 -1 -1</clus>
<clus scale="   91.664">  7  8 -1 -1</clus>
<clus scale="  147.640">  1  5  2 -1</clus>
<clus scale="  163.189">  2  9  1 -1</clus>
<clus scale="  163.189">  2  5  1 -1</clus>
</clustering>
</event>
<event>
 9    1  0.1399746E-005  0.1495221E+03  0.7546771E-02  0.1201276E+00
          1   -1    0    0  502    0 -0.00000000000E+00  0.00000000000E+00  0.12537176630E+04  0.12537176630E+04  0.00000000000E+00 0. -1.
         21   -1    0    0  501  502  0.00000000000E+00 -0.00000000000E+00 -0.30298835627E+02  0.30298835627E+02  0.00000000000E+00 0. -1.
         23    2    1    2    0    0  0.59390042556E+02 -0.92680354283E+02  0.65237042237E+03  0.66806894578E+03  0.92801525369E+02 0.  0.
         23    2    1    2    0    0 -0.11290986706E+03  0.84048068907E+02  0.34822681126E+03  0.38662605232E+03  0.91679203107E+02 0.  0.
        -11    1    4    4    0    0 -0.13787939006E+02  0.63106958408E+02  0.16609499638E+03  0.17821375728E+03  0.00000000000E+00 0.  1.
         11    1    4    4    0    0 -0.99121928059E+02  0.20941110499E+02  0.18213181489E+03  0.20841229504E+03  0.00000000000E+00 0. -1.
        -13    1    3    3    0    0  0.30782267079E+02  0.13340096996E+02  0.18029461669E+03  0.18338935346E+03  0.00000000000E+00 0.  1.
         13    1    3    3    0    0  0.28607775477E+02 -0.10602045128E+03  0.47207580568E+03  0.48467959233E+03  0.00000000000E+00 0. -1.
          1    1    1    2  501    0  0.53519824509E+02  0.86322853759E+01  0.22282159376E+03  0.22932150054E+03  0.00000000000E+00 0. -1.
<scales pt_clust_5="13000.00000" pt_clust_6="13000.00000" pt_clust_7="13000.00000" pt_clust_8="13000.00000" pt_clust_9="54.21154"></scales>
<clustering>
<clus scale="   54.212">  2  9  1 -1</clus>
<clus scale="   91.679">  5  6 -1 -1</clus>
<clus scale="   92.802">  7  8 -1 -1</clus>
<clus scale="  148.828">  2  5  1 -1</clus>
<clus scale="   54.212">  2  5  1 -1</clus>
</clustering>
</event>
<event>
 9    1  0.1399746E-005  0.1182013E+03  0.7546771E-02  0.1247488E+00
         21   -1    0    0  501  502  0.00000000000E+00  0.00000000000E+00  0.30971807552E+02  0.30971807552E+02  0.00000000000E+00 0. -1.
          1   -1    0    0  502    0 -0.00000000000E+00 -0.00000000000E+00 -0.78080560170E+03  0.78080560170E+03  0.00000000000E+00 0. -1.
         23    2    1    2    0    0  0.87984541681E+02  0.47188853879E+02 -0.44420628788E+03  0.46405585692E+03  0.89780535971E+02 0.  0.
         23    2    1    2    0    0 -0.27123853354E+02 -0.27016463846E+02 -0.19726477270E+03  0.22181114479E+03  0.93921247136E+02 0.  0.
        -11    1    4    4    0    0 -0.46142136738E+02  0.12299123797E+02 -0.15018194277E+03  0.15759118365E+03  0.00000000000E+00 0.  1.
         11    1    4    4    0    0  0.19018283384E+02 -0.39315587643E+02 -0.47082829930E+02  0.64219961140E+02  0.00000000000E+00 0. -1.
        -13    1    3    3    0    0  0.10521154557E+03  0.31907032683E+02 -0.38902402758E+03  0.40426132896E+03  0.00000000000E+00 0. -1.
         13    1    3    3    0    0 -0.17227003885E+02  0.15281821197E+02 -0.55182260301E+02  0.59794527959E+02  0.00000000000E+00 0.  1.
          1    1    1    2  501    0 -0.60860688327E+02 -0.20172390034E+02 -0.10836273356E+03  0.12591040754E+03  0.00000000000E+00 0. -1.
<scales pt_clust_5="13000.00000" pt_clust_6="13000.00000" pt_clust_7="13000.00000" pt_clust_8="13000.00000" pt_clust_9="64.11668"></scales>
<clustering>
<clus scale="   64.117">  1  9  2 -1</clus>
<clus scale="   89.781">  7  8 -1 -1</clus>
<clus scale="   93.921">  5  6 -1 -1</clus>
<clus scale="  114.939">  2  7  1 -1</clus>
<clus scale="   64.117">  1  5  2 -1</clus>
</clustering>
</event>
<event>
 9    1  0.1399746E-005  0.1545926E+03  0.7546771E-02  0.1212515E+00
         -1   -1    0    0    0  501 -0.00000000000E+00  0.00000000000E+00  0.41033452184E+03  0.41033452184E+03  0.00000000000E+00 0.  1.
         21   -1    0    0  501  502  0.00000000000E+00 -0.00000000000E+00 -0.22492876034E+03  0.22492876034E+03  0.00000000000E+00 0.  1.
         23    2    1    2    0    0 -0.48088143734E+02  0.26164153415E+02  0.33298089214E+02  0.11091063325E+03  0.90528301271E+02 0.  0.
         23    2    1    2    0    0  0.16602658454E+03 -0.55241726758E+02  0.28359025035E+03  0.34534804166E+03  0.90693796014E+02 0.  0.
        -11    1    3    3    0    0 -0.31502139156E+02 -0.32058203124E+02  0.18396577117E+02  0.48564876285E+02  0.00000000000E+00 0. -1.
         11    1    3    3    0    0 -0.16586004578E+02  0.58222356539E+02  0.14901512096E+02  0.62345756965E+02  0.00000000000E+00 0.  1.
        -11    1    4    4    0    0  0.16434194107E+03 -0.33169656648E+02  0.21123664885E+03  0.26968392895E+03  0.00000000000E+00 0.  1.
         11    1    4    4    0    0  0.16846434750E+01 -0.22072070110E+02  0.72353601494E+02  0.75664112707E+02  0.00000000000E+00 0. -1.
         -1    1    1    2    0  502 -0.11793844081E+03  0.29077573343E+02 -0.13148257806E+03  0.17900460727E+03  0.00000000000E+00 0.  1.
<scales pt_clust_5="13000.00000" pt_clust_6="13000.00000" pt_clust_7="13000.00000" pt_clust_8="13000.00000" pt_clust_9="125.19390"></scales>
<clustering>
<clus scale="   90.528">  5  6 -1 -1</clus>
<clus scale="   90.694">  7  8 -1 -1</clus>
<clus scale="  105.794">  1  5  2 -1</clus>
<clus scale="  125.194">  2  9  1 -1</clus>
<clus scale="  125.194">  2  5  1 -1</clus>
</clustering>
</event>
<event>
 9    1  0.1399746E-005  0.1171230E+03  0.7546771E-02  0.1254587E+00
         21   -1    0    0  501  502  0.00000000000E+00  0.00000000000E+00  0.92119165254E+02  0.92119165254E+02  0.00000000000E+00 0. -1.
          2   -1    0    0  502    0 -0.00000000000E+00 -0.00000000000E+00 -0.76158356304E+03  0.76158356304E+03  0.00000000000E+00 0. -1.
         23    2    1    2    0    0 -0.47669706370E+02  0.81530572672E+01 -0.62659722436E+03  0.63762886196E+03  0.10773862253E+03 0.  0.
         23    2    1    2    0    0  0.38994892175E+02  0.11184429648E+02 -0.10812981866E+03  0.14745605768E+03  0.91681722179E+02 0.  0.
        -11    1    4    4    0    0  0.41968554418E+02  0.46656588736E+02 -0.54665882310E+02  0.83225930581E+02  0.00000000000E+00 0.  1.
         11    1    4    4    0    0 -0.29736622428E+01 -0.35472159087E+02 -0.53463936351E+02  0.64230127103E+02  0.00000000000E+00 0. -1.
        -11    1    3    3    0    0 -0.74836593917E+02 -0.21381525942E+02 -0.39875441959E+03  0.40627918059E+03  0.00000000000E+00 0. -1.
         11    1    3    3    0    0  0.27166887548E+02  0.29534583209E+02 -0.22784280477E+03  0.23134968137E+03  0.00000000000E+00 0.  1.
          2    1    1    2  501    0  0.86748141942E+01 -0.19337486915E+02  0.65262645231E+02  0.68617808651E+02  0.00000000000E+00 0. -1.
<scales pt_clust_5="13000.00000" pt_clust_6="13000.00000" pt_clust_7="13000.00000" pt_clust_8="13000.00000" pt_clust_9="21.19412"></scales>
<clustering>
<clus scale="   21.194">  1  9  2 -1</clus>
<clus scale="   91.682">  5  6 -1 -1</clus>
<clus scale="  102.546">  1  5  2 -1</clus>
<clus scale="  107.739">  7  8 -1 -1</clus>
<clus scale="   21.194">  1  5  2 -1</clus>
</clustering>
</event>
<event>
 9    1  0.1399746E-005  0.1196774E+03  0.7546771E-02  0.1250592E+00
         21   -1    0    0  501  502  0.00000000000E+00  0.00000000000E+00  0.56464427733E+02  0.56464427733E+02  0.00000000000E+00 0.  1.
          2   -1    0    0  502    0 -0.00000000000E+00 -0.00000000000E+00 -0.40758101944E+03  0.40758101944E+03  0.00000000000E+00 0. -1.
         23    2    1    2    0    0 -0.27926668623E+02 -0.53496539282E+02 -0.22922267964E+03  0.26061966047E+03  0.10834109114E+03 0.  0.
         23    2    1    2    0    0  0.38503648223E+01  0.42791805506E+02 -0.13937551154E+03  0.17180512811E+03  0.90804762543E+02 0.  0.
        -13    1    3    3    0    0  0.28131212360E+02  0.73402247492E+00 -0.13689180656E+03  0.13975432230E+03  0.00000000000E+00 0. -1.
         13    1    3    3    0    0 -0.56057880983E+02 -0.54230561757E+02 -0.92330873078E+02  0.12086533818E+03  0.00000000000E+00 0.  1.
        -13    1    4    4    0    0  0.24777803339E+02  0.55045240017E+02 -0.13399500683E+03  0.14696455301E+03  0.00000000000E+00 0. -1.
         13    1    4    4    0    0 -0.20927438517E+02 -0.12253434511E+02 -0.53805047072E+01  0.24840575096E+02  0.00000000000E+00 0.  1.
          2    1    1    2  501    0  0.24076303801E+02  0.10704733776E+02  0.17481599466E+02  0.31620658593E+02  0.00000000000E+00 0. -1.
<scales pt_clust_5="13000.00000" pt_clust_6="13000.00000" pt_clust_7="13000.00000" pt_clust_8="13000.00000" pt_clust_9="26.34881"></scales>
<clustering>
<clus scale="   26.349">  1  9  2 -1</clus>
<clus scale="   90.805">  7  8 -1 -1</clus>
<clus scale="  104.069">  1  7  2 -1</clus>
<clus scale="  108.341">  5  6 -1 -1</clus>
<clus scale="   26.349">  1  5  2 -1</clus>
</clustering>
</event>
<event>
 9    1  0.1399746E-005  0.9540000E+02  0.7546771E-02  0.1293196E+00
         -2   -1    0    0    0  501 -0.00000000000E+00  0.00000000000E+00  0.37209254990E+02  0.37209254990E+02  0.00000000000E+00 0.  1.
         21   -1    0    0  501  502  0.00000000000E+00 -0.00000000000E+00 -0.34284571320E+03  0.34284571320E+03  0.00000000000E+00 0. -1.
         23    2    1    2    0    0  0.22129289923E+02  0.11246073690E+02 -0.98622993258E+02  0.13336311246E+03  0.86273085727E+02 0.  0.
         23    2    1    2    0    0 -0.26005946675E+01 -0.39550588324E+02 -0.15555851604E+03  0.18480383383E+03  0.91558685853E+02 0.  0.
        -11    1    4    4    0    0 -0.35012341102E+02 -0.48214266789E+00 -0.20627210225E+02  0.40639614820E+02  0.00000000000E+00 0.  1.
         11    1    4    4    0    0  0.32411746435E+02 -0.39068445656E+02 -0.13493130582E+03  0.14416421901E+03  0.00000000000E+00 0. -1.
        -13    1    3    3    0    0 -0.29129883879E+02  0.17264474545E+02 -0.60016905980E+02  0.68910385425E+02  0.00000000000E+00 0.  1.
         13    1    3    3    0    0  0.51259173802E+02 -0.60184008546E+01 -0.38606087279E+02  0.64452727039E+02  0.00000000000E+00 0. -1.
         -2    1    1    2    0  502 -0.19528695256E+02  0.28304514634E+02 -0.51454948905E+02  0.61888021893E+02  0.00000000000E+00 0.  1.
<scales pt_clust_5="13000.00000" pt_clust_6="13000.00000" pt_clust_7="13000.00000" pt_clust_8="13000.00000" pt_clust_9="34.38772"></scales>
<clustering>
<clus scale="   34.388">  2  9  1 -1</clus>
<clus scale="   86.273">  7  8 -1 -1</clus>
<clus scale="   90.339">  1  7  2 -1</clus>
<clus scale="   91.559">  5  6 -1 -1</clus>
<clus scale="   34.388">  2  5  1 -1</clus>
</clustering>
</event>
<event>
 9    1  0.1399746E-005  0.1599551E+03  0.7546771E-02  0.1189010E+00
          2   -1    0    0  502    0 -0.00000000000E+00  0.00000000000E+00  0.61620621961E+03  0.61620621961E+03  0.00000000000E+00 0. -1.
         21   -1    0    0  501  502  0.00000000000E+00 -0.00000000000E+00 -0.18413328396E+03  0.18413328396E+03  0.00000000000E+00 0.  1.
         23    2    1    2    0    0 -0.94115569505E+02 -0.83377285242E+02  0.46777413391E+03  0.49310778281E+03  0.92374958665E+02 0.  0.
         23    2    1    2    0    0  0.10787134727E+03  0.10939274700E+03  0.74353426759E+02  0.19331049288E+03  0.90760751026E+02 0.  0.
        -11    1    4    4    0    0  0.93806702840E+02  0.73300620609E+02  0.11663978384E+02  0.11961909075E+03  0.00000000000E+00 0.  1.
         11    1    4    4    0    0  0.14064644435E+02  0.36092126393E+02  0.62689448375E+02  0.73691402132E+02  0.00000000000E+00 0. -1.
        -11    1    3    3    0    0 -0.67753907540E+02 -0.18533264636E+02  0.34226804836E+03  0.34940161822E+03  0.00000000000E+00 0. -1.
         11    1    3    3    0    0 -0.26361661965E+02 -0.64844020606E+02  0.12550608556E+03  0.14370616459E+03  0.00000000000E+00 0.  1.
          2    1    1    2  501    0 -0.13755777770E+02 -0.26015461760E+02 -0.11005462503E+03  0.11392122788E+03  0.00000000000E+00 0. -1.
<scales pt_clust_5="13000.00000" pt_clust_6="13000.00000" pt_clust_7="13000.00000" pt_clust_8="13000.00000" pt_clust_9="29.42831"></scales>
<clustering>
<clus scale="   29.428">  2  9  1 -1</clus>
<clus scale="   90.761">  5  6 -1 -1</clus>
<clus scale="   92.375">  7  8 -1 -1</clus>
<clus scale="  159.028">  2  5  1 -1</clus>
<clus scale="   29.428">  2  5  1 -1</clus>
</clustering>
</event>
<event>
 9    1  0.1399746E-005  0.3346562E+03  0.7546771E-02  0.1069109E+00
         21   -1    0    0  501  502  0.00000000000E+00  0.00000000000E+00  0.16078540039E+03  0.16078540039E+03  0.00000000000E+00 0. -1.
          2   -1    0    0  502    0 -0.00000000000E+00 -0.00000000000E+00 -0.21802555805E+04  0.21802555805E+04  0.00000000000E+00 0. -1.
         23    2    1    2    0    0  0.36029902198E+03 -0.15962680604E+03 -0.16460698918E+04  0.16949748154E+04  0.89985741582E+02 0.  0.
         23    2    1    2    0    0 -0.22693775510E+03 -0.15103846337E+02 -0.34705138118E+03  0.42468348029E+03  0.90457318076E+02 0.  0.
        -11    1    4    4    0    0 -0.18284594190E+03  0.21405292204E+02 -0.23190665492E+03  0.29609377164E+03  0.00000000000E+00 0.  1.
         11    1    4    4    0    0 -0.44091813193E+02 -0.36509138541E+02 -0.11514472626E+03  0.12858970866E+03  0.00000000000E+00 0. -1.
        -13    1    3    3    0    0  0.68125592908E+02 -0.71684978868E+02 -0.38012195187E+03  0.39277542043E+03  0.00000000000E+00 0.  1.
         13    1    3    3    0    0  0.29217342907E+03 -0.87941827167E+02 -0.12659479400E+04  0.13021993950E+04  0.00000000000E+00 0. -1.
          2    1    1    2  501    0 -0.13336126688E+03  0.17473065237E+03 -0.26348907091E+02  0.22138268516E+03  0.00000000000E+00 0. -1.
<scales pt_clust_5="13000.00000" pt_clust_6="13000.00000" pt_clust_7="13000.00000" pt_clust_8="13000.00000" pt_clust_9="219.80907"></scales>
<clustering>
<clus scale="   89.986">  7  8 -1 -1</clus>
<clus scale="   90.457">  5  6 -1 -1</clus>
<clus scale="  219.809">  1  9  2 -1</clus>
<clus scale="  334.529">  2  7  1 -1</clus>
<clus scale="  219.809">  1  5  2 -1</clus>
</clustering>
</event>
<event>
 9    1  0.1399746E-005  0.1159374E+03  0.7546771E-02  0.1251556E+00
          2   -1    0    0  502    0 -0.00000000000E+00  0.00000000000E+00  0.21711487790E+03  0.21711487790E+03  0.00000000000E+00 0. -1.
         21   -1    0    0  501  502  0.00000000000E+00 -0.00000000000E+00 -0.75492885576E+02  0.75492885576E+02  0.00000000000E+00 0.  1.
         23    2    1    2    0    0 -0.35515583953E+02 -0.67207201336E+02  0.92984656830E+02  0.14792259358E+03  0.86352664534E+02 0.  0.
         23    2    1    2    0    0  0.14530161788E+02  0.65943615750E+02  0.49393290452E+02  0.12364815347E+03  0.91046596062E+02 0.  0.
        -11    1    3    3    0    0 -0.19006841383E+02 -0.84135418896E+02  0.89007648735E+02  0.12394510989E+03  0.00000000000E+00 0. -1.
         11    1    3    3    0    0 -0.16508742570E+02  0.16928217559E+02  0.39770080950E+01  0.23977483695E+02  0.00000000000E+00 0.  1.
        -13    1    4    4    0    0  0.38445103940E+02  0.70948996141E+02  0.15993164597E+02  0.82265225850E+02  0.00000000000E+00 0.  1.
         13    1    4    4    0    0 -0.23914942152E+02 -0.50053803915E+01  0.33400125855E+02  0.41382927617E+02  0.00000000000E+00 0. -1.
          2    1    1    2  501    0  0.20985422165E+02  0.12635855868E+01 -0.75595496188E+00  0.21037016420E+02  0.00000000000E+00 0. -1.
<scales pt_clust_5="13000.00000" pt_clust_6="13000.00000" pt_clust_7="13000.00000" pt_clust_8="13000.00000" pt_clust_9="21.02343"></scales>
<clustering>
<clus scale="   21.023">  2  9  1 -1</clus>
<clus scale="   86.353">  5  6 -1 -1</clus>
<clus scale="   91.047">  7  8 -1 -1</clus>
<clus scale="  112.289">  1  5  2 -1</clus>
<clus scale="   21.023">  2  5  1 -1</clus>
</clustering>
</event>
<event>
 9    1  0.1399746E-005  0.9744000E+02  0.7546771E-02  0.1286882E+00
         -4   -1    0    0    0  501 -0.00000000000E+00  0.00000000000E+00  0.18942705576E+03  0.18942705576E+03  0.00000000000E+00 0.  1.
         21   -1    0    0  501  502  0.00000000000E+00 -0.00000000000E+00 -0.65192284500E+02  0.65192284500E+02  0.00000000000E+00 0. -1.
         23    2    1    2    0    0  0.39407805906E+02 -0.23073487315E+02  0.57182450985E+02  0.11523660435E+03  0.89018432347E+02 0.  0.
         23    2    1    2    0    0 -0.22455258731E+02  0.47675059720E+01  0.38854935673E+02  0.10173183543E+03  0.91173968633E+02 0.  0.
        -11    1    4    4    0    0 -0.52022221032E+01 -0.38792010212E+02 -0.25277687404E+01  0.39220820821E+02  0.00000000000E+00 0. -1.
         11    1    4    4    0    0 -0.17253036627E+02  0.43559516184E+02  0.41382704414E+02  0.62511014611E+02  0.00000000000E+00 0.  1.
        -13    1    3    3    0    0  0.32699363958E+02  0.50976152173E+01 -0.15833975432E+02  0.36687175717E+02  0.00000000000E+00 0. -1.
         13    1    3    3    0    0  0.67084419484E+01 -0.28171102532E+02  0.73016426417E+02  0.78549428629E+02  0.00000000000E+00 0.  1.
         -4    1    1    2    0  502 -0.16952547175E+02  0.18305981343E+02  0.28197384597E+02  0.37650900478E+02  0.00000000000E+00 0.  1.
<scales pt_clust_5="13000.00000" pt_clust_6="13000.00000" pt_clust_7="13000.00000" pt_clust_8="13000.00000" pt_clust_9="24.94992"></scales>
<clustering>
<clus scale="   24.950">  2  9  1 -1</clus>
<clus scale="   89.018">  7  8 -1 -1</clus>
<clus scale="   91.174">  5  6 -1 -1</clus>
<clus scale="   95.426">  1  7  2 -1</clus>
<clus scale="   24.950">  2  5  1 -1</clus>
</clustering>
</event>
<event>
 9    1  0.1399746E-005  0.1499570E+03  0.7546771E-02  0.1203840E+00
         21   -1    0    0  501  502  0.00000000000E+00  0.00000000000E+00  0.26055367890E+03  0.26055367890E+03  0.00000000000E+00 0. -1.
          3   -1    0    0  502    0 -0.00000000000E+00 -0.00000000000E+00 -0.12708887474E+03  0.12708887474E+03  0.00000000000E+00 0. -1.
         23    2    1    2    0    0 -0.85154798590E+02 -0.30886484375E+02  0.39385096353E+02  0.13393530395E+03  0.90455321505E+02 0.  0.
         23    2    1    2    0    0  0.12750651889E+03 -0.11135583915E+01  0.26500719645E+02  0.16777360906E+03  0.10576645681E+03 0.  0.
        -11    1    3    3    0    0 -0.83377538018E+02  0.12264933396E+02  0.20108620867E+02  0.86640631751E+02  0.00000000000E+00 0. -1.
         11    1    3    3    0    0 -0.17772605720E+01 -0.43151417772E+02  0.19276475486E+02  0.47294672195E+02  0.00000000000E+00 0.  1.
        -11    1    4    4    0    0  0.76272565952E+02 -0.15065456819E+02  0.65686772462E+02  0.10178027502E+03  0.00000000000E+00 0.  1.
         11    1    4    4    0    0  0.51233952937E+02  0.13951898427E+02 -0.39186052818E+02  0.65993334048E+02  0.00000000000E+00 0. -1.
          3    1    1    2  501    0 -0.42351720299E+02  0.32000042767E+02  0.67578988164E+02  0.85933640622E+02  0.00000000000E+00 0. -1.
<scales pt_clust_5="13000.00000" pt_clust_6="13000.00000" pt_clust_7="13000.00000" pt_clust_8="13000.00000" pt_clust_9="53.08174"></scales>
<clustering>
<clus scale="   53.082">  1  9  2 -1</clus>
<clus scale="   90.455">  5  6 -1 -1</clus>
<clus scale="  105.766">  7  8 -1 -1</clus>
<clus scale="  139.581">  2  5  1 -1</clus>
<clus scale="   53.082">  1  5  2 -1</clus>
</clustering>
</event>
<event>
 9    1  0.1399746E-005  0.1047268E+03  0.7546771E-02  0.1270773E+00
          1   -1    0    0  502    0 -0.00000000000E+00  0.00000000000E+00  0.51977111528E+03  0.51977111528E+03  0.00000000000E+00 0. -1.
         21   -1    0    0  501  502  0.00000000000E+00 -0.00000000000E+00 -0.13120538229E+03  0.13120538229E+03  0.00000000000E+00 0. -1.
         23    2    1    2    0    0 -0.66062025797E+02 -0.40534485716E+02  0.34797657206E+03  0.36802607621E+03  0.91368825555E+02 0.  0.
         23    2    1    2    0    0  0.19353373447E+02 -0.88861405613E+01  0.13643478328E+03  0.16543242347E+03  0.91103897213E+02 0.  0.
        -13    1    4    4    0    0 -0.26534288705E+02 -0.30218756549E+02  0.80616373986E+02  0.90090185254E+02  0.00000000000E+00 0.  1.
         13    1    4    4    0    0  0.45887662152E+02  0.21332615988E+02  0.55818409293E+02  0.75342238211E+02  0.00000000000E+00 0. -1.
        -13    1    3    3    0    0 -0.16288092081E+02 -0.52123673614E+02  0.91909097898E+02  0.10690865994E+03  0.00000000000E+00 0.  1.
         13    1    3    3    0    0 -0.49773933715E+02  0.11589187898E+02  0.25606747416E+03  0.26111741626E+03  0.00000000000E+00 0. -1.
          1    1    1    2  501    0  0.46708652350E+02  0.49420626277E+02 -0.95845622347E+02  0.11751799789E+03  0.00000000000E+00 0. -1.
<scales pt_clust_5="13000.00000" pt_clust_6="13000.00000" pt_clust_7="13000.00000" pt_clust_8="13000.00000" pt_clust_9="68.00071"></scales>
<clustering>
<clus scale="   68.001">  2  9  1 -1</clus>
<clus scale="   91.104">  5  6 -1 -1</clus>
<clus scale="   91.369">  7  8 -1 -1</clus>
<clus scale="  104.496">  2  5  1 -1</clus>
<clus scale="   68.001">  2  5  1 -1</clus>
</clustering>
</event>
<event>
 9    1  0.1399746E-005  0.2558256E+03  0.7546771E-02  0.1111987E+00
          2   -1    0    0  502    0 -0.00000000000E+00  0.00000000000E+00  0.61797723878E+03  0.61797723878E+03  0.00000000000E+00 0. -1.
         21   -1    0    0  501  502  0.00000000000E+00 -0.00000000000E+00 -0.19755214975E+03  0.19755214975E+03  0.00000000000E+00 0. -1.
         23    2    1    2    0    0  0.94030555365E+02 -0.19771670963E+03  0.32456626054E+03  0.41057244775E+03  0.12366420163E+03 0.  0.
         23    2    1    2    0    0 -0.80150550141E+02  0.21742920386E+03  0.18681117015E+03  0.31086355405E+03  0.89655822804E+02 0.  0.
        -11    1    4    4    0    0 -0.93525109699E+02  0.13251623189E+03  0.12947601353E+03  0.20753683031E+03  0.00000000000E+00 0.  1.
         11    1    4    4    0    0  0.13374559558E+02  0.84912971969E+02  0.57335156627E+02  0.10332672373E+03  0.00000000000E+00 0. -1.
        -13    1    3    3    0    0  0.89043405088E+02 -0.13666381583E+03  0.30567027851E+03  0.34646795769E+03  0.00000000000E+00 0. -1.
         13    1    3    3    0    0  0.49871502770E+01 -0.61052893795E+02  0.18895982033E+02  0.64104490058E+02  0.00000000000E+00 0.  1.
          2    1    1    2  501    0 -0.13880005224E+02 -0.19712494232E+02 -0.90952341660E+02  0.94093386736E+02  0.00000000000E+00 0. -1.
<scales pt_clust_5="13000.00000" pt_clust_6="13000.00000" pt_clust_7="13000.00000" pt_clust_8="13000.00000" pt_clust_9="24.10886"></scales>
<clustering>
<clus scale="   24.109">  2  9  1 -1</clus>
<clus scale="   89.656">  5  6 -1 -1</clus>
<clus scale="  123.664">  7  8 -1 -1</clus>
<clus scale="  241.230">  2  5  1 -1</clus>
<clus scale="   24.109">  2  5  1 -1</clus>
</clustering>
</event>
<event>
 9    1  0.1399746E-005  0.1044571E+03  0.7546771E-02  0.1275464E+00
          1   -1    0    0  502    0 -0.00000000000E+00  0.00000000000E+00  0.22957909241E+03  0.22957909241E+03  0.00000000000E+00 0. -1.
         21   -1    0    0  501  502  0.00000000000E+00 -0.00000000000E+00 -0.14353754695E+03  0.14353754695E+03  0.00000000000E+00 0.  1.
         23    2    1    2    0    0  0.34418216664E+02 -0.35214894142E+02  0.17336391233E+03  0.19773216928E+03  0.81352702841E+02 0.  0.
         23    2    1    2    0    0 -0.68096944370E+02  0.27501698760E+02 -0.60377184555E+02  0.13156902837E+03  0.90947608780E+02 0.  0.
        -11    1    3    3    0    0  0.51882946007E+02 -0.14010274249E+02  0.15656563413E+03  0.16553224961E+03  0.00000000000E+00 0. -1.
         11    1    3    3    0    0 -0.17464729342E+02 -0.21204619892E+02  0.16798278201E+02  0.32199919663E+02  0.00000000000E+00 0.  1.
        -11    1    4    4    0    0  0.22091147293E+02  0.12386566514E+02 -0.10626529102E+02  0.27465777606E+02  0.00000000000E+00 0. -1.
         11    1    4    4    0    0 -0.90188091663E+02  0.15115132246E+02 -0.49750655453E+02  0.10410325076E+03  0.00000000000E+00 0.  1.
          1    1    1    2  501    0  0.33678727706E+02  0.77131953816E+01 -0.26945182319E+02  0.43815441719E+02  0.00000000000E+00 0. -1.
<scales pt_clust_5="13000.00000" pt_clust_6="13000.00000" pt_clust_7="13000.00000" pt_clust_8="13000.00000" pt_clust_9="34.55069"></scales>
<clustering>
<clus scale="   34.551">  2  9  1 -1</clus>
<clus scale="   81.353">  5  6 -1 -1</clus>
<clus scale="   90.948">  7  8 -1 -1</clus>
<clus scale="   96.219">  1  5  2 -1</clus>
<clus scale="   34.551">  2  5  1 -1</clus>
</clustering>
</event>
<event>
 9    1  0.1399746E-005  0.1106950E+03  0.7546771E-02  0.1259365E+00
          1   -1    0    0  502    0 -0.00000000000E+00  0.00000000000E+00  0.27784847447E+03  0.27784847447E+03  0.00000000000E+00 0. -1.
         21   -1    0    0  501  502  0.00000000000E+00 -0.00000000000E+00 -0.69173875184E+02  0.69173875184E+02  0.00000000000E+00 0.  1.
         23    2    1    2    0    0 -0.53328122461E+02 -0.21574667657E+02  0.15200277258E+03  0.18589318599E+03  0.90233468265E+02 0.  0.
         23    2    1    2    0    0  0.68088521155E+02  0.35280130685E+02  0.69315043657E+02  0.13734765779E+03  0.90438208128E+02 0.  0.
        -11    1    4    4    0    0  0.62842186302E+02  0.22397887650E+01  0.80431346470E+02  0.10209485064E+03  0.00000000000E+00 0. -1.
         11    1    4    4    0    0  0.52463348530E+01  0.33040341920E+02 -0.11116302813E+02  0.35252807148E+02  0.00000000000E+00 0.  1.
        -13    1    3    3    0    0 -0.40415167618E+02 -0.54458172912E+02  0.12183294745E+03  0.13943581123E+03  0.00000000000E+00 0. -1.
         13    1    3    3    0    0 -0.12912954843E+02  0.32883505255E+02  0.30169825135E+02  0.46457374757E+02  0.00000000000E+00 0.  1.
          1    1    1    2  501    0 -0.14760398693E+02 -0.13705463028E+02 -0.12643216957E+02  0.23781505869E+02  0.00000000000E+00 0. -1.
<scales pt_clust_5="13000.00000" pt_clust_6="13000.00000" pt_clust_7="13000.00000" pt_clust_8="13000.00000" pt_clust_9="20.14222"></scales>
<clustering>
<clus scale="   20.142">  2  9  1 -1</clus>
<clus scale="   90.233">  7  8 -1 -1</clus>
<clus scale="   90.438">  5  6 -1 -1</clus>
<clus scale="  110.528">  1  7  2 -1</clus>
<clus scale="   20.142">  2  5  1 -1</clus>
</clustering>
</event>
<event>
 9    1  0.1399746E-005  0.1017847E+03  0.7546771E-02  0.1277835E+00
          2   -1    0    0  502    0 -0.00000000000E+00  0.00000000000E+00  0.34887614787E+02  0.34887614787E+02  0.00000000000E+00 0. -1.
         21   -1    0    0  501  502  0.00000000000E+00 -0.00000000000E+00 -0.39080911793E+03  0.39080911793E+03  0.00000000000E+00 0.  1.
         23    2    1    2    0    0 -0.32422220526E+02  0.95163584508E+01 -0.12809833350E+03  0.16052573128E+03  0.90650790935E+02 0.  0.
         23    2    1    2    0    0  0.52854266746E+02  0.34123903105E+01 -0.20750408591E+03  0.23358799617E+03  0.93274800280E+02 0.  0.
        -11    1    3    3    0    0 -0.11851203776E+02 -0.18780614453E+02 -0.12321764986E+03  0.12520284241E+03  0.00000000000E+00 0.  1.
         11    1    3    3    0    0 -0.20571016750E+02  0.28296972904E+02 -0.48806836375E+01  0.35322888874E+02  0.00000000000E+00 0. -1.
        -11    1    4    4    0    0  0.56428810070E+02  0.25296076297E+02 -0.20126836638E+03  0.21055416735E+03  0.00000000000E+00 0. -1.
         11    1    4    4    0    0 -0.35745433241E+01 -0.21883685987E+02 -0.62357195263E+01  0.23033828825E+02  0.00000000000E+00 0.  1.
          2    1    1    2  501    0 -0.20432046220E+02 -0.12928748761E+02 -0.20319083737E+02  0.31583005259E+02  0.00000000000E+00 0. -1.
<scales pt_clust_5="13000.00000" pt_clust_6="13000.00000" pt_clust_7="13000.00000" pt_clust_8="13000.00000" pt_clust_9="24.17895"></scales>
<clustering>
<clus scale="   24.179">  2  9  1 -1</clus>
<clus scale="   90.651">  5  6 -1 -1</clus>
<clus scale="   93.275">  7  8 -1 -1</clus>
<clus scale="   99.386">  1  5  2 -1</clus>
<clus scale="   24.179">  2  5  1 -1</clus>
</clustering>
</event>
<event>
 9    1  0.1399746E-005  0.1061919E+03  0.7546771E-02  0.1268422E+00
          1   -1    0    0  502    0 -0.00000000000E+00  0.00000000000E+00  0.40203159276E+02  0.40203159276E+02  0.00000000000E+00 0. -1.
         21   -1    0    0  501  502  0.00000000000E+00 -0.00000000000E+00 -0.45733165090E+03  0.45733165090E+03  0.00000000000E+00 0.  1.
         23    2    1    2    0    0 -0.31358627152E+02 -0.56978489560E+02 -0.83823316522E+02  0.13813274406E+03  0.88455609318E+02 0.  0.
         23    2    1    2    0    0  0.15932422178E+02  0.28995958648E+02 -0.29098762126E+03  0.30637598574E+03  0.89988005987E+02 0.  0.
        -13    1    4    4    0    0  0.11505363848E+02 -0.30974509815E+02 -0.70905619643E+02  0.78226597475E+02  0.00000000000E+00 0.  1.
         13    1    4    4    0    0  0.44270583298E+01  0.59970468463E+02 -0.22008200161E+03  0.22814938827E+03  0.00000000000E+00 0. -1.
        -13    1    3    3    0    0  0.23980651278E+02 -0.15163920794E+02  0.12101367264E+01  0.28398601382E+02  0.00000000000E+00 0. -1.
         13    1    3    3    0    0 -0.55339278430E+02 -0.41814568765E+02 -0.85033453248E+02  0.10973414268E+03  0.00000000000E+00 0.  1.
          1    1    1    2  501    0  0.15426204974E+02  0.27982530912E+02 -0.42317553844E+02  0.53026080370E+02  0.00000000000E+00 0. -1.
<scales pt_clust_5="13000.00000" pt_clust_6="13000.00000" pt_clust_7="13000.00000" pt_clust_8="13000.00000" pt_clust_9="31.95295"></scales>
<clustering>
<clus scale="   31.953">  2  9  1 -1</clus>
<clus scale="   88.456">  7  8 -1 -1</clus>
<clus scale="   89.988">  5  6 -1 -1</clus>
<clus scale="  104.897">  1  7  2 -1</clus>
<clus scale="   31.953">  2  5  1 -1</clus>
</clustering>
</event>
<event>
 9    1  0.1399746E-005  0.9350662E+02  0.7546771E-02  0.1294894E+00
         21   -1    0    0  501  502  0.00000000000E+00  0.00000000000E+00  0.11199674923E+03  0.11199674923E+03  0.00000000000E+00 0. -1.
         -1   -1    0    0    0  501 -0.00000000000E+00 -0.00000000000E+00 -0.23353033926E+03  0.23353033926E+03  0.00000000000E+00 0.  1.
         23    2    1    2    0    0  0.63165757312E+01  0.16490610472E+02 -0.18121292402E+03  0.20392704946E+03  0.91849215061E+02 0.  0.
         23    2    1    2    0    0  0.24066825810E+02 -0.23189740201E+02  0.42990316561E+02  0.10629348536E+03  0.91286152058E+02 0.  0.
        -11    1    3    3    0    0  0.18546478784E+02 -0.35408091189E+02 -0.70485325427E+02  0.81030154248E+02  0.00000000000E+00 0. -1.
         11    1    3    3    0    0 -0.12229903053E+02  0.51898701662E+02 -0.11072759860E+03  0.12289689522E+03  0.00000000000E+00 0.  1.
        -13    1    4    4    0    0  0.29552574392E+02 -0.82349878064E+00  0.66872850657E+02  0.73116420580E+02  0.00000000000E+00 0. -1.
         13    1    4    4    0    0 -0.54857485817E+01 -0.22366241421E+02 -0.23882534096E+02  0.33177064784E+02  0.00000000000E+00 0.  1.
         -1    1    1    2    0  502 -0.30383401541E+02  0.66991297288E+01  0.16689017430E+02  0.35306553657E+02  0.00000000000E+00 0.  1.
<scales pt_clust_5="13000.00000" pt_clust_6="13000.00000" pt_clust_7="13000.00000" pt_clust_8="13000.00000" pt_clust_9="31.11317"></scales>
<clustering>
<clus scale="   31.113">  1  9  2 -1</clus>
<clus scale="   91.286">  7  8 -1 -1</clus>
<clus scale="   91.849">  5  6 -1 -1</clus>
<clus scale="   92.954">  1  7  2 -1</clus>
<clus scale="   31.113">  1  5  2 -1</clus>
</clustering>
</event>
<event>
 9    1  0.1399746E-005  0.1077978E+03  0.7546771E-02  0.1265967E+00
          1   -1    0    0  502    0 -0.00000000000E+00  0.00000000000E+00  0.42106541778E+03  0.42106541778E+03  0.00000000000E+00 0. -1.
         21   -1    0    0  501  502  0.00000000000E+00 -0.00000000000E+00 -0.66704331512E+02  0.66704331512E+02  0.00000000000E+00 0. -1.
         23    2    1    2    0    0 -0.36287759404E+02 -0.35211474133E+02  0.29720511914E+03  0.31476749196E+03  0.90504374250E+02 0.  0.
         23    2    1    2    0    0  0.24531518764E+02  0.65097997942E+02  0.72636225885E+02  0.13735044236E+03  0.93539178729E+02 0.  0.
        -13    1    3    3    0    0 -0.47288297519E+02  0.66539323061E+01  0.79011462967E+02  0.92321553158E+02  0.00000000000E+00 0. -1.
         13    1    3    3    0    0  0.11000538114E+02 -0.41865406439E+02  0.21819365618E+03  0.22244593880E+03  0.00000000000E+00 0.  1.
        -13    1    4    4    0    0  0.27651346921E+02  0.32621953840E+02 -0.13820952287E+02  0.44942269425E+02  0.00000000000E+00 0.  1.
         13    1    4    4    0    0 -0.31198281574E+01  0.32476044102E+02  0.86457178172E+02  0.92408172938E+02  0.00000000000E+00 0. -1.
          1    1    1    2  501    0  0.11756240640E+02 -0.29886523809E+02 -0.15480258758E+02  0.35651814969E+02  0.00000000000E+00 0. -1.
<scales pt_clust_5="13000.00000" pt_clust_6="13000.00000" pt_clust_7="13000.00000" pt_clust_8="13000.00000" pt_clust_9="32.11563"></scales>
<clustering>
<clus scale="   32.116">  2  9  1 -1</clus>
<clus scale="   90.504">  5  6 -1 -1</clus>
<clus scale="   93.539">  7  8 -1 -1</clus>
<clus scale="  105.175">  1  5  2 -1</clus>
<clus scale="   32.116">  2  5  1 -1</clus>
</clustering>
</event>
<event>
 9    1  0.1399746E-005  0.1006041E+03  0.7546771E-02  0.1279868E+00
         21   -1    0    0  501  502  0.00000000000E+00  0.00000000000E+00  0.41306098693E+02  0.41306098693E+02  0.00000000000E+00 0.  1.
          2   -1    0    0  502    0 -0.00000000000E+00 -0.00000000000E+00 -0.75365833477E+03  0.75365833477E+03  0.00000000000E+00 0. -1.
         23    2    1    2    0    0  0.57820649341E-01 -0.34849364108E+02 -0.52459781857E+03  0.53392746161E+03  0.93065468875E+02 0.  0.
         23    2    1    2    0    0  0.24911310873E+02  0.61799146911E+02 -0.59779682565E+02  0.12789313569E+03  0.91341861935E+02 0.  0.
        -13    1    4    4    0    0 -0.27125403199E+02  0.60842968331E+00 -0.34070414825E+02  0.43553999263E+02  0.00000000000E+00 0. -1.
         13    1    4    4    0    0  0.52036714072E+02  0.61190717228E+02 -0.25709267740E+02  0.84339136432E+02  0.00000000000E+00 0.  1.
        -13    1    3    3    0    0 -0.19126408953E+02 -0.62445736329E+02 -0.32132645544E+03  0.32789629530E+03  0.00000000000E+00 0. -1.
         13    1    3    3    0    0  0.19184229603E+02  0.27596372220E+02 -0.20327136313E+03  0.20603116631E+03  0.00000000000E+00 0.  1.
          2    1    1    2  501    0 -0.24969131522E+02 -0.26949782803E+02 -0.12797473494E+03  0.13314383616E+03  0.00000000000E+00 0. -1.
<scales pt_clust_5="13000.00000" pt_clust_6="13000.00000" pt_clust_7="13000.00000" pt_clust_8="13000.00000" pt_clust_9="36.73894"></scales>
<clustering>
<clus scale="   36.739">  1  9  2 -1</clus>
<clus scale="   91.342">  5  6 -1 -1</clus>
<clus scale="   93.065">  7  8 -1 -1</clus>
<clus scale="   99.012">  1  5  2 -1</clus>
<clus scale="   36.739">  1  5  2 -1</clus>
</clustering>
</event>
<event>
 9    1  0.1399746E-005  0.9953979E+02  0.7546771E-02  0.1282109E+00
         -3   -1    0    0    0  501 -0.00000000000E+00  0.00000000000E+00  0.33555293515E+03  0.33555293515E+03  0.00000000000E+00 0.  1.
         21   -1    0    0  501  502  0.00000000000E+00 -0.00000000000E+00 -0.27130108843E+03  0.27130108843E+03  0.00000000000E+00 0.  1.
         23    2    1    2    0    0 -0.18112880450E+02  0.35116181193E+02  0.29656872616E+03  0.31320310560E+03  0.92638833114E+02 0.  0.
         23    2    1    2    0    0 -0.27906367505E+01 -0.12313825462E+02 -0.42221247004E+02  0.10105482787E+03  0.90939686529E+02 0.  0.
        -11    1    3    3    0    0 -0.44435705848E+02  0.52295975910E+02  0.18611395247E+03  0.19836280991E+03  0.00000000000E+00 0.  1.
         11    1    3    3    0    0  0.26322825398E+02 -0.17179794717E+02  0.11045477369E+03  0.11484029569E+03  0.00000000000E+00 0. -1.
        -13    1    4    4    0    0 -0.36346750574E+02  0.11452685854E+02  0.50048317406E+01  0.38435642720E+02  0.00000000000E+00 0.  1.
         13    1    4    4    0    0  0.33556113823E+02 -0.23766511316E+02 -0.47226078745E+02  0.62619185149E+02  0.00000000000E+00 0. -1.
         -3    1    1    2    0  502  0.20903517201E+02 -0.22802355732E+02 -0.19009563243E+03  0.19259609012E+03  0.00000000000E+00 0.  1.
<scales pt_clust_5="13000.00000" pt_clust_6="13000.00000" pt_clust_7="13000.00000" pt_clust_8="13000.00000" pt_clust_9="30.93387"></scales>
<clustering>
<clus scale="   30.934">  2  9  1 -1</clus>
<clus scale="   90.940">  7  8 -1 -1</clus>
<clus scale="   92.639">  5  6 -1 -1</clus>
<clus scale="   97.960">  2  7  1 -1</clus>
<clus scale="   30.934">  2  5  1 -1</clus>
</clustering>
</event>
<event>
 9    1  0.1399746E-005  0.9350998E+02  0.7546771E-02  0.1295790E+00
         21   -1    0    0  501  502  0.00000000000E+00  0.00000000000E+00  0.28052398801E+03  0.28052398801E+03  0.00000000000E+00 0.  1.
         -2   -1    0    0    0  501 -0.00000000000E+00 -0.00000000000E+00 -0.44311366895E+02  0.44311366895E+02  0.00000000000E+00 0.  1.
         23    2    1    2    0    0  0.16509829755E+02  0.20055742793E+02  0.59171823757E+02  0.10983885068E+03  0.88817009033E+02 0.  0.
         23    2    1    2    0    0  0.88775945631E+01 -0.20084092506E+02  0.15646292507E+03  0.18231667949E+03  0.90975503521E+02 0.  0.
        -11    1    3    3    0    0 -0.29332354563E+01  0.52894183684E+02  0.24856872298E+02  0.58517199508E+02  0.00000000000E+00 0. -1.
         11    1    3    3    0    0  0.19443065211E+02 -0.32838440891E+02  0.34314951458E+02  0.51321651167E+02  0.00000000000E+00 0.  1.
        -13    1    4    4    0    0  0.34362810578E+02  0.20499352718E+02  0.10311058766E+03  0.11060207729E+03  0.00000000000E+00 0.  1.
         13    1    4    4    0    0 -0.25485216014E+02 -0.40583445224E+02  0.53352337408E+02  0.71714602198E+02  0.00000000000E+00 0. -1.
         -2    1    1    2    0  502 -0.25387424318E+02  0.28349712618E-01  0.20577872288E+02  0.32679824741E+02  0.00000000000E+00 0.  1.
<scales pt_clust_5="13000.00000" pt_clust_6="13000.00000" pt_clust_7="13000.00000" pt_clust_8="13000.00000" pt_clust_9="25.38745"></scales>
<clustering>
<clus scale="   25.387">  1  9  2 -1</clus>
<clus scale="   88.817">  5  6 -1 -1</clus>
<clus scale="   90.976">  7  8 -1 -1</clus>
<clus scale="   91.411">  2  5  1 -1</clus>
<clus scale="   25.387">  1  5  2 -1</clus>
</clustering>
</event>
<event>
 9    1  0.1399746E-005  0.1509168E+03  0.7546771E-02  0.1201410E+00
         21   -1    0    0  501  502  0.00000000000E+00  0.00000000000E+00  0.15941594152E+03  0.15941594152E+03  0.00000000000E+00 0.  1.
          2   -1    0    0  502    0 -0.00000000000E+00 -0.00000000000E+00 -0.32924714673E+03  0.32924714673E+03  0.00000000000E+00 0. -1.
         23    2    1    2    0    0  0.74929236773E+02  0.92057195598E+02 -0.24580390673E+03  0.28747873262E+03  0.90197246946E+02 0.  0.
         23    2    1    2    0    0 -0.78167204952E+02 -0.48174445342E+02  0.33720538221E+02  0.14018086794E+03  0.10041270798E+03 0.  0.
        -11    1    3    3    0    0  0.94605839316E+02  0.66011522684E+02 -0.17625602390E+03  0.21065130410E+03  0.00000000000E+00 0. -1.
         11    1    3    3    0    0 -0.19676602543E+02  0.26045672914E+02 -0.69547882832E+02  0.76827428511E+02  0.00000000000E+00 0.  1.
        -13    1    4    4    0    0 -0.10203802273E+03 -0.32199733140E+02  0.22462683471E+02  0.10933047629E+03  0.00000000000E+00 0.  1.
         13    1    4    4    0    0  0.23870817776E+02 -0.15974712203E+02  0.11257854750E+02  0.30850391648E+02  0.00000000000E+00 0. -1.
          2    1    1    2  501    0  0.32379681789E+01 -0.43882750256E+02  0.42252163296E+02  0.61003487696E+02  0.00000000000E+00 0. -1.
<scales pt_clust_5="13000.00000" pt_clust_6="13000.00000" pt_clust_7="13000.00000" pt_clust_8="13000.00000" pt_clust_9="44.00205"></scales>
<clustering>
<clus scale="   44.002">  1  9  2 -1</clus>
<clus scale="   90.197">  5  6 -1 -1</clus>
<clus scale="  100.413">  7  8 -1 -1</clus>
<clus scale="  144.322">  2  5  1 -1</clus>
<clus scale="   44.002">  1  5  2 -1</clus>
</clustering>
</event>
<event>
 9    1  0.1399746E-005  0.9527265E+02  0.7546771E-02  0.1292171E+00
         21   -1    0    0  501  502  0.00000000000E+00  0.00000000000E+00  0.10917361865E+03  0.10917361865E+03  0.00000000000E+00 0.  1.
         -2   -1    0    0    0  501 -0.00000000000E+00 -0.00000000000E+00 -0.75731022231E+03  0.75731022231E+03  0.00000000000E+00 0.  1.
         23    2    1    2    0    0 -0.40260811680E+02  0.28333124359E+02 -0.40920215734E+03  0.42101534632E+03  0.85929141587E+02 0.  0.
         23    2    1    2    0    0  0.45147888598E+01 -0.22177977177E+02 -0.33259547838E+03  0.34502919501E+03  0.88955872115E+02 0.  0.
        -11    1    4    4    0    0  0.12465494761E+02 -0.55600070697E+02 -0.19046197766E+03  0.19880271968E+03  0.00000000000E+00 0. -1.
         11    1    4    4    0    0 -0.79507059012E+01  0.33422093520E+02 -0.14213350072E+03  0.14622647533E+03  0.00000000000E+00 0.  1.
        -13    1    3    3    0    0 -0.50706402029E+02 -0.15648029448E+02 -0.19473049547E+03  0.20183152850E+03  0.00000000000E+00 0.  1.
         13    1    3    3    0    0  0.10445590350E+02  0.43981153807E+02 -0.21447166187E+03  0.21918381782E+03  0.00000000000E+00 0. -1.
         -2    1    1    2    0  502  0.35746022820E+02 -0.61551471821E+01  0.93661032054E+02  0.10043929963E+03  0.00000000000E+00 0.  1.
<scales pt_clust_5="13000.00000" pt_clust_6="13000.00000" pt_clust_7="13000.00000" pt_clust_8="13000.00000" pt_clust_9="36.27208"></scales>
<clustering>
<clus scale="   36.272">  1  9  2 -1</clus>
<clus scale="   85.929">  7  8 -1 -1</clus>
<clus scale="   88.956">  5  6 -1 -1</clus>
<clus scale="   92.453">  2  7  1 -1</clus>
<clus scale="   36.272">  1  5  2 -1</clus>
</clustering>
</event>
<event>
 9    1  0.1399746E-005  0.1064055E+03  0.7546771E-02  0.1271732E+00
          2   -1    0    0  502    0 -0.00000000000E+00  0.00000000000E+00  0.47759436688E+03  0.47759436688E+03  0.00000000000E+00 0. -1.
         21   -1    0    0  501  502  0.00000000000E+00 -0.00000000000E+00 -0.56762425788E+02  0.56762425788E+02  0.00000000000E+00 0.  1.
         23    2    1    2    0    0 -0.23829816980E+02  0.14733570096E+02  0.31026991360E+03  0.32477044840E+03  0.91779554379E+02 0.  0.
         23    2    1    2    0    0  0.42707128041E+02 -0.25929223261E+02  0.13562663586E+03  0.17627073057E+03  0.10089877452E+03 0.  0.
        -11    1    4    4    0    0  0.48070481803E+02 -0.47146474927E+02  0.40313967672E+02  0.78477877827E+02  0.00000000000E+00 0.  1.
         11    1    4    4    0    0 -0.53633537620E+01  0.21217251666E+02  0.95312668185E+02  0.97792852747E+02  0.00000000000E+00 0. -1.
        -13    1    3    3    0    0 -0.35194064944E+02  0.48661498088E+02  0.18630136357E+03  0.19574156858E+03  0.00000000000E+00 0.  1.
         13    1    3    3    0    0  0.11364247965E+02 -0.33927927992E+02  0.12396855003E+03  0.12902887982E+03  0.00000000000E+00 0. -1.
          2    1    1    2  501    0 -0.18877311062E+02  0.11195653165E+02 -0.25064608372E+02  0.33315613690E+02  0.00000000000E+00 0. -1.
<scales pt_clust_5="13000.00000" pt_clust_6="13000.00000" pt_clust_7="13000.00000" pt_clust_8="13000.00000" pt_clust_9="21.94756"></scales>
<clustering>
<clus scale="   21.948">  2  9  1 -1</clus>
<clus scale="   91.780">  7  8 -1 -1</clus>
<clus scale="   97.801">  1  7  2 -1</clus>
<clus scale="  100.899">  5  6 -1 -1</clus>
<clus scale="   21.948">  2  5  1 -1</clus>
</clustering>
</event>
<event>
 9    1  0.1399746E-005  0.1180667E+03  0.7546771E-02  0.1246518E+00
          1   -1    0    0  502    0 -0.00000000000E+00  0.00000000000E+00  0.64973248092E+03  0.64973248092E+03  0.00000000000E+00 0. -1.
         21   -1    0    0  501  502  0.00000000000E+00 -0.00000000000E+00 -0.33093864122E+02  0.33093864122E+02  0.00000000000E+00 0. -1.
         23    2    1    2    0    0  0.19559048971E+02 -0.75315994235E+02  0.34823006887E+03  0.36826479747E+03  0.91102825464E+02 0.  0.
         23    2    1    2    0    0  0.36561223908E+01  0.71972160736E+02  0.26664952189E+03  0.29104092734E+03  0.91703297152E+02 0.  0.
        -11    1    3    3    0    0  0.41465969090E+02 -0.26463893795E+01  0.90331392952E+02  0.99429324256E+02  0.00000000000E+00 0. -1.
         11    1    3    3    0    0 -0.21906920120E+02 -0.72669604856E+02  0.25789867592E+03  0.26883547322E+03  0.00000000000E+00 0.  1.
        -13    1    4    4    0    0  0.29195548973E+02  0.37377034196E+01  0.15467152308E+03  0.15744723103E+03  0.00000000000E+00 0.  1.
         13    1    4    4    0    0 -0.25539426582E+02  0.68234457317E+02  0.11197799881E+03  0.13359369630E+03  0.00000000000E+00 0. -1.
          1    1    1    2  501    0 -0.23215171361E+02  0.33438334988E+01  0.17590260424E+01  0.23520620239E+02  0.00000000000E+00 0. -1.
<scales pt_clust_5="13000.00000" pt_clust_6="13000.00000" pt_clust_7="13000.00000" pt_clust_8="13000.00000" pt_clust_9="23.45475"></scales>
<clustering>
<clus scale="   23.455">  2  9  1 -1</clus>
<clus scale="   91.103">  5  6 -1 -1</clus>
<clus scale="   91.703">  7  8 -1 -1</clus>
<clus scale="  117.601">  1  5  2 -1</clus>
<clus scale="   23.455">  2  5  1 -1</clus>
</clustering>
</event>
<event>
 9    1  0.1399746E-005  0.1468895E+03  0.7546771E-02  0.1204979E+00
         21   -1    0    0  501  502  0.00000000000E+00  0.00000000000E+00  0.56848532477E+02  0.56848532477E+02  0.00000000000E+00 0.  1.
          2   -1    0    0  502    0 -0.00000000000E+00 -0.00000000000E+00 -0.70188872912E+03  0.70188872912E+03  0.00000000000E+00 0. -1.
         23    2    1    2    0    0  0.10394011451E+03 -0.46888097997E+02 -0.37578675147E+03  0.40239707910E+03  0.87782034341E+02 0.  0.
         23    2    1    2    0    0 -0.13041211009E+03 -0.12802420497E+02 -0.14324127639E+03  0.21441488091E+03  0.91018995068E+02 0.  0.
        -11    1    4    4    0    0 -0.52956937186E+02 -0.50704308330E+02 -0.65725687300E+02  0.98464359290E+02  0.00000000000E+00 0.  1.
         11    1    4    4    0    0 -0.77455172908E+02  0.37901887833E+02 -0.77515589090E+02  0.11595052162E+03  0.00000000000E+00 0. -1.
        -13    1    3    3    0    0  0.44635358162E+02 -0.12641493593E+02 -0.45123707825E+02  0.64716856895E+02  0.00000000000E+00 0.  1.
         13    1    3    3    0    0  0.59304756350E+02 -0.34246604404E+02 -0.33066304365E+03  0.33768022221E+03  0.00000000000E+00 0. -1.
          2    1    1    2  501    0  0.26471995582E+02  0.59690518494E+02 -0.12601216878E+03  0.14192530158E+03  0.00000000000E+00 0. -1.
<scales pt_clust_5="13000.00000" pt_clust_6="13000.00000" pt_clust_7="13000.00000" pt_clust_8="13000.00000" pt_clust_9="65.29723"></scales>
<clustering>
<clus scale="   65.297">  1  9  2 -1</clus>
<clus scale="   87.782">  7  8 -1 -1</clus>
<clus scale="   91.019">  5  6 -1 -1</clus>
<clus scale="  144.906">  2  7  1 -1</clus>
<clus scale="   65.297">  1  5  2 -1</clus>
</clustering>
</event>
<event>
 9    1  0.1399746E-005  0.1011692E+03  0.7546771E-02  0.1279430E+00
          2   -1    0    0  502    0 -0.00000000000E+00  0.00000000000E+00  0.56169668561E+03  0.56169668561E+03  0.00000000000E+00 0. -1.
         21   -1    0    0  501  502  0.00000000000E+00 -0.00000000000E+00 -0.59927297836E+02  0.59927297836E+02  0.00000000000E+00 0. -1.
         23    2    1    2    0    0  0.54540714085E+02 -0.35592641988E+02  0.40890122321E+03  0.42375419371E+03  0.90143666917E+02 0.  0.
         23    2    1    2    0    0  0.11086787087E+02  0.15271288874E+02  0.93793681203E+02  0.12916183616E+03  0.86772093299E+02 0.  0.
        -11    1    4    4    0    0 -0.37766948715E+01  0.48886925649E+02  0.69680140460E+02  0.85202798652E+02  0.00000000000E+00 0. -1.
         11    1    4    4    0    0  0.14863481959E+02 -0.33615636775E+02  0.24113540743E+02  0.43959037511E+02  0.00000000000E+00 0.  1.
        -13    1    3    3    0    0  0.45481720354E+02 -0.65003301700E+02  0.31958397128E+03  0.32928396684E+03  0.00000000000E+00 0. -1.
         13    1    3    3    0    0  0.90589937310E+01  0.29410659713E+02  0.89317251933E+02  0.94470226871E+02  0.00000000000E+00 0.  1.
          2    1    1    2  501    0 -0.65627501172E+02  0.20321353114E+02 -0.92551664697E+00  0.68707953568E+02  0.00000000000E+00 0. -1.
<scales pt_clust_5="13000.00000" pt_clust_6="13000.00000" pt_clust_7="13000.00000" pt_clust_8="13000.00000" pt_clust_9="68.70172"></scales>
<clustering>
<clus scale="   68.702">  2  9  1 -1</clus>
<clus scale="   86.772">  5  6 -1 -1</clus>
<clus scale="   90.144">  7  8 -1 -1</clus>
<clus scale="   98.177">  2  5  1 -1</clus>
<clus scale="   68.702">  2  5  1 -1</clus>
</clustering>
</event>
<event>
 9    1  0.1399746E-005  0.1149884E+03  0.7546771E-02  0.1252502E+00
          3   -1    0    0  502    0 -0.00000000000E+00  0.00000000000E+00  0.46061953384E+03  0.46061953384E+03  0.00000000000E+00 0. -1.
         21   -1    0    0  501  502  0.00000000000E+00 -0.00000000000E+00 -0.64842027015E+02  0.64842027015E+02  0.00000000000E+00 0. -1.
         23    2    1    2    0    0 -0.69472083092E+02  0.50121585180E+01  0.35928824193E+03  0.37764618240E+03  0.93150986192E+02 0.  0.
         23    2    1    2    0    0  0.38020036352E+02 -0.23017348934E+02  0.36474128886E+02  0.11157426430E+03  0.95619730493E+02 0.  0.
        -13    1    4    4    0    0  0.13257388087E+02 -0.31158814030E+02  0.64778832390E+02  0.73095329238E+02  0.00000000000E+00 0. -1.
         13    1    4    4    0    0  0.24762648265E+02  0.81414650955E+01 -0.28304703503E+02  0.38478935061E+02  0.00000000000E+00 0.  1.
        -13    1    3    3    0    0  0.22334172960E+02  0.14403467744E+01  0.10255146348E+03  0.10496519682E+03  0.00000000000E+00 0.  1.
         13    1    3    3    0    0 -0.91806256052E+02  0.35718117436E+01  0.25673677845E+03  0.27268098558E+03  0.00000000000E+00 0. -1.
          3    1    1    2  501    0  0.31452046740E+02  0.18005190416E+02  0.15136004828E-01  0.36241114155E+02  0.00000000000E+00 0. -1.
<scales pt_clust_5="13000.00000" pt_clust_6="13000.00000" pt_clust_7="13000.00000" pt_clust_8="13000.00000" pt_clust_9="36.24111"></scales>
<clustering>
<clus scale="   36.241">  2  9  1 -1</clus>
<clus scale="   93.151">  7  8 -1 -1</clus>
<clus scale="   95.620">  5  6 -1 -1</clus>
<clus scale="  112.944">  1  7  2 -1</clus>
<clus scale="   36.241">  2  5  1 -1</clus>
</clustering>
</event>
<event>
 9    1  0.1399746E-005  0.1211219E+03  0.7546771E-02  0.1242111E+00
          3   -1    0    0  502    0 -0.00000000000E+00  0.00000000000E+00  0.64356089596E+02  0.64356089596E+02  0.00000000000E+00 0. -1.
         21   -1    0    0  501  502  0.00000000000E+00 -0.00000000000E+00 -0.46589625680E+03  0.46589625680E+03  0.00000000000E+00 0.  1.
         23    2    1    2    0    0 -0.53639533188E+02  0.56366304289E+02 -0.23718168328E+02  0.11983088196E+03  0.87991641548E+02 0.  0.
         23    2    1    2    0    0  0.43044589441E+02 -0.81919933260E+02 -0.27631090679E+03  0.30520862015E+03  0.90779251251E+02 0.  0.
        -11    1    4    4    0    0  0.47662204930E+00 -0.50442668897E+02 -0.22807732692E+03  0.23358929143E+03  0.00000000000E+00 0.  1.
         11    1    4    4    0    0  0.42567967392E+02 -0.31477264363E+02 -0.48233579865E+02  0.71619328720E+02  0.00000000000E+00 0. -1.
        -13    1    3    3    0    0 -0.42176209312E+02  0.74105149976E+02  0.35492334136E+01  0.85340511732E+02  0.00000000000E+00 0. -1.
         13    1    3    3    0    0 -0.11463323876E+02 -0.17738845687E+02 -0.27267401742E+02  0.34490370226E+02  0.00000000000E+00 0.  1.
          3    1    1    2  501    0  0.10594943746E+02  0.25553628971E+02 -0.10151109208E+03  0.10521284429E+03  0.00000000000E+00 0. -1.
<scales pt_clust_5="13000.00000" pt_clust_6="13000.00000" pt_clust_7="13000.00000" pt_clust_8="13000.00000" pt_clust_9="27.66299"></scales>
<clustering>
<clus scale="   27.663">  2  9  1 -1</clus>
<clus scale="   87.992">  7  8 -1 -1</clus>
<clus scale="   90.779">  5  6 -1 -1</clus>
<clus scale="  119.047">  1  7  2 -1</clus>
<clus scale="   27.663">  2  5  1 -1</clus>
</clustering>
</event>
<event>
 9    1  0.1399746E-005  0.1151808E+03  0.7546771E-02  0.1252274E+00
          1   -1    0    0  502    0 -0.00000000000E+00  0.00000000000E+00  0.16475594590E+03  0.16475594590E+03  0.00000000000E+00 0. -1.
         21   -1    0    0  501  502  0.00000000000E+00 -0.00000000000E+00 -0.30841978745E+03  0.30841978745E+03  0.00000000000E+00 0.  1.
         23    2    1    2    0    0 -0.57232913941E+01 -0.88755851020E+02  0.49993754831E+02  0.13560848447E+03  0.89330444879E+02 0.  0.
         23    2    1    2    0    0  0.49602062736E+02  0.36482592446E+02  0.20537797359E+02  0.11276176222E+03  0.92206668515E+02 0.  0.
        -11    1    3    3    0    0 -0.27517611393E+02 -0.98192519651E+02  0.36613858036E+02  0.10834927066E+03  0.00000000000E+00 0. -1.
         11    1    3    3    0    0  0.21794319999E+02  0.94366686310E+01  0.13379896794E+02  0.27259213806E+02  0.00000000000E+00 0.  1.
        -13    1    4    4    0    0  0.45444427513E+02 -0.65240845176E+01  0.44004102759E+02  0.63593401626E+02  0.00000000000E+00 0. -1.
         13    1    4    4    0    0  0.41576352229E+01  0.43006676963E+02 -0.23466305399E+02  0.49168360591E+02  0.00000000000E+00 0.  1.
          1    1    1    2  501    0 -0.43878771341E+02  0.52273258574E+02 -0.21419539375E+03  0.22480548667E+03  0.00000000000E+00 0. -1.
<scales pt_clust_5="13000.00000" pt_clust_6="13000.00000" pt_clust_7="13000.00000" pt_clust_8="13000.00000" pt_clust_9="68.24837"></scales>
<clustering>
<clus scale="   68.248">  2  9  1 -1</clus>
<clus scale="   89.330">  5  6 -1 -1</clus>
<clus scale="   92.207">  7  8 -1 -1</clus>
<clus scale="  112.891">  1  5  2 -1</clus>
<clus scale="   68.248">  2  5  1 -1</clus>
</clustering>
</event>
<event>
 9    1  0.1399746E-005  0.1027470E+03  0.7546771E-02  0.1283215E+00
         21   -1    0    0  501  502  0.00000000000E+00  0.00000000000E+00  0.67898368704E+02  0.67898368704E+02  0.00000000000E+00 0. -1.
         -3   -1    0    0    0  501 -0.00000000000E+00 -0.00000000000E+00 -0.41491273235E+03  0.41491273235E+03  0.00000000000E+00 0.  1.
         23    2    1    2    0    0  0.13569741626E+02  0.10069677002E+02 -0.35727511362E+03  0.37186527181E+03  0.10174840187E+03 0.  0.
         23    2    1    2    0    0  0.91855565524E+01 -0.55516718543E+01  0.12623469352E+02  0.87626343639E+02  0.86045503145E+02 0.  0.
        -13    1    3    3    0    0  0.43388009401E+02 -0.29030438975E+02 -0.14956229116E+03  0.15841137801E+03  0.00000000000E+00 0. -1.
         13    1    3    3    0    0 -0.29818267775E+02  0.39100115977E+02 -0.20771282247E+03  0.21345389380E+03  0.00000000000E+00 0.  1.
        -13    1    4    4    0    0  0.89946225866E+01  0.34062637714E+02 -0.16059452200E+02  0.38717858004E+02  0.00000000000E+00 0.  1.
         13    1    4    4    0    0  0.19093396582E+00 -0.39614309568E+02  0.28682921552E+02  0.48908485635E+02  0.00000000000E+00 0. -1.
         -3    1    1    2    0  502 -0.22755298178E+02 -0.45180051476E+01 -0.23627193697E+01  0.23319485597E+02  0.00000000000E+00 0.  1.
<scales pt_clust_5="13000.00000" pt_clust_6="13000.00000" pt_clust_7="13000.00000" pt_clust_8="13000.00000" pt_clust_9="23.19948"></scales>
<clustering>
<clus scale="   23.199">  1  9  2 -1</clus>
<clus scale="   86.046">  7  8 -1 -1</clus>
<clus scale="   87.224">  1  7  2 -1</clus>
<clus scale="  101.748">  5  6 -1 -1</clus>
<clus scale="   23.199">  1  5  2 -1</clus>
</clustering>
</event>
<event>
 9    1  0.1399746E-005  0.9400979E+02  0.7546771E-02  0.1293586E+00
         21   -1    0    0  501  502  0.00000000000E+00  0.00000000000E+00  0.34211116748E+03  0.34211116748E+03  0.00000000000E+00 0.  1.
         -1   -1    0    0    0  501 -0.00000000000E+00 -0.00000000000E+00 -0.48204683442E+02  0.48204683442E+02  0.00000000000E+00 0.  1.
         23    2    1    2    0    0 -0.16024359845E+02  0.27616593215E+01  0.57772685114E+02  0.10944707662E+03  0.91523617521E+02 0.  0.
         23    2    1    2    0    0  0.43329811115E+01 -0.49477475150E+02  0.16463480302E+03  0.19466458531E+03  0.91229858790E+02 0.  0.
        -11    1    3    3    0    0 -0.39767535119E+02  0.29862170874E+01  0.71609592777E+02  0.81965286065E+02  0.00000000000E+00 0.  1.
         11    1    3    3    0    0  0.23743175274E+02 -0.22455776594E+00 -0.13836907663E+02  0.27481790552E+02  0.00000000000E+00 0. -1.
        -13    1    4    4    0    0  0.34199534999E+02 -0.59662740892E+02  0.13434967481E+03  0.15092741953E+03  0.00000000000E+00 0.  1.
         13    1    4    4    0    0 -0.29866553887E+02  0.10185265743E+02  0.30285128210E+02  0.43737165775E+02  0.00000000000E+00 0. -1.
         -1    1    1    2    0  502  0.11691378734E+02  0.46715815828E+02  0.71498995897E+02  0.86204188991E+02  0.00000000000E+00 0.  1.
<scales pt_clust_5="13000.00000" pt_clust_6="13000.00000" pt_clust_7="13000.00000" pt_clust_8="13000.00000" pt_clust_9="48.15658"></scales>
<clustering>
<clus scale="   48.157">  1  9  2 -1</clus>
<clus scale="   91.230">  7  8 -1 -1</clus>
<clus scale="   91.524">  5  6 -1 -1</clus>
<clus scale="   93.724">  1  7  2 -1</clus>
<clus scale="   48.157">  1  5  2 -1</clus>
</clustering>
</event>
<event>
 9    1  0.1399746E-005  0.1200959E+03  0.7546771E-02  0.1248144E+00
         21   -1    0    0  501  502  0.00000000000E+00  0.00000000000E+00  0.45069677760E+02  0.45069677760E+02  0.00000000000E+00 0.  1.
          4   -1    0    0  502    0 -0.00000000000E+00 -0.00000000000E+00 -0.34721340308E+03  0.34721340308E+03  0.00000000000E+00 0. -1.
         23    2    1    2    0    0  0.38192670296E+02 -0.49169286489E+02 -0.16216075427E+03  0.20325568020E+03  0.10554838941E+03 0.  0.
         23    2    1    2    0    0 -0.17701981112E+02  0.50928309790E+02 -0.11941934063E+03  0.15994432306E+03  0.91728701547E+02 0.  0.
        -11    1    4    4    0    0 -0.39597649866E+02  0.58952044469E+02 -0.50376204795E+02  0.87069394345E+02  0.00000000000E+00 0.  1.
         11    1    4    4    0    0  0.21895668754E+02 -0.80237346792E+01 -0.69043135839E+02  0.72874928713E+02  0.00000000000E+00 0. -1.
        -13    1    3    3    0    0  0.36395386289E+02 -0.15912402661E+02 -0.21116770023E+01  0.39777982369E+02  0.00000000000E+00 0.  1.
         13    1    3    3    0    0  0.17972840063E+01 -0.33256883828E+02 -0.16004907727E+03  0.16347769783E+03  0.00000000000E+00 0. -1.
          4    1    1    2  501    0 -0.20490689183E+02 -0.17590233015E+01 -0.20563630414E+02  0.29083077588E+02  0.00000000000E+00 0. -1.
<scales pt_clust_5="13000.00000" pt_clust_6="13000.00000" pt_clust_7="13000.00000" pt_clust_8="13000.00000" pt_clust_9="20.56605"></scales>
<clustering>
<clus scale="   20.566">  1  9  2 -1</clus>
<clus scale="   91.729">  5  6 -1 -1</clus>
<clus scale="  105.548">  7  8 -1 -1</clus>
<clus scale="  108.151">  1  5  2 -1</clus>
<clus scale="   20.566">  1  5  2 -1</clus>
</clustering>
</event>
<event>
 9    1  0.1399746E-005  0.9167028E+02  0.7546771E-02  0.1299603E+00
         21   -1    0    0  501  502  0.00000000000E+00  0.00000000000E+00  0.54345424494E+02  0.54345424494E+02  0.00000000000E+00 0. -1.
          1   -1    0    0  502    0 -0.00000000000E+00 -0.00000000000E+00 -0.35138797003E+03  0.35138797003E+03  0.00000000000E+00 0. -1.
         23    2    1    2    0    0 -0.16417027881E+02 -0.23112066107E+02 -0.19509748120E+03  0.21666355797E+03  0.89868702986E+02 0.  0.
         23    2    1    2    0    0 -0.11362541805E+02  0.97856545627E+01 -0.12258340072E+03  0.15198562610E+03  0.88589356116E+02 0.  0.
        -11    1    4    4    0    0 -0.42246056870E+02 -0.18803763033E+02 -0.77995510100E+02  0.90673096457E+02  0.00000000000E+00 0. -1.
         11    1    4    4    0    0  0.30883515065E+02  0.28589417595E+02 -0.44587890620E+02  0.61312529642E+02  0.00000000000E+00 0.  1.
        -13    1    3    3    0    0 -0.33172084562E+02 -0.42077745118E+02 -0.65525872957E+02  0.84643746699E+02  0.00000000000E+00 0. -1.
         13    1    3    3    0    0  0.16755056681E+02  0.18965679011E+02 -0.12957160825E+03  0.13201981127E+03  0.00000000000E+00 0.  1.
          1    1    1    2  501    0  0.27779569687E+02  0.13326411545E+02  0.20638336383E+02  0.37084210458E+02  0.00000000000E+00 0. -1.
<scales pt_clust_5="13000.00000" pt_clust_6="13000.00000" pt_clust_7="13000.00000" pt_clust_8="13000.00000" pt_clust_9="30.81068"></scales>
<clustering>
<clus scale="   30.811">  1  9  2 -1</clus>
<clus scale="   88.589">  5  6 -1 -1</clus>
<clus scale="   89.869">  7  8 -1 -1</clus>
<clus scale="   90.416">  1  5  2 -1</clus>
<clus scale="   30.811">  1  5  2 -1</clus>
</clustering>
</event>
<event>
 9    1  0.1399746E-005  0.9832549E+02  0.7546771E-02  0.1284130E+00
         -1   -1    0    0    0  501 -0.00000000000E+00  0.00000000000E+00  0.22846460388E+03  0.22846460388E+03  0.00000000000E+00 0.  1.
         21   -1    0    0  501  502  0.00000000000E+00 -0.00000000000E+00 -0.95767955871E+02  0.95767955871E+02  0.00000000000E+00 0. -1.
         23    2    1    2    0    0 -0.23203862546E+02  0.25109559037E+02  0.14575732056E+03  0.17453137249E+03  0.89705597903E+02 0.  0.
         23    2    1    2    0    0  0.42967174965E+02 -0.32181061948E+02  0.23437067792E+02  0.10759798405E+03  0.90256474291E+02 0.  0.
        -13    1    4    4    0    0  0.52922470525E+02 -0.80666007374E+01 -0.19818179023E+02  0.57084307421E+02  0.00000000000E+00 0. -1.
         13    1    4    4    0    0 -0.99552955599E+01 -0.24114461211E+02  0.43255246815E+02  0.50513676625E+02  0.00000000000E+00 0.  1.
        -13    1    3    3    0    0 -0.44223598929E+02  0.23517315935E+02  0.14503356298E+03  0.15343899518E+03  0.00000000000E+00 0.  1.
         13    1    3    3    0    0  0.21019736382E+02  0.15922431020E+01  0.72375757973E+00  0.21092377313E+02  0.00000000000E+00 0. -1.
         -1    1    1    2    0  502 -0.19763312419E+02  0.70715029115E+01 -0.36497740339E+02  0.42103203216E+02  0.00000000000E+00 0.  1.
<scales pt_clust_5="13000.00000" pt_clust_6="13000.00000" pt_clust_7="13000.00000" pt_clust_8="13000.00000" pt_clust_9="20.99035"></scales>
<clustering>
<clus scale="   20.990">  2  9  1 -1</clus>
<clus scale="   89.706">  7  8 -1 -1</clus>
<clus scale="   90.256">  5  6 -1 -1</clus>
<clus scale="   97.820">  1  7  2 -1</clus>
<clus scale="   20.990">  2  5  1 -1</clus>
</clustering>
</event>
<event>
 9    1  0.1399746E-005  0.1316927E+03  0.7546771E-02  0.1224980E+00
         21   -1    0    0  501  502  0.00000000000E+00  0.00000000000E+00  0.11887572111E+03  0.11887572111E+03  0.00000000000E+00 0. -1.
          1   -1    0    0  502    0 -0.00000000000E+00 -0.00000000000E+00 -0.42477545503E+03  0.42477545503E+03  0.00000000000E+00 0. -1.
         23    2    1    2    0    0 -0.53227403132E+02 -0.78082978776E+02 -0.33115245512E+03  0.35628454789E+03  0.91359851767E+02 0.  0.
         23    2    1    2    0    0  0.76760456268E+02  0.63613932111E+02 -0.17656347416E+02  0.13633383417E+03  0.91303163851E+02 0.  0.
        -11    1    4    4    0    0  0.67965994653E+02  0.34590873030E+01 -0.29876921013E+02  0.74323429168E+02  0.00000000000E+00 0. -1.
         11    1    4    4    0    0  0.87944616151E+01  0.60154844808E+02  0.12220573597E+02  0.62010404998E+02  0.00000000000E+00 0.  1.
        -11    1    3    3    0    0 -0.21940110463E+02 -0.79439906240E+02 -0.30355292810E+03  0.31454164638E+03  0.00000000000E+00 0. -1.
         11    1    3    3    0    0 -0.31287292669E+02  0.13569274631E+01 -0.27599527022E+02  0.41742901511E+02  0.00000000000E+00 0.  1.
          1    1    1    2  501    0 -0.23533053135E+02  0.14469046666E+02  0.42909068620E+02  0.51032794075E+02  0.00000000000E+00 0. -1.
<scales pt_clust_5="13000.00000" pt_clust_6="13000.00000" pt_clust_7="13000.00000" pt_clust_8="13000.00000" pt_clust_9="27.62531"></scales>
<clustering>
<clus scale="   27.625">  1  9  2 -1</clus>
<clus scale="   91.303">  5  6 -1 -1</clus>
<clus scale="   91.360">  7  8 -1 -1</clus>
<clus scale="  131.653">  1  5  2 -1</clus>
<clus scale="   27.625">  1  5  2 -1</clus>
</clustering>
</event>
<event>
 9    1  0.1399746E-005  0.1277665E+03  0.7546771E-02  0.1231415E+00
          1   -1    0    0  502    0 -0.00000000000E+00  0.00000000000E+00  0.51107082311E+03  0.51107082311E+03  0.00000000000E+00 0. -1.
         21   -1    0    0  501  502  0.00000000000E+00 -0.00000000000E+00 -0.68429215549E+02  0.68429215549E+02  0.00000000000E+00 0.  1.
         23    2    1    2    0    0 -0.42645784875E+02 -0.81702695745E+02  0.32649084215E+03  0.35091731928E+03  0.89736845821E+02 0.  0.
         23    2    1    2    0    0  0.83300799437E+02  0.37902714867E+02  0.48979732230E+02  0.13867601089E+03  0.91958593107E+02 0.  0.
        -11    1    4    4    0    0  0.15644213445E+02  0.56724222705E+02  0.15338990232E+02  0.60808416170E+02  0.00000000000E+00 0.  1.
         11    1    4    4    0    0  0.67656585992E+02 -0.18821507838E+02  0.33640741998E+02  0.77867594720E+02  0.00000000000E+00 0. -1.
        -13    1    3    3    0    0 -0.50757646248E+02 -0.41092076440E+02  0.28465711875E+03  0.29205234574E+03  0.00000000000E+00 0. -1.
         13    1    3    3    0    0  0.81118613725E+01 -0.40610619305E+02  0.41833723404E+02  0.58864973533E+02  0.00000000000E+00 0.  1.
          1    1    1    2  501    0 -0.40655014562E+02  0.43799980878E+02  0.67171033180E+02  0.89906708495E+02  0.00000000000E+00 0. -1.
<scales pt_clust_5="13000.00000" pt_clust_6="13000.00000" pt_clust_7="13000.00000" pt_clust_8="13000.00000" pt_clust_9="59.76009"></scales>
<clustering>
<clus scale="   59.760">  2  9  1 -1</clus>
<clus scale="   89.737">  7  8 -1 -1</clus>
<clus scale="   91.959">  5  6 -1 -1</clus>
<clus scale="  126.177">  1  7  2 -1</clus>
<clus scale="   59.760">  2  5  1 -1</clus>
</clustering>
</event>
<event>
 9    1  0.1399746E-005  0.1593190E+03  0.7546771E-02  0.1189681E+00
          1   -1    0    0  502    0 -0.00000000000E+00  0.00000000000E+00  0.78665370102E+03  0.78665370102E+03  0.00000000000E+00 0. -1.
         21   -1    0    0  501  502  0.00000000000E+00 -0.00000000000E+00 -0.10028214640E+03  0.10028214640E+03  0.00000000000E+00 0. -1.
         23    2    1    2    0    0 -0.16589815995E+02  0.80096168441E+02  0.19465004743E+03  0.22985019572E+03  0.90839712209E+02 0.  0.
         23    2    1    2    0    0  0.16119901399E+02 -0.18537111096E+03  0.50962329973E+03  0.55029844029E+03  0.92142095465E+02 0.  0.
        -11    1    3    3    0    0 -0.20007433938E+02 -0.15789095912E+02  0.52364312908E+02  0.58237567161E+02  0.00000000000E+00 0.  1.
         11    1    3    3    0    0  0.34176179424E+01  0.95885264353E+02  0.14228573452E+03  0.17161262856E+03  0.00000000000E+00 0. -1.
        -13    1    4    4    0    0 -0.20729998340E+02 -0.11038161946E+03  0.37854302740E+03  0.39485270462E+03  0.00000000000E+00 0. -1.
         13    1    4    4    0    0  0.36849899739E+02 -0.74989491499E+02  0.13108027233E+03  0.15544573568E+03  0.00000000000E+00 0.  1.
          1    1    1    2  501    0  0.46991459655E+00  0.10527494252E+03 -0.17901792544E+02  0.10678721140E+03  0.00000000000E+00 0. -1.
<scales pt_clust_5="13000.00000" pt_clust_6="13000.00000" pt_clust_7="13000.00000" pt_clust_8="13000.00000" pt_clust_9="105.27599"></scales>
<clustering>
<clus scale="   90.840">  5  6 -1 -1</clus>
<clus scale="   92.142">  7  8 -1 -1</clus>
<clus scale="  105.276">  2  9  1 -1</clus>
<clus scale="  158.569">  1  5  2 -1</clus>
<clus scale="  105.276">  2  5  1 -1</clus>
</clustering>
</event>
<event>
 9    1  0.1563528E-005  0.1136431E+03  0.7546771E-02  0.1254605E+00
         -1   -1    0    0    0  501 -0.00000000000E+00  0.00000000000E+00  0.24527845704E+03  0.24527845704E+03  0.00000000000E+00 0.  1.
         21   -1    0    0  501  502  0.00000000000E+00 -0.00000000000E+00 -0.26804239830E+03  0.26804239830E+03  0.00000000000E+00 0. -1.
         23    2    1    2    0    0 -0.43591507940E+02  0.49630760701E+02  0.19058500855E+03  0.22080917380E+03  0.89836594871E+02 0.  0.
         23    2    1    2    0    0  0.76310777226E+02 -0.47283406629E+02 -0.22391353267E+03  0.25804907768E+03  0.91613323878E+02 0.  0.
        -13    1    4    4    0    0  0.36698333236E+02 -0.72163348487E+02 -0.13038484207E+03  0.15347483041E+03  0.00000000000E+00 0.  1.
         13    1    4    4    0    0  0.39612443990E+02  0.24879941858E+02 -0.93528690606E+02  0.10457424727E+03  0.00000000000E+00 0. -1.
        -13    1    3    3    0    0 -0.21477624512E+02 -0.23445237436E+02  0.83037864015E+02  0.88917120810E+02  0.00000000000E+00 0. -1.
         13    1    3    3    0    0 -0.22113883428E+02  0.73075998137E+02  0.10754714454E+03  0.13189205299E+03  0.00000000000E+00 0.  1.
         -1    1    1    2    0  502 -0.32719269286E+02 -0.23473540722E+01  0.10564582874E+02  0.34462603863E+02  0.00000000000E+00 0.  1.
<scales pt_clust_5="13000.00000" pt_clust_6="13000.00000" pt_clust_7="13000.00000" pt_clust_8="13000.00000" pt_clust_9="32.80338"></scales>
<clustering>
<clus scale="   32.803">  2  9  1 -1</clus>
<clus scale="   89.837">  7  8 -1 -1</clus>
<clus scale="   91.613">  5  6 -1 -1</clus>
<clus scale="  112.216">  1  7  2 -1</clus>
<clus scale="   32.803">  2  5  1 -1</clus>
</clustering>
</event>
<event>
 9    1  0.1399746E-005  0.1089914E+03  0.7546771E-02  0.1263955E+00
         21   -1    0    0  501  502  0.00000000000E+00  0.00000000000E+00  0.70294415397E+02  0.70294415397E+02  0.00000000000E+00 0. -1.
          2   -1    0    0  502    0 -0.00000000000E+00 -0.00000000000E+00 -0.34014600312E+03  0.34014600312E+03  0.00000000000E+00 0. -1.
         23    2    1    2    0    0 -0.63263534185E+02 -0.79175242827E+01 -0.18421621146E+03  0.21622923608E+03  0.93565527956E+02 0.  0.
         23    2    1    2    0    0  0.10854311417E+02 -0.15516949989E+02 -0.10294618214E+02  0.99489848838E+02  0.97127025303E+02 0.  0.
        -13    1    3    3    0    0 -0.57852357689E+02  0.30860121593E+02 -0.72016130875E+02  0.97393867883E+02  0.00000000000E+00 0. -1.
         13    1    3    3    0    0 -0.54111764963E+01 -0.38777645876E+02 -0.11220008059E+03  0.11883536820E+03  0.00000000000E+00 0.  1.
        -13    1    4    4    0    0  0.86474638377E+01 -0.56672932320E+02 -0.15088924709E+01  0.57348728365E+02  0.00000000000E+00 0.  1.
         13    1    4    4    0    0  0.22068475796E+01  0.41155982331E+02 -0.87857257431E+01  0.42141120473E+02  0.00000000000E+00 0. -1.
          2    1    1    2  501    0  0.52409222768E+02  0.23434474272E+02 -0.75340758044E+02  0.94721333596E+02  0.00000000000E+00 0. -1.
<scales pt_clust_5="13000.00000" pt_clust_6="13000.00000" pt_clust_7="13000.00000" pt_clust_8="13000.00000" pt_clust_9="57.40997"></scales>
<clustering>
<clus scale="   57.410">  1  9  2 -1</clus>
<clus scale="   93.566">  5  6 -1 -1</clus>
<clus scale="   97.127">  7  8 -1 -1</clus>
<clus scale="  105.830">  2  5  1 -1</clus>
<clus scale="   57.410">  1  5  2 -1</clus>
</clustering>
</event>
<event>
 9    1  0.1399746E-005  0.9850923E+02  0.7546771E-02  0.1284566E+00
          1   -1    0    0  502    0 -0.00000000000E+00  0.00000000000E+00  0.56119492889E+03  0.56119492889E+03  0.00000000000E+00 0. -1.
         21   -1    0    0  501  502  0.00000000000E+00 -0.00000000000E+00 -0.10180168163E+03  0.10180168163E+03  0.00000000000E+00 0.  1.
         23    2    1    2    0    0  0.33637437975E+02  0.16853528593E+02  0.51644489898E+03  0.52579435567E+03  0.91262544953E+02 0.  0.
         23    2    1    2    0    0 -0.15683515180E+02 -0.33467438275E+02 -0.30581461176E+02  0.10116010833E+03  0.89062335902E+02 0.  0.
        -13    1    3    3    0    0  0.53846604723E+02  0.40185092089E+02  0.38078061970E+03  0.38666287488E+03  0.00000000000E+00 0. -1.
         13    1    3    3    0    0 -0.20209166748E+02 -0.23331563495E+02  0.13566427927E+03  0.13913148079E+03  0.00000000000E+00 0.  1.
        -13    1    4    4    0    0  0.47122325584E+01 -0.59942967215E+02 -0.31185411707E+02  0.67733997058E+02  0.00000000000E+00 0.  1.
         13    1    4    4    0    0 -0.20395747739E+02  0.26475528940E+02  0.60395053044E+00  0.33426111271E+02  0.00000000000E+00 0. -1.
          1    1    1    2  501    0 -0.17953922795E+02  0.16613909682E+02 -0.26470190544E+02  0.36042146524E+02  0.00000000000E+00 0. -1.
<scales pt_clust_5="13000.00000" pt_clust_6="13000.00000" pt_clust_7="13000.00000" pt_clust_8="13000.00000" pt_clust_9="24.46151"></scales>
<clustering>
<clus scale="   24.462">  2  9  1 -1</clus>
<clus scale="   89.062">  7  8 -1 -1</clus>
<clus scale="   91.263">  5  6 -1 -1</clus>
<clus scale="   96.474">  2  7  1 -1</clus>
<clus scale="   24.462">  2  5  1 -1</clus>
</clustering>
</event>
<event>
 9    1  0.1399746E-005  0.1046719E+03  0.7546771E-02  0.1270940E+00
         21   -1    0    0  501  502  0.00000000000E+00  0.00000000000E+00  0.68364728626E+02  0.68364728626E+02  0.00000000000E+00 0.  1.
          2   -1    0    0  502    0 -0.00000000000E+00 -0.00000000000E+00 -0.72373261242E+03  0.72373261242E+03  0.00000000000E+00 0. -1.
         23    2    1    2    0    0 -0.39383316082E+02 -0.35847742956E+02 -0.59384553821E+03  0.60301323254E+03  0.90201602578E+02 0.  0.
         23    2    1    2    0    0  0.17055818919E+02  0.51188834762E+02 -0.97789183815E+02  0.14381657287E+03  0.90605101381E+02 0.  0.
        -13    1    3    3    0    0  0.25366467228E+02 -0.30473881594E+02 -0.21082357365E+03  0.21451968284E+03  0.00000000000E+00 0. -1.
         13    1    3    3    0    0 -0.64749783310E+02 -0.53738613623E+01 -0.38302196456E+03  0.38849354970E+03  0.00000000000E+00 0.  1.
        -13    1    4    4    0    0 -0.29394733970E+02  0.42188533783E+02 -0.25436348113E+02  0.57366632926E+02  0.00000000000E+00 0. -1.
         13    1    4    4    0    0  0.46450552889E+02  0.90003009784E+01 -0.72352835703E+02  0.86449939940E+02  0.00000000000E+00 0.  1.
          2    1    1    2  501    0  0.22327497163E+02 -0.15341091806E+02  0.36266838233E+02  0.45267535638E+02  0.00000000000E+00 0. -1.
<scales pt_clust_5="13000.00000" pt_clust_6="13000.00000" pt_clust_7="13000.00000" pt_clust_8="13000.00000" pt_clust_9="27.08997"></scales>
<clustering>
<clus scale="   27.090">  1  9  2 -1</clus>
<clus scale="   90.202">  5  6 -1 -1</clus>
<clus scale="   90.605">  7  8 -1 -1</clus>
<clus scale="  104.323">  2  5  1 -1</clus>
<clus scale="   27.090">  1  5  2 -1</clus>
</clustering>
</event>
<event>
 9    1  0.1399746E-005  0.2622235E+03  0.7546771E-02  0.1132909E+00
          1   -1    0    0  502    0 -0.00000000000E+00  0.00000000000E+00  0.15032398261E+04  0.15032398261E+04  0.00000000000E+00 0. -1.
         21   -1    0    0  501  502  0.00000000000E+00 -0.00000000000E+00 -0.14305187860E+03  0.14305187860E+03  0.00000000000E+00 0. -1.
         23    2    1    2    0    0 -0.63529153353E+02 -0.73278959930E+02  0.38222775507E+03  0.40472125262E+03  0.91079505300E+02 0.  0.
         23    2    1    2    0    0  0.39801593829E+00  0.30365187801E+03  0.94939809179E+03  0.10010023422E+04  0.91893041214E+02 0.  0.
        -11    1    4    4    0    0  0.88087829937E+01  0.24399383227E+03  0.85362683041E+03  0.88785660466E+03  0.00000000000E+00 0. -1.
         11    1    4    4    0    0 -0.84107670555E+01  0.59658045747E+02  0.95771261384E+02  0.11314573758E+03  0.00000000000E+00 0.  1.
        -13    1    3    3    0    0 -0.69574738686E+01  0.19992841692E+02  0.98413755803E+02  0.10066472815E+03  0.00000000000E+00 0.  1.
         13    1    3    3    0    0 -0.56571679485E+02 -0.93271801622E+02  0.28381399927E+03  0.30405652448E+03  0.00000000000E+00 0. -1.
          1    1    1    2  501    0  0.63131137415E+02 -0.23037291808E+03  0.28562100693E+02  0.24056810989E+03  0.00000000000E+00 0. -1.
<scales pt_clust_5="13000.00000" pt_clust_6="13000.00000" pt_clust_7="13000.00000" pt_clust_8="13000.00000" pt_clust_9="245.59485"></scales>
<clustering>
<clus scale="   91.080">  7  8 -1 -1</clus>
<clus scale="   91.893">  5  6 -1 -1</clus>
<clus scale="  133.046">  1  7  2 -1</clus>
<clus scale="  245.595">  2  9  1 -1</clus>
<clus scale="  245.595">  2  5  1 -1</clus>
</clustering>
</event>
<event>
 9    1  0.1399746E-005  0.1227890E+03  0.7546771E-02  0.1238893E+00
          1   -1    0    0  502    0 -0.00000000000E+00  0.00000000000E+00  0.96212285447E+02  0.96212285447E+02  0.00000000000E+00 0. -1.
         21   -1    0    0  501  502  0.00000000000E+00 -0.00000000000E+00 -0.24052946149E+03  0.24052946149E+03  0.00000000000E+00 0.  1.
         23    2    1    2    0    0 -0.22929829276E+02  0.83586867796E+02  0.15259335361E+01  0.12592899796E+03  0.91341351625E+02 0.  0.
         23    2    1    2    0    0  0.34895701458E+01 -0.74919809517E+02 -0.81044720819E+02  0.14260811013E+03  0.90242292433E+02 0.  0.
        -11    1    4    4    0    0  0.38182314732E+02 -0.55591990578E+02 -0.77501864381E+02  0.10273703109E+03  0.00000000000E+00 0.  1.
         11    1    4    4    0    0 -0.34692744586E+02 -0.19327818939E+02 -0.35428564384E+01  0.39871079037E+02  0.00000000000E+00 0. -1.
        -13    1    3    3    0    0 -0.42381067552E+02  0.37150692954E+01  0.86523465963E+01  0.43414510574E+02  0.00000000000E+00 0.  1.
         13    1    3    3    0    0  0.19451238277E+02  0.79871798500E+02 -0.71264130601E+01  0.82514487390E+02  0.00000000000E+00 0. -1.
          1    1    1    2  501    0  0.19440259130E+02 -0.86670582786E+01 -0.64798388756E+02  0.68204638843E+02  0.00000000000E+00 0. -1.
<scales pt_clust_5="13000.00000" pt_clust_6="13000.00000" pt_clust_7="13000.00000" pt_clust_8="13000.00000" pt_clust_9="21.28477"></scales>
<clustering>
<clus scale="   21.285">  2  9  1 -1</clus>
<clus scale="   90.242">  5  6 -1 -1</clus>
<clus scale="   91.341">  7  8 -1 -1</clus>
<clus scale="  121.974">  2  5  1 -1</clus>
<clus scale="   21.285">  2  5  1 -1</clus>
</clustering>
</event>
<event>
 9    1  0.1399746E-005  0.2090830E+03  0.7546771E-02  0.1142309E+00
         21   -1    0    0  501  502  0.00000000000E+00  0.00000000000E+00  0.10771649186E+03  0.10771649186E+03  0.00000000000E+00 0.  1.
          2   -1    0    0  502    0 -0.00000000000E+00 -0.00000000000E+00 -0.64478608133E+03  0.64478608133E+03  0.00000000000E+00 0. -1.
         23    2    1    2    0    0  0.14006272892E+03 -0.13088948778E+03 -0.39373965660E+03  0.44733812473E+03  0.91273515405E+02 0.  0.
         23    2    1    2    0    0 -0.15252490531E+03  0.10154677032E+03 -0.16807427449E+03  0.26480873820E+03  0.91099466399E+02 0.  0.
        -11    1    3    3    0    0  0.12087365829E+03 -0.13868798859E+03 -0.38081261585E+03  0.42292203518E+03  0.00000000000E+00 0. -1.
         11    1    3    3    0    0  0.19189070628E+02  0.77985008128E+01 -0.12927040750E+02  0.24416089553E+02  0.00000000000E+00 0.  1.
        -11    1    4    4    0    0 -0.45689126225E+01  0.29410844015E+02 -0.29176461119E+00  0.29765043840E+02  0.00000000000E+00 0. -1.
         11    1    4    4    0    0 -0.14795599269E+03  0.72135926305E+02 -0.16778250988E+03  0.23504369436E+03  0.00000000000E+00 0.  1.
          2    1    1    2  501    0  0.12462176389E+02  0.29342717458E+02  0.24744341626E+02  0.40355710261E+02  0.00000000000E+00 0. -1.
<scales pt_clust_5="13000.00000" pt_clust_6="13000.00000" pt_clust_7="13000.00000" pt_clust_8="13000.00000" pt_clust_9="31.87947"></scales>
<clustering>
<clus scale="   31.879">  1  9  2 -1</clus>
<clus scale="   91.099">  7  8 -1 -1</clus>
<clus scale="   91.274">  5  6 -1 -1</clus>
<clus scale="  209.007">  1  7  2 -1</clus>
<clus scale="   31.879">  1  5  2 -1</clus>
</clustering>
</event>
<event>
 9    1  0.1399746E-005  0.1104277E+03  0.7546771E-02  0.1261167E+00
          1   -1    0    0  502    0 -0.00000000000E+00  0.00000000000E+00  0.36704537651E+03  0.36704537651E+03  0.00000000000E+00 0. -1.
         21   -1    0    0  501  502  0.00000000000E+00 -0.00000000000E+00 -0.55488089974E+02  0.55488089974E+02  0.00000000000E+00 0.  1.
         23    2    1    2    0    0 -0.25923179213E+02 -0.50799274173E+02  0.25972841013E+03  0.28277764731E+03  0.96186138874E+02 0.  0.
         23    2    1    2    0    0  0.34887015538E+02  0.31598960770E+02  0.27707161015E+02  0.10764881761E+03  0.92763047522E+02 0.  0.
        -11    1    4    4    0    0  0.31744115519E+02 -0.17896313788E+01 -0.28171061012E+02  0.42479410649E+02  0.00000000000E+00 0.  1.
         11    1    4    4    0    0  0.31429000194E+01  0.33388592148E+02  0.55878222027E+02  0.65169406956E+02  0.00000000000E+00 0. -1.
        -13    1    3    3    0    0 -0.55103473915E+02 -0.15281765138E+02  0.19619852451E+03  0.20436190008E+03  0.00000000000E+00 0.  1.
         13    1    3    3    0    0  0.29180294702E+02 -0.35517509034E+02  0.63529885618E+02  0.78415747229E+02  0.00000000000E+00 0. -1.
          1    1    1    2  501    0 -0.89638363258E+01  0.19200313403E+02  0.24121715393E+02  0.32107001572E+02  0.00000000000E+00 0. -1.
<scales pt_clust_5="13000.00000" pt_clust_6="13000.00000" pt_clust_7="13000.00000" pt_clust_8="13000.00000" pt_clust_9="21.18969"></scales>
<clustering>
<clus scale="   21.190">  2  9  1 -1</clus>
<clus scale="   92.763">  5  6 -1 -1</clus>
<clus scale="   96.186">  7  8 -1 -1</clus>
<clus scale="  107.459">  2  5  1 -1</clus>
<clus scale="   21.190">  2  5  1 -1</clus>
</clustering>
</event>
<event>
 9    1  0.1399746E-005  0.1023645E+03  0.7546771E-02  0.1275573E+00
         21   -1    0    0  501  502  0.00000000000E+00  0.00000000000E+00  0.79401759990E+02  0.79401759990E+02  0.00000000000E+00 0.  1.
          1   -1    0    0  502    0 -0.00000000000E+00 -0.00000000000E+00 -0.29659372467E+03  0.29659372467E+03  0.00000000000E+00 0. -1.
         23    2    1    2    0    0  0.19697033399E+02  0.53720486065E+02 -0.20416399464E+03  0.23126286885E+03  0.92334793295E+02 0.  0.
         23    2    1    2    0    0 -0.33735654847E+01 -0.10030005908E+02 -0.26318924303E+02  0.96235573362E+02  0.91959870820E+02 0.  0.
        -11    1    4    4    0    0 -0.16559778588E+02 -0.33960271929E+02  0.19780565948E+02  0.42647357780E+02  0.00000000000E+00 0.  1.
         11    1    4    4    0    0  0.13186213103E+02  0.23930266021E+02 -0.46099490252E+02  0.53588215582E+02  0.00000000000E+00 0. -1.
        -13    1    3    3    0    0 -0.29867483986E+02  0.44892667773E+02 -0.72890723970E+02  0.90666839915E+02  0.00000000000E+00 0.  1.
         13    1    3    3    0    0  0.49564517384E+02  0.88278182922E+01 -0.13127327067E+03  0.14059602893E+03  0.00000000000E+00 0. -1.
          1    1    1    2  501    0 -0.16323467914E+02 -0.43690480157E+02  0.13290954264E+02  0.48497042449E+02  0.00000000000E+00 0. -1.
<scales pt_clust_5="13000.00000" pt_clust_6="13000.00000" pt_clust_7="13000.00000" pt_clust_8="13000.00000" pt_clust_9="46.64026"></scales>
<clustering>
<clus scale="   46.640">  1  9  2 -1</clus>
<clus scale="   91.960">  5  6 -1 -1</clus>
<clus scale="   92.335">  7  8 -1 -1</clus>
<clus scale="  102.026">  1  5  2 -1</clus>
<clus scale="   46.640">  1  5  2 -1</clus>
</clustering>
</event>
<event>
 9    1  0.1399746E-005  0.1013656E+03  0.7546771E-02  0.1278540E+00
          4   -1    0    0  502    0 -0.00000000000E+00  0.00000000000E+00  0.55580253287E+02  0.55580253287E+02  0.00000000000E+00 0. -1.
         21   -1    0    0  501  502  0.00000000000E+00 -0.00000000000E+00 -0.38792120739E+03  0.38792120739E+03  0.00000000000E+00 0.  1.
         23    2    1    2    0    0  0.51739742821E+02 -0.28460396121E+01 -0.95462270910E+02  0.14162392064E+03  0.90880079236E+02 0.  0.
         23    2    1    2    0    0 -0.74463052847E+01 -0.56197427531E+02 -0.17173044950E+03  0.20342789821E+03  0.93155591154E+02 0.  0.
        -11    1    3    3    0    0 -0.78166636243E+01  0.25436502230E+02 -0.62464750635E+02  0.67896693202E+02  0.00000000000E+00 0.  1.
         11    1    3    3    0    0  0.59556406445E+02 -0.28282541842E+02 -0.32997520276E+02  0.73727227440E+02  0.00000000000E+00 0. -1.
        -11    1    4    4    0    0 -0.39385862196E+02 -0.70008031072E-01 -0.96816750920E+02  0.10452145378E+03  0.00000000000E+00 0.  1.
         11    1    4    4    0    0  0.31939556911E+02 -0.56127419500E+02 -0.74913698578E+02  0.98906444432E+02  0.00000000000E+00 0. -1.
          4    1    1    2  501    0 -0.44293437536E+02  0.59043467143E+02 -0.65148233694E+02  0.98449641820E+02  0.00000000000E+00 0. -1.
<scales pt_clust_5="13000.00000" pt_clust_6="13000.00000" pt_clust_7="13000.00000" pt_clust_8="13000.00000" pt_clust_9="73.81087"></scales>
<clustering>
<clus scale="   73.811">  2  9  1 -1</clus>
<clus scale="   90.880">  5  6 -1 -1</clus>
<clus scale="   93.156">  7  8 -1 -1</clus>
<clus scale="   99.278">  1  5  2 -1</clus>
<clus scale="   73.811">  2  5  1 -1</clus>
</clustering>
</event>
<event>
 9    1  0.1399746E-005  0.2202905E+03  0.7546771E-02  0.1133739E+00
         21   -1    0    0  501  502  0.00000000000E+00  0.00000000000E+00  0.10026626837E+03  0.10026626837E+03  0.00000000000E+00 0.  1.
          2   -1    0    0  502    0 -0.00000000000E+00 -0.00000000000E+00 -0.59014535959E+03  0.59014535959E+03  0.00000000000E+00 0. -1.
         23    2    1    2    0    0 -0.18802640586E+03 -0.82980221445E+01 -0.26089465984E+03  0.33448177148E+03  0.91592824207E+02 0.  0.
         23    2    1    2    0    0  0.21801380335E+03 -0.90187545985E+01 -0.21160637136E+03  0.31718567324E+03  0.90653949318E+02 0.  0.
        -11    1    4    4    0    0  0.11772569654E+03  0.19709437842E+02 -0.61192262767E+02  0.13413535920E+03  0.00000000000E+00 0.  1.
         11    1    4    4    0    0  0.10028810682E+03 -0.28728192441E+02 -0.15041410859E+03  0.18305031405E+03  0.00000000000E+00 0. -1.
        -13    1    3    3    0    0 -0.17691234350E+03 -0.27304747647E+02 -0.19359167838E+03  0.26366885380E+03  0.00000000000E+00 0. -1.
         13    1    3    3    0    0 -0.11114062359E+02  0.19006725502E+02 -0.67302981462E+02  0.70812917678E+02  0.00000000000E+00 0.  1.
          2    1    1    2  501    0 -0.29987397491E+02  0.17316776743E+02 -0.17378060026E+02  0.38744183245E+02  0.00000000000E+00 0. -1.
<scales pt_clust_5="13000.00000" pt_clust_6="13000.00000" pt_clust_7="13000.00000" pt_clust_8="13000.00000" pt_clust_9="34.62824"></scales>
<clustering>
<clus scale="   34.628">  1  9  2 -1</clus>
<clus scale="   90.654">  5  6 -1 -1</clus>
<clus scale="   91.593">  7  8 -1 -1</clus>
<clus scale="  219.902">  1  5  2 -1</clus>
<clus scale="   34.628">  1  5  2 -1</clus>
</clustering>
</event>
<event>
 9    1  0.1399746E-005  0.9296936E+02  0.7546771E-02  0.1296397E+00
         -1   -1    0    0    0  501 -0.00000000000E+00  0.00000000000E+00  0.34865404799E+03  0.34865404799E+03  0.00000000000E+00 0.  1.
         21   -1    0    0  501  502  0.00000000000E+00 -0.00000000000E+00 -0.57567551574E+02  0.57567551574E+02  0.00000000000E+00 0.  1.
         23    2    1    2    0    0 -0.19218011076E+02  0.39713888990E+02  0.88440833397E+02  0.13375381811E+03  0.90120907215E+02 0.  0.
         23    2    1    2    0    0  0.21641208075E+02  0.25773134833E+02  0.52740920227E+02  0.10886504895E+03  0.89092075128E+02 0.  0.
        -11    1    4    4    0    0 -0.20242836652E+02  0.37607120008E+02  0.30641739864E+01  0.42818886876E+02  0.00000000000E+00 0.  1.
         11    1    4    4    0    0  0.41884044727E+02 -0.11833985175E+02  0.49676746241E+02  0.66046162075E+02  0.00000000000E+00 0. -1.
        -13    1    3    3    0    0 -0.52488715511E+02  0.11119471106E+02  0.32749808621E+02  0.62859031637E+02  0.00000000000E+00 0.  1.
         13    1    3    3    0    0  0.33270704435E+02  0.28594417884E+02  0.55691024776E+02  0.70894786468E+02  0.00000000000E+00 0. -1.
         -1    1    1    2    0  502 -0.24231969988E+01 -0.65487023823E+02  0.14990474279E+03  0.16360273251E+03  0.00000000000E+00 0.  1.
<scales pt_clust_5="13000.00000" pt_clust_6="13000.00000" pt_clust_7="13000.00000" pt_clust_8="13000.00000" pt_clust_9="65.53187"></scales>
<clustering>
<clus scale="   65.532">  2  9  1 -1</clus>
<clus scale="   89.092">  5  6 -1 -1</clus>
<clus scale="   90.121">  7  8 -1 -1</clus>
<clus scale="   91.972">  2  5  1 -1</clus>
<clus scale="   65.532">  2  5  1 -1</clus>
</clustering>
</event>
<event>
 9    1  0.1399746E-005  0.9784313E+02  0.7546771E-02  0.1286637E+00
         21   -1    0    0  501  502  0.00000000000E+00  0.00000000000E+00  0.15660795636E+03  0.15660795636E+03  0.00000000000E+00 0.  1.
          2   -1    0    0  502    0 -0.00000000000E+00 -0.00000000000E+00 -0.17668401870E+03  0.17668401870E+03  0.00000000000E+00 0. -1.
         23    2    1    2    0    0  0.15856002669E+02  0.14172588683E+02 -0.12519269644E+03  0.15862581503E+03  0.95061363663E+02 0.  0.
         23    2    1    2    0    0 -0.45976962008E+02  0.58124119520E+01  0.71084420989E+02  0.12501876361E+03  0.91809755356E+02 0.  0.
        -13    1    3    3    0    0  0.35311028639E+02 -0.15783544689E+02 -0.11522271990E+03  0.12154120374E+03  0.00000000000E+00 0. -1.
         13    1    3    3    0    0 -0.19455025970E+02  0.29956133373E+02 -0.99699765420E+01  0.37084611288E+02  0.00000000000E+00 0.  1.
        -13    1    4    4    0    0  0.23431704927E+02 -0.14216236764E+02  0.34443693711E+02  0.44017203682E+02  0.00000000000E+00 0. -1.
         13    1    4    4    0    0 -0.69408666935E+02  0.20028648716E+02  0.36640727279E+02  0.81001559927E+02  0.00000000000E+00 0.  1.
          2    1    1    2  501    0  0.30120959338E+02 -0.19985000636E+02  0.34032213108E+02  0.49647396416E+02  0.00000000000E+00 0. -1.
<scales pt_clust_5="13000.00000" pt_clust_6="13000.00000" pt_clust_7="13000.00000" pt_clust_8="13000.00000" pt_clust_9="36.14792"></scales>
<clustering>
<clus scale="   36.148">  1  9  2 -1</clus>
<clus scale="   91.810">  7  8 -1 -1</clus>
<clus scale="   94.687">  1  7  2 -1</clus>
<clus scale="   95.061">  5  6 -1 -1</clus>
<clus scale="   36.148">  1  5  2 -1</clus>
</clustering>
</event>
<event>
 9    1  0.1399746E-005  0.1148979E+03  0.7546771E-02  0.1251950E+00
          2   -1    0    0  502    0 -0.00000000000E+00  0.00000000000E+00  0.48381085736E+03  0.48381085736E+03  0.00000000000E+00 0. -1.
         21   -1    0    0  501  502  0.00000000000E+00 -0.00000000000E+00 -0.41858257733E+02  0.41858257733E+02  0.00000000000E+00 0.  1.
         23    2    1    2    0    0 -0.23041574876E+01  0.63655676869E+02  0.21021945410E+03  0.23778379412E+03  0.91058000879E+02 0.  0.
         23    2    1    2    0    0  0.43397808656E+02 -0.71150944850E+02  0.20233324723E+03  0.23680478429E+03  0.90509315417E+02 0.  0.
        -11    1    4    4    0    0  0.20211980243E+02 -0.86711506493E+01 -0.18014010188E+01  0.22067125879E+02  0.00000000000E+00 0.  1.
         11    1    4    4    0    0  0.23185828413E+02 -0.62479794201E+02  0.20413464825E+03  0.21473765841E+03  0.00000000000E+00 0. -1.
        -11    1    3    3    0    0  0.20259335493E+02  0.24384655476E+01  0.31102160623E+01  0.20641226533E+02  0.00000000000E+00 0. -1.
         11    1    3    3    0    0 -0.22563492980E+02  0.61217211321E+02  0.20710923803E+03  0.21714256758E+03  0.00000000000E+00 0.  1.
          2    1    1    2  501    0 -0.41093651168E+02  0.74952679816E+01  0.29399898299E+02  0.51080536689E+02  0.00000000000E+00 0. -1.
<scales pt_clust_5="13000.00000" pt_clust_6="13000.00000" pt_clust_7="13000.00000" pt_clust_8="13000.00000" pt_clust_9="41.77161"></scales>
<clustering>
<clus scale="   41.772">  2  9  1 -1</clus>
<clus scale="   90.509">  5  6 -1 -1</clus>
<clus scale="   91.058">  7  8 -1 -1</clus>
<clus scale="  114.464">  2  5  1 -1</clus>
<clus scale="   41.772">  2  5  1 -1</clus>
</clustering>
</event>
<event>
 9    1  0.1399746E-005  0.9498279E+02  0.7546771E-02  0.1293210E+00
         21   -1    0    0  501  502  0.00000000000E+00  0.00000000000E+00  0.19196668233E+03  0.19196668233E+03  0.00000000000E+00 0. -1.
          2   -1    0    0  502    0 -0.00000000000E+00 -0.00000000000E+00 -0.11948442610E+03  0.11948442610E+03  0.00000000000E+00 0. -1.
         23    2    1    2    0    0  0.13835745321E+02 -0.46867498519E+01 -0.58552459231E+02  0.10752624348E+03  0.88994994707E+02 0.  0.
         23    2    1    2    0    0 -0.30437572187E+02  0.37040757742E+02  0.51067229981E+02  0.11607726273E+03  0.92561360250E+02 0.  0.
        -11    1    4    4    0    0  0.30217219622E+02  0.19434504978E+00  0.28678120565E+02  0.41659965565E+02  0.00000000000E+00 0.  1.
         11    1    4    4    0    0 -0.60654791809E+02  0.36846412692E+02  0.22389109416E+02  0.74417297170E+02  0.00000000000E+00 0. -1.
        -13    1    3    3    0    0  0.48171150111E+02  0.82279489898E+01 -0.49883171546E+02  0.69831867017E+02  0.00000000000E+00 0.  1.
         13    1    3    3    0    0 -0.34335404790E+02 -0.12914698842E+02 -0.86692876846E+01  0.37694376467E+02  0.00000000000E+00 0. -1.
          2    1    1    2  501    0  0.16601826866E+02 -0.32354007890E+02  0.79967485478E+02  0.87847602218E+02  0.00000000000E+00 0. -1.
<scales pt_clust_5="13000.00000" pt_clust_6="13000.00000" pt_clust_7="13000.00000" pt_clust_8="13000.00000" pt_clust_9="36.36485"></scales>
<clustering>
<clus scale="   36.365">  1  9  2 -1</clus>
<clus scale="   88.995">  7  8 -1 -1</clus>
<clus scale="   91.511">  2  7  1 -1</clus>
<clus scale="   92.561">  5  6 -1 -1</clus>
<clus scale="   36.365">  1  5  2 -1</clus>
</clustering>
</event>
<event>
 9    1  0.1399746E-005  0.1670757E+03  0.7546771E-02  0.1180985E+00
          1   -1    0    0  502    0 -0.00000000000E+00  0.00000000000E+00  0.56909212286E+03  0.56909212286E+03  0.00000000000E+00 0. -1.
         21   -1    0    0  501  502  0.00000000000E+00 -0.00000000000E+00 -0.80899973041E+02  0.80899973041E+02  0.00000000000E+00 0.  1.
         23    2    1    2    0    0  0.13634632966E+03 -0.23244773753E+02  0.37867009298E+03  0.41342673326E+03  0.91651422993E+02 0.  0.
         23    2    1    2    0    0 -0.14670655686E+03 -0.70087080376E+01  0.72156625317E+02  0.18738423882E+03  0.91292598647E+02 0.  0.
        -13    1    4    4    0    0 -0.64084629080E+02 -0.48368042706E+02  0.38576276819E+02  0.89075453256E+02  0.00000000000E+00 0. -1.
         13    1    4    4    0    0 -0.82621927775E+02  0.41359334668E+02  0.33580348498E+02  0.98308785562E+02  0.00000000000E+00 0.  1.
        -13    1    3    3    0    0  0.45084952324E+02  0.31008997898E+02  0.18044692076E+03  0.18856113621E+03  0.00000000000E+00 0.  1.
         13    1    3    3    0    0  0.91261377332E+02 -0.54253771651E+02  0.19822317222E+03  0.22486559705E+03  0.00000000000E+00 0. -1.
          1    1    1    2  501    0  0.10360227199E+02  0.30253481790E+02  0.37365431523E+02  0.49181123828E+02  0.00000000000E+00 0. -1.
<scales pt_clust_5="13000.00000" pt_clust_6="13000.00000" pt_clust_7="13000.00000" pt_clust_8="13000.00000" pt_clust_9="31.97825"></scales>
<clustering>
<clus scale="   31.978">  2  9  1 -1</clus>
<clus scale="   91.293">  5  6 -1 -1</clus>
<clus scale="   91.651">  7  8 -1 -1</clus>
<clus scale="  166.879">  2  5  1 -1</clus>
<clus scale="   31.978">  2  5  1 -1</clus>
</clustering>
</event>
<event>
 9    1  0.1399746E-005  0.1348390E+03  0.7546771E-02  0.1220464E+00
          2   -1    0    0  502    0 -0.00000000000E+00  0.00000000000E+00  0.42738684479E+03  0.42738684479E+03  0.00000000000E+00 0. -1.
         21   -1    0    0  501  502  0.00000000000E+00 -0.00000000000E+00 -0.20629339010E+03  0.20629339010E+03  0.00000000000E+00 0.  1.
         23    2    1    2    0    0 -0.43580438318E+02  0.90050905799E+02  0.38676060027E+03  0.40980862729E+03  0.91383416629E+02 0.  0.
         23    2    1    2    0    0  0.20883251058E+02 -0.85287982604E+02 -0.13234141893E+03  0.18327047703E+03  0.91453083251E+02 0.  0.
        -11    1    3    3    0    0  0.78840837851E+00  0.64159587809E+02  0.31552035231E+03  0.32197851949E+03  0.00000000000E+00 0. -1.
         11    1    3    3    0    0 -0.44368846697E+02  0.25891317989E+02  0.71240247969E+02  0.87830107794E+02  0.00000000000E+00 0.  1.
        -13    1    4    4    0    0 -0.14508807357E+02 -0.60281413281E+02 -0.12470406021E+03  0.13926757308E+03  0.00000000000E+00 0. -1.
         13    1    4    4    0    0  0.35392058415E+02 -0.25006569323E+02 -0.76373587166E+01  0.44002903953E+02  0.00000000000E+00 0.  1.
          2    1    1    2  501    0  0.22697187260E+02 -0.47629231949E+01 -0.33325726656E+02  0.40601130576E+02  0.00000000000E+00 0. -1.
<scales pt_clust_5="13000.00000" pt_clust_6="13000.00000" pt_clust_7="13000.00000" pt_clust_8="13000.00000" pt_clust_9="23.19154"></scales>
<clustering>
<clus scale="   23.192">  2  9  1 -1</clus>
<clus scale="   91.383">  5  6 -1 -1</clus>
<clus scale="   91.453">  7  8 -1 -1</clus>
<clus scale="  134.792">  1  5  2 -1</clus>
<clus scale="   23.192">  2  5  1 -1</clus>
</clustering>
</event>
<event>
 9    1  0.1399746E-005  0.1004963E+03  0.7546771E-02  0.1279673E+00
         -1   -1    0    0    0  501 -0.00000000000E+00  0.00000000000E+00  0.72837600967E+02  0.72837600967E+02  0.00000000000E+00 0.  1.
         21   -1    0    0  501  502  0.00000000000E+00 -0.00000000000E+00 -0.44466513255E+03  0.44466513255E+03  0.00000000000E+00 0. -1.
         23    2    1    2    0    0  0.16286597762E+02  0.34072382700E+02  0.20426526909E+02  0.10219080383E+03  0.92733687816E+02 0.  0.
         23    2    1    2    0    0 -0.43304612814E+02 -0.28138522652E+02 -0.26716784039E+03  0.28720359354E+03  0.91870469979E+02 0.  0.
        -11    1    4    4    0    0 -0.91774426696E+01  0.27362562999E+02 -0.31619581408E+02  0.42810433731E+02  0.00000000000E+00 0.  1.
         11    1    4    4    0    0 -0.34127170144E+02 -0.55501085651E+02 -0.23554825898E+03  0.24439315981E+03  0.00000000000E+00 0. -1.
        -13    1    3    3    0    0 -0.16720041208E+02 -0.26065451049E+02  0.13908058437E+01  0.30998417012E+02  0.00000000000E+00 0. -1.
         13    1    3    3    0    0  0.33006638970E+02  0.60137833749E+02  0.19035721065E+02  0.71192386816E+02  0.00000000000E+00 0.  1.
         -1    1    1    2    0  502  0.27018015052E+02 -0.59338600487E+01 -0.12508621810E+03  0.12810833615E+03  0.00000000000E+00 0.  1.
<scales pt_clust_5="13000.00000" pt_clust_6="13000.00000" pt_clust_7="13000.00000" pt_clust_8="13000.00000" pt_clust_9="27.66196"></scales>
<clustering>
<clus scale="   27.662">  2  9  1 -1</clus>
<clus scale="   91.870">  5  6 -1 -1</clus>
<clus scale="   92.734">  7  8 -1 -1</clus>
<clus scale="   99.700">  2  5  1 -1</clus>
<clus scale="   27.662">  2  5  1 -1</clus>
</clustering>
</event>
<event>
 9    1  0.1399746E-005  0.1094113E+03  0.7546771E-02  0.1262777E+00
         21   -1    0    0  501  502  0.00000000000E+00  0.00000000000E+00  0.29850703758E+02  0.29850703758E+02  0.00000000000E+00 0.  1.
          1   -1    0    0  502    0 -0.00000000000E+00 -0.00000000000E+00 -0.67265204208E+03  0.67265204208E+03  0.00000000000E+00 0. -1.
         23    2    1    2    0    0  0.51276068309E+02 -0.36454463917E+02 -0.44625469737E+03  0.46038003889E+03  0.94065733242E+02 0.  0.
         23    2    1    2    0    0 -0.46635613336E+02  0.39114922087E+01 -0.17486100518E+03  0.20274192954E+03  0.91311218691E+02 0.  0.
        -11    1    4    4    0    0 -0.66388096874E+02  0.26213821481E+02 -0.10690866836E+03  0.12854573978E+03  0.00000000000E+00 0.  1.
         11    1    4    4    0    0  0.19752483538E+02 -0.22302329272E+02 -0.67952336811E+02  0.74196189760E+02  0.00000000000E+00 0. -1.
        -11    1    3    3    0    0  0.47008030143E+02  0.17455764174E+02 -0.12635140179E+03  0.13593798341E+03  0.00000000000E+00 0. -1.
         11    1    3    3    0    0  0.42680381652E+01 -0.53910228091E+02 -0.31990329558E+03  0.32444205548E+03  0.00000000000E+00 0.  1.
          1    1    1    2  501    0 -0.46404549722E+01  0.32542971708E+02 -0.21685635779E+02  0.39380777406E+02  0.00000000000E+00 0. -1.
<scales pt_clust_5="13000.00000" pt_clust_6="13000.00000" pt_clust_7="13000.00000" pt_clust_8="13000.00000" pt_clust_9="32.87216"></scales>
<clustering>
<clus scale="   32.872">  1  9  2 -1</clus>
<clus scale="   91.311">  5  6 -1 -1</clus>
<clus scale="   94.066">  7  8 -1 -1</clus>
<clus scale="  107.052">  1  5  2 -1</clus>
<clus scale="   32.872">  1  5  2 -1</clus>
</clustering>
</event>
<event>
 9    1  0.1399746E-005  0.4026393E+03  0.7546771E-02  0.1042882E+00
         21   -1    0    0  501  502  0.00000000000E+00  0.00000000000E+00  0.12171365638E+03  0.12171365638E+03  0.00000000000E+00 0. -1.
          1   -1    0    0  502    0 -0.00000000000E+00 -0.00000000000E+00 -0.22147312530E+04  0.22147312530E+04  0.00000000000E+00 0. -1.
         23    2    1    2    0    0  0.27393797601E+03 -0.22781620835E+03 -0.92350029788E+03  0.99404506397E+03  0.91271844123E+02 0.  0.
         23    2    1    2    0    0 -0.29658556701E+03  0.31900030071E+03 -0.11664281955E+04  0.12483945549E+04  0.90609265740E+02 0.  0.
        -11    1    3    3    0    0  0.41487318315E+02 -0.85026290759E+02 -0.25807767102E+03  0.27487224665E+03  0.00000000000E+00 0.  1.
         11    1    3    3    0    0  0.23245065770E+03 -0.14278991759E+03 -0.66542262687E+03  0.71917281732E+03  0.00000000000E+00 0. -1.
        -13    1    4    4    0    0 -0.37376589443E+02  0.94605364079E+02 -0.28763525286E+03  0.30509215499E+03  0.00000000000E+00 0.  1.
         13    1    4    4    0    0 -0.25920897757E+03  0.22439493663E+03 -0.87879294265E+03  0.94330239991E+03  0.00000000000E+00 0. -1.
          1    1    1    2  501    0  0.22647591003E+02 -0.91184092358E+02 -0.30891031955E+01  0.94005290468E+02  0.00000000000E+00 0. -1.
<scales pt_clust_5="13000.00000" pt_clust_6="13000.00000" pt_clust_7="13000.00000" pt_clust_8="13000.00000" pt_clust_9="93.95452"></scales>
<clustering>
<clus scale="   90.609">  7  8 -1 -1</clus>
<clus scale="   91.272">  5  6 -1 -1</clus>
<clus scale="   93.955">  1  9  2 -1</clus>
<clus scale="  402.490">  1  7  2 -1</clus>
<clus scale="   93.955">  1  5  2 -1</clus>
</clustering>
</event>
<event>
 9    1  0.1399746E-005  0.1087204E+03  0.7546771E-02  0.1264088E+00
          1   -1    0    0  502    0 -0.00000000000E+00  0.00000000000E+00  0.28992769406E+03  0.28992769406E+03  0.00000000000E+00 0. -1.
         21   -1    0    0  501  502  0.00000000000E+00 -0.00000000000E+00 -0.12466496228E+03  0.12466496228E+03  0.00000000000E+00 0. -1.
         23    2    1    2    0    0  0.49097084855E+02 -0.35420482014E+02  0.20239670604E+03  0.22993586452E+03  0.90779628161E+02 0.  0.
         23    2    1    2    0    0 -0.60950920817E+01  0.21479874838E+02 -0.77913475404E+02  0.12377592762E+03  0.93549107099E+02 0.  0.
        -11    1    4    4    0    0  0.36232344550E+02  0.29832459427E+01 -0.67129118730E+02  0.76341346133E+02  0.00000000000E+00 0. -1.
         11    1    4    4    0    0 -0.42327436632E+02  0.18496628896E+02 -0.10784356675E+02  0.47434581491E+02  0.00000000000E+00 0.  1.
        -13    1    3    3    0    0  0.30926102332E+02 -0.65727625152E+02  0.15099753003E+03  0.16756132784E+03  0.00000000000E+00 0. -1.
         13    1    3    3    0    0  0.18170982523E+02  0.30307143137E+02  0.51399176008E+02  0.62374536674E+02  0.00000000000E+00 0.  1.
          1    1    1    2  501    0 -0.43001992773E+02  0.13940607176E+02  0.40779501149E+02  0.60880864193E+02  0.00000000000E+00 0. -1.
<scales pt_clust_5="13000.00000" pt_clust_6="13000.00000" pt_clust_7="13000.00000" pt_clust_8="13000.00000" pt_clust_9="45.20524"></scales>
<clustering>
<clus scale="   45.205">  2  9  1 -1</clus>
<clus scale="   90.780">  7  8 -1 -1</clus>
<clus scale="   93.549">  5  6 -1 -1</clus>
<clus scale="  106.347">  1  7  2 -1</clus>
<clus scale="   45.205">  2  5  1 -1</clus>
</clustering>
</event>
<event>
 9    1  0.1399746E-005  0.1252915E+03  0.7546771E-02  0.1238118E+00
         -1   -1    0    0    0  501 -0.00000000000E+00  0.00000000000E+00  0.24037485340E+03  0.24037485340E+03  0.00000000000E+00 0.  1.
         21   -1    0    0  501  502  0.00000000000E+00 -0.00000000000E+00 -0.30110575441E+03  0.30110575441E+03  0.00000000000E+00 0.  1.
         23    2    1    2    0    0  0.76145307249E+02  0.21026419772E+02  0.12499262083E+03  0.17402562679E+03  0.91768978280E+02 0.  0.
         23    2    1    2    0    0 -0.10794626452E+03  0.49061038555E+02  0.23337494358E+02  0.14467692736E+03  0.79544912713E+02 0.  0.
        -13    1    3    3    0    0  0.35561232023E+02  0.21027271463E+02  0.12684113188E+03  0.13339947566E+03  0.00000000000E+00 0.  1.
         13    1    3    3    0    0  0.40584075226E+02 -0.85169077867E-03 -0.18485110592E+01  0.40626151132E+02  0.00000000000E+00 0. -1.
        -13    1    4    4    0    0 -0.93907312096E+02  0.49137530835E+01  0.30001680732E+01  0.94083628984E+02  0.00000000000E+00 0. -1.
         13    1    4    4    0    0 -0.14038952423E+02  0.44147285472E+02  0.20337326285E+02  0.50593298371E+02  0.00000000000E+00 0.  1.
         -1    1    1    2    0  502  0.31800957269E+02 -0.70087458327E+02 -0.20906101620E+03  0.22277805366E+03  0.00000000000E+00 0.  1.
<scales pt_clust_5="13000.00000" pt_clust_6="13000.00000" pt_clust_7="13000.00000" pt_clust_8="13000.00000" pt_clust_9="76.96462"></scales>
<clustering>
<clus scale="   76.965">  2  9  1 -1</clus>
<clus scale="   79.545">  7  8 -1 -1</clus>
<clus scale="   91.769">  5  6 -1 -1</clus>
<clus scale="  116.635">  2  7  1 -1</clus>
<clus scale="   76.965">  2  5  1 -1</clus>
</clustering>
</event>
<event>
 9    1  0.1399746E-005  0.1232427E+03  0.7546771E-02  0.1238026E+00
         21   -1    0    0  501  502  0.00000000000E+00  0.00000000000E+00  0.17468530938E+03  0.17468530938E+03  0.00000000000E+00 0. -1.
          1   -1    0    0  502    0 -0.00000000000E+00 -0.00000000000E+00 -0.67945122571E+03  0.67945122571E+03  0.00000000000E+00 0. -1.
         23    2    1    2    0    0  0.52503796171E+02 -0.51574268534E+02 -0.45713199027E+03  0.47188754527E+03  0.91058470630E+02 0.  0.
         23    2    1    2    0    0 -0.15351855094E+03  0.21474480043E+02 -0.15069977652E+03  0.23482935924E+03  0.91680458906E+02 0.  0.
        -13    1    3    3    0    0 -0.22863063113E+02 -0.27840762824E+02 -0.10530339438E+03  0.11129524966E+03  0.00000000000E+00 0.  1.
         13    1    3    3    0    0  0.75366859284E+02 -0.23733505709E+02 -0.35182859588E+03  0.36059229561E+03  0.00000000000E+00 0. -1.
        -13    1    4    4    0    0 -0.49484960125E+02 -0.41298975659E+01  0.32944882567E+00  0.49658089663E+02  0.00000000000E+00 0.  1.
         13    1    4    4    0    0 -0.10403359081E+03  0.25604377609E+02 -0.15102922534E+03  0.18517126958E+03  0.00000000000E+00 0. -1.
          1    1    1    2  501    0  0.10101475476E+03  0.30099788490E+02  0.10306585045E+03  0.14741963057E+03  0.00000000000E+00 0. -1.
<scales pt_clust_5="13000.00000" pt_clust_6="13000.00000" pt_clust_7="13000.00000" pt_clust_8="13000.00000" pt_clust_9="105.40388"></scales>
<clustering>
<clus scale="   91.058">  5  6 -1 -1</clus>
<clus scale="   91.680">  7  8 -1 -1</clus>
<clus scale="  105.404">  1  9  2 -1</clus>
<clus scale="  122.781">  2  5  1 -1</clus>
<clus scale="  105.404">  1  5  2 -1</clus>
</clustering>
</event>
<event>
 9    1  0.1399746E-005  0.1362725E+03  0.7546771E-02  0.1228496E+00
         21   -1    0    0  501  502  0.00000000000E+00  0.00000000000E+00  0.13592997047E+03  0.13592997047E+03  0.00000000000E+00 0. -1.
          2   -1    0    0  502    0 -0.00000000000E+00 -0.00000000000E+00 -0.41518111452E+03  0.41518111452E+03  0.00000000000E+00 0. -1.
         23    2    1    2    0    0 -0.59393197718E+02 -0.19533776095E+02 -0.16562520571E+03  0.19907840532E+03  0.91057028033E+02 0.  0.
         23    2    1    2    0    0  0.35020769003E+02 -0.93599490909E+02  0.55613772923E+02  0.14700772692E+03  0.92363743295E+02 0.  0.
        -11    1    4    4    0    0 -0.18247039383E+02 -0.66680422674E+02  0.59930394299E+01  0.69391279969E+02  0.00000000000E+00 0.  1.
         11    1    4    4    0    0  0.53267808385E+02 -0.26919068236E+02  0.49620733493E+02  0.77616446950E+02  0.00000000000E+00 0. -1.
        -13    1    3    3    0    0 -0.75999296048E+01 -0.42347042472E+02 -0.30963320474E+02  0.53007151885E+02  0.00000000000E+00 0.  1.
         13    1    3    3    0    0 -0.51793268114E+02  0.22813266377E+02 -0.13466188524E+03  0.14607125344E+03  0.00000000000E+00 0. -1.
          2    1    1    2  501    0  0.24372428716E+02  0.11313326700E+03 -0.16923971125E+03  0.20502495275E+03  0.00000000000E+00 0. -1.
<scales pt_clust_5="13000.00000" pt_clust_6="13000.00000" pt_clust_7="13000.00000" pt_clust_8="13000.00000" pt_clust_9="100.19548"></scales>
<clustering>
<clus scale="   91.057">  7  8 -1 -1</clus>
<clus scale="   92.364">  5  6 -1 -1</clus>
<clus scale="  110.456">  2  7  1 -1</clus>
<clus scale="  100.195">  1  9  2 -1</clus>
<clus scale="  100.195">  1  5  2 -1</clus>
</clustering>
</event>
<event>
 9    1  0.1399746E-005  0.1450938E+03  0.7546771E-02  0.1206659E+00
         21   -1    0    0  501  502  0.00000000000E+00  0.00000000000E+00  0.32737803100E+03  0.32737803100E+03  0.00000000000E+00 0. -1.
          1   -1    0    0  502    0 -0.00000000000E+00 -0.00000000000E+00 -0.37903744225E+03  0.37903744225E+03  0.00000000000E+00 0. -1.
         23    2    1    2    0    0 -0.63484305549E+02  0.98764366453E+02 -0.29721114550E+03  0.33251164494E+03  0.91895984003E+02 0.  0.
         23    2    1    2    0    0  0.69638805280E+02 -0.63672859575E+02  0.62287932613E+01  0.13194357991E+03  0.92013662929E+02 0.  0.
        -13    1    3    3    0    0 -0.30915386601E+02  0.76622333496E+02 -0.27532638772E+03  0.28745671481E+03  0.00000000000E+00 0. -1.
         13    1    3    3    0    0 -0.32568918948E+02  0.22142032957E+02 -0.21884757784E+02  0.45054930121E+02  0.00000000000E+00 0.  1.
        -13    1    4    4    0    0  0.88492275928E+02 -0.45728621895E+02  0.21308575486E+02  0.10186287424E+03  0.00000000000E+00 0.  1.
         13    1    4    4    0    0 -0.18853470648E+02 -0.17944237680E+02 -0.15079782225E+02  0.30080705665E+02  0.00000000000E+00 0. -1.
          1    1    1    2  501    0 -0.61544997317E+01 -0.35091506878E+02  0.23932294099E+03  0.24196024840E+03  0.00000000000E+00 0. -1.
<scales pt_clust_5="13000.00000" pt_clust_6="13000.00000" pt_clust_7="13000.00000" pt_clust_8="13000.00000" pt_clust_9="35.62712"></scales>
<clustering>
<clus scale="   35.627">  1  9  2 -1</clus>
<clus scale="   91.896">  5  6 -1 -1</clus>
<clus scale="   92.014">  7  8 -1 -1</clus>
<clus scale="  145.019">  2  5  1 -1</clus>
<clus scale="   35.627">  1  5  2 -1</clus>
</clustering>
</event>
<event>
 9    1  0.1428466E-005  0.1030226E+03  0.7546771E-02  0.1277336E+00
         -3   -1    0    0    0  501 -0.00000000000E+00  0.00000000000E+00  0.14959067469E+03  0.14959067469E+03  0.00000000000E+00 0.  1.
         21   -1    0    0  501  502  0.00000000000E+00 -0.00000000000E+00 -0.36152817460E+03  0.36152817460E+03  0.00000000000E+00 0.  1.
         23    2    1    2    0    0  0.62905107959E+02  0.42358284102E+01  0.94862382187E+02  0.14592061566E+03  0.91208331150E+02 0.  0.
         23    2    1    2    0    0 -0.67464739932E+01  0.12645476747E+02 -0.44064108187E+02  0.95997829605E+02  0.84074459053E+02 0.  0.
        -11    1    3    3    0    0  0.23063653890E+02 -0.33314690335E+02  0.79220837377E+02  0.88981693609E+02  0.00000000000E+00 0.  1.
         11    1    3    3    0    0  0.39841454069E+02  0.37550518746E+02  0.15641544810E+02  0.56938922052E+02  0.00000000000E+00 0. -1.
        -13    1    4    4    0    0 -0.35914113149E+02 -0.18683901899E+02 -0.11119614809E+02  0.41982824428E+02  0.00000000000E+00 0. -1.
         13    1    4    4    0    0  0.29167639156E+02  0.31329378647E+02 -0.32944493378E+02  0.54015005177E+02  0.00000000000E+00 0.  1.
         -3    1    1    2    0  502 -0.56158633966E+02 -0.16881305158E+02 -0.26273577391E+03  0.26920040402E+03  0.00000000000E+00 0.  1.
<scales pt_clust_5="13000.00000" pt_clust_6="13000.00000" pt_clust_7="13000.00000" pt_clust_8="13000.00000" pt_clust_9="58.64103"></scales>
<clustering>
<clus scale="   58.641">  2  9  1 -1</clus>
<clus scale="   84.074">  7  8 -1 -1</clus>
<clus scale="   91.208">  5  6 -1 -1</clus>
<clus scale="   96.764">  2  7  1 -1</clus>
<clus scale="   58.641">  2  5  1 -1</clus>
</clustering>
</event>
<event>
 9    1  0.1399746E-005  0.1105392E+03  0.7546771E-02  0.1262773E+00
          1   -1    0    0  502    0 -0.00000000000E+00  0.00000000000E+00  0.15197243158E+03  0.15197243158E+03  0.00000000000E+00 0. -1.
         21   -1    0    0  501  502  0.00000000000E+00 -0.00000000000E+00 -0.14877392590E+03  0.14877392590E+03  0.00000000000E+00 0.  1.
         23    2    1    2    0    0 -0.80841264968E+02  0.26041934664E+02  0.48070258868E+02  0.12765662993E+03  0.82291997752E+02 0.  0.
         23    2    1    2    0    0  0.13447123420E+02 -0.26610962141E+02 -0.45480808681E+02  0.10569043189E+03  0.90625575867E+02 0.  0.
        -11    1    4    4    0    0  0.30462488467E+02  0.14607156315E+02 -0.50561819054E+02  0.60809783467E+02  0.00000000000E+00 0. -1.
         11    1    4    4    0    0 -0.17015365047E+02 -0.41218118457E+02  0.50810103734E+01  0.44880648427E+02  0.00000000000E+00 0.  1.
        -11    1    3    3    0    0 -0.46098119023E+02  0.54352566262E+02  0.41186682004E+02  0.82313916267E+02  0.00000000000E+00 0. -1.
         11    1    3    3    0    0 -0.34743145945E+02 -0.28310631598E+02  0.68835768633E+01  0.45342713660E+02  0.00000000000E+00 0.  1.
          1    1    1    2  501    0  0.67394141548E+02  0.56902747672E+00  0.60905549226E+00  0.67399295663E+02  0.00000000000E+00 0. -1.
<scales pt_clust_5="13000.00000" pt_clust_6="13000.00000" pt_clust_7="13000.00000" pt_clust_8="13000.00000" pt_clust_9="67.39654"></scales>
<clustering>
<clus scale="   67.397">  2  9  1 -1</clus>
<clus scale="   82.292">  7  8 -1 -1</clus>
<clus scale="   90.626">  5  6 -1 -1</clus>
<clus scale="  103.817">  1  7  2 -1</clus>
<clus scale="   67.397">  2  5  1 -1</clus>
</clustering>
</event>
<event>
 9    1  0.2763506E-005  0.9191518E+02  0.7546771E-02  0.1298355E+00
         21   -1    0    0  501  502  0.00000000000E+00  0.00000000000E+00  0.29789335265E+03  0.29789335265E+03  0.00000000000E+00 0.  1.
         -4   -1    0    0    0  501 -0.00000000000E+00 -0.00000000000E+00 -0.16358748810E+03  0.16358748810E+03  0.00000000000E+00 0.  1.
         23    2    1    2    0    0  0.65512126605E+01 -0.14714949326E+02 -0.11511329542E+03  0.14797543086E+03  0.91576248193E+02 0.  0.
         23    2    1    2    0    0  0.19051003556E+02 -0.28514073561E+02  0.53728291817E+02  0.11146794364E+03  0.91446049616E+02 0.  0.
        -13    1    3    3    0    0  0.35751547044E+02 -0.36299361284E+02 -0.91293427250E+02  0.10454810665E+03  0.00000000000E+00 0.  1.
         13    1    3    3    0    0 -0.29200334384E+02  0.21584411958E+02 -0.23819868172E+02  0.43427324203E+02  0.00000000000E+00 0. -1.
        -13    1    4    4    0    0 -0.29373479192E+01 -0.57761399869E+02  0.18623458312E+02  0.60760517832E+02  0.00000000000E+00 0.  1.
         13    1    4    4    0    0  0.21988351475E+02  0.29247326309E+02  0.35104833505E+02  0.50707425809E+02  0.00000000000E+00 0. -1.
         -4    1    1    2    0  502 -0.25602216216E+02  0.43229022887E+02  0.19569086815E+03  0.20203746626E+03  0.00000000000E+00 0.  1.
<scales pt_clust_5="13000.00000" pt_clust_6="13000.00000" pt_clust_7="13000.00000" pt_clust_8="13000.00000" pt_clust_9="50.24164"></scales>
<clustering>
<clus scale="   50.242">  1  9  2 -1</clus>
<clus scale="   91.446">  7  8 -1 -1</clus>
<clus scale="   91.576">  5  6 -1 -1</clus>
<clus scale="   91.785">  1  7  2 -1</clus>
<clus scale="   50.242">  1  5  2 -1</clus>
</clustering>
</event>
<event>
 9    1  0.1399746E-005  0.1210002E+03  0.7546771E-02  0.1242798E+00
          1   -1    0    0  502    0 -0.00000000000E+00  0.00000000000E+00  0.24722811998E+03  0.24722811998E+03  0.00000000000E+00 0. -1.
         21   -1    0    0  501  502  0.00000000000E+00 -0.00000000000E+00 -0.10454791363E+03  0.10454791363E+03  0.00000000000E+00 0.  1.
         23    2    1    2    0    0  0.67499440374E+02  0.13735562075E+02  0.11755357506E+03  0.16440898213E+03  0.92014293882E+02 0.  0.
         23    2    1    2    0    0 -0.89168467176E+02 -0.69064774789E+01 -0.23786285161E+02  0.13343508957E+03  0.96127107508E+02 0.  0.
        -11    1    3    3    0    0  0.18832254398E+02 -0.24983435512E+02 -0.14912950734E+00  0.31286548152E+02  0.00000000000E+00 0. -1.
         11    1    3    3    0    0  0.48667185976E+02  0.38718997587E+02  0.11770270457E+03  0.13312243398E+03  0.00000000000E+00 0.  1.
        -11    1    4    4    0    0 -0.34820793231E+02  0.10676531089E+02 -0.56789565325E+02  0.67465033070E+02  0.00000000000E+00 0.  1.
         11    1    4    4    0    0 -0.54347673944E+02 -0.17583008568E+02  0.33003280164E+02  0.65970056503E+02  0.00000000000E+00 0. -1.
          1    1    1    2  501    0  0.21669026802E+02 -0.68290845966E+01  0.48912916453E+02  0.53931961905E+02  0.00000000000E+00 0. -1.
<scales pt_clust_5="13000.00000" pt_clust_6="13000.00000" pt_clust_7="13000.00000" pt_clust_8="13000.00000" pt_clust_9="22.71968"></scales>
<clustering>
<clus scale="   22.720">  2  9  1 -1</clus>
<clus scale="   92.014">  5  6 -1 -1</clus>
<clus scale="   96.127">  7  8 -1 -1</clus>
<clus scale="  117.759">  1  5  2 -1</clus>
<clus scale="   22.720">  2  5  1 -1</clus>
</clustering>
</event>
<event>
 9    1  0.1399746E-005  0.9358241E+02  0.7546771E-02  0.1296568E+00
         21   -1    0    0  501  502  0.00000000000E+00  0.00000000000E+00  0.45827283403E+02  0.45827283403E+02  0.00000000000E+00 0.  1.
          4   -1    0    0  502    0 -0.00000000000E+00 -0.00000000000E+00 -0.36232832905E+03  0.36232832905E+03  0.00000000000E+00 0. -1.
         23    2    1    2    0    0  0.13373064704E+02  0.12205334508E+02 -0.18487580247E+03  0.20710834789E+03  0.91580545851E+02 0.  0.
         23    2    1    2    0    0  0.18256844227E+02 -0.28581983790E+02 -0.13574994115E+03  0.16519117840E+03  0.87805676027E+02 0.  0.
        -11    1    3    3    0    0  0.94872416187E+01 -0.39545122833E+02 -0.68069484326E+02  0.79292365268E+02  0.00000000000E+00 0. -1.
         11    1    3    3    0    0  0.38858230857E+01  0.51750457342E+02 -0.11680631814E+03  0.12781598263E+03  0.00000000000E+00 0.  1.
        -13    1    4    4    0    0  0.49222840148E+02 -0.28104114377E+02 -0.11410413413E+03  0.12740676067E+03  0.00000000000E+00 0.  1.
         13    1    4    4    0    0 -0.30965995921E+02 -0.47786941375E+00 -0.21645807016E+02  0.37784417739E+02  0.00000000000E+00 0. -1.
          4    1    1    2  501    0 -0.31629908931E+02  0.16376649282E+02  0.41246979738E+01  0.35856086151E+02  0.00000000000E+00 0. -1.
<scales pt_clust_5="13000.00000" pt_clust_6="13000.00000" pt_clust_7="13000.00000" pt_clust_8="13000.00000" pt_clust_9="35.61805"></scales>
<clustering>
<clus scale="   35.618">  1  9  2 -1</clus>
<clus scale="   87.806">  7  8 -1 -1</clus>
<clus scale="   89.892">  1  7  2 -1</clus>
<clus scale="   91.581">  5  6 -1 -1</clus>
<clus scale="   35.618">  1  5  2 -1</clus>
</clustering>
</event>
<event>
 9    1  0.1399746E-005  0.9600442E+02  0.7546771E-02  0.1289580E+00
         21   -1    0    0  501  502  0.00000000000E+00  0.00000000000E+00  0.36531182996E+03  0.36531182996E+03  0.00000000000E+00 0. -1.
          1   -1    0    0  502    0 -0.00000000000E+00 -0.00000000000E+00 -0.63297911001E+02  0.63297911001E+02  0.00000000000E+00 0. -1.
         23    2    1    2    0    0  0.49775334012E+02  0.19620937668E+02  0.49716929312E+02  0.11841449841E+03  0.93207592518E+02 0.  0.
         23    2    1    2    0    0  0.91123205325E+01  0.34320878606E+01  0.66528926097E+02  0.11395821424E+03  0.92008494026E+02 0.  0.
        -11    1    4    4    0    0  0.63240456282E+01  0.24291002829E+02  0.83330847779E+02  0.87029170760E+02  0.00000000000E+00 0.  1.
         11    1    4    4    0    0  0.27882749043E+01 -0.20858914968E+02 -0.16801921682E+02  0.26929043481E+02  0.00000000000E+00 0. -1.
        -11    1    3    3    0    0  0.23260109646E+02  0.31561051236E+02  0.71862972467E+02  0.81862198038E+02  0.00000000000E+00 0. -1.
         11    1    3    3    0    0  0.26515224366E+02 -0.11940113568E+02 -0.22146043155E+02  0.36552300374E+02  0.00000000000E+00 0.  1.
          1    1    1    2  501    0 -0.58887654545E+02 -0.23053025529E+02  0.18576806355E+03  0.19623702831E+03  0.00000000000E+00 0. -1.
<scales pt_clust_5="13000.00000" pt_clust_6="13000.00000" pt_clust_7="13000.00000" pt_clust_8="13000.00000" pt_clust_9="63.23921"></scales>
<clustering>
<clus scale="   63.239">  1  9  2 -1</clus>
<clus scale="   92.008">  5  6 -1 -1</clus>
<clus scale="   93.208">  7  8 -1 -1</clus>
<clus scale="   94.841">  1  5  2 -1</clus>
<clus scale="   63.239">  1  5  2 -1</clus>
</clustering>
</event>
<event>
 9    1  0.1399746E-005  0.1634757E+03  0.7546771E-02  0.1185570E+00
         21   -1    0    0  501  502  0.00000000000E+00  0.00000000000E+00  0.33184307514E+02  0.33184307514E+02  0.00000000000E+00 0. -1.
          1   -1    0    0  502    0 -0.00000000000E+00 -0.00000000000E+00 -0.12436179238E+04  0.12436179238E+04  0.00000000000E+00 0. -1.
         23    2    1    2    0    0 -0.14959154116E+03 -0.11040454188E+02 -0.85126505031E+03  0.86972786711E+03  0.96306054468E+02 0.  0.
         23    2    1    2    0    0  0.10346090845E+03  0.29397579137E+01 -0.30853275007E+03  0.33809869889E+03  0.91681353442E+02 0.  0.
        -11    1    4    4    0    0  0.36515169792E+02 -0.28338680997E+02 -0.45404591583E+02  0.64792093672E+02  0.00000000000E+00 0. -1.
         11    1    4    4    0    0  0.66945738662E+02  0.31278438911E+02 -0.26312815849E+03  0.27330660521E+03  0.00000000000E+00 0.  1.
        -13    1    3    3    0    0 -0.69658178085E+02  0.42912944855E+02 -0.39049823611E+03  0.39897701064E+03  0.00000000000E+00 0.  1.
         13    1    3    3    0    0 -0.79933363078E+02 -0.53953399042E+02 -0.46076681420E+03  0.47075085647E+03  0.00000000000E+00 0. -1.
          1    1    1    2  501    0  0.46130632710E+02  0.81006962740E+01 -0.50635815922E+02  0.68975665335E+02  0.00000000000E+00 0. -1.
<scales pt_clust_5="13000.00000" pt_clust_6="13000.00000" pt_clust_7="13000.00000" pt_clust_8="13000.00000" pt_clust_9="46.83649"></scales>
<clustering>
<clus scale="   46.836">  1  9  2 -1</clus>
<clus scale="   91.681">  5  6 -1 -1</clus>
<clus scale="   96.306">  7  8 -1 -1</clus>
<clus scale="  160.795">  1  5  2 -1</clus>
<clus scale="   46.836">  1  5  2 -1</clus>
</clustering>
</event>
<event>
 9    1  0.1399746E-005  0.1238837E+03  0.7546771E-02  0.1242624E+00
         21   -1    0    0  501  502  0.00000000000E+00  0.00000000000E+00  0.83941742601E+02  0.83941742601E+02  0.00000000000E+00 0. -1.
          1   -1    0    0  502    0 -0.00000000000E+00 -0.00000000000E+00 -0.55861912517E+03  0.55861912517E+03  0.00000000000E+00 0. -1.
         23    2    1    2    0    0  0.57921632585E+02  0.22135166884E+02 -0.34365266855E+03  0.36051608675E+03  0.89609213084E+02 0.  0.
         23    2    1    2    0    0 -0.33200037596E+02 -0.85524335179E+02 -0.15580885066E+03  0.20963209329E+03  0.10607809477E+03 0.  0.
        -11    1    3    3    0    0 -0.22873765777E+02  0.14966492223E+02 -0.72091552378E+02  0.77099915529E+02  0.00000000000E+00 0.  1.
         11    1    3    3    0    0  0.80795398362E+02  0.71686746611E+01 -0.27156111617E+03  0.28341617122E+03  0.00000000000E+00 0. -1.
        -13    1    4    4    0    0  0.28795622329E+02 -0.32536768392E+02 -0.10477325866E+03  0.11342515106E+03  0.00000000000E+00 0. -1.
         13    1    4    4    0    0 -0.61995659926E+02 -0.52987566787E+02 -0.51035592005E+02  0.96206942238E+02  0.00000000000E+00 0.  1.
          1    1    1    2  501    0 -0.24721594989E+02  0.63389168294E+02  0.24784136636E+02  0.72412687732E+02  0.00000000000E+00 0. -1.
<scales pt_clust_5="13000.00000" pt_clust_6="13000.00000" pt_clust_7="13000.00000" pt_clust_8="13000.00000" pt_clust_9="68.03928"></scales>
<clustering>
<clus scale="   68.039">  1  9  2 -1</clus>
<clus scale="   89.609">  5  6 -1 -1</clus>
<clus scale="  106.078">  7  8 -1 -1</clus>
<clus scale="  110.111">  2  5  1 -1</clus>
<clus scale="   68.039">  1  5  2 -1</clus>
</clustering>
</event>
<event>
 9    1  0.1399746E-005  0.9519902E+02  0.7546771E-02  0.1291153E+00
          2   -1    0    0  502    0 -0.00000000000E+00  0.00000000000E+00  0.11056724995E+03  0.11056724995E+03  0.00000000000E+00 0. -1.
         21   -1    0    0  501  502  0.00000000000E+00 -0.00000000000E+00 -0.10591969848E+03  0.10591969848E+03  0.00000000000E+00 0.  1.
         23    2    1    2    0    0 -0.22880779068E+02  0.22064086085E+02  0.16817748173E+02  0.97595798140E+02  0.90728987735E+02 0.  0.
         23    2    1    2    0    0  0.10376691089E+01 -0.30090561391E+02 -0.73704372993E+01  0.95130185474E+02  0.89938368900E+02 0.  0.
        -11    1    3    3    0    0 -0.32116920501E+02 -0.29105397444E+02  0.13901052288E+02  0.45517688842E+02  0.00000000000E+00 0.  1.
         11    1    3    3    0    0  0.92361414329E+01  0.51169483529E+02  0.29166958858E+01  0.52078109298E+02  0.00000000000E+00 0. -1.
        -11    1    4    4    0    0  0.11999811693E+02  0.26647484625E+02  0.15381346684E+02  0.33025289451E+02  0.00000000000E+00 0. -1.
         11    1    4    4    0    0 -0.10962142584E+02 -0.56738046015E+02 -0.22751783983E+02  0.62104896024E+02  0.00000000000E+00 0.  1.
          2    1    1    2  501    0  0.21843109959E+02  0.80264753053E+01 -0.47997594130E+01  0.23760964815E+02  0.00000000000E+00 0. -1.
<scales pt_clust_5="13000.00000" pt_clust_6="13000.00000" pt_clust_7="13000.00000" pt_clust_8="13000.00000" pt_clust_9="23.27114"></scales>
<clustering>
<clus scale="   23.271">  2  9  1 -1</clus>
<clus scale="   89.938">  7  8 -1 -1</clus>
<clus scale="   90.729">  5  6 -1 -1</clus>
<clus scale="   94.446">  2  7  1 -1</clus>
<clus scale="   23.271">  2  5  1 -1</clus>
</clustering>
</event>
<event>
 9    1  0.1399746E-005  0.1466059E+03  0.7546771E-02  0.1210886E+00
         21   -1    0    0  501  502  0.00000000000E+00  0.00000000000E+00  0.15182402531E+03  0.15182402531E+03  0.00000000000E+00 0. -1.
          2   -1    0    0  502    0 -0.00000000000E+00 -0.00000000000E+00 -0.35757036702E+03  0.35757036702E+03  0.00000000000E+00 0. -1.
         23    2    1    2    0    0  0.41704891653E+02 -0.89978648541E+02 -0.21356372280E+03  0.25231040491E+03  0.90640065937E+02 0.  0.
         23    2    1    2    0    0 -0.26731378006E+02  0.69968180392E+02 -0.84700560999E+02  0.16124978396E+03  0.11496606002E+03 0.  0.
        -11    1    3    3    0    0  0.45033669371E+02 -0.12020757753E+01 -0.82020623425E+02  0.93578090546E+02  0.00000000000E+00 0.  1.
         11    1    3    3    0    0 -0.33287777178E+01 -0.88776572765E+02 -0.13154309937E+03  0.15873231437E+03  0.00000000000E+00 0. -1.
        -13    1    4    4    0    0  0.40217187219E+02  0.45731117607E+02 -0.61030622285E+02  0.86217713504E+02  0.00000000000E+00 0. -1.
         13    1    4    4    0    0 -0.66948565225E+02  0.24237062785E+02 -0.23669938714E+02  0.75032070455E+02  0.00000000000E+00 0.  1.
          2    1    1    2  501    0 -0.14973513647E+02  0.20010468149E+02  0.92517942081E+02  0.95834203463E+02  0.00000000000E+00 0. -1.
<scales pt_clust_5="13000.00000" pt_clust_6="13000.00000" pt_clust_7="13000.00000" pt_clust_8="13000.00000" pt_clust_9="24.99250"></scales>
<clustering>
<clus scale="   24.992">  1  9  2 -1</clus>
<clus scale="   90.640">  5  6 -1 -1</clus>
<clus scale="  114.966">  7  8 -1 -1</clus>
<clus scale="  128.420">  2  5  1 -1</clus>
<clus scale="   24.992">  1  5  2 -1</clus>
</clustering>
</event>
<event>
 9    1  0.1399746E-005  0.1952864E+03  0.7546771E-02  0.1168320E+00
          2   -1    0    0  502    0 -0.00000000000E+00  0.00000000000E+00  0.30277680360E+03  0.30277680360E+03  0.00000000000E+00 0. -1.
         21   -1    0    0  501  502  0.00000000000E+00 -0.00000000000E+00 -0.36645281806E+03  0.36645281806E+03  0.00000000000E+00 0. -1.
         23    2    1    2    0    0  0.10330862439E+03 -0.19271875789E+02  0.55535953071E+02  0.14995436524E+03  0.91422056979E+02 0.  0.
         23    2    1    2    0    0 -0.13080608359E+03 -0.15119328816E+03  0.99188444239E+02  0.24086329144E+03  0.90593243689E+02 0.  0.
        -11    1    4    4    0    0 -0.12140427381E+03 -0.97301991893E+02  0.40787525453E+02  0.16084246193E+03  0.00000000000E+00 0.  1.
         11    1    4    4    0    0 -0.94018097805E+01 -0.53891296272E+02  0.58400918786E+02  0.80020829513E+02  0.00000000000E+00 0. -1.
        -11    1    3    3    0    0 -0.84537768994E+01  0.19270389336E+02  0.94484206545E+01  0.23067008950E+02  0.00000000000E+00 0.  1.
         11    1    3    3    0    0  0.11176240129E+03 -0.38542265126E+02  0.46087532416E+02  0.12688735629E+03  0.00000000000E+00 0. -1.
          2    1    1    2  501    0  0.27497459202E+02  0.17046516395E+03 -0.21840041177E+03  0.27841196498E+03  0.00000000000E+00 0. -1.
<scales pt_clust_5="13000.00000" pt_clust_6="13000.00000" pt_clust_7="13000.00000" pt_clust_8="13000.00000" pt_clust_9="173.00188"></scales>
<clustering>
<clus scale="   90.593">  5  6 -1 -1</clus>
<clus scale="   91.422">  7  8 -1 -1</clus>
<clus scale="  139.291">  1  7  2 -1</clus>
<clus scale="  173.002">  2  9  1 -1</clus>
<clus scale="  173.002">  2  5  1 -1</clus>
</clustering>
</event>
<event>
 9    1  0.1399746E-005  0.1003899E+03  0.7546771E-02  0.1280149E+00
         21   -1    0    0  501  502  0.00000000000E+00  0.00000000000E+00  0.27271846886E+03  0.27271846886E+03  0.00000000000E+00 0. -1.
         -3   -1    0    0    0  501 -0.00000000000E+00 -0.00000000000E+00 -0.57128529783E+02  0.57128529783E+02  0.00000000000E+00 0.  1.
         23    2    1    2    0    0 -0.46353560701E+02 -0.74925400439E+01  0.32532524580E+02  0.10585170385E+03  0.89114686261E+02 0.  0.
         23    2    1    2    0    0  0.37846800774E+02 -0.11943289182E+02  0.10985248589E+03  0.14777798708E+03  0.90530339243E+02 0.  0.
        -13    1    4    4    0    0 -0.16315236911E+02 -0.35922667555E+02  0.39833770856E+02  0.56065624943E+02  0.00000000000E+00 0.  1.
         13    1    4    4    0    0  0.54162037685E+02  0.23979378372E+02  0.70018715032E+02  0.91712362133E+02  0.00000000000E+00 0. -1.
        -13    1    3    3    0    0 -0.12468421559E+01  0.22089560246E+02  0.45304712145E+02  0.50418451283E+02  0.00000000000E+00 0. -1.
         13    1    3    3    0    0 -0.45106718545E+02 -0.29582100290E+02 -0.12772187565E+02  0.55433252572E+02  0.00000000000E+00 0.  1.
         -3    1    1    2    0  502  0.85067599276E+01  0.19435829226E+02  0.73204928607E+02  0.76217307710E+02  0.00000000000E+00 0.  1.
<scales pt_clust_5="13000.00000" pt_clust_6="13000.00000" pt_clust_7="13000.00000" pt_clust_8="13000.00000" pt_clust_9="21.21595"></scales>
<clustering>
<clus scale="   21.216">  1  9  2 -1</clus>
<clus scale="   89.115">  7  8 -1 -1</clus>
<clus scale="   90.530">  5  6 -1 -1</clus>
<clus scale="   99.115">  2  7  1 -1</clus>
<clus scale="   21.216">  1  5  2 -1</clus>
</clustering>
</event>
<event>
 9    1  0.1399746E-005  0.1203450E+03  0.7546771E-02  0.1242865E+00
         21   -1    0    0  501  502  0.00000000000E+00  0.00000000000E+00  0.53204734944E+02  0.53204734944E+02  0.00000000000E+00 0.  1.
         -1   -1    0    0    0  501 -0.00000000000E+00 -0.00000000000E+00 -0.70903177629E+03  0.70903177629E+03  0.00000000000E+00 0.  1.
         23    2    1    2    0    0  0.88324049189E+01 -0.63055993272E+02 -0.40772888663E+03  0.42313559545E+03  0.93524421819E+02 0.  0.
         23    2    1    2    0    0 -0.43290614431E+02  0.91844828203E+02 -0.25816128870E+03  0.29308535445E+03  0.94563334563E+02 0.  0.
        -11    1    4    4    0    0  0.14850834630E+02  0.75086646643E+02 -0.16653717185E+03  0.18328442760E+03  0.00000000000E+00 0. -1.
         11    1    4    4    0    0 -0.58141449060E+02  0.16758181560E+02 -0.91624116852E+02  0.10980092685E+03  0.00000000000E+00 0.  1.
        -13    1    3    3    0    0 -0.34799771181E+02 -0.95006606841E+00 -0.17203342164E+03  0.17552044001E+03  0.00000000000E+00 0.  1.
         13    1    3    3    0    0  0.43632176100E+02 -0.62105927204E+02 -0.23569546499E+03  0.24761515544E+03  0.00000000000E+00 0. -1.
         -1    1    1    2    0  502  0.34458209512E+02 -0.28788834931E+02  0.10063133988E+02  0.46015561336E+02  0.00000000000E+00 0.  1.
<scales pt_clust_5="13000.00000" pt_clust_6="13000.00000" pt_clust_7="13000.00000" pt_clust_8="13000.00000" pt_clust_9="44.90173"></scales>
<clustering>
<clus scale="   44.902">  1  9  2 -1</clus>
<clus scale="   93.524">  7  8 -1 -1</clus>
<clus scale="   94.563">  5  6 -1 -1</clus>
<clus scale="  119.530">  2  7  1 -1</clus>
<clus scale="   44.902">  1  5  2 -1</clus>
</clustering>
</event>
<event>
 9    1  0.1399746E-005  0.9457095E+02  0.7546771E-02  0.1296298E+00
         21   -1    0    0  501  502  0.00000000000E+00  0.00000000000E+00  0.93934373331E+02  0.93934373331E+02  0.00000000000E+00 0. -1.
         -3   -1    0    0    0  501 -0.00000000000E+00 -0.00000000000E+00 -0.18469934118E+03  0.18469934118E+03  0.00000000000E+00 0.  1.
         23    2    1    2    0    0  0.25128227578E+02 -0.12673128849E+02 -0.92365274101E+02  0.12933953477E+03  0.86054258334E+02 0.  0.
         23    2    1    2    0    0  0.44813697086E+01 -0.26063785588E+02 -0.14480331961E+02  0.97953516354E+02  0.93197681080E+02 0.  0.
        -11    1    4    4    0    0  0.72284392435E+01 -0.61064707942E+02 -0.56406188295E+01  0.61749214332E+02  0.00000000000E+00 0.  1.
         11    1    4    4    0    0 -0.27470695349E+01  0.35000922353E+02 -0.88397131314E+01  0.36204302021E+02  0.00000000000E+00 0. -1.
        -11    1    3    3    0    0  0.56225671648E+02 -0.43489690416E+01 -0.71135951277E+02  0.90777548149E+02  0.00000000000E+00 0. -1.
         11    1    3    3    0    0 -0.31097444070E+02 -0.83241598069E+01 -0.21229322825E+02  0.38561986616E+02  0.00000000000E+00 0.  1.
         -3    1    1    2    0  502 -0.29609597287E+02  0.38736914437E+02  0.16080638217E+02  0.51340663387E+02  0.00000000000E+00 0.  1.
<scales pt_clust_5="13000.00000" pt_clust_6="13000.00000" pt_clust_7="13000.00000" pt_clust_8="13000.00000" pt_clust_9="48.75733"></scales>
<clustering>
<clus scale="   48.757">  1  9  2 -1</clus>
<clus scale="   86.054">  7  8 -1 -1</clus>
<clus scale="   87.540">  2  7  1 -1</clus>
<clus scale="   93.198">  5  6 -1 -1</clus>
<clus scale="   48.757">  1  5  2 -1</clus>
</clustering>
</event>
<event>
 9    1  0.1399746E-005  0.9406568E+02  0.7546771E-02  0.1294352E+00
         21   -1    0    0  501  502  0.00000000000E+00  0.00000000000E+00  0.60852416843E+02  0.60852416843E+02  0.00000000000E+00 0.  1.
          1   -1    0    0  502    0 -0.00000000000E+00 -0.00000000000E+00 -0.28483428241E+03  0.28483428241E+03  0.00000000000E+00 0. -1.
         23    2    1    2    0    0 -0.70961981141E+01  0.67804383238E+01 -0.12930359010E+03  0.15906902183E+03  0.92126027388E+02 0.  0.
         23    2    1    2    0    0  0.58112239385E+01 -0.30322984014E+02 -0.11915498075E+03  0.15263221408E+03  0.90252034064E+02 0.  0.
        -13    1    4    4    0    0  0.28341824416E+02 -0.51730685893E+02 -0.51999707251E+02  0.78633913984E+02  0.00000000000E+00 0.  1.
         13    1    4    4    0    0 -0.22530600477E+02  0.21407701879E+02 -0.67155273503E+02  0.73998300094E+02  0.00000000000E+00 0. -1.
        -13    1    3    3    0    0  0.14686328854E+02 -0.29179839548E+02 -0.10616927672E+03  0.11108135132E+03  0.00000000000E+00 0.  1.
         13    1    3    3    0    0 -0.21782526968E+02  0.35960277872E+02 -0.23134313378E+02  0.47987670513E+02  0.00000000000E+00 0. -1.
          1    1    1    2  501    0  0.12849741756E+01  0.23542545690E+02  0.24476705293E+02  0.33985463337E+02  0.00000000000E+00 0. -1.
<scales pt_clust_5="13000.00000" pt_clust_6="13000.00000" pt_clust_7="13000.00000" pt_clust_8="13000.00000" pt_clust_9="23.57759"></scales>
<clustering>
<clus scale="   23.578">  1  9  2 -1</clus>
<clus scale="   90.252">  5  6 -1 -1</clus>
<clus scale="   92.126">  7  8 -1 -1</clus>
<clus scale="   92.231">  1  5  2 -1</clus>
<clus scale="   23.578">  1  5  2 -1</clus>
</clustering>
</event>
<event>
 9    1  0.1399746E-005  0.9155128E+02  0.7546771E-02  0.1299620E+00
         -1   -1    0    0    0  501 -0.00000000000E+00  0.00000000000E+00  0.21601864295E+03  0.21601864295E+03  0.00000000000E+00 0.  1.
         21   -1    0    0  501  502  0.00000000000E+00 -0.00000000000E+00 -0.19012002304E+03  0.19012002304E+03  0.00000000000E+00 0.  1.
         23    2    1    2    0    0  0.99566011959E+01  0.23072357982E+01  0.87662302775E+02  0.12695029763E+03  0.91253720446E+02 0.  0.
         23    2    1    2    0    0  0.25158298054E+02  0.64959324404E+01  0.85743179166E+02  0.12730411550E+03  0.90439526477E+02 0.  0.
        -11    1    4    4    0    0  0.30961740821E+02 -0.25274692207E+02  0.86188500710E+02  0.95004721543E+02  0.00000000000E+00 0.  1.
         11    1    4    4    0    0 -0.58034427672E+01  0.31770624648E+02 -0.44532154356E+00  0.32299393953E+02  0.00000000000E+00 0. -1.
        -11    1    3    3    0    0  0.40851970058E+02 -0.13847463326E+02  0.13825928737E+02  0.45296710737E+02  0.00000000000E+00 0.  1.
         11    1    3    3    0    0 -0.30895368862E+02  0.16154699124E+02  0.73836374038E+02  0.81653586890E+02  0.00000000000E+00 0. -1.
         -1    1    1    2    0  502 -0.35114899250E+02 -0.88031682386E+01 -0.14750686204E+03  0.15188425287E+03  0.00000000000E+00 0.  1.
<scales pt_clust_5="13000.00000" pt_clust_6="13000.00000" pt_clust_7="13000.00000" pt_clust_8="13000.00000" pt_clust_9="36.20155"></scales>
<clustering>
<clus scale="   36.202">  2  9  1 -1</clus>
<clus scale="   90.440">  5  6 -1 -1</clus>
<clus scale="   90.740">  2  5  1 -1</clus>
<clus scale="   91.254">  7  8 -1 -1</clus>
<clus scale="   36.202">  2  5  1 -1</clus>
</clustering>
</event>
<event>
 9    1  0.1399746E-005  0.9175188E+02  0.7546771E-02  0.1300514E+00
         21   -1    0    0  501  502  0.00000000000E+00  0.00000000000E+00  0.24748793013E+02  0.24748793013E+02  0.00000000000E+00 0. -1.
         -2   -1    0    0    0  501 -0.00000000000E+00 -0.00000000000E+00 -0.56707733363E+03  0.56707733363E+03  0.00000000000E+00 0.  1.
         23    2    1    2    0    0  0.16120708325E+02 -0.12343738830E+02 -0.28643859854E+03  0.29963676049E+03  0.85573783215E+02 0.  0.
         23    2    1    2    0    0 -0.25256604279E+01  0.38319027587E+02 -0.12493600188E+03  0.15799370525E+03  0.88759672700E+02 0.  0.
        -11    1    4    4    0    0  0.19601671440E+02  0.29325430527E+02 -0.49090618031E+01  0.35613274023E+02  0.00000000000E+00 0. -1.
         11    1    4    4    0    0 -0.22127331868E+02  0.89935970604E+01 -0.12002694008E+03  0.12238043123E+03  0.00000000000E+00 0.  1.
        -13    1    3    3    0    0 -0.25485869832E+02  0.14027029737E+02 -0.47715259293E+02  0.55884104124E+02  0.00000000000E+00 0. -1.
         13    1    3    3    0    0  0.41606578157E+02 -0.26370768567E+02 -0.23872333925E+03  0.24375265636E+03  0.00000000000E+00 0.  1.
         -2    1    1    2    0  502 -0.13595047897E+02 -0.25975288758E+02 -0.13095394019E+03  0.13419566090E+03  0.00000000000E+00 0.  1.
<scales pt_clust_5="13000.00000" pt_clust_6="13000.00000" pt_clust_7="13000.00000" pt_clust_8="13000.00000" pt_clust_9="29.31794"></scales>
<clustering>
<clus scale="   29.318">  1  9  2 -1</clus>
<clus scale="   85.574">  7  8 -1 -1</clus>
<clus scale="   88.674">  2  7  1 -1</clus>
<clus scale="   88.760">  5  6 -1 -1</clus>
<clus scale="   29.318">  1  5  2 -1</clus>
</clustering>
</event>
<event>
 9    1  0.1399746E-005  0.1103647E+03  0.7546771E-02  0.1260193E+00
         21   -1    0    0  501  502  0.00000000000E+00  0.00000000000E+00  0.98565522028E+02  0.98565522028E+02  0.00000000000E+00 0. -1.
         -4   -1    0    0    0  501 -0.00000000000E+00 -0.00000000000E+00 -0.21339835996E+03  0.21339835996E+03  0.00000000000E+00 0.  1.
         23    2    1    2    0    0 -0.25979140612E+01 -0.71199882676E+02 -0.11955974905E+03  0.16616246052E+03  0.90770354418E+02 0.  0.
         23    2    1    2    0    0  0.14251703055E+02  0.43793552467E+02 -0.23094564780E+02  0.10504663948E+03  0.91544804688E+02 0.  0.
        -11    1    3    3    0    0  0.17789573764E+02 -0.75583811579E+02 -0.47226103323E+02  0.90882816542E+02  0.00000000000E+00 0. -1.
         11    1    3    3    0    0 -0.20387487825E+02  0.43839289036E+01 -0.72333645732E+02  0.75279643977E+02  0.00000000000E+00 0.  1.
        -11    1    4    4    0    0 -0.17501361212E+02  0.62736588689E+02 -0.10419529538E+02  0.65960168287E+02  0.00000000000E+00 0.  1.
         11    1    4    4    0    0  0.31753064267E+02 -0.18943036223E+02 -0.12675035243E+02  0.39086471190E+02  0.00000000000E+00 0. -1.
         -4    1    1    2    0  502 -0.11653788994E+02  0.27406330209E+02  0.27821475905E+02  0.40754781989E+02  0.00000000000E+00 0.  1.
<scales pt_clust_5="13000.00000" pt_clust_6="13000.00000" pt_clust_7="13000.00000" pt_clust_8="13000.00000" pt_clust_9="29.78116"></scales>
<clustering>
<clus scale="   29.781">  1  9  2 -1</clus>
<clus scale="   90.770">  5  6 -1 -1</clus>
<clus scale="   91.545">  7  8 -1 -1</clus>
<clus scale="  109.723">  2  5  1 -1</clus>
<clus scale="   29.781">  1  5  2 -1</clus>
</clustering>
</event>
<event>
 9    1  0.1399746E-005  0.1037784E+03  0.7546771E-02  0.1272929E+00
          1   -1    0    0  502    0 -0.00000000000E+00  0.00000000000E+00  0.12094267696E+03  0.12094267696E+03  0.00000000000E+00 0. -1.
         21   -1    0    0  501  502  0.00000000000E+00 -0.00000000000E+00 -0.25384818910E+03  0.25384818910E+03  0.00000000000E+00 0.  1.
         23    2    1    2    0    0 -0.51101986714E+02  0.61252450560E+01  0.68197027993E+02  0.12491046654E+03  0.91120021680E+02 0.  0.
         23    2    1    2    0    0  0.42544609577E+02  0.33135031140E+02 -0.12120867406E+03  0.16045094226E+03  0.90249587870E+02 0.  0.
        -11    1    3    3    0    0 -0.21330617058E+02  0.23576609208E+02 -0.14766705776E+02  0.35055774493E+02  0.00000000000E+00 0.  1.
         11    1    3    3    0    0 -0.29771369656E+02 -0.17451364152E+02  0.82963733769E+02  0.89854692047E+02  0.00000000000E+00 0. -1.
        -13    1    4    4    0    0  0.67827566606E+02  0.27455003153E+02 -0.11023352581E+03  0.13230943353E+03  0.00000000000E+00 0.  1.
         13    1    4    4    0    0 -0.25282957028E+02  0.56800279873E+01 -0.10975148251E+02  0.28141508722E+02  0.00000000000E+00 0. -1.
          1    1    1    2  501    0  0.85573771371E+01 -0.39260276196E+02 -0.79893866071E+02  0.89429457262E+02  0.00000000000E+00 0. -1.
<scales pt_clust_5="13000.00000" pt_clust_6="13000.00000" pt_clust_7="13000.00000" pt_clust_8="13000.00000" pt_clust_9="40.18206"></scales>
<clustering>
<clus scale="   40.182">  2  9  1 -1</clus>
<clus scale="   90.250">  7  8 -1 -1</clus>
<clus scale="   91.120">  5  6 -1 -1</clus>
<clus scale="  103.015">  2  7  1 -1</clus>
<clus scale="   40.182">  2  5  1 -1</clus>
</clustering>
</event>
<event>
 9    1  0.1399746E-005  0.2018636E+03  0.7546771E-02  0.1148178E+00
         21   -1    0    0  501  502  0.00000000000E+00  0.00000000000E+00  0.32833427196E+03  0.32833427196E+03  0.00000000000E+00 0. -1.
          1   -1    0    0  502    0 -0.00000000000E+00 -0.00000000000E+00 -0.48756685900E+03  0.48756685900E+03  0.00000000000E+00 0. -1.
         23    2    1    2    0    0  0.15053663730E+03 -0.92643138177E+02 -0.33298066152E+03  0.38779368584E+03  0.90905399239E+02 0.  0.
         23    2    1    2    0    0 -0.15130332398E+03  0.11913721176E+03 -0.36622652994E+02  0.21607356404E+03  0.90885616529E+02 0.  0.
        -13    1    3    3    0    0  0.15049940786E+03 -0.53655656946E+02 -0.26741199777E+03  0.31150951484E+03  0.00000000000E+00 0.  1.
         13    1    3    3    0    0  0.37229447044E-01 -0.38987481232E+02 -0.65568663753E+02  0.76284171000E+02  0.00000000000E+00 0. -1.
        -13    1    4    4    0    0 -0.91074155527E+02  0.91751116097E+02  0.17677863932E+02  0.13048094107E+03  0.00000000000E+00 0.  1.
         13    1    4    4    0    0 -0.60229168449E+02  0.27386095664E+02 -0.54300516926E+02  0.85592622966E+02  0.00000000000E+00 0. -1.
          1    1    1    2  501    0  0.76668667345E+00 -0.26494073584E+02  0.21037072748E+03  0.21203388108E+03  0.00000000000E+00 0. -1.
<scales pt_clust_5="13000.00000" pt_clust_6="13000.00000" pt_clust_7="13000.00000" pt_clust_8="13000.00000" pt_clust_9="26.50516"></scales>
<clustering>
<clus scale="   26.505">  1  9  2 -1</clus>
<clus scale="   90.886">  7  8 -1 -1</clus>
<clus scale="   90.905">  5  6 -1 -1</clus>
<clus scale="  201.855">  1  7  2 -1</clus>
<clus scale="   26.505">  1  5  2 -1</clus>
</clustering>
</event>
<event>
 9    1  0.1399746E-005  0.1419328E+03  0.7546771E-02  0.1211183E+00
         21   -1    0    0  501  502  0.00000000000E+00  0.00000000000E+00  0.84905575994E+03  0.84905575994E+03  0.00000000000E+00 0. -1.
          4   -1    0    0  502    0 -0.00000000000E+00 -0.00000000000E+00 -0.55452875180E+02  0.55452875180E+02  0.00000000000E+00 0. -1.
         23    2    1    2    0    0 -0.74258845770E+02  0.92844008894E+02  0.12161642765E+03  0.19282114439E+03  0.90857317177E+02 0.  0.
         23    2    1    2    0    0  0.11098897385E+02 -0.69508171334E+02  0.60709226531E+03  0.61817280459E+03  0.92854867077E+02 0.  0.
        -11    1    3    3    0    0  0.11779491302E+02  0.25831683349E+02 -0.13989939320E+01  0.28425155479E+02  0.00000000000E+00 0.  1.
         11    1    3    3    0    0 -0.86038337071E+02  0.67012325544E+02  0.12301542158E+03  0.16439598891E+03  0.00000000000E+00 0. -1.
        -11    1    4    4    0    0 -0.16341233992E+01  0.21236937668E+02  0.65298072288E+02  0.68684176673E+02  0.00000000000E+00 0.  1.
         11    1    4    4    0    0  0.12733020785E+02 -0.90745109002E+02  0.54179419302E+03  0.54948862792E+03  0.00000000000E+00 0. -1.
          4    1    1    2  501    0  0.63159948384E+02 -0.23335837560E+02  0.64894191801E+02  0.93514686140E+02  0.00000000000E+00 0. -1.
<scales pt_clust_5="13000.00000" pt_clust_6="13000.00000" pt_clust_7="13000.00000" pt_clust_8="13000.00000" pt_clust_9="67.33309"></scales>
<clustering>
<clus scale="   67.333">  1  9  2 -1</clus>
<clus scale="   90.857">  5  6 -1 -1</clus>
<clus scale="   92.855">  7  8 -1 -1</clus>
<clus scale="  140.634">  2  5  1 -1</clus>
<clus scale="   67.333">  1  5  2 -1</clus>
</clustering>
</event>
<event>
 9    1  0.1399746E-005  0.1001534E+03  0.7546771E-02  0.1281291E+00
          1   -1    0    0  502    0 -0.00000000000E+00  0.00000000000E+00  0.43785350619E+03  0.43785350619E+03  0.00000000000E+00 0. -1.
         21   -1    0    0  501  502  0.00000000000E+00 -0.00000000000E+00 -0.32405081524E+02  0.32405081524E+02  0.00000000000E+00 0.  1.
         23    2    1    2    0    0  0.37049679243E+02 -0.11557624231E+02  0.20594974333E+03  0.23013015203E+03  0.95070146140E+02 0.  0.
         23    2    1    2    0    0 -0.13021435491E+02  0.26698305387E+02  0.18329403876E+03  0.20743000812E+03  0.92456186023E+02 0.  0.
        -13    1    3    3    0    0  0.62911086431E+01 -0.30889802104E+02  0.13519624335E+02  0.34300702094E+02  0.00000000000E+00 0.  1.
         13    1    3    3    0    0  0.30758570600E+02  0.19332177873E+02  0.19243011900E+03  0.19582944994E+03  0.00000000000E+00 0. -1.
        -13    1    4    4    0    0  0.35463418352E+02 -0.28844213161E+01  0.10381164797E+03  0.10973983862E+03  0.00000000000E+00 0.  1.
         13    1    4    4    0    0 -0.48484853843E+02  0.29582726703E+02  0.79482390789E+02  0.97690169500E+02  0.00000000000E+00 0. -1.
          1    1    1    2  501    0 -0.24028243751E+02 -0.15140681157E+02  0.16204642581E+02  0.32698427559E+02  0.00000000000E+00 0. -1.
<scales pt_clust_5="13000.00000" pt_clust_6="13000.00000" pt_clust_7="13000.00000" pt_clust_8="13000.00000" pt_clust_9="28.40065"></scales>
<clustering>
<clus scale="   28.401">  2  9  1 -1</clus>
<clus scale="   92.456">  7  8 -1 -1</clus>
<clus scale="   95.070">  5  6 -1 -1</clus>
<clus scale="   97.676">  2  7  1 -1</clus>
<clus scale="   28.401">  2  5  1 -1</clus>
</clustering>
</event>
<event>
 9    1  0.1399746E-005  0.1191593E+03  0.7546771E-02  0.1245314E+00
         21   -1    0    0  501  502  0.00000000000E+00  0.00000000000E+00  0.35704687210E+03  0.35704687210E+03  0.00000000000E+00 0. -1.
          2   -1    0    0  502    0 -0.00000000000E+00 -0.00000000000E+00 -0.75027616593E+02  0.75027616593E+02  0.00000000000E+00 0. -1.
         23    2    1    2    0    0 -0.30682708477E+02 -0.58824035737E+02  0.46855486275E+02  0.12153118610E+03  0.90402969088E+02 0.  0.
         23    2    1    2    0    0  0.33891215993E+01  0.10079641227E+03  0.10170231362E+03  0.16800004457E+03  0.87802343406E+02 0.  0.
        -11    1    4    4    0    0 -0.36373526269E+02  0.15389387750E+02  0.28940110141E+02  0.48963217251E+02  0.00000000000E+00 0.  1.
         11    1    4    4    0    0  0.39762647868E+02  0.85407024517E+02  0.72762203483E+02  0.11903682732E+03  0.00000000000E+00 0. -1.
        -13    1    3    3    0    0 -0.41435559338E+02  0.92440208514E+01  0.11033098871E+02  0.43864413479E+02  0.00000000000E+00 0.  1.
         13    1    3    3    0    0  0.10752850861E+02 -0.68068056588E+02  0.35822387404E+02  0.77666772616E+02  0.00000000000E+00 0. -1.
          2    1    1    2  501    0  0.27293586878E+02 -0.41972376530E+02  0.13346145561E+03  0.14254325803E+03  0.00000000000E+00 0. -1.
<scales pt_clust_5="13000.00000" pt_clust_6="13000.00000" pt_clust_7="13000.00000" pt_clust_8="13000.00000" pt_clust_9="50.06616"></scales>
<clustering>
<clus scale="   50.066">  1  9  2 -1</clus>
<clus scale="   87.802">  5  6 -1 -1</clus>
<clus scale="   90.403">  7  8 -1 -1</clus>
<clus scale="  117.199">  1  5  2 -1</clus>
<clus scale="   50.066">  1  5  2 -1</clus>
</clustering>
</event>
<event>
 9    1  0.1399746E-005  0.1078187E+03  0.7546771E-02  0.1266726E+00
         -1   -1    0    0    0  501 -0.00000000000E+00  0.00000000000E+00  0.93470727992E+02  0.93470727992E+02  0.00000000000E+00 0.  1.
         21   -1    0    0  501  502  0.00000000000E+00 -0.00000000000E+00 -0.32820241200E+03  0.32820241200E+03  0.00000000000E+00 0. -1.
         23    2    1    2    0    0  0.43511420545E+02  0.32255348859E+02  0.35764766113E+02  0.11138817118E+03  0.90523781050E+02 0.  0.
         23    2    1    2    0    0 -0.60227058735E+02 -0.56935619405E+02 -0.18738608627E+03  0.22199079633E+03  0.85424849830E+02 0.  0.
        -11    1    3    3    0    0  0.10875775413E+02 -0.28630197144E+02  0.28657137012E+02  0.41942844218E+02  0.00000000000E+00 0. -1.
         11    1    3    3    0    0  0.32635645132E+02  0.60885546004E+02  0.71076291007E+01  0.69445326961E+02  0.00000000000E+00 0.  1.
        -11    1    4    4    0    0 -0.35678377948E+02  0.17309857100E+02 -0.48973466934E+02  0.63015698595E+02  0.00000000000E+00 0.  1.
         11    1    4    4    0    0 -0.24548680786E+02 -0.74245476505E+02 -0.13841261933E+03  0.15897509774E+03  0.00000000000E+00 0. -1.
         -1    1    1    2    0  502  0.16715638190E+02  0.24680270546E+02 -0.83110363854E+02  0.88294172481E+02  0.00000000000E+00 0.  1.
<scales pt_clust_5="13000.00000" pt_clust_6="13000.00000" pt_clust_7="13000.00000" pt_clust_8="13000.00000" pt_clust_9="29.80819"></scales>
<clustering>
<clus scale="   29.808">  2  9  1 -1</clus>
<clus scale="   85.425">  7  8 -1 -1</clus>
<clus scale="   90.524">  5  6 -1 -1</clus>
<clus scale="  103.575">  2  7  1 -1</clus>
<clus scale="   29.808">  2  5  1 -1</clus>
</clustering>
</event>
<event>
 9    1  0.1399746E-005  0.1123006E+03  0.7546771E-02  0.1256821E+00
          1   -1    0    0  502    0 -0.00000000000E+00  0.00000000000E+00  0.52444514574E+03  0.52444514574E+03  0.00000000000E+00 0. -1.
         21   -1    0    0  501  502  0.00000000000E+00 -0.00000000000E+00 -0.30233619513E+02  0.30233619513E+02  0.00000000000E+00 0. -1.
         23    2    1    2    0    0 -0.28181936486E+02 -0.54574847309E+02  0.23806370583E+03  0.26238074301E+03  0.91633458758E+02 0.  0.
         23    2    1    2    0    0  0.69699293304E+01  0.67592168875E+02  0.19718626947E+03  0.22829908166E+03  0.92848072743E+02 0.  0.
        -13    1    4    4    0    0 -0.28773010345E+02 -0.88820656986E+01  0.42634838129E+02  0.52196806776E+02  0.00000000000E+00 0.  1.
         13    1    4    4    0    0  0.35742939675E+02  0.76474234573E+02  0.15455143134E+03  0.17610227488E+03  0.00000000000E+00 0. -1.
        -13    1    3    3    0    0 -0.46921625063E+02 -0.18478568982E+02  0.20142005691E+03  0.20763702882E+03  0.00000000000E+00 0. -1.
         13    1    3    3    0    0  0.18739688577E+02 -0.36096278327E+02  0.36643648917E+02  0.54743714187E+02  0.00000000000E+00 0.  1.
          1    1    1    2  501    0  0.21212007156E+02 -0.13017321566E+02  0.58961550927E+02  0.63998940585E+02  0.00000000000E+00 0. -1.
<scales pt_clust_5="13000.00000" pt_clust_6="13000.00000" pt_clust_7="13000.00000" pt_clust_8="13000.00000" pt_clust_9="24.88776"></scales>
<clustering>
<clus scale="   24.888">  2  9  1 -1</clus>
<clus scale="   91.633">  7  8 -1 -1</clus>
<clus scale="   92.848">  5  6 -1 -1</clus>
<clus scale="  111.298">  1  7  2 -1</clus>
<clus scale="   24.888">  2  5  1 -1</clus>
</clustering>
</event>
<event>
 9    1  0.1399746E-005  0.9436298E+02  0.7546771E-02  0.1292886E+00
         21   -1    0    0  501  502  0.00000000000E+00  0.00000000000E+00  0.88093548571E+02  0.88093548571E+02  0.00000000000E+00 0.  1.
         -3   -1    0    0    0  501 -0.00000000000E+00 -0.00000000000E+00 -0.28691596408E+03  0.28691596408E+03  0.00000000000E+00 0.  1.
         23    2    1    2    0    0  0.58493844491E+01  0.14139624448E+02 -0.82714746659E+02  0.12335522214E+03  0.90225479974E+02 0.  0.
         23    2    1    2    0    0  0.55539923042E+02  0.51032702645E+02 -0.11098498389E+03  0.16197530081E+03  0.90715553419E+02 0.  0.
        -11    1    3    3    0    0 -0.92521935246E+01  0.31296964988E+02 -0.92800658288E+02  0.98372075719E+02  0.00000000000E+00 0.  1.
         11    1    3    3    0    0  0.15101577974E+02 -0.17157340541E+02  0.10085911629E+02  0.24983146422E+02  0.00000000000E+00 0. -1.
        -13    1    4    4    0    0 -0.14247912014E+02  0.45565375998E+02 -0.40043434803E+02  0.62311180036E+02  0.00000000000E+00 0.  1.
         13    1    4    4    0    0  0.69787835056E+02  0.54673266467E+01 -0.70941549087E+02  0.99664120773E+02  0.00000000000E+00 0. -1.
         -3    1    1    2    0  502 -0.61389307492E+02 -0.65172327093E+02 -0.51226849616E+01  0.89678989703E+02  0.00000000000E+00 0.  1.
<scales pt_clust_5="13000.00000" pt_clust_6="13000.00000" pt_clust_7="13000.00000" pt_clust_8="13000.00000" pt_clust_9="89.53256"></scales>
<clustering>
<clus scale="   89.533">  1  9  2 -1</clus>
<clus scale="   90.225">  5  6 -1 -1</clus>
<clus scale="   90.716">  7  8 -1 -1</clus>
<clus scale="   93.892">  2  5  1 -1</clus>
<clus scale="   89.533">  1  5  2 -1</clus>
</clustering>
</event>
<event>
 9    1  0.1399746E-005  0.1044448E+03  0.7546771E-02  0.1271660E+00
          1   -1    0    0  502    0 -0.00000000000E+00  0.00000000000E+00  0.61459398911E+03  0.61459398911E+03  0.00000000000E+00 0. -1.
         21   -1    0    0  501  502  0.00000000000E+00 -0.00000000000E+00 -0.29738794419E+02  0.29738794419E+02  0.00000000000E+00 0.  1.
         23    2    1    2    0    0  0.29938806075E+01 -0.44894855752E+02  0.35625398786E+03  0.37106428104E+03  0.93526923403E+02 0.  0.
         23    2    1    2    0    0 -0.26452230451E+02  0.39454012186E+02  0.22538745046E+03  0.24897395195E+03  0.94510244671E+02 0.  0.
        -11    1    3    3    0    0 -0.40629536430E+02 -0.41440692875E+02  0.23798908446E+03  0.24496304738E+03  0.00000000000E+00 0. -1.
         11    1    3    3    0    0  0.43623417037E+02 -0.34541628770E+01  0.11826490340E+03  0.12610123367E+03  0.00000000000E+00 0.  1.
        -11    1    4    4    0    0 -0.18236597944E+02 -0.29637284547E+02  0.57070856674E+02  0.66843285537E+02  0.00000000000E+00 0. -1.
         11    1    4    4    0    0 -0.82156325070E+01  0.69091296733E+02  0.16831659379E+03  0.18213066641E+03  0.00000000000E+00 0.  1.
          1    1    1    2  501    0  0.23458349843E+02  0.54408435661E+01  0.32137563631E+01  0.24294550542E+02  0.00000000000E+00 0. -1.
<scales pt_clust_5="13000.00000" pt_clust_6="13000.00000" pt_clust_7="13000.00000" pt_clust_8="13000.00000" pt_clust_9="24.08105"></scales>
<clustering>
<clus scale="   24.081">  2  9  1 -1</clus>
<clus scale="   93.527">  5  6 -1 -1</clus>
<clus scale="   94.510">  7  8 -1 -1</clus>
<clus scale="  103.556">  1  5  2 -1</clus>
<clus scale="   24.081">  2  5  1 -1</clus>
</clustering>
</event>
<event>
 9    1  0.1399746E-005  0.9363151E+02  0.7546771E-02  0.1295432E+00
         -2   -1    0    0    0  501 -0.00000000000E+00  0.00000000000E+00  0.56990634564E+02  0.56990634564E+02  0.00000000000E+00 0.  1.
         21   -1    0    0  501  502  0.00000000000E+00 -0.00000000000E+00 -0.25264637879E+03  0.25264637879E+03  0.00000000000E+00 0.  1.
         23    2    1    2    0    0 -0.14402177504E+01  0.11307403002E+02 -0.75050515630E+02  0.11969032718E+03  0.92537899989E+02 0.  0.
         23    2    1    2    0    0 -0.23690087116E+02  0.29799664507E+02 -0.74722281276E+02  0.12341422735E+03  0.90545082483E+02 0.  0.
        -11    1    3    3    0    0 -0.31876162498E+02  0.23622914796E+02 -0.77187841511E+02  0.86787641495E+02  0.00000000000E+00 0.  1.
         11    1    3    3    0    0  0.30435944747E+02 -0.12315511794E+02  0.21373258817E+01  0.32902685686E+02  0.00000000000E+00 0. -1.
        -11    1    4    4    0    0 -0.99584920692E+01  0.62151400723E+02 -0.44841823030E+02  0.77283615785E+02  0.00000000000E+00 0.  1.
         11    1    4    4    0    0 -0.13731595047E+02 -0.32351736216E+02 -0.29880458245E+02  0.46130611569E+02  0.00000000000E+00 0. -1.
         -2    1    1    2    0  502  0.25130304866E+02 -0.41107067509E+02 -0.45882947319E+02  0.66532458819E+02  0.00000000000E+00 0.  1.
<scales pt_clust_5="13000.00000" pt_clust_6="13000.00000" pt_clust_7="13000.00000" pt_clust_8="13000.00000" pt_clust_9="48.18011"></scales>
<clustering>
<clus scale="   48.180">  2  9  1 -1</clus>
<clus scale="   90.545">  7  8 -1 -1</clus>
<clus scale="   91.662">  2  7  1 -1</clus>
<clus scale="   92.538">  5  6 -1 -1</clus>
<clus scale="   48.180">  2  5  1 -1</clus>
</clustering>
</event>
<event>
 9    1  0.1399746E-005  0.2072305E+03  0.7546771E-02  0.1144303E+00
          1   -1    0    0  502    0 -0.00000000000E+00  0.00000000000E+00  0.27016361172E+03  0.27016361172E+03  0.00000000000E+00 0. -1.
         21   -1    0    0  501  502  0.00000000000E+00 -0.00000000000E+00 -0.34831299045E+03  0.34831299045E+03  0.00000000000E+00 0.  1.
         23    2    1    2    0    0  0.17633251873E+03 -0.61818359807E+02  0.14582695161E+03  0.25210054921E+03  0.85875027366E+02 0.  0.
         23    2    1    2    0    0 -0.18378514639E+03  0.24471473708E+02 -0.87460742725E+02  0.22464801331E+03  0.91877719321E+02 0.  0.
        -11    1    4    4    0    0 -0.91866586309E+02  0.34786884079E+02 -0.13021353896E+01  0.98240992159E+02  0.00000000000E+00 0. -1.
         11    1    4    4    0    0 -0.91918560085E+02 -0.10315410371E+02 -0.86158607335E+02  0.12640702115E+03  0.00000000000E+00 0.  1.
        -13    1    3    3    0    0  0.42461218149E+02 -0.39342636188E+02  0.86210134326E+02  0.10384115431E+03  0.00000000000E+00 0.  1.
         13    1    3    3    0    0  0.13387130058E+03 -0.22475723619E+02  0.59616817281E+02  0.14825939489E+03  0.00000000000E+00 0. -1.
          1    1    1    2  501    0  0.74526276627E+01  0.37346886099E+02 -0.13651558762E+03  0.14172803965E+03  0.00000000000E+00 0. -1.
<scales pt_clust_5="13000.00000" pt_clust_6="13000.00000" pt_clust_7="13000.00000" pt_clust_8="13000.00000" pt_clust_9="38.08322"></scales>
<clustering>
<clus scale="   38.083">  2  9  1 -1</clus>
<clus scale="   85.875">  7  8 -1 -1</clus>
<clus scale="   91.878">  5  6 -1 -1</clus>
<clus scale="  204.640">  1  7  2 -1</clus>
<clus scale="   38.083">  2  5  1 -1</clus>
</clustering>
</event>
<event>
 9    1  0.1399746E-005  0.9792291E+02  0.7546771E-02  0.1285566E+00
         21   -1    0    0  501  502  0.00000000000E+00  0.00000000000E+00  0.46920372839E+03  0.46920372839E+03  0.00000000000E+00 0. -1.
         -3   -1    0    0    0  501 -0.00000000000E+00 -0.00000000000E+00 -0.34313955304E+02  0.34313955304E+02  0.00000000000E+00 0.  1.
         23    2    1    2    0    0 -0.13281913023E+02 -0.22861867934E+02  0.72657992235E+02  0.11954201253E+03  0.91170360892E+02 0.  0.
         23    2    1    2    0    0  0.11771251380E+02  0.45189370762E+02  0.27650681259E+03  0.29537787398E+03  0.92797787927E+02 0.  0.
        -11    1    3    3    0    0 -0.50261772270E+02 -0.50947452976E+01  0.55563158273E+02  0.75096382993E+02  0.00000000000E+00 0.  1.
         11    1    3    3    0    0  0.36979859248E+02 -0.17767122637E+02  0.17094833962E+02  0.44445629537E+02  0.00000000000E+00 0. -1.
        -13    1    4    4    0    0  0.40230307660E+02 -0.10293168015E+02  0.10943414606E+03  0.11704810672E+03  0.00000000000E+00 0. -1.
         13    1    4    4    0    0 -0.28459056280E+02  0.55482538776E+02  0.16707266653E+03  0.17832976727E+03  0.00000000000E+00 0.  1.
         -3    1    1    2    0  502  0.15106616426E+01 -0.22327502827E+02  0.85724968266E+02  0.88597797181E+02  0.00000000000E+00 0.  1.
<scales pt_clust_5="13000.00000" pt_clust_6="13000.00000" pt_clust_7="13000.00000" pt_clust_8="13000.00000" pt_clust_9="22.37855"></scales>
<clustering>
<clus scale="   22.379">  1  9  2 -1</clus>
<clus scale="   91.170">  5  6 -1 -1</clus>
<clus scale="   92.798">  7  8 -1 -1</clus>
<clus scale="   96.382">  2  5  1 -1</clus>
<clus scale="   22.379">  1  5  2 -1</clus>
</clustering>
</event>
<event>
 9    1  0.1399746E-005  0.1032459E+03  0.7546771E-02  0.1274205E+00
         21   -1    0    0  501  502  0.00000000000E+00  0.00000000000E+00  0.11921237145E+03  0.11921237145E+03  0.00000000000E+00 0.  1.
         -4   -1    0    0    0  501 -0.00000000000E+00 -0.00000000000E+00 -0.18909557528E+03  0.18909557528E+03  0.00000000000E+00 0.  1.
         23    2    1    2    0    0 -0.53006190981E+02  0.34763541728E+02 -0.99123950213E+02  0.14880020682E+03  0.91092172707E+02 0.  0.
         23    2    1    2    0    0 -0.47233255397E+01 -0.24213381411E+02  0.42616390169E+01  0.95727188283E+02  0.92395537587E+02 0.  0.
        -11    1    4    4    0    0  0.30212873159E+02 -0.26675721392E+02 -0.27220015416E+02  0.48634772083E+02  0.00000000000E+00 0. -1.
         11    1    4    4    0    0 -0.34936198699E+02  0.24623399809E+01  0.31481654433E+02  0.47092416200E+02  0.00000000000E+00 0.  1.
        -13    1    3    3    0    0 -0.51770705011E+02  0.63431524988E+02 -0.78807269711E+02  0.11364132179E+03  0.00000000000E+00 0.  1.
         13    1    3    3    0    0 -0.12354859698E+01 -0.28667983260E+02 -0.20316680502E+02  0.35158885028E+02  0.00000000000E+00 0. -1.
         -4    1    1    2    0  502  0.57729516521E+02 -0.10550160317E+02  0.24979107372E+02  0.63780551625E+02  0.00000000000E+00 0.  1.
<scales pt_clust_5="13000.00000" pt_clust_6="13000.00000" pt_clust_7="13000.00000" pt_clust_8="13000.00000" pt_clust_9="58.68563"></scales>
<clustering>
<clus scale="   58.686">  1  9  2 -1</clus>
<clus scale="   91.092">  7  8 -1 -1</clus>
<clus scale="   92.396">  5  6 -1 -1</clus>
<clus scale="  102.081">  2  7  1 -1</clus>
<clus scale="   58.686">  1  5  2 -1</clus>
</clustering>
</event>
<event>
 9    1  0.1399746E-005  0.1717708E+03  0.7546771E-02  0.1176180E+00
          2   -1    0    0  502    0 -0.00000000000E+00  0.00000000000E+00  0.58010203953E+03  0.58010203953E+03  0.00000000000E+00 0. -1.
         21   -1    0    0  501  502  0.00000000000E+00 -0.00000000000E+00 -0.17245694210E+03  0.17245694210E+03  0.00000000000E+00 0. -1.
         23    2    1    2    0    0  0.10014266944E+03  0.43823340861E+02  0.17845916852E+03  0.22798222329E+03  0.90438818331E+02 0.  0.
         23    2    1    2    0    0 -0.13633990693E+03 -0.16226962908E+03  0.30256928103E+03  0.38061537615E+03  0.91650924695E+02 0.  0.
        -11    1    3    3    0    0  0.90647331380E+02 -0.62336261820E+01  0.11757847772E+03  0.14859507126E+03  0.00000000000E+00 0.  1.
         11    1    3    3    0    0  0.94953380616E+01  0.50056967043E+02  0.60880690803E+02  0.79387152028E+02  0.00000000000E+00 0. -1.
        -13    1    4    4    0    0 -0.12310899267E+03 -0.83909248052E+02  0.22274416999E+03  0.26797677372E+03  0.00000000000E+00 0. -1.
         13    1    4    4    0    0 -0.13230914256E+02 -0.78360381024E+02  0.79825111036E+02  0.11263860243E+03  0.00000000000E+00 0.  1.
          2    1    1    2  501    0  0.36197237489E+02  0.11844628821E+03 -0.73383352117E+02  0.14396138219E+03  0.00000000000E+00 0. -1.
<scales pt_clust_5="13000.00000" pt_clust_6="13000.00000" pt_clust_7="13000.00000" pt_clust_8="13000.00000" pt_clust_9="123.85380"></scales>
<clustering>
<clus scale="   90.439">  5  6 -1 -1</clus>
<clus scale="   91.651">  7  8 -1 -1</clus>
<clus scale="  123.854">  2  9  1 -1</clus>
<clus scale="  171.127">  1  5  2 -1</clus>
<clus scale="  123.854">  2  5  1 -1</clus>
</clustering>
</event>
<event>
 9    1  0.1399746E-005  0.1011545E+03  0.7546771E-02  0.1278147E+00
         -2   -1    0    0    0  501 -0.00000000000E+00  0.00000000000E+00  0.91594872618E+02  0.91594872618E+02  0.00000000000E+00 0.  1.
         21   -1    0    0  501  502  0.00000000000E+00 -0.00000000000E+00 -0.42577434005E+03  0.42577434005E+03  0.00000000000E+00 0.  1.
         23    2    1    2    0    0 -0.44981482432E+02 -0.56647383771E+01  0.36616452100E+02  0.10895615589E+03  0.92061155326E+02 0.  0.
         23    2    1    2    0    0  0.17317186451E+02  0.29647638537E+02 -0.12214571049E+03  0.15708176300E+03  0.92607981619E+02 0.  0.
        -11    1    3    3    0    0 -0.30987352024E+02 -0.47242441746E+02  0.92498766130E+01  0.57250541525E+02  0.00000000000E+00 0. -1.
         11    1    3    3    0    0 -0.13994130407E+02  0.41577703369E+02  0.27366575487E+02  0.51705614368E+02  0.00000000000E+00 0.  1.
        -13    1    4    4    0    0  0.27371537451E+02 -0.31180518393E+00 -0.12245652647E+03  0.12547868010E+03  0.00000000000E+00 0. -1.
         13    1    4    4    0    0 -0.10054351000E+02  0.29959443721E+02  0.31081598445E+00  0.31603082898E+02  0.00000000000E+00 0.  1.
         -2    1    1    2    0  502  0.27664295981E+02 -0.23982900160E+02 -0.24865020905E+03  0.25133129378E+03  0.00000000000E+00 0.  1.
<scales pt_clust_5="13000.00000" pt_clust_6="13000.00000" pt_clust_7="13000.00000" pt_clust_8="13000.00000" pt_clust_9="36.61274"></scales>
<clustering>
<clus scale="   36.613">  2  9  1 -1</clus>
<clus scale="   92.061">  5  6 -1 -1</clus>
<clus scale="   92.608">  7  8 -1 -1</clus>
<clus scale="  100.654">  1  5  2 -1</clus>
<clus scale="   36.613">  2  5  1 -1</clus>
</clustering>
</event>
<event>
 9    1  0.1399746E-005  0.1463739E+03  0.7546771E-02  0.1205033E+00
         -3   -1    0    0    0  501 -0.00000000000E+00  0.00000000000E+00  0.70464495555E+03  0.70464495555E+03  0.00000000000E+00 0.  1.
         21   -1    0    0  501  502  0.00000000000E+00 -0.00000000000E+00 -0.11415817477E+03  0.11415817477E+03  0.00000000000E+00 0.  1.
         23    2    1    2    0    0 -0.87594066218E+02 -0.66988369903E+02  0.45548338311E+03  0.47749294473E+03  0.91510861885E+02 0.  0.
         23    2    1    2    0    0  0.15061827247E+03 -0.13569969472E+01  0.16712903661E+03  0.24294760927E+03  0.91671808812E+02 0.  0.
        -11    1    4    4    0    0  0.11547371210E+03  0.83368656621E+00  0.59906426128E+02  0.13009094170E+03  0.00000000000E+00 0. -1.
         11    1    4    4    0    0  0.35144560363E+02 -0.21906835134E+01  0.10722261048E+03  0.11285666757E+03  0.00000000000E+00 0.  1.
        -11    1    3    3    0    0 -0.88631744313E+02 -0.13630901283E+02  0.27151452676E+03  0.28593972409E+03  0.00000000000E+00 0.  1.
         11    1    3    3    0    0  0.10376780950E+01 -0.53357468620E+02  0.18396885634E+03  0.19155322064E+03  0.00000000000E+00 0. -1.
         -3    1    1    2    0  502 -0.63024206248E+02  0.68345366850E+02 -0.32125638939E+02  0.98362576320E+02  0.00000000000E+00 0.  1.
<scales pt_clust_5="13000.00000" pt_clust_6="13000.00000" pt_clust_7="13000.00000" pt_clust_8="13000.00000" pt_clust_9="92.96849"></scales>
<clustering>
<clus scale="   91.511">  7  8 -1 -1</clus>
<clus scale="   91.672">  5  6 -1 -1</clus>
<clus scale="   92.968">  2  9  1 -1</clus>
<clus scale="  146.273">  1  7  2 -1</clus>
<clus scale="   92.968">  2  5  1 -1</clus>
</clustering>
</event>
<event>
 9    1  0.1399746E-005  0.1050752E+03  0.7546771E-02  0.1270922E+00
         21   -1    0    0  501  502  0.00000000000E+00  0.00000000000E+00  0.86232583912E+02  0.86232583912E+02  0.00000000000E+00 0.  1.
          3   -1    0    0  502    0 -0.00000000000E+00 -0.00000000000E+00 -0.23189812870E+03  0.23189812870E+03  0.00000000000E+00 0. -1.
         23    2    1    2    0    0  0.23013656483E+02  0.40648856189E+02 -0.14674227099E+03  0.17798062445E+03  0.89229203123E+02 0.  0.
         23    2    1    2    0    0 -0.38415009251E+02 -0.59597726721E+02  0.18206420518E+01  0.11572029544E+03  0.91434512487E+02 0.  0.
        -11    1    3    3    0    0 -0.29796067923E+02  0.12535572212E+02 -0.20494929271E+02  0.38275166364E+02  0.00000000000E+00 0.  1.
         11    1    3    3    0    0  0.52809724406E+02  0.28113283977E+02 -0.12624734172E+03  0.13970545809E+03  0.00000000000E+00 0. -1.
        -11    1    4    4    0    0 -0.64606466647E+02 -0.28365135139E+02 -0.14111211742E+02  0.71956255606E+02  0.00000000000E+00 0.  1.
         11    1    4    4    0    0  0.26191457396E+02 -0.31232591582E+02  0.15931853794E+02  0.43764039836E+02  0.00000000000E+00 0. -1.
          3    1    1    2  501    0  0.15401352768E+02  0.18948870532E+02 -0.74391584869E+00  0.24429792719E+02  0.00000000000E+00 0. -1.
<scales pt_clust_5="13000.00000" pt_clust_6="13000.00000" pt_clust_7="13000.00000" pt_clust_8="13000.00000" pt_clust_9="24.41846"></scales>
<clustering>
<clus scale="   24.418">  1  9  2 -1</clus>
<clus scale="   89.229">  5  6 -1 -1</clus>
<clus scale="   91.435">  7  8 -1 -1</clus>
<clus scale="  103.162">  2  5  1 -1</clus>
<clus scale="   24.418">  1  5  2 -1</clus>
</clustering>
</event>
<event>
 9    1  0.1399746E-005  0.1308533E+03  0.7546771E-02  0.1226623E+00
          3   -1    0    0  502    0 -0.00000000000E+00  0.00000000000E+00  0.82190045377E+02  0.82190045377E+02  0.00000000000E+00 0. -1.
         21   -1    0    0  501  502  0.00000000000E+00 -0.00000000000E+00 -0.32248145060E+03  0.32248145060E+03  0.00000000000E+00 0.  1.
         23    2    1    2    0    0  0.36433352439E+02 -0.10451693040E+03 -0.63411615350E+02  0.15612663135E+03  0.90018410040E+02 0.  0.
         23    2    1    2    0    0  0.14696720026E+01  0.69255367083E+02 -0.15349189145E+03  0.19173807892E+03  0.91680228835E+02 0.  0.
        -11    1    3    3    0    0  0.50174263910E+02 -0.76472969095E+02 -0.71045163356E+01  0.91739009770E+02  0.00000000000E+00 0.  1.
         11    1    3    3    0    0 -0.13740911472E+02 -0.28043961306E+02 -0.56307099014E+02  0.64387621584E+02  0.00000000000E+00 0. -1.
        -13    1    4    4    0    0  0.39112772784E+02  0.11847827654E+02 -0.87221272467E+02  0.96320975835E+02  0.00000000000E+00 0.  1.
         13    1    4    4    0    0 -0.37643100782E+02  0.57407539429E+02 -0.66270618987E+02  0.95417103083E+02  0.00000000000E+00 0. -1.
          3    1    1    2  501    0 -0.37903024441E+02  0.35261563319E+02 -0.23387898416E+02  0.56806785702E+02  0.00000000000E+00 0. -1.
<scales pt_clust_5="13000.00000" pt_clust_6="13000.00000" pt_clust_7="13000.00000" pt_clust_8="13000.00000" pt_clust_9="51.76891"></scales>
<clustering>
<clus scale="   51.769">  2  9  1 -1</clus>
<clus scale="   90.018">  5  6 -1 -1</clus>
<clus scale="   91.680">  7  8 -1 -1</clus>
<clus scale="  129.694">  1  5  2 -1</clus>
<clus scale="   51.769">  2  5  1 -1</clus>
</clustering>
</event>
<event>
 9    1  0.1399746E-005  0.1297735E+03  0.7546771E-02  0.1229238E+00
         -3   -1    0    0    0  501 -0.00000000000E+00  0.00000000000E+00  0.31155578912E+03  0.31155578912E+03  0.00000000000E+00 0.  1.
         21   -1    0    0  501  502  0.00000000000E+00 -0.00000000000E+00 -0.77661865883E+02  0.77661865883E+02  0.00000000000E+00 0. -1.
         23    2    1    2    0    0  0.35018407202E+01 -0.82417060335E+02  0.18285426600E+03  0.22230345828E+03  0.95803498087E+02 0.  0.
         23    2    1    2    0    0  0.11505037030E+02  0.99880255790E+02  0.48546690216E+02  0.14375422134E+03  0.90554202818E+02 0.  0.
        -11    1    4    4    0    0 -0.87548508897E+01  0.34522754720E+02 -0.24835519020E+02  0.43419707651E+02  0.00000000000E+00 0. -1.
         11    1    4    4    0    0  0.20259887920E+02  0.65357501070E+02  0.73382209235E+02  0.10033451369E+03  0.00000000000E+00 0.  1.
        -13    1    3    3    0    0  0.28312660365E+02  0.39410184484E+01  0.83931481990E+02  0.88665844790E+02  0.00000000000E+00 0.  1.
         13    1    3    3    0    0 -0.24810819645E+02 -0.86358078784E+02  0.98922784009E+02  0.13363761349E+03  0.00000000000E+00 0. -1.
         -3    1    1    2    0  502 -0.15006877751E+02 -0.17463195455E+02  0.24929670214E+01  0.23159975386E+02  0.00000000000E+00 0.  1.
<scales pt_clust_5="13000.00000" pt_clust_6="13000.00000" pt_clust_7="13000.00000" pt_clust_8="13000.00000" pt_clust_9="23.02541"></scales>
<clustering>
<clus scale="   23.025">  2  9  1 -1</clus>
<clus scale="   90.554">  5  6 -1 -1</clus>
<clus scale="   95.803">  7  8 -1 -1</clus>
<clus scale="  125.948">  2  5  1 -1</clus>
<clus scale="   23.025">  2  5  1 -1</clus>
</clustering>
</event>
<event>
 9    1  0.1399746E-005  0.2270633E+03  0.7546771E-02  0.1138061E+00
         21   -1    0    0  501  502  0.00000000000E+00  0.00000000000E+00  0.81189246406E+03  0.81189246406E+03  0.00000000000E+00 0.  1.
         -1   -1    0    0    0  501 -0.00000000000E+00 -0.00000000000E+00 -0.40062979779E+03  0.40062979779E+03  0.00000000000E+00 0.  1.
         23    2    1    2    0    0  0.55702825453E+02 -0.14589481666E+03 -0.28078689465E+03  0.33395314694E+03  0.91078657501E+02 0.  0.
         23    2    1    2    0    0 -0.20639964606E+03 -0.18394473413E+02  0.99740164348E+02  0.24569398992E+03  0.86476966599E+02 0.  0.
        -11    1    3    3    0    0  0.10504017661E+02 -0.12738107492E+03 -0.23223599404E+03  0.26508457058E+03  0.00000000000E+00 0.  1.
         11    1    3    3    0    0  0.45198807792E+02 -0.18513741742E+02 -0.48550900605E+02  0.68868576352E+02  0.00000000000E+00 0. -1.
        -13    1    4    4    0    0 -0.11064877438E+03 -0.94499354752E+01  0.57146431581E+01  0.11119851482E+03  0.00000000000E+00 0. -1.
         13    1    4    4    0    0 -0.95750871682E+02 -0.89445379375E+01  0.94025521190E+02  0.13449547510E+03  0.00000000000E+00 0.  1.
         -1    1    1    2    0  502  0.15069682061E+03  0.16428929007E+03  0.59230939657E+03  0.63287512500E+03  0.00000000000E+00 0.  1.
<scales pt_clust_5="13000.00000" pt_clust_6="13000.00000" pt_clust_7="13000.00000" pt_clust_8="13000.00000" pt_clust_9="209.95109"></scales>
<clustering>
<clus scale="   86.477">  7  8 -1 -1</clus>
<clus scale="   91.079">  5  6 -1 -1</clus>
<clus scale="  180.786">  2  5  1 -1</clus>
<clus scale="  209.951">  1  9  2 -1</clus>
<clus scale="  209.951">  1  5  2 -1</clus>
</clustering>
</event>
<event>
 9    1  0.1399746E-005  0.1128310E+03  0.7546771E-02  0.1256431E+00
         21   -1    0    0  501  502  0.00000000000E+00  0.00000000000E+00  0.11081966911E+03  0.11081966911E+03  0.00000000000E+00 0.  1.
          2   -1    0    0  502    0 -0.00000000000E+00 -0.00000000000E+00 -0.17459719005E+03  0.17459719005E+03  0.00000000000E+00 0. -1.
         23    2    1    2    0    0  0.70981807776E+02  0.44585079707E+01 -0.71614575193E+02  0.13800699735E+03  0.94122200398E+02 0.  0.
         23    2    1    2    0    0 -0.51320618685E+02  0.98698292009E+00 -0.25889831043E+02  0.10799262549E+03  0.91418508905E+02 0.  0.
        -11    1    3    3    0    0  0.74423909042E+02  0.33597887158E+02 -0.29798648693E+02  0.86923505006E+02  0.00000000000E+00 0.  1.
         11    1    3    3    0    0 -0.34421012662E+01 -0.29139379188E+02 -0.41815926500E+02  0.51083492340E+02  0.00000000000E+00 0. -1.
        -11    1    4    4    0    0 -0.57597991165E+02  0.29755111155E+02 -0.39112983717E+02  0.75714732525E+02  0.00000000000E+00 0. -1.
         11    1    4    4    0    0  0.62773724795E+01 -0.28768128235E+02  0.13223152674E+02  0.32277892961E+02  0.00000000000E+00 0.  1.
          2    1    1    2  501    0 -0.19661189091E+02 -0.54454908908E+01  0.33726885299E+02  0.39417236325E+02  0.00000000000E+00 0. -1.
<scales pt_clust_5="13000.00000" pt_clust_6="13000.00000" pt_clust_7="13000.00000" pt_clust_8="13000.00000" pt_clust_9="20.40137"></scales>
<clustering>
<clus scale="   20.401">  1  9  2 -1</clus>
<clus scale="   91.419">  7  8 -1 -1</clus>
<clus scale="   94.122">  5  6 -1 -1</clus>
<clus scale="  110.586">  1  7  2 -1</clus>
<clus scale="   20.401">  1  5  2 -1</clus>
</clustering>
</event>
<event>
 9    1  0.1399746E-005  0.2887879E+03  0.7546771E-02  0.1091261E+00
         21   -1    0    0  501  502  0.00000000000E+00  0.00000000000E+00  0.72983524515E+03  0.72983524515E+03  0.00000000000E+00 0.  1.
          1   -1    0    0  502    0 -0.00000000000E+00 -0.00000000000E+00 -0.17359074966E+03  0.17359074966E+03  0.00000000000E+00 0. -1.
         23    2    1    2    0    0 -0.12596177803E+02 -0.27369017811E+03  0.29892466915E+02  0.29253650355E+03  0.98076852731E+02 0.  0.
         23    2    1    2    0    0  0.39495313665E+02  0.26213560762E+03  0.48384993546E+03  0.55928038810E+03  0.91699704940E+02 0.  0.
        -11    1    3    3    0    0  0.19150682897E+02 -0.12105185762E+02  0.17699948984E+02  0.28750171683E+02  0.00000000000E+00 0.  1.
         11    1    3    3    0    0 -0.31746860700E+02 -0.26158499235E+03  0.12192517931E+02  0.26378633187E+03  0.00000000000E+00 0. -1.
        -11    1    4    4    0    0  0.18209441721E+02  0.34540625612E+02  0.14768250849E+03  0.15275719918E+03  0.00000000000E+00 0. -1.
         11    1    4    4    0    0  0.21285871944E+02  0.22759498201E+03  0.33616742696E+03  0.40652318892E+03  0.00000000000E+00 0.  1.
          1    1    1    2  501    0 -0.26899135862E+02  0.11554570495E+02  0.42502093115E+02  0.51609103157E+02  0.00000000000E+00 0. -1.
<scales pt_clust_5="13000.00000" pt_clust_6="13000.00000" pt_clust_7="13000.00000" pt_clust_8="13000.00000" pt_clust_9="29.27579"></scales>
<clustering>
<clus scale="   29.276">  1  9  2 -1</clus>
<clus scale="   91.700">  7  8 -1 -1</clus>
<clus scale="   98.077">  5  6 -1 -1</clus>
<clus scale="  286.685">  1  7  2 -1</clus>
<clus scale="   29.276">  1  5  2 -1</clus>
</clustering>
</event>
<event>
 9    1  0.1399746E-005  0.1836508E+03  0.7546771E-02  0.1166062E+00
         21   -1    0    0  501  502  0.00000000000E+00  0.00000000000E+00  0.70207265947E+02  0.70207265947E+02  0.00000000000E+00 0.  1.
         -2   -1    0    0    0  501 -0.00000000000E+00 -0.00000000000E+00 -0.66965067278E+03  0.66965067278E+03  0.00000000000E+00 0.  1.
         23    2    1    2    0    0  0.80851502927E+02 -0.91103525098E+02 -0.21656465543E+03  0.26981542568E+03  0.10518220450E+03 0.  0.
         23    2    1    2    0    0 -0.13641291899E+03  0.12513087311E+03 -0.30608117486E+03  0.36933104830E+03  0.91943013661E+02 0.  0.
        -11    1    3    3    0    0  0.89975925877E+02 -0.44002382485E+02 -0.19047511994E+03  0.21520373653E+03  0.00000000000E+00 0.  1.
         11    1    3    3    0    0 -0.91244229503E+01 -0.47101142613E+02 -0.26089535494E+02  0.54611689151E+02  0.00000000000E+00 0. -1.
        -13    1    4    4    0    0 -0.96913056409E+02  0.12333907664E+03 -0.18821469748E+03  0.24500906244E+03  0.00000000000E+00 0.  1.
         13    1    4    4    0    0 -0.39499862586E+02  0.17917964709E+01 -0.11786647738E+03  0.12432198586E+03  0.00000000000E+00 0. -1.
         -2    1    1    2    0  502  0.55561416068E+02 -0.34027348014E+02 -0.76797576551E+02  0.10071146475E+03  0.00000000000E+00 0.  1.
<scales pt_clust_5="13000.00000" pt_clust_6="13000.00000" pt_clust_7="13000.00000" pt_clust_8="13000.00000" pt_clust_9="65.15314"></scales>
<clustering>
<clus scale="   65.153">  1  9  2 -1</clus>
<clus scale="   91.943">  7  8 -1 -1</clus>
<clus scale="  105.182">  5  6 -1 -1</clus>
<clus scale="  176.402">  1  7  2 -1</clus>
<clus scale="   65.153">  1  5  2 -1</clus>
</clustering>
</event>
<event>
 9    1  0.1399746E-005  0.1157631E+03  0.7546771E-02  0.1251559E+00
         21   -1    0    0  501  502  0.00000000000E+00  0.00000000000E+00  0.24279941795E+03  0.24279941795E+03  0.00000000000E+00 0. -1.
          2   -1    0    0  502    0 -0.00000000000E+00 -0.00000000000E+00 -0.11759808703E+03  0.11759808703E+03  0.00000000000E+00 0. -1.
         23    2    1    2    0    0  0.55039537080E+02 -0.60768590684E+02  0.11759568116E+01  0.12305619635E+03  0.91756592846E+02 0.  0.
         23    2    1    2    0    0 -0.65002328971E+02 -0.14564847352E+02  0.37622646009E+02  0.12227691131E+03  0.95387326188E+02 0.  0.
        -11    1    3    3    0    0 -0.59698660148E+01 -0.58759870253E+02  0.13959303670E+02  0.60689569214E+02  0.00000000000E+00 0. -1.
         11    1    3    3    0    0  0.61009403094E+02 -0.20087204302E+01 -0.12783346858E+02  0.62366627138E+02  0.00000000000E+00 0.  1.
        -11    1    4    4    0    0 -0.49411984329E+02 -0.46835646008E+02  0.49880790492E+02  0.84399142131E+02  0.00000000000E+00 0.  1.
         11    1    4    4    0    0 -0.15590344642E+02  0.32270798656E+02 -0.12258144483E+02  0.37877769181E+02  0.00000000000E+00 0. -1.
          2    1    1    2  501    0  0.99627918916E+01  0.75333438035E+02  0.86402728093E+02  0.11506439732E+03  0.00000000000E+00 0. -1.
<scales pt_clust_5="13000.00000" pt_clust_6="13000.00000" pt_clust_7="13000.00000" pt_clust_8="13000.00000" pt_clust_9="75.98937"></scales>
<clustering>
<clus scale="   75.989">  1  9  2 -1</clus>
<clus scale="   91.757">  5  6 -1 -1</clus>
<clus scale="   95.387">  7  8 -1 -1</clus>
<clus scale="  112.790">  2  5  1 -1</clus>
<clus scale="   75.989">  1  5  2 -1</clus>
</clustering>
</event>
<event>
 9    1  0.1399746E-005  0.1903410E+03  0.7546771E-02  0.1173815E+00
         -1   -1    0    0    0  501 -0.00000000000E+00  0.00000000000E+00  0.11697439711E+04  0.11697439711E+04  0.00000000000E+00 0.  1.
         21   -1    0    0  501  502  0.00000000000E+00 -0.00000000000E+00 -0.64627810943E+02  0.64627810943E+02  0.00000000000E+00 0.  1.
         23    2    1    2    0    0  0.86411165606E+02 -0.44973365742E+02  0.37169063329E+03  0.39466722825E+03  0.90104389527E+02 0.  0.
         23    2    1    2    0    0 -0.10768036382E+03 -0.12903683274E+03  0.56661230909E+03  0.59771575738E+03  0.89269551664E+02 0.  0.
        -13    1    3    3    0    0  0.23044882645E+02 -0.43654365671E+02  0.27265184075E+03  0.27708445738E+03  0.00000000000E+00 0.  1.
         13    1    3    3    0    0  0.63366282961E+02 -0.13190000710E+01  0.99038792542E+02  0.11758277087E+03  0.00000000000E+00 0. -1.
        -13    1    4    4    0    0 -0.45913196725E+02 -0.11056796906E+00  0.10846744266E+03  0.11778463387E+03  0.00000000000E+00 0. -1.
         13    1    4    4    0    0 -0.61767167094E+02 -0.12892626477E+03  0.45814486643E+03  0.47993112351E+03  0.00000000000E+00 0.  1.
         -1    1    1    2    0  502  0.21269198213E+02  0.17401019848E+03  0.16681321781E+03  0.24198879644E+03  0.00000000000E+00 0.  1.
<scales pt_clust_5="13000.00000" pt_clust_6="13000.00000" pt_clust_7="13000.00000" pt_clust_8="13000.00000" pt_clust_9="168.10902"></scales>
<clustering>
<clus scale="   89.270">  7  8 -1 -1</clus>
<clus scale="   90.104">  5  6 -1 -1</clus>
<clus scale="  132.696">  1  5  2 -1</clus>
<clus scale="  168.109">  2  9  1 -1</clus>
<clus scale="  168.109">  2  5  1 -1</clus>
</clustering>
</event>
<event>
 9    1  0.1399746E-005  0.1472874E+03  0.7546771E-02  0.1204066E+00
         21   -1    0    0  501  502  0.00000000000E+00  0.00000000000E+00  0.19770864420E+03  0.19770864420E+03  0.00000000000E+00 0. -1.
          3   -1    0    0  502    0 -0.00000000000E+00 -0.00000000000E+00 -0.18933852939E+03  0.18933852939E+03  0.00000000000E+00 0. -1.
         23    2    1    2    0    0 -0.26578742994E+02 -0.12066419193E+03 -0.97797029144E+02  0.18172154570E+03  0.90510687048E+02 0.  0.
         23    2    1    2    0    0  0.17673619782E+02  0.94999806656E+02  0.48759185493E+02  0.14181471870E+03  0.91633160854E+02 0.  0.
        -11    1    4    4    0    0  0.38300236559E+02  0.68734305925E+02  0.67367119805E+02  0.10358398410E+03  0.00000000000E+00 0.  1.
         11    1    4    4    0    0 -0.20626616777E+02  0.26265500731E+02 -0.18607934312E+02  0.38230734595E+02  0.00000000000E+00 0. -1.
        -13    1    3    3    0    0  0.20830373317E+02 -0.41439038537E+02 -0.72371504307E+02  0.85957739634E+02  0.00000000000E+00 0.  1.
         13    1    3    3    0    0 -0.47409116311E+02 -0.79225153390E+02 -0.25425524838E+02  0.95763806067E+02  0.00000000000E+00 0. -1.
          3    1    1    2  501    0  0.89051232125E+01  0.25664385271E+02  0.57407958468E+02  0.63510909190E+02  0.00000000000E+00 0. -1.
<scales pt_clust_5="13000.00000" pt_clust_6="13000.00000" pt_clust_7="13000.00000" pt_clust_8="13000.00000" pt_clust_9="27.16545"></scales>
<clustering>
<clus scale="   27.165">  1  9  2 -1</clus>
<clus scale="   90.511">  7  8 -1 -1</clus>
<clus scale="   91.633">  5  6 -1 -1</clus>
<clus scale="  146.592">  2  7  1 -1</clus>
<clus scale="   27.165">  1  5  2 -1</clus>
</clustering>
</event>
<event>
 9    1  0.1399746E-005  0.9591301E+02  0.7546771E-02  0.1289480E+00
          1   -1    0    0  502    0 -0.00000000000E+00  0.00000000000E+00  0.46705264228E+03  0.46705264228E+03  0.00000000000E+00 0. -1.
         21   -1    0    0  501  502  0.00000000000E+00 -0.00000000000E+00 -0.42475054159E+02  0.42475054159E+02  0.00000000000E+00 0. -1.
         23    2    1    2    0    0 -0.22352831736E+02  0.40300805264E+01  0.32199623771E+03  0.33556176412E+03  0.91674586480E+02 0.  0.
         23    2    1    2    0    0  0.40215346179E+02 -0.23527118314E+02  0.10602443948E+03  0.14730024712E+03  0.91024071920E+02 0.  0.
        -11    1    3    3    0    0 -0.60912744484E+01  0.44938251766E+02  0.10888389671E+03  0.11795021432E+03  0.00000000000E+00 0.  1.
         11    1    3    3    0    0 -0.16261557287E+02 -0.40908171240E+02  0.21311234100E+03  0.21761154980E+03  0.00000000000E+00 0. -1.
        -13    1    4    4    0    0  0.64476247968E+02 -0.34943011201E+02  0.89878929389E+02  0.11600182124E+03  0.00000000000E+00 0.  1.
         13    1    4    4    0    0 -0.24260901788E+02  0.11415892887E+02  0.16145510094E+02  0.31298425874E+02  0.00000000000E+00 0. -1.
          1    1    1    2  501    0 -0.17862514443E+02  0.19497037788E+02 -0.34430890717E+01  0.26665685198E+02  0.00000000000E+00 0. -1.
<scales pt_clust_5="13000.00000" pt_clust_6="13000.00000" pt_clust_7="13000.00000" pt_clust_8="13000.00000" pt_clust_9="26.44246"></scales>
<clustering>
<clus scale="   26.442">  2  9  1 -1</clus>
<clus scale="   91.024">  7  8 -1 -1</clus>
<clus scale="   91.675">  5  6 -1 -1</clus>
<clus scale="   95.291">  2  7  1 -1</clus>
<clus scale="   26.442">  2  5  1 -1</clus>
</clustering>
</event>
<event>
 9    1  0.1399746E-005  0.1008905E+03  0.7546771E-02  0.1279895E+00
          2   -1    0    0  502    0 -0.00000000000E+00  0.00000000000E+00  0.48572787388E+03  0.48572787388E+03  0.00000000000E+00 0. -1.
         21   -1    0    0  501  502  0.00000000000E+00 -0.00000000000E+00 -0.50927418215E+02  0.50927418215E+02  0.00000000000E+00 0. -1.
         23    2    1    2    0    0  0.20668784406E+02 -0.12594475538E+02  0.25075310417E+03  0.26784264567E+03  0.90976613051E+02 0.  0.
         23    2    1    2    0    0 -0.20717834810E+02  0.66351094499E+02  0.18037645746E+03  0.21493081321E+03  0.93956860537E+02 0.  0.
        -11    1    3    3    0    0  0.13738936582E+02  0.37428617524E+02  0.74507721462E+02  0.84504794808E+02  0.00000000000E+00 0.  1.
         11    1    3    3    0    0  0.69298478247E+01 -0.50023093062E+02  0.17624538271E+03  0.18333785086E+03  0.00000000000E+00 0. -1.
        -11    1    4    4    0    0 -0.16597317273E+02 -0.13010848576E+02  0.98873074398E+02  0.10109717089E+03  0.00000000000E+00 0. -1.
         11    1    4    4    0    0 -0.41205175363E+01  0.79361943075E+02  0.81503383058E+02  0.11383364232E+03  0.00000000000E+00 0.  1.
          2    1    1    2  501    0  0.49050403098E-01 -0.53756618961E+02  0.36708940364E+01  0.53881833219E+02  0.00000000000E+00 0. -1.
<scales pt_clust_5="13000.00000" pt_clust_6="13000.00000" pt_clust_7="13000.00000" pt_clust_8="13000.00000" pt_clust_9="53.75664"></scales>
<clustering>
<clus scale="   53.757">  2  9  1 -1</clus>
<clus scale="   90.977">  5  6 -1 -1</clus>
<clus scale="   93.957">  7  8 -1 -1</clus>
<clus scale="   98.121">  1  5  2 -1</clus>
<clus scale="   53.757">  2  5  1 -1</clus>
</clustering>
</event>
<event>
 9    1  0.1399746E-005  0.3906592E+03  0.7546771E-02  0.1097426E+00
          2   -1    0    0  502    0 -0.00000000000E+00  0.00000000000E+00  0.10101443792E+04  0.10101443792E+04  0.00000000000E+00 0. -1.
         21   -1    0    0  501  502  0.00000000000E+00 -0.00000000000E+00 -0.41944412601E+03  0.41944412601E+03  0.00000000000E+00 0. -1.
         23    2    1    2    0    0 -0.33877707288E+02 -0.10950163379E+02  0.17473617654E+03  0.20059802171E+03  0.91865280657E+02 0.  0.
         23    2    1    2    0    0  0.67377716406E+02  0.38776048889E+03  0.66362429740E+03  0.77683580091E+03  0.90436165675E+02 0.  0.
        -11    1    3    3    0    0 -0.39368401705E+02  0.31929606972E+02  0.63456759094E+02  0.81216569300E+02  0.00000000000E+00 0.  1.
         11    1    3    3    0    0  0.54906944173E+01 -0.42879770352E+02  0.11127941745E+03  0.11938145241E+03  0.00000000000E+00 0. -1.
        -11    1    4    4    0    0  0.31982959993E+02  0.44602354421E+02  0.13356110935E+03  0.14439823295E+03  0.00000000000E+00 0.  1.
         11    1    4    4    0    0  0.35394756413E+02  0.34315813447E+03  0.53006318806E+03  0.63243756796E+03  0.00000000000E+00 0. -1.
          2    1    1    2  501    0 -0.33500009118E+02 -0.37681032551E+03 -0.24766022077E+03  0.45215468257E+03  0.00000000000E+00 0. -1.
<scales pt_clust_5="13000.00000" pt_clust_6="13000.00000" pt_clust_7="13000.00000" pt_clust_8="13000.00000" pt_clust_9="380.04727"></scales>
<clustering>
<clus scale="   90.436">  7  8 -1 -1</clus>
<clus scale="   91.865">  5  6 -1 -1</clus>
<clus scale="   98.523">  1  5  2 -1</clus>
<clus scale="  380.047">  2  9  1 -1</clus>
<clus scale="  380.047">  2  5  1 -1</clus>
</clustering>
</event>
<event>
 9    1  0.1399746E-005  0.1688804E+03  0.7546771E-02  0.1200249E+00
         -3   -1    0    0    0  501 -0.00000000000E+00  0.00000000000E+00  0.37452812001E+03  0.37452812001E+03  0.00000000000E+00 0.  1.
         21   -1    0    0  501  502  0.00000000000E+00 -0.00000000000E+00 -0.47197207726E+03  0.47197207726E+03  0.00000000000E+00 0.  1.
         23    2    1    2    0    0  0.16874877886E+02 -0.50429881492E+02  0.28424358614E+03  0.30323234315E+03  0.91255154478E+02 0.  0.
         23    2    1    2    0    0  0.20563494208E+02 -0.97371069219E+02 -0.22152576515E+01  0.13431068230E+03  0.90169116659E+02 0.  0.
        -11    1    4    4    0    0  0.48900268605E+02 -0.71235906619E+02 -0.24464826932E+02  0.89801550200E+02  0.00000000000E+00 0. -1.
         11    1    4    4    0    0 -0.28336774397E+02 -0.26135162600E+02  0.22249569280E+02  0.44509132102E+02  0.00000000000E+00 0.  1.
        -13    1    3    3    0    0  0.52287955917E+02 -0.40604802126E+02  0.14824458188E+03  0.16235527816E+03  0.00000000000E+00 0.  1.
         13    1    3    3    0    0 -0.35413078030E+02 -0.98250793661E+01  0.13599900426E+03  0.14087706499E+03  0.00000000000E+00 0. -1.
         -3    1    1    2    0  502 -0.37438372095E+02  0.14780095071E+03 -0.37947228574E+03  0.40895717182E+03  0.00000000000E+00 0.  1.
<scales pt_clust_5="13000.00000" pt_clust_6="13000.00000" pt_clust_7="13000.00000" pt_clust_8="13000.00000" pt_clust_9="142.79397"></scales>
<clustering>
<clus scale="   90.169">  5  6 -1 -1</clus>
<clus scale="   91.255">  7  8 -1 -1</clus>
<clus scale="  105.619">  1  7  2 -1</clus>
<clus scale="  142.794">  2  9  1 -1</clus>
<clus scale="  142.794">  2  5  1 -1</clus>
</clustering>
</event>
<event>
 9    1  0.1399746E-005  0.2488335E+03  0.7546771E-02  0.1114650E+00
         21   -1    0    0  501  502  0.00000000000E+00  0.00000000000E+00  0.29423264622E+03  0.29423264622E+03  0.00000000000E+00 0. -1.
          1   -1    0    0  502    0 -0.00000000000E+00 -0.00000000000E+00 -0.34699508930E+03  0.34699508930E+03  0.00000000000E+00 0. -1.
         23    2    1    2    0    0 -0.21396426620E+03  0.11862434250E+03 -0.19618559585E+03  0.32293963337E+03  0.77128314725E+02 0.  0.
         23    2    1    2    0    0  0.18606414103E+03 -0.83947592068E+02  0.71401759573E+02  0.23362420734E+03  0.88402467122E+02 0.  0.
        -13    1    3    3    0    0 -0.12001546733E+03  0.42156632901E+02 -0.59903538928E+02  0.14060344261E+03  0.00000000000E+00 0.  1.
         13    1    3    3    0    0 -0.93948798868E+02  0.76467709603E+02 -0.13628205692E+03  0.18233619076E+03  0.00000000000E+00 0. -1.
        -13    1    4    4    0    0  0.80329428358E+01 -0.35927458553E+02  0.21353302234E+02  0.42559064428E+02  0.00000000000E+00 0.  1.
         13    1    4    4    0    0  0.17803119820E+03 -0.48020133515E+02  0.50048457339E+02  0.19106514291E+03  0.00000000000E+00 0. -1.
          1    1    1    2  501    0  0.27900125167E+02 -0.34676750437E+02  0.72021393205E+02  0.84663894809E+02  0.00000000000E+00 0. -1.
<scales pt_clust_5="13000.00000" pt_clust_6="13000.00000" pt_clust_7="13000.00000" pt_clust_8="13000.00000" pt_clust_9="44.50724"></scales>
<clustering>
<clus scale="   44.507">  1  9  2 -1</clus>
<clus scale="   77.128">  5  6 -1 -1</clus>
<clus scale="   88.402">  7  8 -1 -1</clus>
<clus scale="  245.055">  2  5  1 -1</clus>
<clus scale="   44.507">  1  5  2 -1</clus>
</clustering>
</event>
<event>
 9    1  0.1399746E-005  0.1123394E+03  0.7546771E-02  0.1258029E+00
         21   -1    0    0  501  502  0.00000000000E+00  0.00000000000E+00  0.34335724498E+02  0.34335724498E+02  0.00000000000E+00 0.  1.
          1   -1    0    0  502    0 -0.00000000000E+00 -0.00000000000E+00 -0.50011002002E+03  0.50011002002E+03  0.00000000000E+00 0. -1.
         23    2    1    2    0    0 -0.26203691685E+02  0.49379559973E+02 -0.25470561883E+03  0.27509338296E+03  0.87615310800E+02 0.  0.
         23    2    1    2    0    0  0.31413146166E+02 -0.74981386962E+02 -0.15806065180E+03  0.20025546939E+03  0.92250144868E+02 0.  0.
        -11    1    4    4    0    0  0.33975153994E+02 -0.34042967696E+02 -0.13452019535E+02  0.49941881903E+02  0.00000000000E+00 0.  1.
         11    1    4    4    0    0 -0.25620078278E+01 -0.40938419267E+02 -0.14460863227E+03  0.15031358748E+03  0.00000000000E+00 0. -1.
        -13    1    3    3    0    0 -0.21892332701E+02  0.74638982358E+02 -0.20285217087E+03  0.21725389559E+03  0.00000000000E+00 0. -1.
         13    1    3    3    0    0 -0.43113589836E+01 -0.25259422384E+02 -0.51853447953E+02  0.57839487378E+02  0.00000000000E+00 0.  1.
          1    1    1    2  501    0 -0.52094544809E+01  0.25601826989E+02 -0.53008024896E+02  0.59096892173E+02  0.00000000000E+00 0. -1.
<scales pt_clust_5="13000.00000" pt_clust_6="13000.00000" pt_clust_7="13000.00000" pt_clust_8="13000.00000" pt_clust_9="26.12647"></scales>
<clustering>
<clus scale="   26.126">  1  9  2 -1</clus>
<clus scale="   87.615">  7  8 -1 -1</clus>
<clus scale="   92.250">  5  6 -1 -1</clus>
<clus scale="  108.566">  2  7  1 -1</clus>
<clus scale="   26.126">  1  5  2 -1</clus>
</clustering>
</event>
<event>
 9    1  0.1399746E-005  0.2713866E+03  0.7546771E-02  0.1131671E+00
         21   -1    0    0  501  502  0.00000000000E+00  0.00000000000E+00  0.54267530233E+03  0.54267530233E+03  0.00000000000E+00 0. -1.
          1   -1    0    0  502    0 -0.00000000000E+00 -0.00000000000E+00 -0.44683677424E+03  0.44683677424E+03  0.00000000000E+00 0. -1.
         23    2    1    2    0    0 -0.58803635128E+02 -0.54862769661E+02 -0.22411266317E+03  0.25598881230E+03  0.93999974611E+02 0.  0.
         23    2    1    2    0    0 -0.12870470607E+03 -0.20164601576E+03  0.32767858701E+03  0.41569336062E+03  0.90563219023E+02 0.  0.
        -11    1    3    3    0    0 -0.41328395203E+02  0.17374996700E+02 -0.52908440340E+02  0.69348610798E+02  0.00000000000E+00 0.  1.
         11    1    3    3    0    0 -0.17475239925E+02 -0.72237766361E+02 -0.17120422283E+03  0.18664020150E+03  0.00000000000E+00 0. -1.
        -13    1    4    4    0    0 -0.24940906552E+02 -0.19629608842E+02  0.10609425313E+03  0.11074006010E+03  0.00000000000E+00 0.  1.
         13    1    4    4    0    0 -0.10376379951E+03 -0.18201640692E+03  0.22158433388E+03  0.30495330052E+03  0.00000000000E+00 0. -1.
          1    1    1    2  501    0  0.18750834119E+03  0.25650878542E+03 -0.77273957404E+01  0.31782990366E+03  0.00000000000E+00 0. -1.
<scales pt_clust_5="13000.00000" pt_clust_6="13000.00000" pt_clust_7="13000.00000" pt_clust_8="13000.00000" pt_clust_9="255.83009"></scales>
<clustering>
<clus scale="   90.563">  7  8 -1 -1</clus>
<clus scale="   94.000">  5  6 -1 -1</clus>
<clus scale="  123.708">  2  5  1 -1</clus>
<clus scale="  255.830">  1  9  2 -1</clus>
<clus scale="  255.830">  1  5  2 -1</clus>
</clustering>
</event>
<event>
 9    1  0.1399746E-005  0.1051578E+03  0.7546771E-02  0.1271183E+00
         21   -1    0    0  501  502  0.00000000000E+00  0.00000000000E+00  0.25928035055E+03  0.25928035055E+03  0.00000000000E+00 0.  1.
         -3   -1    0    0    0  501 -0.00000000000E+00 -0.00000000000E+00 -0.10025376566E+03  0.10025376566E+03  0.00000000000E+00 0.  1.
         23    2    1    2    0    0  0.28246015670E+02  0.35117981035E+02 -0.10133192105E+02  0.10300155919E+03  0.92062639658E+02 0.  0.
         23    2    1    2    0    0 -0.11262431700E+02 -0.45713201454E+02  0.22471194306E+02  0.10848445298E+03  0.95117731308E+02 0.  0.
        -11    1    4    4    0    0 -0.29887060368E+02  0.36287187945E+01 -0.23757857049E+02  0.38351528641E+02  0.00000000000E+00 0.  1.
         11    1    4    4    0    0  0.18624628668E+02 -0.49341920248E+02  0.46229051355E+02  0.70132924336E+02  0.00000000000E+00 0. -1.
        -13    1    3    3    0    0 -0.29938015838E+02  0.26526689865E+02 -0.17627132503E+02  0.43711164109E+02  0.00000000000E+00 0.  1.
         13    1    3    3    0    0  0.58184031508E+02  0.85912911706E+01  0.74939403981E+01  0.59290395084E+02  0.00000000000E+00 0. -1.
         -3    1    1    2    0  502 -0.16983583970E+02  0.10595220418E+02  0.14668858269E+03  0.14804810404E+03  0.00000000000E+00 0.  1.
<scales pt_clust_5="13000.00000" pt_clust_6="13000.00000" pt_clust_7="13000.00000" pt_clust_8="13000.00000" pt_clust_9="20.01751"></scales>
<clustering>
<clus scale="   20.018">  1  9  2 -1</clus>
<clus scale="   92.063">  7  8 -1 -1</clus>
<clus scale="   95.118">  5  6 -1 -1</clus>
<clus scale="  102.403">  2  7  1 -1</clus>
<clus scale="   20.018">  1  5  2 -1</clus>
</clustering>
</event>
<event>
 9    1  0.1399746E-005  0.1345961E+03  0.7546771E-02  0.1222104E+00
         -4   -1    0    0    0  501 -0.00000000000E+00  0.00000000000E+00  0.56955827466E+02  0.56955827466E+02  0.00000000000E+00 0.  1.
         21   -1    0    0  501  502  0.00000000000E+00 -0.00000000000E+00 -0.46429846703E+03  0.46429846703E+03  0.00000000000E+00 0.  1.
         23    2    1    2    0    0  0.11264491828E+03  0.12765583047E+02 -0.15380539306E+03  0.21319630326E+03  0.94576567195E+02 0.  0.
         23    2    1    2    0    0 -0.74840159781E+02  0.20708758291E+02 -0.21148593806E+03  0.24234616708E+03  0.89305433842E+02 0.  0.
        -11    1    3    3    0    0  0.64590692761E+02  0.12285910414E+02 -0.16590896967E+02  0.67809726796E+02  0.00000000000E+00 0. -1.
         11    1    3    3    0    0  0.48054225517E+02  0.47967263312E+00 -0.13721449610E+03  0.14538657646E+03  0.00000000000E+00 0.  1.
        -13    1    4    4    0    0 -0.34568563983E+02 -0.35268510352E+02 -0.87728837101E+02  0.10067374185E+03  0.00000000000E+00 0.  1.
         13    1    4    4    0    0 -0.40271595798E+02  0.55977268643E+02 -0.12375710096E+03  0.14167242523E+03  0.00000000000E+00 0. -1.
         -4    1    1    2    0  502 -0.37804758497E+02 -0.33474341338E+02 -0.42051308438E+02  0.65711824159E+02  0.00000000000E+00 0.  1.
<scales pt_clust_5="13000.00000" pt_clust_6="13000.00000" pt_clust_7="13000.00000" pt_clust_8="13000.00000" pt_clust_9="50.49489"></scales>
<clustering>
<clus scale="   50.495">  2  9  1 -1</clus>
<clus scale="   89.305">  7  8 -1 -1</clus>
<clus scale="   94.577">  5  6 -1 -1</clus>
<clus scale="  130.946">  2  7  1 -1</clus>
<clus scale="   50.495">  2  5  1 -1</clus>
</clustering>
</event>
<event>
 9    1  0.1399746E-005  0.1132056E+03  0.7546771E-02  0.1256062E+00
         21   -1    0    0  501  502  0.00000000000E+00  0.00000000000E+00  0.77065283923E+02  0.77065283923E+02  0.00000000000E+00 0.  1.
          1   -1    0    0  502    0 -0.00000000000E+00 -0.00000000000E+00 -0.38304562903E+03  0.38304562903E+03  0.00000000000E+00 0. -1.
         23    2    1    2    0    0 -0.87672875671E+01  0.38423276292E+02 -0.14895674611E+03  0.18094439412E+03  0.94865947834E+02 0.  0.
         23    2    1    2    0    0 -0.12770309065E+02 -0.94412619591E+02 -0.17249965178E+03  0.21721344917E+03  0.91371380108E+02 0.  0.
        -13    1    4    4    0    0 -0.39026209554E+02 -0.11369870373E+02 -0.31257176848E+02  0.51276993759E+02  0.00000000000E+00 0. -1.
         13    1    4    4    0    0  0.26255900489E+02 -0.83042749218E+02 -0.14124247493E+03  0.16593645541E+03  0.00000000000E+00 0.  1.
        -13    1    3    3    0    0  0.69067069588E+01  0.53216800164E+02 -0.32991737218E+02  0.62993532568E+02  0.00000000000E+00 0.  1.
         13    1    3    3    0    0 -0.15673994526E+02 -0.14793523872E+02 -0.11596500889E+03  0.11795086155E+03  0.00000000000E+00 0. -1.
          1    1    1    2  501    0  0.21537596632E+02  0.55989343299E+02  0.15476052783E+02  0.61953069669E+02  0.00000000000E+00 0. -1.
<scales pt_clust_5="13000.00000" pt_clust_6="13000.00000" pt_clust_7="13000.00000" pt_clust_8="13000.00000" pt_clust_9="59.98895"></scales>
<clustering>
<clus scale="   59.989">  1  9  2 -1</clus>
<clus scale="   91.371">  5  6 -1 -1</clus>
<clus scale="   94.866">  7  8 -1 -1</clus>
<clus scale="  110.294">  1  5  2 -1</clus>
<clus scale="   59.989">  1  5  2 -1</clus>
</clustering>
</event>
<event>
 9    1  0.1399746E-005  0.9829992E+02  0.7546771E-02  0.1285146E+00
          1   -1    0    0  502    0 -0.00000000000E+00  0.00000000000E+00  0.23875368416E+03  0.23875368416E+03  0.00000000000E+00 0. -1.
         21   -1    0    0  501  502  0.00000000000E+00 -0.00000000000E+00 -0.25479540198E+03  0.25479540198E+03  0.00000000000E+00 0. -1.
         23    2    1    2    0    0  0.12575166330E+02  0.17359988471E+02  0.12153429161E+03  0.15285341112E+03  0.90189119319E+02 0.  0.
         23    2    1    2    0    0 -0.53077492244E+02 -0.24306011193E+02  0.69445968619E+02  0.12963458189E+03  0.92597947608E+02 0.  0.
        -13    1    4    4    0    0 -0.13280852616E+02  0.23322724238E+02 -0.10155150984E+02  0.28695950996E+02  0.00000000000E+00 0.  1.
         13    1    4    4    0    0 -0.39796639628E+02 -0.47628735431E+02  0.79601119603E+02  0.10093863089E+03  0.00000000000E+00 0. -1.
        -13    1    3    3    0    0  0.14338979516E+02 -0.36264865196E+02  0.48662471361E+02  0.62360106640E+02  0.00000000000E+00 0. -1.
         13    1    3    3    0    0 -0.17638131858E+01  0.53624853668E+02  0.72871820254E+02  0.90493304476E+02  0.00000000000E+00 0.  1.
          1    1    1    2  501    0  0.40502325913E+02  0.69460227213E+01 -0.20702197806E+03  0.21106109313E+03  0.00000000000E+00 0. -1.
<scales pt_clust_5="13000.00000" pt_clust_6="13000.00000" pt_clust_7="13000.00000" pt_clust_8="13000.00000" pt_clust_9="41.09362"></scales>
<clustering>
<clus scale="   41.094">  2  9  1 -1</clus>
<clus scale="   90.189">  7  8 -1 -1</clus>
<clus scale="   92.598">  5  6 -1 -1</clus>
<clus scale="   96.034">  1  7  2 -1</clus>
<clus scale="   41.094">  2  5  1 -1</clus>
</clustering>
</event>
<event>
 9    1  0.1399746E-005  0.9647298E+02  0.7546771E-02  0.1297183E+00
         -4   -1    0    0    0  501 -0.00000000000E+00  0.00000000000E+00  0.30152786598E+03  0.30152786598E+03  0.00000000000E+00 0.  1.
         21   -1    0    0  501  502  0.00000000000E+00 -0.00000000000E+00 -0.31954780510E+03  0.31954780510E+03  0.00000000000E+00 0.  1.
         23    2    1    2    0    0 -0.40800676440E+01 -0.17657755249E+02  0.15316703551E+03  0.17990842355E+03  0.92619959109E+02 0.  0.
         23    2    1    2    0    0  0.54265066690E+02 -0.88056588565E+01  0.11542839066E+03  0.14899056462E+03  0.76499920810E+02 0.  0.
        -11    1    4    4    0    0  0.11864546817E+02  0.19397040335E+02 -0.98584485042E-01  0.22738125776E+02  0.00000000000E+00 0. -1.
         11    1    4    4    0    0  0.42400519873E+02 -0.28202699191E+02  0.11552697515E+03  0.12625243884E+03  0.00000000000E+00 0.  1.
        -13    1    3    3    0    0  0.25509827964E+02  0.29283172636E+02  0.65995608645E+02  0.76574642557E+02  0.00000000000E+00 0. -1.
         13    1    3    3    0    0 -0.29589895608E+02 -0.46940927885E+02  0.87171426869E+02  0.10333378100E+03  0.00000000000E+00 0.  1.
         -4    1    1    2    0  502 -0.50184999046E+02  0.26463414106E+02 -0.28661536529E+03  0.29217668291E+03  0.00000000000E+00 0.  1.
<scales pt_clust_5="13000.00000" pt_clust_6="13000.00000" pt_clust_7="13000.00000" pt_clust_8="13000.00000" pt_clust_9="56.73488"></scales>
<clustering>
<clus scale="   56.735">  2  9  1 -1</clus>
<clus scale="   76.500">  5  6 -1 -1</clus>
<clus scale="   81.122">  2  5  1 -1</clus>
<clus scale="   92.620">  7  8 -1 -1</clus>
<clus scale="   56.735">  2  5  1 -1</clus>
</clustering>
</event>
<event>
 9    1  0.1399746E-005  0.2016032E+03  0.7546771E-02  0.1148421E+00
         21   -1    0    0  501  502  0.00000000000E+00  0.00000000000E+00  0.36172843356E+03  0.36172843356E+03  0.00000000000E+00 0.  1.
          1   -1    0    0  502    0 -0.00000000000E+00 -0.00000000000E+00 -0.39850688425E+03  0.39850688425E+03  0.00000000000E+00 0. -1.
         23    2    1    2    0    0 -0.42937786573E+02  0.17254271864E+03 -0.32304134339E+03  0.37991373497E+03  0.91455416481E+02 0.  0.
         23    2    1    2    0    0  0.24700987934E+02 -0.19553880633E+03  0.22770922237E+03  0.31482400133E+03  0.91744745229E+02 0.  0.
        -11    1    4    4    0    0  0.58369333698E+02 -0.14681163743E+03  0.17128540012E+03  0.23302215409E+03  0.00000000000E+00 0.  1.
         11    1    4    4    0    0 -0.33668345764E+02 -0.48727168903E+02  0.56423822248E+02  0.81801847246E+02  0.00000000000E+00 0. -1.
        -13    1    3    3    0    0  0.61921112348E+01  0.10240410488E+03 -0.11056296158E+03  0.15082808562E+03  0.00000000000E+00 0. -1.
         13    1    3    3    0    0 -0.49129897808E+02  0.70138613756E+02 -0.21247838181E+03  0.22908564935E+03  0.00000000000E+00 0.  1.
          1    1    1    2  501    0  0.18236798639E+02  0.22996087688E+02  0.58553670341E+02  0.65497581512E+02  0.00000000000E+00 0. -1.
<scales pt_clust_5="13000.00000" pt_clust_6="13000.00000" pt_clust_7="13000.00000" pt_clust_8="13000.00000" pt_clust_9="29.34963"></scales>
<clustering>
<clus scale="   29.350">  1  9  2 -1</clus>
<clus scale="   91.455">  7  8 -1 -1</clus>
<clus scale="   91.745">  5  6 -1 -1</clus>
<clus scale="  201.472">  2  7  1 -1</clus>
<clus scale="   29.350">  1  5  2 -1</clus>
</clustering>
</event>
<event>
 9    1  0.1399746E-005  0.1034867E+03  0.7546771E-02  0.1273432E+00
          1   -1    0    0  502    0 -0.00000000000E+00  0.00000000000E+00  0.36003274908E+03  0.36003274908E+03  0.00000000000E+00 0. -1.
         21   -1    0    0  501  502  0.00000000000E+00 -0.00000000000E+00 -0.23097882803E+03  0.23097882803E+03  0.00000000000E+00 0.  1.
         23    2    1    2    0    0  0.67259260236E+01  0.39086131222E+02  0.27631324816E+03  0.29401238936E+03  0.92310943304E+02 0.  0.
         23    2    1    2    0    0 -0.24435902872E+02 -0.99790702425E+02 -0.10197483023E+01  0.13767341251E+03  0.91638588962E+02 0.  0.
        -11    1    4    4    0    0  0.26393224510E+02 -0.24774244023E+02  0.24286323360E+02  0.43591179948E+02  0.00000000000E+00 0. -1.
         11    1    4    4    0    0 -0.50829127381E+02 -0.75016458402E+02 -0.25306071662E+02  0.94082232565E+02  0.00000000000E+00 0.  1.
        -11    1    3    3    0    0 -0.19965390053E+02 -0.92479240709E+01  0.14293321823E+02  0.26238139193E+02  0.00000000000E+00 0.  1.
         11    1    3    3    0    0  0.26691316076E+02  0.48334055293E+02  0.26201992634E+03  0.26777425017E+03  0.00000000000E+00 0. -1.
          1    1    1    2  501    0  0.17709976848E+02  0.60704571203E+02 -0.14623957881E+03  0.15932577524E+03  0.00000000000E+00 0. -1.
<scales pt_clust_5="13000.00000" pt_clust_6="13000.00000" pt_clust_7="13000.00000" pt_clust_8="13000.00000" pt_clust_9="63.23518"></scales>
<clustering>
<clus scale="   63.235">  2  9  1 -1</clus>
<clus scale="   91.639">  5  6 -1 -1</clus>
<clus scale="   92.311">  7  8 -1 -1</clus>
<clus scale="  102.887">  2  5  1 -1</clus>
<clus scale="   63.235">  2  5  1 -1</clus>
</clustering>
</event>
<event>
 9    1  0.1399746E-005  0.1193358E+03  0.7546771E-02  0.1244351E+00
         21   -1    0    0  501  502  0.00000000000E+00  0.00000000000E+00  0.10950926109E+03  0.10950926109E+03  0.00000000000E+00 0. -1.
          3   -1    0    0  502    0 -0.00000000000E+00 -0.00000000000E+00 -0.65139540451E+03  0.65139540451E+03  0.00000000000E+00 0. -1.
         23    2    1    2    0    0  0.11342700704E+02  0.79333415517E+02 -0.53767257297E+03  0.55112998776E+03  0.90719457736E+02 0.  0.
         23    2    1    2    0    0 -0.25399774859E+02 -0.62564548774E+02 -0.75205260644E+02  0.13548728791E+03  0.90230275570E+02 0.  0.
        -11    1    4    4    0    0 -0.46695563917E+02 -0.63294791153E+02 -0.27645953605E+02  0.83372687538E+02  0.00000000000E+00 0.  1.
         11    1    4    4    0    0  0.21295789058E+02  0.73024237896E+00 -0.47559307039E+02  0.52114600368E+02  0.00000000000E+00 0. -1.
        -13    1    3    3    0    0 -0.33639081686E+02  0.63916152441E+02 -0.28410676516E+03  0.29314419041E+03  0.00000000000E+00 0. -1.
         13    1    3    3    0    0  0.44981782391E+02  0.15417263076E+02 -0.25356580781E+03  0.25798579736E+03  0.00000000000E+00 0.  1.
          3    1    1    2  501    0  0.14057074155E+02 -0.16768866743E+02  0.70991690193E+02  0.74287389926E+02  0.00000000000E+00 0. -1.
<scales pt_clust_5="13000.00000" pt_clust_6="13000.00000" pt_clust_7="13000.00000" pt_clust_8="13000.00000" pt_clust_9="21.88141"></scales>
<clustering>
<clus scale="   21.881">  1  9  2 -1</clus>
<clus scale="   90.230">  5  6 -1 -1</clus>
<clus scale="   90.719">  7  8 -1 -1</clus>
<clus scale="  118.964">  1  5  2 -1</clus>
<clus scale="   21.881">  1  5  2 -1</clus>
</clustering>
</event>
<event>
 9    1  0.1399746E-005  0.1109125E+03  0.7546771E-02  0.1259844E+00
         21   -1    0    0  501  502  0.00000000000E+00  0.00000000000E+00  0.12193149992E+03  0.12193149992E+03  0.00000000000E+00 0.  1.
          1   -1    0    0  502    0 -0.00000000000E+00 -0.00000000000E+00 -0.13508913883E+03  0.13508913883E+03  0.00000000000E+00 0. -1.
         23    2    1    2    0    0  0.45436948014E+02  0.75022292558E+01 -0.13418411236E+02  0.10505775505E+03  0.93468061113E+02 0.  0.
         23    2    1    2    0    0 -0.75248251738E+02 -0.63549168511E+01 -0.13652185687E+02  0.11904479511E+03  0.91008772717E+02 0.  0.
        -11    1    3    3    0    0  0.65018021792E+02  0.16155356980E+01  0.18080426655E+02  0.67504480898E+02  0.00000000000E+00 0.  1.
         11    1    3    3    0    0 -0.19581073778E+02  0.58866935578E+01 -0.31498837891E+02  0.37553274156E+02  0.00000000000E+00 0. -1.
        -11    1    4    4    0    0 -0.77779271598E+02 -0.36516235808E+02 -0.20545535353E+00  0.85924925254E+02  0.00000000000E+00 0.  1.
         11    1    4    4    0    0  0.25310198602E+01  0.30161318957E+02 -0.13446730333E+02  0.33119869858E+02  0.00000000000E+00 0. -1.
          1    1    1    2  501    0  0.29811303724E+02 -0.11473124047E+01  0.13912958014E+02  0.32918088587E+02  0.00000000000E+00 0. -1.
<scales pt_clust_5="13000.00000" pt_clust_6="13000.00000" pt_clust_7="13000.00000" pt_clust_8="13000.00000" pt_clust_9="29.83337"></scales>
<clustering>
<clus scale="   29.833">  1  9  2 -1</clus>
<clus scale="   91.009">  7  8 -1 -1</clus>
<clus scale="   93.468">  5  6 -1 -1</clus>
<clus scale="  108.848">  1  7  2 -1</clus>
<clus scale="   29.833">  1  5  2 -1</clus>
</clustering>
</event>
<event>
 9    1  0.1399746E-005  0.9365790E+02  0.7546771E-02  0.1294328E+00
          1   -1    0    0  502    0 -0.00000000000E+00  0.00000000000E+00  0.44495559774E+03  0.44495559774E+03  0.00000000000E+00 0. -1.
         21   -1    0    0  501  502  0.00000000000E+00 -0.00000000000E+00 -0.62278192572E+02  0.62278192572E+02  0.00000000000E+00 0. -1.
         23    2    1    2    0    0  0.25060907763E+02 -0.66034746259E+01  0.35479002462E+03  0.36716107136E+03  0.90882538371E+02 0.  0.
         23    2    1    2    0    0 -0.65623166182E+00  0.21062115878E+02  0.48515035138E+02  0.10499935788E+03  0.90703435195E+02 0.  0.
        -11    1    4    4    0    0 -0.45396670486E+02  0.59381275867E+01  0.21353135995E+02  0.50518070701E+02  0.00000000000E+00 0. -1.
         11    1    4    4    0    0  0.44740438824E+02  0.15123988292E+02  0.27161899143E+02  0.54481287183E+02  0.00000000000E+00 0.  1.
        -11    1    3    3    0    0 -0.30934646332E+02  0.73042153350E+01  0.74549491881E+02  0.81042770468E+02  0.00000000000E+00 0.  1.
         11    1    3    3    0    0  0.55995554095E+02 -0.13907689961E+02  0.28024053274E+03  0.28611830090E+03  0.00000000000E+00 0. -1.
          1    1    1    2  501    0 -0.24404676101E+02 -0.14458641252E+02 -0.20627654589E+02  0.35073361064E+02  0.00000000000E+00 0. -1.
<scales pt_clust_5="13000.00000" pt_clust_6="13000.00000" pt_clust_7="13000.00000" pt_clust_8="13000.00000" pt_clust_9="28.36619"></scales>
<clustering>
<clus scale="   28.366">  2  9  1 -1</clus>
<clus scale="   90.703">  5  6 -1 -1</clus>
<clus scale="   90.883">  7  8 -1 -1</clus>
<clus scale="   93.484">  2  5  1 -1</clus>
<clus scale="   28.366">  2  5  1 -1</clus>
</clustering>
</event>
<event>
 9    1  0.1399746E-005  0.1203810E+03  0.7546771E-02  0.1243687E+00
         21   -1    0    0  501  502  0.00000000000E+00  0.00000000000E+00  0.90426381619E+02  0.90426381619E+02  0.00000000000E+00 0.  1.
          1   -1    0    0  502    0 -0.00000000000E+00 -0.00000000000E+00 -0.37020704351E+03  0.37020704351E+03  0.00000000000E+00 0. -1.
         23    2    1    2    0    0  0.22190475109E+02 -0.73100885468E+02 -0.24008797082E+03  0.26782924541E+03  0.90852156391E+02 0.  0.
         23    2    1    2    0    0  0.43979643803E-01  0.72270516550E+02 -0.82307071550E+02  0.14473084080E+03  0.94601970146E+02 0.  0.
        -11    1    4    4    0    0 -0.27546415646E+02  0.23014548965E+01  0.64571775441E+01  0.28386561106E+02  0.00000000000E+00 0.  1.
         11    1    4    4    0    0  0.27590395289E+02  0.69969061653E+02 -0.88764249094E+02  0.11634427970E+03  0.00000000000E+00 0. -1.
        -13    1    3    3    0    0 -0.27195225899E+02 -0.46759110015E+02 -0.68137330209E+02  0.86998220954E+02  0.00000000000E+00 0.  1.
         13    1    3    3    0    0  0.49385701008E+02 -0.26341775453E+02 -0.17195064061E+03  0.18083102445E+03  0.00000000000E+00 0. -1.
          1    1    1    2  501    0 -0.22234454753E+02  0.83036891816E+00  0.42614380482E+02  0.48073338916E+02  0.00000000000E+00 0. -1.
<scales pt_clust_5="13000.00000" pt_clust_6="13000.00000" pt_clust_7="13000.00000" pt_clust_8="13000.00000" pt_clust_9="22.24995"></scales>
<clustering>
<clus scale="   22.250">  1  9  2 -1</clus>
<clus scale="   90.852">  7  8 -1 -1</clus>
<clus scale="   94.602">  5  6 -1 -1</clus>
<clus scale="  117.457">  2  7  1 -1</clus>
<clus scale="   22.250">  1  5  2 -1</clus>
</clustering>
</event>
<event>
 9    1  0.1399746E-005  0.1149128E+03  0.7546771E-02  0.1262491E+00
         -4   -1    0    0    0  501 -0.00000000000E+00  0.00000000000E+00  0.17531111377E+03  0.17531111377E+03  0.00000000000E+00 0.  1.
         21   -1    0    0  501  502  0.00000000000E+00 -0.00000000000E+00 -0.81644569389E+03  0.81644569389E+03  0.00000000000E+00 0.  1.
         23    2    1    2    0    0  0.19344180648E+02 -0.11430748067E+02  0.13939740834E+03  0.18032679882E+03  0.11216620522E+03 0.  0.
         23    2    1    2    0    0 -0.10261350949E+03 -0.60085790525E+01 -0.50437777433E+03  0.52246796768E+03  0.89499735509E+02 0.  0.
        -13    1    3    3    0    0 -0.45252312402E+02  0.41495887655E+01  0.75620566504E+02  0.88223925004E+02  0.00000000000E+00 0. -1.
         13    1    3    3    0    0  0.64596493051E+02 -0.15580336832E+02  0.63776841831E+02  0.92102873811E+02  0.00000000000E+00 0.  1.
        -13    1    4    4    0    0 -0.63082319471E+02 -0.46980993500E+02 -0.26598398806E+03  0.27736992390E+03  0.00000000000E+00 0. -1.
         13    1    4    4    0    0 -0.39531190016E+02  0.40972414448E+02 -0.23839378627E+03  0.24509804378E+03  0.00000000000E+00 0.  1.
         -4    1    1    2    0  502  0.83269328839E+02  0.17439327119E+02 -0.27615421413E+03  0.28896204117E+03  0.00000000000E+00 0.  1.
<scales pt_clust_5="13000.00000" pt_clust_6="13000.00000" pt_clust_7="13000.00000" pt_clust_8="13000.00000" pt_clust_9="85.07591"></scales>
<clustering>
<clus scale="   85.076">  2  9  1 -1</clus>
<clus scale="   89.500">  7  8 -1 -1</clus>
<clus scale="   92.919">  2  7  1 -1</clus>
<clus scale="  112.166">  5  6 -1 -1</clus>
<clus scale="   85.076">  2  5  1 -1</clus>
</clustering>
</event>
<event>
 9    1  0.1399746E-005  0.1287000E+03  0.7546771E-02  0.1230994E+00
         21   -1    0    0  501  502  0.00000000000E+00  0.00000000000E+00  0.13626511339E+03  0.13626511339E+03  0.00000000000E+00 0.  1.
          1   -1    0    0  502    0 -0.00000000000E+00 -0.00000000000E+00 -0.20967179118E+03  0.20967179118E+03  0.00000000000E+00 0. -1.
         23    2    1    2    0    0  0.21555845606E+02 -0.95240979450E+02 -0.13047121549E+03  0.18476436163E+03  0.87061085514E+02 0.  0.
         23    2    1    2    0    0 -0.50354679175E+01  0.65977251538E+02  0.29826340389E+02  0.11791508066E+03  0.92930092049E+02 0.  0.
        -13    1    4    4    0    0 -0.77955764177E+01 -0.19651130669E+02  0.24089134254E+02  0.32050340675E+02  0.00000000000E+00 0.  1.
         13    1    4    4    0    0  0.27601085002E+01  0.85628382207E+02  0.57372061352E+01  0.85864739985E+02  0.00000000000E+00 0. -1.
        -13    1    3    3    0    0 -0.23539835802E+02 -0.55852107836E+02 -0.29578372720E+02  0.67442286083E+02  0.00000000000E+00 0.  1.
         13    1    3    3    0    0  0.45095681407E+02 -0.39388871614E+02 -0.10089284277E+03  0.11732207555E+03  0.00000000000E+00 0. -1.
          1    1    1    2  501    0 -0.16520377688E+02  0.29263727912E+02  0.27238197305E+02  0.43257462277E+02  0.00000000000E+00 0. -1.
<scales pt_clust_5="13000.00000" pt_clust_6="13000.00000" pt_clust_7="13000.00000" pt_clust_8="13000.00000" pt_clust_9="33.60489"></scales>
<clustering>
<clus scale="   33.605">  1  9  2 -1</clus>
<clus scale="   87.061">  7  8 -1 -1</clus>
<clus scale="   92.930">  5  6 -1 -1</clus>
<clus scale="  124.528">  2  7  1 -1</clus>
<clus scale="   33.605">  1  5  2 -1</clus>
</clustering>
</event>
<event>
 9    1  0.6934170E-005  0.1239908E+03  0.7546771E-02  0.1237161E+00
          3   -1    0    0  502    0 -0.00000000000E+00  0.00000000000E+00  0.37271043850E+03  0.37271043850E+03  0.00000000000E+00 0. -1.
         21   -1    0    0  501  502  0.00000000000E+00 -0.00000000000E+00 -0.40002583188E+03  0.40002583188E+03  0.00000000000E+00 0.  1.
         23    2    1    2    0    0  0.77302368984E+02  0.31716915126E+02  0.30609190865E+03  0.32994970104E+03  0.90514803869E+02 0.  0.
         23    2    1    2    0    0 -0.81027771222E+02  0.36484172956E+02 -0.34982900579E+03  0.37253744556E+03  0.92234594734E+02 0.  0.
        -13    1    3    3    0    0 -0.10675703870E+02  0.30168614187E+02  0.52052903546E+02  0.61103360813E+02  0.00000000000E+00 0.  1.
         13    1    3    3    0    0  0.87978072854E+02  0.15483009384E+01  0.25403900510E+03  0.26884634023E+03  0.00000000000E+00 0. -1.
        -13    1    4    4    0    0 -0.99043308414E+02  0.23304902888E+02 -0.31626072612E+03  0.33222513801E+03  0.00000000000E+00 0.  1.
         13    1    4    4    0    0  0.18015537192E+02  0.13179270067E+02 -0.33568279668E+02  0.40312307546E+02  0.00000000000E+00 0. -1.
          3    1    1    2  501    0  0.37254022379E+01 -0.68201088081E+02  0.16421703764E+02  0.70249123780E+02  0.00000000000E+00 0. -1.
<scales pt_clust_5="13000.00000" pt_clust_6="13000.00000" pt_clust_7="13000.00000" pt_clust_8="13000.00000" pt_clust_9="68.30279"></scales>
<clustering>
<clus scale="   68.303">  2  9  1 -1</clus>
<clus scale="   90.515">  5  6 -1 -1</clus>
<clus scale="   92.235">  7  8 -1 -1</clus>
<clus scale="  122.717">  1  5  2 -1</clus>
<clus scale="   68.303">  2  5  1 -1</clus>
</clustering>
</event>
<event>
 9    1  0.1399746E-005  0.3762421E+03  0.7546771E-02  0.1052534E+00
         21   -1    0    0  501  502  0.00000000000E+00  0.00000000000E+00  0.10660061281E+03  0.10660061281E+03  0.00000000000E+00 0.  1.
         -1   -1    0    0    0  501 -0.00000000000E+00 -0.00000000000E+00 -0.16856159604E+04  0.16856159604E+04  0.00000000000E+00 0.  1.
         23    2    1    2    0    0 -0.24427427506E+03  0.25660745009E+03 -0.86782502854E+03  0.94144045448E+03  0.87593060632E+02 0.  0.
         23    2    1    2    0    0  0.22555031282E+03 -0.30892138332E+03 -0.52626512768E+03  0.65768375540E+03  0.96372054155E+02 0.  0.
        -11    1    4    4    0    0  0.20412875884E+02 -0.94343225884E+02 -0.10902870912E+03  0.14561795625E+03  0.00000000000E+00 0. -1.
         11    1    4    4    0    0  0.20513743693E+03 -0.21457815744E+03 -0.41723641856E+03  0.51206579914E+03  0.00000000000E+00 0.  1.
        -13    1    3    3    0    0 -0.16349046535E+03  0.18331966935E+03 -0.48900836848E+03  0.54723342174E+03  0.00000000000E+00 0.  1.
         13    1    3    3    0    0 -0.80783809705E+02  0.73287780737E+02 -0.37881666007E+03  0.39420703274E+03  0.00000000000E+00 0. -1.
         -1    1    1    2    0  502  0.18723962239E+02  0.52313933234E+02 -0.18492519132E+03  0.19309236328E+03  0.00000000000E+00 0.  1.
<scales pt_clust_5="13000.00000" pt_clust_6="13000.00000" pt_clust_7="13000.00000" pt_clust_8="13000.00000" pt_clust_9="55.56381"></scales>
<clustering>
<clus scale="   55.564">  1  9  2 -1</clus>
<clus scale="   87.593">  7  8 -1 -1</clus>
<clus scale="   96.372">  5  6 -1 -1</clus>
<clus scale="  374.090">  2  7  1 -1</clus>
<clus scale="   55.564">  1  5  2 -1</clus>
</clustering>
</event>
<event>
 9    1  0.1399746E-005  0.1065797E+03  0.7546771E-02  0.1267227E+00
         21   -1    0    0  501  502  0.00000000000E+00  0.00000000000E+00  0.24184704228E+02  0.24184704228E+02  0.00000000000E+00 0.  1.
          1   -1    0    0  502    0 -0.00000000000E+00 -0.00000000000E+00 -0.85247849212E+03  0.85247849212E+03  0.00000000000E+00 0. -1.
         23    2    1    2    0    0 -0.57123952432E+02 -0.32730672673E+02 -0.59373293062E+03  0.60435540230E+03  0.91609041636E+02 0.  0.
         23    2    1    2    0    0  0.31553577992E+02  0.85569501026E+00 -0.17899274252E+03  0.20333190241E+03  0.91154265755E+02 0.  0.
        -13    1    3    3    0    0  0.74825548305E+01  0.23032116711E+02 -0.80107875732E+02  0.83688343162E+02  0.00000000000E+00 0.  1.
         13    1    3    3    0    0 -0.64606507262E+02 -0.55762789384E+02 -0.51362505489E+03  0.52066705914E+03  0.00000000000E+00 0. -1.
        -13    1    4    4    0    0 -0.14770322529E+01  0.20523932932E+02 -0.32958384862E+00  0.20579651911E+02  0.00000000000E+00 0.  1.
         13    1    4    4    0    0  0.33030610245E+02 -0.19668237922E+02 -0.17866315868E+03  0.18275225050E+03  0.00000000000E+00 0. -1.
          1    1    1    2  501    0  0.25570374440E+02  0.31874977662E+02 -0.55568114743E+02  0.68975891630E+02  0.00000000000E+00 0. -1.
<scales pt_clust_5="13000.00000" pt_clust_6="13000.00000" pt_clust_7="13000.00000" pt_clust_8="13000.00000" pt_clust_9="40.86390"></scales>
<clustering>
<clus scale="   40.864">  1  9  2 -1</clus>
<clus scale="   91.154">  7  8 -1 -1</clus>
<clus scale="   91.609">  5  6 -1 -1</clus>
<clus scale="  106.189">  1  7  2 -1</clus>
<clus scale="   40.864">  1  5  2 -1</clus>
</clustering>
</event>
<event>
 9    1  0.1399746E-005  0.9493465E+02  0.7546771E-02  0.1291707E+00
         21   -1    0    0  501  502  0.00000000000E+00  0.00000000000E+00  0.63781132642E+03  0.63781132642E+03  0.00000000000E+00 0.  1.
         -2   -1    0    0    0  501 -0.00000000000E+00 -0.00000000000E+00 -0.49382278175E+02  0.49382278175E+02  0.00000000000E+00 0.  1.
         23    2    1    2    0    0  0.53687588329E+02 -0.32198820303E+02  0.75424381851E+02  0.13178276874E+03  0.88083707852E+02 0.  0.
         23    2    1    2    0    0  0.33648874358E+02  0.28608841826E+02  0.13098283877E+03  0.16351643370E+03  0.87352203531E+02 0.  0.
        -11    1    3    3    0    0  0.21030061309E+02 -0.60375686556E+02  0.36137891785E+02  0.73440004279E+02  0.00000000000E+00 0.  1.
         11    1    3    3    0    0  0.32657527020E+02  0.28176866254E+02  0.39286490066E+02  0.58342764458E+02  0.00000000000E+00 0. -1.
        -13    1    4    4    0    0  0.57844507931E+02  0.49415560059E+01  0.53430720876E+02  0.78900240854E+02  0.00000000000E+00 0.  1.
         13    1    4    4    0    0 -0.24195633573E+02  0.23667285820E+02  0.77552117891E+02  0.84616192844E+02  0.00000000000E+00 0. -1.
         -2    1    1    2    0  502 -0.87336462687E+02  0.35899784767E+01  0.38202182763E+03  0.39189440216E+03  0.00000000000E+00 0.  1.
<scales pt_clust_5="13000.00000" pt_clust_6="13000.00000" pt_clust_7="13000.00000" pt_clust_8="13000.00000" pt_clust_9="87.41021"></scales>
<clustering>
<clus scale="   87.352">  7  8 -1 -1</clus>
<clus scale="   87.410">  1  9  2 -1</clus>
<clus scale="   88.084">  5  6 -1 -1</clus>
<clus scale="   94.256">  1  7  2 -1</clus>
<clus scale="   87.410">  1  5  2 -1</clus>
</clustering>
</event>
<event>
 9    1  0.1399746E-005  0.9470000E+02  0.7546771E-02  0.1294777E+00
          4   -1    0    0  502    0 -0.00000000000E+00  0.00000000000E+00  0.17500337232E+03  0.17500337232E+03  0.00000000000E+00 0. -1.
         21   -1    0    0  501  502  0.00000000000E+00 -0.00000000000E+00 -0.35472696722E+03  0.35472696722E+03  0.00000000000E+00 0. -1.
         23    2    1    2    0    0  0.64698028468E+01 -0.27433952380E+02  0.13837280270E+03  0.16535475441E+03  0.86027217714E+02 0.  0.
         23    2    1    2    0    0  0.51635173656E+02 -0.13025659012E+02 -0.21128488685E+03  0.23622775144E+03  0.91249044856E+02 0.  0.
        -11    1    4    4    0    0  0.44166797532E+02  0.34384876100E+02 -0.13443089024E+03  0.14561830228E+03  0.00000000000E+00 0.  1.
         11    1    4    4    0    0  0.74683761237E+01 -0.47410535112E+02 -0.76853996610E+02  0.90609449157E+02  0.00000000000E+00 0. -1.
        -13    1    3    3    0    0  0.20850526286E+02 -0.24953264389E+01 -0.28821304649E+01  0.21196173628E+02  0.00000000000E+00 0.  1.
         13    1    3    3    0    0 -0.14380723439E+02 -0.24938625941E+02  0.14125493317E+03  0.14415858079E+03  0.00000000000E+00 0. -1.
          4    1    1    2  501    0 -0.58104976503E+02  0.40459611392E+02 -0.10681151075E+03  0.12814783368E+03  0.00000000000E+00 0. -1.
<scales pt_clust_5="13000.00000" pt_clust_6="13000.00000" pt_clust_7="13000.00000" pt_clust_8="13000.00000" pt_clust_9="70.80373"></scales>
<clustering>
<clus scale="   70.804">  2  9  1 -1</clus>
<clus scale="   86.027">  7  8 -1 -1</clus>
<clus scale="   89.679">  1  7  2 -1</clus>
<clus scale="   91.249">  5  6 -1 -1</clus>
<clus scale="   70.804">  2  5  1 -1</clus>
</clustering>
</event>
<event>
 9    1  0.1399746E-005  0.1197479E+03  0.7546771E-02  0.1244182E+00
         21   -1    0    0  501  502  0.00000000000E+00  0.00000000000E+00  0.30699354450E+03  0.30699354450E+03  0.00000000000E+00 0.  1.
         -4   -1    0    0    0  501 -0.00000000000E+00 -0.00000000000E+00 -0.10809875411E+03  0.10809875411E+03  0.00000000000E+00 0.  1.
         23    2    1    2    0    0 -0.50592026583E+02 -0.78795880605E+02 -0.12150055722E+02  0.13035432509E+03  0.89868138189E+02 0.  0.
         23    2    1    2    0    0  0.13400730167E+02  0.52713099100E+02  0.51044758743E+02  0.11841439739E+03  0.91968210418E+02 0.  0.
        -13    1    4    4    0    0 -0.31868048561E+01  0.64371158579E+02  0.10428625258E+01  0.64458431134E+02  0.00000000000E+00 0.  1.
         13    1    4    4    0    0  0.16587535023E+02 -0.11658059479E+02  0.50001896217E+02  0.53955966252E+02  0.00000000000E+00 0. -1.
        -13    1    3    3    0    0 -0.76192962122E+02 -0.67234061513E+02 -0.76249218630E+01  0.10190155022E+03  0.00000000000E+00 0.  1.
         13    1    3    3    0    0  0.25600935539E+02 -0.11561819091E+02 -0.45251338587E+01  0.28452774867E+02  0.00000000000E+00 0. -1.
         -4    1    1    2    0  502  0.37191296416E+02  0.26082781505E+02  0.16000008737E+03  0.16632357613E+03  0.00000000000E+00 0.  1.
<scales pt_clust_5="13000.00000" pt_clust_6="13000.00000" pt_clust_7="13000.00000" pt_clust_8="13000.00000" pt_clust_9="45.42581"></scales>
<clustering>
<clus scale="   45.426">  1  9  2 -1</clus>
<clus scale="   89.868">  7  8 -1 -1</clus>
<clus scale="   91.968">  5  6 -1 -1</clus>
<clus scale="  118.143">  2  7  1 -1</clus>
<clus scale="   45.426">  1  5  2 -1</clus>
</clustering>
</event>
<event>
 9    1  0.1399746E-005  0.1009164E+03  0.7546771E-02  0.1281004E+00
         21   -1    0    0  501  502  0.00000000000E+00  0.00000000000E+00  0.33811822904E+03  0.33811822904E+03  0.00000000000E+00 0. -1.
          3   -1    0    0  502    0 -0.00000000000E+00 -0.00000000000E+00 -0.72212461498E+02  0.72212461498E+02  0.00000000000E+00 0. -1.
         23    2    1    2    0    0  0.23052235943E+02 -0.37979185046E+02 -0.11925980076E+02  0.98190896151E+02  0.86749057675E+02 0.  0.
         23    2    1    2    0    0  0.75541176182E+01  0.36349599897E+02  0.14471804868E+03  0.17554308406E+03  0.92161286031E+02 0.  0.
        -13    1    3    3    0    0  0.37434806912E+02 -0.97070808207E+01  0.27599403160E+02  0.47511253839E+02  0.00000000000E+00 0.  1.
         13    1    3    3    0    0 -0.14382570969E+02 -0.28272104225E+02 -0.39525383236E+02  0.50679642313E+02  0.00000000000E+00 0. -1.
        -13    1    4    4    0    0  0.39606509002E+02  0.34562811750E+02  0.13000399689E+03  0.14022946452E+03  0.00000000000E+00 0. -1.
         13    1    4    4    0    0 -0.32052391384E+02  0.17867881471E+01  0.14714051790E+02  0.35313619546E+02  0.00000000000E+00 0.  1.
          3    1    1    2  501    0 -0.30606353561E+02  0.16295851484E+01  0.13311369894E+03  0.13659671033E+03  0.00000000000E+00 0. -1.
<scales pt_clust_5="13000.00000" pt_clust_6="13000.00000" pt_clust_7="13000.00000" pt_clust_8="13000.00000" pt_clust_9="30.64971"></scales>
<clustering>
<clus scale="   30.650">  1  9  2 -1</clus>
<clus scale="   86.749">  5  6 -1 -1</clus>
<clus scale="   92.161">  7  8 -1 -1</clus>
<clus scale="   95.999">  2  5  1 -1</clus>
<clus scale="   30.650">  1  5  2 -1</clus>
</clustering>
</event>
<event>
 9    1  0.1399746E-005  0.9682068E+02  0.7546771E-02  0.1289105E+00
         21   -1    0    0  501  502  0.00000000000E+00  0.00000000000E+00  0.15729790733E+03  0.15729790733E+03  0.00000000000E+00 0. -1.
         -1   -1    0    0    0  501 -0.00000000000E+00 -0.00000000000E+00 -0.93422866308E+02  0.93422866308E+02  0.00000000000E+00 0.  1.
         23    2    1    2    0    0  0.24011377688E+02  0.36832844061E+01 -0.30281711087E+02  0.97784783498E+02  0.89748364970E+02 0.  0.
         23    2    1    2    0    0 -0.23318428785E+02 -0.23865069381E+02  0.69770665523E+02  0.12127424916E+03  0.93414169611E+02 0.  0.
        -11    1    4    4    0    0 -0.82950495855E+01 -0.56738533461E+02  0.61717230896E+02  0.84244202271E+02  0.00000000000E+00 0. -1.
         11    1    4    4    0    0 -0.15023379200E+02  0.32873464080E+02  0.80534346274E+01  0.37030046888E+02  0.00000000000E+00 0.  1.
        -13    1    3    3    0    0  0.16736581740E+02  0.25290843040E+02 -0.55834544807E+02  0.63539250105E+02  0.00000000000E+00 0.  1.
         13    1    3    3    0    0  0.72747959485E+01 -0.21607558634E+02  0.25552833720E+02  0.34245533393E+02  0.00000000000E+00 0. -1.
         -1    1    1    2    0  502 -0.69294890307E+00  0.20181784975E+02  0.24386086586E+02  0.31661740980E+02  0.00000000000E+00 0.  1.
<scales pt_clust_5="13000.00000" pt_clust_6="13000.00000" pt_clust_7="13000.00000" pt_clust_8="13000.00000" pt_clust_9="20.19368"></scales>
<clustering>
<clus scale="   20.194">  1  9  2 -1</clus>
<clus scale="   89.748">  7  8 -1 -1</clus>
<clus scale="   93.289">  2  7  1 -1</clus>
<clus scale="   93.414">  5  6 -1 -1</clus>
<clus scale="   20.194">  1  5  2 -1</clus>
</clustering>
</event>
<event>
 9    1  0.1399746E-005  0.1052213E+03  0.7546771E-02  0.1277297E+00
          1   -1    0    0  502    0 -0.00000000000E+00  0.00000000000E+00  0.16678200829E+03  0.16678200829E+03  0.00000000000E+00 0. -1.
         21   -1    0    0  501  502  0.00000000000E+00 -0.00000000000E+00 -0.10003371797E+03  0.10003371797E+03  0.00000000000E+00 0. -1.
         23    2    1    2    0    0 -0.17159895167E+01 -0.12459142150E+02  0.10526091792E+03  0.14917447852E+03  0.10495231946E+03 0.  0.
         23    2    1    2    0    0 -0.38660828230E+01 -0.69711021782E+01 -0.32164917542E+02  0.96451926158E+02  0.90580623078E+02 0.  0.
        -13    1    3    3    0    0 -0.30194122885E+02 -0.17959960218E+01 -0.85002503498E+01  0.31419180679E+02  0.00000000000E+00 0.  1.
         13    1    3    3    0    0  0.28478133368E+02 -0.10663146129E+02  0.11376116827E+03  0.11775529785E+03  0.00000000000E+00 0. -1.
        -13    1    4    4    0    0 -0.47617684865E+01 -0.38764237583E+02 -0.47206957891E+02  0.61268568025E+02  0.00000000000E+00 0. -1.
         13    1    4    4    0    0  0.89568566354E+00  0.31793135405E+02  0.15042040349E+02  0.35183358133E+02  0.00000000000E+00 0.  1.
          1    1    1    2  501    0  0.55820723397E+01  0.19430244329E+02 -0.63477100545E+01  0.21189321584E+02  0.00000000000E+00 0. -1.
<scales pt_clust_5="13000.00000" pt_clust_6="13000.00000" pt_clust_7="13000.00000" pt_clust_8="13000.00000" pt_clust_9="20.21618"></scales>
<clustering>
<clus scale="   20.216">  2  9  1 -1</clus>
<clus scale="   90.581">  7  8 -1 -1</clus>
<clus scale="   90.892">  2  7  1 -1</clus>
<clus scale="  104.952">  5  6 -1 -1</clus>
<clus scale="   20.216">  2  5  1 -1</clus>
</clustering>
</event>
<event>
 9    1  0.1399746E-005  0.1033581E+03  0.7546771E-02  0.1283294E+00
         -1   -1    0    0    0  501 -0.00000000000E+00  0.00000000000E+00  0.58447251500E+03  0.58447251500E+03  0.00000000000E+00 0.  1.
         21   -1    0    0  501  502  0.00000000000E+00 -0.00000000000E+00 -0.75802846922E+02  0.75802846922E+02  0.00000000000E+00 0.  1.
         23    2    1    2    0    0 -0.12074153048E+02 -0.24607522776E+00  0.43057329728E+03  0.43911986627E+03  0.85364201491E+02 0.  0.
         23    2    1    2    0    0 -0.23572081543E+02 -0.58950739065E+01  0.12372064710E+03  0.16293228428E+03  0.10319755722E+03 0.  0.
        -11    1    4    4    0    0 -0.33132743253E+02 -0.31487115472E+02  0.12741372526E+03  0.13536422903E+03  0.00000000000E+00 0.  1.
         11    1    4    4    0    0  0.95606617104E+01  0.25592041565E+02 -0.36930781572E+01  0.27568055247E+02  0.00000000000E+00 0. -1.
        -11    1    3    3    0    0  0.34413224470E+02  0.14621660068E+02  0.18252426115E+03  0.18631470385E+03  0.00000000000E+00 0. -1.
         11    1    3    3    0    0 -0.46487377519E+02 -0.14867735296E+02  0.24804903613E+03  0.25280516242E+03  0.00000000000E+00 0.  1.
         -1    1    1    2    0  502  0.35646234591E+02  0.61411491342E+01 -0.45624276312E+02  0.58223211370E+02  0.00000000000E+00 0.  1.
<scales pt_clust_5="13000.00000" pt_clust_6="13000.00000" pt_clust_7="13000.00000" pt_clust_8="13000.00000" pt_clust_9="36.17137"></scales>
<clustering>
<clus scale="   36.171">  2  9  1 -1</clus>
<clus scale="   85.364">  7  8 -1 -1</clus>
<clus scale="   85.558">  1  7  2 -1</clus>
<clus scale="  103.198">  5  6 -1 -1</clus>
<clus scale="   36.171">  2  5  1 -1</clus>
</clustering>
</event>
<event>
 9    1  0.1399746E-005  0.9634399E+02  0.7546771E-02  0.1288338E+00
         21   -1    0    0  501  502  0.00000000000E+00  0.00000000000E+00  0.15754261990E+03  0.15754261990E+03  0.00000000000E+00 0.  1.
         -1   -1    0    0    0  501 -0.00000000000E+00 -0.00000000000E+00 -0.12230842658E+03  0.12230842658E+03  0.00000000000E+00 0.  1.
         23    2    1    2    0    0  0.21396892088E+02 -0.66131752514E+01 -0.34308428940E+02  0.98019734121E+02  0.89046273941E+02 0.  0.
         23    2    1    2    0    0 -0.71843365034E+02  0.18296975732E+02  0.51206166838E+02  0.12689877715E+03  0.89358713617E+02 0.  0.
        -11    1    3    3    0    0 -0.26489885266E+02 -0.28666130870E+02 -0.12746070642E+02  0.41059997532E+02  0.00000000000E+00 0.  1.
         11    1    3    3    0    0  0.47886777355E+02  0.22052955619E+02 -0.21562358297E+02  0.56959736589E+02  0.00000000000E+00 0. -1.
        -11    1    4    4    0    0 -0.82325194242E+02 -0.41564512791E+01  0.58487313289E+02  0.10107165532E+03  0.00000000000E+00 0.  1.
         11    1    4    4    0    0  0.10481829208E+02  0.22453427011E+02 -0.72811464509E+01  0.25827121825E+02  0.00000000000E+00 0. -1.
         -1    1    1    2    0  502  0.50446472946E+02 -0.11683800481E+02  0.18336455423E+02  0.54932535203E+02  0.00000000000E+00 0.  1.
<scales pt_clust_5="13000.00000" pt_clust_6="13000.00000" pt_clust_7="13000.00000" pt_clust_8="13000.00000" pt_clust_9="51.78183"></scales>
<clustering>
<clus scale="   51.782">  1  9  2 -1</clus>
<clus scale="   89.046">  5  6 -1 -1</clus>
<clus scale="   89.359">  7  8 -1 -1</clus>
<clus scale="   96.054">  2  5  1 -1</clus>
<clus scale="   51.782">  1  5  2 -1</clus>
</clustering>
</event>
<event>
 9    1  0.2434926E-005  0.1920538E+03  0.7546771E-02  0.1184263E+00
         21   -1    0    0  501  502  0.00000000000E+00  0.00000000000E+00  0.53227218405E+03  0.53227218405E+03  0.00000000000E+00 0. -1.
         -2   -1    0    0    0  501 -0.00000000000E+00 -0.00000000000E+00 -0.42928699571E+03  0.42928699571E+03  0.00000000000E+00 0.  1.
         23    2    1    2    0    0 -0.15980898015E+02 -0.41467021653E+02 -0.35674492349E+03  0.37106697968E+03  0.91917680514E+02 0.  0.
         23    2    1    2    0    0  0.13987093485E+03  0.13384274859E+03  0.23795032374E+03  0.32018073054E+03  0.91747391639E+02 0.  0.
        -11    1    4    4    0    0  0.14583990727E+03  0.10527928695E+03  0.22551394760E+03  0.28846065135E+03  0.00000000000E+00 0. -1.
         11    1    4    4    0    0 -0.59689724155E+01  0.28563461637E+02  0.12436376142E+02  0.31720079191E+02  0.00000000000E+00 0.  1.
        -13    1    3    3    0    0  0.31263901911E+02  0.88466262446E+01 -0.13347554714E+03  0.13737327267E+03  0.00000000000E+00 0. -1.
         13    1    3    3    0    0 -0.47244799927E+02 -0.50313647898E+02 -0.22326937635E+03  0.23369370702E+03  0.00000000000E+00 0.  1.
         -2    1    1    2    0  502 -0.12389003684E+03 -0.92375726937E+02  0.22177978809E+03  0.27031146953E+03  0.00000000000E+00 0.  1.
<scales pt_clust_5="13000.00000" pt_clust_6="13000.00000" pt_clust_7="13000.00000" pt_clust_8="13000.00000" pt_clust_9="168.72188"></scales>
<clustering>
<clus scale="   91.747">  5  6 -1 -1</clus>
<clus scale="   91.918">  7  8 -1 -1</clus>
<clus scale="  102.097">  2  7  1 -1</clus>
<clus scale="  168.722">  1  9  2 -1</clus>
<clus scale="  168.722">  1  5  2 -1</clus>
</clustering>
</event>
<event>
 9    1  0.1399746E-005  0.1160045E+03  0.7546771E-02  0.1253551E+00
         21   -1    0    0  501  502  0.00000000000E+00  0.00000000000E+00  0.21526464009E+03  0.21526464009E+03  0.00000000000E+00 0.  1.
         -2   -1    0    0    0  501 -0.00000000000E+00 -0.00000000000E+00 -0.22598256550E+03  0.22598256550E+03  0.00000000000E+00 0.  1.
         23    2    1    2    0    0  0.70129851281E+02 -0.32032655011E+02 -0.88566860271E+02  0.14258720510E+03  0.80887176320E+02 0.  0.
         23    2    1    2    0    0 -0.65559755754E+02  0.94596212631E+01 -0.80410172057E+02  0.13873385332E+03  0.91617248799E+02 0.  0.
        -11    1    3    3    0    0  0.21288152077E+02  0.23712738552E+02 -0.74811394004E+01  0.32732962519E+02  0.00000000000E+00 0. -1.
         11    1    3    3    0    0  0.48841699203E+02 -0.55745393564E+02 -0.81085720871E+02  0.10985424258E+03  0.00000000000E+00 0.  1.
        -11    1    4    4    0    0  0.66043718628E+01 -0.28986084339E+02 -0.11762574104E+02  0.31971377239E+02  0.00000000000E+00 0.  1.
         11    1    4    4    0    0 -0.72164127617E+02  0.38445705602E+02 -0.68647597953E+02  0.10676247608E+03  0.00000000000E+00 0. -1.
         -2    1    1    2    0  502 -0.45700955267E+01  0.22573033748E+02  0.15825910692E+03  0.15992614717E+03  0.00000000000E+00 0.  1.
<scales pt_clust_5="13000.00000" pt_clust_6="13000.00000" pt_clust_7="13000.00000" pt_clust_8="13000.00000" pt_clust_9="23.03101"></scales>
<clustering>
<clus scale="   23.031">  1  9  2 -1</clus>
<clus scale="   80.887">  5  6 -1 -1</clus>
<clus scale="   91.617">  7  8 -1 -1</clus>
<clus scale="  107.731">  2  5  1 -1</clus>
<clus scale="   23.031">  1  5  2 -1</clus>
</clustering>
</event>
<event>
 9    1  0.1399746E-005  0.1012149E+03  0.7546771E-02  0.1277812E+00
         21   -1    0    0  501  502  0.00000000000E+00  0.00000000000E+00  0.60454758854E+03  0.60454758854E+03  0.00000000000E+00 0. -1.
         -1   -1    0    0    0  501 -0.00000000000E+00 -0.00000000000E+00 -0.65869750096E+02  0.65869750096E+02  0.00000000000E+00 0.  1.
         23    2    1    2    0    0 -0.20102911135E+01  0.54358446091E+02  0.32349445162E+02  0.11332519779E+03  0.94006552535E+02 0.  0.
         23    2    1    2    0    0 -0.32702856834E+02 -0.72130577011E+01  0.83401381762E+02  0.13013201699E+03  0.94111881933E+02 0.  0.
        -11    1    3    3    0    0 -0.28531639967E+02  0.30915125905E+02  0.56523601590E+02  0.70460748120E+02  0.00000000000E+00 0.  1.
         11    1    3    3    0    0  0.26521348854E+02  0.23443320186E+02 -0.24174156427E+02  0.42864449668E+02  0.00000000000E+00 0. -1.
        -11    1    4    4    0    0  0.25113207443E+02 -0.17727700937E+02  0.58950265237E+02  0.66483669725E+02  0.00000000000E+00 0. -1.
         11    1    4    4    0    0 -0.57816064277E+02  0.10514643236E+02  0.24451116524E+02  0.63648347269E+02  0.00000000000E+00 0.  1.
         -1    1    1    2    0  502  0.34713147947E+02 -0.47145388390E+02  0.42292701152E+03  0.42696012386E+03  0.00000000000E+00 0.  1.
<scales pt_clust_5="13000.00000" pt_clust_6="13000.00000" pt_clust_7="13000.00000" pt_clust_8="13000.00000" pt_clust_9="58.54648"></scales>
<clustering>
<clus scale="   58.546">  1  9  2 -1</clus>
<clus scale="   94.007">  5  6 -1 -1</clus>
<clus scale="   94.112">  7  8 -1 -1</clus>
<clus scale="  101.117">  2  5  1 -1</clus>
<clus scale="   58.546">  1  5  2 -1</clus>
</clustering>
</event>
<event>
 9    1  0.1399746E-005  0.9896988E+02  0.7546771E-02  0.1289780E+00
         21   -1    0    0  501  502  0.00000000000E+00  0.00000000000E+00  0.33378753877E+03  0.33378753877E+03  0.00000000000E+00 0. -1.
          3   -1    0    0  502    0 -0.00000000000E+00 -0.00000000000E+00 -0.79647003072E+02  0.79647003072E+02  0.00000000000E+00 0. -1.
         23    2    1    2    0    0  0.30432274362E+02  0.26971522875E+02  0.12461598213E+02  0.10532138219E+03  0.96352040702E+02 0.  0.
         23    2    1    2    0    0  0.10629888624E+01 -0.88392917561E+01  0.23515204997E+02  0.86943216883E+02  0.83227970490E+02 0.  0.
        -13    1    4    4    0    0 -0.35256603749E+02 -0.17596751673E+02  0.29345204487E+02  0.49130589287E+02  0.00000000000E+00 0.  1.
         13    1    4    4    0    0  0.36319592611E+02  0.87574599167E+01 -0.58299994905E+01  0.37812627596E+02  0.00000000000E+00 0. -1.
        -13    1    3    3    0    0 -0.17390752691E+02 -0.19703754079E+02  0.26187813273E+02  0.37100913304E+02  0.00000000000E+00 0.  1.
         13    1    3    3    0    0  0.47823027053E+02  0.46675276954E+02 -0.13726215060E+02  0.68220468887E+02  0.00000000000E+00 0. -1.
          3    1    1    2  501    0 -0.31495263225E+02 -0.18132231119E+02  0.21816373248E+03  0.22116994276E+03  0.00000000000E+00 0. -1.
<scales pt_clust_5="13000.00000" pt_clust_6="13000.00000" pt_clust_7="13000.00000" pt_clust_8="13000.00000" pt_clust_9="36.34184"></scales>
<clustering>
<clus scale="   36.342">  1  9  2 -1</clus>
<clus scale="   83.228">  5  6 -1 -1</clus>
<clus scale="   86.245">  1  5  2 -1</clus>
<clus scale="   96.352">  7  8 -1 -1</clus>
<clus scale="   36.342">  1  5  2 -1</clus>
</clustering>
</event>
<event>
 9    1  0.1399746E-005  0.1023710E+03  0.7546771E-02  0.1276057E+00
          1   -1    0    0  502    0 -0.00000000000E+00  0.00000000000E+00  0.31874660218E+03  0.31874660218E+03  0.00000000000E+00 0. -1.
         21   -1    0    0  501  502  0.00000000000E+00 -0.00000000000E+00 -0.15177171357E+03  0.15177171357E+03  0.00000000000E+00 0.  1.
         23    2    1    2    0    0  0.37224766843E+02  0.31293939937E+02  0.27515095768E+03  0.29307055054E+03  0.88415519792E+02 0.  0.
         23    2    1    2    0    0 -0.58639865830E+02 -0.10755763608E+02 -0.68060372092E+02  0.12755094872E+03  0.89903892884E+02 0.  0.
        -11    1    3    3    0    0 -0.23993650994E+02 -0.75035207720E+01  0.42362004527E+02  0.49259897884E+02  0.00000000000E+00 0.  1.
         11    1    3    3    0    0  0.61218417837E+02  0.38797460709E+02  0.23278895315E+03  0.24381065266E+03  0.00000000000E+00 0. -1.
        -13    1    4    4    0    0  0.12173622988E+02  0.24889172333E+02 -0.25074279628E+02  0.37368268556E+02  0.00000000000E+00 0. -1.
         13    1    4    4    0    0 -0.70813488818E+02 -0.35644935941E+02 -0.42986092465E+02  0.90182680168E+02  0.00000000000E+00 0.  1.
          1    1    1    2  501    0  0.21415098987E+02 -0.20538176328E+02 -0.40115696980E+02  0.49896816489E+02  0.00000000000E+00 0. -1.
<scales pt_clust_5="13000.00000" pt_clust_6="13000.00000" pt_clust_7="13000.00000" pt_clust_8="13000.00000" pt_clust_9="29.67193"></scales>
<clustering>
<clus scale="   29.672">  2  9  1 -1</clus>
<clus scale="   88.416">  5  6 -1 -1</clus>
<clus scale="   89.904">  7  8 -1 -1</clus>
<clus scale="  101.066">  1  5  2 -1</clus>
<clus scale="   29.672">  2  5  1 -1</clus>
</clustering>
</event>
<event>
 9    1  0.1399746E-005  0.2986612E+03  0.7546771E-02  0.1124393E+00
          2   -1    0    0  502    0 -0.00000000000E+00  0.00000000000E+00  0.15779981797E+04  0.15779981797E+04  0.00000000000E+00 0. -1.
         21   -1    0    0  501  502  0.00000000000E+00 -0.00000000000E+00 -0.84052887394E+02  0.84052887394E+02  0.00000000000E+00 0. -1.
         23    2    1    2    0    0 -0.63440694284E+02  0.84911747300E+01  0.44942034482E+03  0.46293782086E+03  0.90752178516E+02 0.  0.
         23    2    1    2    0    0  0.29039627213E+03  0.12130088790E+03  0.57963206048E+03  0.66574638353E+03  0.90559490845E+02 0.  0.
        -11    1    4    4    0    0  0.67562707890E+02  0.42830561500E+02  0.80292927764E+02  0.11334077265E+03  0.00000000000E+00 0.  1.
         11    1    4    4    0    0  0.22283356424E+03  0.78470326405E+02  0.49933913271E+03  0.55240561088E+03  0.00000000000E+00 0. -1.
        -11    1    3    3    0    0  0.19142223584E+02  0.19312753305E+02  0.91534917470E+02  0.95488471976E+02  0.00000000000E+00 0.  1.
         11    1    3    3    0    0 -0.82582917869E+02 -0.10821578575E+02  0.35788542735E+03  0.36744934888E+03  0.00000000000E+00 0. -1.
          2    1    1    2  501    0 -0.22695557784E+03 -0.12979206263E+03  0.46489288701E+03  0.53336686270E+03  0.00000000000E+00 0. -1.
<scales pt_clust_5="13000.00000" pt_clust_6="13000.00000" pt_clust_7="13000.00000" pt_clust_8="13000.00000" pt_clust_9="284.60059"></scales>
<clustering>
<clus scale="   90.559">  5  6 -1 -1</clus>
<clus scale="   90.752">  7  8 -1 -1</clus>
<clus scale="  111.053">  1  7  2 -1</clus>
<clus scale="  284.601">  2  9  1 -1</clus>
<clus scale="  284.601">  2  5  1 -1</clus>
</clustering>
</event>
<event>
 9    1  0.1399746E-005  0.9477302E+02  0.7546771E-02  0.1294515E+00
         -1   -1    0    0    0  501 -0.00000000000E+00  0.00000000000E+00  0.19665736419E+03  0.19665736419E+03  0.00000000000E+00 0.  1.
         21   -1    0    0  501  502  0.00000000000E+00 -0.00000000000E+00 -0.17907654184E+03  0.17907654184E+03  0.00000000000E+00 0. -1.
         23    2    1    2    0    0 -0.18112162767E+02 -0.63681656233E+01  0.15239321013E+03  0.17900300640E+03  0.91922694862E+02 0.  0.
         23    2    1    2    0    0  0.54005851602E+02  0.26646897491E+01 -0.75036254580E+02  0.12690784661E+03  0.86898961169E+02 0.  0.
        -11    1    4    4    0    0  0.21625545736E+01  0.38970805507E+02 -0.27248116447E+02  0.47601052237E+02  0.00000000000E+00 0. -1.
         11    1    4    4    0    0  0.51843297028E+02 -0.36306115758E+02 -0.47788138133E+02  0.79306794377E+02  0.00000000000E+00 0.  1.
        -13    1    3    3    0    0 -0.16353851766E+02 -0.48775104567E+02  0.85296585086E+02  0.99609069469E+02  0.00000000000E+00 0.  1.
         13    1    3    3    0    0 -0.17583110016E+01  0.42406938944E+02  0.67096625049E+02  0.79393936929E+02  0.00000000000E+00 0. -1.
         -1    1    1    2    0  502 -0.35893688834E+02  0.37034758742E+01 -0.59776133205E+02  0.69823053017E+02  0.00000000000E+00 0.  1.
<scales pt_clust_5="13000.00000" pt_clust_6="13000.00000" pt_clust_7="13000.00000" pt_clust_8="13000.00000" pt_clust_9="36.08424"></scales>
<clustering>
<clus scale="   36.084">  2  9  1 -1</clus>
<clus scale="   86.899">  5  6 -1 -1</clus>
<clus scale="   89.909">  2  5  1 -1</clus>
<clus scale="   91.923">  7  8 -1 -1</clus>
<clus scale="   36.084">  2  5  1 -1</clus>
</clustering>
</event>
<event>
 9    1  0.1399746E-005  0.1008014E+03  0.7546771E-02  0.1283408E+00
          3   -1    0    0  502    0 -0.00000000000E+00  0.00000000000E+00  0.19500703924E+03  0.19500703924E+03  0.00000000000E+00 0. -1.
         21   -1    0    0  501  502  0.00000000000E+00 -0.00000000000E+00 -0.16103500747E+03  0.16103500747E+03  0.00000000000E+00 0. -1.
         23    2    1    2    0    0 -0.37917728707E+02 -0.74118918994E+01  0.98656227104E+02  0.14002039136E+03  0.91542168199E+02 0.  0.
         23    2    1    2    0    0  0.27044199463E+02  0.57388370442E+02  0.30548109958E+02  0.10792413449E+03  0.81790084959E+02 0.  0.
        -11    1    4    4    0    0 -0.45708130276E+01  0.52651950336E+02 -0.12496354809E+02  0.54307265531E+02  0.00000000000E+00 0. -1.
         11    1    4    4    0    0  0.31615012491E+02  0.47364201057E+01  0.43044464767E+02  0.53616868962E+02  0.00000000000E+00 0.  1.
        -13    1    3    3    0    0 -0.63061039896E+02  0.15377999373E+02  0.71405959257E+02  0.96498645767E+02  0.00000000000E+00 0. -1.
         13    1    3    3    0    0  0.25143311189E+02 -0.22789891273E+02  0.27250267847E+02  0.43521745594E+02  0.00000000000E+00 0.  1.
          3    1    1    2  501    0  0.10873529243E+02 -0.49976478542E+02 -0.95232305287E+02  0.10809752086E+03  0.00000000000E+00 0. -1.
<scales pt_clust_5="13000.00000" pt_clust_6="13000.00000" pt_clust_7="13000.00000" pt_clust_8="13000.00000" pt_clust_9="51.14569"></scales>
<clustering>
<clus scale="   51.146">  2  9  1 -1</clus>
<clus scale="   81.790">  5  6 -1 -1</clus>
<clus scale="   91.542">  7  8 -1 -1</clus>
<clus scale="   92.036">  2  5  1 -1</clus>
<clus scale="   51.146">  2  5  1 -1</clus>
</clustering>
</event>
<event>
 9    1  0.1399746E-005  0.2127123E+03  0.7546771E-02  0.1172168E+00
          2   -1    0    0  502    0 -0.00000000000E+00  0.00000000000E+00  0.92643679173E+03  0.92643679173E+03  0.00000000000E+00 0. -1.
         21   -1    0    0  501  502  0.00000000000E+00 -0.00000000000E+00 -0.79621405457E+02  0.79621405457E+02  0.00000000000E+00 0.  1.
         23    2    1    2    0    0  0.17944985181E+02  0.21873315198E+02  0.35481375963E+03  0.36828817630E+03  0.94566972906E+02 0.  0.
         23    2    1    2    0    0 -0.20070168562E+03  0.34947748334E+01  0.24917385433E+03  0.33279645064E+03  0.91501299529E+02 0.  0.
        -13    1    3    3    0    0 -0.36490204657E+02  0.19316925166E+02  0.19847297457E+03  0.20272197776E+03  0.00000000000E+00 0.  1.
         13    1    3    3    0    0  0.54435189838E+02  0.25563900316E+01  0.15634078506E+03  0.16556619853E+03  0.00000000000E+00 0. -1.
        -13    1    4    4    0    0 -0.14942935780E+03  0.41222094258E+02  0.15570730710E+03  0.21971153705E+03  0.00000000000E+00 0.  1.
         13    1    4    4    0    0 -0.51272327817E+02 -0.37727319425E+02  0.93466547230E+02  0.11308491359E+03  0.00000000000E+00 0. -1.
          2    1    1    2  501    0  0.18275670044E+03 -0.25368090031E+02  0.24282777232E+03  0.30497357026E+03  0.00000000000E+00 0. -1.
<scales pt_clust_5="13000.00000" pt_clust_6="13000.00000" pt_clust_7="13000.00000" pt_clust_8="13000.00000" pt_clust_9="192.02619"></scales>
<clustering>
<clus scale="   91.501">  7  8 -1 -1</clus>
<clus scale="   94.567">  5  6 -1 -1</clus>
<clus scale="   98.709">  1  5  2 -1</clus>
<clus scale="  192.026">  2  9  1 -1</clus>
<clus scale="  192.026">  2  5  1 -1</clus>
</clustering>
</event>
<event>
 9    1  0.1399746E-005  0.1142899E+03  0.7546771E-02  0.1258955E+00
         21   -1    0    0  501  502  0.00000000000E+00  0.00000000000E+00  0.97054249401E+02  0.97054249401E+02  0.00000000000E+00 0. -1.
         -3   -1    0    0    0  501 -0.00000000000E+00 -0.00000000000E+00 -0.22068512507E+03  0.22068512507E+03  0.00000000000E+00 0.  1.
         23    2    1    2    0    0 -0.33953532613E+02 -0.39680127050E+02 -0.14251019758E+03  0.18174064829E+03  0.99965753965E+02 0.  0.
         23    2    1    2    0    0  0.28678939915E+02  0.62127540896E+02  0.25791668611E+02  0.11192616393E+03  0.84734544722E+02 0.  0.
        -13    1    3    3    0    0 -0.52972918678E+02 -0.50814456676E+02 -0.55613895890E+02  0.92093129693E+02  0.00000000000E+00 0.  1.
         13    1    3    3    0    0  0.19019386065E+02  0.11134329626E+02 -0.86896301693E+02  0.89647518596E+02  0.00000000000E+00 0. -1.
        -13    1    4    4    0    0 -0.22743229157E+02  0.19499362340E+02  0.33205432598E+02  0.44722257973E+02  0.00000000000E+00 0. -1.
         13    1    4    4    0    0  0.51422169072E+02  0.42628178556E+02 -0.74137639869E+01  0.67203905955E+02  0.00000000000E+00 0.  1.
         -3    1    1    2    0  502  0.52745926976E+01 -0.22447413846E+02 -0.69123466951E+01  0.24072562251E+02  0.00000000000E+00 0.  1.
<scales pt_clust_5="13000.00000" pt_clust_6="13000.00000" pt_clust_7="13000.00000" pt_clust_8="13000.00000" pt_clust_9="23.05879"></scales>
<clustering>
<clus scale="   23.059">  1  9  2 -1</clus>
<clus scale="   84.735">  7  8 -1 -1</clus>
<clus scale="   99.966">  5  6 -1 -1</clus>
<clus scale="  101.237">  1  7  2 -1</clus>
<clus scale="   23.059">  1  5  2 -1</clus>
</clustering>
</event>
<event>
 9    1  0.1399746E-005  0.1106808E+03  0.7546771E-02  0.1265932E+00
         -1   -1    0    0    0  501 -0.00000000000E+00  0.00000000000E+00  0.21916366344E+03  0.21916366344E+03  0.00000000000E+00 0.  1.
         21   -1    0    0  501  502  0.00000000000E+00 -0.00000000000E+00 -0.11053987922E+03  0.11053987922E+03  0.00000000000E+00 0.  1.
         23    2    1    2    0    0  0.11168006250E+02 -0.28012967312E+02  0.83496047574E+02  0.13779222285E+03  0.10538337637E+03 0.  0.
         23    2    1    2    0    0  0.27633396584E+02  0.37093248545E+02  0.75934181585E+02  0.12734123992E+03  0.91160724859E+02 0.  0.
        -11    1    4    4    0    0  0.34775406871E+02  0.13253382872E+02 -0.94564243212E+01  0.38397982258E+02  0.00000000000E+00 0. -1.
         11    1    4    4    0    0 -0.71420102868E+01  0.23839865673E+02  0.85390605906E+02  0.88943257661E+02  0.00000000000E+00 0.  1.
        -13    1    3    3    0    0 -0.15711491379E+02 -0.58853858116E+02  0.23748347441E+02  0.65380513784E+02  0.00000000000E+00 0. -1.
         13    1    3    3    0    0  0.26879497629E+02  0.30840890805E+02  0.59747700134E+02  0.72411709065E+02  0.00000000000E+00 0.  1.
         -1    1    1    2    0  502 -0.38801402834E+02 -0.90802812331E+01 -0.50806444948E+02  0.64570079893E+02  0.00000000000E+00 0.  1.
<scales pt_clust_5="13000.00000" pt_clust_6="13000.00000" pt_clust_7="13000.00000" pt_clust_8="13000.00000" pt_clust_9="39.84972"></scales>
<clustering>
<clus scale="   39.850">  2  9  1 -1</clus>
<clus scale="   91.161">  5  6 -1 -1</clus>
<clus scale="   97.236">  2  5  1 -1</clus>
<clus scale="  105.383">  7  8 -1 -1</clus>
<clus scale="   39.850">  2  5  1 -1</clus>
</clustering>
</event>
<event>
 9    1  0.1399746E-005  0.1822142E+03  0.7546771E-02  0.1165864E+00
         -4   -1    0    0    0  501 -0.00000000000E+00  0.00000000000E+00  0.20761242981E+03  0.20761242981E+03  0.00000000000E+00 0.  1.
         21   -1    0    0  501  502  0.00000000000E+00 -0.00000000000E+00 -0.27795836171E+03  0.27795836171E+03  0.00000000000E+00 0.  1.
         23    2    1    2    0    0 -0.17606137666E+03  0.62283241624E+02  0.43948521924E+02  0.21225429656E+03  0.90794291070E+02 0.  0.
         23    2    1    2    0    0  0.85430294217E+02 -0.89793669808E+02 -0.81422845846E+02  0.17306002696E+03  0.89212413929E+02 0.  0.
        -11    1    3    3    0    0 -0.94158920816E+02  0.65245506025E+02 -0.86343027873E+01  0.11488006620E+03  0.00000000000E+00 0.  1.
         11    1    3    3    0    0 -0.81902455848E+02 -0.29622644014E+01  0.52582824711E+02  0.97374230364E+02  0.00000000000E+00 0. -1.
        -13    1    4    4    0    0  0.62653743260E+01 -0.45860524847E+02 -0.66919299854E+02  0.81367286716E+02  0.00000000000E+00 0.  1.
         13    1    4    4    0    0  0.79164919891E+02 -0.43933144961E+02 -0.14503545992E+02  0.91692740247E+02  0.00000000000E+00 0. -1.
         -4    1    1    2    0  502  0.90631082446E+02  0.27510428185E+02 -0.32871607976E+02  0.10025646800E+03  0.00000000000E+00 0.  1.
<scales pt_clust_5="13000.00000" pt_clust_6="13000.00000" pt_clust_7="13000.00000" pt_clust_8="13000.00000" pt_clust_9="94.71440"></scales>
<clustering>
<clus scale="   89.212">  7  8 -1 -1</clus>
<clus scale="   90.794">  5  6 -1 -1</clus>
<clus scale="   94.714">  2  9  1 -1</clus>
<clus scale="  181.431">  2  7  1 -1</clus>
<clus scale="   94.714">  2  5  1 -1</clus>
</clustering>
</event>
<event>
 9    1  0.1752228E-005  0.3536006E+03  0.7546771E-02  0.1090162E+00
         21   -1    0    0  501  502  0.00000000000E+00  0.00000000000E+00  0.14030554263E+03  0.14030554263E+03  0.00000000000E+00 0. -1.
          2   -1    0    0  502    0 -0.00000000000E+00 -0.00000000000E+00 -0.19002956235E+04  0.19002956235E+04  0.00000000000E+00 0. -1.
         23    2    1    2    0    0  0.10728563247E+03 -0.78115795607E+02 -0.28449441748E+03  0.32677687472E+03  0.90740111373E+02 0.  0.
         23    2    1    2    0    0 -0.36375240763E+03  0.26096331587E+03 -0.12369737198E+04  0.13187279235E+04  0.92312980009E+02 0.  0.
        -11    1    4    4    0    0 -0.12662813414E+03  0.40548248750E+02 -0.33574999747E+03  0.36111896327E+03  0.00000000000E+00 0.  1.
         11    1    4    4    0    0 -0.23712427349E+03  0.22041506712E+03 -0.90122372237E+03  0.95760896020E+03  0.00000000000E+00 0. -1.
        -13    1    3    3    0    0  0.83238993194E+02 -0.73206350584E+02 -0.28088861883E+03  0.30197072034E+03  0.00000000000E+00 0.  1.
         13    1    3    3    0    0  0.24046639277E+02 -0.49094450224E+01 -0.36057986511E+01  0.24806154375E+02  0.00000000000E+00 0. -1.
          2    1    1    2  501    0  0.25646677516E+03 -0.18284752027E+03 -0.23852194358E+03  0.39509636799E+03  0.00000000000E+00 0. -1.
<scales pt_clust_5="13000.00000" pt_clust_6="13000.00000" pt_clust_7="13000.00000" pt_clust_8="13000.00000" pt_clust_9="341.33806"></scales>
<clustering>
<clus scale="   90.740">  7  8 -1 -1</clus>
<clus scale="   92.313">  5  6 -1 -1</clus>
<clus scale="  160.767">  2  7  1 -1</clus>
<clus scale="  341.338">  1  9  2 -1</clus>
<clus scale="  341.338">  1  5  2 -1</clus>
</clustering>
</event>
<event>
 9    1  0.1426980E-005  0.1059801E+03  0.7546771E-02  0.1270062E+00
          1   -1    0    0  502    0 -0.00000000000E+00  0.00000000000E+00  0.72752606120E+03  0.72752606120E+03  0.00000000000E+00 0. -1.
         21   -1    0    0  501  502  0.00000000000E+00 -0.00000000000E+00 -0.39238990995E+02  0.39238990995E+02  0.00000000000E+00 0. -1.
         23    2    1    2    0    0  0.44186942844E+02 -0.13660266737E+02  0.56994400639E+03  0.57899380709E+03  0.90876671546E+02 0.  0.
         23    2    1    2    0    0 -0.56076424606E+02 -0.14513474402E+02  0.73184204689E+02  0.13323279973E+03  0.95078098271E+02 0.  0.
        -11    1    4    4    0    0 -0.77943417565E+02  0.92401948237E+01  0.45643340167E+02  0.90795771067E+02  0.00000000000E+00 0. -1.
         11    1    4    4    0    0  0.21866992959E+02 -0.23753669226E+02  0.27540864522E+02  0.42437028658E+02  0.00000000000E+00 0.  1.
        -11    1    3    3    0    0  0.64241007795E+02 -0.34576467772E+02  0.40078887468E+03  0.40737471850E+03  0.00000000000E+00 0. -1.
         11    1    3    3    0    0 -0.20054064951E+02  0.20916201035E+02  0.16915513170E+03  0.17161908859E+03  0.00000000000E+00 0.  1.
          1    1    1    2  501    0  0.11889481762E+02  0.28173741139E+02  0.45158859135E+02  0.54538445382E+02  0.00000000000E+00 0. -1.
<scales pt_clust_5="13000.00000" pt_clust_6="13000.00000" pt_clust_7="13000.00000" pt_clust_8="13000.00000" pt_clust_9="30.57972"></scales>
<clustering>
<clus scale="   30.580">  2  9  1 -1</clus>
<clus scale="   90.877">  7  8 -1 -1</clus>
<clus scale="   95.078">  5  6 -1 -1</clus>
<clus scale="  102.228">  1  7  2 -1</clus>
<clus scale="   30.580">  2  5  1 -1</clus>
</clustering>
</event>
<event>
 9    1  0.1399746E-005  0.1160491E+03  0.7546771E-02  0.1250870E+00
         -1   -1    0    0    0  501 -0.00000000000E+00  0.00000000000E+00  0.23267677665E+03  0.23267677665E+03  0.00000000000E+00 0.  1.
         21   -1    0    0  501  502  0.00000000000E+00 -0.00000000000E+00 -0.95375842454E+02  0.95375842454E+02  0.00000000000E+00 0.  1.
         23    2    1    2    0    0  0.89074372027E+01  0.65631587623E+02  0.12295811979E+03  0.16731141006E+03  0.92127959840E+02 0.  0.
         23    2    1    2    0    0 -0.29272907806E+02 -0.74863117832E+02  0.40329500037E+02  0.12645883204E+03  0.88904319838E+02 0.  0.
        -11    1    3    3    0    0  0.33039644237E+02  0.48378820668E+02  0.12451173818E+03  0.13760560063E+03  0.00000000000E+00 0.  1.
         11    1    3    3    0    0 -0.24132207035E+02  0.17252766955E+02 -0.15536183912E+01  0.29705809433E+02  0.00000000000E+00 0. -1.
        -13    1    4    4    0    0 -0.23878116432E+02 -0.35067201501E+02 -0.25388572715E+02  0.49441406634E+02  0.00000000000E+00 0.  1.
         13    1    4    4    0    0 -0.53947913742E+01 -0.39795916331E+02  0.65718072752E+02  0.77017425410E+02  0.00000000000E+00 0. -1.
         -1    1    1    2    0  502  0.20365470603E+02  0.92315302083E+01 -0.25986685626E+02  0.34282376999E+02  0.00000000000E+00 0.  1.
<scales pt_clust_5="13000.00000" pt_clust_6="13000.00000" pt_clust_7="13000.00000" pt_clust_8="13000.00000" pt_clust_9="22.36009"></scales>
<clustering>
<clus scale="   22.360">  2  9  1 -1</clus>
<clus scale="   88.904">  7  8 -1 -1</clus>
<clus scale="   92.128">  5  6 -1 -1</clus>
<clus scale="  113.507">  2  7  1 -1</clus>
<clus scale="   22.360">  2  5  1 -1</clus>
</clustering>
</event>
<event>
 9    1  0.1399746E-005  0.1091568E+03  0.7546771E-02  0.1263486E+00
         21   -1    0    0  501  502  0.00000000000E+00  0.00000000000E+00  0.12848479177E+03  0.12848479177E+03  0.00000000000E+00 0. -1.
          2   -1    0    0  502    0 -0.00000000000E+00 -0.00000000000E+00 -0.19463084652E+03  0.19463084652E+03  0.00000000000E+00 0. -1.
         23    2    1    2    0    0  0.68157952158E+02  0.10827687140E+02 -0.83788302575E+02  0.14241757018E+03  0.92192946568E+02 0.  0.
         23    2    1    2    0    0 -0.37616075844E+02 -0.35001575868E+02 -0.40837481808E+02  0.11043383906E+03  0.88813588004E+02 0.  0.
        -11    1    4    4    0    0 -0.60367232193E+02 -0.38902218066E+02 -0.47864006260E+02  0.86304973139E+02  0.00000000000E+00 0.  1.
         11    1    4    4    0    0  0.22751156350E+02  0.39006421982E+01  0.70265244523E+01  0.24128865922E+02  0.00000000000E+00 0. -1.
        -13    1    3    3    0    0  0.20377470947E+02 -0.24691993227E+02 -0.75880879030E+02  0.82358021189E+02  0.00000000000E+00 0.  1.
         13    1    3    3    0    0  0.47780481211E+02  0.35519680367E+02 -0.79074235447E+01  0.60059548993E+02  0.00000000000E+00 0. -1.
          2    1    1    2  501    0 -0.30541876314E+02  0.24173888728E+02  0.58479729642E+02  0.70264229050E+02  0.00000000000E+00 0. -1.
<scales pt_clust_5="13000.00000" pt_clust_6="13000.00000" pt_clust_7="13000.00000" pt_clust_8="13000.00000" pt_clust_9="38.95103"></scales>
<clustering>
<clus scale="   38.951">  1  9  2 -1</clus>
<clus scale="   88.814">  5  6 -1 -1</clus>
<clus scale="   92.193">  7  8 -1 -1</clus>
<clus scale="  106.318">  1  5  2 -1</clus>
<clus scale="   38.951">  1  5  2 -1</clus>
</clustering>
</event>
<event>
 9    1  0.1399746E-005  0.1325959E+03  0.7546771E-02  0.1224596E+00
         -2   -1    0    0    0  501 -0.00000000000E+00  0.00000000000E+00  0.16908384703E+03  0.16908384703E+03  0.00000000000E+00 0.  1.
         21   -1    0    0  501  502  0.00000000000E+00 -0.00000000000E+00 -0.17791347834E+03  0.17791347834E+03  0.00000000000E+00 0. -1.
         23    2    1    2    0    0 -0.78137884004E+02 -0.47945324323E+02  0.85788466312E+02  0.15500827287E+03  0.90904458998E+02 0.  0.
         23    2    1    2    0    0  0.67839524801E+02  0.74198913180E+02 -0.85479223905E+02  0.16234405051E+03  0.94557988422E+02 0.  0.
        -11    1    4    4    0    0  0.79507131453E+02  0.28632847234E+02 -0.77447769830E+02  0.11462713878E+03  0.00000000000E+00 0. -1.
         11    1    4    4    0    0 -0.11667606652E+02  0.45566065947E+02 -0.80314540746E+01  0.47716911734E+02  0.00000000000E+00 0.  1.
        -11    1    3    3    0    0 -0.93971048859E+02 -0.19209247036E+02  0.68986856519E+02  0.11814710986E+03  0.00000000000E+00 0.  1.
         11    1    3    3    0    0  0.15833164855E+02 -0.28736077287E+02  0.16801609793E+02  0.36861163015E+02  0.00000000000E+00 0. -1.
         -2    1    1    2    0  502  0.10298359203E+02 -0.26253588857E+02 -0.91388737221E+01  0.29645001991E+02  0.00000000000E+00 0.  1.
<scales pt_clust_5="13000.00000" pt_clust_6="13000.00000" pt_clust_7="13000.00000" pt_clust_8="13000.00000" pt_clust_9="28.20119"></scales>
<clustering>
<clus scale="   28.201">  2  9  1 -1</clus>
<clus scale="   90.904">  7  8 -1 -1</clus>
<clus scale="   94.558">  5  6 -1 -1</clus>
<clus scale="  130.016">  1  7  2 -1</clus>
<clus scale="   28.201">  2  5  1 -1</clus>
</clustering>
</event>
<event>
 9    1  0.1399746E-005  0.1503660E+03  0.7546771E-02  0.1220254E+00
         -4   -1    0    0    0  501 -0.00000000000E+00  0.00000000000E+00  0.22294325427E+03  0.22294325427E+03  0.00000000000E+00 0.  1.
         21   -1    0    0  501  502  0.00000000000E+00 -0.00000000000E+00 -0.42662072561E+03  0.42662072561E+03  0.00000000000E+00 0.  1.
         23    2    1    2    0    0 -0.16933766709E+02 -0.24610537278E+02  0.10898941400E+03  0.14632157044E+03  0.92945567998E+02 0.  0.
         23    2    1    2    0    0  0.12251759261E+03 -0.29833516137E+02  0.13190556416E+02  0.15640646610E+03  0.91588168872E+02 0.  0.
        -11    1    3    3    0    0 -0.49479667656E+02  0.35041448521E+01  0.34888735947E+02  0.60644376808E+02  0.00000000000E+00 0. -1.
         11    1    3    3    0    0  0.32545900947E+02 -0.28114682130E+02  0.74100678057E+02  0.85677193629E+02  0.00000000000E+00 0.  1.
        -13    1    4    4    0    0  0.75514504036E+02 -0.33634579467E+01  0.50420489923E+02  0.90862417826E+02  0.00000000000E+00 0.  1.
         13    1    4    4    0    0  0.47003088571E+02 -0.26470058190E+02 -0.37229933506E+02  0.65544048278E+02  0.00000000000E+00 0. -1.
         -4    1    1    2    0  502 -0.10558382590E+03  0.54444053414E+02 -0.32585744175E+03  0.34683594334E+03  0.00000000000E+00 0.  1.
<scales pt_clust_5="13000.00000" pt_clust_6="13000.00000" pt_clust_7="13000.00000" pt_clust_8="13000.00000" pt_clust_9="119.25415"></scales>
<clustering>
<clus scale="   91.588">  7  8 -1 -1</clus>
<clus scale="   92.946">  5  6 -1 -1</clus>
<clus scale="   97.628">  1  5  2 -1</clus>
<clus scale="  119.254">  2  9  1 -1</clus>
<clus scale="  119.254">  2  5  1 -1</clus>
</clustering>
</event>
<event>
 9    1  0.1399746E-005  0.1423704E+03  0.7546771E-02  0.1210194E+00
          2   -1    0    0  502    0 -0.00000000000E+00  0.00000000000E+00  0.49699493395E+03  0.49699493395E+03  0.00000000000E+00 0. -1.
         21   -1    0    0  501  502  0.00000000000E+00 -0.00000000000E+00 -0.78795413707E+02  0.78795413707E+02  0.00000000000E+00 0. -1.
         23    2    1    2    0    0  0.25237920377E+02 -0.10543089802E+03  0.25459513687E+03  0.29126061739E+03  0.90892445445E+02 0.  0.
         23    2    1    2    0    0 -0.51842579079E+02  0.10016365094E+03  0.19506080434E+03  0.24299591059E+03  0.90982884109E+02 0.  0.
        -11    1    4    4    0    0 -0.21296612832E+02  0.10930725820E+03  0.13507564196E+03  0.17506299284E+03  0.00000000000E+00 0. -1.
         11    1    4    4    0    0 -0.30545966248E+02 -0.91436072641E+01  0.59985162380E+02  0.67932917747E+02  0.00000000000E+00 0.  1.
        -13    1    3    3    0    0  0.34901158584E+02  0.21643938380E+00  0.73828572351E+02  0.81662695351E+02  0.00000000000E+00 0.  1.
         13    1    3    3    0    0 -0.96632382070E+01 -0.10564733740E+03  0.18076656452E+03  0.20959792203E+03  0.00000000000E+00 0. -1.
          2    1    1    2  501    0  0.26604658702E+02  0.52672470789E+01 -0.31456420972E+02  0.41533819676E+02  0.00000000000E+00 0. -1.
<scales pt_clust_5="13000.00000" pt_clust_6="13000.00000" pt_clust_7="13000.00000" pt_clust_8="13000.00000" pt_clust_9="27.12106"></scales>
<clustering>
<clus scale="   27.121">  2  9  1 -1</clus>
<clus scale="   90.892">  7  8 -1 -1</clus>
<clus scale="   90.983">  5  6 -1 -1</clus>
<clus scale="  142.313">  1  7  2 -1</clus>
<clus scale="   27.121">  2  5  1 -1</clus>
</clustering>
</event>
<event>
 9    1  0.1399746E-005  0.1127121E+03  0.7546771E-02  0.1258077E+00
          3   -1    0    0  502    0 -0.00000000000E+00  0.00000000000E+00  0.53065812287E+02  0.53065812287E+02  0.00000000000E+00 0. -1.
         21   -1    0    0  501  502  0.00000000000E+00 -0.00000000000E+00 -0.29879604070E+03  0.29879604070E+03  0.00000000000E+00 0.  1.
         23    2    1    2    0    0 -0.39067054917E+02  0.31682308008E+02 -0.80965292529E+02  0.13565786752E+03  0.96528104741E+02 0.  0.
         23    2    1    2    0    0  0.57100818624E+02 -0.42125601130E+02 -0.15576416465E+03  0.19350392187E+03  0.90256429313E+02 0.  0.
        -11    1    3    3    0    0 -0.26250848898E+02 -0.26823173798E+02 -0.62642302917E+02  0.73024980898E+02  0.00000000000E+00 0.  1.
         11    1    3    3    0    0 -0.12816206019E+02  0.58505481806E+02 -0.18322989612E+02  0.62632886620E+02  0.00000000000E+00 0. -1.
        -11    1    4    4    0    0 -0.21923178292E+02 -0.21931229723E+02 -0.27193915919E+02  0.41244558994E+02  0.00000000000E+00 0. -1.
         11    1    4    4    0    0  0.79023996916E+02 -0.20194371406E+02 -0.12857024873E+03  0.15225936288E+03  0.00000000000E+00 0.  1.
          3    1    1    2  501    0 -0.18033763707E+02  0.10443293122E+02 -0.90007712394E+01  0.22700063603E+02  0.00000000000E+00 0. -1.
<scales pt_clust_5="13000.00000" pt_clust_6="13000.00000" pt_clust_7="13000.00000" pt_clust_8="13000.00000" pt_clust_9="20.83937"></scales>
<clustering>
<clus scale="   20.839">  2  9  1 -1</clus>
<clus scale="   90.256">  7  8 -1 -1</clus>
<clus scale="   96.528">  5  6 -1 -1</clus>
<clus scale="  107.390">  2  7  1 -1</clus>
<clus scale="   20.839">  2  5  1 -1</clus>
</clustering>
</event>
<event>
 9    1  0.1399746E-005  0.1449013E+03  0.7546771E-02  0.1209886E+00
          2   -1    0    0  502    0 -0.00000000000E+00  0.00000000000E+00  0.44470198506E+02  0.44470198506E+02  0.00000000000E+00 0. -1.
         21   -1    0    0  501  502  0.00000000000E+00 -0.00000000000E+00 -0.56103842983E+03  0.56103842983E+03  0.00000000000E+00 0.  1.
         23    2    1    2    0    0 -0.56421803616E+02 -0.82759537385E+02 -0.15351484200E+03  0.20465060477E+03  0.91008254388E+02 0.  0.
         23    2    1    2    0    0  0.38479720313E+02  0.96361528284E+02 -0.30342806758E+03  0.33712332734E+03  0.10400631055E+03 0.  0.
        -11    1    4    4    0    0  0.64920032982E+02  0.78948322147E+02 -0.15720581704E+03  0.18751297866E+03  0.00000000000E+00 0.  1.
         11    1    4    4    0    0 -0.26440312670E+02  0.17413206137E+02 -0.14622225054E+03  0.14961034869E+03  0.00000000000E+00 0. -1.
        -13    1    3    3    0    0 -0.36111631981E+02 -0.37908232358E+02 -0.14567140021E+03  0.15479418879E+03  0.00000000000E+00 0.  1.
         13    1    3    3    0    0 -0.20310171635E+02 -0.44851305028E+02 -0.78434417837E+01  0.49856415972E+02  0.00000000000E+00 0. -1.
          2    1    1    2  501    0  0.17942083303E+02 -0.13601990899E+02 -0.59625321749E+02  0.63734696229E+02  0.00000000000E+00 0. -1.
<scales pt_clust_5="13000.00000" pt_clust_6="13000.00000" pt_clust_7="13000.00000" pt_clust_8="13000.00000" pt_clust_9="22.51516"></scales>
<clustering>
<clus scale="   22.515">  2  9  1 -1</clus>
<clus scale="   91.008">  7  8 -1 -1</clus>
<clus scale="  104.006">  5  6 -1 -1</clus>
<clus scale="  135.873">  1  7  2 -1</clus>
<clus scale="   22.515">  2  5  1 -1</clus>
</clustering>
</event>
<event>
 9    1  0.1399746E-005  0.1648829E+03  0.7546771E-02  0.1206101E+00
         21   -1    0    0  501  502  0.00000000000E+00  0.00000000000E+00  0.78405837993E+03  0.78405837993E+03  0.00000000000E+00 0.  1.
          2   -1    0    0  502    0 -0.00000000000E+00 -0.00000000000E+00 -0.83869987320E+02  0.83869987320E+02  0.00000000000E+00 0. -1.
         23    2    1    2    0    0 -0.38108541741E+02 -0.68610213307E+01  0.17326656689E+03  0.20005832355E+03  0.92210059399E+02 0.  0.
         23    2    1    2    0    0  0.35493949345E+02  0.14290551568E+03  0.63249436587E+02  0.18464439767E+03  0.91712897188E+02 0.  0.
        -13    1    4    4    0    0 -0.16398370547E+02  0.11173149077E+03  0.42065523877E+02  0.12050867556E+03  0.00000000000E+00 0.  1.
         13    1    4    4    0    0  0.51892319892E+02  0.31174024909E+02  0.21183912710E+02  0.64135722110E+02  0.00000000000E+00 0. -1.
        -13    1    3    3    0    0 -0.10934297582E+02  0.37350183808E+02  0.11797349043E+03  0.12422696784E+03  0.00000000000E+00 0.  1.
         13    1    3    3    0    0 -0.27174244159E+02 -0.44211205139E+02  0.55293076463E+02  0.75831355719E+02  0.00000000000E+00 0. -1.
          2    1    1    2  501    0  0.26145923958E+01 -0.13604449435E+03  0.46367238913E+03  0.48322564602E+03  0.00000000000E+00 0. -1.
<scales pt_clust_5="13000.00000" pt_clust_6="13000.00000" pt_clust_7="13000.00000" pt_clust_8="13000.00000" pt_clust_9="137.02236"></scales>
<clustering>
<clus scale="   91.713">  5  6 -1 -1</clus>
<clus scale="   92.210">  7  8 -1 -1</clus>
<clus scale="  100.010">  2  7  1 -1</clus>
<clus scale="  137.022">  1  9  2 -1</clus>
<clus scale="  137.022">  1  5  2 -1</clus>
</clustering>
</event>
<event>
 9    1  0.1399746E-005  0.2146197E+03  0.7546771E-02  0.1138191E+00
         21   -1    0    0  501  502  0.00000000000E+00  0.00000000000E+00  0.34580758478E+03  0.34580758478E+03  0.00000000000E+00 0. -1.
         -3   -1    0    0    0  501 -0.00000000000E+00 -0.00000000000E+00 -0.24187789903E+03  0.24187789903E+03  0.00000000000E+00 0.  1.
         23    2    1    2    0    0 -0.18243800620E+03 -0.54138269809E+02 -0.17617070133E+02  0.21131364744E+03  0.90158294503E+02 0.  0.
         23    2    1    2    0    0  0.20722406483E+03 -0.46350943862E+02  0.22131999602E+02  0.23285973050E+03  0.92970993550E+02 0.  0.
        -11    1    3    3    0    0 -0.17015519917E+03 -0.71831860990E+02 -0.28988617486E+02  0.18695707529E+03  0.00000000000E+00 0. -1.
         11    1    3    3    0    0 -0.12282807034E+02  0.17693591180E+02  0.11371547353E+02  0.24356572146E+02  0.00000000000E+00 0.  1.
        -11    1    4    4    0    0  0.96513955499E+02 -0.17302669698E+02 -0.36041762626E+02  0.10446690690E+03  0.00000000000E+00 0.  1.
         11    1    4    4    0    0  0.11071010933E+03 -0.29048274164E+02  0.58173762228E+02  0.12839282360E+03  0.00000000000E+00 0. -1.
         -3    1    1    2    0  502 -0.24786058628E+02  0.10048921367E+03  0.99414756275E+02  0.14351210587E+03  0.00000000000E+00 0.  1.
<scales pt_clust_5="13000.00000" pt_clust_6="13000.00000" pt_clust_7="13000.00000" pt_clust_8="13000.00000" pt_clust_9="103.50087"></scales>
<clustering>
<clus scale="   90.158">  5  6 -1 -1</clus>
<clus scale="   92.971">  7  8 -1 -1</clus>
<clus scale="  103.501">  1  9  2 -1</clus>
<clus scale="  213.416">  2  5  1 -1</clus>
<clus scale="  103.501">  1  5  2 -1</clus>
</clustering>
</event>
<event>
 9    1  0.1399746E-005  0.1028917E+03  0.7546771E-02  0.1274769E+00
          2   -1    0    0  502    0 -0.00000000000E+00  0.00000000000E+00  0.23487170060E+03  0.23487170060E+03  0.00000000000E+00 0. -1.
         21   -1    0    0  501  502  0.00000000000E+00 -0.00000000000E+00 -0.13522504087E+03  0.13522504087E+03  0.00000000000E+00 0. -1.
         23    2    1    2    0    0 -0.42550653108E+02 -0.42304551637E+01  0.15114084206E+03  0.18037794211E+03  0.88680285467E+02 0.  0.
         23    2    1    2    0    0  0.93897590530E+02  0.12538495154E+02 -0.33438125203E+02  0.13465926150E+03  0.89671830157E+02 0.  0.
        -11    1    3    3    0    0 -0.26469492577E+02 -0.40025033451E+02  0.39861828551E+02  0.62382711672E+02  0.00000000000E+00 0.  1.
         11    1    3    3    0    0 -0.16081160531E+02  0.35794578288E+02  0.11127901350E+03  0.11799523043E+03  0.00000000000E+00 0. -1.
        -13    1    4    4    0    0 -0.87257188365E+01  0.23338268107E+02 -0.17012430332E+02  0.30170112914E+02  0.00000000000E+00 0.  1.
         13    1    4    4    0    0  0.10262330937E+03 -0.10799772953E+02 -0.16425694871E+02  0.10448914859E+03  0.00000000000E+00 0. -1.
          2    1    1    2  501    0 -0.51346937422E+02 -0.83080399906E+01 -0.18056057124E+02  0.55059537866E+02  0.00000000000E+00 0. -1.
<scales pt_clust_5="13000.00000" pt_clust_6="13000.00000" pt_clust_7="13000.00000" pt_clust_8="13000.00000" pt_clust_9="52.01472"></scales>
<clustering>
<clus scale="   52.015">  2  9  1 -1</clus>
<clus scale="   88.680">  5  6 -1 -1</clus>
<clus scale="   89.672">  7  8 -1 -1</clus>
<clus scale="  102.029">  1  5  2 -1</clus>
<clus scale="   52.015">  2  5  1 -1</clus>
</clustering>
</event>
<event>
 9    1  0.1399746E-005  0.9280109E+02  0.7546771E-02  0.1296389E+00
          2   -1    0    0  502    0 -0.00000000000E+00  0.00000000000E+00  0.40025426131E+02  0.40025426131E+02  0.00000000000E+00 0. -1.
         21   -1    0    0  501  502  0.00000000000E+00 -0.00000000000E+00 -0.31839875829E+03  0.31839875829E+03  0.00000000000E+00 0. -1.
         23    2    1    2    0    0 -0.82684038606E+01  0.14180584898E+02 -0.66804871425E+02  0.11431107470E+03  0.91294443765E+02 0.  0.
         23    2    1    2    0    0  0.27296993842E+02  0.45225135252E+01 -0.16619848860E+03  0.19147920906E+03  0.90976760157E+02 0.  0.
        -13    1    4    4    0    0  0.53519010094E+02 -0.19122438190E+02 -0.78276559844E+02  0.96732475957E+02  0.00000000000E+00 0. -1.
         13    1    4    4    0    0 -0.26222016252E+02  0.23644951715E+02 -0.87921928755E+02  0.94746733104E+02  0.00000000000E+00 0.  1.
        -13    1    3    3    0    0 -0.29863452970E+02  0.15114363369E+02  0.96706832168E+01  0.34839516604E+02  0.00000000000E+00 0. -1.
         13    1    3    3    0    0  0.21595049110E+02 -0.93377847051E+00 -0.76475554641E+02  0.79471558095E+02  0.00000000000E+00 0.  1.
          2    1    1    2  501    0 -0.19028589982E+02 -0.18703098424E+02 -0.45369972138E+02  0.52633900664E+02  0.00000000000E+00 0. -1.
<scales pt_clust_5="13000.00000" pt_clust_6="13000.00000" pt_clust_7="13000.00000" pt_clust_8="13000.00000" pt_clust_9="26.68133"></scales>
<clustering>
<clus scale="   26.681">  2  9  1 -1</clus>
<clus scale="   90.977">  5  6 -1 -1</clus>
<clus scale="   91.294">  7  8 -1 -1</clus>
<clus scale="   92.489">  2  5  1 -1</clus>
<clus scale="   26.681">  2  5  1 -1</clus>
</clustering>
</event>
<event>
 9    1  0.1399746E-005  0.9442761E+02  0.7546771E-02  0.1292946E+00
         21   -1    0    0  501  502  0.00000000000E+00  0.00000000000E+00  0.57816492508E+02  0.57816492508E+02  0.00000000000E+00 0. -1.
          3   -1    0    0  502    0 -0.00000000000E+00 -0.00000000000E+00 -0.37934023545E+03  0.37934023545E+03  0.00000000000E+00 0. -1.
         23    2    1    2    0    0  0.99829360228E+01 -0.41255537488E+01 -0.18104280954E+03  0.20335780840E+03  0.91984890841E+02 0.  0.
         23    2    1    2    0    0 -0.33763362926E+02  0.33738898858E+01 -0.17002364012E+03  0.19586680621E+03  0.91128589168E+02 0.  0.
        -13    1    3    3    0    0  0.25081470224E+02  0.39305358617E+02 -0.89633638140E+02  0.10103554053E+03  0.00000000000E+00 0. -1.
         13    1    3    3    0    0 -0.15098534201E+02 -0.43430912366E+02 -0.91409171404E+02  0.10232226786E+03  0.00000000000E+00 0.  1.
        -13    1    4    4    0    0  0.12874350060E+02 -0.31294152502E+02 -0.34092705760E+02  0.48035252225E+02  0.00000000000E+00 0.  1.
         13    1    4    4    0    0 -0.46637712986E+02  0.34668042388E+02 -0.13593093436E+03  0.14783155398E+03  0.00000000000E+00 0. -1.
          3    1    1    2  501    0  0.23780426903E+02  0.75166386302E+00  0.29542706730E+02  0.37932113350E+02  0.00000000000E+00 0. -1.
<scales pt_clust_5="13000.00000" pt_clust_6="13000.00000" pt_clust_7="13000.00000" pt_clust_8="13000.00000" pt_clust_9="23.79230"></scales>
<clustering>
<clus scale="   23.792">  1  9  2 -1</clus>
<clus scale="   91.129">  7  8 -1 -1</clus>
<clus scale="   91.985">  5  6 -1 -1</clus>
<clus scale="   93.594">  1  7  2 -1</clus>
<clus scale="   23.792">  1  5  2 -1</clus>
</clustering>
</event>
<event>
 9    1  0.1399746E-005  0.1315509E+03  0.7546771E-02  0.1228573E+00
         21   -1    0    0  501  502  0.00000000000E+00  0.00000000000E+00  0.43246854009E+03  0.43246854009E+03  0.00000000000E+00 0. -1.
          1   -1    0    0  502    0 -0.00000000000E+00 -0.00000000000E+00 -0.27319570590E+03  0.27319570590E+03  0.00000000000E+00 0. -1.
         23    2    1    2    0    0 -0.75586388996E+02 -0.42663992135E+02 -0.24377773874E+03  0.27346009847E+03  0.88426925330E+02 0.  0.
         23    2    1    2    0    0  0.32328254925E+02  0.38911652138E+02  0.28296235056E+03  0.30450713359E+03  0.10048716252E+03 0.  0.
        -11    1    4    4    0    0  0.62782665047E+02  0.35633494049E+01  0.19568826054E+03  0.20554380507E+03  0.00000000000E+00 0.  1.
         11    1    4    4    0    0 -0.30454410123E+02  0.35348302733E+02  0.87274090027E+02  0.98963328522E+02  0.00000000000E+00 0. -1.
        -11    1    3    3    0    0 -0.92655862868E+02 -0.19102649969E+02 -0.17951367709E+03  0.20291668345E+03  0.00000000000E+00 0. -1.
         11    1    3    3    0    0  0.17069473872E+02 -0.23561342167E+02 -0.64264061647E+02  0.70543415017E+02  0.00000000000E+00 0.  1.
          1    1    1    2  501    0  0.43258134071E+02  0.37523399971E+01  0.12008822236E+03  0.12769701394E+03  0.00000000000E+00 0. -1.
<scales pt_clust_5="13000.00000" pt_clust_6="13000.00000" pt_clust_7="13000.00000" pt_clust_8="13000.00000" pt_clust_9="43.42057"></scales>
<clustering>
<clus scale="   43.421">  1  9  2 -1</clus>
<clus scale="   88.427">  7  8 -1 -1</clus>
<clus scale="  100.487">  5  6 -1 -1</clus>
<clus scale="  122.586">  2  7  1 -1</clus>
<clus scale="   43.421">  1  5  2 -1</clus>
</clustering>
</event>
<event>
 9    1  0.1399746E-005  0.1179007E+03  0.7546771E-02  0.1247529E+00
         21   -1    0    0  501  502  0.00000000000E+00  0.00000000000E+00  0.29678216783E+02  0.29678216783E+02  0.00000000000E+00 0. -1.
         -1   -1    0    0    0  501 -0.00000000000E+00 -0.00000000000E+00 -0.70679291614E+03  0.70679291614E+03  0.00000000000E+00 0.  1.
         23    2    1    2    0    0 -0.68043180043E+02 -0.62047793499E+01 -0.39916025785E+03  0.41489886357E+03  0.90242905050E+02 0.  0.
         23    2    1    2    0    0  0.79822130240E+02 -0.10934430251E+02 -0.27405238973E+03  0.30041282273E+03  0.93016221695E+02 0.  0.
        -11    1    4    4    0    0  0.44971148826E+02  0.33254294050E+02 -0.75007653039E+02  0.93564952380E+02  0.00000000000E+00 0. -1.
         11    1    4    4    0    0  0.34850981414E+02 -0.44188724301E+02 -0.19904473669E+03  0.20684787034E+03  0.00000000000E+00 0.  1.
        -13    1    3    3    0    0 -0.55475682459E+02  0.37573144198E+02 -0.25886884367E+03  0.26739927213E+03  0.00000000000E+00 0.  1.
         13    1    3    3    0    0 -0.12567497584E+02 -0.43777923548E+02 -0.14029141418E+03  0.14749959145E+03  0.00000000000E+00 0. -1.
         -1    1    1    2    0  502 -0.11778950197E+02  0.17139209601E+02 -0.39020517788E+01  0.21159446627E+02  0.00000000000E+00 0.  1.
<scales pt_clust_5="13000.00000" pt_clust_6="13000.00000" pt_clust_7="13000.00000" pt_clust_8="13000.00000" pt_clust_9="20.79654"></scales>
<clustering>
<clus scale="   20.797">  1  9  2 -1</clus>
<clus scale="   90.243">  7  8 -1 -1</clus>
<clus scale="   93.016">  5  6 -1 -1</clus>
<clus scale="  115.725">  2  7  1 -1</clus>
<clus scale="   20.797">  1  5  2 -1</clus>
</clustering>
</event>
<event>
 9    1  0.1399746E-005  0.1450516E+03  0.7546771E-02  0.1228984E+00
          1   -1    0    0  502    0 -0.00000000000E+00  0.00000000000E+00  0.24959601565E+03  0.24959601565E+03  0.00000000000E+00 0. -1.
         21   -1    0    0  501  502  0.00000000000E+00 -0.00000000000E+00 -0.25111075162E+03  0.25111075162E+03  0.00000000000E+00 0. -1.
         23    2    1    2    0    0  0.13702592287E+02  0.16155908951E+02  0.46995846851E+02  0.10212460340E+03  0.88159234166E+02 0.  0.
         23    2    1    2    0    0  0.59327790759E+02  0.72596016427E+02  0.13124359881E+03  0.18522352937E+03  0.91065389934E+02 0.  0.
        -13    1    4    4    0    0  0.24836492818E+02  0.26684435073E+00  0.93323058180E+02  0.96571816642E+02  0.00000000000E+00 0.  1.
         13    1    4    4    0    0  0.34491297941E+02  0.72329172077E+02  0.37920540633E+02  0.88651712724E+02  0.00000000000E+00 0. -1.
        -13    1    3    3    0    0 -0.26683207616E+02  0.32635256675E+02  0.65903170381E+01  0.42667151599E+02  0.00000000000E+00 0.  1.
         13    1    3    3    0    0  0.40385799902E+02 -0.16479347724E+02  0.40405529813E+02  0.59457451800E+02  0.00000000000E+00 0. -1.
          1    1    1    2  501    0 -0.73030383046E+02 -0.88751925378E+02 -0.17975418163E+03  0.21335863451E+03  0.00000000000E+00 0. -1.
<scales pt_clust_5="13000.00000" pt_clust_6="13000.00000" pt_clust_7="13000.00000" pt_clust_8="13000.00000" pt_clust_9="112.90293"></scales>
<clustering>
<clus scale="   88.159">  7  8 -1 -1</clus>
<clus scale="   90.669">  1  7  2 -1</clus>
<clus scale="   91.065">  5  6 -1 -1</clus>
<clus scale="  112.903">  2  9  1 -1</clus>
<clus scale="  112.903">  2  5  1 -1</clus>
</clustering>
</event>
<event>
 9    1  0.1399746E-005  0.3326769E+03  0.7546771E-02  0.1069980E+00
          1   -1    0    0  502    0 -0.00000000000E+00  0.00000000000E+00  0.18657440230E+04  0.18657440230E+04  0.00000000000E+00 0. -1.
         21   -1    0    0  501  502  0.00000000000E+00 -0.00000000000E+00 -0.11525845980E+03  0.11525845980E+03  0.00000000000E+00 0. -1.
         23    2    1    2    0    0  0.27750197058E+03  0.27273964053E+03  0.11963446967E+04  0.12613442085E+04  0.91401990025E+02 0.  0.
         23    2    1    2    0    0 -0.13704173422E+03 -0.13111454989E+03  0.12175256141E+03  0.24347932614E+03  0.92125099399E+02 0.  0.
        -13    1    3    3    0    0  0.12344434441E+03  0.60728259082E+02  0.40352989460E+03  0.42633649088E+03  0.00000000000E+00 0.  1.
         13    1    3    3    0    0  0.15405762616E+03  0.21201138145E+03  0.79281480212E+03  0.83500771763E+03  0.00000000000E+00 0. -1.
        -13    1    4    4    0    0 -0.29725893475E+02 -0.20483367132E+02 -0.13379802802E+02  0.38499560972E+02  0.00000000000E+00 0. -1.
         13    1    4    4    0    0 -0.10731584075E+03 -0.11063118275E+03  0.13513236421E+03  0.20497976517E+03  0.00000000000E+00 0.  1.
          1    1    1    2  501    0 -0.14046023635E+03 -0.14162509065E+03  0.43238830509E+03  0.47617894816E+03  0.00000000000E+00 0. -1.
<scales pt_clust_5="13000.00000" pt_clust_6="13000.00000" pt_clust_7="13000.00000" pt_clust_8="13000.00000" pt_clust_9="199.46625"></scales>
<clustering>
<clus scale="   91.402">  5  6 -1 -1</clus>
<clus scale="   92.125">  7  8 -1 -1</clus>
<clus scale="  199.466">  2  9  1 -1</clus>
<clus scale="  332.477">  1  5  2 -1</clus>
<clus scale="  199.466">  2  5  1 -1</clus>
</clustering>
</event>
<event>
 9    1  0.1399746E-005  0.1089471E+03  0.7546771E-02  0.1262896E+00
         -1   -1    0    0    0  501 -0.00000000000E+00  0.00000000000E+00  0.60751029782E+03  0.60751029782E+03  0.00000000000E+00 0.  1.
         21   -1    0    0  501  502  0.00000000000E+00 -0.00000000000E+00 -0.50362350730E+02  0.50362350730E+02  0.00000000000E+00 0. -1.
         23    2    1    2    0    0  0.52215621050E+02  0.42401359436E+02  0.44853832060E+03  0.46222504292E+03  0.89112394710E+02 0.  0.
         23    2    1    2    0    0 -0.16877204048E+02 -0.22436453870E+02  0.17538267604E+02  0.95941068334E+02  0.90049227002E+02 0.  0.
        -11    1    4    4    0    0 -0.44856309899E+02 -0.10513672503E+02  0.37633190164E+02  0.59488510228E+02  0.00000000000E+00 0.  1.
         11    1    4    4    0    0  0.27979105851E+02 -0.11922781367E+02 -0.20094922559E+02  0.36452558105E+02  0.00000000000E+00 0. -1.
        -11    1    3    3    0    0  0.76201087716E+02  0.37603003056E+02  0.38189641125E+03  0.39123581193E+03  0.00000000000E+00 0.  1.
         11    1    3    3    0    0 -0.23985466666E+02  0.47983563800E+01  0.66641909351E+02  0.70989230994E+02  0.00000000000E+00 0. -1.
         -1    1    1    2    0  502 -0.35338417002E+02 -0.19964905566E+02  0.91071358878E+02  0.99706537290E+02  0.00000000000E+00 0.  1.
<scales pt_clust_5="13000.00000" pt_clust_6="13000.00000" pt_clust_7="13000.00000" pt_clust_8="13000.00000" pt_clust_9="40.58821"></scales>
<clustering>
<clus scale="   40.588">  2  9  1 -1</clus>
<clus scale="   89.112">  7  8 -1 -1</clus>
<clus scale="   90.049">  5  6 -1 -1</clus>
<clus scale="  108.174">  1  7  2 -1</clus>
<clus scale="   40.588">  2  5  1 -1</clus>
</clustering>
</event>
<event>
 9    1  0.1827749E-005  0.1220304E+03  0.7546771E-02  0.1242023E+00
         21   -1    0    0  501  502  0.00000000000E+00  0.00000000000E+00  0.24813394456E+03  0.24813394456E+03  0.00000000000E+00 0.  1.
          1   -1    0    0  502    0 -0.00000000000E+00 -0.00000000000E+00 -0.27183269225E+03  0.27183269225E+03  0.00000000000E+00 0. -1.
         23    2    1    2    0    0 -0.68748187437E+02  0.33352102310E+02 -0.23646583214E+03  0.26380539331E+03  0.88535415302E+02 0.  0.
         23    2    1    2    0    0  0.52294584832E+02 -0.49175267543E+02  0.17217224991E+03  0.20958835238E+03  0.95556597220E+02 0.  0.
        -11    1    4    4    0    0  0.42147222351E+02  0.35654270288E+01  0.14161315747E+03  0.14779508446E+03  0.00000000000E+00 0.  1.
         11    1    4    4    0    0  0.10147362481E+02 -0.52740694572E+02  0.30559092442E+02  0.61793267919E+02  0.00000000000E+00 0. -1.
        -13    1    3    3    0    0 -0.25856277376E+02  0.10200884156E+02 -0.62544429630E+01  0.28490755941E+02  0.00000000000E+00 0.  1.
         13    1    3    3    0    0 -0.42891910061E+02  0.23151218154E+02 -0.23021138918E+03  0.23531463736E+03  0.00000000000E+00 0. -1.
          1    1    1    2  501    0  0.16453602605E+02  0.15823165233E+02  0.40594834537E+02  0.46572891125E+02  0.00000000000E+00 0. -1.
<scales pt_clust_5="13000.00000" pt_clust_6="13000.00000" pt_clust_7="13000.00000" pt_clust_8="13000.00000" pt_clust_9="22.82747"></scales>
<clustering>
<clus scale="   22.827">  1  9  2 -1</clus>
<clus scale="   88.535">  7  8 -1 -1</clus>
<clus scale="   95.557">  5  6 -1 -1</clus>
<clus scale="  116.614">  2  7  1 -1</clus>
<clus scale="   22.827">  1  5  2 -1</clus>
</clustering>
</event>
<event>
 9    1  0.1399746E-005  0.9563910E+02  0.7546771E-02  0.1290279E+00
         -4   -1    0    0    0  501 -0.00000000000E+00  0.00000000000E+00  0.35642794954E+03  0.35642794954E+03  0.00000000000E+00 0.  1.
         21   -1    0    0  501  502  0.00000000000E+00 -0.00000000000E+00 -0.84233321124E+02  0.84233321124E+02  0.00000000000E+00 0.  1.
         23    2    1    2    0    0 -0.45906698933E+02  0.27814325077E+02  0.20756580983E+03  0.23330095985E+03  0.92003862803E+02 0.  0.
         23    2    1    2    0    0 -0.13432212708E+02  0.41250753986E+01  0.95999559479E+02  0.13302757831E+03  0.91010881685E+02 0.  0.
        -11    1    4    4    0    0 -0.48829247670E+02  0.19553213222E+02  0.46166917034E+02  0.69985768580E+02  0.00000000000E+00 0.  1.
         11    1    4    4    0    0  0.35397034961E+02 -0.15428137823E+02  0.49832642445E+02  0.63041809728E+02  0.00000000000E+00 0. -1.
        -13    1    3    3    0    0  0.23544029147E+02  0.33713127130E+01  0.17664734896E+02  0.29626506997E+02  0.00000000000E+00 0. -1.
         13    1    3    3    0    0 -0.69450728080E+02  0.24443012364E+02  0.18990107494E+03  0.20367445286E+03  0.00000000000E+00 0.  1.
         -4    1    1    2    0  502  0.59338911641E+02 -0.31939400476E+02 -0.31370740893E+02  0.74332732505E+02  0.00000000000E+00 0.  1.
<scales pt_clust_5="13000.00000" pt_clust_6="13000.00000" pt_clust_7="13000.00000" pt_clust_8="13000.00000" pt_clust_9="67.38866"></scales>
<clustering>
<clus scale="   67.389">  2  9  1 -1</clus>
<clus scale="   91.011">  5  6 -1 -1</clus>
<clus scale="   92.004">  7  8 -1 -1</clus>
<clus scale="   94.684">  2  5  1 -1</clus>
<clus scale="   67.389">  2  5  1 -1</clus>
</clustering>
</event>
<event>
 9    1  0.1399746E-005  0.9303429E+02  0.7546771E-02  0.1297033E+00
         -1   -1    0    0    0  501 -0.00000000000E+00  0.00000000000E+00  0.19230601225E+03  0.19230601225E+03  0.00000000000E+00 0.  1.
         21   -1    0    0  501  502  0.00000000000E+00 -0.00000000000E+00 -0.63795386491E+02  0.63795386491E+02  0.00000000000E+00 0. -1.
         23    2    1    2    0    0  0.28113666249E+02  0.39527258942E+01  0.72340981086E+02  0.11788867202E+03  0.88648289184E+02 0.  0.
         23    2    1    2    0    0 -0.47672770292E+01  0.16188289098E+02  0.28725046022E+02  0.96934156373E+02  0.91029197341E+02 0.  0.
        -11    1    4    4    0    0  0.21150749716E+02  0.66294467588E+01  0.54697120102E+02  0.59017613687E+02  0.00000000000E+00 0.  1.
         11    1    4    4    0    0 -0.25918026745E+02  0.95588423393E+01 -0.25972074080E+02  0.37916542686E+02  0.00000000000E+00 0. -1.
        -13    1    3    3    0    0 -0.28155106666E+02 -0.11580624757E+02  0.89873314092E+01  0.31742605863E+02  0.00000000000E+00 0. -1.
         13    1    3    3    0    0  0.56268772914E+02  0.15533350652E+02  0.63353649676E+02  0.86146066161E+02  0.00000000000E+00 0.  1.
         -1    1    1    2    0  502 -0.23346389220E+02 -0.20141014992E+02  0.27444598653E+02  0.41278570345E+02  0.00000000000E+00 0.  1.
<scales pt_clust_5="13000.00000" pt_clust_6="13000.00000" pt_clust_7="13000.00000" pt_clust_8="13000.00000" pt_clust_9="30.83367"></scales>
<clustering>
<clus scale="   30.834">  2  9  1 -1</clus>
<clus scale="   88.648">  7  8 -1 -1</clus>
<clus scale="   90.706">  1  7  2 -1</clus>
<clus scale="   91.029">  5  6 -1 -1</clus>
<clus scale="   30.834">  2  5  1 -1</clus>
</clustering>
</event>
<event>
 9    1  0.1399746E-005  0.1065208E+03  0.7546771E-02  0.1267533E+00
         21   -1    0    0  501  502  0.00000000000E+00  0.00000000000E+00  0.45035965633E+02  0.45035965633E+02  0.00000000000E+00 0.  1.
          3   -1    0    0  502    0 -0.00000000000E+00 -0.00000000000E+00 -0.71316756221E+03  0.71316756221E+03  0.00000000000E+00 0. -1.
         23    2    1    2    0    0  0.50083656427E+02 -0.38947097407E+02 -0.42507498724E+03  0.43960435652E+03  0.92401279538E+02 0.  0.
         23    2    1    2    0    0  0.24519085920E+02  0.39724952811E+02 -0.55506121257E+02  0.11675428086E+03  0.91495219285E+02 0.  0.
        -11    1    4    4    0    0 -0.21385470820E+02  0.25425581852E+02  0.10724739355E+02  0.34911582733E+02  0.00000000000E+00 0. -1.
         11    1    4    4    0    0  0.45904556740E+02  0.14299370960E+02 -0.66230860612E+02  0.81842698128E+02  0.00000000000E+00 0.  1.
        -11    1    3    3    0    0 -0.72425851102E+01 -0.51814969733E+02 -0.17099047373E+03  0.17881551452E+03  0.00000000000E+00 0. -1.
         11    1    3    3    0    0  0.57326241538E+02  0.12867872326E+02 -0.25408451351E+03  0.26078884200E+03  0.00000000000E+00 0.  1.
          3    1    1    2  501    0 -0.74602742348E+02 -0.77785540453E+00 -0.18755048808E+03  0.20184489045E+03  0.00000000000E+00 0. -1.
<scales pt_clust_5="13000.00000" pt_clust_6="13000.00000" pt_clust_7="13000.00000" pt_clust_8="13000.00000" pt_clust_9="74.60683"></scales>
<clustering>
<clus scale="   74.607">  1  9  2 -1</clus>
<clus scale="   91.495">  5  6 -1 -1</clus>
<clus scale="   92.401">  7  8 -1 -1</clus>
<clus scale="  105.736">  1  5  2 -1</clus>
<clus scale="   74.607">  1  5  2 -1</clus>
</clustering>
</event>
<event>
 9    1  0.1399746E-005  0.1749099E+03  0.7546771E-02  0.1173337E+00
         21   -1    0    0  501  502  0.00000000000E+00  0.00000000000E+00  0.22282119144E+03  0.22282119144E+03  0.00000000000E+00 0. -1.
          2   -1    0    0  502    0 -0.00000000000E+00 -0.00000000000E+00 -0.52530930135E+03  0.52530930135E+03  0.00000000000E+00 0. -1.
         23    2    1    2    0    0  0.13738219442E+03 -0.93735625565E+02 -0.35040591310E+03  0.39874519529E+03  0.92483468728E+02 0.  0.
         23    2    1    2    0    0 -0.92202853657E+02  0.77980174734E+02 -0.10907028062E+03  0.18526745714E+03  0.88574435852E+02 0.  0.
        -11    1    3    3    0    0  0.66236215852E+02 -0.63846539841E+02 -0.96306737813E+02  0.13318635324E+03  0.00000000000E+00 0.  1.
         11    1    3    3    0    0  0.71145978570E+02 -0.29889085724E+02 -0.25409917529E+03  0.26555884206E+03  0.00000000000E+00 0. -1.
        -13    1    4    4    0    0 -0.66504286368E+02  0.10517106585E+02 -0.19244408115E+02  0.70026972517E+02  0.00000000000E+00 0.  1.
         13    1    4    4    0    0 -0.25698567288E+02  0.67463068149E+02 -0.89825872502E+02  0.11524048462E+03  0.00000000000E+00 0. -1.
          2    1    1    2  501    0 -0.45179340765E+02  0.15755450831E+02  0.15698808381E+03  0.16411784035E+03  0.00000000000E+00 0. -1.
<scales pt_clust_5="13000.00000" pt_clust_6="13000.00000" pt_clust_7="13000.00000" pt_clust_8="13000.00000" pt_clust_9="47.84775"></scales>
<clustering>
<clus scale="   47.848">  1  9  2 -1</clus>
<clus scale="   88.574">  7  8 -1 -1</clus>
<clus scale="   92.483">  5  6 -1 -1</clus>
<clus scale="  172.875">  1  7  2 -1</clus>
<clus scale="   47.848">  1  5  2 -1</clus>
</clustering>
</event>
<event>
 9    1  0.1399746E-005  0.2213539E+03  0.7546771E-02  0.1133171E+00
         21   -1    0    0  501  502  0.00000000000E+00  0.00000000000E+00  0.12380070688E+03  0.12380070688E+03  0.00000000000E+00 0.  1.
          3   -1    0    0  502    0 -0.00000000000E+00 -0.00000000000E+00 -0.91986005584E+03  0.91986005584E+03  0.00000000000E+00 0. -1.
         23    2    1    2    0    0 -0.11703507265E+03 -0.17418940244E+03 -0.72686474886E+03  0.76150435971E+03  0.86702771370E+02 0.  0.
         23    2    1    2    0    0  0.94692758403E+02  0.14797446613E+03 -0.11200636075E+03  0.22720871205E+03  0.90637811442E+02 0.  0.
        -11    1    3    3    0    0 -0.32519563563E+02 -0.79269171796E+01 -0.19580029629E+03  0.19864066567E+03  0.00000000000E+00 0.  1.
         11    1    3    3    0    0 -0.84515509088E+02 -0.16626248526E+03 -0.53106445258E+03  0.56286369404E+03  0.00000000000E+00 0. -1.
        -11    1    4    4    0    0  0.70046379282E+02  0.99071735955E+02 -0.12140947380E+03  0.17164487887E+03  0.00000000000E+00 0. -1.
         11    1    4    4    0    0  0.24646379121E+02  0.48902730172E+02  0.94031130485E+01  0.55563833174E+02  0.00000000000E+00 0.  1.
          3    1    1    2  501    0  0.22342314248E+02  0.26214936314E+02  0.42811760657E+02  0.54947690965E+02  0.00000000000E+00 0. -1.
<scales pt_clust_5="13000.00000" pt_clust_6="13000.00000" pt_clust_7="13000.00000" pt_clust_8="13000.00000" pt_clust_9="34.44419"></scales>
<clustering>
<clus scale="   34.444">  1  9  2 -1</clus>
<clus scale="   86.703">  5  6 -1 -1</clus>
<clus scale="   90.638">  7  8 -1 -1</clus>
<clus scale="  219.772">  2  5  1 -1</clus>
<clus scale="   34.444">  1  5  2 -1</clus>
</clustering>
</event>
<event>
 9    1  0.1399746E-005  0.1021785E+03  0.7546771E-02  0.1278116E+00
          2   -1    0    0  502    0 -0.00000000000E+00  0.00000000000E+00  0.50164819709E+03  0.50164819709E+03  0.00000000000E+00 0. -1.
         21   -1    0    0  501  502  0.00000000000E+00 -0.00000000000E+00 -0.51598351145E+02  0.51598351145E+02  0.00000000000E+00 0.  1.
         23    2    1    2    0    0  0.23756613151E+02  0.18511447082E+02  0.34482532136E+03  0.35843978879E+03  0.93099568172E+02 0.  0.
         23    2    1    2    0    0  0.12007340882E+02 -0.48342540030E+02  0.99055556062E+02  0.14782792711E+03  0.97774820052E+02 0.  0.
        -11    1    4    4    0    0  0.21999996686E+02  0.26038292213E+02  0.38270336278E+02  0.51250474675E+02  0.00000000000E+00 0. -1.
         11    1    4    4    0    0 -0.99926558042E+01 -0.74380832243E+02  0.60785219783E+02  0.96577452437E+02  0.00000000000E+00 0.  1.
        -13    1    3    3    0    0  0.14617483745E+02  0.55141850681E+02  0.16182112994E+03  0.17158197056E+03  0.00000000000E+00 0. -1.
         13    1    3    3    0    0  0.91391294063E+01 -0.36630403599E+02  0.18300419143E+03  0.18685781823E+03  0.00000000000E+00 0.  1.
          2    1    1    2  501    0 -0.35763954033E+02  0.29831092948E+02  0.61689685203E+01  0.46978832331E+02  0.00000000000E+00 0. -1.
<scales pt_clust_5="13000.00000" pt_clust_6="13000.00000" pt_clust_7="13000.00000" pt_clust_8="13000.00000" pt_clust_9="46.57204"></scales>
<clustering>
<clus scale="   46.572">  2  9  1 -1</clus>
<clus scale="   93.100">  7  8 -1 -1</clus>
<clus scale="   97.714">  1  7  2 -1</clus>
<clus scale="   97.775">  5  6 -1 -1</clus>
<clus scale="   46.572">  2  5  1 -1</clus>
</clustering>
</event>
<event>
 9    1  0.1399746E-005  0.9637699E+02  0.7546771E-02  0.1290426E+00
         -2   -1    0    0    0  501 -0.00000000000E+00  0.00000000000E+00  0.25818584427E+03  0.25818584427E+03  0.00000000000E+00 0.  1.
         21   -1    0    0  501  502  0.00000000000E+00 -0.00000000000E+00 -0.54696898586E+02  0.54696898586E+02  0.00000000000E+00 0. -1.
         23    2    1    2    0    0  0.19636562523E+02  0.22701654592E+02  0.15128484995E+03  0.17982774635E+03  0.92465954951E+02 0.  0.
         23    2    1    2    0    0 -0.27798129596E+02  0.76849745192E+00  0.24115449578E+02  0.95552579821E+02  0.88178308017E+02 0.  0.
        -11    1    4    4    0    0 -0.37262292783E+02 -0.36680482281E+02  0.22414169103E+02  0.56888761811E+02  0.00000000000E+00 0.  1.
         11    1    4    4    0    0  0.94641631872E+01  0.37448979733E+02  0.17012804748E+01  0.38663818010E+02  0.00000000000E+00 0. -1.
        -13    1    3    3    0    0  0.18855766142E+02 -0.33534011024E+02  0.42241897671E+02  0.57135345725E+02  0.00000000000E+00 0.  1.
         13    1    3    3    0    0  0.78079638100E+00  0.56235665617E+02  0.10904295228E+03  0.12269240063E+03  0.00000000000E+00 0. -1.
         -2    1    1    2    0  502  0.81615670730E+01 -0.23470152044E+02  0.28088646158E+02  0.37502416683E+02  0.00000000000E+00 0.  1.
<scales pt_clust_5="13000.00000" pt_clust_6="13000.00000" pt_clust_7="13000.00000" pt_clust_8="13000.00000" pt_clust_9="24.84874"></scales>
<clustering>
<clus scale="   24.849">  2  9  1 -1</clus>
<clus scale="   88.178">  5  6 -1 -1</clus>
<clus scale="   92.271">  2  5  1 -1</clus>
<clus scale="   92.466">  7  8 -1 -1</clus>
<clus scale="   24.849">  2  5  1 -1</clus>
</clustering>
</event>
<event>
 9    1  0.1399746E-005  0.1306553E+03  0.7546771E-02  0.1226904E+00
         -2   -1    0    0    0  501 -0.00000000000E+00  0.00000000000E+00  0.12917464503E+04  0.12917464503E+04  0.00000000000E+00 0.  1.
         21   -1    0    0  501  502  0.00000000000E+00 -0.00000000000E+00 -0.47312908806E+02  0.47312908806E+02  0.00000000000E+00 0.  1.
         23    2    1    2    0    0  0.32132865453E+02  0.11885362362E+03  0.74427054358E+03  0.76011545633E+03  0.93156642329E+02 0.  0.
         23    2    1    2    0    0  0.51017977651E+02 -0.62779072563E+02  0.45098595462E+03  0.46724430756E+03  0.91568912243E+02 0.  0.
        -11    1    3    3    0    0  0.59636494777E+02  0.44322417989E+02  0.32512350092E+03  0.33350604057E+03  0.00000000000E+00 0. -1.
         11    1    3    3    0    0 -0.27503629325E+02  0.74531205633E+02  0.41914704266E+03  0.42660941576E+03  0.00000000000E+00 0.  1.
        -13    1    4    4    0    0 -0.21534187895E+02  0.34088236312E+01  0.12123665514E+03  0.12318144290E+03  0.00000000000E+00 0. -1.
         13    1    4    4    0    0  0.72552165546E+02 -0.66187896194E+02  0.32974929948E+03  0.34406286466E+03  0.00000000000E+00 0.  1.
         -2    1    1    2    0  502 -0.83150843104E+02 -0.56074551059E+02  0.49177043295E+02  0.11169959522E+03  0.00000000000E+00 0.  1.
<scales pt_clust_5="13000.00000" pt_clust_6="13000.00000" pt_clust_7="13000.00000" pt_clust_8="13000.00000" pt_clust_9="100.29166"></scales>
<clustering>
<clus scale="   91.569">  7  8 -1 -1</clus>
<clus scale="   93.157">  5  6 -1 -1</clus>
<clus scale="  100.292">  2  9  1 -1</clus>
<clus scale="  129.528">  2  7  1 -1</clus>
<clus scale="  100.292">  2  5  1 -1</clus>
</clustering>
</event>
<event>
 9    1  0.1399746E-005  0.1834502E+03  0.7546771E-02  0.1165924E+00
         21   -1    0    0  501  502  0.00000000000E+00  0.00000000000E+00  0.36919112434E+03  0.36919112434E+03  0.00000000000E+00 0. -1.
         -1   -1    0    0    0  501 -0.00000000000E+00 -0.00000000000E+00 -0.23967375344E+03  0.23967375344E+03  0.00000000000E+00 0.  1.
         23    2    1    2    0    0 -0.33415624810E+02 -0.13590865919E+03 -0.10665946896E+02  0.16768776673E+03  0.91747790508E+02 0.  0.
         23    2    1    2    0    0  0.17308932977E+03  0.13530526567E+03  0.17274680061E+03  0.29775644184E+03  0.10271324420E+03 0.  0.
        -11    1    4    4    0    0  0.15466776666E+03  0.10439250070E+03  0.89273174562E+02  0.20685650085E+03  0.00000000000E+00 0. -1.
         11    1    4    4    0    0  0.18421563112E+02  0.30912764973E+02  0.83473626053E+02  0.90899940991E+02  0.00000000000E+00 0.  1.
        -13    1    3    3    0    0 -0.30824121921E+02 -0.28444665110E+02 -0.38189918098E+02  0.56724732788E+02  0.00000000000E+00 0.  1.
         13    1    3    3    0    0 -0.25915028882E+01 -0.10746399408E+03  0.27523971203E+02  0.11096303394E+03  0.00000000000E+00 0. -1.
         -1    1    1    2    0  502 -0.13967370496E+03  0.60339351288E+00 -0.32563482821E+02  0.14342066921E+03  0.00000000000E+00 0.  1.
<scales pt_clust_5="13000.00000" pt_clust_6="13000.00000" pt_clust_7="13000.00000" pt_clust_8="13000.00000" pt_clust_9="139.67508"></scales>
<clustering>
<clus scale="   91.748">  7  8 -1 -1</clus>
<clus scale="  102.713">  5  6 -1 -1</clus>
<clus scale="  139.675">  1  9  2 -1</clus>
<clus scale="  177.543">  2  7  1 -1</clus>
<clus scale="  139.675">  1  5  2 -1</clus>
</clustering>
</event>
<event>
 9    1  0.1399746E-005  0.1626493E+03  0.7546771E-02  0.1188925E+00
         21   -1    0    0  501  502  0.00000000000E+00  0.00000000000E+00  0.20740195253E+03  0.20740195253E+03  0.00000000000E+00 0. -1.
          2   -1    0    0  502    0 -0.00000000000E+00 -0.00000000000E+00 -0.17299387502E+03  0.17299387502E+03  0.00000000000E+00 0. -1.
         23    2    1    2    0    0  0.96467983702E+02  0.61042845377E+02 -0.42158516438E+02  0.16197994008E+03  0.10690116757E+03 0.  0.
         23    2    1    2    0    0 -0.12028023600E+03 -0.64583802055E+02  0.29667330642E+02  0.16569869263E+03  0.89092668454E+02 0.  0.
        -11    1    3    3    0    0  0.19371334127E+02  0.75484962985E+02 -0.22566622140E+02  0.81132488299E+02  0.00000000000E+00 0. -1.
         11    1    3    3    0    0  0.77096649575E+02 -0.14442117608E+02 -0.19591894297E+02  0.80847451777E+02  0.00000000000E+00 0.  1.
        -13    1    4    4    0    0  0.65838048890E+01 -0.22649862239E+02  0.21366938623E+02  0.31826228372E+02  0.00000000000E+00 0.  1.
         13    1    4    4    0    0 -0.12686404089E+03 -0.41933939815E+02  0.83003920185E+01  0.13387246426E+03  0.00000000000E+00 0. -1.
          2    1    1    2  501    0  0.23812252297E+02  0.35409566781E+01  0.46899263310E+02  0.52717194848E+02  0.00000000000E+00 0. -1.
<scales pt_clust_5="13000.00000" pt_clust_6="13000.00000" pt_clust_7="13000.00000" pt_clust_8="13000.00000" pt_clust_9="24.07409"></scales>
<clustering>
<clus scale="   24.074">  1  9  2 -1</clus>
<clus scale="   89.093">  7  8 -1 -1</clus>
<clus scale="  106.901">  5  6 -1 -1</clus>
<clus scale="  151.540">  1  7  2 -1</clus>
<clus scale="   24.074">  1  5  2 -1</clus>
</clustering>
</event>
<event>
 9    1  0.1399746E-005  0.1009059E+03  0.7546771E-02  0.1279441E+00
          2   -1    0    0  502    0 -0.00000000000E+00  0.00000000000E+00  0.40218982848E+03  0.40218982848E+03  0.00000000000E+00 0. -1.
         21   -1    0    0  501  502  0.00000000000E+00 -0.00000000000E+00 -0.75456706180E+02  0.75456706180E+02  0.00000000000E+00 0. -1.
         23    2    1    2    0    0 -0.10959144155E+02 -0.43196361380E+02  0.26898727016E+03  0.28767640948E+03  0.91747133922E+02 0.  0.
         23    2    1    2    0    0  0.51546121435E+00  0.21877542981E+02  0.10163182235E+03  0.14007482567E+03  0.93877776312E+02 0.  0.
        -11    1    4    4    0    0 -0.37841645254E+02 -0.71452681320E+01  0.15681047521E+02  0.41580526976E+02  0.00000000000E+00 0. -1.
         11    1    4    4    0    0  0.38357106469E+02  0.29022811113E+02  0.85950774830E+02  0.98494298695E+02  0.00000000000E+00 0.  1.
        -13    1    3    3    0    0 -0.46351005799E+02 -0.42308831784E+02  0.13155220865E+03  0.14575471377E+03  0.00000000000E+00 0. -1.
         13    1    3    3    0    0  0.35391861643E+02 -0.88752959550E+00  0.13743506151E+03  0.14192169570E+03  0.00000000000E+00 0.  1.
          2    1    1    2  501    0  0.10443682941E+02  0.21318818399E+02 -0.43885970217E+02  0.49895299509E+02  0.00000000000E+00 0. -1.
<scales pt_clust_5="13000.00000" pt_clust_6="13000.00000" pt_clust_7="13000.00000" pt_clust_8="13000.00000" pt_clust_9="23.73947"></scales>
<clustering>
<clus scale="   23.739">  2  9  1 -1</clus>
<clus scale="   91.747">  7  8 -1 -1</clus>
<clus scale="   93.878">  5  6 -1 -1</clus>
<clus scale="   98.927">  1  7  2 -1</clus>
<clus scale="   23.739">  2  5  1 -1</clus>
</clustering>
</event>
<event>
 9    1  0.1399746E-005  0.1017632E+03  0.7546771E-02  0.1280800E+00
          1   -1    0    0  502    0 -0.00000000000E+00  0.00000000000E+00  0.28420262490E+03  0.28420262490E+03  0.00000000000E+00 0. -1.
         21   -1    0    0  501  502  0.00000000000E+00 -0.00000000000E+00 -0.13151776661E+03  0.13151776661E+03  0.00000000000E+00 0.  1.
         23    2    1    2    0    0  0.20899703277E+02  0.66112062751E+01  0.19675604124E+03  0.21749610352E+03  0.90061699057E+02 0.  0.
         23    2    1    2    0    0 -0.55043364447E+02  0.28285813861E+02  0.19927230431E+02  0.11772963894E+03  0.98149447968E+02 0.  0.
        -13    1    3    3    0    0  0.31217980528E+02 -0.33527689940E+02  0.66088785053E+02  0.80413903093E+02  0.00000000000E+00 0.  1.
         13    1    3    3    0    0 -0.10318277251E+02  0.40138896215E+02  0.13066725618E+03  0.13708220042E+03  0.00000000000E+00 0. -1.
        -13    1    4    4    0    0  0.13934432682E+02  0.41703504993E+02  0.17772646528E+02  0.47425918099E+02  0.00000000000E+00 0. -1.
         13    1    4    4    0    0 -0.68977797129E+02 -0.13417691132E+02  0.21545839027E+01  0.70303720839E+02  0.00000000000E+00 0.  1.
          1    1    1    2  501    0  0.34143661170E+02 -0.34897020136E+02 -0.63998413373E+02  0.80494649057E+02  0.00000000000E+00 0. -1.
<scales pt_clust_5="13000.00000" pt_clust_6="13000.00000" pt_clust_7="13000.00000" pt_clust_8="13000.00000" pt_clust_9="48.82204"></scales>
<clustering>
<clus scale="   48.822">  2  9  1 -1</clus>
<clus scale="   90.062">  5  6 -1 -1</clus>
<clus scale="   93.987">  1  5  2 -1</clus>
<clus scale="   98.149">  7  8 -1 -1</clus>
<clus scale="   48.822">  2  5  1 -1</clus>
</clustering>
</event>
<event>
 9    1  0.1399746E-005  0.1273047E+03  0.7546771E-02  0.1233255E+00
          2   -1    0    0  502    0 -0.00000000000E+00  0.00000000000E+00  0.36149284248E+03  0.36149284248E+03  0.00000000000E+00 0. -1.
         21   -1    0    0  501  502  0.00000000000E+00 -0.00000000000E+00 -0.75834941201E+02  0.75834941201E+02  0.00000000000E+00 0. -1.
         23    2    1    2    0    0  0.42498549351E+02  0.61626372083E+02  0.16832601774E+03  0.20548982619E+03  0.91041111509E+02 0.  0.
         23    2    1    2    0    0 -0.70879877852E+02 -0.63393158429E+02  0.14029798562E+03  0.19528575938E+03  0.97006976186E+02 0.  0.
        -11    1    4    4    0    0  0.24490221782E+02 -0.14620503818E+02  0.25285591862E+02  0.38116810605E+02  0.00000000000E+00 0.  1.
         11    1    4    4    0    0 -0.95370099635E+02 -0.48772654611E+02  0.11501239376E+03  0.15716894878E+03  0.00000000000E+00 0. -1.
        -11    1    3    3    0    0 -0.19612878967E+02  0.32694704883E+02  0.10679960022E+03  0.11340089662E+03  0.00000000000E+00 0.  1.
         11    1    3    3    0    0  0.62111428318E+02  0.28931667200E+02  0.61526417525E+02  0.92088929563E+02  0.00000000000E+00 0. -1.
          2    1    1    2  501    0  0.28381328501E+02  0.17667863467E+01 -0.22966102086E+02  0.36552198108E+02  0.00000000000E+00 0. -1.
<scales pt_clust_5="13000.00000" pt_clust_6="13000.00000" pt_clust_7="13000.00000" pt_clust_8="13000.00000" pt_clust_9="28.43627"></scales>
<clustering>
<clus scale="   28.436">  2  9  1 -1</clus>
<clus scale="   91.041">  7  8 -1 -1</clus>
<clus scale="   97.007">  5  6 -1 -1</clus>
<clus scale="  122.819">  1  7  2 -1</clus>
<clus scale="   28.436">  2  5  1 -1</clus>
</clustering>
</event>
<event>
 9    1  0.1399746E-005  0.1082174E+03  0.7546771E-02  0.1265402E+00
         21   -1    0    0  501  502  0.00000000000E+00  0.00000000000E+00  0.86638543487E+02  0.86638543487E+02  0.00000000000E+00 0. -1.
         -1   -1    0    0    0  501 -0.00000000000E+00 -0.00000000000E+00 -0.23705444831E+03  0.23705444831E+03  0.00000000000E+00 0.  1.
         23    2    1    2    0    0 -0.21744928045E+02 -0.64236478422E+02 -0.12168932595E+03  0.16648192888E+03  0.91152474116E+02 0.  0.
         23    2    1    2    0    0  0.39734992473E+02  0.31361244233E+02 -0.51455704812E+02  0.11338143130E+03  0.87437189679E+02 0.  0.
        -11    1    4    4    0    0 -0.40040165739E+01  0.41230408224E+02 -0.54480958661E+02  0.68440876438E+02  0.00000000000E+00 0.  1.
         11    1    4    4    0    0  0.43739009047E+02 -0.98691639915E+01  0.30252538490E+01  0.44940554860E+02  0.00000000000E+00 0. -1.
        -13    1    3    3    0    0  0.34306290756E+02 -0.15964381402E+02 -0.27801601997E+02  0.46954362231E+02  0.00000000000E+00 0.  1.
         13    1    3    3    0    0 -0.56051218801E+02 -0.48272097020E+02 -0.93887723955E+02  0.11952756665E+03  0.00000000000E+00 0. -1.
         -1    1    1    2    0  502 -0.17990064427E+02  0.32875234189E+02  0.22729125945E+02  0.43829631613E+02  0.00000000000E+00 0.  1.
<scales pt_clust_5="13000.00000" pt_clust_6="13000.00000" pt_clust_7="13000.00000" pt_clust_8="13000.00000" pt_clust_9="37.47564"></scales>
<clustering>
<clus scale="   37.476">  1  9  2 -1</clus>
<clus scale="   87.437">  5  6 -1 -1</clus>
<clus scale="   91.152">  7  8 -1 -1</clus>
<clus scale="  105.107">  1  5  2 -1</clus>
<clus scale="   37.476">  1  5  2 -1</clus>
</clustering>
</event>
<event>
 9    1  0.1399746E-005  0.1537008E+03  0.7546771E-02  0.1196276E+00
          2   -1    0    0  502    0 -0.00000000000E+00  0.00000000000E+00  0.51971672021E+03  0.51971672021E+03  0.00000000000E+00 0. -1.
         21   -1    0    0  501  502  0.00000000000E+00 -0.00000000000E+00 -0.12123049148E+03  0.12123049148E+03  0.00000000000E+00 0. -1.
         23    2    1    2    0    0 -0.61671406683E+01  0.10094189275E+03  0.17758660365E+03  0.22395827855E+03  0.91613369105E+02 0.  0.
         23    2    1    2    0    0  0.12990857916E+03 -0.14508279104E+03  0.17801778118E+03  0.27878902345E+03  0.90042956341E+02 0.  0.
        -11    1    3    3    0    0 -0.39625337128E+02  0.41000408794E+02  0.38342183091E+02  0.68711890295E+02  0.00000000000E+00 0. -1.
         11    1    3    3    0    0  0.33458196460E+02  0.59941483960E+02  0.13924442056E+03  0.15524638825E+03  0.00000000000E+00 0.  1.
        -11    1    4    4    0    0  0.74232365450E+02 -0.31634679771E+02  0.10638526433E+03  0.13352535906E+03  0.00000000000E+00 0. -1.
         11    1    4    4    0    0  0.55676213711E+02 -0.11344811127E+03  0.71632516843E+02  0.14526366439E+03  0.00000000000E+00 0.  1.
          2    1    1    2  501    0 -0.12374143849E+03  0.44140898284E+02  0.42881843915E+02  0.13819990969E+03  0.00000000000E+00 0. -1.
<scales pt_clust_5="13000.00000" pt_clust_6="13000.00000" pt_clust_7="13000.00000" pt_clust_8="13000.00000" pt_clust_9="131.37870"></scales>
<clustering>
<clus scale="   90.043">  7  8 -1 -1</clus>
<clus scale="   91.613">  5  6 -1 -1</clus>
<clus scale="  131.379">  2  9  1 -1</clus>
<clus scale="  152.770">  2  7  1 -1</clus>
<clus scale="  131.379">  2  5  1 -1</clus>
</clustering>
</event>
<event>
 9    1  0.1399746E-005  0.1476997E+03  0.7546771E-02  0.1222957E+00
         21   -1    0    0  501  502  0.00000000000E+00  0.00000000000E+00  0.97697535208E+02  0.97697535208E+02  0.00000000000E+00 0. -1.
          1   -1    0    0  502    0 -0.00000000000E+00 -0.00000000000E+00 -0.48429131378E+03  0.48429131378E+03  0.00000000000E+00 0. -1.
         23    2    1    2    0    0  0.33003395568E+02  0.16589057781E+01 -0.20854835245E+03  0.23014741727E+03  0.91561139561E+02 0.  0.
         23    2    1    2    0    0  0.69341581536E+02  0.66834331038E+02 -0.18649218792E+03  0.22840251722E+03  0.90073808517E+02 0.  0.
        -11    1    3    3    0    0  0.29435293781E+02  0.44162457620E+02 -0.94492881239E+02  0.10837741364E+03  0.00000000000E+00 0.  1.
         11    1    3    3    0    0  0.35681017871E+01 -0.42503551842E+02 -0.11405547121E+03  0.12177000362E+03  0.00000000000E+00 0. -1.
        -11    1    4    4    0    0  0.26944081819E+02  0.13728333984E+02 -0.34750702355E+00  0.30241882550E+02  0.00000000000E+00 0.  1.
         11    1    4    4    0    0  0.42397499717E+02  0.53105997054E+02 -0.18614468090E+03  0.19816063467E+03  0.00000000000E+00 0. -1.
          1    1    1    2  501    0 -0.10234497710E+03 -0.68493236816E+02  0.84467618032E+01  0.12343891450E+03  0.00000000000E+00 0. -1.
<scales pt_clust_5="13000.00000" pt_clust_6="13000.00000" pt_clust_7="13000.00000" pt_clust_8="13000.00000" pt_clust_9="117.05515"></scales>
<clustering>
<clus scale="   90.074">  7  8 -1 -1</clus>
<clus scale="   91.561">  5  6 -1 -1</clus>
<clus scale="   97.342">  2  5  1 -1</clus>
<clus scale="  117.055">  1  9  2 -1</clus>
<clus scale="  117.055">  1  5  2 -1</clus>
</clustering>
</event>
<event>
 9    1  0.2976651E-005  0.9503883E+02  0.7546771E-02  0.1292393E+00
         21   -1    0    0  501  502  0.00000000000E+00  0.00000000000E+00  0.38284534586E+03  0.38284534586E+03  0.00000000000E+00 0. -1.
          3   -1    0    0  502    0 -0.00000000000E+00 -0.00000000000E+00 -0.17190794603E+03  0.17190794603E+03  0.00000000000E+00 0. -1.
         23    2    1    2    0    0 -0.15119072941E+01 -0.26040213838E+01 -0.98291908432E+02  0.13582566234E+03  0.93692286218E+02 0.  0.
         23    2    1    2    0    0  0.20700506424E+01  0.53283908543E+02  0.22374402617E+00  0.10579315170E+03  0.91371116147E+02 0.  0.
        -13    1    3    3    0    0  0.30073082029E+02 -0.28819933274E+02 -0.17451629404E+02  0.45161246500E+02  0.00000000000E+00 0.  1.
         13    1    3    3    0    0 -0.31584989323E+02  0.26215911890E+02 -0.80840279028E+02  0.90664415843E+02  0.00000000000E+00 0. -1.
        -13    1    4    4    0    0  0.34861500549E+02  0.26326584688E+02  0.30822830129E+02  0.53464569006E+02  0.00000000000E+00 0.  1.
         13    1    4    4    0    0 -0.32791449907E+02  0.26957323855E+02 -0.30599086103E+02  0.52328582694E+02  0.00000000000E+00 0. -1.
          3    1    1    2  501    0 -0.55814334825E+00 -0.50679887159E+02  0.30900556424E+03  0.31313447785E+03  0.00000000000E+00 0. -1.
<scales pt_clust_5="13000.00000" pt_clust_6="13000.00000" pt_clust_7="13000.00000" pt_clust_8="13000.00000" pt_clust_9="50.68296"></scales>
<clustering>
<clus scale="   50.683">  1  9  2 -1</clus>
<clus scale="   91.371">  7  8 -1 -1</clus>
<clus scale="   92.751">  1  7  2 -1</clus>
<clus scale="   93.692">  5  6 -1 -1</clus>
<clus scale="   50.683">  1  5  2 -1</clus>
</clustering>
</event>
<event>
 9    1  0.1399746E-005  0.9235737E+02  0.7546771E-02  0.1297277E+00
         21   -1    0    0  501  502  0.00000000000E+00  0.00000000000E+00  0.80453402978E+02  0.80453402978E+02  0.00000000000E+00 0.  1.
          2   -1    0    0  502    0 -0.00000000000E+00 -0.00000000000E+00 -0.40534875574E+03  0.40534875574E+03  0.00000000000E+00 0. -1.
         23    2    1    2    0    0  0.50822622767E+01 -0.17744373566E+02 -0.31835246037E+03  0.33148267759E+03  0.90508476600E+02 0.  0.
         23    2    1    2    0    0  0.23104183189E+02  0.19594315173E+02 -0.45830996340E+02  0.10593091735E+03  0.90571179511E+02 0.  0.
        -11    1    3    3    0    0 -0.98025300280E+01 -0.52850312275E+02 -0.20273039002E+03  0.20973520482E+03  0.00000000000E+00 0.  1.
         11    1    3    3    0    0  0.14884792305E+02  0.35105938709E+02 -0.11562207035E+03  0.12174747278E+03  0.00000000000E+00 0. -1.
        -13    1    4    4    0    0  0.59753886528E+00  0.33788363853E+02 -0.64916143173E+02  0.73185491930E+02  0.00000000000E+00 0. -1.
         13    1    4    4    0    0  0.22506644323E+02 -0.14194048680E+02  0.19085146832E+02  0.32745425425E+02  0.00000000000E+00 0.  1.
          2    1    1    2  501    0 -0.28186445465E+02 -0.18499416074E+01  0.39288103950E+02  0.48388563772E+02  0.00000000000E+00 0. -1.
<scales pt_clust_5="13000.00000" pt_clust_6="13000.00000" pt_clust_7="13000.00000" pt_clust_8="13000.00000" pt_clust_9="28.24709"></scales>
<clustering>
<clus scale="   28.247">  1  9  2 -1</clus>
<clus scale="   90.508">  5  6 -1 -1</clus>
<clus scale="   90.571">  7  8 -1 -1</clus>
<clus scale="   92.296">  2  5  1 -1</clus>
<clus scale="   28.247">  1  5  2 -1</clus>
</clustering>
</event>
<event>
 9    1  0.1399746E-005  0.9622644E+02  0.7546771E-02  0.1289086E+00
         21   -1    0    0  501  502  0.00000000000E+00  0.00000000000E+00  0.25874327029E+03  0.25874327029E+03  0.00000000000E+00 0. -1.
          4   -1    0    0  502    0 -0.00000000000E+00 -0.00000000000E+00 -0.18058269641E+03  0.18058269641E+03  0.00000000000E+00 0. -1.
         23    2    1    2    0    0  0.15062018698E+02  0.28960755501E+02 -0.12518386678E+03  0.15814153893E+03  0.90951393976E+02 0.  0.
         23    2    1    2    0    0  0.35894562929E+02 -0.18772786041E+02  0.37572934280E+02  0.10745889636E+03  0.92167520705E+02 0.  0.
        -13    1    4    4    0    0 -0.17532150086E+02 -0.17361407660E+02 -0.17858550003E+02  0.30458538553E+02  0.00000000000E+00 0.  1.
         13    1    4    4    0    0  0.53426713016E+02 -0.14113783806E+01  0.55431484283E+02  0.77000357807E+02  0.00000000000E+00 0. -1.
        -13    1    3    3    0    0 -0.30770551444E+02 -0.70969497215E+01 -0.18605349894E+02  0.36651774530E+02  0.00000000000E+00 0.  1.
         13    1    3    3    0    0  0.45832570143E+02  0.36057705222E+02 -0.10657851689E+03  0.12148976440E+03  0.00000000000E+00 0. -1.
          4    1    1    2  501    0 -0.50956581628E+02 -0.10187969460E+02  0.16577150639E+03  0.17372553141E+03  0.00000000000E+00 0. -1.
<scales pt_clust_5="13000.00000" pt_clust_6="13000.00000" pt_clust_7="13000.00000" pt_clust_8="13000.00000" pt_clust_9="51.96506"></scales>
<clustering>
<clus scale="   51.965">  1  9  2 -1</clus>
<clus scale="   90.951">  7  8 -1 -1</clus>
<clus scale="   92.168">  5  6 -1 -1</clus>
<clus scale="   95.062">  2  7  1 -1</clus>
<clus scale="   51.965">  1  5  2 -1</clus>
</clustering>
</event>
<event>
 9    1  0.1399746E-005  0.1042206E+03  0.7546771E-02  0.1272262E+00
         -1   -1    0    0    0  501 -0.00000000000E+00  0.00000000000E+00  0.11226204400E+03  0.11226204400E+03  0.00000000000E+00 0.  1.
         21   -1    0    0  501  502  0.00000000000E+00 -0.00000000000E+00 -0.32893027038E+03  0.32893027038E+03  0.00000000000E+00 0.  1.
         23    2    1    2    0    0  0.31892199709E+02 -0.56112941462E+02  0.89204061706E-01  0.11169131612E+03  0.91154635299E+02 0.  0.
         23    2    1    2    0    0 -0.54405850852E+02 -0.14682602837E+02 -0.88034782546E+01  0.10867590954E+03  0.92506089815E+02 0.  0.
        -13    1    3    3    0    0  0.18471992771E+02 -0.32561138978E+02  0.45429001835E+02  0.58866259404E+02  0.00000000000E+00 0.  1.
         13    1    3    3    0    0  0.13420206938E+02 -0.23551802485E+02 -0.45339797773E+02  0.52825056712E+02  0.00000000000E+00 0. -1.
        -13    1    4    4    0    0 -0.14743712846E+02 -0.40202503941E+02  0.25969028494E+02  0.50080024287E+02  0.00000000000E+00 0.  1.
         13    1    4    4    0    0 -0.39662138006E+02  0.25519901103E+02 -0.34772506749E+02  0.58595885258E+02  0.00000000000E+00 0. -1.
         -1    1    1    2    0  502  0.22513651143E+02  0.70795544300E+02 -0.20795395218E+03  0.22082508872E+03  0.00000000000E+00 0.  1.
<scales pt_clust_5="13000.00000" pt_clust_6="13000.00000" pt_clust_7="13000.00000" pt_clust_8="13000.00000" pt_clust_9="74.28912"></scales>
<clustering>
<clus scale="   74.289">  2  9  1 -1</clus>
<clus scale="   91.155">  5  6 -1 -1</clus>
<clus scale="   92.506">  7  8 -1 -1</clus>
<clus scale="  103.023">  1  5  2 -1</clus>
<clus scale="   74.289">  2  5  1 -1</clus>
</clustering>
</event>
<event>
 9    1  0.1399746E-005  0.1105760E+03  0.7546771E-02  0.1259664E+00
         21   -1    0    0  501  502  0.00000000000E+00  0.00000000000E+00  0.20519042469E+02  0.20519042469E+02  0.00000000000E+00 0.  1.
          1   -1    0    0  502    0 -0.00000000000E+00 -0.00000000000E+00 -0.90254380794E+03  0.90254380794E+03  0.00000000000E+00 0. -1.
         23    2    1    2    0    0  0.34975917899E+02  0.44199438302E+02 -0.40240596972E+03  0.41647112002E+03  0.91327565192E+02 0.  0.
         23    2    1    2    0    0 -0.64453524279E+02 -0.39446649354E+02 -0.26852128945E+03  0.29339305439E+03  0.90914831249E+02 0.  0.
        -11    1    4    4    0    0 -0.69892496711E+02 -0.82643431323E+01 -0.24222370247E+03  0.25224111977E+03  0.00000000000E+00 0. -1.
         11    1    4    4    0    0  0.54389724316E+01 -0.31182306221E+02 -0.26297586981E+02  0.41151934625E+02  0.00000000000E+00 0.  1.
        -13    1    3    3    0    0  0.48811880391E+02  0.65328918115E+02 -0.28891755317E+03  0.30020629530E+03  0.00000000000E+00 0. -1.
         13    1    3    3    0    0 -0.13835962492E+02 -0.21129479813E+02 -0.11348841655E+03  0.11626482472E+03  0.00000000000E+00 0.  1.
          1    1    1    2  501    0  0.29477606380E+02 -0.47527889483E+01 -0.21109750630E+03  0.21319867600E+03  0.00000000000E+00 0. -1.
<scales pt_clust_5="13000.00000" pt_clust_6="13000.00000" pt_clust_7="13000.00000" pt_clust_8="13000.00000" pt_clust_9="29.85832"></scales>
<clustering>
<clus scale="   29.858">  1  9  2 -1</clus>
<clus scale="   90.915">  5  6 -1 -1</clus>
<clus scale="   91.328">  7  8 -1 -1</clus>
<clus scale="  110.235">  1  5  2 -1</clus>
<clus scale="   29.858">  1  5  2 -1</clus>
</clustering>
</event>
<event>
 9    1  0.1399746E-005  0.9533795E+02  0.7546771E-02  0.1291522E+00
          3   -1    0    0  502    0 -0.00000000000E+00  0.00000000000E+00  0.13109394479E+03  0.13109394479E+03  0.00000000000E+00 0. -1.
         21   -1    0    0  501  502  0.00000000000E+00 -0.00000000000E+00 -0.31026594604E+03  0.31026594604E+03  0.00000000000E+00 0.  1.
         23    2    1    2    0    0 -0.60521656045E+01  0.29609786030E+02  0.10074255635E+03  0.13779600444E+03  0.89024199203E+02 0.  0.
         23    2    1    2    0    0  0.46646538154E+01 -0.41916356498E+01 -0.20391119788E+03  0.22341079383E+03  0.91067433112E+02 0.  0.
        -11    1    4    4    0    0 -0.29157317376E+02 -0.17453701260E+02 -0.17115143314E+03  0.17449238926E+03  0.00000000000E+00 0.  1.
         11    1    4    4    0    0  0.33821971192E+02  0.13262065611E+02 -0.32759764739E+02  0.48918404567E+02  0.00000000000E+00 0. -1.
        -13    1    3    3    0    0  0.90960163692E+01  0.45093674462E+02  0.10596012534E+03  0.11551504297E+03  0.00000000000E+00 0. -1.
         13    1    3    3    0    0 -0.15148181974E+02 -0.15483888432E+02 -0.52175689903E+01  0.22280961475E+02  0.00000000000E+00 0.  1.
          3    1    1    2  501    0  0.13875117891E+01 -0.25418150381E+02 -0.76003359719E+02  0.80153092556E+02  0.00000000000E+00 0. -1.
<scales pt_clust_5="13000.00000" pt_clust_6="13000.00000" pt_clust_7="13000.00000" pt_clust_8="13000.00000" pt_clust_9="25.45599"></scales>
<clustering>
<clus scale="   25.456">  2  9  1 -1</clus>
<clus scale="   89.024">  7  8 -1 -1</clus>
<clus scale="   91.067">  5  6 -1 -1</clus>
<clus scale="   93.388">  1  7  2 -1</clus>
<clus scale="   25.456">  2  5  1 -1</clus>
</clustering>
</event>
<event>
 9    1  0.1651213E-005  0.9604274E+02  0.7546771E-02  0.1291027E+00
         21   -1    0    0  501  502  0.00000000000E+00  0.00000000000E+00  0.90796158744E+02  0.90796158744E+02  0.00000000000E+00 0.  1.
          1   -1    0    0  502    0 -0.00000000000E+00 -0.00000000000E+00 -0.36408084276E+03  0.36408084276E+03  0.00000000000E+00 0. -1.
         23    2    1    2    0    0 -0.15613703962E+02 -0.13920077182E+02 -0.27832862299E+03  0.29338072436E+03  0.90376273143E+02 0.  0.
         23    2    1    2    0    0 -0.23961851777E+02  0.11750734228E+02  0.42631348012E+02  0.10687261946E+03  0.94297798818E+02 0.  0.
        -13    1    4    4    0    0 -0.23280013979E+02 -0.35877595937E+02 -0.26718220384E+00  0.42769525686E+02  0.00000000000E+00 0. -1.
         13    1    4    4    0    0 -0.68183779754E+00  0.47628330164E+02  0.42898530216E+02  0.64103093777E+02  0.00000000000E+00 0.  1.
        -13    1    3    3    0    0 -0.69589952335E+01  0.30844039282E+02 -0.41338350922E+02  0.52044611929E+02  0.00000000000E+00 0.  1.
         13    1    3    3    0    0 -0.86547087287E+01 -0.44764116463E+02 -0.23699027207E+03  0.24133611243E+03  0.00000000000E+00 0. -1.
          1    1    1    2  501    0  0.39575555739E+02  0.21693429540E+01 -0.37587409036E+02  0.54623657686E+02  0.00000000000E+00 0. -1.
<scales pt_clust_5="13000.00000" pt_clust_6="13000.00000" pt_clust_7="13000.00000" pt_clust_8="13000.00000" pt_clust_9="39.63499"></scales>
<clustering>
<clus scale="   39.635">  1  9  2 -1</clus>
<clus scale="   90.376">  7  8 -1 -1</clus>
<clus scale="   92.195">  2  7  1 -1</clus>
<clus scale="   94.298">  5  6 -1 -1</clus>
<clus scale="   39.635">  1  5  2 -1</clus>
</clustering>
</event>
<event>
 9    1  0.1399746E-005  0.9714381E+02  0.7546771E-02  0.1286576E+00
         -3   -1    0    0    0  501 -0.00000000000E+00  0.00000000000E+00  0.43374892510E+03  0.43374892510E+03  0.00000000000E+00 0.  1.
         21   -1    0    0  501  502  0.00000000000E+00 -0.00000000000E+00 -0.43782517969E+02  0.43782517969E+02  0.00000000000E+00 0.  1.
         23    2    1    2    0    0 -0.53960756182E+01 -0.42748260351E+02  0.25692504205E+03  0.27586895926E+03  0.90756124046E+02 0.  0.
         23    2    1    2    0    0  0.12354953123E+02  0.18383685688E+02  0.14577735390E+03  0.17330293717E+03  0.91061882011E+02 0.  0.
        -13    1    4    4    0    0 -0.31258483245E+02  0.35044016151E+02  0.69741296018E+02  0.84077489336E+02  0.00000000000E+00 0. -1.
         13    1    4    4    0    0  0.43613436368E+02 -0.16660330463E+02  0.76036057879E+02  0.89225447832E+02  0.00000000000E+00 0.  1.
        -13    1    3    3    0    0 -0.28647110504E+02  0.10717335329E+02  0.35320162618E+02  0.46722929105E+02  0.00000000000E+00 0. -1.
         13    1    3    3    0    0  0.23251034885E+02 -0.53465595680E+02  0.22160487944E+03  0.22914603015E+03  0.00000000000E+00 0.  1.
         -3    1    1    2    0  502 -0.69588775048E+01  0.24364574663E+02 -0.12735988820E+02  0.28359546644E+02  0.00000000000E+00 0.  1.
<scales pt_clust_5="13000.00000" pt_clust_6="13000.00000" pt_clust_7="13000.00000" pt_clust_8="13000.00000" pt_clust_9="25.33887"></scales>
<clustering>
<clus scale="   25.339">  2  9  1 -1</clus>
<clus scale="   90.756">  7  8 -1 -1</clus>
<clus scale="   91.062">  5  6 -1 -1</clus>
<clus scale="   96.857">  1  7  2 -1</clus>
<clus scale="   25.339">  2  5  1 -1</clus>
</clustering>
</event>
<event>
 9    1  0.1399746E-005  0.3623042E+03  0.7546771E-02  0.1107539E+00
          3   -1    0    0  502    0 -0.00000000000E+00  0.00000000000E+00  0.47236041944E+03  0.47236041944E+03  0.00000000000E+00 0. -1.
         21   -1    0    0  501  502  0.00000000000E+00 -0.00000000000E+00 -0.44565330270E+03  0.44565330270E+03  0.00000000000E+00 0.  1.
         23    2    1    2    0    0  0.13553770802E+02  0.18503223065E+02  0.29284560453E+02  0.99525926597E+02  0.92313328492E+02 0.  0.
         23    2    1    2    0    0  0.12665523523E+03  0.30920694539E+03  0.20866685587E+03  0.40414895595E+03  0.90244324834E+02 0.  0.
        -11    1    3    3    0    0 -0.11890710456E+02 -0.30794861066E+02  0.29164430507E+02  0.44048569444E+02  0.00000000000E+00 0. -1.
         11    1    3    3    0    0  0.25444481259E+02  0.49298084131E+02  0.12012994527E+00  0.55477357153E+02  0.00000000000E+00 0.  1.
        -13    1    4    4    0    0  0.14024321244E+03  0.26510930581E+03  0.18318702786E+03  0.35143788902E+03  0.00000000000E+00 0.  1.
         13    1    4    4    0    0 -0.13587977208E+02  0.44097639578E+02  0.25479828014E+02  0.52711066927E+02  0.00000000000E+00 0. -1.
          3    1    1    2  501    0 -0.14020900604E+03 -0.32771016846E+03 -0.21124429959E+03  0.41433883959E+03  0.00000000000E+00 0. -1.
<scales pt_clust_5="13000.00000" pt_clust_6="13000.00000" pt_clust_7="13000.00000" pt_clust_8="13000.00000" pt_clust_9="350.88506"></scales>
<clustering>
<clus scale="   90.244">  7  8 -1 -1</clus>
<clus scale="   92.313">  5  6 -1 -1</clus>
<clus scale="   95.120">  1  5  2 -1</clus>
<clus scale="  350.885">  2  9  1 -1</clus>
<clus scale="  350.885">  2  5  1 -1</clus>
</clustering>
</event>
<event>
 9    1  0.1399746E-005  0.1000213E+03  0.7546771E-02  0.1280445E+00
          2   -1    0    0  502    0 -0.00000000000E+00  0.00000000000E+00  0.31060805104E+03  0.31060805104E+03  0.00000000000E+00 0. -1.
         21   -1    0    0  501  502  0.00000000000E+00 -0.00000000000E+00 -0.55514246568E+02  0.55514246568E+02  0.00000000000E+00 0.  1.
         23    2    1    2    0    0 -0.85218731130E+01  0.39318207351E+02  0.20886127188E+03  0.23117470359E+03  0.90554784196E+02 0.  0.
         23    2    1    2    0    0 -0.74331018950E+01 -0.52284240426E+02  0.29845717666E+02  0.10865677918E+03  0.90147856314E+02 0.  0.
        -11    1    4    4    0    0  0.17988316133E+02 -0.70588562883E+02  0.17015225432E+02  0.74805364939E+02  0.00000000000E+00 0.  1.
         11    1    4    4    0    0 -0.25421418028E+02  0.18304322457E+02  0.12830492235E+02  0.33851414241E+02  0.00000000000E+00 0. -1.
        -13    1    3    3    0    0 -0.37853683962E+02 -0.11681719504E+02  0.71430819324E+02  0.81680633625E+02  0.00000000000E+00 0.  1.
         13    1    3    3    0    0  0.29331810849E+02  0.50999926854E+02  0.13743045255E+03  0.14949406997E+03  0.00000000000E+00 0. -1.
          2    1    1    2  501    0  0.15954975008E+02  0.12966033075E+02  0.16386814931E+02  0.26290814837E+02  0.00000000000E+00 0. -1.
<scales pt_clust_5="13000.00000" pt_clust_6="13000.00000" pt_clust_7="13000.00000" pt_clust_8="13000.00000" pt_clust_9="20.55916"></scales>
<clustering>
<clus scale="   20.559">  2  9  1 -1</clus>
<clus scale="   90.148">  5  6 -1 -1</clus>
<clus scale="   90.555">  7  8 -1 -1</clus>
<clus scale="   99.653">  2  5  1 -1</clus>
<clus scale="   20.559">  2  5  1 -1</clus>
</clustering>
</event>
<event>
 9    1  0.1399746E-005  0.1002025E+03  0.7546771E-02  0.1280798E+00
          2   -1    0    0  502    0 -0.00000000000E+00  0.00000000000E+00  0.75158413637E+02  0.75158413637E+02  0.00000000000E+00 0. -1.
         21   -1    0    0  501  502  0.00000000000E+00 -0.00000000000E+00 -0.43954973760E+03  0.43954973760E+03  0.00000000000E+00 0. -1.
         23    2    1    2    0    0 -0.32419835170E+02 -0.45097115395E+02 -0.10269329238E+02  0.10814464517E+03  0.92222609085E+02 0.  0.
         23    2    1    2    0    0  0.52137783587E+01  0.15530279831E+02 -0.59890212391E+02  0.10960103533E+03  0.90317087688E+02 0.  0.
        -11    1    3    3    0    0  0.16097976463E+02 -0.54581476095E+02 -0.13888495385E+02  0.58576212603E+02  0.00000000000E+00 0.  1.
         11    1    3    3    0    0 -0.48517811632E+02  0.94843606999E+01  0.36191661466E+01  0.49568432566E+02  0.00000000000E+00 0. -1.
        -13    1    4    4    0    0 -0.13457200476E+02  0.27892405450E+02  0.12822328995E+02  0.33518571677E+02  0.00000000000E+00 0. -1.
         13    1    4    4    0    0  0.18670978835E+02 -0.12362125619E+02 -0.72712541386E+02  0.76082463651E+02  0.00000000000E+00 0.  1.
          2    1    1    2  501    0  0.27206056811E+02  0.29566835564E+02 -0.29423178233E+03  0.29696247074E+03  0.00000000000E+00 0. -1.
<scales pt_clust_5="13000.00000" pt_clust_6="13000.00000" pt_clust_7="13000.00000" pt_clust_8="13000.00000" pt_clust_9="40.17919"></scales>
<clustering>
<clus scale="   40.179">  2  9  1 -1</clus>
<clus scale="   90.317">  7  8 -1 -1</clus>
<clus scale="   92.223">  5  6 -1 -1</clus>
<clus scale="   98.452">  2  7  1 -1</clus>
<clus scale="   40.179">  2  5  1 -1</clus>
</clustering>
</event>
<event>
 9    1  0.1399746E-005  0.9808800E+02  0.7546771E-02  0.1286289E+00
         21   -1    0    0  501  502  0.00000000000E+00  0.00000000000E+00  0.40325607133E+02  0.40325607133E+02  0.00000000000E+00 0. -1.
         -3   -1    0    0    0  501 -0.00000000000E+00 -0.00000000000E+00 -0.34732046305E+03  0.34732046305E+03  0.00000000000E+00 0.  1.
         23    2    1    2    0    0  0.14273242806E+02 -0.55931431931E+01 -0.19365820707E+03  0.21622972412E+03  0.94956746547E+02 0.  0.
         23    2    1    2    0    0 -0.37185026477E+02  0.19731229750E+02 -0.98011217953E+02  0.14043725385E+03  0.91347554992E+02 0.  0.
        -11    1    4    4    0    0 -0.25562529328E+02  0.56491958536E+02 -0.59074555053E+02  0.85642205364E+02  0.00000000000E+00 0. -1.
         11    1    4    4    0    0 -0.11622497149E+02 -0.36760728787E+02 -0.38936662900E+02  0.54795048487E+02  0.00000000000E+00 0.  1.
        -13    1    3    3    0    0  0.49987880026E+02 -0.16367735024E+02 -0.73277216757E+02  0.90201116373E+02  0.00000000000E+00 0. -1.
         13    1    3    3    0    0 -0.35714637220E+02  0.10774591831E+02 -0.12038099031E+03  0.12602860774E+03  0.00000000000E+00 0.  1.
         -3    1    1    2    0  502  0.22911783671E+02 -0.14138086557E+02 -0.15325430894E+02  0.30979092217E+02  0.00000000000E+00 0.  1.
<scales pt_clust_5="13000.00000" pt_clust_6="13000.00000" pt_clust_7="13000.00000" pt_clust_8="13000.00000" pt_clust_9="26.92277"></scales>
<clustering>
<clus scale="   26.923">  1  9  2 -1</clus>
<clus scale="   91.348">  5  6 -1 -1</clus>
<clus scale="   94.598">  1  5  2 -1</clus>
<clus scale="   94.957">  7  8 -1 -1</clus>
<clus scale="   26.923">  1  5  2 -1</clus>
</clustering>
</event>
<event>
 9    1  0.1399746E-005  0.1092896E+03  0.7546771E-02  0.1262852E+00
          2   -1    0    0  502    0 -0.00000000000E+00  0.00000000000E+00  0.18684781875E+03  0.18684781875E+03  0.00000000000E+00 0. -1.
         21   -1    0    0  501  502  0.00000000000E+00 -0.00000000000E+00 -0.13303532166E+03  0.13303532166E+03  0.00000000000E+00 0. -1.
         23    2    1    2    0    0 -0.48962538583E+02 -0.32001731131E+02  0.10299727853E+03  0.15057191594E+03  0.92962473633E+02 0.  0.
         23    2    1    2    0    0  0.52438972632E+02 -0.13894104208E+02 -0.12343162757E+02  0.11035515470E+03  0.95304850451E+02 0.  0.
        -11    1    3    3    0    0  0.14422762231E+02  0.21534705919E+02  0.33407062077E+02  0.42282282649E+02  0.00000000000E+00 0.  1.
         11    1    3    3    0    0 -0.63385300815E+02 -0.53536437050E+02  0.69590216455E+02  0.10828963329E+03  0.00000000000E+00 0. -1.
        -13    1    4    4    0    0  0.15750773710E+02  0.31327118523E+02  0.23282431021E+02  0.42089747227E+02  0.00000000000E+00 0.  1.
         13    1    4    4    0    0  0.36688198922E+02 -0.45221222730E+02 -0.35625593778E+02  0.68265407473E+02  0.00000000000E+00 0. -1.
          2    1    1    2  501    0 -0.34764340484E+01  0.45895835338E+02 -0.36841618683E+02  0.58956069766E+02  0.00000000000E+00 0. -1.
<scales pt_clust_5="13000.00000" pt_clust_6="13000.00000" pt_clust_7="13000.00000" pt_clust_8="13000.00000" pt_clust_9="46.02731"></scales>
<clustering>
<clus scale="   46.027">  2  9  1 -1</clus>
<clus scale="   92.962">  5  6 -1 -1</clus>
<clus scale="   95.305">  7  8 -1 -1</clus>
<clus scale="  107.253">  1  5  2 -1</clus>
<clus scale="   46.027">  2  5  1 -1</clus>
</clustering>
</event>
<event>
 9    1  0.1399746E-005  0.1228213E+03  0.7546771E-02  0.1241320E+00
         -1   -1    0    0    0  501 -0.00000000000E+00  0.00000000000E+00  0.19459497726E+03  0.19459497726E+03  0.00000000000E+00 0.  1.
         21   -1    0    0  501  502  0.00000000000E+00 -0.00000000000E+00 -0.25226169103E+03  0.25226169103E+03  0.00000000000E+00 0. -1.
         23    2    1    2    0    0 -0.24219543673E+02  0.60343062337E+02  0.11748107938E+03  0.16198002117E+03  0.90597195199E+02 0.  0.
         23    2    1    2    0    0  0.31796264917E+02 -0.10317065257E+03 -0.54100604602E+02  0.15625304490E+03  0.99161245498E+02 0.  0.
        -11    1    3    3    0    0 -0.53194389189E+02  0.52910840522E+02  0.10615950995E+03  0.12999631394E+03  0.00000000000E+00 0.  1.
         11    1    3    3    0    0  0.28974845516E+02  0.74322218154E+01  0.11321569435E+02  0.31983707231E+02  0.00000000000E+00 0. -1.
        -11    1    4    4    0    0  0.50379571044E+02 -0.89568694813E+02 -0.60193916750E+01  0.10294117420E+03  0.00000000000E+00 0.  1.
         11    1    4    4    0    0 -0.18583306128E+02 -0.13601957756E+02 -0.48081212927E+02  0.53311870704E+02  0.00000000000E+00 0. -1.
         -1    1    1    2    0  502 -0.75767212436E+01  0.42827590231E+02 -0.12104718856E+03  0.12862360222E+03  0.00000000000E+00 0.  1.
<scales pt_clust_5="13000.00000" pt_clust_6="13000.00000" pt_clust_7="13000.00000" pt_clust_8="13000.00000" pt_clust_9="43.49263"></scales>
<clustering>
<clus scale="   43.493">  2  9  1 -1</clus>
<clus scale="   90.597">  5  6 -1 -1</clus>
<clus scale="   99.161">  7  8 -1 -1</clus>
<clus scale="  116.017">  1  5  2 -1</clus>
<clus scale="   43.493">  2  5  1 -1</clus>
</clustering>
</event>
<event>
 9    1  0.1399746E-005  0.9336719E+02  0.7546771E-02  0.1301979E+00
         -3   -1    0    0    0  501 -0.00000000000E+00  0.00000000000E+00  0.73691257747E+02  0.73691257747E+02  0.00000000000E+00 0.  1.
         21   -1    0    0  501  502  0.00000000000E+00 -0.00000000000E+00 -0.20333904681E+03  0.20333904681E+03  0.00000000000E+00 0.  1.
         23    2    1    2    0    0  0.61390104283E+00  0.98601986643E+01 -0.40191423216E+01  0.81749410283E+02  0.81050676644E+02 0.  0.
         23    2    1    2    0    0 -0.31969860529E+02  0.11002696245E+02 -0.49441851174E+02  0.11029333990E+03  0.92612055761E+02 0.  0.
        -11    1    3    3    0    0 -0.15731390523E+02 -0.31060790585E+02  0.86959759242E+01  0.35886896729E+02  0.00000000000E+00 0. -1.
         11    1    3    3    0    0  0.16345291565E+02  0.40920989249E+02 -0.12715118246E+02  0.45862513554E+02  0.00000000000E+00 0.  1.
        -11    1    4    4    0    0 -0.35495935161E+02  0.48074802301E+02 -0.20666514360E+02  0.63231739222E+02  0.00000000000E+00 0.  1.
         11    1    4    4    0    0  0.35260746314E+01 -0.37072106056E+02 -0.28775336814E+02  0.47061600680E+02  0.00000000000E+00 0. -1.
         -3    1    1    2    0  502  0.31355959487E+02 -0.20862894910E+02 -0.76186795564E+02  0.84987554369E+02  0.00000000000E+00 0.  1.
<scales pt_clust_5="13000.00000" pt_clust_6="13000.00000" pt_clust_7="13000.00000" pt_clust_8="13000.00000" pt_clust_9="37.66240"></scales>
<clustering>
<clus scale="   37.662">  2  9  1 -1</clus>
<clus scale="   81.051">  5  6 -1 -1</clus>
<clus scale="   81.912">  1  5  2 -1</clus>
<clus scale="   92.612">  7  8 -1 -1</clus>
<clus scale="   37.662">  2  5  1 -1</clus>
</clustering>
</event>
<event>
 9    1  0.1399746E-005  0.1376992E+03  0.7546771E-02  0.1216555E+00
         21   -1    0    0  501  502  0.00000000000E+00  0.00000000000E+00  0.61207186246E+02  0.61207186246E+02  0.00000000000E+00 0.  1.
          1   -1    0    0  502    0 -0.00000000000E+00 -0.00000000000E+00 -0.49376544370E+03  0.49376544370E+03  0.00000000000E+00 0. -1.
         23    2    1    2    0    0 -0.92068926947E+02  0.41008430782E+02 -0.31502247515E+03  0.34294849047E+03  0.90642862712E+02 0.  0.
         23    2    1    2    0    0  0.10793111676E+03 -0.24401055975E+02 -0.12249787540E+03  0.18852868605E+03  0.91064803796E+02 0.  0.
        -11    1    3    3    0    0  0.11657130869E+02  0.18596278288E+02 -0.10915085354E+03  0.11133561468E+03  0.00000000000E+00 0. -1.
         11    1    3    3    0    0 -0.10372605782E+03  0.22412152494E+02 -0.20587162161E+03  0.23161287579E+03  0.00000000000E+00 0.  1.
        -13    1    4    4    0    0  0.10453118292E+03  0.10915745733E+02 -0.10643963032E+03  0.14958381132E+03  0.00000000000E+00 0.  1.
         13    1    4    4    0    0  0.33999338460E+01 -0.35316801708E+02 -0.16058245079E+02  0.38944874734E+02  0.00000000000E+00 0. -1.
          1    1    1    2  501    0 -0.15862189817E+02 -0.16607374807E+02  0.49620930911E+01  0.23495453424E+02  0.00000000000E+00 0. -1.
<scales pt_clust_5="13000.00000" pt_clust_6="13000.00000" pt_clust_7="13000.00000" pt_clust_8="13000.00000" pt_clust_9="22.96550"></scales>
<clustering>
<clus scale="   22.965">  1  9  2 -1</clus>
<clus scale="   90.643">  5  6 -1 -1</clus>
<clus scale="   91.065">  7  8 -1 -1</clus>
<clus scale="  137.420">  2  5  1 -1</clus>
<clus scale="   22.965">  1  5  2 -1</clus>
</clustering>
</event>
<event>
 9    1  0.1399746E-005  0.9892749E+02  0.7546771E-02  0.1283107E+00
          1   -1    0    0  502    0 -0.00000000000E+00  0.00000000000E+00  0.46815890293E+03  0.46815890293E+03  0.00000000000E+00 0. -1.
         21   -1    0    0  501  502  0.00000000000E+00 -0.00000000000E+00 -0.84526908691E+02  0.84526908691E+02  0.00000000000E+00 0. -1.
         23    2    1    2    0    0 -0.45182123002E+02  0.18645211705E+01  0.29351241789E+03  0.31022125167E+03  0.89681574764E+02 0.  0.
         23    2    1    2    0    0 -0.11840491391E+02 -0.34474806980E+02 -0.32730669291E+02  0.10315486127E+03  0.90779508366E+02 0.  0.
        -13    1    4    4    0    0  0.30977055450E+02 -0.74797821397E+01 -0.40935594392E+02  0.51877239647E+02  0.00000000000E+00 0.  1.
         13    1    4    4    0    0 -0.42817546841E+02 -0.26995024840E+02  0.82049251009E+01  0.51277621625E+02  0.00000000000E+00 0. -1.
        -13    1    3    3    0    0 -0.68941615854E+02  0.17795889308E+02  0.19289912746E+03  0.20562031380E+03  0.00000000000E+00 0. -1.
         13    1    3    3    0    0  0.23759492852E+02 -0.15931368138E+02  0.10061329043E+03  0.10460093787E+03  0.00000000000E+00 0.  1.
          1    1    1    2  501    0  0.57022614393E+02  0.32610285809E+02  0.12285024564E+03  0.13930969868E+03  0.00000000000E+00 0. -1.
<scales pt_clust_5="13000.00000" pt_clust_6="13000.00000" pt_clust_7="13000.00000" pt_clust_8="13000.00000" pt_clust_9="65.68876"></scales>
<clustering>
<clus scale="   65.689">  2  9  1 -1</clus>
<clus scale="   89.682">  7  8 -1 -1</clus>
<clus scale="   90.780">  5  6 -1 -1</clus>
<clus scale="   97.921">  1  7  2 -1</clus>
<clus scale="   65.689">  2  5  1 -1</clus>
</clustering>
</event>
<event>
 9    1  0.1399746E-005  0.1119202E+03  0.7546771E-02  0.1258481E+00
         21   -1    0    0  501  502  0.00000000000E+00  0.00000000000E+00  0.59050700045E+03  0.59050700045E+03  0.00000000000E+00 0. -1.
         -3   -1    0    0    0  501 -0.00000000000E+00 -0.00000000000E+00 -0.71470461306E+02  0.71470461306E+02  0.00000000000E+00 0.  1.
         23    2    1    2    0    0 -0.10975127740E+02  0.55906624263E+02  0.18144591555E+02  0.11222910427E+03  0.94974425915E+02 0.  0.
         23    2    1    2    0    0  0.68994232210E+02 -0.44337544015E+02  0.14953678304E+03  0.19344720430E+03  0.91293753803E+02 0.  0.
        -11    1    4    4    0    0  0.55211120059E+02 -0.71617069832E+02  0.12485214438E+03  0.15416008052E+03  0.00000000000E+00 0. -1.
         11    1    4    4    0    0  0.13783112150E+02  0.27279525817E+02  0.24684638655E+02  0.39287123780E+02  0.00000000000E+00 0.  1.
        -11    1    3    3    0    0  0.39601073250E+01 -0.21972273019E+02  0.23920645851E+02  0.32720949399E+02  0.00000000000E+00 0. -1.
         11    1    3    3    0    0 -0.14935235065E+02  0.77878897282E+02 -0.57760542957E+01  0.79508154874E+02  0.00000000000E+00 0.  1.
         -3    1    1    2    0  502 -0.58019104470E+02 -0.11569080248E+02  0.35135516455E+03  0.35630115318E+03  0.00000000000E+00 0.  1.
<scales pt_clust_5="13000.00000" pt_clust_6="13000.00000" pt_clust_7="13000.00000" pt_clust_8="13000.00000" pt_clust_9="59.16131"></scales>
<clustering>
<clus scale="   59.161">  1  9  2 -1</clus>
<clus scale="   91.294">  5  6 -1 -1</clus>
<clus scale="   94.974">  7  8 -1 -1</clus>
<clus scale="  108.814">  1  5  2 -1</clus>
<clus scale="   59.161">  1  5  2 -1</clus>
</clustering>
</event>
<event>
 9    1  0.1399746E-005  0.1712655E+03  0.7546771E-02  0.1176845E+00
          1   -1    0    0  502    0 -0.00000000000E+00  0.00000000000E+00  0.51003581703E+03  0.51003581703E+03  0.00000000000E+00 0. -1.
         21   -1    0    0  501  502  0.00000000000E+00 -0.00000000000E+00 -0.22741419321E+03  0.22741419321E+03  0.00000000000E+00 0.  1.
         23    2    1    2    0    0  0.57170912809E+02 -0.12465059921E+03  0.39054177660E+03  0.42397801665E+03  0.91805196885E+02 0.  0.
         23    2    1    2    0    0 -0.49275753243E+02  0.19555162577E+03 -0.74016078332E+02  0.23448607474E+03  0.94004261586E+02 0.  0.
        -11    1    4    4    0    0 -0.65518743358E+02  0.14978643195E+03 -0.85626707239E+02  0.18455517853E+03  0.00000000000E+00 0.  1.
         11    1    4    4    0    0  0.16242990115E+02  0.45765193823E+02  0.11610628907E+02  0.49930896218E+02  0.00000000000E+00 0. -1.
        -11    1    3    3    0    0 -0.18296650943E+02 -0.62627135886E+02  0.19042135180E+03  0.20128888893E+03  0.00000000000E+00 0. -1.
         11    1    3    3    0    0  0.75467563753E+02 -0.62023463328E+02  0.20012042480E+03  0.22268912772E+03  0.00000000000E+00 0.  1.
          1    1    1    2  501    0 -0.78951595661E+01 -0.70901026561E+02 -0.33904074445E+02  0.78985918846E+02  0.00000000000E+00 0. -1.
<scales pt_clust_5="13000.00000" pt_clust_6="13000.00000" pt_clust_7="13000.00000" pt_clust_8="13000.00000" pt_clust_9="71.33925"></scales>
<clustering>
<clus scale="   71.339">  2  9  1 -1</clus>
<clus scale="   91.805">  7  8 -1 -1</clus>
<clus scale="   94.004">  5  6 -1 -1</clus>
<clus scale="  170.068">  1  7  2 -1</clus>
<clus scale="   71.339">  2  5  1 -1</clus>
</clustering>
</event>
<event>
 9    1  0.1399746E-005  0.1038617E+03  0.7546771E-02  0.1274237E+00
         21   -1    0    0  501  502  0.00000000000E+00  0.00000000000E+00  0.19485688017E+03  0.19485688017E+03  0.00000000000E+00 0. -1.
          2   -1    0    0  502    0 -0.00000000000E+00 -0.00000000000E+00 -0.33867973757E+03  0.33867973757E+03  0.00000000000E+00 0. -1.
         23    2    1    2    0    0 -0.74602947568E+02 -0.11392085095E+02 -0.22464915855E+03  0.25378918359E+03  0.90809283009E+02 0.  0.
         23    2    1    2    0    0  0.12978311988E+02  0.10257085993E+02 -0.72717482427E+02  0.11429479015E+03  0.86613061430E+02 0.  0.
        -11    1    3    3    0    0 -0.63182186839E+01  0.24874243292E+02 -0.13646461234E+02  0.29066712420E+02  0.00000000000E+00 0.  1.
         11    1    3    3    0    0 -0.68284728884E+02 -0.36266328387E+02 -0.21100269732E+03  0.22472247117E+03  0.00000000000E+00 0. -1.
        -13    1    4    4    0    0 -0.16352636952E+02 -0.32420923361E+02 -0.32407268886E+02  0.48669868332E+02  0.00000000000E+00 0. -1.
         13    1    4    4    0    0  0.29330948940E+02  0.42678009354E+02 -0.40310213541E+02  0.65624921819E+02  0.00000000000E+00 0.  1.
          2    1    1    2  501    0  0.61624635580E+02  0.11349991021E+01  0.15354378357E+03  0.16545264400E+03  0.00000000000E+00 0. -1.
<scales pt_clust_5="13000.00000" pt_clust_6="13000.00000" pt_clust_7="13000.00000" pt_clust_8="13000.00000" pt_clust_9="61.63509"></scales>
<clustering>
<clus scale="   61.635">  1  9  2 -1</clus>
<clus scale="   86.613">  7  8 -1 -1</clus>
<clus scale="   90.809">  5  6 -1 -1</clus>
<clus scale="  100.214">  1  7  2 -1</clus>
<clus scale="   61.635">  1  5  2 -1</clus>
</clustering>
</event>
<event>
 9    1  0.1399746E-005  0.1385482E+03  0.7546771E-02  0.1215298E+00
         21   -1    0    0  501  502  0.00000000000E+00  0.00000000000E+00  0.59144939201E+02  0.59144939201E+02  0.00000000000E+00 0.  1.
         -1   -1    0    0    0  501 -0.00000000000E+00 -0.00000000000E+00 -0.50004697295E+03  0.50004697295E+03  0.00000000000E+00 0.  1.
         23    2    1    2    0    0  0.84390007379E+02  0.39761232709E+00 -0.19113785567E+03  0.22842635495E+03  0.92320573680E+02 0.  0.
         23    2    1    2    0    0 -0.13502979091E+03 -0.13685509106E+02 -0.18117061843E+03  0.24447516201E+03  0.92330787198E+02 0.  0.
        -11    1    4    4    0    0 -0.27975893197E+02 -0.39885458747E+02 -0.29378858414E+02  0.56891280011E+02  0.00000000000E+00 0. -1.
         11    1    4    4    0    0 -0.10705389771E+03  0.26199949641E+02 -0.15179176002E+03  0.18758388200E+03  0.00000000000E+00 0.  1.
        -13    1    3    3    0    0  0.38084879385E+02 -0.22735828376E+02 -0.16417800437E+03  0.17006408512E+03  0.00000000000E+00 0.  1.
         13    1    3    3    0    0  0.46305127994E+02  0.23133440703E+02 -0.26959851301E+02  0.58362269828E+02  0.00000000000E+00 0. -1.
         -1    1    1    2    0  502  0.50639783532E+02  0.13287896779E+02 -0.68593559647E+02  0.86290395190E+02  0.00000000000E+00 0.  1.
<scales pt_clust_5="13000.00000" pt_clust_6="13000.00000" pt_clust_7="13000.00000" pt_clust_8="13000.00000" pt_clust_9="52.35417"></scales>
<clustering>
<clus scale="   52.354">  1  9  2 -1</clus>
<clus scale="   92.321">  7  8 -1 -1</clus>
<clus scale="   92.331">  5  6 -1 -1</clus>
<clus scale="  138.541">  2  7  1 -1</clus>
<clus scale="   52.354">  1  5  2 -1</clus>
</clustering>
</event>
<event>
 9    1  0.1399746E-005  0.1150266E+03  0.7546771E-02  0.1251672E+00
         21   -1    0    0  501  502  0.00000000000E+00  0.00000000000E+00  0.91361919284E+02  0.91361919284E+02  0.00000000000E+00 0.  1.
          1   -1    0    0  502    0 -0.00000000000E+00 -0.00000000000E+00 -0.23179318939E+03  0.23179318939E+03  0.00000000000E+00 0. -1.
         23    2    1    2    0    0  0.61856474484E+02  0.53733841587E+02 -0.10351267075E+03  0.15995073751E+03  0.90309557948E+02 0.  0.
         23    2    1    2    0    0 -0.55769487914E+02 -0.24441835952E+02 -0.61224250490E+02  0.12465780612E+03  0.89908401447E+02 0.  0.
        -13    1    3    3    0    0  0.18610334271E+02  0.38868433838E+02 -0.10572206187E+03  0.11416765767E+03  0.00000000000E+00 0.  1.
         13    1    3    3    0    0  0.43246140212E+02  0.14865407749E+02  0.22093911213E+01  0.45783079843E+02  0.00000000000E+00 0. -1.
        -13    1    4    4    0    0 -0.11496650044E+02  0.18906214476E+02  0.14771121405E+02  0.26604584861E+02  0.00000000000E+00 0.  1.
         13    1    4    4    0    0 -0.44272837870E+02 -0.43348050428E+02 -0.75995371896E+02  0.98053221255E+02  0.00000000000E+00 0. -1.
          1    1    1    2  501    0 -0.60869865696E+01 -0.29292005635E+02  0.24305651137E+02  0.38546565046E+02  0.00000000000E+00 0. -1.
<scales pt_clust_5="13000.00000" pt_clust_6="13000.00000" pt_clust_7="13000.00000" pt_clust_8="13000.00000" pt_clust_9="29.91777"></scales>
<clustering>
<clus scale="   29.918">  1  9  2 -1</clus>
<clus scale="   89.908">  7  8 -1 -1</clus>
<clus scale="   90.310">  5  6 -1 -1</clus>
<clus scale="  114.712">  1  7  2 -1</clus>
<clus scale="   29.918">  1  5  2 -1</clus>
</clustering>
</event>
<event>
 9    1  0.1399746E-005  0.1031710E+03  0.7546771E-02  0.1279429E+00
          1   -1    0    0  502    0 -0.00000000000E+00  0.00000000000E+00  0.35410537476E+03  0.35410537476E+03  0.00000000000E+00 0. -1.
         21   -1    0    0  501  502  0.00000000000E+00 -0.00000000000E+00 -0.36030098670E+02  0.36030098670E+02  0.00000000000E+00 0.  1.
         23    2    1    2    0    0 -0.31206713016E+02 -0.92650923885E+01  0.15795441816E+03  0.18344810050E+03  0.87429437174E+02 0.  0.
         23    2    1    2    0    0  0.15666726274E+02  0.29621498404E+02  0.13782084545E+03  0.17272908955E+03  0.98579274980E+02 0.  0.
        -11    1    3    3    0    0 -0.43793072598E+02 -0.25144429876E+02  0.41841265729E+02  0.65580233906E+02  0.00000000000E+00 0.  1.
         11    1    3    3    0    0  0.12586359582E+02  0.15879337487E+02  0.11611315243E+03  0.11786786659E+03  0.00000000000E+00 0. -1.
        -13    1    4    4    0    0 -0.41591206237E+02  0.19483043544E+02  0.63260156734E+02  0.78174579321E+02  0.00000000000E+00 0.  1.
         13    1    4    4    0    0  0.57257932511E+02  0.10138454860E+02  0.74560688719E+02  0.94554510229E+02  0.00000000000E+00 0. -1.
          1    1    1    2  501    0  0.15539986743E+02 -0.20356406016E+02  0.22300012470E+02  0.33958283378E+02  0.00000000000E+00 0. -1.
<scales pt_clust_5="13000.00000" pt_clust_6="13000.00000" pt_clust_7="13000.00000" pt_clust_8="13000.00000" pt_clust_9="25.61005"></scales>
<clustering>
<clus scale="   25.610">  2  9  1 -1</clus>
<clus scale="   87.429">  5  6 -1 -1</clus>
<clus scale="   92.576">  1  5  2 -1</clus>
<clus scale="   98.579">  7  8 -1 -1</clus>
<clus scale="   25.610">  2  5  1 -1</clus>
</clustering>
</event>
<event>
 9    1  0.1399746E-005  0.1892732E+03  0.7546771E-02  0.1182162E+00
          2   -1    0    0  502    0 -0.00000000000E+00  0.00000000000E+00  0.12494613438E+04  0.12494613438E+04  0.00000000000E+00 0. -1.
         21   -1    0    0  501  502  0.00000000000E+00 -0.00000000000E+00 -0.49966609581E+02  0.49966609581E+02  0.00000000000E+00 0. -1.
         23    2    1    2    0    0 -0.71876257439E+02  0.15194314546E+02  0.38004684131E+03  0.39614787405E+03  0.84264304145E+02 0.  0.
         23    2    1    2    0    0  0.15714005632E+03  0.11515711125E+03  0.56878734178E+03  0.60816633600E+03  0.91613833594E+02 0.  0.
        -13    1    3    3    0    0 -0.33445957413E+01 -0.25297168195E+02  0.44578642866E+02  0.51365245440E+02  0.00000000000E+00 0. -1.
         13    1    3    3    0    0 -0.68531661697E+02  0.40491482740E+02  0.33546819844E+03  0.34478262861E+03  0.00000000000E+00 0.  1.
        -13    1    4    4    0    0  0.95908704930E+02  0.62765657771E+02  0.19854712971E+03  0.22925743215E+03  0.00000000000E+00 0.  1.
         13    1    4    4    0    0  0.61231351388E+02  0.52391453481E+02  0.37024021206E+03  0.37890890385E+03  0.00000000000E+00 0. -1.
          2    1    1    2  501    0 -0.85263798879E+02 -0.13035142580E+03  0.25066055116E+03  0.29511374335E+03  0.00000000000E+00 0. -1.
<scales pt_clust_5="13000.00000" pt_clust_6="13000.00000" pt_clust_7="13000.00000" pt_clust_8="13000.00000" pt_clust_9="165.62379"></scales>
<clustering>
<clus scale="   84.264">  5  6 -1 -1</clus>
<clus scale="   91.614">  7  8 -1 -1</clus>
<clus scale="  111.792">  1  5  2 -1</clus>
<clus scale="  165.624">  2  9  1 -1</clus>
<clus scale="  165.624">  2  5  1 -1</clus>
</clustering>
</event>
<event>
 9    1  0.1399746E-005  0.1042582E+03  0.7546771E-02  0.1272348E+00
         21   -1    0    0  501  502  0.00000000000E+00  0.00000000000E+00  0.63950608090E+03  0.63950608090E+03  0.00000000000E+00 0. -1.
         -2   -1    0    0    0  501 -0.00000000000E+00 -0.00000000000E+00 -0.61951077942E+02  0.61951077942E+02  0.00000000000E+00 0.  1.
         23    2    1    2    0    0 -0.43411709300E+01  0.47393810513E+02  0.62469399291E+02  0.11948628728E+03  0.90052917557E+02 0.  0.
         23    2    1    2    0    0 -0.79369431857E+02 -0.28319042777E+02  0.10484244156E+03  0.16283990893E+03  0.91779210553E+02 0.  0.
        -11    1    3    3    0    0  0.37265551324E+02  0.13151468127E+02  0.50783959393E+02  0.64348216456E+02  0.00000000000E+00 0.  1.
         11    1    3    3    0    0 -0.41606722254E+02  0.34242342386E+02  0.11685439897E+02  0.55138070826E+02  0.00000000000E+00 0. -1.
        -13    1    4    4    0    0 -0.92541105043E+02 -0.45359571948E+02  0.87003265491E+02  0.13487370054E+03  0.00000000000E+00 0. -1.
         13    1    4    4    0    0  0.13171673186E+02  0.17040529171E+02  0.17839176071E+02  0.27966208392E+02  0.00000000000E+00 0.  1.
         -2    1    1    2    0  502  0.83710602788E+02 -0.19074767735E+02  0.41024316211E+03  0.41913096264E+03  0.00000000000E+00 0.  1.
<scales pt_clust_5="13000.00000" pt_clust_6="13000.00000" pt_clust_7="13000.00000" pt_clust_8="13000.00000" pt_clust_9="85.85634"></scales>
<clustering>
<clus scale="   85.856">  1  9  2 -1</clus>
<clus scale="   90.053">  5  6 -1 -1</clus>
<clus scale="   91.779">  7  8 -1 -1</clus>
<clus scale="  102.742">  2  5  1 -1</clus>
<clus scale="   85.856">  1  5  2 -1</clus>
</clustering>
</event>
<event>
 9    1  0.1399746E-005  0.1023763E+03  0.7546771E-02  0.1277473E+00
         21   -1    0    0  501  502  0.00000000000E+00  0.00000000000E+00  0.18262509368E+03  0.18262509368E+03  0.00000000000E+00 0. -1.
          1   -1    0    0  502    0 -0.00000000000E+00 -0.00000000000E+00 -0.29057057879E+03  0.29057057879E+03  0.00000000000E+00 0. -1.
         23    2    1    2    0    0  0.53096021927E+02  0.10863977751E+02 -0.17409454619E+03  0.20598884991E+03  0.95839875392E+02 0.  0.
         23    2    1    2    0    0 -0.42957836841E+01  0.40150186168E+02 -0.64271625589E+02  0.11890488837E+03  0.91526167931E+02 0.  0.
        -13    1    3    3    0    0  0.19392429877E+02  0.52825243077E+02 -0.90307866704E+02  0.10640527915E+03  0.00000000000E+00 0.  1.
         13    1    3    3    0    0  0.33703592050E+02 -0.41961265326E+02 -0.83786679489E+02  0.99583570756E+02  0.00000000000E+00 0. -1.
        -13    1    4    4    0    0  0.36675144812E+02  0.17925703177E+02 -0.59352427912E+02  0.72035461964E+02  0.00000000000E+00 0.  1.
         13    1    4    4    0    0 -0.40970928496E+02  0.22224482991E+02 -0.49191976778E+01  0.46869426408E+02  0.00000000000E+00 0. -1.
          1    1    1    2  501    0 -0.48800238242E+02 -0.51014163919E+02  0.13042068667E+03  0.14830193419E+03  0.00000000000E+00 0. -1.
<scales pt_clust_5="13000.00000" pt_clust_6="13000.00000" pt_clust_7="13000.00000" pt_clust_8="13000.00000" pt_clust_9="70.59680"></scales>
<clustering>
<clus scale="   70.597">  1  9  2 -1</clus>
<clus scale="   91.526">  7  8 -1 -1</clus>
<clus scale="   95.840">  5  6 -1 -1</clus>
<clus scale="   98.350">  1  7  2 -1</clus>
<clus scale="   70.597">  1  5  2 -1</clus>
</clustering>
</event>
<event>
 9    1  0.1399746E-005  0.1296123E+03  0.7546771E-02  0.1228519E+00
         21   -1    0    0  501  502  0.00000000000E+00  0.00000000000E+00  0.15025719902E+03  0.15025719902E+03  0.00000000000E+00 0.  1.
          1   -1    0    0  502    0 -0.00000000000E+00 -0.00000000000E+00 -0.28235041708E+03  0.28235041708E+03  0.00000000000E+00 0. -1.
         23    2    1    2    0    0  0.20634621219E+02  0.89015440419E+02 -0.21937441973E+03  0.25377894565E+03  0.89045387297E+02 0.  0.
         23    2    1    2    0    0 -0.40801994674E+02 -0.92006716556E+02  0.74051128371E+02  0.15452423619E+03  0.90907267570E+02 0.  0.
        -11    1    3    3    0    0 -0.27626770001E+02  0.15542338024E+02 -0.10405051743E+03  0.10877183858E+03  0.00000000000E+00 0. -1.
         11    1    3    3    0    0  0.48261391220E+02  0.73473102396E+02 -0.11532390230E+03  0.14500710706E+03  0.00000000000E+00 0.  1.
        -13    1    4    4    0    0  0.49952252135E+01 -0.83937005423E+02  0.66947998087E+02  0.10748212690E+03  0.00000000000E+00 0.  1.
         13    1    4    4    0    0 -0.45797219887E+02 -0.80697111321E+01  0.71031302841E+01  0.47042109295E+02  0.00000000000E+00 0. -1.
          1    1    1    2  501    0  0.20167373455E+02  0.29912761361E+01  0.13230073292E+02  0.24304434251E+02  0.00000000000E+00 0. -1.
<scales pt_clust_5="13000.00000" pt_clust_6="13000.00000" pt_clust_7="13000.00000" pt_clust_8="13000.00000" pt_clust_9="20.38800"></scales>
<clustering>
<clus scale="   20.388">  1  9  2 -1</clus>
<clus scale="   89.045">  5  6 -1 -1</clus>
<clus scale="   90.907">  7  8 -1 -1</clus>
<clus scale="  128.313">  2  5  1 -1</clus>
<clus scale="   20.388">  1  5  2 -1</clus>
</clustering>
</event>
<event>
 9    1  0.1399746E-005  0.1000700E+03  0.7546771E-02  0.1288954E+00
         21   -1    0    0  501  502  0.00000000000E+00  0.00000000000E+00  0.11527809412E+03  0.11527809412E+03  0.00000000000E+00 0.  1.
         -3   -1    0    0    0  501 -0.00000000000E+00 -0.00000000000E+00 -0.16087690820E+03  0.16087690820E+03  0.00000000000E+00 0.  1.
         23    2    1    2    0    0 -0.39927973843E+02  0.29858412920E+02 -0.99450229469E+02  0.14394047379E+03  0.91338622364E+02 0.  0.
         23    2    1    2    0    0  0.16921129450E+02 -0.16888367365E+02  0.68161030079E+01  0.78271432756E+02  0.74218706209E+02 0.  0.
        -11    1    4    4    0    0  0.43652471403E+02  0.24310217184E+01 -0.31035701504E+01  0.43830129750E+02  0.00000000000E+00 0. -1.
         11    1    4    4    0    0 -0.26731341953E+02 -0.19319389084E+02  0.99196731583E+01  0.34441303006E+02  0.00000000000E+00 0.  1.
        -13    1    3    3    0    0 -0.52456594556E+01  0.50535678400E+02 -0.19590818065E+02  0.54453391877E+02  0.00000000000E+00 0.  1.
         13    1    3    3    0    0 -0.34682314387E+02 -0.20677265480E+02 -0.79859411404E+02  0.89487081910E+02  0.00000000000E+00 0. -1.
         -3    1    1    2    0  502  0.23006844392E+02 -0.12970045555E+02  0.47035312380E+02  0.53943095770E+02  0.00000000000E+00 0.  1.
<scales pt_clust_5="13000.00000" pt_clust_6="13000.00000" pt_clust_7="13000.00000" pt_clust_8="13000.00000" pt_clust_9="26.41093"></scales>
<clustering>
<clus scale="   26.411">  1  9  2 -1</clus>
<clus scale="   74.219">  5  6 -1 -1</clus>
<clus scale="   84.733">  1  5  2 -1</clus>
<clus scale="   91.339">  7  8 -1 -1</clus>
<clus scale="   26.411">  1  5  2 -1</clus>
</clustering>
</event>
<event>
 9    1  0.1399746E-005  0.1000502E+03  0.7546771E-02  0.1282638E+00
         21   -1    0    0  501  502  0.00000000000E+00  0.00000000000E+00  0.12361605397E+03  0.12361605397E+03  0.00000000000E+00 0. -1.
          1   -1    0    0  502    0 -0.00000000000E+00 -0.00000000000E+00 -0.30458816809E+03  0.30458816809E+03  0.00000000000E+00 0. -1.
         23    2    1    2    0    0  0.10293042185E+01  0.14908567315E+02 -0.10464640783E+03  0.14183987151E+03  0.94574592943E+02 0.  0.
         23    2    1    2    0    0  0.71675085802E+02  0.30503424618E+02 -0.13698438627E+03  0.18135171894E+03  0.89754927680E+02 0.  0.
        -11    1    4    4    0    0  0.54650949071E+02  0.58871151960E+02 -0.11934180905E+03  0.14385758984E+03  0.00000000000E+00 0. -1.
         11    1    4    4    0    0  0.17024136731E+02 -0.28367727342E+02 -0.17642577221E+02  0.37494129100E+02  0.00000000000E+00 0.  1.
        -13    1    3    3    0    0  0.45506953836E+02 -0.46026362500E+01 -0.38552412452E+02  0.59819358186E+02  0.00000000000E+00 0.  1.
         13    1    3    3    0    0 -0.44477649618E+02  0.19511203565E+02 -0.66093995381E+02  0.82020513321E+02  0.00000000000E+00 0. -1.
          1    1    1    2  501    0 -0.72704390021E+02 -0.45411991933E+02  0.60658679989E+02  0.10501263161E+03  0.00000000000E+00 0. -1.
<scales pt_clust_5="13000.00000" pt_clust_6="13000.00000" pt_clust_7="13000.00000" pt_clust_8="13000.00000" pt_clust_9="85.72151"></scales>
<clustering>
<clus scale="   85.722">  1  9  2 -1</clus>
<clus scale="   89.755">  5  6 -1 -1</clus>
<clus scale="   94.575">  7  8 -1 -1</clus>
<clus scale="   95.507">  1  5  2 -1</clus>
<clus scale="   85.722">  1  5  2 -1</clus>
</clustering>
</event>
<event>
 9    1  0.1399746E-005  0.9337567E+02  0.7546771E-02  0.1296144E+00
         21   -1    0    0  501  502  0.00000000000E+00  0.00000000000E+00  0.51386108409E+02  0.51386108409E+02  0.00000000000E+00 0. -1.
         -2   -1    0    0    0  501 -0.00000000000E+00 -0.00000000000E+00 -0.38572268610E+03  0.38572268610E+03  0.00000000000E+00 0.  1.
         23    2    1    2    0    0  0.71025909138E+00  0.19724375650E+02 -0.27344195606E+03  0.28896512395E+03  0.91327893125E+02 0.  0.
         23    2    1    2    0    0 -0.27569406333E+02 -0.12730569752E+02 -0.71725370996E+02  0.11835051290E+03  0.89107662338E+02 0.  0.
        -11    1    3    3    0    0  0.45787324403E+02  0.12002847196E+02 -0.12624114918E+03  0.13482349633E+03  0.00000000000E+00 0.  1.
         11    1    3    3    0    0 -0.45077065311E+02  0.77215284546E+01 -0.14720080688E+03  0.15414162762E+03  0.00000000000E+00 0. -1.
        -13    1    4    4    0    0 -0.50390311155E+01 -0.42996841557E+02 -0.76074340172E+01  0.43954445404E+02  0.00000000000E+00 0. -1.
         13    1    4    4    0    0 -0.22530375218E+02  0.30266271805E+02 -0.64117936979E+02  0.74396067496E+02  0.00000000000E+00 0.  1.
         -2    1    1    2    0  502  0.26859147242E+02 -0.69938058986E+01  0.10830749365E+02  0.29793157659E+02  0.00000000000E+00 0.  1.
<scales pt_clust_5="13000.00000" pt_clust_6="13000.00000" pt_clust_7="13000.00000" pt_clust_8="13000.00000" pt_clust_9="27.75477"></scales>
<clustering>
<clus scale="   27.755">  1  9  2 -1</clus>
<clus scale="   89.108">  7  8 -1 -1</clus>
<clus scale="   91.205">  1  7  2 -1</clus>
<clus scale="   91.328">  5  6 -1 -1</clus>
<clus scale="   27.755">  1  5  2 -1</clus>
</clustering>
</event>
<event>
 9    1  0.1399746E-005  0.9832314E+02  0.7546771E-02  0.1285854E+00
         -3   -1    0    0    0  501 -0.00000000000E+00  0.00000000000E+00  0.35737818176E+03  0.35737818176E+03  0.00000000000E+00 0.  1.
         21   -1    0    0  501  502  0.00000000000E+00 -0.00000000000E+00 -0.17246475213E+03  0.17246475213E+03  0.00000000000E+00 0.  1.
         23    2    1    2    0    0 -0.16894124005E+01  0.39659647245E+02  0.22621625006E+03  0.24638919237E+03  0.89208186801E+02 0.  0.
         23    2    1    2    0    0  0.16208265996E+02 -0.14734181332E+02  0.10052528579E+03  0.13872196313E+03  0.93051845686E+02 0.  0.
        -11    1    3    3    0    0  0.21745838419E+02 -0.22421274454E+02  0.68769264600E+02  0.75530171390E+02  0.00000000000E+00 0.  1.
         11    1    3    3    0    0 -0.23435250820E+02  0.62080921699E+02  0.15744698546E+03  0.17085902098E+03  0.00000000000E+00 0. -1.
        -11    1    4    4    0    0  0.41683874824E+02  0.24840783095E+02  0.50308141372E+02  0.69896487847E+02  0.00000000000E+00 0.  1.
         11    1    4    4    0    0 -0.25475608827E+02 -0.39574964427E+02  0.50217144418E+02  0.68825475284E+02  0.00000000000E+00 0. -1.
         -3    1    1    2    0  502 -0.14518853596E+02 -0.24925465913E+02 -0.14182810623E+03  0.14473177839E+03  0.00000000000E+00 0.  1.
<scales pt_clust_5="13000.00000" pt_clust_6="13000.00000" pt_clust_7="13000.00000" pt_clust_8="13000.00000" pt_clust_9="28.84573"></scales>
<clustering>
<clus scale="   28.846">  2  9  1 -1</clus>
<clus scale="   89.208">  5  6 -1 -1</clus>
<clus scale="   93.052">  7  8 -1 -1</clus>
<clus scale="   94.694">  1  5  2 -1</clus>
<clus scale="   28.846">  2  5  1 -1</clus>
</clustering>
</event>
<event>
 9    1  0.1399746E-005  0.9920034E+02  0.7546771E-02  0.1284031E+00
         21   -1    0    0  501  502  0.00000000000E+00  0.00000000000E+00  0.64694765247E+02  0.64694765247E+02  0.00000000000E+00 0.  1.
          1   -1    0    0  502    0 -0.00000000000E+00 -0.00000000000E+00 -0.21626527924E+03  0.21626527924E+03  0.00000000000E+00 0. -1.
         23    2    1    2    0    0 -0.50378109551E+01  0.17317925764E+01 -0.44388995256E+02  0.10380020959E+03  0.93678823465E+02 0.  0.
         23    2    1    2    0    0  0.29527163859E+02  0.15152451312E+02 -0.54194538098E+02  0.11639449762E+03  0.97515029254E+02 0.  0.
        -13    1    3    3    0    0  0.27897300484E+02 -0.13907068065E+02 -0.57210955560E+02  0.65151817723E+02  0.00000000000E+00 0. -1.
         13    1    3    3    0    0 -0.32935111439E+02  0.15638860641E+02  0.12821960304E+02  0.38648391864E+02  0.00000000000E+00 0.  1.
        -13    1    4    4    0    0 -0.18858744406E+02  0.35202056683E+02  0.14711397767E+01  0.39962498515E+02  0.00000000000E+00 0.  1.
         13    1    4    4    0    0  0.48385908265E+02 -0.20049605371E+02 -0.55665677875E+02  0.76431999106E+02  0.00000000000E+00 0. -1.
          1    1    1    2  501    0 -0.24489352904E+02 -0.16884243888E+02 -0.52986980637E+02  0.60765337277E+02  0.00000000000E+00 0. -1.
<scales pt_clust_5="13000.00000" pt_clust_6="13000.00000" pt_clust_7="13000.00000" pt_clust_8="13000.00000" pt_clust_9="29.74571"></scales>
<clustering>
<clus scale="   29.746">  1  9  2 -1</clus>
<clus scale="   93.679">  5  6 -1 -1</clus>
<clus scale="   95.432">  2  5  1 -1</clus>
<clus scale="   97.515">  7  8 -1 -1</clus>
<clus scale="   29.746">  1  5  2 -1</clus>
</clustering>
</event>
<event>
 9    1  0.1399746E-005  0.1101770E+03  0.7546771E-02  0.1261258E+00
         21   -1    0    0  501  502  0.00000000000E+00  0.00000000000E+00  0.15185464319E+03  0.15185464319E+03  0.00000000000E+00 0. -1.
         -1   -1    0    0    0  501 -0.00000000000E+00 -0.00000000000E+00 -0.12289244688E+03  0.12289244688E+03  0.00000000000E+00 0.  1.
         23    2    1    2    0    0  0.50976770850E+02 -0.25148117808E+02 -0.76051160766E+01  0.10840105512E+03  0.91988542578E+02 0.  0.
         23    2    1    2    0    0 -0.61252490817E+02 -0.88757094900E+01 -0.31674104324E+01  0.11303506569E+03  0.94531728735E+02 0.  0.
        -11    1    3    3    0    0 -0.45819548340E+01  0.23872571658E+02  0.17739600907E+02  0.30092979713E+02  0.00000000000E+00 0. -1.
         11    1    3    3    0    0  0.55558725684E+02 -0.49020689466E+02 -0.25344716983E+02  0.78308075410E+02  0.00000000000E+00 0.  1.
        -13    1    4    4    0    0 -0.35053492751E+02  0.42574593922E+02  0.89537248375E+00  0.55155644258E+02  0.00000000000E+00 0. -1.
         13    1    4    4    0    0 -0.26198998065E+02 -0.51450303412E+02 -0.40627829161E+01  0.57879421436E+02  0.00000000000E+00 0.  1.
         -1    1    1    2    0  502  0.10275719966E+02  0.34023827299E+02  0.39734722825E+02  0.53310969255E+02  0.00000000000E+00 0.  1.
<scales pt_clust_5="13000.00000" pt_clust_6="13000.00000" pt_clust_7="13000.00000" pt_clust_8="13000.00000" pt_clust_9="35.54168"></scales>
<clustering>
<clus scale="   35.542">  1  9  2 -1</clus>
<clus scale="   91.989">  5  6 -1 -1</clus>
<clus scale="   94.532">  7  8 -1 -1</clus>
<clus scale="  108.003">  2  5  1 -1</clus>
<clus scale="   35.542">  1  5  2 -1</clus>
</clustering>
</event>
<event>
 9    1  0.1399746E-005  0.3091030E+03  0.7546771E-02  0.1080926E+00
         21   -1    0    0  501  502  0.00000000000E+00  0.00000000000E+00  0.50139705357E+02  0.50139705357E+02  0.00000000000E+00 0. -1.
          2   -1    0    0  502    0 -0.00000000000E+00 -0.00000000000E+00 -0.23192980567E+04  0.23192980567E+04  0.00000000000E+00 0. -1.
         23    2    1    2    0    0  0.18641379831E+03  0.23932914852E+03 -0.15293929621E+04  0.15619103214E+04  0.92154621014E+02 0.  0.
         23    2    1    2    0    0 -0.17521070482E+03 -0.21875776470E+03 -0.71712047993E+03  0.77494703158E+03  0.87905450979E+02 0.  0.
        -13    1    3    3    0    0  0.60348421209E+02  0.20684324890E+02 -0.35758653332E+03  0.36323257295E+03  0.00000000000E+00 0.  1.
         13    1    3    3    0    0  0.12606537710E+03  0.21864482363E+03 -0.11718064287E+04  0.11986777484E+04  0.00000000000E+00 0. -1.
        -13    1    4    4    0    0 -0.15055787873E+03 -0.12718606142E+03 -0.52293577544E+03  0.55884326452E+03  0.00000000000E+00 0.  1.
         13    1    4    4    0    0 -0.24652826087E+02 -0.91571703286E+02 -0.19418470450E+03  0.21610376706E+03  0.00000000000E+00 0. -1.
          2    1    1    2  501    0 -0.11203093487E+02 -0.20571383821E+02 -0.22644909345E+02  0.32580409071E+02  0.00000000000E+00 0. -1.
<scales pt_clust_5="13000.00000" pt_clust_6="13000.00000" pt_clust_7="13000.00000" pt_clust_8="13000.00000" pt_clust_9="23.42416"></scales>
<clustering>
<clus scale="   23.424">  1  9  2 -1</clus>
<clus scale="   87.905">  7  8 -1 -1</clus>
<clus scale="   92.155">  5  6 -1 -1</clus>
<clus scale="  307.863">  1  7  2 -1</clus>
<clus scale="   23.424">  1  5  2 -1</clus>
</clustering>
</event>
<event>
 9    1  0.1399746E-005  0.1188479E+03  0.7546771E-02  0.1245125E+00
         21   -1    0    0  501  502  0.00000000000E+00  0.00000000000E+00  0.17883863023E+03  0.17883863023E+03  0.00000000000E+00 0. -1.
         -4   -1    0    0    0  501 -0.00000000000E+00 -0.00000000000E+00 -0.10824919116E+03  0.10824919116E+03  0.00000000000E+00 0.  1.
         23    2    1    2    0    0 -0.60716708631E+02 -0.30491131851E+02 -0.13669267620E+01  0.11503702721E+03  0.92819293853E+02 0.  0.
         23    2    1    2    0    0  0.84920037916E+02  0.21237835046E+02  0.71721552867E+02  0.14613786715E+03  0.92465326426E+02 0.  0.
        -11    1    3    3    0    0 -0.15595595831E+02 -0.34803410711E+02 -0.40154741860E+02  0.55379628929E+02  0.00000000000E+00 0.  1.
         11    1    3    3    0    0 -0.45121112800E+02  0.43122788597E+01  0.38787815098E+02  0.59657398279E+02  0.00000000000E+00 0. -1.
        -13    1    4    4    0    0  0.87406695729E+02 -0.28583436539E+01  0.21016236629E+02  0.89943219804E+02  0.00000000000E+00 0.  1.
         13    1    4    4    0    0 -0.24866578126E+01  0.24096178700E+02  0.50705316238E+02  0.56194647341E+02  0.00000000000E+00 0. -1.
         -4    1    1    2    0  502 -0.24203329285E+02  0.92532968047E+01  0.23481296240E+00  0.25912927032E+02  0.00000000000E+00 0.  1.
<scales pt_clust_5="13000.00000" pt_clust_6="13000.00000" pt_clust_7="13000.00000" pt_clust_8="13000.00000" pt_clust_9="25.91188"></scales>
<clustering>
<clus scale="   25.912">  1  9  2 -1</clus>
<clus scale="   92.465">  7  8 -1 -1</clus>
<clus scale="   92.819">  5  6 -1 -1</clus>
<clus scale="  118.572">  1  7  2 -1</clus>
<clus scale="   25.912">  1  5  2 -1</clus>
</clustering>
</event>
<event>
 9    1  0.1399746E-005  0.1124442E+03  0.7546771E-02  0.1257099E+00
         21   -1    0    0  501  502  0.00000000000E+00  0.00000000000E+00  0.32529199464E+03  0.32529199464E+03  0.00000000000E+00 0. -1.
          2   -1    0    0  502    0 -0.00000000000E+00 -0.00000000000E+00 -0.83569317398E+02  0.83569317398E+02  0.00000000000E+00 0. -1.
         23    2    1    2    0    0 -0.32517196920E+02  0.49706631706E+02 -0.93144891726E+01  0.10981907209E+03  0.91898593870E+02 0.  0.
         23    2    1    2    0    0  0.61973849621E+02 -0.58759967064E+02  0.15504334696E+03  0.19822324053E+03  0.89221756788E+02 0.  0.
        -11    1    3    3    0    0  0.15231694307E+02  0.55215041580E+02 -0.19836830053E+02  0.60615222137E+02  0.00000000000E+00 0. -1.
         11    1    3    3    0    0 -0.47748891226E+02 -0.55084098739E+01  0.10522340881E+02  0.49203849954E+02  0.00000000000E+00 0.  1.
        -11    1    4    4    0    0  0.53975081596E+00 -0.27557099581E+02  0.11557468325E+03  0.11881579220E+03  0.00000000000E+00 0.  1.
         11    1    4    4    0    0  0.61434098805E+02 -0.31202867483E+02  0.39468663709E+02  0.79407448329E+02  0.00000000000E+00 0. -1.
          2    1    1    2  501    0 -0.29456652701E+02  0.90533353582E+01  0.95993819456E+02  0.10081899942E+03  0.00000000000E+00 0. -1.
<scales pt_clust_5="13000.00000" pt_clust_6="13000.00000" pt_clust_7="13000.00000" pt_clust_8="13000.00000" pt_clust_9="30.81651"></scales>
<clustering>
<clus scale="   30.817">  1  9  2 -1</clus>
<clus scale="   89.222">  7  8 -1 -1</clus>
<clus scale="   91.899">  5  6 -1 -1</clus>
<clus scale="  110.267">  1  7  2 -1</clus>
<clus scale="   30.817">  1  5  2 -1</clus>
</clustering>
</event>
<event>
 9    1  0.1399746E-005  0.9425395E+02  0.7546771E-02  0.1294964E+00
         21   -1    0    0  501  502  0.00000000000E+00  0.00000000000E+00  0.13816762012E+03  0.13816762012E+03  0.00000000000E+00 0. -1.
         -3   -1    0    0    0  501 -0.00000000000E+00 -0.00000000000E+00 -0.14730683721E+03  0.14730683721E+03  0.00000000000E+00 0.  1.
         23    2    1    2    0    0 -0.16428543343E+02 -0.60773583768E+01 -0.86246463091E+02  0.12694526927E+03  0.91486707627E+02 0.  0.
         23    2    1    2    0    0  0.28802705810E+02  0.28142739709E+02  0.23687591943E+02  0.99421994003E+02  0.87761160083E+02 0.  0.
        -11    1    4    4    0    0 -0.37245230470E+01  0.48664356799E+02  0.34146144651E+02  0.59565517618E+02  0.00000000000E+00 0. -1.
         11    1    4    4    0    0  0.32527228857E+02 -0.20521617089E+02 -0.10458552707E+02  0.39856476385E+02  0.00000000000E+00 0.  1.
        -13    1    3    3    0    0 -0.26837026870E+01  0.42536626794E+02 -0.40276303467E+02  0.58640834749E+02  0.00000000000E+00 0. -1.
         13    1    3    3    0    0 -0.13744840656E+02 -0.48613985171E+02 -0.45970159624E+02  0.68304434518E+02  0.00000000000E+00 0.  1.
         -3    1    1    2    0  502 -0.12374162468E+02 -0.22065381333E+02  0.53419654055E+02  0.59107194059E+02  0.00000000000E+00 0.  1.
<scales pt_clust_5="13000.00000" pt_clust_6="13000.00000" pt_clust_7="13000.00000" pt_clust_8="13000.00000" pt_clust_9="25.29824"></scales>
<clustering>
<clus scale="   25.298">  1  9  2 -1</clus>
<clus scale="   87.761">  5  6 -1 -1</clus>
<clus scale="   90.642">  1  5  2 -1</clus>
<clus scale="   91.487">  7  8 -1 -1</clus>
<clus scale="   25.298">  1  5  2 -1</clus>
</clustering>
</event>
<event>
 9    1  0.1399746E-005  0.9900253E+02  0.7546771E-02  0.1283894E+00
         21   -1    0    0  501  502  0.00000000000E+00  0.00000000000E+00  0.46712641738E+02  0.46712641738E+02  0.00000000000E+00 0. -1.
          1   -1    0    0  502    0 -0.00000000000E+00 -0.00000000000E+00 -0.40477855532E+03  0.40477855532E+03  0.00000000000E+00 0. -1.
         23    2    1    2    0    0 -0.48594790426E+02 -0.29386481515E+00 -0.25937755440E+03  0.27913612448E+03  0.90987473012E+02 0.  0.
         23    2    1    2    0    0  0.19123320517E+02  0.21682579613E+02 -0.99494803425E+02  0.13593124780E+03  0.87990070880E+02 0.  0.
        -11    1    4    4    0    0 -0.33894812953E+01 -0.30191303139E+02 -0.59052244657E+02  0.66409118107E+02  0.00000000000E+00 0.  1.
         11    1    4    4    0    0  0.22512801812E+02  0.51873882752E+02 -0.40442558768E+02  0.69522129692E+02  0.00000000000E+00 0. -1.
        -13    1    3    3    0    0 -0.19337474355E+02  0.36433532546E+02 -0.19580428832E+03  0.20010162302E+03  0.00000000000E+00 0.  1.
         13    1    3    3    0    0 -0.29257316071E+02 -0.36727397361E+02 -0.63573266083E+02  0.79034501460E+02  0.00000000000E+00 0. -1.
          1    1    1    2  501    0  0.29471469909E+02 -0.21388714798E+02  0.80644425146E+00  0.36423824780E+02  0.00000000000E+00 0. -1.
<scales pt_clust_5="13000.00000" pt_clust_6="13000.00000" pt_clust_7="13000.00000" pt_clust_8="13000.00000" pt_clust_9="36.41490"></scales>
<clustering>
<clus scale="   36.415">  1  9  2 -1</clus>
<clus scale="   87.990">  5  6 -1 -1</clus>
<clus scale="   90.987">  7  8 -1 -1</clus>
<clus scale="   96.255">  1  5  2 -1</clus>
<clus scale="   36.415">  1  5  2 -1</clus>
</clustering>
</event>
<event>
 9    1  0.1399746E-005  0.1105660E+03  0.7546771E-02  0.1266624E+00
         21   -1    0    0  501  502  0.00000000000E+00  0.00000000000E+00  0.37981183472E+03  0.37981183472E+03  0.00000000000E+00 0. -1.
         -3   -1    0    0    0  501 -0.00000000000E+00 -0.00000000000E+00 -0.63346064409E+02  0.63346064409E+02  0.00000000000E+00 0.  1.
         23    2    1    2    0    0 -0.22276865142E+02 -0.10403881351E+02  0.72538638588E+01  0.95022157728E+02  0.91499139070E+02 0.  0.
         23    2    1    2    0    0  0.45413916984E+02  0.18182135518E+02  0.16796688775E+03  0.20479705257E+03  0.10647038769E+03 0.  0.
        -11    1    4    4    0    0 -0.43651186610E+01  0.38251640290E+02  0.12740152637E+02  0.40553097724E+02  0.00000000000E+00 0.  1.
         11    1    4    4    0    0  0.49779035645E+02 -0.20069504772E+02  0.15522673511E+03  0.16424395485E+03  0.00000000000E+00 0. -1.
        -13    1    3    3    0    0  0.35833933321E+02 -0.70217725749E+01  0.18388627726E+01  0.36561694211E+02  0.00000000000E+00 0. -1.
         13    1    3    3    0    0 -0.58110798463E+02 -0.33821087757E+01  0.54150010863E+01  0.58460463516E+02  0.00000000000E+00 0.  1.
         -3    1    1    2    0  502 -0.23137051842E+02 -0.77782541671E+01  0.14124501870E+03  0.14333868882E+03  0.00000000000E+00 0.  1.
<scales pt_clust_5="13000.00000" pt_clust_6="13000.00000" pt_clust_7="13000.00000" pt_clust_8="13000.00000" pt_clust_9="24.40951"></scales>
<clustering>
<clus scale="   24.410">  1  9  2 -1</clus>
<clus scale="   91.499">  7  8 -1 -1</clus>
<clus scale="   96.234">  2  7  1 -1</clus>
<clus scale="  106.470">  5  6 -1 -1</clus>
<clus scale="   24.410">  1  5  2 -1</clus>
</clustering>
</event>
<event>
 9    1  0.1399746E-005  0.9394842E+02  0.7546771E-02  0.1294130E+00
         21   -1    0    0  501  502  0.00000000000E+00  0.00000000000E+00  0.11656520290E+03  0.11656520290E+03  0.00000000000E+00 0. -1.
          3   -1    0    0  502    0 -0.00000000000E+00 -0.00000000000E+00 -0.30530905823E+03  0.30530905823E+03  0.00000000000E+00 0. -1.
         23    2    1    2    0    0  0.82282152809E+01  0.13915597581E+02 -0.18379279058E+03  0.20557845721E+03  0.90671742114E+02 0.  0.
         23    2    1    2    0    0  0.26112391662E+01 -0.32008934033E+02 -0.87715314917E+02  0.13088629800E+03  0.91683455999E+02 0.  0.
        -11    1    3    3    0    0 -0.27417981345E+02 -0.23489969517E+02 -0.46407090764E+02  0.58797469692E+02  0.00000000000E+00 0.  1.
         11    1    3    3    0    0  0.35646196626E+02  0.37405567097E+02 -0.13738569981E+03  0.14678098752E+03  0.00000000000E+00 0. -1.
        -11    1    4    4    0    0 -0.25809189813E+02 -0.42177226843E+02 -0.14246838521E+02  0.51458771369E+02  0.00000000000E+00 0.  1.
         11    1    4    4    0    0  0.28420428979E+02  0.10168292810E+02 -0.73468476396E+02  0.79427526626E+02  0.00000000000E+00 0. -1.
          3    1    1    2  501    0 -0.10839454447E+02  0.18093336452E+02  0.82764250166E+02  0.85409505924E+02  0.00000000000E+00 0. -1.
<scales pt_clust_5="13000.00000" pt_clust_6="13000.00000" pt_clust_7="13000.00000" pt_clust_8="13000.00000" pt_clust_9="21.09177"></scales>
<clustering>
<clus scale="   21.092">  1  9  2 -1</clus>
<clus scale="   90.672">  5  6 -1 -1</clus>
<clus scale="   91.683">  7  8 -1 -1</clus>
<clus scale="   92.961">  2  5  1 -1</clus>
<clus scale="   21.092">  1  5  2 -1</clus>
</clustering>
</event>
<event>
 9    1  0.1399746E-005  0.1165690E+03  0.7546771E-02  0.1249297E+00
         21   -1    0    0  501  502  0.00000000000E+00  0.00000000000E+00  0.71375147722E+02  0.71375147722E+02  0.00000000000E+00 0.  1.
          2   -1    0    0  502    0 -0.00000000000E+00 -0.00000000000E+00 -0.30606160213E+03  0.30606160213E+03  0.00000000000E+00 0. -1.
         23    2    1    2    0    0  0.65564193173E+02 -0.74315382991E+02 -0.13092374686E+03  0.18734181298E+03  0.90191395502E+02 0.  0.
         23    2    1    2    0    0 -0.46872944996E+02  0.20984773826E+02 -0.63666873052E+02  0.12080429843E+03  0.88897548274E+02 0.  0.
        -11    1    4    4    0    0  0.21865890209E+02  0.25713657210E+02 -0.21750038383E+02  0.40154370764E+02  0.00000000000E+00 0.  1.
         11    1    4    4    0    0 -0.68738835206E+02 -0.47288833835E+01 -0.41916834668E+02  0.80649927663E+02  0.00000000000E+00 0. -1.
        -11    1    3    3    0    0  0.49209215131E+02 -0.90307066219E+02 -0.12812802839E+03  0.16429761021E+03  0.00000000000E+00 0.  1.
         11    1    3    3    0    0  0.16354978042E+02  0.15991683228E+02 -0.27957184674E+01  0.23044202763E+02  0.00000000000E+00 0. -1.
          2    1    1    2  501    0 -0.18691248177E+02  0.53330609165E+02 -0.40095834496E+02  0.69290638446E+02  0.00000000000E+00 0. -1.
<scales pt_clust_5="13000.00000" pt_clust_6="13000.00000" pt_clust_7="13000.00000" pt_clust_8="13000.00000" pt_clust_9="56.51121"></scales>
<clustering>
<clus scale="   56.511">  1  9  2 -1</clus>
<clus scale="   88.898">  5  6 -1 -1</clus>
<clus scale="   90.191">  7  8 -1 -1</clus>
<clus scale="  115.571">  1  5  2 -1</clus>
<clus scale="   56.511">  1  5  2 -1</clus>
</clustering>
</event>
<event>
 9    1  0.1399746E-005  0.1234309E+03  0.7546771E-02  0.1238446E+00
         21   -1    0    0  501  502  0.00000000000E+00  0.00000000000E+00  0.79601899275E+02  0.79601899275E+02  0.00000000000E+00 0.  1.
          2   -1    0    0  502    0 -0.00000000000E+00 -0.00000000000E+00 -0.27721400945E+03  0.27721400945E+03  0.00000000000E+00 0. -1.
         23    2    1    2    0    0  0.71816281193E+02 -0.22807090047E+02 -0.14648041181E+03  0.18729959846E+03  0.89145313605E+02 0.  0.
         23    2    1    2    0    0 -0.88436486254E+02  0.42789019351E+02 -0.49308653611E+02  0.14346190167E+03  0.92184931699E+02 0.  0.
        -11    1    4    4    0    0  0.11530540597E+01 -0.20696725872E+02  0.44562061899E+01  0.21202400079E+02  0.00000000000E+00 0.  1.
         11    1    4    4    0    0 -0.89589540314E+02  0.63485745224E+02 -0.53764859801E+02  0.12225950159E+03  0.00000000000E+00 0. -1.
        -13    1    3    3    0    0  0.69679852391E+02  0.95078909385E+01 -0.13626318541E+03  0.15334059318E+03  0.00000000000E+00 0. -1.
         13    1    3    3    0    0  0.21364288015E+01 -0.32314980985E+02 -0.10217226403E+02  0.33959005278E+02  0.00000000000E+00 0.  1.
          2    1    1    2  501    0  0.16620205061E+02 -0.19981929304E+02 -0.18230447506E+01  0.26054408594E+02  0.00000000000E+00 0. -1.
<scales pt_clust_5="13000.00000" pt_clust_6="13000.00000" pt_clust_7="13000.00000" pt_clust_8="13000.00000" pt_clust_9="25.99055"></scales>
<clustering>
<clus scale="   25.991">  1  9  2 -1</clus>
<clus scale="   89.145">  7  8 -1 -1</clus>
<clus scale="   92.185">  5  6 -1 -1</clus>
<clus scale="  121.178">  2  7  1 -1</clus>
<clus scale="   25.991">  1  5  2 -1</clus>
</clustering>
</event>
<event>
 9    1  0.1399746E-005  0.9518234E+02  0.7546771E-02  0.1291066E+00
         -1   -1    0    0    0  501 -0.00000000000E+00  0.00000000000E+00  0.11505474683E+03  0.11505474683E+03  0.00000000000E+00 0.  1.
         21   -1    0    0  501  502  0.00000000000E+00 -0.00000000000E+00 -0.14049737417E+03  0.14049737417E+03  0.00000000000E+00 0. -1.
         23    2    1    2    0    0 -0.14323831661E+02 -0.37714520949E+02  0.36610725303E+02  0.10630191807E+03  0.91280859622E+02 0.  0.
         23    2    1    2    0    0  0.11227184566E+02 -0.62423521973E+01 -0.43633823642E+02  0.10148960235E+03  0.90726028153E+02 0.  0.
        -11    1    4    4    0    0  0.49973910619E+02  0.72416973542E+01 -0.26531367328E+02  0.57041628443E+02  0.00000000000E+00 0.  1.
         11    1    4    4    0    0 -0.38746726053E+02 -0.13484049551E+02 -0.17102456314E+02  0.44447973903E+02  0.00000000000E+00 0. -1.
        -11    1    3    3    0    0 -0.49858295685E+02 -0.13248712249E+02  0.36437510317E+02  0.63159086306E+02  0.00000000000E+00 0. -1.
         11    1    3    3    0    0  0.35534464024E+02 -0.24465808700E+02  0.17321498575E+00  0.43142831760E+02  0.00000000000E+00 0.  1.
         -1    1    1    2    0  502  0.30966470948E+01  0.43956873146E+02 -0.18419529006E+02  0.47760600591E+02  0.00000000000E+00 0.  1.
<scales pt_clust_5="13000.00000" pt_clust_6="13000.00000" pt_clust_7="13000.00000" pt_clust_8="13000.00000" pt_clust_9="44.06581"></scales>
<clustering>
<clus scale="   44.066">  2  9  1 -1</clus>
<clus scale="   90.726">  5  6 -1 -1</clus>
<clus scale="   91.281">  7  8 -1 -1</clus>
<clus scale="   94.650">  2  5  1 -1</clus>
<clus scale="   44.066">  2  5  1 -1</clus>
</clustering>
</event>
<event>
 9    1  0.1399746E-005  0.1756932E+03  0.7546771E-02  0.1194341E+00
         21   -1    0    0  501  502  0.00000000000E+00  0.00000000000E+00  0.77374770407E+02  0.77374770407E+02  0.00000000000E+00 0.  1.
          1   -1    0    0  502    0 -0.00000000000E+00 -0.00000000000E+00 -0.64355885680E+03  0.64355885680E+03  0.00000000000E+00 0. -1.
         23    2    1    2    0    0 -0.26663921268E+02  0.53079745653E+02 -0.18588131067E+03  0.21433219439E+03  0.88645382274E+02 0.  0.
         23    2    1    2    0    0  0.14969258699E+03  0.42892342703E+02 -0.18743219303E+03  0.25851726161E+03  0.86329160243E+02 0.  0.
        -11    1    3    3    0    0  0.10015289649E+02  0.47311917091E+02 -0.16455371047E+03  0.17151281922E+03  0.00000000000E+00 0.  1.
         11    1    3    3    0    0 -0.36679210917E+02  0.57678285620E+01 -0.21327600200E+02  0.42819375172E+02  0.00000000000E+00 0. -1.
        -11    1    4    4    0    0  0.76880511442E+02  0.42733957086E+02 -0.15625491468E+03  0.17931091012E+03  0.00000000000E+00 0. -1.
         11    1    4    4    0    0  0.72812075547E+02  0.15838561701E+00 -0.31177278347E+02  0.79206351491E+02  0.00000000000E+00 0.  1.
          1    1    1    2  501    0 -0.12302866572E+03 -0.95972088356E+02 -0.19287058269E+03  0.24808417120E+03  0.00000000000E+00 0. -1.
<scales pt_clust_5="13000.00000" pt_clust_6="13000.00000" pt_clust_7="13000.00000" pt_clust_8="13000.00000" pt_clust_9="153.02086"></scales>
<clustering>
<clus scale="   86.329">  7  8 -1 -1</clus>
<clus scale="   88.645">  5  6 -1 -1</clus>
<clus scale="  106.707">  2  5  1 -1</clus>
<clus scale="  153.021">  1  9  2 -1</clus>
<clus scale="  153.021">  1  5  2 -1</clus>
</clustering>
</event>
<event>
 9    1  0.1399746E-005  0.9787976E+02  0.7546771E-02  0.1285084E+00
         -1   -1    0    0    0  501 -0.00000000000E+00  0.00000000000E+00  0.15560848335E+03  0.15560848335E+03  0.00000000000E+00 0.  1.
         21   -1    0    0  501  502  0.00000000000E+00 -0.00000000000E+00 -0.83901249537E+02  0.83901249537E+02  0.00000000000E+00 0.  1.
         23    2    1    2    0    0  0.65842638410E+01 -0.35265664500E+02  0.52312697559E+02  0.11173446431E+03  0.91983436362E+02 0.  0.
         23    2    1    2    0    0  0.14123440661E+02  0.31044954837E+02  0.32529253551E+02  0.10289265992E+03  0.91463032592E+02 0.  0.
        -11    1    3    3    0    0  0.43797294807E+02 -0.40100468285E+02  0.21416382541E+02  0.63126159635E+02  0.00000000000E+00 0.  1.
         11    1    3    3    0    0 -0.37213030966E+02  0.48348037857E+01  0.30896315018E+02  0.48608304671E+02  0.00000000000E+00 0. -1.
        -11    1    4    4    0    0  0.41529937316E+02 -0.14488940779E+02  0.19844753749E+02  0.48254319493E+02  0.00000000000E+00 0.  1.
         11    1    4    4    0    0 -0.27406496655E+02  0.45533895616E+02  0.12684499803E+02  0.54638340423E+02  0.00000000000E+00 0. -1.
         -1    1    1    2    0  502 -0.20707704502E+02  0.42207096623E+01 -0.13134717293E+02  0.24882608669E+02  0.00000000000E+00 0.  1.
<scales pt_clust_5="13000.00000" pt_clust_6="13000.00000" pt_clust_7="13000.00000" pt_clust_8="13000.00000" pt_clust_9="21.13347"></scales>
<clustering>
<clus scale="   21.133">  2  9  1 -1</clus>
<clus scale="   91.463">  7  8 -1 -1</clus>
<clus scale="   91.983">  5  6 -1 -1</clus>
<clus scale="   97.391">  2  7  1 -1</clus>
<clus scale="   21.133">  2  5  1 -1</clus>
</clustering>
</event>
<event>
 9    1  0.1399746E-005  0.1397846E+03  0.7546771E-02  0.1230817E+00
         21   -1    0    0  501  502  0.00000000000E+00  0.00000000000E+00  0.13576894324E+04  0.13576894324E+04  0.00000000000E+00 0. -1.
          1   -1    0    0  502    0 -0.00000000000E+00 -0.00000000000E+00 -0.39224381361E+02  0.39224381361E+02  0.00000000000E+00 0. -1.
         23    2    1    2    0    0 -0.16097116307E+02  0.15364688962E+02  0.63868293816E+02  0.11659489592E+03  0.94973785746E+02 0.  0.
         23    2    1    2    0    0 -0.94691616636E+02 -0.12659901289E+02  0.48075432216E+03  0.49858138291E+03  0.91279251443E+02 0.  0.
        -11    1    3    3    0    0 -0.45386212566E+02 -0.19441506062E+02  0.46734764502E+02  0.67985429778E+02  0.00000000000E+00 0. -1.
         11    1    3    3    0    0  0.29289096259E+02  0.34806195024E+02  0.17133529315E+02  0.48609466141E+02  0.00000000000E+00 0.  1.
        -11    1    4    4    0    0 -0.77756151376E+01 -0.31277010079E+02  0.55874905110E+02  0.64503616730E+02  0.00000000000E+00 0.  1.
         11    1    4    4    0    0 -0.86916001498E+02  0.18617108790E+02  0.42487941705E+03  0.43407776618E+03  0.00000000000E+00 0. -1.
          1    1    1    2  501    0  0.11078873294E+03 -0.27047876735E+01  0.77384243506E+03  0.78173753493E+03  0.00000000000E+00 0. -1.
<scales pt_clust_5="13000.00000" pt_clust_6="13000.00000" pt_clust_7="13000.00000" pt_clust_8="13000.00000" pt_clust_9="105.86703"></scales>
<clustering>
<clus scale="   91.279">  7  8 -1 -1</clus>
<clus scale="   94.974">  5  6 -1 -1</clus>
<clus scale="   97.546">  2  5  1 -1</clus>
<clus scale="  105.867">  1  9  2 -1</clus>
<clus scale="  105.867">  1  5  2 -1</clus>
</clustering>
</event>
<event>
 9    1  0.1399746E-005  0.2026650E+03  0.7546771E-02  0.1167745E+00
          1   -1    0    0  502    0 -0.00000000000E+00  0.00000000000E+00  0.66647389031E+03  0.66647389031E+03  0.00000000000E+00 0. -1.
         21   -1    0    0  501  502  0.00000000000E+00 -0.00000000000E+00 -0.20377868209E+03  0.20377868209E+03  0.00000000000E+00 0. -1.
         23    2    1    2    0    0 -0.35604288526E+02 -0.68141979870E+02  0.35321405844E+03  0.37510892141E+03  0.10017752772E+03 0.  0.
         23    2    1    2    0    0  0.19072030488E+03 -0.27765493007E+02  0.19979787787E+03  0.29163361867E+03  0.89363405470E+02 0.  0.
        -11    1    4    4    0    0  0.14041887758E+03 -0.47087451465E+02  0.18251385658E+03  0.23504467046E+03  0.00000000000E+00 0. -1.
         11    1    4    4    0    0  0.50301427298E+02  0.19321958458E+02  0.17284021290E+02  0.56588948204E+02  0.00000000000E+00 0.  1.
        -13    1    3    3    0    0 -0.35572571604E+02  0.13856147928E+02  0.64250048116E+02  0.74735997811E+02  0.00000000000E+00 0.  1.
         13    1    3    3    0    0 -0.31716921331E-01 -0.81998127798E+02  0.28896401033E+03  0.30037292360E+03  0.00000000000E+00 0. -1.
          1    1    1    2  501    0 -0.15511601636E+03  0.95907472877E+02 -0.90316728096E+02  0.20351003233E+03  0.00000000000E+00 0. -1.
<scales pt_clust_5="13000.00000" pt_clust_6="13000.00000" pt_clust_7="13000.00000" pt_clust_8="13000.00000" pt_clust_9="181.89908"></scales>
<clustering>
<clus scale="   89.363">  5  6 -1 -1</clus>
<clus scale="  100.178">  7  8 -1 -1</clus>
<clus scale="  126.280">  1  7  2 -1</clus>
<clus scale="  181.899">  2  9  1 -1</clus>
<clus scale="  181.899">  2  5  1 -1</clus>
</clustering>
</event>
<event>
 9    1  0.1399746E-005  0.1077460E+03  0.7546771E-02  0.1267294E+00
         21   -1    0    0  501  502  0.00000000000E+00  0.00000000000E+00  0.10617421020E+03  0.10617421020E+03  0.00000000000E+00 0. -1.
          1   -1    0    0  502    0 -0.00000000000E+00 -0.00000000000E+00 -0.72561738275E+03  0.72561738275E+03  0.00000000000E+00 0. -1.
         23    2    1    2    0    0 -0.47964984499E+01  0.56146858759E+02 -0.59815052421E+03  0.60739081206E+03  0.89241654078E+02 0.  0.
         23    2    1    2    0    0 -0.64399900563E+02 -0.95038717000E+01 -0.62776991464E+02  0.13120925443E+03  0.95064436159E+02 0.  0.
        -13    1    3    3    0    0 -0.61460751954E+01  0.80420353733E+02 -0.48470321579E+03  0.49136790181E+03  0.00000000000E+00 0. -1.
         13    1    3    3    0    0  0.13495767455E+01 -0.24273494974E+02 -0.11344730842E+03  0.11602291025E+03  0.00000000000E+00 0.  1.
        -13    1    4    4    0    0 -0.49686959981E+02  0.28871545800E+02 -0.68831169480E+02  0.89666549175E+02  0.00000000000E+00 0. -1.
         13    1    4    4    0    0 -0.14712940582E+02 -0.38375417500E+02  0.60541780155E+01  0.41542705260E+02  0.00000000000E+00 0.  1.
          1    1    1    2  501    0  0.69196399013E+02 -0.46642987059E+02  0.41484343126E+02  0.93191526453E+02  0.00000000000E+00 0. -1.
<scales pt_clust_5="13000.00000" pt_clust_6="13000.00000" pt_clust_7="13000.00000" pt_clust_8="13000.00000" pt_clust_9="83.44885"></scales>
<clustering>
<clus scale="   83.449">  1  9  2 -1</clus>
<clus scale="   89.242">  5  6 -1 -1</clus>
<clus scale="   95.064">  7  8 -1 -1</clus>
<clus scale="  102.645">  2  5  1 -1</clus>
<clus scale="   83.449">  1  5  2 -1</clus>
</clustering>
</event>
<event>
 9    1  0.1399746E-005  0.9760751E+02  0.7546771E-02  0.1286235E+00
          4   -1    0    0  502    0 -0.00000000000E+00  0.00000000000E+00  0.31143737987E+03  0.31143737987E+03  0.00000000000E+00 0. -1.
         21   -1    0    0  501  502  0.00000000000E+00 -0.00000000000E+00 -0.16445981287E+03  0.16445981287E+03  0.00000000000E+00 0. -1.
         23    2    1    2    0    0  0.32354524527E+02 -0.23579239070E+02  0.26517065140E+03  0.28309340560E+03  0.90684100899E+02 0.  0.
         23    2    1    2    0    0 -0.80100453411E+01  0.76617399729E+01 -0.22128917600E+02  0.92432752533E+02  0.89057631122E+02 0.  0.
        -11    1    3    3    0    0  0.63793812038E+02 -0.22290094659E+02  0.17533113769E+03  0.18790291807E+03  0.00000000000E+00 0. -1.
         11    1    3    3    0    0 -0.31439287511E+02 -0.12891444108E+01  0.89839513710E+02  0.95190487530E+02  0.00000000000E+00 0.  1.
        -11    1    4    4    0    0 -0.36135372711E+02 -0.15709320965E+02  0.13231148108E+02  0.41564542658E+02  0.00000000000E+00 0.  1.
         11    1    4    4    0    0  0.28125327370E+02  0.23371060937E+02 -0.35360065708E+02  0.50868209875E+02  0.00000000000E+00 0. -1.
          4    1    1    2  501    0 -0.24344479186E+02  0.15917499097E+02 -0.96064166799E+02  0.10037103460E+03  0.00000000000E+00 0. -1.
<scales pt_clust_5="13000.00000" pt_clust_6="13000.00000" pt_clust_7="13000.00000" pt_clust_8="13000.00000" pt_clust_9="29.08643"></scales>
<clustering>
<clus scale="   29.086">  2  9  1 -1</clus>
<clus scale="   89.058">  7  8 -1 -1</clus>
<clus scale="   90.684">  5  6 -1 -1</clus>
<clus scale="   96.098">  2  7  1 -1</clus>
<clus scale="   29.086">  2  5  1 -1</clus>
</clustering>
</event>
<event>
 9    1  0.1399746E-005  0.1680918E+03  0.7546771E-02  0.1189097E+00
         -1   -1    0    0    0  501 -0.00000000000E+00  0.00000000000E+00  0.42775997735E+03  0.42775997735E+03  0.00000000000E+00 0.  1.
         21   -1    0    0  501  502  0.00000000000E+00 -0.00000000000E+00 -0.25481065565E+03  0.25481065565E+03  0.00000000000E+00 0.  1.
         23    2    1    2    0    0  0.43716489737E+02 -0.92705353863E+02  0.28630431168E+03  0.31729538113E+03  0.90558190650E+02 0.  0.
         23    2    1    2    0    0  0.10636069992E+03  0.99131061188E+02  0.88949211594E+01  0.17160157441E+03  0.90710610938E+02 0.  0.
        -11    1    3    3    0    0 -0.23692066339E+02 -0.22110567601E+02  0.34992209018E+02  0.47693247939E+02  0.00000000000E+00 0. -1.
         11    1    3    3    0    0  0.67408556076E+02 -0.70594786262E+02  0.25131210266E+03  0.26960213319E+03  0.00000000000E+00 0.  1.
        -11    1    4    4    0    0 -0.13878263664E+02  0.21763282575E+02 -0.93703464987E+01  0.27459972037E+02  0.00000000000E+00 0. -1.
         11    1    4    4    0    0  0.12023896358E+03  0.77367778614E+02  0.18265267658E+02  0.14414160237E+03  0.00000000000E+00 0.  1.
         -1    1    1    2    0  502 -0.15007718965E+03 -0.64257073256E+01 -0.12224991114E+03  0.19367367746E+03  0.00000000000E+00 0.  1.
<scales pt_clust_5="13000.00000" pt_clust_6="13000.00000" pt_clust_7="13000.00000" pt_clust_8="13000.00000" pt_clust_9="141.51485"></scales>
<clustering>
<clus scale="   90.558">  5  6 -1 -1</clus>
<clus scale="   90.711">  7  8 -1 -1</clus>
<clus scale="  136.771">  1  5  2 -1</clus>
<clus scale="  141.515">  2  9  1 -1</clus>
<clus scale="  141.515">  2  5  1 -1</clus>
</clustering>
</event>
<event>
 9    1  0.1399746E-005  0.1464545E+03  0.7546771E-02  0.1205193E+00
          1   -1    0    0  502    0 -0.00000000000E+00  0.00000000000E+00  0.59385467977E+03  0.59385467977E+03  0.00000000000E+00 0. -1.
         21   -1    0    0  501  502  0.00000000000E+00 -0.00000000000E+00 -0.43217381078E+02  0.43217381078E+02  0.00000000000E+00 0.  1.
         23    2    1    2    0    0  0.88961159107E+02 -0.84338019600E+02  0.32306130746E+03  0.35780926967E+03  0.92907888293E+02 0.  0.
         23    2    1    2    0    0 -0.73377812885E+02  0.71488614644E+02  0.21608046940E+03  0.25602284906E+03  0.91443996735E+02 0.  0.
        -11    1    3    3    0    0  0.79699506276E+02 -0.50378512218E+02  0.12461591478E+03  0.15626622159E+03  0.00000000000E+00 0.  1.
         11    1    3    3    0    0  0.92616528311E+01 -0.33959507382E+02  0.19844539268E+03  0.20154304808E+03  0.00000000000E+00 0. -1.
        -13    1    4    4    0    0  0.12997437141E+02  0.22570660846E+02  0.11180081208E+02  0.28343646891E+02  0.00000000000E+00 0. -1.
         13    1    4    4    0    0 -0.86375250026E+02  0.48917953798E+02  0.20490038819E+03  0.22767920217E+03  0.00000000000E+00 0.  1.
          1    1    1    2  501    0 -0.15583346222E+02  0.12849404956E+02  0.11495521838E+02  0.23239942115E+02  0.00000000000E+00 0. -1.
<scales pt_clust_5="13000.00000" pt_clust_6="13000.00000" pt_clust_7="13000.00000" pt_clust_8="13000.00000" pt_clust_9="20.19772"></scales>
<clustering>
<clus scale="   20.198">  2  9  1 -1</clus>
<clus scale="   91.444">  7  8 -1 -1</clus>
<clus scale="   92.908">  5  6 -1 -1</clus>
<clus scale="  145.530">  2  7  1 -1</clus>
<clus scale="   20.198">  2  5  1 -1</clus>
</clustering>
</event>
<event>
 9    1  0.1399746E-005  0.1301054E+03  0.7546771E-02  0.1227803E+00
         21   -1    0    0  501  502  0.00000000000E+00  0.00000000000E+00  0.14188395867E+03  0.14188395867E+03  0.00000000000E+00 0.  1.
          2   -1    0    0  502    0 -0.00000000000E+00 -0.00000000000E+00 -0.47546282335E+03  0.47546282335E+03  0.00000000000E+00 0. -1.
         23    2    1    2    0    0  0.34848836870E+02 -0.82568031331E+02 -0.41002818655E+03  0.42990700034E+03  0.93085949234E+02 0.  0.
         23    2    1    2    0    0 -0.57441440461E+02  0.87025289209E+02  0.39746236704E+02  0.14411069969E+03  0.91187775439E+02 0.  0.
        -11    1    3    3    0    0  0.53384910656E+02 -0.55483650252E+02 -0.37103680668E+03  0.37894154700E+03  0.00000000000E+00 0. -1.
         11    1    3    3    0    0 -0.18536073786E+02 -0.27084381079E+02 -0.38991379871E+02  0.50965453340E+02  0.00000000000E+00 0.  1.
        -11    1    4    4    0    0 -0.38110161607E+02  0.53212039517E+02  0.69221692728E+02  0.95265672262E+02  0.00000000000E+00 0.  1.
         11    1    4    4    0    0 -0.19331278854E+02  0.33813249692E+02 -0.29475456024E+02  0.48845027431E+02  0.00000000000E+00 0. -1.
          2    1    1    2  501    0  0.22592603591E+02 -0.44572578783E+01  0.36703085174E+02  0.43329081991E+02  0.00000000000E+00 0. -1.
<scales pt_clust_5="13000.00000" pt_clust_6="13000.00000" pt_clust_7="13000.00000" pt_clust_8="13000.00000" pt_clust_9="23.02809"></scales>
<clustering>
<clus scale="   23.028">  1  9  2 -1</clus>
<clus scale="   91.188">  7  8 -1 -1</clus>
<clus scale="   93.086">  5  6 -1 -1</clus>
<clus scale="  128.754">  1  7  2 -1</clus>
<clus scale="   23.028">  1  5  2 -1</clus>
</clustering>
</event>
<event>
 9    1  0.1399746E-005  0.9939300E+02  0.7546771E-02  0.1283562E+00
         21   -1    0    0  501  502  0.00000000000E+00  0.00000000000E+00  0.95411360362E+02  0.95411360362E+02  0.00000000000E+00 0.  1.
          1   -1    0    0  502    0 -0.00000000000E+00 -0.00000000000E+00 -0.23441822906E+03  0.23441822906E+03  0.00000000000E+00 0. -1.
         23    2    1    2    0    0 -0.32100247310E+02  0.30814348388E+02 -0.13892865163E+03  0.17192143582E+03  0.90971753353E+02 0.  0.
         23    2    1    2    0    0  0.31618076606E+01  0.29262195763E+01 -0.35219162642E+02  0.10124471501E+03  0.94823747618E+02 0.  0.
        -11    1    3    3    0    0  0.46895631712E+01 -0.29481090957E+02 -0.31923485441E+02  0.43706242683E+02  0.00000000000E+00 0. -1.
         11    1    3    3    0    0 -0.36789810481E+02  0.60295439345E+02 -0.10700516619E+03  0.12821519314E+03  0.00000000000E+00 0.  1.
        -13    1    4    4    0    0  0.32434639598E+02 -0.20221728168E+02 -0.48394438492E+02  0.61668029098E+02  0.00000000000E+00 0. -1.
         13    1    4    4    0    0 -0.29272831937E+02  0.23147947744E+02  0.13175275850E+02  0.39576685916E+02  0.00000000000E+00 0.  1.
          1    1    1    2  501    0  0.28938439649E+02 -0.33740567964E+02  0.35140945576E+02  0.56663438581E+02  0.00000000000E+00 0. -1.
<scales pt_clust_5="13000.00000" pt_clust_6="13000.00000" pt_clust_7="13000.00000" pt_clust_8="13000.00000" pt_clust_9="44.45064"></scales>
<clustering>
<clus scale="   44.451">  1  9  2 -1</clus>
<clus scale="   90.972">  5  6 -1 -1</clus>
<clus scale="   94.824">  7  8 -1 -1</clus>
<clus scale="   95.725">  2  5  1 -1</clus>
<clus scale="   44.451">  1  5  2 -1</clus>
</clustering>
</event>
<event>
 9    1  0.1399746E-005  0.1417392E+03  0.7546771E-02  0.1211123E+00
         21   -1    0    0  501  502  0.00000000000E+00  0.00000000000E+00  0.41152000190E+03  0.41152000190E+03  0.00000000000E+00 0.  1.
          2   -1    0    0  502    0 -0.00000000000E+00 -0.00000000000E+00 -0.78678533909E+02  0.78678533909E+02  0.00000000000E+00 0. -1.
         23    2    1    2    0    0 -0.10086039439E+03  0.95646290830E+01  0.61416594752E+02  0.14996773375E+03  0.91945754501E+02 0.  0.
         23    2    1    2    0    0  0.11329499712E+03 -0.54129129925E+02  0.17982067843E+03  0.23760554890E+03  0.91406790740E+02 0.  0.
        -11    1    4    4    0    0  0.10954779657E+03 -0.27079311909E+02  0.17732179677E+03  0.21018332112E+03  0.00000000000E+00 0.  1.
         11    1    4    4    0    0  0.37472005563E+01 -0.27049818016E+02  0.24988816640E+01  0.27422227777E+02  0.00000000000E+00 0. -1.
        -11    1    3    3    0    0 -0.84376889017E+02 -0.25039790339E+02  0.14200438521E+02  0.89152133764E+02  0.00000000000E+00 0. -1.
         11    1    3    3    0    0 -0.16483505368E+02  0.34604419422E+02  0.47216156231E+02  0.60815599989E+02  0.00000000000E+00 0.  1.
          2    1    1    2  501    0 -0.12434602739E+02  0.44564500842E+02  0.91604194804E+02  0.10262525316E+03  0.00000000000E+00 0. -1.
<scales pt_clust_5="13000.00000" pt_clust_6="13000.00000" pt_clust_7="13000.00000" pt_clust_8="13000.00000" pt_clust_9="46.26677"></scales>
<clustering>
<clus scale="   46.267">  1  9  2 -1</clus>
<clus scale="   91.407">  5  6 -1 -1</clus>
<clus scale="   91.946">  7  8 -1 -1</clus>
<clus scale="  141.390">  1  5  2 -1</clus>
<clus scale="   46.267">  1  5  2 -1</clus>
</clustering>
</event>
<event>
 9    1  0.1399746E-005  0.1115617E+03  0.7546771E-02  0.1258661E+00
         21   -1    0    0  501  502  0.00000000000E+00  0.00000000000E+00  0.23859009877E+02  0.23859009877E+02  0.00000000000E+00 0. -1.
          1   -1    0    0  502    0 -0.00000000000E+00 -0.00000000000E+00 -0.91244540824E+03  0.91244540824E+03  0.00000000000E+00 0. -1.
         23    2    1    2    0    0 -0.99111086184E+01  0.56887098202E+02 -0.46128331911E+03  0.47405983020E+03  0.92822680954E+02 0.  0.
         23    2    1    2    0    0  0.52025708311E+02 -0.53173721627E+02 -0.38520070977E+03  0.40257853234E+03  0.90309295727E+02 0.  0.
        -13    1    4    4    0    0  0.26888899688E+02  0.18007316794E+02 -0.54610390565E+02  0.63478903127E+02  0.00000000000E+00 0.  1.
         13    1    4    4    0    0  0.25136808622E+02 -0.71181038420E+02 -0.33059031921E+03  0.33909962921E+03  0.00000000000E+00 0. -1.
        -13    1    3    3    0    0 -0.51489681265E+02  0.34497534183E+02 -0.25090181618E+03  0.25844339516E+03  0.00000000000E+00 0.  1.
         13    1    3    3    0    0  0.41578572647E+02  0.22389564019E+02 -0.21038150293E+03  0.21561643503E+03  0.00000000000E+00 0. -1.
          1    1    1    2  501    0 -0.42114599692E+02 -0.37133765752E+01 -0.42102369477E+02  0.59666055579E+02  0.00000000000E+00 0. -1.
<scales pt_clust_5="13000.00000" pt_clust_6="13000.00000" pt_clust_7="13000.00000" pt_clust_8="13000.00000" pt_clust_9="42.27799"></scales>
<clustering>
<clus scale="   42.278">  1  9  2 -1</clus>
<clus scale="   90.309">  5  6 -1 -1</clus>
<clus scale="   92.823">  7  8 -1 -1</clus>
<clus scale="  109.479">  1  5  2 -1</clus>
<clus scale="   42.278">  1  5  2 -1</clus>
</clustering>
</event>
<event>
 9    1  0.1399746E-005  0.1181328E+03  0.7546771E-02  0.1246298E+00
          2   -1    0    0  502    0 -0.00000000000E+00  0.00000000000E+00  0.25576254281E+03  0.25576254281E+03  0.00000000000E+00 0. -1.
         21   -1    0    0  501  502  0.00000000000E+00 -0.00000000000E+00 -0.12517457865E+03  0.12517457865E+03  0.00000000000E+00 0. -1.
         23    2    1    2    0    0 -0.80213020606E+01  0.10299620496E+03  0.14824416321E+03  0.20201268438E+03  0.90334009117E+02 0.  0.
         23    2    1    2    0    0 -0.51558483932E+01 -0.36140936987E+02  0.21932934295E+02  0.10011730778E+03  0.90607238186E+02 0.  0.
        -11    1    4    4    0    0  0.29681155726E+02  0.11427744896E+02 -0.96413730408E+01  0.33234326121E+02  0.00000000000E+00 0. -1.
         11    1    4    4    0    0 -0.34837004119E+02 -0.47568681882E+02  0.31574307336E+02  0.66882981660E+02  0.00000000000E+00 0.  1.
        -13    1    3    3    0    0  0.40321730468E+02  0.32943891916E+02  0.58928922556E+02  0.78636886231E+02  0.00000000000E+00 0.  1.
         13    1    3    3    0    0 -0.48343032528E+02  0.70052313041E+02  0.89315240650E+02  0.12337579815E+03  0.00000000000E+00 0. -1.
          2    1    1    2  501    0  0.13177150454E+02 -0.66855267971E+02 -0.39589133345E+02  0.78807129300E+02  0.00000000000E+00 0. -1.
<scales pt_clust_5="13000.00000" pt_clust_6="13000.00000" pt_clust_7="13000.00000" pt_clust_8="13000.00000" pt_clust_9="68.14150"></scales>
<clustering>
<clus scale="   68.142">  2  9  1 -1</clus>
<clus scale="   90.334">  7  8 -1 -1</clus>
<clus scale="   90.607">  5  6 -1 -1</clus>
<clus scale="  117.923">  1  7  2 -1</clus>
<clus scale="   68.142">  2  5  1 -1</clus>
</clustering>
</event>
<event>
 9    1  0.1399746E-005  0.1126992E+03  0.7546771E-02  0.1258947E+00
         21   -1    0    0  501  502  0.00000000000E+00  0.00000000000E+00  0.25968860011E+03  0.25968860011E+03  0.00000000000E+00 0.  1.
         -1   -1    0    0    0  501 -0.00000000000E+00 -0.00000000000E+00 -0.10521929341E+03  0.10521929341E+03  0.00000000000E+00 0.  1.
         23    2    1    2    0    0  0.46936613120E+02 -0.19655284683E+02 -0.41247984149E+02  0.11933703631E+03  0.99752474514E+02 0.  0.
         23    2    1    2    0    0 -0.61723673559E+02 -0.14928913962E+01  0.10949617755E+03  0.15557095228E+03  0.91656247426E+02 0.  0.
        -11    1    4    4    0    0 -0.33404822040E+01 -0.36705425106E+02  0.16811328425E+02  0.40510095248E+02  0.00000000000E+00 0.  1.
         11    1    4    4    0    0 -0.58383191355E+02  0.35212533710E+02  0.92684849128E+02  0.11506085703E+03  0.00000000000E+00 0. -1.
        -13    1    3    3    0    0  0.77179233080E+02 -0.87006392799E+01 -0.39471441135E+02  0.87122498862E+02  0.00000000000E+00 0.  1.
         13    1    3    3    0    0 -0.30242619959E+02 -0.10954645403E+02 -0.17765430133E+01  0.32214537448E+02  0.00000000000E+00 0. -1.
         -1    1    1    2    0  502  0.14787060439E+02  0.21148176080E+02  0.86221113302E+02  0.89999904927E+02  0.00000000000E+00 0.  1.
<scales pt_clust_5="13000.00000" pt_clust_6="13000.00000" pt_clust_7="13000.00000" pt_clust_8="13000.00000" pt_clust_9="25.80509"></scales>
<clustering>
<clus scale="   25.805">  1  9  2 -1</clus>
<clus scale="   91.656">  5  6 -1 -1</clus>
<clus scale="   99.752">  7  8 -1 -1</clus>
<clus scale="  105.600">  1  5  2 -1</clus>
<clus scale="   25.805">  1  5  2 -1</clus>
</clustering>
</event>
<event>
 9    1  0.1399746E-005  0.1040694E+03  0.7546771E-02  0.1273391E+00
         21   -1    0    0  501  502  0.00000000000E+00  0.00000000000E+00  0.32319993835E+02  0.32319993835E+02  0.00000000000E+00 0.  1.
          1   -1    0    0  502    0 -0.00000000000E+00 -0.00000000000E+00 -0.47460715946E+03  0.47460715946E+03  0.00000000000E+00 0. -1.
         23    2    1    2    0    0 -0.51500273991E+02  0.18601154657E+02 -0.25587600596E+03  0.27857473710E+03  0.95567110202E+02 0.  0.
         23    2    1    2    0    0  0.25525578264E+02 -0.58332342637E+01 -0.16942527041E+03  0.19479313963E+03  0.92487097629E+02 0.  0.
        -13    1    3    3    0    0 -0.37342707284E+02  0.53874611159E+02 -0.11209430915E+03  0.12985409373E+03  0.00000000000E+00 0.  1.
         13    1    3    3    0    0 -0.14157566708E+02 -0.35273456503E+02 -0.14378169680E+03  0.14872064337E+03  0.00000000000E+00 0. -1.
        -13    1    4    4    0    0  0.12447968986E+02  0.40512289389E+02 -0.47262728524E+02  0.63481989816E+02  0.00000000000E+00 0.  1.
         13    1    4    4    0    0  0.13077609278E+02 -0.46345523652E+02 -0.12216254188E+03  0.13131114982E+03  0.00000000000E+00 0. -1.
          1    1    1    2  501    0  0.25974695727E+02 -0.12767920393E+02 -0.16985889266E+02  0.33559276563E+02  0.00000000000E+00 0. -1.
<scales pt_clust_5="13000.00000" pt_clust_6="13000.00000" pt_clust_7="13000.00000" pt_clust_8="13000.00000" pt_clust_9="28.94313"></scales>
<clustering>
<clus scale="   28.943">  1  9  2 -1</clus>
<clus scale="   92.487">  7  8 -1 -1</clus>
<clus scale="   95.567">  5  6 -1 -1</clus>
<clus scale="  101.248">  1  7  2 -1</clus>
<clus scale="   28.943">  1  5  2 -1</clus>
</clustering>
</event>
<event>
 9    1  0.1399746E-005  0.1259638E+03  0.7546771E-02  0.1233689E+00
         -1   -1    0    0    0  501 -0.00000000000E+00  0.00000000000E+00  0.48268437492E+02  0.48268437492E+02  0.00000000000E+00 0.  1.
         21   -1    0    0  501  502  0.00000000000E+00 -0.00000000000E+00 -0.86603998179E+03  0.86603998179E+03  0.00000000000E+00 0.  1.
         23    2    1    2    0    0  0.54146022178E+01 -0.86158711739E+02 -0.15392531866E+03  0.19744712724E+03  0.88542209164E+02 0.  0.
         23    2    1    2    0    0 -0.76569395913E+02  0.73792411486E+02 -0.17776838131E+03  0.22544741272E+03  0.88976098614E+02 0.  0.
        -13    1    4    4    0    0 -0.93456952799E+02  0.42931621316E+02 -0.12270678011E+03  0.16010708923E+03  0.00000000000E+00 0.  1.
         13    1    4    4    0    0  0.16887556886E+02  0.30860790171E+02 -0.55061601194E+02  0.65340323489E+02  0.00000000000E+00 0. -1.
        -13    1    3    3    0    0 -0.36934442228E+02 -0.58240858174E+02 -0.63395269751E+02  0.93675561436E+02  0.00000000000E+00 0.  1.
         13    1    3    3    0    0  0.42349044446E+02 -0.27917853565E+02 -0.90530048913E+02  0.10377156580E+03  0.00000000000E+00 0. -1.
         -1    1    1    2    0  502  0.71154793695E+02  0.12366300253E+02 -0.48607784432E+03  0.49141387932E+03  0.00000000000E+00 0.  1.
<scales pt_clust_5="13000.00000" pt_clust_6="13000.00000" pt_clust_7="13000.00000" pt_clust_8="13000.00000" pt_clust_9="72.22140"></scales>
<clustering>
<clus scale="   72.221">  2  9  1 -1</clus>
<clus scale="   88.542">  7  8 -1 -1</clus>
<clus scale="   88.976">  5  6 -1 -1</clus>
<clus scale="  125.658">  1  7  2 -1</clus>
<clus scale="   72.221">  2  5  1 -1</clus>
</clustering>
</event>
<event>
 9    1  0.1609674E-005  0.1291835E+03  0.7546771E-02  0.1233241E+00
          2   -1    0    0  502    0 -0.00000000000E+00  0.00000000000E+00  0.42306225268E+03  0.42306225268E+03  0.00000000000E+00 0. -1.
         21   -1    0    0  501  502  0.00000000000E+00 -0.00000000000E+00 -0.95818407271E+02  0.95818407271E+02  0.00000000000E+00 0.  1.
         23    2    1    2    0    0 -0.48953500728E+02 -0.53323535141E+02  0.30627276137E+03  0.32753144283E+03  0.90741374555E+02 0.  0.
         23    2    1    2    0    0  0.59315758005E+02  0.72070711606E+02 -0.22826847288E+02  0.14259378880E+03  0.10535358100E+03 0.  0.
        -11    1    4    4    0    0  0.29970535611E+02  0.58301173256E+02  0.36469841774E+02  0.75015392866E+02  0.00000000000E+00 0. -1.
         11    1    4    4    0    0  0.29345222394E+02  0.13769538350E+02 -0.59296689062E+02  0.67578395937E+02  0.00000000000E+00 0.  1.
        -13    1    3    3    0    0 -0.67616069967E+02 -0.19347639879E+02  0.24611092903E+03  0.25596260171E+03  0.00000000000E+00 0. -1.
         13    1    3    3    0    0  0.18662569239E+02 -0.33975895263E+02  0.60161832334E+02  0.71568841120E+02  0.00000000000E+00 0.  1.
          2    1    1    2  501    0 -0.10362257277E+02 -0.18747176465E+02  0.43797931328E+02  0.48755428312E+02  0.00000000000E+00 0. -1.
<scales pt_clust_5="13000.00000" pt_clust_6="13000.00000" pt_clust_7="13000.00000" pt_clust_8="13000.00000" pt_clust_9="21.42040"></scales>
<clustering>
<clus scale="   21.420">  2  9  1 -1</clus>
<clus scale="   90.741">  7  8 -1 -1</clus>
<clus scale="  105.354">  5  6 -1 -1</clus>
<clus scale="  117.571">  1  7  2 -1</clus>
<clus scale="   21.420">  2  5  1 -1</clus>
</clustering>
</event>
<event>
 9    1  0.1399746E-005  0.9371568E+02  0.7546771E-02  0.1294753E+00
         21   -1    0    0  501  502  0.00000000000E+00  0.00000000000E+00  0.58954640949E+02  0.58954640949E+02  0.00000000000E+00 0. -1.
         -2   -1    0    0    0  501 -0.00000000000E+00 -0.00000000000E+00 -0.37737108429E+03  0.37737108429E+03  0.00000000000E+00 0.  1.
         23    2    1    2    0    0 -0.12679402755E+02 -0.85394225687E+01 -0.16365903770E+03  0.18862229273E+03  0.92522428108E+02 0.  0.
         23    2    1    2    0    0 -0.32789380417E+02 -0.37445749461E+02 -0.35160524368E+02  0.11174218692E+03  0.93662832777E+02 0.  0.
        -11    1    3    3    0    0  0.38185335764E+02 -0.17678226902E+02 -0.75324354727E+02  0.86280924826E+02  0.00000000000E+00 0.  1.
         11    1    3    3    0    0 -0.50864738519E+02  0.91388043328E+01 -0.88334682974E+02  0.10234136791E+03  0.00000000000E+00 0. -1.
        -13    1    4    4    0    0 -0.25814232659E+01 -0.56741978569E+02 -0.47280358947E+02  0.73903641454E+02  0.00000000000E+00 0.  1.
         13    1    4    4    0    0 -0.30207957151E+02  0.19296229108E+02  0.12119834579E+02  0.37838545470E+02  0.00000000000E+00 0. -1.
         -2    1    1    2    0  502  0.45468783172E+02  0.45985172030E+02 -0.11959688127E+03  0.13596124558E+03  0.00000000000E+00 0.  1.
<scales pt_clust_5="13000.00000" pt_clust_6="13000.00000" pt_clust_7="13000.00000" pt_clust_8="13000.00000" pt_clust_9="64.66878"></scales>
<clustering>
<clus scale="   64.669">  1  9  2 -1</clus>
<clus scale="   92.522">  5  6 -1 -1</clus>
<clus scale="   92.576">  2  5  1 -1</clus>
<clus scale="   93.663">  7  8 -1 -1</clus>
<clus scale="   64.669">  1  5  2 -1</clus>
</clustering>
</event>
<event>
 9    1  0.1399746E-005  0.1006963E+03  0.7546771E-02  0.1283887E+00
          3   -1    0    0  502    0 -0.00000000000E+00  0.00000000000E+00  0.25620028983E+03  0.25620028983E+03  0.00000000000E+00 0. -1.
         21   -1    0    0  501  502  0.00000000000E+00 -0.00000000000E+00 -0.93878841845E+02  0.93878841845E+02  0.00000000000E+00 0. -1.
         23    2    1    2    0    0  0.21283209078E+02 -0.16608696816E+02  0.12082066729E+03  0.15945279349E+03  0.10049246692E+03 0.  0.
         23    2    1    2    0    0  0.36806800707E+02 -0.98311023407E+01  0.69554783429E+02  0.12090877020E+03  0.91267034911E+02 0.  0.
        -11    1    3    3    0    0 -0.24252750328E+02 -0.35919744564E+02  0.21241404505E+02  0.48266149767E+02  0.00000000000E+00 0.  1.
         11    1    3    3    0    0  0.45535959406E+02  0.19311047748E+02  0.99579262788E+02  0.11118664372E+03  0.00000000000E+00 0. -1.
        -11    1    4    4    0    0  0.66985572898E+02 -0.13736829573E+02  0.45739291991E+02  0.82266945337E+02  0.00000000000E+00 0. -1.
         11    1    4    4    0    0 -0.30178772191E+02  0.39057272325E+01  0.23815491437E+02  0.38641824861E+02  0.00000000000E+00 0.  1.
          3    1    1    2  501    0 -0.58090009785E+02  0.26439799157E+02 -0.28054002740E+02  0.69717567987E+02  0.00000000000E+00 0. -1.
<scales pt_clust_5="13000.00000" pt_clust_6="13000.00000" pt_clust_7="13000.00000" pt_clust_8="13000.00000" pt_clust_9="63.82407"></scales>
<clustering>
<clus scale="   63.824">  2  9  1 -1</clus>
<clus scale="   91.267">  7  8 -1 -1</clus>
<clus scale="   91.491">  2  7  1 -1</clus>
<clus scale="  100.492">  5  6 -1 -1</clus>
<clus scale="   63.824">  2  5  1 -1</clus>
</clustering>
</event>
<event>
 9    1  0.1399746E-005  0.9495383E+02  0.7546771E-02  0.1293435E+00
         21   -1    0    0  501  502  0.00000000000E+00  0.00000000000E+00  0.15291985893E+03  0.15291985893E+03  0.00000000000E+00 0. -1.
         -3   -1    0    0    0  501 -0.00000000000E+00 -0.00000000000E+00 -0.11092229000E+03  0.11092229000E+03  0.00000000000E+00 0.  1.
         23    2    1    2    0    0 -0.15826784559E+02  0.34716575666E+02 -0.18509820947E+02  0.10021890552E+03  0.90804668475E+02 0.  0.
         23    2    1    2    0    0  0.12493044909E+02 -0.13446691632E+02 -0.10502999421E+02  0.89420836611E+02  0.86884310071E+02 0.  0.
        -11    1    3    3    0    0 -0.53208063857E+02  0.28069270323E+02 -0.71097437306E+01  0.60576649394E+02  0.00000000000E+00 0. -1.
         11    1    3    3    0    0  0.37381279298E+02  0.66473053426E+01 -0.11400077217E+02  0.39642256127E+02  0.00000000000E+00 0.  1.
        -13    1    4    4    0    0 -0.89019809860E+01 -0.21034518558E+02  0.33127327517E+02  0.40238241324E+02  0.00000000000E+00 0. -1.
         13    1    4    4    0    0  0.21395025895E+02  0.75878269255E+01 -0.43630326938E+02  0.49182595287E+02  0.00000000000E+00 0.  1.
         -3    1    1    2    0  502  0.33337396493E+01 -0.21269884034E+02  0.71010389300E+02  0.74202406803E+02  0.00000000000E+00 0.  1.
<scales pt_clust_5="13000.00000" pt_clust_6="13000.00000" pt_clust_7="13000.00000" pt_clust_8="13000.00000" pt_clust_9="21.52956"></scales>
<clustering>
<clus scale="   21.530">  1  9  2 -1</clus>
<clus scale="   86.884">  7  8 -1 -1</clus>
<clus scale="   90.805">  5  6 -1 -1</clus>
<clus scale="   91.212">  1  7  2 -1</clus>
<clus scale="   21.530">  1  5  2 -1</clus>
</clustering>
</event>
<event>
 9    1  0.1399746E-005  0.9675089E+02  0.7546771E-02  0.1290069E+00
          2   -1    0    0  502    0 -0.00000000000E+00  0.00000000000E+00  0.50605517564E+03  0.50605517564E+03  0.00000000000E+00 0. -1.
         21   -1    0    0  501  502  0.00000000000E+00 -0.00000000000E+00 -0.36977579492E+02  0.36977579492E+02  0.00000000000E+00 0. -1.
         23    2    1    2    0    0 -0.87287737406E+01 -0.18093465215E+02  0.21321309670E+03  0.23051371292E+03  0.85282954142E+02 0.  0.
         23    2    1    2    0    0  0.11772677747E+02  0.48912030794E+02  0.26128723308E+03  0.28107933203E+03  0.90573671827E+02 0.  0.
        -11    1    3    3    0    0 -0.44519475081E+02  0.16278983970E+01  0.85314860986E+02  0.96245827025E+02  0.00000000000E+00 0.  1.
         11    1    3    3    0    0  0.35790701340E+02 -0.19721363612E+02  0.12789823571E+03  0.13426788590E+03  0.00000000000E+00 0. -1.
        -13    1    4    4    0    0  0.33560932776E+02 -0.26276520962E+00  0.18327602550E+03  0.18632366135E+03  0.00000000000E+00 0. -1.
         13    1    4    4    0    0 -0.21788255029E+02  0.49174796003E+02  0.78011207574E+02  0.94755670681E+02  0.00000000000E+00 0.  1.
          2    1    1    2  501    0 -0.30439040062E+01 -0.30818565579E+02 -0.54227336297E+01  0.31439710176E+02  0.00000000000E+00 0. -1.
<scales pt_clust_5="13000.00000" pt_clust_6="13000.00000" pt_clust_7="13000.00000" pt_clust_8="13000.00000" pt_clust_9="30.96852"></scales>
<clustering>
<clus scale="   30.969">  2  9  1 -1</clus>
<clus scale="   85.283">  5  6 -1 -1</clus>
<clus scale="   90.574">  7  8 -1 -1</clus>
<clus scale="   91.817">  1  5  2 -1</clus>
<clus scale="   30.969">  2  5  1 -1</clus>
</clustering>
</event>
<event>
 9    1  0.1399746E-005  0.1036767E+03  0.7546771E-02  0.1274034E+00
         21   -1    0    0  501  502  0.00000000000E+00  0.00000000000E+00  0.35691744547E+03  0.35691744547E+03  0.00000000000E+00 0.  1.
          4   -1    0    0  502    0 -0.00000000000E+00 -0.00000000000E+00 -0.47951675588E+02  0.47951675588E+02  0.00000000000E+00 0. -1.
         23    2    1    2    0    0 -0.18320808211E+02  0.44115799621E+02  0.66815979050E+02  0.12551504053E+03  0.94909401817E+02 0.  0.
         23    2    1    2    0    0  0.30056817250E+02 -0.20906769897E+02  0.12601257164E+03  0.16034043992E+03  0.92137848747E+02 0.  0.
        -13    1    3    3    0    0  0.27721746719E+02  0.14459357464E+02  0.63341569667E+02  0.70637969303E+02  0.00000000000E+00 0.  1.
         13    1    3    3    0    0 -0.46042554930E+02  0.29656442157E+02  0.34744093837E+01  0.54877071227E+02  0.00000000000E+00 0. -1.
        -13    1    4    4    0    0  0.56741996356E+02 -0.70780781809E+01  0.11481599583E+03  0.12826716743E+03  0.00000000000E+00 0.  1.
         13    1    4    4    0    0 -0.26685179106E+02 -0.13828691716E+02  0.11196575807E+02  0.32073272491E+02  0.00000000000E+00 0. -1.
          4    1    1    2  501    0 -0.11736009039E+02 -0.23209029724E+02  0.11613721919E+03  0.11901364061E+03  0.00000000000E+00 0. -1.
<scales pt_clust_5="13000.00000" pt_clust_6="13000.00000" pt_clust_7="13000.00000" pt_clust_8="13000.00000" pt_clust_9="26.00756"></scales>
<clustering>
<clus scale="   26.008">  1  9  2 -1</clus>
<clus scale="   92.138">  7  8 -1 -1</clus>
<clus scale="   94.909">  5  6 -1 -1</clus>
<clus scale="  101.146">  1  7  2 -1</clus>
<clus scale="   26.008">  1  5  2 -1</clus>
</clustering>
</event>
<event>
 9    1  0.1399746E-005  0.9551243E+02  0.7546771E-02  0.1302728E+00
         21   -1    0    0  501  502  0.00000000000E+00  0.00000000000E+00  0.15411300398E+03  0.15411300398E+03  0.00000000000E+00 0. -1.
          1   -1    0    0  502    0 -0.00000000000E+00 -0.00000000000E+00 -0.29497090190E+03  0.29497090190E+03  0.00000000000E+00 0. -1.
         23    2    1    2    0    0 -0.76134189064E+01 -0.20955026299E+02 -0.20648572243E+03  0.21951125320E+03  0.71075730332E+02 0.  0.
         23    2    1    2    0    0  0.39390119577E+01  0.40968527527E+02 -0.49716541827E+02  0.11244723126E+03  0.92079906733E+02 0.  0.
        -11    1    3    3    0    0 -0.26710211173E+02 -0.39377684351E+02 -0.12172978608E+03  0.13069880728E+03  0.00000000000E+00 0.  1.
         11    1    3    3    0    0  0.19096792267E+02  0.18422658053E+02 -0.84755936345E+02  0.88812445920E+02  0.00000000000E+00 0. -1.
        -11    1    4    4    0    0  0.56679633075E+01 -0.29079780178E+02 -0.22804281633E+02  0.37387092479E+02  0.00000000000E+00 0.  1.
         11    1    4    4    0    0 -0.17289513498E+01  0.70048307705E+02 -0.26912260194E+02  0.75060138781E+02  0.00000000000E+00 0. -1.
          1    1    1    2  501    0  0.36744069486E+01 -0.20013501229E+02  0.11534436633E+03  0.11712542141E+03  0.00000000000E+00 0. -1.
<scales pt_clust_5="13000.00000" pt_clust_6="13000.00000" pt_clust_7="13000.00000" pt_clust_8="13000.00000" pt_clust_9="20.34801"></scales>
<clustering>
<clus scale="   20.348">  1  9  2 -1</clus>
<clus scale="   71.076">  5  6 -1 -1</clus>
<clus scale="   75.470">  2  5  1 -1</clus>
<clus scale="   92.080">  7  8 -1 -1</clus>
<clus scale="   20.348">  1  5  2 -1</clus>
</clustering>
</event>
<event>
 9    1  0.1399746E-005  0.1323977E+03  0.7546771E-02  0.1225515E+00
         21   -1    0    0  501  502  0.00000000000E+00  0.00000000000E+00  0.30917969163E+03  0.30917969163E+03  0.00000000000E+00 0. -1.
         -1   -1    0    0    0  501 -0.00000000000E+00 -0.00000000000E+00 -0.90762541245E+02  0.90762541245E+02  0.00000000000E+00 0.  1.
         23    2    1    2    0    0  0.31438957891E+02  0.94106992376E+02  0.16551419830E+02  0.13713491022E+03  0.93206759496E+02 0.  0.
         23    2    1    2    0    0 -0.59617569150E+01 -0.86776775911E+02  0.10305352503E+03  0.16050056919E+03  0.87032478463E+02 0.  0.
        -11    1    4    4    0    0 -0.41610787322E+02 -0.73798026333E+02  0.65170004418E+02  0.10688655569E+03  0.00000000000E+00 0.  1.
         11    1    4    4    0    0  0.35649030407E+02 -0.12978749578E+02  0.37883520613E+02  0.53614013500E+02  0.00000000000E+00 0. -1.
        -13    1    3    3    0    0  0.52147912140E+02  0.20207454396E+02 -0.81374538852E+01  0.56515167074E+02  0.00000000000E+00 0.  1.
         13    1    3    3    0    0 -0.20708954249E+02  0.73899537980E+02  0.24688873716E+02  0.80619743147E+02  0.00000000000E+00 0. -1.
         -1    1    1    2    0  502 -0.25477200976E+02 -0.73302164653E+01  0.98812205527E+02  0.10230675346E+03  0.00000000000E+00 0.  1.
<scales pt_clust_5="13000.00000" pt_clust_6="13000.00000" pt_clust_7="13000.00000" pt_clust_8="13000.00000" pt_clust_9="26.51075"></scales>
<clustering>
<clus scale="   26.511">  1  9  2 -1</clus>
<clus scale="   87.032">  5  6 -1 -1</clus>
<clus scale="   93.207">  7  8 -1 -1</clus>
<clus scale="  128.126">  1  5  2 -1</clus>
<clus scale="   26.511">  1  5  2 -1</clus>
</clustering>
</event>
<event>
 9    1  0.1399746E-005  0.1451005E+03  0.7546771E-02  0.1207270E+00
          2   -1    0    0  502    0 -0.00000000000E+00  0.00000000000E+00  0.73203493609E+03  0.73203493609E+03  0.00000000000E+00 0. -1.
         21   -1    0    0  501  502  0.00000000000E+00 -0.00000000000E+00 -0.49041754179E+02  0.49041754179E+02  0.00000000000E+00 0. -1.
         23    2    1    2    0    0 -0.62461489079E+02 -0.78456089208E+02  0.37193814076E+03  0.39529134247E+03  0.88659287901E+02 0.  0.
         23    2    1    2    0    0  0.95966611237E+02  0.92882628997E+02  0.30938173677E+03  0.34926797921E+03  0.91838385306E+02 0.  0.
        -13    1    3    3    0    0 -0.23475152234E+02 -0.89107490185E+02  0.23187943479E+03  0.24951813533E+03  0.00000000000E+00 0.  1.
         13    1    3    3    0    0 -0.38986336846E+02  0.10651400977E+02  0.14005870597E+03  0.14577320714E+03  0.00000000000E+00 0. -1.
        -13    1    4    4    0    0 -0.14838079863E+02  0.32846974763E+02  0.66723544866E+02  0.75836164226E+02  0.00000000000E+00 0.  1.
         13    1    4    4    0    0  0.11080469110E+03  0.60035654233E+02  0.24265819190E+03  0.27343181498E+03  0.00000000000E+00 0. -1.
          2    1    1    2  501    0 -0.33505122157E+02 -0.14426539789E+02  0.16733043881E+01  0.36517368589E+02  0.00000000000E+00 0. -1.
<scales pt_clust_5="13000.00000" pt_clust_6="13000.00000" pt_clust_7="13000.00000" pt_clust_8="13000.00000" pt_clust_9="36.47901"></scales>
<clustering>
<clus scale="   36.479">  2  9  1 -1</clus>
<clus scale="   88.659">  5  6 -1 -1</clus>
<clus scale="   91.838">  7  8 -1 -1</clus>
<clus scale="  143.110">  1  5  2 -1</clus>
<clus scale="   36.479">  2  5  1 -1</clus>
</clustering>
</event>
<event>
 9    1  0.1399746E-005  0.1290414E+03  0.7546771E-02  0.1228980E+00
         21   -1    0    0  501  502  0.00000000000E+00  0.00000000000E+00  0.60109026972E+03  0.60109026972E+03  0.00000000000E+00 0.  1.
          1   -1    0    0  502    0 -0.00000000000E+00 -0.00000000000E+00 -0.42346716600E+02  0.42346716600E+02  0.00000000000E+00 0. -1.
         23    2    1    2    0    0  0.43145304651E+02 -0.90491201930E+02  0.13632551766E+03  0.19198280461E+03  0.90678418389E+02 0.  0.
         23    2    1    2    0    0 -0.55739217239E+02  0.55192921238E+02  0.29208267363E+03  0.31583750944E+03  0.91038042820E+02 0.  0.
        -11    1    4    4    0    0 -0.69340429219E+02  0.22594794938E+02  0.25233838125E+03  0.26266571633E+03  0.00000000000E+00 0.  1.
         11    1    4    4    0    0  0.13601211980E+02  0.32598126301E+02  0.39744292375E+02  0.53171793105E+02  0.00000000000E+00 0. -1.
        -11    1    3    3    0    0 -0.27092511103E+02 -0.16397829544E+02  0.44843511728E+02  0.54898392651E+02  0.00000000000E+00 0.  1.
         11    1    3    3    0    0  0.70237815754E+02 -0.74093372386E+02  0.91482005933E+02  0.13708441196E+03  0.00000000000E+00 0. -1.
          1    1    1    2  501    0  0.12593912588E+02  0.35298280692E+02  0.13033536184E+03  0.13561667228E+03  0.00000000000E+00 0. -1.
<scales pt_clust_5="13000.00000" pt_clust_6="13000.00000" pt_clust_7="13000.00000" pt_clust_8="13000.00000" pt_clust_9="37.47766"></scales>
<clustering>
<clus scale="   37.478">  1  9  2 -1</clus>
<clus scale="   90.678">  7  8 -1 -1</clus>
<clus scale="   91.038">  5  6 -1 -1</clus>
<clus scale="  128.788">  2  7  1 -1</clus>
<clus scale="   37.478">  1  5  2 -1</clus>
</clustering>
</event>
<event>
 9    1  0.1399746E-005  0.1002982E+03  0.7546771E-02  0.1283461E+00
         -3   -1    0    0    0  501 -0.00000000000E+00  0.00000000000E+00  0.12347246990E+03  0.12347246990E+03  0.00000000000E+00 0.  1.
         21   -1    0    0  501  502  0.00000000000E+00 -0.00000000000E+00 -0.11830983550E+03  0.11830983550E+03  0.00000000000E+00 0. -1.
         23    2    1    2    0    0  0.16931580359E+02  0.19533397954E+02  0.27400014855E+02  0.10491245380E+03  0.97916444480E+02 0.  0.
         23    2    1    2    0    0  0.11452147909E+02 -0.23571118235E+02  0.84738378504E+01  0.94856542459E+02  0.90770085452E+02 0.  0.
        -11    1    4    4    0    0 -0.28160921446E+02 -0.31280328276E+02  0.27462434721E+02  0.50256161359E+02  0.00000000000E+00 0. -1.
         11    1    4    4    0    0  0.39613069355E+02  0.77092100410E+01 -0.18988596871E+02  0.44600381100E+02  0.00000000000E+00 0.  1.
        -13    1    3    3    0    0  0.31975709845E+02 -0.12837930864E+02  0.51412599463E+02  0.61891145348E+02  0.00000000000E+00 0.  1.
         13    1    3    3    0    0 -0.15044129486E+02  0.32371328819E+02 -0.24012584608E+02  0.43021308453E+02  0.00000000000E+00 0. -1.
         -3    1    1    2    0  502 -0.28383728268E+02  0.40377202807E+01 -0.30711218307E+02  0.42013309146E+02  0.00000000000E+00 0.  1.
<scales pt_clust_5="13000.00000" pt_clust_6="13000.00000" pt_clust_7="13000.00000" pt_clust_8="13000.00000" pt_clust_9="28.66948"></scales>
<clustering>
<clus scale="   28.669">  2  9  1 -1</clus>
<clus scale="   90.770">  5  6 -1 -1</clus>
<clus scale="   93.334">  2  5  1 -1</clus>
<clus scale="   97.916">  7  8 -1 -1</clus>
<clus scale="   28.669">  2  5  1 -1</clus>
</clustering>
</event>
<event>
 9    1  0.1399746E-005  0.1188000E+03  0.7546771E-02  0.1250283E+00
          1   -1    0    0  502    0 -0.00000000000E+00  0.00000000000E+00  0.27679582427E+03  0.27679582427E+03  0.00000000000E+00 0. -1.
         21   -1    0    0  501  502  0.00000000000E+00 -0.00000000000E+00 -0.80489454215E+02  0.80489454215E+02  0.00000000000E+00 0. -1.
         23    2    1    2    0    0 -0.26943299957E+02  0.58728421970E+02  0.10978480052E+03  0.15210764332E+03  0.83120778215E+02 0.  0.
         23    2    1    2    0    0 -0.21218452699E+02 -0.83067010438E+02  0.46970706236E+02  0.13827328482E+03  0.97790097107E+02 0.  0.
        -11    1    3    3    0    0  0.27577985669E+02  0.19713514693E+02  0.17814544969E+02  0.38295247323E+02  0.00000000000E+00 0.  1.
         11    1    3    3    0    0 -0.54521285625E+02  0.39014907277E+02  0.91970255554E+02  0.11381239600E+03  0.00000000000E+00 0. -1.
        -13    1    4    4    0    0 -0.41324089206E+02 -0.92880300956E+02  0.53620871427E+02  0.11493314799E+03  0.00000000000E+00 0. -1.
         13    1    4    4    0    0  0.20105636507E+02  0.98132905172E+01 -0.66501651913E+01  0.23340136829E+02  0.00000000000E+00 0.  1.
          1    1    1    2  501    0  0.48161752656E+02  0.24338588468E+02  0.39550863295E+02  0.66904350344E+02  0.00000000000E+00 0. -1.
<scales pt_clust_5="13000.00000" pt_clust_6="13000.00000" pt_clust_7="13000.00000" pt_clust_8="13000.00000" pt_clust_9="53.96225"></scales>
<clustering>
<clus scale="   53.962">  2  9  1 -1</clus>
<clus scale="   83.121">  5  6 -1 -1</clus>
<clus scale="   97.790">  7  8 -1 -1</clus>
<clus scale="  107.049">  1  5  2 -1</clus>
<clus scale="   53.962">  2  5  1 -1</clus>
</clustering>
</event>
<event>
 9    1  0.1399746E-005  0.1002776E+03  0.7546771E-02  0.1279766E+00
         21   -1    0    0  501  502  0.00000000000E+00  0.00000000000E+00  0.63250529245E+02  0.63250529245E+02  0.00000000000E+00 0. -1.
          2   -1    0    0  502    0 -0.00000000000E+00 -0.00000000000E+00 -0.63281952333E+03  0.63281952333E+03  0.00000000000E+00 0. -1.
         23    2    1    2    0    0  0.67121650550E+02  0.23720286205E+02 -0.39400187562E+03  0.41038922208E+03  0.90077009600E+02 0.  0.
         23    2    1    2    0    0 -0.13981763310E+02  0.13269046774E+02 -0.19704365827E+03  0.21746572856E+03  0.89964340296E+02 0.  0.
        -13    1    3    3    0    0  0.22108909179E+01  0.43553834285E+02 -0.20452184635E+03  0.20911960729E+03  0.00000000000E+00 0.  1.
         13    1    3    3    0    0  0.64910759632E+02 -0.19833548080E+02 -0.18948002928E+03  0.20126961480E+03  0.00000000000E+00 0. -1.
        -13    1    4    4    0    0 -0.20610711684E+02 -0.36300667899E+02 -0.97694291448E+02  0.10623895005E+03  0.00000000000E+00 0.  1.
         13    1    4    4    0    0  0.66289483748E+01  0.49569714673E+02 -0.99349366820E+02  0.11122677851E+03  0.00000000000E+00 0. -1.
          2    1    1    2  501    0 -0.53139887240E+02 -0.36989332979E+02  0.21476539806E+02  0.68215101936E+02  0.00000000000E+00 0. -1.
<scales pt_clust_5="13000.00000" pt_clust_6="13000.00000" pt_clust_7="13000.00000" pt_clust_8="13000.00000" pt_clust_9="64.74611"></scales>
<clustering>
<clus scale="   64.746">  1  9  2 -1</clus>
<clus scale="   89.964">  7  8 -1 -1</clus>
<clus scale="   90.077">  5  6 -1 -1</clus>
<clus scale="  100.176">  1  7  2 -1</clus>
<clus scale="   64.746">  1  5  2 -1</clus>
</clustering>
</event>
<event>
 9    1  0.1399746E-005  0.1559509E+03  0.7546771E-02  0.1194244E+00
          1   -1    0    0  502    0 -0.00000000000E+00  0.00000000000E+00  0.51306435713E+03  0.51306435713E+03  0.00000000000E+00 0. -1.
         21   -1    0    0  501  502  0.00000000000E+00 -0.00000000000E+00 -0.15157080651E+03  0.15157080651E+03  0.00000000000E+00 0. -1.
         23    2    1    2    0    0  0.45970455159E+02 -0.11884596342E+03  0.41445836346E+03  0.44392531813E+03  0.95164632422E+02 0.  0.
         23    2    1    2    0    0 -0.47233101441E+02  0.97173721328E+02  0.22252755358E+02  0.14242215223E+03  0.90084329027E+02 0.  0.
        -11    1    4    4    0    0  0.22162488085E+02  0.20398912474E+02  0.24623770165E+02  0.38905289684E+02  0.00000000000E+00 0. -1.
         11    1    4    4    0    0 -0.69395589526E+02  0.76774808854E+02 -0.23710148070E+01  0.10351686255E+03  0.00000000000E+00 0.  1.
        -13    1    3    3    0    0  0.16198542530E+02  0.14305213074E+02  0.75656549951E+02  0.78682561294E+02  0.00000000000E+00 0.  1.
         13    1    3    3    0    0  0.29771912630E+02 -0.13315117649E+03  0.33880181351E+03  0.36524275684E+03  0.00000000000E+00 0. -1.
          1    1    1    2  501    0  0.12626462815E+01  0.21672242091E+02 -0.75217568201E+02  0.78287693279E+02  0.00000000000E+00 0. -1.
<scales pt_clust_5="13000.00000" pt_clust_6="13000.00000" pt_clust_7="13000.00000" pt_clust_8="13000.00000" pt_clust_9="21.70899"></scales>
<clustering>
<clus scale="   21.709">  2  9  1 -1</clus>
<clus scale="   90.084">  5  6 -1 -1</clus>
<clus scale="   95.165">  7  8 -1 -1</clus>
<clus scale="  152.904">  2  5  1 -1</clus>
<clus scale="   21.709">  2  5  1 -1</clus>
</clustering>
</event>
<event>
 9    1  0.1399746E-005  0.9220888E+02  0.7546771E-02  0.1297864E+00
          2   -1    0    0  502    0 -0.00000000000E+00  0.00000000000E+00  0.17098489647E+03  0.17098489647E+03  0.00000000000E+00 0. -1.
         21   -1    0    0  501  502  0.00000000000E+00 -0.00000000000E+00 -0.11491512603E+03  0.11491512603E+03  0.00000000000E+00 0.  1.
         23    2    1    2    0    0 -0.10654260376E+02 -0.30067275948E+02  0.73941966542E+02  0.12122533655E+03  0.90612435456E+02 0.  0.
         23    2    1    2    0    0  0.78435354118E+01 -0.59495690587E+01  0.37859368878E+02  0.98258418105E+02  0.90135822495E+02 0.  0.
        -13    1    3    3    0    0 -0.30479570036E+01 -0.58703298171E+02  0.69885340792E+02  0.91319921789E+02  0.00000000000E+00 0.  1.
         13    1    3    3    0    0 -0.76063033721E+01  0.28636022222E+02  0.40566257498E+01  0.29905414764E+02  0.00000000000E+00 0. -1.
        -13    1    4    4    0    0 -0.28018442491E+02  0.15244553764E+02 -0.11284900114E+02  0.33834575654E+02  0.00000000000E+00 0.  1.
         13    1    4    4    0    0  0.35861977903E+02 -0.21194122822E+02  0.49144268993E+02  0.64423842451E+02  0.00000000000E+00 0. -1.
          2    1    1    2  501    0  0.28107249639E+01  0.36016845007E+02 -0.55731564984E+02  0.66416267846E+02  0.00000000000E+00 0. -1.
<scales pt_clust_5="13000.00000" pt_clust_6="13000.00000" pt_clust_7="13000.00000" pt_clust_8="13000.00000" pt_clust_9="36.12635"></scales>
<clustering>
<clus scale="   36.126">  2  9  1 -1</clus>
<clus scale="   90.136">  7  8 -1 -1</clus>
<clus scale="   90.612">  5  6 -1 -1</clus>
<clus scale="   91.741">  2  7  1 -1</clus>
<clus scale="   36.126">  2  5  1 -1</clus>
</clustering>
</event>
<event>
 9    1  0.1399746E-005  0.1098971E+03  0.7546771E-02  0.1261567E+00
         -3   -1    0    0    0  501 -0.00000000000E+00  0.00000000000E+00  0.68724613045E+03  0.68724613045E+03  0.00000000000E+00 0.  1.
         21   -1    0    0  501  502  0.00000000000E+00 -0.00000000000E+00 -0.37554515728E+02  0.37554515728E+02  0.00000000000E+00 0.  1.
         23    2    1    2    0    0  0.33618259439E+02 -0.10799798576E+02  0.24749828512E+03  0.26612593900E+03  0.91218371249E+02 0.  0.
         23    2    1    2    0    0 -0.56537235013E+02  0.80411091048E+02  0.32559724221E+03  0.35266540530E+03  0.93257286340E+02 0.  0.
        -11    1    3    3    0    0 -0.18452491634E+02  0.24819448252E+02  0.49960012121E+02  0.58757997500E+02  0.00000000000E+00 0.  1.
         11    1    3    3    0    0  0.52070751073E+02 -0.35619246828E+02  0.19753827300E+03  0.20736794150E+03  0.00000000000E+00 0. -1.
        -13    1    4    4    0    0 -0.96871328128E+01 -0.18050605121E+02  0.21906527723E+02  0.29992679844E+02  0.00000000000E+00 0. -1.
         13    1    4    4    0    0 -0.46850102200E+02  0.98461696169E+02  0.30369071449E+03  0.32267272546E+03  0.00000000000E+00 0.  1.
         -3    1    1    2    0  502  0.22918975574E+02 -0.69611292472E+02  0.76596087393E+02  0.10600930188E+03  0.00000000000E+00 0.  1.
<scales pt_clust_5="13000.00000" pt_clust_6="13000.00000" pt_clust_7="13000.00000" pt_clust_8="13000.00000" pt_clust_9="73.28718"></scales>
<clustering>
<clus scale="   73.287">  2  9  1 -1</clus>
<clus scale="   91.218">  5  6 -1 -1</clus>
<clus scale="   93.257">  7  8 -1 -1</clus>
<clus scale="  108.172">  1  5  2 -1</clus>
<clus scale="   73.287">  2  5  1 -1</clus>
</clustering>
</event>
<event>
 9    1  0.1399746E-005  0.9986413E+02  0.7546771E-02  0.1280764E+00
          4   -1    0    0  502    0 -0.00000000000E+00  0.00000000000E+00  0.10201774212E+03  0.10201774212E+03  0.00000000000E+00 0. -1.
         21   -1    0    0  501  502  0.00000000000E+00 -0.00000000000E+00 -0.19080125795E+03  0.19080125795E+03  0.00000000000E+00 0. -1.
         23    2    1    2    0    0  0.33709263401E+02 -0.28571228506E+02  0.23529770809E+02  0.10472992584E+03  0.91989552203E+02 0.  0.
         23    2    1    2    0    0 -0.39041170114E+01  0.33680251023E+02 -0.33931626229E+02  0.10407637548E+03  0.92363062074E+02 0.  0.
        -11    1    3    3    0    0  0.14019994332E+01 -0.57705878016E+02  0.19973709470E+02  0.61080954724E+02  0.00000000000E+00 0.  1.
         11    1    3    3    0    0  0.32307263967E+02  0.29134649510E+02  0.35560613393E+01  0.43648971115E+02  0.00000000000E+00 0. -1.
        -13    1    4    4    0    0  0.71818624030E+00 -0.31483165692E+02 -0.25267424259E+01  0.31592561479E+02  0.00000000000E+00 0.  1.
         13    1    4    4    0    0 -0.46223032517E+01  0.65163416716E+02 -0.31404883803E+02  0.72483814001E+02  0.00000000000E+00 0. -1.
          4    1    1    2  501    0 -0.29805146389E+02 -0.51090225177E+01 -0.78381660415E+02  0.84012698753E+02  0.00000000000E+00 0. -1.
<scales pt_clust_5="13000.00000" pt_clust_6="13000.00000" pt_clust_7="13000.00000" pt_clust_8="13000.00000" pt_clust_9="30.23986"></scales>
<clustering>
<clus scale="   30.240">  2  9  1 -1</clus>
<clus scale="   91.990">  5  6 -1 -1</clus>
<clus scale="   92.363">  7  8 -1 -1</clus>
<clus scale="   99.519">  1  5  2 -1</clus>
<clus scale="   30.240">  2  5  1 -1</clus>
</clustering>
</event>
<event>
 9    1  0.1399746E-005  0.1485235E+03  0.7546771E-02  0.1202510E+00
         -1   -1    0    0    0  501 -0.00000000000E+00  0.00000000000E+00  0.40292362896E+03  0.40292362896E+03  0.00000000000E+00 0.  1.
         21   -1    0    0  501  502  0.00000000000E+00 -0.00000000000E+00 -0.72658174099E+02  0.72658174099E+02  0.00000000000E+00 0. -1.
         23    2    1    2    0    0 -0.10413104599E+03 -0.52051864406E+01  0.16876995698E+03  0.21969452840E+03  0.94403488951E+02 0.  0.
         23    2    1    2    0    0  0.12899943622E+03  0.30037269412E+02  0.12074048409E+03  0.20207240379E+03  0.93337558230E+02 0.  0.
        -11    1    3    3    0    0 -0.30420384638E+02 -0.92032678399E+01  0.13468900735E+03  0.13838796422E+03  0.00000000000E+00 0.  1.
         11    1    3    3    0    0 -0.73710661349E+02  0.39980813993E+01  0.34080949636E+02  0.81306564185E+02  0.00000000000E+00 0. -1.
        -11    1    4    4    0    0  0.78583677159E+01  0.29535052253E+02  0.58206036619E+02  0.65742040991E+02  0.00000000000E+00 0.  1.
         11    1    4    4    0    0  0.12114106850E+03  0.50221715919E+00  0.62534447471E+02  0.13633036280E+03  0.00000000000E+00 0. -1.
         -1    1    1    2    0  502 -0.24868390233E+02 -0.24832082971E+02  0.40755013788E+02  0.53814870866E+02  0.00000000000E+00 0.  1.
<scales pt_clust_5="13000.00000" pt_clust_6="13000.00000" pt_clust_7="13000.00000" pt_clust_8="13000.00000" pt_clust_9="35.14357"></scales>
<clustering>
<clus scale="   35.144">  2  9  1 -1</clus>
<clus scale="   93.338">  7  8 -1 -1</clus>
<clus scale="   94.403">  5  6 -1 -1</clus>
<clus scale="  147.848">  2  7  1 -1</clus>
<clus scale="   35.144">  2  5  1 -1</clus>
</clustering>
</event>
<event>
 9    1  0.1399746E-005  0.1222998E+03  0.7546771E-02  0.1239519E+00
         -2   -1    0    0    0  501 -0.00000000000E+00  0.00000000000E+00  0.39334404418E+03  0.39334404418E+03  0.00000000000E+00 0.  1.
         21   -1    0    0  501  502  0.00000000000E+00 -0.00000000000E+00 -0.84091161083E+02  0.84091161083E+02  0.00000000000E+00 0. -1.
         23    2    1    2    0    0 -0.19085983212E+02 -0.81874744381E+02  0.21328899161E+03  0.24631480068E+03  0.90061304504E+02 0.  0.
         23    2    1    2    0    0 -0.37121553741E+02  0.81699474120E+02  0.93681920587E+01  0.12788216995E+03  0.90627107125E+02 0.  0.
        -11    1    3    3    0    0 -0.49618608312E+02 -0.47130037300E+02  0.16876986533E+03  0.18211675966E+03  0.00000000000E+00 0.  1.
         11    1    3    3    0    0  0.30532625101E+02 -0.34744707081E+02  0.44519126285E+02  0.64198041021E+02  0.00000000000E+00 0. -1.
        -11    1    4    4    0    0  0.19211354988E+02  0.28692962121E+02  0.32218662756E+02  0.47227158136E+02  0.00000000000E+00 0.  1.
         11    1    4    4    0    0 -0.56332908729E+02  0.53006511999E+02 -0.22850470697E+02  0.80655011818E+02  0.00000000000E+00 0. -1.
         -2    1    1    2    0  502  0.56207536953E+02  0.17527026043E+00  0.86595699423E+02  0.10323823462E+03  0.00000000000E+00 0.  1.
<scales pt_clust_5="13000.00000" pt_clust_6="13000.00000" pt_clust_7="13000.00000" pt_clust_8="13000.00000" pt_clust_9="56.20784"></scales>
<clustering>
<clus scale="   56.208">  2  9  1 -1</clus>
<clus scale="   90.061">  5  6 -1 -1</clus>
<clus scale="   90.627">  7  8 -1 -1</clus>
<clus scale="  121.881">  1  5  2 -1</clus>
<clus scale="   56.208">  2  5  1 -1</clus>
</clustering>
</event>
<event>
 9    1  0.1399746E-005  0.1073489E+03  0.7546771E-02  0.1266635E+00
         21   -1    0    0  501  502  0.00000000000E+00  0.00000000000E+00  0.65343141596E+02  0.65343141596E+02  0.00000000000E+00 0. -1.
          2   -1    0    0  502    0 -0.00000000000E+00 -0.00000000000E+00 -0.28159830558E+03  0.28159830558E+03  0.00000000000E+00 0. -1.
         23    2    1    2    0    0  0.16257450380E+02  0.50059542289E+02 -0.10424322809E+03  0.14914937873E+03  0.92782671370E+02 0.  0.
         23    2    1    2    0    0  0.12429483900E+02 -0.60088288160E+02 -0.34314747281E+02  0.11436324213E+03  0.90201745134E+02 0.  0.
        -11    1    4    4    0    0  0.40956647030E+02 -0.30498745590E+02  0.11984488641E+02  0.52452343956E+02  0.00000000000E+00 0. -1.
         11    1    4    4    0    0 -0.28527163129E+02 -0.29589542570E+02 -0.46299235922E+02  0.61910898173E+02  0.00000000000E+00 0.  1.
        -13    1    3    3    0    0  0.23738148679E+02 -0.10080650721E+02 -0.79692677091E+02  0.83761817098E+02  0.00000000000E+00 0.  1.
         13    1    3    3    0    0 -0.74806982988E+01  0.60140193010E+02 -0.24550551003E+02  0.65387561637E+02  0.00000000000E+00 0. -1.
          2    1    1    2  501    0 -0.28686934280E+02  0.10028745871E+02 -0.77697188606E+02  0.83428826309E+02  0.00000000000E+00 0. -1.
<scales pt_clust_5="13000.00000" pt_clust_6="13000.00000" pt_clust_7="13000.00000" pt_clust_8="13000.00000" pt_clust_9="30.38942"></scales>
<clustering>
<clus scale="   30.389">  1  9  2 -1</clus>
<clus scale="   90.202">  5  6 -1 -1</clus>
<clus scale="   92.783">  7  8 -1 -1</clus>
<clus scale="  105.126">  1  5  2 -1</clus>
<clus scale="   30.389">  1  5  2 -1</clus>
</clustering>
</event>
<event>
 9    1  0.1399746E-005  0.1124913E+03  0.7546771E-02  0.1256332E+00
         -4   -1    0    0    0  501 -0.00000000000E+00  0.00000000000E+00  0.34554206814E+03  0.34554206814E+03  0.00000000000E+00 0.  1.
         21   -1    0    0  501  502  0.00000000000E+00 -0.00000000000E+00 -0.85246976577E+02  0.85246976577E+02  0.00000000000E+00 0.  1.
         23    2    1    2    0    0  0.16170656633E+01  0.98919981629E+02  0.18854844284E+03  0.23239669649E+03  0.93112467342E+02 0.  0.
         23    2    1    2    0    0 -0.20764769922E+02 -0.11960869413E+02  0.44891939244E+02  0.10538859993E+03  0.92288854796E+02 0.  0.
        -11    1    4    4    0    0 -0.39651747475E+02 -0.35854978516E+02  0.51491965548E+02  0.74224410258E+02  0.00000000000E+00 0. -1.
         11    1    4    4    0    0  0.18886977553E+02  0.23894109102E+02 -0.66000263034E+01  0.31164189675E+02  0.00000000000E+00 0.  1.
        -13    1    3    3    0    0 -0.39987124727E+02  0.17642034648E+02  0.49322698800E+02  0.65900987454E+02  0.00000000000E+00 0.  1.
         13    1    3    3    0    0  0.41604190390E+02  0.81277946980E+02  0.13922574404E+03  0.16649570903E+03  0.00000000000E+00 0. -1.
         -4    1    1    2    0  502  0.19147704258E+02 -0.86959112215E+02  0.26854709474E+02  0.93003748293E+02  0.00000000000E+00 0.  1.
<scales pt_clust_5="13000.00000" pt_clust_6="13000.00000" pt_clust_7="13000.00000" pt_clust_8="13000.00000" pt_clust_9="89.04225"></scales>
<clustering>
<clus scale="   89.042">  2  9  1 -1</clus>
<clus scale="   92.289">  5  6 -1 -1</clus>
<clus scale="   93.112">  7  8 -1 -1</clus>
<clus scale="  111.810">  2  5  1 -1</clus>
<clus scale="   89.042">  2  5  1 -1</clus>
</clustering>
</event>
<event>
 9    1  0.1399746E-005  0.1371435E+03  0.7546771E-02  0.1218026E+00
         21   -1    0    0  501  502  0.00000000000E+00  0.00000000000E+00  0.37062347293E+02  0.37062347293E+02  0.00000000000E+00 0.  1.
          2   -1    0    0  502    0 -0.00000000000E+00 -0.00000000000E+00 -0.80630292256E+03  0.80630292256E+03  0.00000000000E+00 0. -1.
         23    2    1    2    0    0  0.10624686685E+03  0.23236073049E+02 -0.59086604497E+03  0.60720017994E+03  0.87983314402E+02 0.  0.
         23    2    1    2    0    0 -0.78668674349E+02 -0.32840230238E+02 -0.15199291086E+03  0.19681046654E+03  0.91461870430E+02 0.  0.
        -11    1    3    3    0    0  0.33342334523E+02 -0.33370555059E+02 -0.17824257539E+03  0.18437928543E+03  0.00000000000E+00 0.  1.
         11    1    3    3    0    0  0.72904532324E+02  0.56606628108E+02 -0.41262346958E+03  0.42282089450E+03  0.00000000000E+00 0. -1.
        -11    1    4    4    0    0 -0.74965402136E+02 -0.52705781418E+02 -0.78738620060E+02  0.12082003642E+03  0.00000000000E+00 0.  1.
         11    1    4    4    0    0 -0.37032722127E+01  0.19865551181E+02 -0.73254290804E+02  0.75990430121E+02  0.00000000000E+00 0. -1.
          2    1    1    2  501    0 -0.27578192498E+02  0.96041571887E+01 -0.26381619430E+02  0.39354623369E+02  0.00000000000E+00 0. -1.
<scales pt_clust_5="13000.00000" pt_clust_6="13000.00000" pt_clust_7="13000.00000" pt_clust_8="13000.00000" pt_clust_9="29.20268"></scales>
<clustering>
<clus scale="   29.203">  1  9  2 -1</clus>
<clus scale="   87.983">  5  6 -1 -1</clus>
<clus scale="   91.462">  7  8 -1 -1</clus>
<clus scale="  134.849">  2  5  1 -1</clus>
<clus scale="   29.203">  1  5  2 -1</clus>
</clustering>
</event>
<event>
 9    1  0.1399746E-005  0.1368305E+03  0.7546771E-02  0.1218227E+00
          2   -1    0    0  502    0 -0.00000000000E+00  0.00000000000E+00  0.78042226901E+03  0.78042226901E+03  0.00000000000E+00 0. -1.
         21   -1    0    0  501  502  0.00000000000E+00 -0.00000000000E+00 -0.31870053443E+02  0.31870053443E+02  0.00000000000E+00 0. -1.
         23    2    1    2    0    0  0.72720951370E+02 -0.65445777762E+02  0.32444627085E+03  0.35071750395E+03  0.90365360135E+02 0.  0.
         23    2    1    2    0    0 -0.61701649802E+02  0.85757227929E+02  0.25763043620E+03  0.29350318214E+03  0.92786208771E+02 0.  0.
        -11    1    3    3    0    0 -0.18537324929E+02 -0.11154706355E+02  0.25327292034E+02  0.33309632408E+02  0.00000000000E+00 0. -1.
         11    1    3    3    0    0  0.91258276300E+02 -0.54291071407E+02  0.29911897881E+03  0.31740787154E+03  0.00000000000E+00 0.  1.
        -13    1    4    4    0    0 -0.21160551956E+02  0.43528583549E+02  0.26714436235E+02  0.55282616149E+02  0.00000000000E+00 0. -1.
         13    1    4    4    0    0 -0.40541097846E+02  0.42228644380E+02  0.23091599996E+03  0.23822056599E+03  0.00000000000E+00 0.  1.
          2    1    1    2  501    0 -0.11019301568E+02 -0.20311450167E+02  0.16647550852E+03  0.16807163637E+03  0.00000000000E+00 0. -1.
<scales pt_clust_5="13000.00000" pt_clust_6="13000.00000" pt_clust_7="13000.00000" pt_clust_8="13000.00000" pt_clust_9="23.10802"></scales>
<clustering>
<clus scale="   23.108">  2  9  1 -1</clus>
<clus scale="   90.365">  5  6 -1 -1</clus>
<clus scale="   92.786">  7  8 -1 -1</clus>
<clus scale="  135.201">  1  5  2 -1</clus>
<clus scale="   23.108">  2  5  1 -1</clus>
</clustering>
</event>
<event>
 9    1  0.1399746E-005  0.1103842E+03  0.7546771E-02  0.1260133E+00
         21   -1    0    0  501  502  0.00000000000E+00  0.00000000000E+00  0.17694657955E+03  0.17694657955E+03  0.00000000000E+00 0.  1.
         -1   -1    0    0    0  501 -0.00000000000E+00 -0.00000000000E+00 -0.14240539611E+03  0.14240539611E+03  0.00000000000E+00 0.  1.
         23    2    1    2    0    0 -0.48376417179E+02  0.55997028767E+02 -0.59963006921E+02  0.13213568934E+03  0.91587844324E+02 0.  0.
         23    2    1    2    0    0  0.28186553839E+02 -0.30824523235E+02  0.14640043868E+02  0.10107937490E+03  0.90873957189E+02 0.  0.
        -11    1    4    4    0    0 -0.31532013680E+02 -0.41925549849E+01 -0.62860029980E+01  0.32424670202E+02  0.00000000000E+00 0.  1.
         11    1    4    4    0    0  0.59718567519E+02 -0.26631968250E+02  0.20926046866E+02  0.68654704695E+02  0.00000000000E+00 0. -1.
        -13    1    3    3    0    0  0.21221657252E+02  0.20083404325E+01  0.59383171806E+01  0.22128167090E+02  0.00000000000E+00 0. -1.
         13    1    3    3    0    0 -0.69598074432E+02  0.53988688334E+02 -0.65901324101E+02  0.11000752225E+03  0.00000000000E+00 0.  1.
         -1    1    1    2    0  502  0.20189863340E+02 -0.25172505532E+02  0.79864146486E+02  0.86136911429E+02  0.00000000000E+00 0.  1.
<scales pt_clust_5="13000.00000" pt_clust_6="13000.00000" pt_clust_7="13000.00000" pt_clust_8="13000.00000" pt_clust_9="32.26896"></scales>
<clustering>
<clus scale="   32.269">  1  9  2 -1</clus>
<clus scale="   90.874">  5  6 -1 -1</clus>
<clus scale="   91.588">  7  8 -1 -1</clus>
<clus scale="  109.793">  1  5  2 -1</clus>
<clus scale="   32.269">  1  5  2 -1</clus>
</clustering>
</event>
<event>
 9    1  0.1399746E-005  0.1161562E+03  0.7546771E-02  0.1250181E+00
          2   -1    0    0  502    0 -0.00000000000E+00  0.00000000000E+00  0.74806818691E+03  0.74806818691E+03  0.00000000000E+00 0. -1.
         21   -1    0    0  501  502  0.00000000000E+00 -0.00000000000E+00 -0.28047408322E+02  0.28047408322E+02  0.00000000000E+00 0.  1.
         23    2    1    2    0    0 -0.70419947110E+02 -0.34937530450E+02  0.50961327143E+03  0.52326421227E+03  0.88995221428E+02 0.  0.
         23    2    1    2    0    0  0.55631190295E+02  0.11831947496E+02  0.13333252995E+03  0.17103984708E+03  0.90786791067E+02 0.  0.
        -11    1    4    4    0    0  0.17473459100E+02  0.31246749603E+02  0.54900850664E+01  0.36219085683E+02  0.00000000000E+00 0.  1.
         11    1    4    4    0    0  0.38157731195E+02 -0.19414802107E+02  0.12784244488E+03  0.13482076140E+03  0.00000000000E+00 0. -1.
        -13    1    3    3    0    0 -0.25473029399E+01  0.19975006359E+02  0.32527734800E+02  0.38256282655E+02  0.00000000000E+00 0.  1.
         13    1    3    3    0    0 -0.67872644170E+02 -0.54912536809E+02  0.47708553663E+03  0.48500792962E+03  0.00000000000E+00 0. -1.
          2    1    1    2  501    0  0.14788756815E+02  0.23105582954E+02  0.77074977209E+02  0.81811535883E+02  0.00000000000E+00 0. -1.
<scales pt_clust_5="13000.00000" pt_clust_6="13000.00000" pt_clust_7="13000.00000" pt_clust_8="13000.00000" pt_clust_9="27.43312"></scales>
<clustering>
<clus scale="   27.433">  2  9  1 -1</clus>
<clus scale="   88.995">  7  8 -1 -1</clus>
<clus scale="   90.787">  5  6 -1 -1</clus>
<clus scale="  114.761">  1  7  2 -1</clus>
<clus scale="   27.433">  2  5  1 -1</clus>
</clustering>
</event>
<event>
 9    1  0.1399746E-005  0.1428305E+03  0.7546771E-02  0.1212996E+00
          1   -1    0    0  502    0 -0.00000000000E+00  0.00000000000E+00  0.68396802362E+03  0.68396802362E+03  0.00000000000E+00 0. -1.
         21   -1    0    0  501  502  0.00000000000E+00 -0.00000000000E+00 -0.79632128743E+02  0.79632128743E+02  0.00000000000E+00 0. -1.
         23    2    1    2    0    0 -0.10883010287E+01 -0.10487468406E+03  0.48862411716E+03  0.50773045477E+03  0.89648218490E+02 0.  0.
         23    2    1    2    0    0 -0.16996722016E+01  0.15229129143E+03  0.52270790755E+02  0.17661778104E+03  0.72567752363E+02 0.  0.
        -11    1    3    3    0    0 -0.41223240389E+02 -0.50273941844E+02  0.30861544532E+03  0.31538915306E+03  0.00000000000E+00 0.  1.
         11    1    3    3    0    0  0.40134939360E+02 -0.54600742217E+02  0.18000867184E+03  0.19234130171E+03  0.00000000000E+00 0. -1.
        -11    1    4    4    0    0  0.34697700754E+02  0.60105145407E+02  0.25694109556E+02  0.74005041773E+02  0.00000000000E+00 0.  1.
         11    1    4    4    0    0 -0.36397372955E+02  0.92186146027E+02  0.26576681199E+02  0.10261273927E+03  0.00000000000E+00 0. -1.
          1    1    1    2  501    0  0.27879732303E+01 -0.47416607373E+02  0.63440986970E+02  0.79251916552E+02  0.00000000000E+00 0. -1.
<scales pt_clust_5="13000.00000" pt_clust_6="13000.00000" pt_clust_7="13000.00000" pt_clust_8="13000.00000" pt_clust_9="47.49852"></scales>
<clustering>
<clus scale="   47.499">  2  9  1 -1</clus>
<clus scale="   72.568">  7  8 -1 -1</clus>
<clus scale="   89.648">  5  6 -1 -1</clus>
<clus scale="  132.777">  2  7  1 -1</clus>
<clus scale="   47.499">  2  5  1 -1</clus>
</clustering>
</event>
<event>
 9    1  0.1399746E-005  0.1586636E+03  0.7546771E-02  0.1190278E+00
          1   -1    0    0  502    0 -0.00000000000E+00  0.00000000000E+00  0.81144546385E+03  0.81144546385E+03  0.00000000000E+00 0. -1.
         21   -1    0    0  501  502  0.00000000000E+00 -0.00000000000E+00 -0.17686709221E+03  0.17686709221E+03  0.00000000000E+00 0.  1.
         23    2    1    2    0    0 -0.67518863535E+02 -0.10249587966E+03  0.52420501725E+03  0.54585364831E+03  0.90006127482E+02 0.  0.
         23    2    1    2    0    0  0.21871215017E+02  0.24432541078E+03  0.77542919827E+01  0.26154457530E+03  0.90400107439E+02 0.  0.
        -13    1    4    4    0    0 -0.21747465216E+02  0.86635896352E+02 -0.28891115679E+02  0.93879855908E+02  0.00000000000E+00 0. -1.
         13    1    4    4    0    0  0.43618680233E+02  0.15768951443E+03  0.36645407662E+02  0.16766471939E+03  0.00000000000E+00 0.  1.
        -13    1    3    3    0    0 -0.22345298184E+02  0.14235145105E+02  0.75292541449E+02  0.79818033708E+02  0.00000000000E+00 0.  1.
         13    1    3    3    0    0 -0.45173565351E+02 -0.11673102477E+03  0.44891247580E+03  0.46603561460E+03  0.00000000000E+00 0. -1.
          1    1    1    2  501    0  0.45647648517E+02 -0.14182953112E+03  0.10261906242E+03  0.18091433245E+03  0.00000000000E+00 0. -1.
<scales pt_clust_5="13000.00000" pt_clust_6="13000.00000" pt_clust_7="13000.00000" pt_clust_8="13000.00000" pt_clust_9="148.99437"></scales>
<clustering>
<clus scale="   90.006">  7  8 -1 -1</clus>
<clus scale="   90.400">  5  6 -1 -1</clus>
<clus scale="  148.994">  2  9  1 -1</clus>
<clus scale="  158.439">  1  7  2 -1</clus>
<clus scale="  148.994">  2  5  1 -1</clus>
</clustering>
</event>
<event>
 9    1  0.1399746E-005  0.1918376E+03  0.7546771E-02  0.1161397E+00
         -1   -1    0    0    0  501 -0.00000000000E+00  0.00000000000E+00  0.14217426688E+04  0.14217426688E+04  0.00000000000E+00 0.  1.
         21   -1    0    0  501  502  0.00000000000E+00 -0.00000000000E+00 -0.61445924420E+02  0.61445924420E+02  0.00000000000E+00 0.  1.
         23    2    1    2    0    0  0.10977369377E+03 -0.67481223753E+02  0.76602852586E+03  0.78195008904E+03  0.89678648068E+02 0.  0.
         23    2    1    2    0    0 -0.19618145116E+03  0.13006861803E+03  0.42425859206E+03  0.50052289555E+03  0.12297483018E+03 0.  0.
        -11    1    3    3    0    0  0.37597340319E+02  0.20446825905E+02  0.18439488424E+03  0.18929634445E+03  0.00000000000E+00 0. -1.
         11    1    3    3    0    0  0.72176353451E+02 -0.87928049658E+02  0.58163364162E+03  0.59265374459E+03  0.00000000000E+00 0.  1.
        -13    1    4    4    0    0 -0.10184936624E+03  0.12943089949E+03  0.32016626561E+03  0.36004456499E+03  0.00000000000E+00 0.  1.
         13    1    4    4    0    0 -0.94332084923E+02  0.63771853985E+00  0.10409232645E+03  0.14047833056E+03  0.00000000000E+00 0. -1.
         -1    1    1    2    0  502  0.86407757389E+02 -0.62587394277E+02  0.17000962649E+03  0.20071560866E+03  0.00000000000E+00 0.  1.
<scales pt_clust_5="13000.00000" pt_clust_6="13000.00000" pt_clust_7="13000.00000" pt_clust_8="13000.00000" pt_clust_9="106.69340"></scales>
<clustering>
<clus scale="   89.679">  5  6 -1 -1</clus>
<clus scale="  106.693">  2  9  1 -1</clus>
<clus scale="  122.975">  7  8 -1 -1</clus>
<clus scale="  172.398">  1  5  2 -1</clus>
<clus scale="  106.693">  2  5  1 -1</clus>
</clustering>
</event>
<event>
 9    1  0.1399746E-005  0.9136510E+02  0.7546771E-02  0.1300842E+00
         21   -1    0    0  501  502  0.00000000000E+00  0.00000000000E+00  0.14245325800E+03  0.14245325800E+03  0.00000000000E+00 0.  1.
          3   -1    0    0  502    0 -0.00000000000E+00 -0.00000000000E+00 -0.21465773060E+03  0.21465773060E+03  0.00000000000E+00 0. -1.
         23    2    1    2    0    0  0.78863744086E+01 -0.13589467923E+02 -0.16081611953E+03  0.18510053710E+03  0.90296821619E+02 0.  0.
         23    2    1    2    0    0  0.13709736163E+02  0.23129237540E+01  0.10854506517E+03  0.14053198896E+03  0.88169735544E+02 0.  0.
        -11    1    3    3    0    0 -0.14068554558E+01  0.29243058428E+02 -0.15111979802E+02  0.32947042994E+02  0.00000000000E+00 0.  1.
         11    1    3    3    0    0  0.92932298643E+01 -0.42832526351E+02 -0.14570413973E+03  0.15215349411E+03  0.00000000000E+00 0. -1.
        -11    1    4    4    0    0  0.32454377507E+02 -0.11272890122E+02  0.11197668395E+03  0.11712874292E+03  0.00000000000E+00 0.  1.
         11    1    4    4    0    0 -0.18744641345E+02  0.13585813876E+02 -0.34316187713E+01  0.23403246040E+02  0.00000000000E+00 0. -1.
          3    1    1    2  501    0 -0.21596110571E+02  0.11276544169E+02 -0.19933418240E+02  0.31478462525E+02  0.00000000000E+00 0. -1.
<scales pt_clust_5="13000.00000" pt_clust_6="13000.00000" pt_clust_7="13000.00000" pt_clust_8="13000.00000" pt_clust_9="24.36294"></scales>
<clustering>
<clus scale="   24.363">  1  9  2 -1</clus>
<clus scale="   88.170">  7  8 -1 -1</clus>
<clus scale="   89.263">  1  7  2 -1</clus>
<clus scale="   90.297">  5  6 -1 -1</clus>
<clus scale="   24.363">  1  5  2 -1</clus>
</clustering>
</event>
<event>
 9    1  0.1407080E-005  0.1048494E+03  0.7546771E-02  0.1271999E+00
         21   -1    0    0  501  502  0.00000000000E+00  0.00000000000E+00  0.10572893536E+03  0.10572893536E+03  0.00000000000E+00 0. -1.
          1   -1    0    0  502    0 -0.00000000000E+00 -0.00000000000E+00 -0.33796533949E+03  0.33796533949E+03  0.00000000000E+00 0. -1.
         23    2    1    2    0    0  0.44727754691E+02  0.14869832025E+02 -0.23526508056E+03  0.25589421883E+03  0.88941043140E+02 0.  0.
         23    2    1    2    0    0 -0.68022138748E+02  0.34411575661E+02 -0.30626925452E+02  0.12373770350E+03  0.92530226440E+02 0.  0.
        -11    1    4    4    0    0 -0.62800233291E+02  0.58343572882E+02 -0.43435163359E+02  0.96096072833E+02  0.00000000000E+00 0. -1.
         11    1    4    4    0    0 -0.52219054575E+01 -0.23931997221E+02  0.12808237907E+02  0.27641630665E+02  0.00000000000E+00 0.  1.
        -11    1    3    3    0    0 -0.10765123756E+02  0.38752738453E+02 -0.91267831907E+02  0.99737053135E+02  0.00000000000E+00 0.  1.
         11    1    3    3    0    0  0.55492878447E+02 -0.23882906427E+02 -0.14399724865E+03  0.15615716569E+03  0.00000000000E+00 0. -1.
          1    1    1    2  501    0  0.23294384057E+02 -0.49281407686E+02  0.33655601884E+02  0.64062352520E+02  0.00000000000E+00 0. -1.
<scales pt_clust_5="13000.00000" pt_clust_6="13000.00000" pt_clust_7="13000.00000" pt_clust_8="13000.00000" pt_clust_9="54.50950"></scales>
<clustering>
<clus scale="   54.509">  1  9  2 -1</clus>
<clus scale="   88.941">  7  8 -1 -1</clus>
<clus scale="   92.530">  5  6 -1 -1</clus>
<clus scale="  101.696">  2  7  1 -1</clus>
<clus scale="   54.509">  1  5  2 -1</clus>
</clustering>
</event>
<event>
 9    1  0.1399746E-005  0.1664712E+03  0.7546771E-02  0.1181615E+00
         21   -1    0    0  501  502  0.00000000000E+00  0.00000000000E+00  0.82825619021E+03  0.82825619021E+03  0.00000000000E+00 0. -1.
         -3   -1    0    0    0  501 -0.00000000000E+00 -0.00000000000E+00 -0.26615699561E+03  0.26615699561E+03  0.00000000000E+00 0.  1.
         23    2    1    2    0    0 -0.12232147708E+03  0.66919526105E+02 -0.22457135582E+03  0.27980159726E+03  0.91738068674E+02 0.  0.
         23    2    1    2    0    0  0.13045837349E+03 -0.30312702410E+02  0.50381136764E+03  0.52927742324E+03  0.91490160381E+02 0.  0.
        -13    1    3    3    0    0 -0.24727270450E+02  0.55207009867E+02 -0.13006765439E+03  0.14344631944E+03  0.00000000000E+00 0.  1.
         13    1    3    3    0    0 -0.97594206634E+02  0.11712516238E+02 -0.94503701427E+02  0.13635527782E+03  0.00000000000E+00 0. -1.
        -13    1    4    4    0    0  0.83553636256E+02 -0.16002109742E+02  0.44330342763E+03  0.45139251943E+03  0.00000000000E+00 0. -1.
         13    1    4    4    0    0  0.46904737230E+02 -0.14310592668E+02  0.60507940009E+02  0.77884903808E+02  0.00000000000E+00 0.  1.
         -3    1    1    2    0  502 -0.81368964020E+01 -0.36606823695E+02  0.28285918278E+03  0.28533416533E+03  0.00000000000E+00 0.  1.
<scales pt_clust_5="13000.00000" pt_clust_6="13000.00000" pt_clust_7="13000.00000" pt_clust_8="13000.00000" pt_clust_9="37.50025"></scales>
<clustering>
<clus scale="   37.500">  1  9  2 -1</clus>
<clus scale="   91.490">  7  8 -1 -1</clus>
<clus scale="   91.738">  5  6 -1 -1</clus>
<clus scale="  166.335">  1  7  2 -1</clus>
<clus scale="   37.500">  1  5  2 -1</clus>
</clustering>
</event>
<event>
 9    1  0.1399746E-005  0.1099487E+03  0.7546771E-02  0.1261889E+00
         -1   -1    0    0    0  501 -0.00000000000E+00  0.00000000000E+00  0.71752626815E+02  0.71752626815E+02  0.00000000000E+00 0.  1.
         21   -1    0    0  501  502  0.00000000000E+00 -0.00000000000E+00 -0.24527329297E+03  0.24527329297E+03  0.00000000000E+00 0. -1.
         23    2    1    2    0    0  0.23849798237E+02 -0.35299453098E+02 -0.44309653941E+02  0.11230206368E+03  0.93986934252E+02 0.  0.
         23    2    1    2    0    0 -0.45177583951E+02  0.66162672125E+02 -0.95561656039E+02  0.15432850013E+03  0.90921628750E+02 0.  0.
        -11    1    3    3    0    0 -0.25518187223E+02 -0.20399387312E+02  0.13041333776E+02  0.35176544295E+02  0.00000000000E+00 0.  1.
         11    1    3    3    0    0  0.49367985460E+02 -0.14900065785E+02 -0.57350987716E+02  0.77125519388E+02  0.00000000000E+00 0. -1.
        -11    1    4    4    0    0  0.27106394218E+02  0.21184126260E+02 -0.16541985354E+02  0.38172779469E+02  0.00000000000E+00 0. -1.
         11    1    4    4    0    0 -0.72283978170E+02  0.44978545865E+02 -0.79019670686E+02  0.11615572067E+03  0.00000000000E+00 0.  1.
         -1    1    1    2    0  502  0.21327785714E+02 -0.30863219027E+02 -0.33649356176E+02  0.50395355969E+02  0.00000000000E+00 0.  1.
<scales pt_clust_5="13000.00000" pt_clust_6="13000.00000" pt_clust_7="13000.00000" pt_clust_8="13000.00000" pt_clust_9="37.51550"></scales>
<clustering>
<clus scale="   37.515">  2  9  1 -1</clus>
<clus scale="   90.922">  7  8 -1 -1</clus>
<clus scale="   93.987">  5  6 -1 -1</clus>
<clus scale="  107.340">  2  7  1 -1</clus>
<clus scale="   37.515">  2  5  1 -1</clus>
</clustering>
</event>
<event>
 9    1  0.1399746E-005  0.1805208E+03  0.7546771E-02  0.1167354E+00
          4   -1    0    0  502    0 -0.00000000000E+00  0.00000000000E+00  0.16193580651E+04  0.16193580651E+04  0.00000000000E+00 0. -1.
         21   -1    0    0  501  502  0.00000000000E+00 -0.00000000000E+00 -0.26914673009E+02  0.26914673009E+02  0.00000000000E+00 0.  1.
         23    2    1    2    0    0  0.11683752420E+03 -0.87705384902E+02  0.88157187530E+03  0.89826629672E+03  0.91488397690E+02 0.  0.
         23    2    1    2    0    0 -0.12819489990E+03  0.11281807072E+03  0.67756894008E+03  0.70477799489E+03  0.91926623330E+02 0.  0.
        -13    1    3    3    0    0  0.10190498831E+03 -0.21050270904E+02  0.52702138286E+03  0.53719575439E+03  0.00000000000E+00 0.  1.
         13    1    3    3    0    0  0.14932535889E+02 -0.66655113998E+02  0.35455049244E+03  0.36107054233E+03  0.00000000000E+00 0. -1.
        -13    1    4    4    0    0 -0.61114452288E+02  0.49148461112E+01  0.14833928806E+03  0.16051067371E+03  0.00000000000E+00 0. -1.
         13    1    4    4    0    0 -0.67080447612E+02  0.10790322461E+03  0.52922965201E+03  0.54426732118E+03  0.00000000000E+00 0.  1.
          4    1    1    2  501    0  0.11357375701E+02 -0.25112685815E+02  0.33302576756E+02  0.43228446539E+02  0.00000000000E+00 0. -1.
<scales pt_clust_5="13000.00000" pt_clust_6="13000.00000" pt_clust_7="13000.00000" pt_clust_8="13000.00000" pt_clust_9="27.56151"></scales>
<clustering>
<clus scale="   27.562">  2  9  1 -1</clus>
<clus scale="   91.488">  5  6 -1 -1</clus>
<clus scale="   91.927">  7  8 -1 -1</clus>
<clus scale="  180.298">  1  5  2 -1</clus>
<clus scale="   27.562">  2  5  1 -1</clus>
</clustering>
</event>
<event>
 9    1  0.1399746E-005  0.1052995E+03  0.7546771E-02  0.1270551E+00
          1   -1    0    0  502    0 -0.00000000000E+00  0.00000000000E+00  0.79917919903E+03  0.79917919903E+03  0.00000000000E+00 0. -1.
         21   -1    0    0  501  502  0.00000000000E+00 -0.00000000000E+00 -0.15806236302E+03  0.15806236302E+03  0.00000000000E+00 0. -1.
         23    2    1    2    0    0  0.53710337783E+02 -0.26560984295E+02  0.63169998215E+03  0.64111453508E+03  0.91611644309E+02 0.  0.
         23    2    1    2    0    0 -0.35989877719E+02 -0.20213104499E+02  0.14296914769E+03  0.17351550825E+03  0.89239080675E+02 0.  0.
        -11    1    3    3    0    0  0.47617736896E+02  0.27543202299E+02  0.32199185040E+03  0.32665705041E+03  0.00000000000E+00 0. -1.
         11    1    3    3    0    0  0.60926008870E+01 -0.54104186594E+02  0.30970813174E+03  0.31445748466E+03  0.00000000000E+00 0.  1.
        -13    1    4    4    0    0 -0.26720315318E+02 -0.46468826656E+02  0.40094939762E+02  0.66939758709E+02  0.00000000000E+00 0. -1.
         13    1    4    4    0    0 -0.92695624005E+01  0.26255722157E+02  0.10287420793E+03  0.10657574954E+03  0.00000000000E+00 0.  1.
          1    1    1    2  501    0 -0.17720460064E+02  0.46774088794E+02 -0.13355229382E+03  0.14261151872E+03  0.00000000000E+00 0. -1.
<scales pt_clust_5="13000.00000" pt_clust_6="13000.00000" pt_clust_7="13000.00000" pt_clust_8="13000.00000" pt_clust_9="50.01830"></scales>
<clustering>
<clus scale="   50.018">  2  9  1 -1</clus>
<clus scale="   89.239">  7  8 -1 -1</clus>
<clus scale="   91.612">  5  6 -1 -1</clus>
<clus scale="  103.242">  2  7  1 -1</clus>
<clus scale="   50.018">  2  5  1 -1</clus>
</clustering>
</event>
<event>
 9    1  0.1399746E-005  0.4732532E+03  0.7546771E-02  0.1021044E+00
         21   -1    0    0  501  502  0.00000000000E+00  0.00000000000E+00  0.26318443555E+03  0.26318443555E+03  0.00000000000E+00 0.  1.
          2   -1    0    0  502    0 -0.00000000000E+00 -0.00000000000E+00 -0.12512910935E+04  0.12512910935E+04  0.00000000000E+00 0. -1.
         23    2    1    2    0    0 -0.39700106176E+03 -0.29014945472E+03 -0.72657946801E+03  0.88196595512E+03  0.90275542412E+02 0.  0.
         23    2    1    2    0    0  0.31381842198E+03  0.28758773636E+03 -0.31134052015E+03  0.53551843097E+03  0.93050321515E+02 0.  0.
        -11    1    4    4    0    0  0.26316675379E+03  0.23956311400E+03 -0.21241808452E+03  0.41444983836E+03  0.00000000000E+00 0. -1.
         11    1    4    4    0    0  0.50651668199E+02  0.48024622365E+02 -0.98922435627E+02  0.12106859260E+03  0.00000000000E+00 0.  1.
        -13    1    3    3    0    0 -0.32586644681E+03 -0.27272975733E+03 -0.59156908860E+03  0.72837109243E+03  0.00000000000E+00 0.  1.
         13    1    3    3    0    0 -0.71134614944E+02 -0.17419697391E+02 -0.13501037940E+03  0.15359486270E+03  0.00000000000E+00 0. -1.
          2    1    1    2  501    0  0.83182639770E+02  0.25617183568E+01  0.49813330161E+02  0.96991143007E+02  0.00000000000E+00 0. -1.
<scales pt_clust_5="13000.00000" pt_clust_6="13000.00000" pt_clust_7="13000.00000" pt_clust_8="13000.00000" pt_clust_9="83.22208"></scales>
<clustering>
<clus scale="   83.222">  1  9  2 -1</clus>
<clus scale="   90.276">  7  8 -1 -1</clus>
<clus scale="   93.050">  5  6 -1 -1</clus>
<clus scale="  472.715">  2  7  1 -1</clus>
<clus scale="   83.222">  1  5  2 -1</clus>
</clustering>
</event>
<event>
 9    1  0.1399746E-005  0.1062632E+03  0.7546771E-02  0.1279663E+00
         21   -1    0    0  501  502  0.00000000000E+00  0.00000000000E+00  0.18143892255E+03  0.18143892255E+03  0.00000000000E+00 0. -1.
          2   -1    0    0  502    0 -0.00000000000E+00 -0.00000000000E+00 -0.15052206641E+03  0.15052206641E+03  0.00000000000E+00 0. -1.
         23    2    1    2    0    0 -0.10683950415E+02 -0.46656904211E+02 -0.86183888353E+02  0.12172805380E+03  0.71407583379E+02 0.  0.
         23    2    1    2    0    0 -0.11540869173E+02  0.37441331749E+02  0.14660817682E+02  0.10500552435E+03  0.96312904556E+02 0.  0.
        -13    1    4    4    0    0 -0.42226907549E+02  0.14606747319E+02  0.39300642044E+02  0.59506379940E+02  0.00000000000E+00 0.  1.
         13    1    4    4    0    0  0.30686038376E+02  0.22834584430E+02 -0.24639824362E+02  0.45499144408E+02  0.00000000000E+00 0. -1.
        -13    1    3    3    0    0  0.22669180486E+02 -0.16514393640E+01 -0.50316248902E+02  0.55211809420E+02  0.00000000000E+00 0. -1.
         13    1    3    3    0    0 -0.33353130901E+02 -0.45005464847E+02 -0.35867639450E+02  0.66516244383E+02  0.00000000000E+00 0.  1.
          2    1    1    2  501    0  0.22224819589E+02  0.92155724620E+01  0.10243992681E+03  0.10522741081E+03  0.00000000000E+00 0. -1.
<scales pt_clust_5="13000.00000" pt_clust_6="13000.00000" pt_clust_7="13000.00000" pt_clust_8="13000.00000" pt_clust_9="24.05970"></scales>
<clustering>
<clus scale="   24.060">  1  9  2 -1</clus>
<clus scale="   71.408">  7  8 -1 -1</clus>
<clus scale="   84.349">  2  7  1 -1</clus>
<clus scale="   96.313">  5  6 -1 -1</clus>
<clus scale="   24.060">  1  5  2 -1</clus>
</clustering>
</event>
<event>
 9    1  0.1399746E-005  0.1153191E+03  0.7546771E-02  0.1252935E+00
          1   -1    0    0  502    0 -0.00000000000E+00  0.00000000000E+00  0.31677393301E+03  0.31677393301E+03  0.00000000000E+00 0. -1.
         21   -1    0    0  501  502  0.00000000000E+00 -0.00000000000E+00 -0.13330808626E+03  0.13330808626E+03  0.00000000000E+00 0.  1.
         23    2    1    2    0    0 -0.32842851336E+02  0.53334177578E+02  0.20368356619E+03  0.23164797988E+03  0.90832835814E+02 0.  0.
         23    2    1    2    0    0  0.57281449708E+02 -0.41493885023E+02  0.60160312471E+02  0.13359262478E+03  0.96045922479E+02 0.  0.
        -13    1    3    3    0    0  0.14775682274E+02 -0.17238445963E+02  0.25324337481E+02  0.34011863735E+02  0.00000000000E+00 0.  1.
         13    1    3    3    0    0 -0.47618533610E+02  0.70572623541E+02  0.17835922871E+03  0.19763611614E+03  0.00000000000E+00 0. -1.
        -13    1    4    4    0    0  0.46644219142E+02  0.22771597608E+02  0.39593594803E+02  0.65283088058E+02  0.00000000000E+00 0. -1.
         13    1    4    4    0    0  0.10637230566E+02 -0.64265482631E+02  0.20566717667E+02  0.68309536725E+02  0.00000000000E+00 0.  1.
          1    1    1    2  501    0 -0.24438598372E+02 -0.11840292554E+02 -0.80378031912E+02  0.84841414605E+02  0.00000000000E+00 0. -1.
<scales pt_clust_5="13000.00000" pt_clust_6="13000.00000" pt_clust_7="13000.00000" pt_clust_8="13000.00000" pt_clust_9="27.15580"></scales>
<clustering>
<clus scale="   27.156">  2  9  1 -1</clus>
<clus scale="   90.833">  5  6 -1 -1</clus>
<clus scale="   96.046">  7  8 -1 -1</clus>
<clus scale="  111.015">  1  5  2 -1</clus>
<clus scale="   27.156">  2  5  1 -1</clus>
</clustering>
</event>
<event>
 9    1  0.1399746E-005  0.9690926E+02  0.7546771E-02  0.1290279E+00
         21   -1    0    0  501  502  0.00000000000E+00  0.00000000000E+00  0.14393617198E+03  0.14393617198E+03  0.00000000000E+00 0. -1.
         -3   -1    0    0    0  501 -0.00000000000E+00 -0.00000000000E+00 -0.11710276462E+03  0.11710276462E+03  0.00000000000E+00 0.  1.
         23    2    1    2    0    0 -0.29841055077E+02  0.90521315241E+01 -0.34005621475E+02  0.10133498562E+03  0.90221767693E+02 0.  0.
         23    2    1    2    0    0  0.49674250735E+02 -0.17248894325E+01  0.83759383605E+02  0.12852083392E+03  0.83853825073E+02 0.  0.
        -11    1    3    3    0    0  0.32384642850E+00 -0.20879235212E+02  0.22458666236E+02  0.30666578365E+02  0.00000000000E+00 0. -1.
         11    1    3    3    0    0 -0.30164901505E+02  0.29931366736E+02 -0.56464287710E+02  0.70668407256E+02  0.00000000000E+00 0.  1.
        -11    1    4    4    0    0 -0.23227791414E+02 -0.73166447004E+01  0.21686443942E+02  0.32609284483E+02  0.00000000000E+00 0.  1.
         11    1    4    4    0    0  0.72902042149E+02  0.55917552679E+01  0.62072939662E+02  0.95911549434E+02  0.00000000000E+00 0. -1.
         -3    1    1    2    0  502 -0.19833195659E+02 -0.73272420915E+01 -0.22920354776E+02  0.31183117063E+02  0.00000000000E+00 0.  1.
<scales pt_clust_5="13000.00000" pt_clust_6="13000.00000" pt_clust_7="13000.00000" pt_clust_8="13000.00000" pt_clust_9="21.14343"></scales>
<clustering>
<clus scale="   21.143">  1  9  2 -1</clus>
<clus scale="   83.854">  7  8 -1 -1</clus>
<clus scale="   90.222">  5  6 -1 -1</clus>
<clus scale="   91.010">  1  7  2 -1</clus>
<clus scale="   21.143">  1  5  2 -1</clus>
</clustering>
</event>
<event>
 9    1  0.1399746E-005  0.1116147E+03  0.7546771E-02  0.1258321E+00
          3   -1    0    0  502    0 -0.00000000000E+00  0.00000000000E+00  0.16068053519E+03  0.16068053519E+03  0.00000000000E+00 0. -1.
         21   -1    0    0  501  502  0.00000000000E+00 -0.00000000000E+00 -0.18034269953E+03  0.18034269953E+03  0.00000000000E+00 0. -1.
         23    2    1    2    0    0  0.13501344491E+02 -0.55941434512E+02  0.95068620231E+02  0.14481438588E+03  0.92851674231E+02 0.  0.
         23    2    1    2    0    0  0.16452592503E+01  0.82215099233E+02 -0.67227401798E+02  0.13985020763E+03  0.90975423070E+02 0.  0.
        -11    1    3    3    0    0 -0.15550669676E+02 -0.69782879025E+02  0.42485446301E+02  0.83165417571E+02  0.00000000000E+00 0.  1.
         11    1    3    3    0    0  0.29052014166E+02  0.13841444513E+02  0.52583173929E+02  0.61648968311E+02  0.00000000000E+00 0. -1.
        -11    1    4    4    0    0  0.45570079673E+02  0.32007221471E+02 -0.26294809057E+02  0.61583369273E+02  0.00000000000E+00 0.  1.
         11    1    4    4    0    0 -0.43924820422E+02  0.50207877762E+02 -0.40932592741E+02  0.78266838361E+02  0.00000000000E+00 0. -1.
          3    1    1    2  501    0 -0.15146603741E+02 -0.26273664721E+02 -0.47503382772E+02  0.56358641197E+02  0.00000000000E+00 0. -1.
<scales pt_clust_5="13000.00000" pt_clust_6="13000.00000" pt_clust_7="13000.00000" pt_clust_8="13000.00000" pt_clust_9="30.32697"></scales>
<clustering>
<clus scale="   30.327">  2  9  1 -1</clus>
<clus scale="   90.975">  7  8 -1 -1</clus>
<clus scale="   92.852">  5  6 -1 -1</clus>
<clus scale="  110.059">  2  7  1 -1</clus>
<clus scale="   30.327">  2  5  1 -1</clus>
</clustering>
</event>
<event>
 9    1  0.1399746E-005  0.9124066E+02  0.7546771E-02  0.1305347E+00
          2   -1    0    0  502    0 -0.00000000000E+00  0.00000000000E+00  0.18642304912E+03  0.18642304912E+03  0.00000000000E+00 0. -1.
         21   -1    0    0  501  502  0.00000000000E+00 -0.00000000000E+00 -0.84883806226E+02  0.84883806226E+02  0.00000000000E+00 0. -1.
         23    2    1    2    0    0  0.13539338128E+02  0.91260818800E+01  0.86243187840E+02  0.12039105207E+03  0.82398537141E+02 0.  0.
         23    2    1    2    0    0  0.11706782078E+02  0.18779663960E+02  0.43998250055E+02  0.10358808164E+03  0.91131334488E+02 0.  0.
        -13    1    4    4    0    0  0.39391839564E+02 -0.11249421657E+02 -0.32953051075E+01  0.41098972585E+02  0.00000000000E+00 0.  1.
         13    1    4    4    0    0 -0.27685057486E+02  0.30029085617E+02  0.47293555162E+02  0.62489109058E+02  0.00000000000E+00 0. -1.
        -13    1    3    3    0    0 -0.64305648941E+01  0.42039055270E+02  0.60977588000E+02  0.74343127263E+02  0.00000000000E+00 0. -1.
         13    1    3    3    0    0  0.19969903022E+02 -0.32912973390E+02  0.25265599840E+02  0.46047924810E+02  0.00000000000E+00 0.  1.
          2    1    1    2  501    0 -0.25246120205E+02 -0.27905745840E+02 -0.28702195004E+02  0.47327721627E+02  0.00000000000E+00 0. -1.
<scales pt_clust_5="13000.00000" pt_clust_6="13000.00000" pt_clust_7="13000.00000" pt_clust_8="13000.00000" pt_clust_9="37.63107"></scales>
<clustering>
<clus scale="   37.631">  2  9  1 -1</clus>
<clus scale="   82.399">  7  8 -1 -1</clus>
<clus scale="   82.519">  1  7  2 -1</clus>
<clus scale="   91.131">  5  6 -1 -1</clus>
<clus scale="   37.631">  2  5  1 -1</clus>
</clustering>
</event>
<event>
 9    1  0.1399746E-005  0.9761200E+02  0.7546771E-02  0.1285504E+00
         21   -1    0    0  501  502  0.00000000000E+00  0.00000000000E+00  0.10507511581E+03  0.10507511581E+03  0.00000000000E+00 0. -1.
          2   -1    0    0  502    0 -0.00000000000E+00 -0.00000000000E+00 -0.26237074846E+03  0.26237074846E+03  0.00000000000E+00 0. -1.
         23    2    1    2    0    0 -0.48259228492E+01 -0.39969075648E+02 -0.16387190623E+03  0.19156030074E+03  0.90667141947E+02 0.  0.
         23    2    1    2    0    0  0.49426069617E+02  0.10373605981E+02 -0.33647579417E+02  0.10893018087E+03  0.90460359527E+02 0.  0.
        -11    1    4    4    0    0  0.22133166101E+02  0.17532277275E+02  0.28844025621E+02  0.40363790730E+02  0.00000000000E+00 0.  1.
         11    1    4    4    0    0  0.27292903516E+02 -0.71586712945E+01 -0.62491605038E+02  0.68566390143E+02  0.00000000000E+00 0. -1.
        -13    1    3    3    0    0  0.30198248897E+02 -0.47839687160E+02 -0.63932907922E+02  0.85369705513E+02  0.00000000000E+00 0. -1.
         13    1    3    3    0    0 -0.35024171746E+02  0.78706115124E+01 -0.99938998304E+02  0.10619059522E+03  0.00000000000E+00 0.  1.
          2    1    1    2  501    0 -0.44600146768E+02  0.29595469667E+02  0.40223852996E+02  0.66955382654E+02  0.00000000000E+00 0. -1.
<scales pt_clust_5="13000.00000" pt_clust_6="13000.00000" pt_clust_7="13000.00000" pt_clust_8="13000.00000" pt_clust_9="53.52630"></scales>
<clustering>
<clus scale="   53.526">  1  9  2 -1</clus>
<clus scale="   90.460">  5  6 -1 -1</clus>
<clus scale="   90.667">  7  8 -1 -1</clus>
<clus scale="   97.420">  1  5  2 -1</clus>
<clus scale="   53.526">  1  5  2 -1</clus>
</clustering>
</event>
<event>
 9    1  0.1399746E-005  0.9351061E+02  0.7546771E-02  0.1299543E+00
         -3   -1    0    0    0  501 -0.00000000000E+00  0.00000000000E+00  0.49481508247E+03  0.49481508247E+03  0.00000000000E+00 0.  1.
         21   -1    0    0  501  502  0.00000000000E+00 -0.00000000000E+00 -0.41803624475E+02  0.41803624475E+02  0.00000000000E+00 0.  1.
         23    2    1    2    0    0  0.62952695328E+01  0.10655362606E+02  0.28270721546E+03  0.29472601182E+03  0.82382553974E+02 0.  0.
         23    2    1    2    0    0 -0.52887659322E+01 -0.67206201402E+02  0.95206273894E+02  0.14787825309E+03  0.90879582939E+02 0.  0.
        -11    1    4    4    0    0  0.35278051226E+02 -0.62219343215E+02  0.52194719931E+02  0.88544205667E+02  0.00000000000E+00 0.  1.
         11    1    4    4    0    0 -0.40566817158E+02 -0.49868581871E+01  0.43011553963E+02  0.59334047420E+02  0.00000000000E+00 0. -1.
        -11    1    3    3    0    0  0.48343260185E+01 -0.34177353505E+02  0.80241087407E+02  0.87350411041E+02  0.00000000000E+00 0.  1.
         11    1    3    3    0    0  0.14609435143E+01  0.44832716111E+02  0.20246612805E+03  0.20737560078E+03  0.00000000000E+00 0. -1.
         -3    1    1    2    0  502 -0.10065036006E+01  0.56550838796E+02  0.75097968646E+02  0.94014442044E+02  0.00000000000E+00 0.  1.
<scales pt_clust_5="13000.00000" pt_clust_6="13000.00000" pt_clust_7="13000.00000" pt_clust_8="13000.00000" pt_clust_9="56.55980"></scales>
<clustering>
<clus scale="   56.560">  2  9  1 -1</clus>
<clus scale="   82.383">  7  8 -1 -1</clus>
<clus scale="   85.276">  1  7  2 -1</clus>
<clus scale="   90.880">  5  6 -1 -1</clus>
<clus scale="   56.560">  2  5  1 -1</clus>
</clustering>
</event>
<event>
 9    1  0.1399746E-005  0.1558139E+03  0.7546771E-02  0.1212779E+00
         -3   -1    0    0    0  501 -0.00000000000E+00  0.00000000000E+00  0.11814351432E+03  0.11814351432E+03  0.00000000000E+00 0.  1.
         21   -1    0    0  501  502  0.00000000000E+00 -0.00000000000E+00 -0.32553337612E+03  0.32553337612E+03  0.00000000000E+00 0. -1.
         23    2    1    2    0    0 -0.39019402392E+02 -0.16748815453E+02 -0.61174483042E+02  0.11957982019E+03  0.93562703253E+02 0.  0.
         23    2    1    2    0    0  0.10517047970E+02 -0.11862416551E+03 -0.91163286069E+02  0.17520462218E+03  0.90573803973E+02 0.  0.
        -11    1    3    3    0    0  0.27007315362E+02 -0.40199670624E+01  0.19183176528E+01  0.27372160326E+02  0.00000000000E+00 0. -1.
         11    1    3    3    0    0 -0.66026717755E+02 -0.12728848390E+02 -0.63092800695E+02  0.92207659868E+02  0.00000000000E+00 0.  1.
        -11    1    4    4    0    0 -0.38953099660E+02 -0.42270067042E+02 -0.46059826935E+02  0.73658741492E+02  0.00000000000E+00 0.  1.
         11    1    4    4    0    0  0.49470147630E+02 -0.76354098467E+02 -0.45103459133E+02  0.10154588069E+03  0.00000000000E+00 0. -1.
         -3    1    1    2    0  502  0.28502354422E+02  0.13537298096E+03 -0.55052092688E+02  0.14889244807E+03  0.00000000000E+00 0.  1.
<scales pt_clust_5="13000.00000" pt_clust_6="13000.00000" pt_clust_7="13000.00000" pt_clust_8="13000.00000" pt_clust_9="126.78480"></scales>
<clustering>
<clus scale="   90.574">  7  8 -1 -1</clus>
<clus scale="   93.563">  5  6 -1 -1</clus>
<clus scale="  102.747">  1  5  2 -1</clus>
<clus scale="  126.785">  2  9  1 -1</clus>
<clus scale="  126.785">  2  5  1 -1</clus>
</clustering>
</event>
<event>
 9    1  0.1399746E-005  0.1103077E+03  0.7546771E-02  0.1262513E+00
         21   -1    0    0  501  502  0.00000000000E+00  0.00000000000E+00  0.75817178688E+02  0.75817178688E+02  0.00000000000E+00 0.  1.
         -2   -1    0    0    0  501 -0.00000000000E+00 -0.00000000000E+00 -0.40583303899E+03  0.40583303899E+03  0.00000000000E+00 0.  1.
         23    2    1    2    0    0  0.80827688780E+02 -0.65291108714E+00 -0.26686246585E+03  0.29320947578E+03  0.90678991184E+02 0.  0.
         23    2    1    2    0    0 -0.20525301244E+01  0.90042360560E+01  0.37750970749E+01  0.84735904843E+02  0.84146497638E+02 0.  0.
        -11    1    3    3    0    0  0.34230013337E+02 -0.15251519047E+02 -0.21850975679E+02  0.43379347441E+02  0.00000000000E+00 0.  1.
         11    1    3    3    0    0  0.46597675444E+02  0.14598607960E+02 -0.24501149017E+03  0.24983012834E+03  0.00000000000E+00 0. -1.
        -11    1    4    4    0    0 -0.34577931722E+02 -0.77950542637E+00 -0.22957573926E+02  0.41512542580E+02  0.00000000000E+00 0. -1.
         11    1    4    4    0    0  0.32525401598E+02  0.97837414823E+01  0.26732671001E+02  0.43223362263E+02  0.00000000000E+00 0.  1.
         -2    1    1    2    0  502 -0.78775158656E+02 -0.83513249688E+01 -0.66928491525E+02  0.10370483705E+03  0.00000000000E+00 0.  1.
<scales pt_clust_5="13000.00000" pt_clust_6="13000.00000" pt_clust_7="13000.00000" pt_clust_8="13000.00000" pt_clust_9="79.21660"></scales>
<clustering>
<clus scale="   79.217">  1  9  2 -1</clus>
<clus scale="   84.146">  7  8 -1 -1</clus>
<clus scale="   90.679">  5  6 -1 -1</clus>
<clus scale="  105.004">  1  7  2 -1</clus>
<clus scale="   79.217">  1  5  2 -1</clus>
</clustering>
</event>
<event>
 9    1  0.1399746E-005  0.1899304E+03  0.7546771E-02  0.1158647E+00
         21   -1    0    0  501  502  0.00000000000E+00  0.00000000000E+00  0.13727589334E+04  0.13727589334E+04  0.00000000000E+00 0. -1.
          4   -1    0    0  502    0 -0.00000000000E+00 -0.00000000000E+00 -0.40091417088E+02  0.40091417088E+02  0.00000000000E+00 0. -1.
         23    2    1    2    0    0  0.77966759738E+02 -0.11769095760E+03  0.42527305727E+03  0.45726004428E+03  0.91102128047E+02 0.  0.
         23    2    1    2    0    0 -0.13768550172E+03  0.14488853118E+03  0.55354380106E+03  0.59570654121E+03  0.92225591317E+02 0.  0.
        -11    1    4    4    0    0 -0.18295271566E+02 -0.99674481369E+01  0.27530460188E+02  0.34525254846E+02  0.00000000000E+00 0.  1.
         11    1    4    4    0    0 -0.11939023016E+03  0.15485597932E+03  0.52601334087E+03  0.56118128636E+03  0.00000000000E+00 0. -1.
        -13    1    3    3    0    0  0.42271016306E+02 -0.18511929102E+02  0.52630699061E+02  0.69996577218E+02  0.00000000000E+00 0. -1.
         13    1    3    3    0    0  0.35695743432E+02 -0.99179028497E+02  0.37264235821E+03  0.38726346707E+03  0.00000000000E+00 0.  1.
          4    1    1    2  501    0  0.59718741983E+02 -0.27197573584E+02  0.35385065796E+03  0.35988376498E+03  0.00000000000E+00 0. -1.
<scales pt_clust_5="13000.00000" pt_clust_6="13000.00000" pt_clust_7="13000.00000" pt_clust_8="13000.00000" pt_clust_9="65.62039"></scales>
<clustering>
<clus scale="   65.620">  1  9  2 -1</clus>
<clus scale="   91.102">  7  8 -1 -1</clus>
<clus scale="   92.226">  5  6 -1 -1</clus>
<clus scale="  189.387">  2  7  1 -1</clus>
<clus scale="   65.620">  1  5  2 -1</clus>
</clustering>
</event>
<event>
 9    1  0.1399746E-005  0.9081923E+02  0.7546771E-02  0.1301237E+00
         -1   -1    0    0    0  501 -0.00000000000E+00  0.00000000000E+00  0.97440271993E+02  0.97440271993E+02  0.00000000000E+00 0.  1.
         21   -1    0    0  501  502  0.00000000000E+00 -0.00000000000E+00 -0.17758869440E+03  0.17758869440E+03  0.00000000000E+00 0.  1.
         23    2    1    2    0    0 -0.13195826968E+02 -0.59489823648E+01  0.44499057682E+02  0.10120779227E+03  0.89740352357E+02 0.  0.
         23    2    1    2    0    0 -0.13916157206E+02  0.56466314654E+01 -0.80072968267E+02  0.12164801813E+03  0.90338342856E+02 0.  0.
        -11    1    4    4    0    0 -0.25708835118E+01  0.28292740169E+02  0.83964365055E+01  0.29624124194E+02  0.00000000000E+00 0.  1.
         11    1    4    4    0    0 -0.11345273694E+02 -0.22646108704E+02 -0.88469404773E+02  0.92023893938E+02  0.00000000000E+00 0. -1.
        -13    1    3    3    0    0  0.92644400827E+01 -0.24468253982E+02 -0.18341450642E+02  0.31952059630E+02  0.00000000000E+00 0. -1.
         13    1    3    3    0    0 -0.22460267050E+02  0.18519271617E+02  0.62840508323E+02  0.69255732640E+02  0.00000000000E+00 0.  1.
         -1    1    1    2    0  502  0.27111984174E+02  0.30235089945E+00 -0.44574511824E+02  0.52173155993E+02  0.00000000000E+00 0.  1.
<scales pt_clust_5="13000.00000" pt_clust_6="13000.00000" pt_clust_7="13000.00000" pt_clust_8="13000.00000" pt_clust_9="27.11367"></scales>
<clustering>
<clus scale="   27.114">  2  9  1 -1</clus>
<clus scale="   89.740">  7  8 -1 -1</clus>
<clus scale="   90.224">  1  7  2 -1</clus>
<clus scale="   90.338">  5  6 -1 -1</clus>
<clus scale="   27.114">  2  5  1 -1</clus>
</clustering>
</event>
<event>
 9    1  0.1399746E-005  0.9356342E+02  0.7546771E-02  0.1295507E+00
          3   -1    0    0  502    0 -0.00000000000E+00  0.00000000000E+00  0.41004766262E+02  0.41004766262E+02  0.00000000000E+00 0. -1.
         21   -1    0    0  501  502  0.00000000000E+00 -0.00000000000E+00 -0.51421004435E+03  0.51421004435E+03  0.00000000000E+00 0.  1.
         23    2    1    2    0    0  0.19699928442E+01 -0.10703930596E+00 -0.75714521014E+02  0.11743368111E+03  0.89744573302E+02 0.  0.
         23    2    1    2    0    0  0.31779234884E+02 -0.42386086264E+02 -0.14492419477E+03  0.17945082836E+03  0.91613740739E+02 0.  0.
        -11    1    3    3    0    0 -0.79891328634E+01  0.23289794109E+02  0.11073308132E+02  0.26997387031E+02  0.00000000000E+00 0. -1.
         11    1    3    3    0    0  0.99591257076E+01 -0.23396833415E+02 -0.86787829145E+02  0.90436294078E+02  0.00000000000E+00 0.  1.
        -11    1    4    4    0    0  0.56965085819E+02 -0.17414101495E+02 -0.12572048814E+03  0.13911834197E+03  0.00000000000E+00 0. -1.
         11    1    4    4    0    0 -0.25185850934E+02 -0.24971984769E+02 -0.19203706627E+02  0.40332486395E+02  0.00000000000E+00 0.  1.
          3    1    1    2  501    0 -0.33749227729E+02  0.42493125570E+02 -0.25256656230E+03  0.25833030114E+03  0.00000000000E+00 0. -1.
<scales pt_clust_5="13000.00000" pt_clust_6="13000.00000" pt_clust_7="13000.00000" pt_clust_8="13000.00000" pt_clust_9="54.26487"></scales>
<clustering>
<clus scale="   54.265">  2  9  1 -1</clus>
<clus scale="   89.745">  5  6 -1 -1</clus>
<clus scale="   91.614">  7  8 -1 -1</clus>
<clus scale="   91.734">  1  5  2 -1</clus>
<clus scale="   54.265">  2  5  1 -1</clus>
</clustering>
</event>
<event>
 9    1  0.1399746E-005  0.1213142E+03  0.7546771E-02  0.1242470E+00
         21   -1    0    0  501  502  0.00000000000E+00  0.00000000000E+00  0.20112650133E+03  0.20112650133E+03  0.00000000000E+00 0. -1.
          2   -1    0    0  502    0 -0.00000000000E+00 -0.00000000000E+00 -0.26378208981E+03  0.26378208981E+03  0.00000000000E+00 0. -1.
         23    2    1    2    0    0  0.48500761305E+00 -0.77057153151E+02 -0.19909502169E+03  0.23021618659E+03  0.86154656416E+02 0.  0.
         23    2    1    2    0    0 -0.35207419287E+02  0.10166134920E+03  0.74285044422E+02  0.15936524889E+03  0.91128603828E+02 0.  0.
        -13    1    4    4    0    0 -0.18144098867E+02  0.33308684169E+02  0.80149379359E+02  0.88671301876E+02  0.00000000000E+00 0.  1.
         13    1    4    4    0    0 -0.17063320420E+02  0.68352665028E+02 -0.58643349367E+01  0.70693947014E+02  0.00000000000E+00 0. -1.
        -13    1    3    3    0    0  0.34339598926E+02 -0.72768489850E+02 -0.15294618439E+03  0.17282070619E+03  0.00000000000E+00 0. -1.
         13    1    3    3    0    0 -0.33854591313E+02 -0.42886633017E+01 -0.46148837296E+02  0.57395480394E+02  0.00000000000E+00 0.  1.
          2    1    1    2  501    0  0.34722411674E+02 -0.24604196046E+02  0.62154388786E+02  0.75327155667E+02  0.00000000000E+00 0. -1.
<scales pt_clust_5="13000.00000" pt_clust_6="13000.00000" pt_clust_7="13000.00000" pt_clust_8="13000.00000" pt_clust_9="42.55599"></scales>
<clustering>
<clus scale="   42.556">  1  9  2 -1</clus>
<clus scale="   86.155">  7  8 -1 -1</clus>
<clus scale="   91.129">  5  6 -1 -1</clus>
<clus scale="  117.624">  2  7  1 -1</clus>
<clus scale="   42.556">  1  5  2 -1</clus>
</clustering>
</event>
<event>
 9    1  0.1399746E-005  0.1714910E+03  0.7546771E-02  0.1176383E+00
         21   -1    0    0  501  502  0.00000000000E+00  0.00000000000E+00  0.36967062822E+02  0.36967062822E+02  0.00000000000E+00 0. -1.
          2   -1    0    0  502    0 -0.00000000000E+00 -0.00000000000E+00 -0.10150677927E+04  0.10150677927E+04  0.00000000000E+00 0. -1.
         23    2    1    2    0    0 -0.65536540482E+02  0.13554467396E+03 -0.61864444740E+03  0.64331111783E+03  0.91982852990E+02 0.  0.
         23    2    1    2    0    0  0.38334192773E+02 -0.13126103755E+03 -0.32792133747E+03  0.36685764141E+03  0.91395597178E+02 0.  0.
        -11    1    3    3    0    0  0.13772791966E+02  0.75938177771E+02 -0.26361336768E+03  0.27467854715E+03  0.00000000000E+00 0.  1.
         11    1    3    3    0    0 -0.79309332448E+02  0.59606496192E+02 -0.35503107972E+03  0.36863257068E+03  0.00000000000E+00 0. -1.
        -11    1    4    4    0    0  0.55224709154E+02 -0.40840942265E+02 -0.18010529079E+03  0.19275805259E+03  0.00000000000E+00 0.  1.
         11    1    4    4    0    0 -0.16890516382E+02 -0.90420095283E+02 -0.14781604668E+03  0.17409958883E+03  0.00000000000E+00 0. -1.
          2    1    1    2  501    0  0.27202347710E+02 -0.42836364149E+01 -0.31534945052E+02  0.41866096323E+02  0.00000000000E+00 0. -1.
<scales pt_clust_5="13000.00000" pt_clust_6="13000.00000" pt_clust_7="13000.00000" pt_clust_8="13000.00000" pt_clust_9="27.53756"></scales>
<clustering>
<clus scale="   27.538">  1  9  2 -1</clus>
<clus scale="   91.396">  7  8 -1 -1</clus>
<clus scale="   91.983">  5  6 -1 -1</clus>
<clus scale="  171.177">  1  7  2 -1</clus>
<clus scale="   27.538">  1  5  2 -1</clus>
</clustering>
</event>
<event>
 9    1  0.1399746E-005  0.1049457E+03  0.7546771E-02  0.1271182E+00
          2   -1    0    0  502    0 -0.00000000000E+00  0.00000000000E+00  0.54831524652E+03  0.54831524652E+03  0.00000000000E+00 0. -1.
         21   -1    0    0  501  502  0.00000000000E+00 -0.00000000000E+00 -0.29464736213E+03  0.29464736213E+03  0.00000000000E+00 0. -1.
         23    2    1    2    0    0  0.37571277177E+02 -0.83732573700E+01  0.26443523399E+03  0.28241597238E+03  0.91384222788E+02 0.  0.
         23    2    1    2    0    0 -0.57213120812E+02  0.43442533092E+02  0.26142411083E+03  0.28540331497E+03  0.89173379396E+02 0.  0.
        -11    1    4    4    0    0  0.11846086539E+02  0.43334375085E+02  0.11664542701E+03  0.12499741386E+03  0.00000000000E+00 0. -1.
         11    1    4    4    0    0 -0.69059207351E+02  0.10815800666E+00  0.14477868382E+03  0.16040590110E+03  0.00000000000E+00 0.  1.
        -11    1    3    3    0    0 -0.27010829574E+02 -0.52144077489E+01  0.37885696777E+02  0.46819878073E+02  0.00000000000E+00 0.  1.
         11    1    3    3    0    0  0.64582106751E+02 -0.31588496211E+01  0.22654953721E+03  0.23559609431E+03  0.00000000000E+00 0. -1.
          2    1    1    2  501    0  0.19641843635E+02 -0.35069275722E+02 -0.27219146043E+03  0.27514332130E+03  0.00000000000E+00 0. -1.
<scales pt_clust_5="13000.00000" pt_clust_6="13000.00000" pt_clust_7="13000.00000" pt_clust_8="13000.00000" pt_clust_9="40.19523"></scales>
<clustering>
<clus scale="   40.195">  2  9  1 -1</clus>
<clus scale="   89.173">  5  6 -1 -1</clus>
<clus scale="   91.384">  7  8 -1 -1</clus>
<clus scale="  103.026">  2  5  1 -1</clus>
<clus scale="   40.195">  2  5  1 -1</clus>
</clustering>
</event>
<event>
 9    1  0.1399746E-005  0.9319451E+02  0.7546771E-02  0.1296225E+00
         -1   -1    0    0    0  501 -0.00000000000E+00  0.00000000000E+00  0.45062733721E+03  0.45062733721E+03  0.00000000000E+00 0.  1.
         21   -1    0    0  501  502  0.00000000000E+00 -0.00000000000E+00 -0.30722437405E+02  0.30722437405E+02  0.00000000000E+00 0. -1.
         23    2    1    2    0    0  0.13102522030E+02  0.24402331337E+02  0.23209312210E+03  0.25028681437E+03  0.89493699553E+02 0.  0.
         23    2    1    2    0    0 -0.22949387777E+02  0.13867602453E+02  0.13650378794E+03  0.16630140985E+03  0.91125682424E+02 0.  0.
        -11    1    3    3    0    0  0.41523916862E+02  0.23683293585E+02  0.20673748679E+03  0.21219218297E+03  0.00000000000E+00 0.  1.
         11    1    3    3    0    0 -0.28421394832E+02  0.71903775219E+00  0.25355635310E+02  0.38094631400E+02  0.00000000000E+00 0. -1.
        -13    1    4    4    0    0  0.39706932669E+00 -0.36933421505E+02  0.37712490454E+02  0.52786998630E+02  0.00000000000E+00 0.  1.
         13    1    4    4    0    0 -0.23346457104E+02  0.50801023958E+02  0.98791297489E+02  0.11351441122E+03  0.00000000000E+00 0. -1.
         -1    1    1    2    0  502  0.98468657474E+01 -0.38269933790E+02  0.51307989764E+02  0.64761550406E+02  0.00000000000E+00 0.  1.
<scales pt_clust_5="13000.00000" pt_clust_6="13000.00000" pt_clust_7="13000.00000" pt_clust_8="13000.00000" pt_clust_9="39.51643"></scales>
<clustering>
<clus scale="   39.516">  2  9  1 -1</clus>
<clus scale="   89.494">  5  6 -1 -1</clus>
<clus scale="   91.126">  7  8 -1 -1</clus>
<clus scale="   91.599">  1  5  2 -1</clus>
<clus scale="   39.516">  2  5  1 -1</clus>
</clustering>
</event>
<event>
 9    1  0.1399746E-005  0.1071670E+03  0.7546771E-02  0.1266756E+00
          1   -1    0    0  502    0 -0.00000000000E+00  0.00000000000E+00  0.62971362147E+03  0.62971362147E+03  0.00000000000E+00 0. -1.
         21   -1    0    0  501  502  0.00000000000E+00 -0.00000000000E+00 -0.38392306466E+02  0.38392306466E+02  0.00000000000E+00 0. -1.
         23    2    1    2    0    0 -0.29879958195E+02  0.84814552555E+01  0.19215916275E+03  0.21533826262E+03  0.92090588738E+02 0.  0.
         23    2    1    2    0    0  0.79231193845E+02  0.54758690721E+02  0.27455548590E+03  0.30457292241E+03  0.90043622452E+02 0.  0.
        -11    1    3    3    0    0 -0.17130466374E+02  0.50133510042E+02  0.92971199135E+02  0.10700684827E+03  0.00000000000E+00 0.  1.
         11    1    3    3    0    0 -0.12749491821E+02 -0.41652054786E+02  0.99187963618E+02  0.10833141436E+03  0.00000000000E+00 0. -1.
        -11    1    4    4    0    0  0.35475440738E+02  0.17359949623E+01  0.19714656088E+02  0.40622509016E+02  0.00000000000E+00 0.  1.
         11    1    4    4    0    0  0.43755753107E+02  0.53022695759E+02  0.25484082981E+03  0.26395041340E+03  0.00000000000E+00 0. -1.
          1    1    1    2  501    0 -0.49351235650E+02 -0.63240145977E+02  0.12460666635E+03  0.14819474290E+03  0.00000000000E+00 0. -1.
<scales pt_clust_5="13000.00000" pt_clust_6="13000.00000" pt_clust_7="13000.00000" pt_clust_8="13000.00000" pt_clust_9="80.21758"></scales>
<clustering>
<clus scale="   80.218">  2  9  1 -1</clus>
<clus scale="   90.044">  7  8 -1 -1</clus>
<clus scale="   92.091">  5  6 -1 -1</clus>
<clus scale="  105.413">  2  7  1 -1</clus>
<clus scale="   80.218">  2  5  1 -1</clus>
</clustering>
</event>
<event>
 9    1  0.1399746E-005  0.3141858E+03  0.7546771E-02  0.1115008E+00
          4   -1    0    0  502    0 -0.00000000000E+00  0.00000000000E+00  0.25073829473E+03  0.25073829473E+03  0.00000000000E+00 0. -1.
         21   -1    0    0  501  502  0.00000000000E+00 -0.00000000000E+00 -0.84524680058E+03  0.84524680058E+03  0.00000000000E+00 0. -1.
         23    2    1    2    0    0  0.28905637715E+02 -0.68592989685E+02 -0.67301282403E+02  0.13814557920E+03  0.94943163603E+02 0.  0.
         23    2    1    2    0    0 -0.81343953538E+02  0.35077032954E+03 -0.17177378608E+02  0.37260087186E+03  0.94232077940E+02 0.  0.
        -11    1    3    3    0    0  0.61662231291E+02 -0.57795214484E+02 -0.57740156231E+02  0.10235449783E+03  0.00000000000E+00 0.  1.
         11    1    3    3    0    0 -0.32756593577E+02 -0.10797775201E+02 -0.95611261717E+01  0.35791081371E+02  0.00000000000E+00 0. -1.
        -11    1    4    4    0    0 -0.21655834140E+02  0.91863112665E+01 -0.10541524424E+02  0.25777649314E+02  0.00000000000E+00 0.  1.
         11    1    4    4    0    0 -0.59688119399E+02  0.34158401827E+03 -0.66358541841E+01  0.34682322254E+03  0.00000000000E+00 0. -1.
          4    1    1    2  501    0  0.52438315823E+02 -0.28217733985E+03 -0.51002984484E+03  0.58523864425E+03  0.00000000000E+00 0. -1.
<scales pt_clust_5="13000.00000" pt_clust_6="13000.00000" pt_clust_7="13000.00000" pt_clust_8="13000.00000" pt_clust_9="299.72155"></scales>
<clustering>
<clus scale="   94.232">  7  8 -1 -1</clus>
<clus scale="   94.943">  5  6 -1 -1</clus>
<clus scale="  120.643">  1  5  2 -1</clus>
<clus scale="  299.722">  2  9  1 -1</clus>
<clus scale="  299.722">  2  5  1 -1</clus>
</clustering>
</event>
<event>
 9    1  0.1399746E-005  0.1103332E+03  0.7546771E-02  0.1263267E+00
         21   -1    0    0  501  502  0.00000000000E+00  0.00000000000E+00  0.17338742710E+03  0.17338742710E+03  0.00000000000E+00 0.  1.
         -2   -1    0    0    0  501 -0.00000000000E+00 -0.00000000000E+00 -0.17340136729E+03  0.17340136729E+03  0.00000000000E+00 0.  1.
         23    2    1    2    0    0  0.26761598466E+02 -0.58575190279E+02 -0.11214769498E+03  0.16052269818E+03  0.95095715318E+02 0.  0.
         23    2    1    2    0    0 -0.16756308609E+02  0.29450218792E+02  0.29171989814E+02  0.97773021697E+02  0.86950960415E+02 0.  0.
        -13    1    4    4    0    0  0.29511472749E+02  0.35619335424E+02  0.18961749781E+02  0.49992119725E+02  0.00000000000E+00 0.  1.
         13    1    4    4    0    0 -0.46267781357E+02 -0.61691166322E+01  0.10210240033E+02  0.47780901972E+02  0.00000000000E+00 0. -1.
        -13    1    3    3    0    0  0.35824619216E+02 -0.24912362687E+02 -0.58402082790E+00  0.43639090698E+02  0.00000000000E+00 0. -1.
         13    1    3    3    0    0 -0.90630207500E+01 -0.33662827592E+02 -0.11156367415E+03  0.11688360748E+03  0.00000000000E+00 0.  1.
         -2    1    1    2    0  502 -0.10005289858E+02  0.29124971487E+02  0.82961764978E+02  0.88493074517E+02  0.00000000000E+00 0.  1.
<scales pt_clust_5="13000.00000" pt_clust_6="13000.00000" pt_clust_7="13000.00000" pt_clust_8="13000.00000" pt_clust_9="30.79561"></scales>
<clustering>
<clus scale="   30.796">  1  9  2 -1</clus>
<clus scale="   86.951">  5  6 -1 -1</clus>
<clus scale="   95.096">  7  8 -1 -1</clus>
<clus scale="  103.396">  1  5  2 -1</clus>
<clus scale="   30.796">  1  5  2 -1</clus>
</clustering>
</event>
<event>
 9    1  0.1399746E-005  0.1087165E+03  0.7546771E-02  0.1263502E+00
          2   -1    0    0  502    0 -0.00000000000E+00  0.00000000000E+00  0.48698960897E+03  0.48698960897E+03  0.00000000000E+00 0. -1.
         21   -1    0    0  501  502  0.00000000000E+00 -0.00000000000E+00 -0.41700913474E+02  0.41700913474E+02  0.00000000000E+00 0.  1.
         23    2    1    2    0    0  0.56670343476E+02 -0.28523357832E+02  0.34856149063E+03  0.36596071841E+03  0.91689829840E+02 0.  0.
         23    2    1    2    0    0 -0.29407776477E+02  0.37287919687E+02  0.78825800445E+02  0.12895813863E+03  0.90340956556E+02 0.  0.
        -11    1    3    3    0    0  0.27167952957E+02  0.33301986891E+02  0.13122463418E+03  0.13808339732E+03  0.00000000000E+00 0.  1.
         11    1    3    3    0    0  0.29502390519E+02 -0.61825344723E+02  0.21733685645E+03  0.22787732109E+03  0.00000000000E+00 0. -1.
        -13    1    4    4    0    0  0.18683403526E+02  0.46696015496E+02  0.54802531630E+02  0.74383498867E+02  0.00000000000E+00 0. -1.
         13    1    4    4    0    0 -0.48091180003E+02 -0.94080958092E+01  0.24023268815E+02  0.54574639764E+02  0.00000000000E+00 0.  1.
          2    1    1    2  501    0 -0.27262566999E+02 -0.87645618554E+01  0.17901404418E+02  0.33771665402E+02  0.00000000000E+00 0. -1.
<scales pt_clust_5="13000.00000" pt_clust_6="13000.00000" pt_clust_7="13000.00000" pt_clust_8="13000.00000" pt_clust_9="28.63678"></scales>
<clustering>
<clus scale="   28.637">  2  9  1 -1</clus>
<clus scale="   90.341">  7  8 -1 -1</clus>
<clus scale="   91.690">  5  6 -1 -1</clus>
<clus scale="  107.581">  2  7  1 -1</clus>
<clus scale="   28.637">  2  5  1 -1</clus>
</clustering>
</event>
<event>
 9    1  0.1399746E-005  0.1033528E+03  0.7546771E-02  0.1273761E+00
         21   -1    0    0  501  502  0.00000000000E+00  0.00000000000E+00  0.64280272563E+02  0.64280272563E+02  0.00000000000E+00 0.  1.
          1   -1    0    0  502    0 -0.00000000000E+00 -0.00000000000E+00 -0.40007474572E+03  0.40007474572E+03  0.00000000000E+00 0. -1.
         23    2    1    2    0    0 -0.51414179056E+02  0.15358623876E+02 -0.24875047456E+03  0.27047777373E+03  0.91663091551E+02 0.  0.
         23    2    1    2    0    0  0.40503932346E+02  0.10293115878E+02 -0.11635567047E+03  0.15342703635E+03  0.90855361220E+02 0.  0.
        -11    1    3    3    0    0 -0.10390147994E+02  0.36080653502E+02 -0.33321090556E+02  0.50200237134E+02  0.00000000000E+00 0.  1.
         11    1    3    3    0    0 -0.41024031062E+02 -0.20722029626E+02 -0.21542938400E+03  0.22027753659E+03  0.00000000000E+00 0. -1.
        -13    1    4    4    0    0 -0.57346188554E+00  0.30139295714E+02 -0.18885100749E+01  0.30203848678E+02  0.00000000000E+00 0.  1.
         13    1    4    4    0    0  0.41077394232E+02 -0.19846179835E+02 -0.11446716040E+03  0.12322318767E+03  0.00000000000E+00 0. -1.
          1    1    1    2  501    0  0.10910246710E+02 -0.25651739754E+02  0.29311671873E+02  0.40450208203E+02  0.00000000000E+00 0. -1.
<scales pt_clust_5="13000.00000" pt_clust_6="13000.00000" pt_clust_7="13000.00000" pt_clust_8="13000.00000" pt_clust_9="27.87553"></scales>
<clustering>
<clus scale="   27.876">  1  9  2 -1</clus>
<clus scale="   90.855">  7  8 -1 -1</clus>
<clus scale="   91.663">  5  6 -1 -1</clus>
<clus scale="  102.637">  1  7  2 -1</clus>
<clus scale="   27.876">  1  5  2 -1</clus>
</clustering>
</event>
<event>
 9    1  0.1399746E-005  0.1143604E+03  0.7546771E-02  0.1253547E+00
          3   -1    0    0  502    0 -0.00000000000E+00  0.00000000000E+00  0.58954759850E+03  0.58954759850E+03  0.00000000000E+00 0. -1.
         21   -1    0    0  501  502  0.00000000000E+00 -0.00000000000E+00 -0.10164375302E+03  0.10164375302E+03  0.00000000000E+00 0.  1.
         23    2    1    2    0    0  0.11246164357E+02  0.58509381920E+02  0.42426286421E+03  0.43847540922E+03  0.93337465998E+02 0.  0.
         23    2    1    2    0    0 -0.17485171046E+02 -0.13317857716E+03  0.14017527833E+02  0.16284436139E+03  0.90991924528E+02 0.  0.
        -11    1    4    4    0    0 -0.43207986345E+02 -0.10440096706E+03 -0.15776171428E+02  0.11408496655E+03  0.00000000000E+00 0.  1.
         11    1    4    4    0    0  0.25722815298E+02 -0.28777610101E+02  0.29793699260E+02  0.48759394844E+02  0.00000000000E+00 0. -1.
        -13    1    3    3    0    0 -0.33793299469E+02  0.53938691256E+02  0.28571053721E+03  0.29271467435E+03  0.00000000000E+00 0. -1.
         13    1    3    3    0    0  0.45039463827E+02  0.45706906640E+01  0.13855232700E+03  0.14576073488E+03  0.00000000000E+00 0.  1.
          3    1    1    2  501    0  0.62390066888E+01  0.74669195243E+02  0.49623453435E+02  0.89871580900E+02  0.00000000000E+00 0. -1.
<scales pt_clust_5="13000.00000" pt_clust_6="13000.00000" pt_clust_7="13000.00000" pt_clust_8="13000.00000" pt_clust_9="74.92939"></scales>
<clustering>
<clus scale="   74.929">  2  9  1 -1</clus>
<clus scale="   90.992">  5  6 -1 -1</clus>
<clus scale="   93.337">  7  8 -1 -1</clus>
<clus scale="  112.454">  2  5  1 -1</clus>
<clus scale="   74.929">  2  5  1 -1</clus>
</clustering>
</event>
<event>
 9    1  0.1399746E-005  0.1168080E+03  0.7546771E-02  0.1250034E+00
         -1   -1    0    0    0  501 -0.00000000000E+00  0.00000000000E+00  0.39546922821E+03  0.39546922821E+03  0.00000000000E+00 0.  1.
         21   -1    0    0  501  502  0.00000000000E+00 -0.00000000000E+00 -0.69484930948E+02  0.69484930948E+02  0.00000000000E+00 0. -1.
         23    2    1    2    0    0  0.37674508973E+01  0.58404428116E+02  0.17246714168E+03  0.20205532719E+03  0.87499539308E+02 0.  0.
         23    2    1    2    0    0  0.12998898157E+02 -0.11311573401E+03  0.71762522471E+02  0.16310776278E+03  0.92141966618E+02 0.  0.
        -11    1    4    4    0    0 -0.29571789398E+02 -0.20157104837E+02  0.44856889643E+02  0.57384145477E+02  0.00000000000E+00 0.  1.
         11    1    4    4    0    0  0.42570687555E+02 -0.92958629178E+02  0.26905632828E+02  0.10572361730E+03  0.00000000000E+00 0. -1.
        -11    1    3    3    0    0  0.36519466494E+02  0.54099646301E+02  0.76499989284E+02  0.10056187908E+03  0.00000000000E+00 0.  1.
         11    1    3    3    0    0 -0.32752015597E+02  0.43047818142E+01  0.95967152393E+02  0.10149344812E+03  0.00000000000E+00 0. -1.
         -1    1    1    2    0  502 -0.16766349055E+02  0.54711305899E+02  0.81754633119E+02  0.99791069191E+02  0.00000000000E+00 0.  1.
<scales pt_clust_5="13000.00000" pt_clust_6="13000.00000" pt_clust_7="13000.00000" pt_clust_8="13000.00000" pt_clust_9="57.22273"></scales>
<clustering>
<clus scale="   57.223">  2  9  1 -1</clus>
<clus scale="   87.500">  7  8 -1 -1</clus>
<clus scale="   92.142">  5  6 -1 -1</clus>
<clus scale="  113.182">  1  7  2 -1</clus>
<clus scale="   57.223">  2  5  1 -1</clus>
</clustering>
</event>
<event>
 9    1  0.1399746E-005  0.1045483E+03  0.7546771E-02  0.1273547E+00
         -1   -1    0    0    0  501 -0.00000000000E+00  0.00000000000E+00  0.55259855467E+02  0.55259855467E+02  0.00000000000E+00 0.  1.
         21   -1    0    0  501  502  0.00000000000E+00 -0.00000000000E+00 -0.32395179940E+03  0.32395179940E+03  0.00000000000E+00 0. -1.
         23    2    1    2    0    0  0.31971056409E+02 -0.33996338016E+02 -0.38930922894E+02  0.10949891987E+03  0.91085109924E+02 0.  0.
         23    2    1    2    0    0 -0.29104099984E+02  0.10211361793E+02 -0.11852887552E+03  0.15592989477E+03  0.96507601798E+02 0.  0.
        -11    1    3    3    0    0  0.59948828085E+02 -0.10236601397E+02 -0.39976139260E+02  0.72778717405E+02  0.00000000000E+00 0.  1.
         11    1    3    3    0    0 -0.27977771676E+02 -0.23759736619E+02  0.10452163661E+01  0.36720202470E+02  0.00000000000E+00 0. -1.
        -13    1    4    4    0    0 -0.16922072873E+02  0.42648577687E+02 -0.11150448075E+03  0.12057573121E+03  0.00000000000E+00 0.  1.
         13    1    4    4    0    0 -0.12182027111E+02 -0.32437215894E+02 -0.70243947773E+01  0.35354163566E+02  0.00000000000E+00 0. -1.
         -1    1    1    2    0  502 -0.28669564254E+01  0.23784976223E+02 -0.11123214551E+03  0.11378284022E+03  0.00000000000E+00 0.  1.
<scales pt_clust_5="13000.00000" pt_clust_6="13000.00000" pt_clust_7="13000.00000" pt_clust_8="13000.00000" pt_clust_9="23.95714"></scales>
<clustering>
<clus scale="   23.957">  2  9  1 -1</clus>
<clus scale="   91.085">  5  6 -1 -1</clus>
<clus scale="   96.508">  7  8 -1 -1</clus>
<clus scale="   99.565">  1  5  2 -1</clus>
<clus scale="   23.957">  2  5  1 -1</clus>
</clustering>
</event>
<event>
 9    1  0.1399746E-005  0.1799774E+03  0.7546771E-02  0.1167929E+00
          2   -1    0    0  502    0 -0.00000000000E+00  0.00000000000E+00  0.56514561678E+03  0.56514561678E+03  0.00000000000E+00 0. -1.
         21   -1    0    0  501  502  0.00000000000E+00 -0.00000000000E+00 -0.66971176421E+02  0.66971176421E+02  0.00000000000E+00 0.  1.
         23    2    1    2    0    0  0.51154204862E+02 -0.13929422985E+03  0.25019334422E+03  0.30523322097E+03  0.92471479639E+02 0.  0.
         23    2    1    2    0    0 -0.38719078730E+02  0.15716468979E+03  0.24012688467E+03  0.30373893271E+03  0.91632481836E+02 0.  0.
        -13    1    4    4    0    0  0.63281201269E+01  0.90699616644E+02  0.67130201885E+02  0.11301738614E+03  0.00000000000E+00 0.  1.
         13    1    4    4    0    0 -0.45047198857E+02  0.66465073150E+02  0.17299668279E+03  0.19072154658E+03  0.00000000000E+00 0. -1.
        -13    1    3    3    0    0  0.58517887047E+02 -0.33964714656E+02  0.11830225127E+03  0.13628414288E+03  0.00000000000E+00 0. -1.
         13    1    3    3    0    0 -0.73636821851E+01 -0.10532951519E+03  0.13189109295E+03  0.16894907809E+03  0.00000000000E+00 0.  1.
          2    1    1    2  501    0 -0.12435126133E+02 -0.17870459948E+02  0.78542114653E+01  0.23144639518E+02  0.00000000000E+00 0. -1.
<scales pt_clust_5="13000.00000" pt_clust_6="13000.00000" pt_clust_7="13000.00000" pt_clust_8="13000.00000" pt_clust_9="21.77121"></scales>
<clustering>
<clus scale="   21.771">  2  9  1 -1</clus>
<clus scale="   91.632">  5  6 -1 -1</clus>
<clus scale="   92.471">  7  8 -1 -1</clus>
<clus scale="  179.548">  2  5  1 -1</clus>
<clus scale="   21.771">  2  5  1 -1</clus>
</clustering>
</event>
<event>
 9    1  0.1399746E-005  0.2255982E+03  0.7546771E-02  0.1131207E+00
          2   -1    0    0  502    0 -0.00000000000E+00  0.00000000000E+00  0.10866704076E+04  0.10866704076E+04  0.00000000000E+00 0. -1.
         21   -1    0    0  501  502  0.00000000000E+00 -0.00000000000E+00 -0.90756283255E+02  0.90756283255E+02  0.00000000000E+00 0. -1.
         23    2    1    2    0    0 -0.18346773346E+03 -0.68750985008E+02  0.58349985483E+03  0.62232050072E+03  0.91780269485E+02 0.  0.
         23    2    1    2    0    0  0.21604650316E+03 -0.33215608083E+02  0.36223721987E+03  0.43688479338E+03  0.10896398983E+03 0.  0.
        -13    1    3    3    0    0 -0.14199917273E+02  0.18268451443E+02  0.37125366370E+02  0.43745477444E+02  0.00000000000E+00 0.  1.
         13    1    3    3    0    0 -0.16926781618E+03 -0.87019436450E+02  0.54637448846E+03  0.57857502328E+03  0.00000000000E+00 0. -1.
        -13    1    4    4    0    0  0.15225808563E+03  0.73624540583E+01  0.16005467674E+03  0.22102992991E+03  0.00000000000E+00 0. -1.
         13    1    4    4    0    0  0.63788417534E+02 -0.40578062141E+02  0.20218254313E+03  0.21585486347E+03  0.00000000000E+00 0.  1.
          2    1    1    2  501    0 -0.32578769704E+02  0.10196659309E+03  0.50177049656E+02  0.11822139677E+03  0.00000000000E+00 0. -1.
<scales pt_clust_5="13000.00000" pt_clust_6="13000.00000" pt_clust_7="13000.00000" pt_clust_8="13000.00000" pt_clust_9="107.04467"></scales>
<clustering>
<clus scale="   91.780">  5  6 -1 -1</clus>
<clus scale="  107.045">  2  9  1 -1</clus>
<clus scale="  108.964">  7  8 -1 -1</clus>
<clus scale="  217.819">  1  5  2 -1</clus>
<clus scale="  107.045">  2  5  1 -1</clus>
</clustering>
</event>
<event>
 9    1  0.1399746E-005  0.1092723E+03  0.7546771E-02  0.1263737E+00
          2   -1    0    0  502    0 -0.00000000000E+00  0.00000000000E+00  0.24318198078E+03  0.24318198078E+03  0.00000000000E+00 0. -1.
         21   -1    0    0  501  502  0.00000000000E+00 -0.00000000000E+00 -0.74434538405E+02  0.74434538405E+02  0.00000000000E+00 0. -1.
         23    2    1    2    0    0  0.65013758759E+02 -0.25430884576E+02  0.11461998392E+03  0.16177908356E+03  0.90339429069E+02 0.  0.
         23    2    1    2    0    0 -0.27099225684E+02  0.25388926346E+02  0.58952937941E+02  0.11761703752E+03  0.94759448133E+02 0.  0.
        -11    1    4    4    0    0  0.29140913601E+02  0.18563048716E+01 -0.45890798134E+01  0.29558389110E+02  0.00000000000E+00 0.  1.
         11    1    4    4    0    0 -0.56240139284E+02  0.23532621475E+02  0.63542017755E+02  0.88058648414E+02  0.00000000000E+00 0. -1.
        -11    1    3    3    0    0 -0.22521263356E+02 -0.20037990111E+01  0.15118182370E+02  0.27198932916E+02  0.00000000000E+00 0.  1.
         11    1    3    3    0    0  0.87535022115E+02 -0.23427085565E+02  0.99501801552E+02  0.13458015064E+03  0.00000000000E+00 0. -1.
          2    1    1    2  501    0 -0.37914533075E+02  0.41958230023E-01 -0.48254794885E+01  0.38220398102E+02  0.00000000000E+00 0. -1.
<scales pt_clust_5="13000.00000" pt_clust_6="13000.00000" pt_clust_7="13000.00000" pt_clust_8="13000.00000" pt_clust_9="37.91456"></scales>
<clustering>
<clus scale="   37.915">  2  9  1 -1</clus>
<clus scale="   90.339">  7  8 -1 -1</clus>
<clus scale="   94.759">  5  6 -1 -1</clus>
<clus scale="  105.462">  1  7  2 -1</clus>
<clus scale="   37.915">  2  5  1 -1</clus>
</clustering>
</event>
<event>
 9    1  0.1399746E-005  0.1551093E+03  0.7546771E-02  0.1198200E+00
          1   -1    0    0  502    0 -0.00000000000E+00  0.00000000000E+00  0.69826688352E+02  0.69826688352E+02  0.00000000000E+00 0. -1.
         21   -1    0    0  501  502  0.00000000000E+00 -0.00000000000E+00 -0.68963555249E+03  0.68963555249E+03  0.00000000000E+00 0. -1.
         23    2    1    2    0    0 -0.12118948204E+03 -0.49077295787E+02 -0.50523177337E+02  0.16790423784E+03  0.92432516558E+02 0.  0.
         23    2    1    2    0    0  0.89095021734E+02  0.51621942412E+02 -0.38588087680E+03  0.40534883583E+03  0.69288381360E+02 0.  0.
        -11    1    3    3    0    0 -0.48378448377E+02  0.23143134646E+02 -0.35356546705E+02  0.64235226656E+02  0.00000000000E+00 0.  1.
         11    1    3    3    0    0 -0.72811033660E+02 -0.72220430433E+02 -0.15166630631E+02  0.10366901118E+03  0.00000000000E+00 0. -1.
        -11    1    4    4    0    0  0.41922796938E+02 -0.12132076066E+02 -0.16449549927E+03  0.17018659598E+03  0.00000000000E+00 0.  1.
         11    1    4    4    0    0  0.47172224796E+02  0.63754018478E+02 -0.22138537753E+03  0.23516223984E+03  0.00000000000E+00 0. -1.
          1    1    1    2  501    0  0.32094460303E+02 -0.25446466247E+01 -0.18340481000E+03  0.18620916717E+03  0.00000000000E+00 0. -1.
<scales pt_clust_5="13000.00000" pt_clust_6="13000.00000" pt_clust_7="13000.00000" pt_clust_8="13000.00000" pt_clust_9="32.19518"></scales>
<clustering>
<clus scale="   32.195">  2  9  1 -1</clus>
<clus scale="   69.288">  7  8 -1 -1</clus>
<clus scale="   92.433">  5  6 -1 -1</clus>
<clus scale="  142.534">  2  7  1 -1</clus>
<clus scale="   32.195">  2  5  1 -1</clus>
</clustering>
</event>
<event>
 9    1  0.1399746E-005  0.1193258E+03  0.7546771E-02  0.1245046E+00
         -2   -1    0    0    0  501 -0.00000000000E+00  0.00000000000E+00  0.28966362038E+03  0.28966362038E+03  0.00000000000E+00 0.  1.
         21   -1    0    0  501  502  0.00000000000E+00 -0.00000000000E+00 -0.87596147530E+02  0.87596147530E+02  0.00000000000E+00 0.  1.
         23    2    1    2    0    0  0.77270840376E+02 -0.91365152857E+01  0.18274443791E+03  0.21757492369E+03  0.88820375743E+02 0.  0.
         23    2    1    2    0    0 -0.69299340057E+02  0.33299244927E+02  0.40959454438E+02  0.12628548838E+03  0.91428165374E+02 0.  0.
        -11    1    4    4    0    0 -0.37381212824E+02 -0.30365941221E+02  0.14265183678E+02  0.50228885353E+02  0.00000000000E+00 0.  1.
         11    1    4    4    0    0 -0.31918127233E+02  0.63665186148E+02  0.26694270760E+02  0.76056603032E+02  0.00000000000E+00 0. -1.
        -13    1    3    3    0    0  0.80706407090E+02  0.22399179017E+02  0.15113902295E+03  0.17279540394E+03  0.00000000000E+00 0.  1.
         13    1    3    3    0    0 -0.34355667141E+01 -0.31535694303E+02  0.31605414964E+02  0.44779519748E+02  0.00000000000E+00 0. -1.
         -2    1    1    2    0  502 -0.79715003194E+01 -0.24162729642E+02 -0.21636419502E+02  0.33399355831E+02  0.00000000000E+00 0.  1.
<scales pt_clust_5="13000.00000" pt_clust_6="13000.00000" pt_clust_7="13000.00000" pt_clust_8="13000.00000" pt_clust_9="25.44371"></scales>
<clustering>
<clus scale="   25.444">  2  9  1 -1</clus>
<clus scale="   88.820">  7  8 -1 -1</clus>
<clus scale="   91.428">  5  6 -1 -1</clus>
<clus scale="  117.340">  1  7  2 -1</clus>
<clus scale="   25.444">  2  5  1 -1</clus>
</clustering>
</event>
<event>
 9    1  0.1399746E-005  0.1784447E+03  0.7546771E-02  0.1169814E+00
          1   -1    0    0  502    0 -0.00000000000E+00  0.00000000000E+00  0.55043198453E+03  0.55043198453E+03  0.00000000000E+00 0. -1.
         21   -1    0    0  501  502  0.00000000000E+00 -0.00000000000E+00 -0.77147199073E+02  0.77147199073E+02  0.00000000000E+00 0.  1.
         23    2    1    2    0    0  0.15378840279E+03 -0.57779333484E+02  0.33047012016E+03  0.38109701604E+03  0.95053201467E+02 0.  0.
         23    2    1    2    0    0 -0.12301409588E+03  0.48068632033E+02  0.14183937981E+03  0.21419738987E+03  0.91208831775E+02 0.  0.
        -11    1    4    4    0    0 -0.10621279214E+03 -0.33908772367E+01  0.90258445828E+02  0.13942468328E+03  0.00000000000E+00 0.  1.
         11    1    4    4    0    0 -0.16801303733E+02  0.51459509270E+02  0.51580933978E+02  0.74772706595E+02  0.00000000000E+00 0. -1.
        -13    1    3    3    0    0  0.63821034013E+02 -0.71079933045E+02  0.13363588959E+03  0.16426817175E+03  0.00000000000E+00 0.  1.
         13    1    3    3    0    0  0.89967368773E+02  0.13300599562E+02  0.19683423057E+03  0.21682884429E+03  0.00000000000E+00 0. -1.
          1    1    1    2  501    0 -0.30774306910E+02  0.97107014507E+01  0.97528548700E+00  0.32284777686E+02  0.00000000000E+00 0. -1.
<scales pt_clust_5="13000.00000" pt_clust_6="13000.00000" pt_clust_7="13000.00000" pt_clust_8="13000.00000" pt_clust_9="32.27004"></scales>
<clustering>
<clus scale="   32.270">  2  9  1 -1</clus>
<clus scale="   91.209">  5  6 -1 -1</clus>
<clus scale="   95.053">  7  8 -1 -1</clus>
<clus scale="  176.427">  2  5  1 -1</clus>
<clus scale="   32.270">  2  5  1 -1</clus>
</clustering>
</event>
<event>
 9    1  0.1399746E-005  0.1570194E+03  0.7546771E-02  0.1192681E+00
          2   -1    0    0  502    0 -0.00000000000E+00  0.00000000000E+00  0.61119773141E+03  0.61119773141E+03  0.00000000000E+00 0. -1.
         21   -1    0    0  501  502  0.00000000000E+00 -0.00000000000E+00 -0.72166907372E+02  0.72166907372E+02  0.00000000000E+00 0.  1.
         23    2    1    2    0    0 -0.11982598017E+03 -0.13254334897E+02  0.36911246986E+03  0.39838292970E+03  0.89056164011E+02 0.  0.
         23    2    1    2    0    0  0.14095172440E+03  0.49029484068E+01  0.19043235104E+03  0.25437342927E+03  0.92465851442E+02 0.  0.
        -11    1    4    4    0    0  0.13043774997E+02  0.31635033329E+02  0.63867322970E+02  0.72456541067E+02  0.00000000000E+00 0. -1.
         11    1    4    4    0    0  0.12790794940E+03 -0.26732084922E+02  0.12656502807E+03  0.18191688821E+03  0.00000000000E+00 0.  1.
        -13    1    3    3    0    0 -0.12042847571E+03 -0.35932441383E+02  0.28950902191E+03  0.31560993627E+03  0.00000000000E+00 0. -1.
         13    1    3    3    0    0  0.60249554056E+00  0.22678106486E+02  0.79603447952E+02  0.82772993425E+02  0.00000000000E+00 0.  1.
          2    1    1    2  501    0 -0.21125744222E+02  0.83513864902E+01 -0.20513996871E+02  0.30608279809E+02  0.00000000000E+00 0. -1.
<scales pt_clust_5="13000.00000" pt_clust_6="13000.00000" pt_clust_7="13000.00000" pt_clust_8="13000.00000" pt_clust_9="22.71657"></scales>
<clustering>
<clus scale="   22.717">  2  9  1 -1</clus>
<clus scale="   89.056">  7  8 -1 -1</clus>
<clus scale="   92.466">  5  6 -1 -1</clus>
<clus scale="  155.036">  1  7  2 -1</clus>
<clus scale="   22.717">  2  5  1 -1</clus>
</clustering>
</event>
<event>
 9    1  0.1399746E-005  0.1105240E+03  0.7546771E-02  0.1261305E+00
          2   -1    0    0  502    0 -0.00000000000E+00  0.00000000000E+00  0.93310935850E+02  0.93310935850E+02  0.00000000000E+00 0. -1.
         21   -1    0    0  501  502  0.00000000000E+00 -0.00000000000E+00 -0.15850500028E+03  0.15850500028E+03  0.00000000000E+00 0.  1.
         23    2    1    2    0    0 -0.55913109587E+02  0.76687414026E+01 -0.14140918242E+02  0.11151723102E+03  0.95136963521E+02 0.  0.
         23    2    1    2    0    0  0.50502719073E+02 -0.29535192959E+02 -0.43879952342E+02  0.11665830031E+03  0.90889254351E+02 0.  0.
        -11    1    4    4    0    0  0.49867009662E+02  0.22105450024E+02 -0.11635079949E+02  0.55774050048E+02  0.00000000000E+00 0. -1.
         11    1    4    4    0    0  0.63570941152E+00 -0.51640642983E+02 -0.32244872392E+02  0.60884250260E+02  0.00000000000E+00 0.  1.
        -11    1    3    3    0    0 -0.75991601716E+02  0.47648301584E+01  0.13399807317E+02  0.77310943429E+02  0.00000000000E+00 0. -1.
         11    1    3    3    0    0  0.20078492129E+02  0.29039112442E+01 -0.27540725559E+02  0.34206287594E+02  0.00000000000E+00 0.  1.
          2    1    1    2  501    0  0.54103905144E+01  0.21866451556E+02 -0.71731938503E+01  0.23640404802E+02  0.00000000000E+00 0. -1.
<scales pt_clust_5="13000.00000" pt_clust_6="13000.00000" pt_clust_7="13000.00000" pt_clust_8="13000.00000" pt_clust_9="22.52585"></scales>
<clustering>
<clus scale="   22.526">  2  9  1 -1</clus>
<clus scale="   90.889">  5  6 -1 -1</clus>
<clus scale="   95.137">  7  8 -1 -1</clus>
<clus scale="  106.890">  2  5  1 -1</clus>
<clus scale="   22.526">  2  5  1 -1</clus>
</clustering>
</event>
<event>
 9    1  0.1399746E-005  0.9094782E+02  0.7546771E-02  0.1301259E+00
         21   -1    0    0  501  502  0.00000000000E+00  0.00000000000E+00  0.97928990755E+02  0.97928990755E+02  0.00000000000E+00 0.  1.
         -1   -1    0    0    0  501 -0.00000000000E+00 -0.00000000000E+00 -0.35114410026E+03  0.35114410026E+03  0.00000000000E+00 0.  1.
         23    2    1    2    0    0 -0.10696046545E+02  0.17618214762E+02 -0.18873978848E+03  0.21043951962E+03  0.90759444465E+02 0.  0.
         23    2    1    2    0    0 -0.40900546685E+02  0.48596392519E+02 -0.98995072715E+02  0.14786906342E+03  0.89614571421E+02 0.  0.
        -11    1    3    3    0    0  0.26931906010E+02 -0.11886173668E+02 -0.21379635712E+02  0.36382653957E+02  0.00000000000E+00 0.  1.
         11    1    3    3    0    0 -0.37627952554E+02  0.29504388430E+02 -0.16736015277E+03  0.17405686567E+03  0.00000000000E+00 0. -1.
        -11    1    4    4    0    0  0.23432693591E+02  0.17095909158E+02 -0.45943485820E+01  0.29367827256E+02  0.00000000000E+00 0. -1.
         11    1    4    4    0    0 -0.64333240276E+02  0.31500483361E+02 -0.94400724133E+02  0.11850123617E+03  0.00000000000E+00 0.  1.
         -1    1    1    2    0  502  0.51596593230E+02 -0.66214607281E+02  0.34519751690E+02  0.90764507970E+02  0.00000000000E+00 0.  1.
<scales pt_clust_5="13000.00000" pt_clust_6="13000.00000" pt_clust_7="13000.00000" pt_clust_8="13000.00000" pt_clust_9="83.94393"></scales>
<clustering>
<clus scale="   83.944">  1  9  2 -1</clus>
<clus scale="   89.615">  7  8 -1 -1</clus>
<clus scale="   89.805">  1  7  2 -1</clus>
<clus scale="   90.759">  5  6 -1 -1</clus>
<clus scale="   83.944">  1  5  2 -1</clus>
</clustering>
</event>
<event>
 9    1  0.1399746E-005  0.1165485E+03  0.7546771E-02  0.1250134E+00
         21   -1    0    0  501  502  0.00000000000E+00  0.00000000000E+00  0.41651245835E+02  0.41651245835E+02  0.00000000000E+00 0.  1.
         -3   -1    0    0    0  501 -0.00000000000E+00 -0.00000000000E+00 -0.46205804010E+03  0.46205804010E+03  0.00000000000E+00 0.  1.
         23    2    1    2    0    0  0.18126278545E+02  0.65239132707E+02 -0.23180109100E+03  0.25896073356E+03  0.93510477120E+02 0.  0.
         23    2    1    2    0    0  0.93518525832E+01 -0.76121451462E+02 -0.11282627698E+03  0.16340979161E+03  0.89950312396E+02 0.  0.
        -11    1    4    4    0    0  0.25298613736E+02 -0.90873166497E+02 -0.78176454238E+02  0.12251330639E+03  0.00000000000E+00 0.  1.
         11    1    4    4    0    0 -0.15946761153E+02  0.14751715035E+02 -0.34649822738E+02  0.40896485222E+02  0.00000000000E+00 0. -1.
        -11    1    3    3    0    0 -0.35980895205E+02  0.24990471425E+02 -0.12694887241E+03  0.13429506577E+03  0.00000000000E+00 0. -1.
         11    1    3    3    0    0  0.54107173750E+02  0.40248661282E+02 -0.10485221858E+03  0.12466566780E+03  0.00000000000E+00 0.  1.
         -3    1    1    2    0  502 -0.27478131128E+02  0.10882318755E+02 -0.75779426298E+02  0.81338760759E+02  0.00000000000E+00 0.  1.
<scales pt_clust_5="13000.00000" pt_clust_6="13000.00000" pt_clust_7="13000.00000" pt_clust_8="13000.00000" pt_clust_9="29.55458"></scales>
<clustering>
<clus scale="   29.555">  1  9  2 -1</clus>
<clus scale="   89.950">  5  6 -1 -1</clus>
<clus scale="   93.510">  7  8 -1 -1</clus>
<clus scale="  113.712">  1  5  2 -1</clus>
<clus scale="   29.555">  1  5  2 -1</clus>
</clustering>
</event>
<event>
 9    1  0.1399746E-005  0.1196144E+03  0.7546771E-02  0.1243798E+00
          2   -1    0    0  502    0 -0.00000000000E+00  0.00000000000E+00  0.78410820257E+03  0.78410820257E+03  0.00000000000E+00 0. -1.
         21   -1    0    0  501  502  0.00000000000E+00 -0.00000000000E+00 -0.28922548919E+02  0.28922548919E+02  0.00000000000E+00 0.  1.
         23    2    1    2    0    0 -0.76228964436E+01  0.82808789277E+02  0.41440661363E+03  0.43185709461E+03  0.88613230465E+02 0.  0.
         23    2    1    2    0    0 -0.13400866193E+02 -0.77454742094E+02  0.33941067341E+03  0.35943574429E+03  0.88406044834E+02 0.  0.
        -11    1    3    3    0    0  0.30601001088E+02  0.63736637411E+02  0.17629456843E+03  0.18994355760E+03  0.00000000000E+00 0.  1.
         11    1    3    3    0    0 -0.38223897532E+02  0.19072151866E+02  0.23811204520E+03  0.24191353701E+03  0.00000000000E+00 0. -1.
        -13    1    4    4    0    0  0.36991549209E+02 -0.37539943946E+02  0.17981541584E+03  0.18737984384E+03  0.00000000000E+00 0. -1.
         13    1    4    4    0    0 -0.50392415402E+02 -0.39914798148E+02  0.15959525757E+03  0.17205590045E+03  0.00000000000E+00 0.  1.
          2    1    1    2  501    0  0.21023762637E+02 -0.53540471825E+01  0.13683666182E+01  0.21737912591E+02  0.00000000000E+00 0. -1.
<scales pt_clust_5="13000.00000" pt_clust_6="13000.00000" pt_clust_7="13000.00000" pt_clust_8="13000.00000" pt_clust_9="21.69480"></scales>
<clustering>
<clus scale="   21.695">  2  9  1 -1</clus>
<clus scale="   88.406">  7  8 -1 -1</clus>
<clus scale="   88.613">  5  6 -1 -1</clus>
<clus scale="  119.461">  2  7  1 -1</clus>
<clus scale="   21.695">  2  5  1 -1</clus>
</clustering>
</event>
<event>
 9    1  0.1399746E-005  0.1142551E+03  0.7546771E-02  0.1253606E+00
         21   -1    0    0  501  502  0.00000000000E+00  0.00000000000E+00  0.17550314476E+03  0.17550314476E+03  0.00000000000E+00 0. -1.
         -1   -1    0    0    0  501 -0.00000000000E+00 -0.00000000000E+00 -0.16350833971E+03  0.16350833971E+03  0.00000000000E+00 0.  1.
         23    2    1    2    0    0 -0.65183295412E+02  0.60044180768E+02 -0.80398875017E+02  0.15164708174E+03  0.93159501137E+02 0.  0.
         23    2    1    2    0    0  0.13751121176E+02 -0.14035227384E+02  0.44251806981E+02  0.10322325773E+03  0.91163246833E+02 0.  0.
        -11    1    3    3    0    0 -0.44748357363E+02  0.63330706894E+02 -0.99017440728E+01  0.78174410507E+02  0.00000000000E+00 0. -1.
         11    1    3    3    0    0 -0.20434938048E+02 -0.32865261265E+01 -0.70497130945E+02  0.73472671235E+02  0.00000000000E+00 0.  1.
        -13    1    4    4    0    0  0.37663019186E+02  0.26326836517E+02  0.17177554525E+02  0.49057860885E+02  0.00000000000E+00 0. -1.
         13    1    4    4    0    0 -0.23911898011E+02 -0.40362063900E+02  0.27074252456E+02  0.54165396840E+02  0.00000000000E+00 0.  1.
         -1    1    1    2    0  502  0.51432174236E+02 -0.46008953384E+02  0.48141873082E+02  0.84141145000E+02  0.00000000000E+00 0.  1.
<scales pt_clust_5="13000.00000" pt_clust_6="13000.00000" pt_clust_7="13000.00000" pt_clust_8="13000.00000" pt_clust_9="69.00792"></scales>
<clustering>
<clus scale="   69.008">  1  9  2 -1</clus>
<clus scale="   91.163">  7  8 -1 -1</clus>
<clus scale="   93.160">  5  6 -1 -1</clus>
<clus scale="  112.633">  1  7  2 -1</clus>
<clus scale="   69.008">  1  5  2 -1</clus>
</clustering>
</event>
<event>
 9    1  0.1399746E-005  0.9564972E+02  0.7546771E-02  0.1290557E+00
          2   -1    0    0  502    0 -0.00000000000E+00  0.00000000000E+00  0.19356570666E+03  0.19356570666E+03  0.00000000000E+00 0. -1.
         21   -1    0    0  501  502  0.00000000000E+00 -0.00000000000E+00 -0.20995074360E+03  0.20995074360E+03  0.00000000000E+00 0.  1.
         23    2    1    2    0    0  0.37745603907E+02 -0.51879248823E+01  0.12406124591E+03  0.15802288126E+03  0.90157601382E+02 0.  0.
         23    2    1    2    0    0  0.37919128939E+01 -0.28016329126E+02 -0.70092078645E+00  0.95972152456E+02  0.91710792473E+02 0.  0.
        -11    1    3    3    0    0  0.65869978553E+02 -0.29505719653E+01  0.65095891498E+02  0.92655464164E+02  0.00000000000E+00 0.  1.
         11    1    3    3    0    0 -0.28124374646E+02 -0.22373529170E+01  0.58965354408E+02  0.65367417095E+02  0.00000000000E+00 0. -1.
        -11    1    4    4    0    0 -0.26421588979E+02 -0.10855384089E+02  0.35652231766E+02  0.45683928879E+02  0.00000000000E+00 0. -1.
         11    1    4    4    0    0  0.30213501873E+02 -0.17160945036E+02 -0.36353152553E+02  0.50288223577E+02  0.00000000000E+00 0.  1.
          2    1    1    2  501    0 -0.41537516801E+02  0.33204254008E+02 -0.13974536206E+03  0.14952141654E+03  0.00000000000E+00 0. -1.
<scales pt_clust_5="13000.00000" pt_clust_6="13000.00000" pt_clust_7="13000.00000" pt_clust_8="13000.00000" pt_clust_9="53.17789"></scales>
<clustering>
<clus scale="   53.178">  2  9  1 -1</clus>
<clus scale="   90.158">  5  6 -1 -1</clus>
<clus scale="   91.711">  7  8 -1 -1</clus>
<clus scale="   94.162">  1  5  2 -1</clus>
<clus scale="   53.178">  2  5  1 -1</clus>
</clustering>
</event>
<event>
 9    1  0.1399746E-005  0.1286741E+03  0.7546771E-02  0.1229854E+00
         -3   -1    0    0    0  501 -0.00000000000E+00  0.00000000000E+00  0.42768344388E+03  0.42768344388E+03  0.00000000000E+00 0.  1.
         21   -1    0    0  501  502  0.00000000000E+00 -0.00000000000E+00 -0.73433596548E+02  0.73433596548E+02  0.00000000000E+00 0.  1.
         23    2    1    2    0    0  0.97065374218E+02  0.36480161341E+02  0.27655576443E+03  0.30937168924E+03  0.92061187390E+02 0.  0.
         23    2    1    2    0    0 -0.64467222934E+02 -0.26987198347E+01  0.87909802870E+02  0.14370176481E+03  0.93588235621E+02 0.  0.
        -13    1    4    4    0    0 -0.49500919540E+02  0.37888401319E+02  0.77034948473E+02  0.99097201152E+02  0.00000000000E+00 0.  1.
         13    1    4    4    0    0 -0.14966303394E+02 -0.40587121154E+02  0.10874854396E+02  0.44604563656E+02  0.00000000000E+00 0. -1.
        -13    1    3    3    0    0  0.10424676809E+03  0.11450480171E+02  0.25444768809E+03  0.27521287783E+03  0.00000000000E+00 0.  1.
         13    1    3    3    0    0 -0.71813938711E+01  0.25029681170E+02  0.22108076342E+02  0.34158811410E+02  0.00000000000E+00 0. -1.
         -3    1    1    2    0  502 -0.32598151285E+02 -0.33781441506E+02 -0.10215719966E+02  0.48043586376E+02  0.00000000000E+00 0.  1.
<scales pt_clust_5="13000.00000" pt_clust_6="13000.00000" pt_clust_7="13000.00000" pt_clust_8="13000.00000" pt_clust_9="46.94492"></scales>
<clustering>
<clus scale="   46.945">  2  9  1 -1</clus>
<clus scale="   92.061">  7  8 -1 -1</clus>
<clus scale="   93.588">  5  6 -1 -1</clus>
<clus scale="  127.568">  1  7  2 -1</clus>
<clus scale="   46.945">  2  5  1 -1</clus>
</clustering>
</event>
<event>
 9    1  0.1399746E-005  0.1487886E+03  0.7546771E-02  0.1207978E+00
         -2   -1    0    0    0  501 -0.00000000000E+00  0.00000000000E+00  0.84115017119E+03  0.84115017119E+03  0.00000000000E+00 0.  1.
         21   -1    0    0  501  502  0.00000000000E+00 -0.00000000000E+00 -0.11560679314E+03  0.11560679314E+03  0.00000000000E+00 0. -1.
         23    2    1    2    0    0 -0.69911731424E+02  0.12510374651E+02  0.41072825738E+03  0.43247361272E+03  0.11528904816E+03 0.  0.
         23    2    1    2    0    0  0.13301676840E+03  0.60890902458E+02  0.37336695917E+03  0.41115373142E+03  0.90792852037E+02 0.  0.
        -11    1    3    3    0    0 -0.41736131593E+02 -0.50467291901E+02  0.22533733885E+03  0.23466096504E+03  0.00000000000E+00 0.  1.
         11    1    3    3    0    0 -0.28175599831E+02  0.62977666552E+02  0.18539091853E+03  0.19781264768E+03  0.00000000000E+00 0. -1.
        -13    1    4    4    0    0  0.10707789745E+03  0.25978695791E+01  0.20924053951E+03  0.23506175449E+03  0.00000000000E+00 0. -1.
         13    1    4    4    0    0  0.25938870949E+02  0.58293032879E+02  0.16412641966E+03  0.17609197693E+03  0.00000000000E+00 0.  1.
         -2    1    1    2    0  502 -0.63105036975E+02 -0.73401277109E+02 -0.58551838502E+02  0.11312962019E+03  0.00000000000E+00 0.  1.
<scales pt_clust_5="13000.00000" pt_clust_6="13000.00000" pt_clust_7="13000.00000" pt_clust_8="13000.00000" pt_clust_9="96.79873"></scales>
<clustering>
<clus scale="   90.793">  7  8 -1 -1</clus>
<clus scale="   96.799">  2  9  1 -1</clus>
<clus scale="  115.289">  5  6 -1 -1</clus>
<clus scale="  130.728">  2  7  1 -1</clus>
<clus scale="   96.799">  2  5  1 -1</clus>
</clustering>
</event>
<event>
 9    1  0.1399746E-005  0.2253761E+03  0.7546771E-02  0.1130217E+00
         21   -1    0    0  501  502  0.00000000000E+00  0.00000000000E+00  0.38292195327E+03  0.38292195327E+03  0.00000000000E+00 0. -1.
          2   -1    0    0  502    0 -0.00000000000E+00 -0.00000000000E+00 -0.84220614563E+03  0.84220614563E+03  0.00000000000E+00 0. -1.
         23    2    1    2    0    0 -0.12589526454E+03 -0.14460278933E+03 -0.48093253323E+03  0.52579290152E+03  0.91665093982E+02 0.  0.
         23    2    1    2    0    0  0.15209210600E+03  0.17975692910E+03 -0.29050501952E+03  0.38411811590E+03  0.87800901639E+02 0.  0.
        -11    1    3    3    0    0 -0.91203341557E+02 -0.97294821186E+02 -0.21138991444E+03  0.24994004814E+03  0.00000000000E+00 0.  1.
         11    1    3    3    0    0 -0.34691922983E+02 -0.47307968148E+02 -0.26954261879E+03  0.27585285338E+03  0.00000000000E+00 0. -1.
        -13    1    4    4    0    0 -0.10717578461E+02  0.16903726721E+02 -0.33631783985E+02  0.39136930885E+02  0.00000000000E+00 0.  1.
         13    1    4    4    0    0  0.16280968446E+03  0.16285320238E+03 -0.25687323554E+03  0.34498118501E+03  0.00000000000E+00 0. -1.
          2    1    1    2  501    0 -0.26196841460E+02 -0.35154139765E+02  0.31215336040E+03  0.31521708147E+03  0.00000000000E+00 0. -1.
<scales pt_clust_5="13000.00000" pt_clust_6="13000.00000" pt_clust_7="13000.00000" pt_clust_8="13000.00000" pt_clust_9="43.84162"></scales>
<clustering>
<clus scale="   43.842">  1  9  2 -1</clus>
<clus scale="   87.801">  7  8 -1 -1</clus>
<clus scale="   91.665">  5  6 -1 -1</clus>
<clus scale="  223.832">  1  7  2 -1</clus>
<clus scale="   43.842">  1  5  2 -1</clus>
</clustering>
</event>
<event>
 9    1  0.1399746E-005  0.9858909E+02  0.7546771E-02  0.1284578E+00
         21   -1    0    0  501  502  0.00000000000E+00  0.00000000000E+00  0.84673326147E+02  0.84673326147E+02  0.00000000000E+00 0.  1.
          1   -1    0    0  502    0 -0.00000000000E+00 -0.00000000000E+00 -0.23642083445E+03  0.23642083445E+03  0.00000000000E+00 0. -1.
         23    2    1    2    0    0 -0.16458805976E+02  0.25984283402E+02 -0.87462683233E+02  0.13027706558E+03  0.91522224511E+02 0.  0.
         23    2    1    2    0    0  0.32927909652E+02 -0.77564792743E+01  0.20973516324E+02  0.10209016001E+03  0.94011181135E+02 0.  0.
        -11    1    3    3    0    0  0.11714831593E+02  0.27856964830E+02  0.75572833602E+01  0.31150606745E+02  0.00000000000E+00 0.  1.
         11    1    3    3    0    0 -0.28173637569E+02 -0.18726814286E+01 -0.95019966593E+02  0.99126458834E+02  0.00000000000E+00 0. -1.
        -13    1    4    4    0    0  0.65146156986E+02 -0.10477583437E+02  0.22519235166E+02  0.69720280243E+02  0.00000000000E+00 0.  1.
         13    1    4    4    0    0 -0.32218247334E+02  0.27211041630E+01 -0.15457188421E+01  0.32369879763E+02  0.00000000000E+00 0. -1.
          1    1    1    2  501    0 -0.16469103676E+02 -0.18227804127E+02 -0.85258341391E+02  0.88726935008E+02  0.00000000000E+00 0. -1.
<scales pt_clust_5="13000.00000" pt_clust_6="13000.00000" pt_clust_7="13000.00000" pt_clust_8="13000.00000" pt_clust_9="24.56593"></scales>
<clustering>
<clus scale="   24.566">  1  9  2 -1</clus>
<clus scale="   91.522">  5  6 -1 -1</clus>
<clus scale="   94.011">  7  8 -1 -1</clus>
<clus scale="   96.219">  2  5  1 -1</clus>
<clus scale="   24.566">  1  5  2 -1</clus>
</clustering>
</event>
<event>
 9    1  0.1399746E-005  0.1510828E+03  0.7546771E-02  0.1199325E+00
         21   -1    0    0  501  502  0.00000000000E+00  0.00000000000E+00  0.46119936562E+02  0.46119936562E+02  0.00000000000E+00 0.  1.
          2   -1    0    0  502    0 -0.00000000000E+00 -0.00000000000E+00 -0.88084945060E+03  0.88084945060E+03  0.00000000000E+00 0. -1.
         23    2    1    2    0    0 -0.70856154446E+02 -0.10716351877E+03 -0.68772401011E+03  0.70536807277E+03  0.89862058841E+02 0.  0.
         23    2    1    2    0    0  0.48317798917E+02  0.80821130535E+02 -0.11039885675E+03  0.17118360416E+03  0.90825403530E+02 0.  0.
        -13    1    3    3    0    0 -0.15271481425E+02 -0.96661509394E+02 -0.49176912343E+03  0.50141154385E+03  0.00000000000E+00 0.  1.
         13    1    3    3    0    0 -0.55584673021E+02 -0.10502009381E+02 -0.19595488668E+03  0.20395652892E+03  0.00000000000E+00 0. -1.
        -13    1    4    4    0    0 -0.26846050004E+02  0.14751084203E+02 -0.29056760615E+02  0.42220850576E+02  0.00000000000E+00 0. -1.
         13    1    4    4    0    0  0.75163848920E+02  0.66070046332E+02 -0.81342096140E+02  0.12896275358E+03  0.00000000000E+00 0.  1.
          2    1    1    2  501    0  0.22538355529E+02  0.26342388239E+02 -0.36606647170E+02  0.50417710233E+02  0.00000000000E+00 0. -1.
<scales pt_clust_5="13000.00000" pt_clust_6="13000.00000" pt_clust_7="13000.00000" pt_clust_8="13000.00000" pt_clust_9="34.66841"></scales>
<clustering>
<clus scale="   34.668">  1  9  2 -1</clus>
<clus scale="   89.862">  5  6 -1 -1</clus>
<clus scale="   90.825">  7  8 -1 -1</clus>
<clus scale="  150.506">  2  5  1 -1</clus>
<clus scale="   34.668">  1  5  2 -1</clus>
</clustering>
</event>
<event>
 9    1  0.1399746E-005  0.9242633E+02  0.7546771E-02  0.1297112E+00
          3   -1    0    0  502    0 -0.00000000000E+00  0.00000000000E+00  0.20611029880E+03  0.20611029880E+03  0.00000000000E+00 0. -1.
         21   -1    0    0  501  502  0.00000000000E+00 -0.00000000000E+00 -0.25124524575E+03  0.25124524575E+03  0.00000000000E+00 0. -1.
         23    2    1    2    0    0 -0.10752793252E+02 -0.67238056096E+00  0.14686391450E+03  0.17381627636E+03  0.92341831720E+02 0.  0.
         23    2    1    2    0    0 -0.33219149576E+02  0.13909694766E+01 -0.12804885124E+02  0.99027671587E+02  0.92396255131E+02 0.  0.
        -11    1    3    3    0    0  0.19584210326E+02  0.12662615340E+02  0.62838347930E-01  0.23321386537E+02  0.00000000000E+00 0. -1.
         11    1    3    3    0    0 -0.30337003578E+02 -0.13334995901E+02  0.14680107616E+03  0.15049488982E+03  0.00000000000E+00 0.  1.
        -13    1    4    4    0    0 -0.38468902372E+02  0.28693195657E+02  0.23389684491E+02  0.53387575964E+02  0.00000000000E+00 0. -1.
         13    1    4    4    0    0  0.52497527964E+01 -0.27302226180E+02 -0.36194569615E+02  0.45640095623E+02  0.00000000000E+00 0.  1.
          3    1    1    2  501    0  0.43971942828E+02 -0.71858891563E+00 -0.17919397633E+03  0.18451159660E+03  0.00000000000E+00 0. -1.
<scales pt_clust_5="13000.00000" pt_clust_6="13000.00000" pt_clust_7="13000.00000" pt_clust_8="13000.00000" pt_clust_9="43.97781"></scales>
<clustering>
<clus scale="   43.978">  2  9  1 -1</clus>
<clus scale="   92.342">  5  6 -1 -1</clus>
<clus scale="   92.372">  1  5  2 -1</clus>
<clus scale="   92.396">  7  8 -1 -1</clus>
<clus scale="   43.978">  2  5  1 -1</clus>
</clustering>
</event>
<event>
 9    1  0.1399746E-005  0.9190813E+02  0.7546771E-02  0.1298407E+00
          1   -1    0    0  502    0 -0.00000000000E+00  0.00000000000E+00  0.24291968153E+03  0.24291968153E+03  0.00000000000E+00 0. -1.
         21   -1    0    0  501  502  0.00000000000E+00 -0.00000000000E+00 -0.52873640406E+02  0.52873640406E+02  0.00000000000E+00 0.  1.
         23    2    1    2    0    0  0.52378341610E+00 -0.79343510565E+01  0.12081279890E+03  0.15137747069E+03  0.90863512911E+02 0.  0.
         23    2    1    2    0    0  0.29705693222E+02  0.12101822706E+02  0.54198514035E+02  0.11039773652E+03  0.90671379071E+02 0.  0.
        -11    1    4    4    0    0  0.18910783550E+02  0.37958028386E+02 -0.71008625886E+01  0.42998277907E+02  0.00000000000E+00 0.  1.
         11    1    4    4    0    0  0.10794909672E+02 -0.25856205680E+02  0.61299376623E+02  0.67399458614E+02  0.00000000000E+00 0. -1.
        -13    1    3    3    0    0 -0.42342680296E+02  0.10019836786E+02  0.70823004360E+02  0.83121583541E+02  0.00000000000E+00 0.  1.
         13    1    3    3    0    0  0.42866463712E+02 -0.17954187842E+02  0.49989794541E+02  0.68255887149E+02  0.00000000000E+00 0. -1.
          1    1    1    2  501    0 -0.30229476638E+02 -0.41674716499E+01  0.15034728190E+02  0.34018114726E+02  0.00000000000E+00 0. -1.
<scales pt_clust_5="13000.00000" pt_clust_6="13000.00000" pt_clust_7="13000.00000" pt_clust_8="13000.00000" pt_clust_9="30.51539"></scales>
<clustering>
<clus scale="   30.515">  2  9  1 -1</clus>
<clus scale="   90.671">  5  6 -1 -1</clus>
<clus scale="   90.864">  7  8 -1 -1</clus>
<clus scale="   91.718">  2  5  1 -1</clus>
<clus scale="   30.515">  2  5  1 -1</clus>
</clustering>
</event>
<event>
 9    1  0.1399746E-005  0.1348442E+03  0.7546771E-02  0.1222263E+00
         21   -1    0    0  501  502  0.00000000000E+00  0.00000000000E+00  0.24237195764E+03  0.24237195764E+03  0.00000000000E+00 0.  1.
          1   -1    0    0  502    0 -0.00000000000E+00 -0.00000000000E+00 -0.99986807420E+02  0.99986807420E+02  0.00000000000E+00 0. -1.
         23    2    1    2    0    0  0.40659017945E+02 -0.95126113534E+02  0.22957820158E+01  0.14065252850E+03  0.95266625536E+02 0.  0.
         23    2    1    2    0    0 -0.30969469619E+02  0.72135899988E+02  0.12785164891E+03  0.17391776703E+03  0.87969593858E+02 0.  0.
        -11    1    4    4    0    0 -0.55077715211E+02  0.38540724876E+02  0.43765740243E+02  0.80214600952E+02  0.00000000000E+00 0. -1.
         11    1    4    4    0    0  0.24108245593E+02  0.33595175112E+02  0.84085908667E+02  0.93703166077E+02  0.00000000000E+00 0.  1.
        -13    1    3    3    0    0  0.70629576700E+02 -0.52983798595E+02 -0.49604051940E+01  0.88433170463E+02  0.00000000000E+00 0.  1.
         13    1    3    3    0    0 -0.29970558756E+02 -0.42142314939E+02  0.72561872098E+01  0.52219358033E+02  0.00000000000E+00 0. -1.
          1    1    1    2  501    0 -0.96895483259E+01  0.22990213546E+02  0.12237719296E+02  0.27788469537E+02  0.00000000000E+00 0. -1.
<scales pt_clust_5="13000.00000" pt_clust_6="13000.00000" pt_clust_7="13000.00000" pt_clust_8="13000.00000" pt_clust_9="24.94869"></scales>
<clustering>
<clus scale="   24.949">  1  9  2 -1</clus>
<clus scale="   87.970">  5  6 -1 -1</clus>
<clus scale="   95.267">  7  8 -1 -1</clus>
<clus scale="  129.792">  1  5  2 -1</clus>
<clus scale="   24.949">  1  5  2 -1</clus>
</clustering>
</event>
<event>
 9    1  0.1399746E-005  0.1116576E+03  0.7546771E-02  0.1263372E+00
         21   -1    0    0  501  502  0.00000000000E+00  0.00000000000E+00  0.61833789674E+02  0.61833789674E+02  0.00000000000E+00 0. -1.
          1   -1    0    0  502    0 -0.00000000000E+00 -0.00000000000E+00 -0.49675229809E+03  0.49675229809E+03  0.00000000000E+00 0. -1.
         23    2    1    2    0    0  0.24986300011E+02 -0.27185924581E+02 -0.21563056152E+03  0.23654753250E+03  0.89971141970E+02 0.  0.
         23    2    1    2    0    0 -0.71422089425E+01  0.53733424586E+02 -0.25115291833E+03  0.27688816493E+03  0.10320356307E+03 0.  0.
        -11    1    3    3    0    0  0.12860827272E+02  0.28281852504E+02 -0.33129267446E+02  0.45418194819E+02  0.00000000000E+00 0.  1.
         11    1    3    3    0    0  0.12125472739E+02 -0.55467777085E+02 -0.18250129408E+03  0.19112933768E+03  0.00000000000E+00 0. -1.
        -11    1    4    4    0    0  0.17111153548E+02  0.78395943921E+02 -0.15208289861E+03  0.17195326007E+03  0.00000000000E+00 0.  1.
         11    1    4    4    0    0 -0.24253362491E+02 -0.24662519336E+02 -0.99070019717E+02  0.10493490486E+03  0.00000000000E+00 0. -1.
          1    1    1    2  501    0 -0.17844091068E+02 -0.26547500004E+02  0.31864971431E+02  0.45150390329E+02  0.00000000000E+00 0. -1.
<scales pt_clust_5="13000.00000" pt_clust_6="13000.00000" pt_clust_7="13000.00000" pt_clust_8="13000.00000" pt_clust_9="31.98721"></scales>
<clustering>
<clus scale="   31.987">  1  9  2 -1</clus>
<clus scale="   89.971">  5  6 -1 -1</clus>
<clus scale="   99.555">  2  5  1 -1</clus>
<clus scale="  103.204">  7  8 -1 -1</clus>
<clus scale="   31.987">  1  5  2 -1</clus>
</clustering>
</event>
<event>
 9    1  0.1399746E-005  0.9886526E+02  0.7546771E-02  0.1284941E+00
         21   -1    0    0  501  502  0.00000000000E+00  0.00000000000E+00  0.32312965714E+02  0.32312965714E+02  0.00000000000E+00 0.  1.
          2   -1    0    0  502    0 -0.00000000000E+00 -0.00000000000E+00 -0.62342062671E+03  0.62342062671E+03  0.00000000000E+00 0. -1.
         23    2    1    2    0    0  0.11111683752E+02 -0.44139449948E+01 -0.17460390421E+03  0.19650863472E+03  0.89365360910E+02 0.  0.
         23    2    1    2    0    0  0.44370078809E+01  0.70715545520E+02 -0.19667460823E+03  0.22908908783E+03  0.93704499485E+02 0.  0.
        -11    1    4    4    0    0  0.28630529352E+02  0.83797488935E+02 -0.13365358266E+03  0.16032780957E+03  0.00000000000E+00 0.  1.
         11    1    4    4    0    0 -0.24193521471E+02 -0.13081943415E+02 -0.63021025564E+02  0.68761278259E+02  0.00000000000E+00 0. -1.
        -11    1    3    3    0    0 -0.33238286912E+02  0.16977743214E+02 -0.48982474553E+02  0.61581736699E+02  0.00000000000E+00 0.  1.
         11    1    3    3    0    0  0.44349970664E+02 -0.21391688209E+02 -0.12562142965E+03  0.13492689802E+03  0.00000000000E+00 0. -1.
          2    1    1    2  501    0 -0.15548691633E+02 -0.66301600525E+02 -0.21982914856E+03  0.23013586987E+03  0.00000000000E+00 0. -1.
<scales pt_clust_5="13000.00000" pt_clust_6="13000.00000" pt_clust_7="13000.00000" pt_clust_8="13000.00000" pt_clust_9="68.10043"></scales>
<clustering>
<clus scale="   68.100">  1  9  2 -1</clus>
<clus scale="   89.365">  7  8 -1 -1</clus>
<clus scale="   93.704">  5  6 -1 -1</clus>
<clus scale="   94.763">  2  7  1 -1</clus>
<clus scale="   68.100">  1  5  2 -1</clus>
</clustering>
</event>
<event>
 9    1  0.1399746E-005  0.1705469E+03  0.7546771E-02  0.1179626E+00
         21   -1    0    0  501  502  0.00000000000E+00  0.00000000000E+00  0.31949713845E+03  0.31949713845E+03  0.00000000000E+00 0. -1.
          1   -1    0    0  502    0 -0.00000000000E+00 -0.00000000000E+00 -0.62218488396E+03  0.62218488396E+03  0.00000000000E+00 0. -1.
         23    2    1    2    0    0 -0.13807973386E+03  0.10276631528E+02 -0.47024920007E+03  0.50132688494E+03  0.10498911057E+03 0.  0.
         23    2    1    2    0    0  0.11915570778E+03 -0.40686134282E+02 -0.90851427289E+02  0.17947187981E+03  0.90015163078E+02 0.  0.
        -11    1    4    4    0    0  0.75725083150E+02 -0.56317482928E+02 -0.94010010319E+02  0.13320596511E+03  0.00000000000E+00 0. -1.
         11    1    4    4    0    0  0.43430624632E+02  0.15631348646E+02  0.31585830300E+01  0.46265914702E+02  0.00000000000E+00 0.  1.
        -13    1    3    3    0    0 -0.72210518328E+02 -0.45677899171E+02 -0.27070890965E+03  0.28387346334E+03  0.00000000000E+00 0.  1.
         13    1    3    3    0    0 -0.65869215530E+02  0.55954530698E+02 -0.19954029042E+03  0.21745342159E+03  0.00000000000E+00 0. -1.
          1    1    1    2  501    0  0.18924026076E+02  0.30409502754E+02  0.25841288185E+03  0.26088325766E+03  0.00000000000E+00 0. -1.
<scales pt_clust_5="13000.00000" pt_clust_6="13000.00000" pt_clust_7="13000.00000" pt_clust_8="13000.00000" pt_clust_9="35.81699"></scales>
<clustering>
<clus scale="   35.817">  1  9  2 -1</clus>
<clus scale="   90.015">  5  6 -1 -1</clus>
<clus scale="  104.989">  7  8 -1 -1</clus>
<clus scale="  161.760">  1  5  2 -1</clus>
<clus scale="   35.817">  1  5  2 -1</clus>
</clustering>
</event>
<event>
 9    1  0.1399746E-005  0.1841432E+03  0.7546771E-02  0.1190950E+00
         21   -1    0    0  501  502  0.00000000000E+00  0.00000000000E+00  0.59344554642E+03  0.59344554642E+03  0.00000000000E+00 0. -1.
          1   -1    0    0  502    0 -0.00000000000E+00 -0.00000000000E+00 -0.21747815896E+03  0.21747815896E+03  0.00000000000E+00 0. -1.
         23    2    1    2    0    0  0.35138142645E+02  0.19953195708E+02 -0.33951788613E+02  0.10547227869E+03  0.91317350672E+02 0.  0.
         23    2    1    2    0    0 -0.19519147050E+03 -0.32623579973E+02 -0.47981461571E+02  0.22021890476E+03  0.83845913640E+02 0.  0.
        -13    1    3    3    0    0  0.38707148231E+02 -0.62576589996E+01  0.21004218366E+02  0.44481218615E+02  0.00000000000E+00 0.  1.
         13    1    3    3    0    0 -0.35690055857E+01  0.26210854708E+02 -0.54956006980E+02  0.60991060071E+02  0.00000000000E+00 0. -1.
        -13    1    4    4    0    0 -0.19397254946E+02 -0.31112657506E+02 -0.21308095685E+02  0.42406201177E+02  0.00000000000E+00 0.  1.
         13    1    4    4    0    0 -0.17579421555E+03 -0.15109224672E+01 -0.26673365885E+02  0.17781270358E+03  0.00000000000E+00 0. -1.
          1    1    1    2  501    0  0.16005332785E+03  0.12670384264E+02  0.45790063764E+03  0.48523252194E+03  0.00000000000E+00 0. -1.
<scales pt_clust_5="13000.00000" pt_clust_6="13000.00000" pt_clust_7="13000.00000" pt_clust_8="13000.00000" pt_clust_9="163.94690"></scales>
<clustering>
<clus scale="   83.846">  7  8 -1 -1</clus>
<clus scale="   91.317">  5  6 -1 -1</clus>
<clus scale="   99.858">  2  5  1 -1</clus>
<clus scale="  163.947">  1  9  2 -1</clus>
<clus scale="  163.947">  1  5  2 -1</clus>
</clustering>
</event>
<event>
 9    1  0.1399746E-005  0.9762325E+02  0.7546771E-02  0.1286956E+00
         21   -1    0    0  501  502  0.00000000000E+00  0.00000000000E+00  0.17778661612E+03  0.17778661612E+03  0.00000000000E+00 0. -1.
          3   -1    0    0  502    0 -0.00000000000E+00 -0.00000000000E+00 -0.13953160057E+03  0.13953160057E+03  0.00000000000E+00 0. -1.
         23    2    1    2    0    0 -0.61699166985E+02 -0.70662298555E+01 -0.53948813183E+02  0.12229998436E+03  0.90499132154E+02 0.  0.
         23    2    1    2    0    0 -0.20115782833E+02 -0.28924253428E+00  0.49391080558E+02  0.10238605437E+03  0.87399639077E+02 0.  0.
        -11    1    3    3    0    0 -0.27349834468E+02 -0.41684472196E+02 -0.54049575462E+02  0.73532069706E+02  0.00000000000E+00 0. -1.
         11    1    3    3    0    0 -0.34349332516E+02  0.34618242340E+02  0.10076227879E+00  0.48767914658E+02  0.00000000000E+00 0.  1.
        -11    1    4    4    0    0 -0.39464883308E+02 -0.19132082290E+02  0.59178885010E+02  0.73659038945E+02  0.00000000000E+00 0. -1.
         11    1    4    4    0    0  0.19349100475E+02  0.18842839756E+02 -0.97878044523E+01  0.28727015425E+02  0.00000000000E+00 0.  1.
          3    1    1    2  501    0  0.81814949818E+02  0.73554723898E+01  0.42812748172E+02  0.92632177961E+02  0.00000000000E+00 0. -1.
<scales pt_clust_5="13000.00000" pt_clust_6="13000.00000" pt_clust_7="13000.00000" pt_clust_8="13000.00000" pt_clust_9="82.14493"></scales>
<clustering>
<clus scale="   82.145">  1  9  2 -1</clus>
<clus scale="   87.400">  7  8 -1 -1</clus>
<clus scale="   90.499">  5  6 -1 -1</clus>
<clus scale="   94.757">  1  7  2 -1</clus>
<clus scale="   82.145">  1  5  2 -1</clus>
</clustering>
</event>
<event>
 9    1  0.1399746E-005  0.1079847E+03  0.7546771E-02  0.1265071E+00
         21   -1    0    0  501  502  0.00000000000E+00  0.00000000000E+00  0.12643469479E+03  0.12643469479E+03  0.00000000000E+00 0. -1.
          1   -1    0    0  502    0 -0.00000000000E+00 -0.00000000000E+00 -0.34159586242E+03  0.34159586242E+03  0.00000000000E+00 0. -1.
         23    2    1    2    0    0 -0.87531907831E+02 -0.38876763040E+01 -0.20120048166E+03  0.23942017826E+03  0.95725853482E+02 0.  0.
         23    2    1    2    0    0  0.55324024078E+01 -0.12928972424E+02 -0.78201042016E+02  0.12309477863E+03  0.94016784402E+02 0.  0.
        -13    1    4    4    0    0  0.36531906777E+02 -0.39608532955E+02 -0.39750080654E+02  0.66958830692E+02  0.00000000000E+00 0.  1.
         13    1    4    4    0    0 -0.30999504369E+02  0.26679560531E+02 -0.38450961362E+02  0.56135947938E+02  0.00000000000E+00 0. -1.
        -13    1    3    3    0    0 -0.77352380056E+02 -0.43567929762E+02 -0.13537835350E+03  0.16189148774E+03  0.00000000000E+00 0.  1.
         13    1    3    3    0    0 -0.10179527775E+02  0.39680253458E+02 -0.65822128153E+02  0.77528690527E+02  0.00000000000E+00 0. -1.
          1    1    1    2  501    0  0.81999505423E+02  0.16816648728E+02  0.64240356045E+02  0.10551560031E+03  0.00000000000E+00 0. -1.
<scales pt_clust_5="13000.00000" pt_clust_6="13000.00000" pt_clust_7="13000.00000" pt_clust_8="13000.00000" pt_clust_9="83.70614"></scales>
<clustering>
<clus scale="   83.706">  1  9  2 -1</clus>
<clus scale="   94.017">  5  6 -1 -1</clus>
<clus scale="   95.726">  7  8 -1 -1</clus>
<clus scale="  106.473">  1  5  2 -1</clus>
<clus scale="   83.706">  1  5  2 -1</clus>
</clustering>
</event>
<event>
 9    1  0.1399746E-005  0.1276345E+03  0.7546771E-02  0.1231275E+00
         21   -1    0    0  501  502  0.00000000000E+00  0.00000000000E+00  0.28432304023E+03  0.28432304023E+03  0.00000000000E+00 0. -1.
          1   -1    0    0  502    0 -0.00000000000E+00 -0.00000000000E+00 -0.96332619698E+02  0.96332619698E+02  0.00000000000E+00 0. -1.
         23    2    1    2    0    0  0.69115393771E+02 -0.48607215572E+02  0.23900933605E+02  0.12641113297E+03  0.90933606820E+02 0.  0.
         23    2    1    2    0    0 -0.56190782909E+02  0.79616818394E+02  0.63592098035E+02  0.14828054154E+03  0.91907139061E+02 0.  0.
        -11    1    4    4    0    0 -0.46481707214E+02  0.42105256518E+01  0.54432519515E+02  0.71702000059E+02  0.00000000000E+00 0.  1.
         11    1    4    4    0    0 -0.97090756959E+01  0.75406292742E+02  0.91595785206E+01  0.76578541476E+02  0.00000000000E+00 0. -1.
        -13    1    3    3    0    0  0.12354892882E+02 -0.37396914071E+02  0.49404860069E+02  0.63182376963E+02  0.00000000000E+00 0.  1.
         13    1    3    3    0    0  0.56760500889E+02 -0.11210301501E+02 -0.25503926464E+02  0.63228756005E+02  0.00000000000E+00 0. -1.
          1    1    1    2  501    0 -0.12924610862E+02 -0.31009602822E+02  0.10049738889E+03  0.10596398542E+03  0.00000000000E+00 0. -1.
<scales pt_clust_5="13000.00000" pt_clust_6="13000.00000" pt_clust_7="13000.00000" pt_clust_8="13000.00000" pt_clust_9="33.59525"></scales>
<clustering>
<clus scale="   33.595">  1  9  2 -1</clus>
<clus scale="   90.934">  7  8 -1 -1</clus>
<clus scale="   91.907">  5  6 -1 -1</clus>
<clus scale="  126.935">  2  7  1 -1</clus>
<clus scale="   33.595">  1  5  2 -1</clus>
</clustering>
</event>
<event>
 9    1  0.1399746E-005  0.9582696E+02  0.7546771E-02  0.1290469E+00
         21   -1    0    0  501  502  0.00000000000E+00  0.00000000000E+00  0.26359244090E+03  0.26359244090E+03  0.00000000000E+00 0. -1.
          1   -1    0    0  502    0 -0.00000000000E+00 -0.00000000000E+00 -0.26850871171E+03  0.26850871171E+03  0.00000000000E+00 0. -1.
         23    2    1    2    0    0  0.13822243269E+02  0.25892787377E+02 -0.16915069913E+03  0.19566915577E+03  0.93877412928E+02 0.  0.
         23    2    1    2    0    0 -0.35465993853E+01  0.17018293431E+01 -0.60345852093E+02  0.10992955958E+03  0.91800934717E+02 0.  0.
        -11    1    3    3    0    0  0.96024468657E+01 -0.32400228946E+02 -0.31809392511E+02  0.46409258489E+02  0.00000000000E+00 0.  1.
         11    1    3    3    0    0  0.42197964034E+01  0.58293016323E+02 -0.13734130662E+03  0.14925989728E+03  0.00000000000E+00 0. -1.
        -13    1    4    4    0    0 -0.45848851681E+02  0.12740373954E+02 -0.37597219277E+02  0.60646394999E+02  0.00000000000E+00 0.  1.
         13    1    4    4    0    0  0.42302252296E+02 -0.11038544611E+02 -0.22748632816E+02  0.49283164584E+02  0.00000000000E+00 0. -1.
          1    1    1    2  501    0 -0.10275643884E+02 -0.27594616720E+02  0.22458028042E+03  0.22650243725E+03  0.00000000000E+00 0. -1.
<scales pt_clust_5="13000.00000" pt_clust_6="13000.00000" pt_clust_7="13000.00000" pt_clust_8="13000.00000" pt_clust_9="29.44574"></scales>
<clustering>
<clus scale="   29.446">  1  9  2 -1</clus>
<clus scale="   91.801">  7  8 -1 -1</clus>
<clus scale="   93.794">  1  7  2 -1</clus>
<clus scale="   93.877">  5  6 -1 -1</clus>
<clus scale="   29.446">  1  5  2 -1</clus>
</clustering>
</event>
<event>
 9    1  0.1399746E-005  0.1398217E+03  0.7546771E-02  0.1214494E+00
          2   -1    0    0  502    0 -0.00000000000E+00  0.00000000000E+00  0.33182411003E+03  0.33182411003E+03  0.00000000000E+00 0. -1.
         21   -1    0    0  501  502  0.00000000000E+00 -0.00000000000E+00 -0.10701367831E+03  0.10701367831E+03  0.00000000000E+00 0. -1.
         23    2    1    2    0    0 -0.97661622205E+02 -0.30317873450E+02  0.20332758181E+03  0.24517682884E+03  0.91173493805E+02 0.  0.
         23    2    1    2    0    0  0.11643051606E+03  0.11263741151E+02  0.50449860433E+02  0.15423483829E+03  0.86949755559E+02 0.  0.
        -11    1    3    3    0    0 -0.75309363858E+02 -0.54625132455E+02  0.99476414853E+02  0.13620191809E+03  0.00000000000E+00 0. -1.
         11    1    3    3    0    0 -0.22352258348E+02  0.24307259005E+02  0.10385116696E+03  0.10897491075E+03  0.00000000000E+00 0.  1.
        -13    1    4    4    0    0  0.10835229197E+02  0.31131037618E+02 -0.49717342826E+01  0.33335594141E+02  0.00000000000E+00 0.  1.
         13    1    4    4    0    0  0.10559528686E+03 -0.19867296468E+02  0.55421594715E+02  0.12089924415E+03  0.00000000000E+00 0. -1.
          2    1    1    2  501    0 -0.18768893851E+02  0.19054132299E+02 -0.28967010529E+02  0.39426121202E+02  0.00000000000E+00 0. -1.
<scales pt_clust_5="13000.00000" pt_clust_6="13000.00000" pt_clust_7="13000.00000" pt_clust_8="13000.00000" pt_clust_9="26.74568"></scales>
<clustering>
<clus scale="   26.746">  2  9  1 -1</clus>
<clus scale="   86.950">  7  8 -1 -1</clus>
<clus scale="   91.173">  5  6 -1 -1</clus>
<clus scale="  137.105">  2  7  1 -1</clus>
<clus scale="   26.746">  2  5  1 -1</clus>
</clustering>
</event>
<event>
 9    1  0.1399746E-005  0.9727402E+02  0.7546771E-02  0.1287135E+00
         21   -1    0    0  501  502  0.00000000000E+00  0.00000000000E+00  0.99004560944E+02  0.99004560944E+02  0.00000000000E+00 0. -1.
          3   -1    0    0  502    0 -0.00000000000E+00 -0.00000000000E+00 -0.30033007060E+03  0.30033007060E+03  0.00000000000E+00 0. -1.
         23    2    1    2    0    0 -0.26384896856E+02 -0.14944240034E+02 -0.22938150731E+03  0.24799422052E+03  0.89251131207E+02 0.  0.
         23    2    1    2    0    0  0.46326848024E+02  0.22790230000E+02 -0.12437009687E+02  0.10552638896E+03  0.91189736951E+02 0.  0.
        -13    1    4    4    0    0  0.38067796923E+02 -0.30689816750E+02  0.37543363305E+01  0.49041992782E+02  0.00000000000E+00 0.  1.
         13    1    4    4    0    0  0.82590511016E+01  0.53480046751E+02 -0.16191346018E+02  0.56484396176E+02  0.00000000000E+00 0. -1.
        -13    1    3    3    0    0 -0.37269422228E+02 -0.43400565946E+02 -0.10128129855E+03  0.11632076510E+03  0.00000000000E+00 0.  1.
         13    1    3    3    0    0  0.10884525372E+02  0.28456325912E+02 -0.12810020876E+03  0.13167345541E+03  0.00000000000E+00 0. -1.
          3    1    1    2  501    0 -0.19941951168E+02 -0.78459899657E+01  0.40493007339E+02  0.45814022071E+02  0.00000000000E+00 0. -1.
<scales pt_clust_5="13000.00000" pt_clust_6="13000.00000" pt_clust_7="13000.00000" pt_clust_8="13000.00000" pt_clust_9="21.42991"></scales>
<clustering>
<clus scale="   21.430">  1  9  2 -1</clus>
<clus scale="   89.251">  7  8 -1 -1</clus>
<clus scale="   91.190">  5  6 -1 -1</clus>
<clus scale="   95.459">  2  7  1 -1</clus>
<clus scale="   21.430">  1  5  2 -1</clus>
</clustering>
</event>
<event>
 9    1  0.1399746E-005  0.1018589E+03  0.7546771E-02  0.1276499E+00
          2   -1    0    0  502    0 -0.00000000000E+00  0.00000000000E+00  0.55346215114E+03  0.55346215114E+03  0.00000000000E+00 0. -1.
         21   -1    0    0  501  502  0.00000000000E+00 -0.00000000000E+00 -0.56519948807E+02  0.56519948807E+02  0.00000000000E+00 0. -1.
         23    2    1    2    0    0  0.57474240166E+02 -0.32856648752E+02  0.33718604511E+03  0.35564231074E+03  0.91674295841E+02 0.  0.
         23    2    1    2    0    0 -0.16691088774E+02 -0.42638587927E+02  0.12551247728E+03  0.16195242095E+03  0.91534491166E+02 0.  0.
        -11    1    3    3    0    0  0.52292638064E+02  0.62790860367E+01  0.28698755887E+03  0.29178040692E+03  0.00000000000E+00 0. -1.
         11    1    3    3    0    0  0.51816021017E+01 -0.39135734789E+02  0.50198486239E+02  0.63861903812E+02  0.00000000000E+00 0.  1.
        -11    1    4    4    0    0 -0.52183545035E+02 -0.80717794289E+01  0.65035723727E+02  0.83773034780E+02  0.00000000000E+00 0.  1.
         11    1    4    4    0    0  0.35492456262E+02 -0.34566808498E+02  0.60476753557E+02  0.78179386171E+02  0.00000000000E+00 0. -1.
          2    1    1    2  501    0 -0.40783151392E+02  0.75495236679E+02  0.34243679942E+02  0.92387368264E+02  0.00000000000E+00 0. -1.
<scales pt_clust_5="13000.00000" pt_clust_6="13000.00000" pt_clust_7="13000.00000" pt_clust_8="13000.00000" pt_clust_9="85.80674"></scales>
<clustering>
<clus scale="   85.807">  2  9  1 -1</clus>
<clus scale="   91.534">  7  8 -1 -1</clus>
<clus scale="   91.674">  5  6 -1 -1</clus>
<clus scale="  101.733">  2  7  1 -1</clus>
<clus scale="   85.807">  2  5  1 -1</clus>
</clustering>
</event>
<event>
 9    1  0.1399746E-005  0.1439777E+03  0.7546771E-02  0.1224993E+00
          2   -1    0    0  502    0 -0.00000000000E+00  0.00000000000E+00  0.30334784848E+03  0.30334784848E+03  0.00000000000E+00 0. -1.
         21   -1    0    0  501  502  0.00000000000E+00 -0.00000000000E+00 -0.12563037177E+03  0.12563037177E+03  0.00000000000E+00 0. -1.
         23    2    1    2    0    0 -0.53367184504E+01  0.45146765102E+02  0.13259039045E+03  0.16650711648E+03  0.89876010334E+02 0.  0.
         23    2    1    2    0    0 -0.62054862924E+02  0.47754860524E+02  0.69407240582E+02  0.14516013593E+03  0.10061196401E+03 0.  0.
        -11    1    4    4    0    0 -0.45544806070E+02  0.68869000267E+02  0.14184106883E+02  0.83776234374E+02  0.00000000000E+00 0. -1.
         11    1    4    4    0    0 -0.16510056854E+02 -0.21114139743E+02  0.55223133699E+02  0.61383901554E+02  0.00000000000E+00 0.  1.
        -13    1    3    3    0    0  0.16586388026E+02  0.39293689656E+02  0.13691789132E+03  0.14340715212E+03  0.00000000000E+00 0.  1.
         13    1    3    3    0    0 -0.21923106476E+02  0.58530754464E+01 -0.43275008652E+01  0.23099964361E+02  0.00000000000E+00 0. -1.
          2    1    1    2  501    0  0.67391581374E+02 -0.92901625627E+02 -0.24280154325E+02  0.11731096785E+03  0.00000000000E+00 0. -1.
<scales pt_clust_5="13000.00000" pt_clust_6="13000.00000" pt_clust_7="13000.00000" pt_clust_8="13000.00000" pt_clust_9="102.98942"></scales>
<clustering>
<clus scale="   89.876">  7  8 -1 -1</clus>
<clus scale="  100.612">  5  6 -1 -1</clus>
<clus scale="  100.719">  1  7  2 -1</clus>
<clus scale="  102.989">  2  9  1 -1</clus>
<clus scale="  102.989">  2  5  1 -1</clus>
</clustering>
</event>
<event>
 9    1  0.1399746E-005  0.2641119E+03  0.7546771E-02  0.1104789E+00
          1   -1    0    0  502    0 -0.00000000000E+00  0.00000000000E+00  0.12350542546E+04  0.12350542546E+04  0.00000000000E+00 0. -1.
         21   -1    0    0  501  502  0.00000000000E+00 -0.00000000000E+00 -0.15109993976E+03  0.15109993976E+03  0.00000000000E+00 0. -1.
         23    2    1    2    0    0 -0.17187878878E+03 -0.19034976320E+03  0.88555050315E+03  0.92655827388E+03  0.92386096877E+02 0.  0.
         23    2    1    2    0    0  0.21056932423E+03  0.10626432219E+03  0.24846462302E+03  0.35436567878E+03  0.90602532681E+02 0.  0.
        -13    1    3    3    0    0 -0.21242147999E+02  0.82616203296E+01  0.59514421930E+02  0.63729503683E+02  0.00000000000E+00 0.  1.
         13    1    3    3    0    0 -0.15063664078E+03 -0.19861138353E+03  0.82603608122E+03  0.86282877020E+03  0.00000000000E+00 0. -1.
        -13    1    4    4    0    0  0.10679504268E+02  0.24975051824E+02  0.67434793542E+02  0.72699768947E+02  0.00000000000E+00 0. -1.
         13    1    4    4    0    0  0.19988981997E+03  0.81289270366E+02  0.18102982948E+03  0.28166590984E+03  0.00000000000E+00 0.  1.
          1    1    1    2  501    0 -0.38690535453E+02  0.84085441010E+02 -0.50060811370E+02  0.10523024165E+03  0.00000000000E+00 0. -1.
<scales pt_clust_5="13000.00000" pt_clust_6="13000.00000" pt_clust_7="13000.00000" pt_clust_8="13000.00000" pt_clust_9="92.55981"></scales>
<clustering>
<clus scale="   90.603">  7  8 -1 -1</clus>
<clus scale="   92.386">  5  6 -1 -1</clus>
<clus scale="   92.560">  2  9  1 -1</clus>
<clus scale="  263.493">  2  7  1 -1</clus>
<clus scale="   92.560">  2  5  1 -1</clus>
</clustering>
</event>
<event>
 9    1  0.1399746E-005  0.9380136E+02  0.7546771E-02  0.1294570E+00
          3   -1    0    0  502    0 -0.00000000000E+00  0.00000000000E+00  0.33108912794E+03  0.33108912794E+03  0.00000000000E+00 0. -1.
         21   -1    0    0  501  502  0.00000000000E+00 -0.00000000000E+00 -0.54712958922E+02  0.54712958922E+02  0.00000000000E+00 0. -1.
         23    2    1    2    0    0 -0.10741753761E+02 -0.15265965173E+02  0.22678674878E+03  0.24485020635E+03  0.90393357942E+02 0.  0.
         23    2    1    2    0    0  0.30672771497E+02  0.50487321345E+01  0.62448183995E+02  0.11512582537E+03  0.91585322925E+02 0.  0.
        -11    1    4    4    0    0  0.44324740634E+02  0.36216015292E+02  0.19798846534E+02  0.60566300201E+02  0.00000000000E+00 0.  1.
         11    1    4    4    0    0 -0.13651969137E+02 -0.31167283158E+02  0.42649337461E+02  0.54559525168E+02  0.00000000000E+00 0. -1.
        -13    1    3    3    0    0  0.26510232830E+02 -0.90588940895E+01  0.19457287012E+02  0.34109265965E+02  0.00000000000E+00 0.  1.
         13    1    3    3    0    0 -0.37251986591E+02 -0.62070710834E+01  0.20732946176E+03  0.21074094038E+03  0.00000000000E+00 0. -1.
          3    1    1    2  501    0 -0.19931017736E+02  0.10217233038E+02 -0.12858763757E+02  0.25826055144E+02  0.00000000000E+00 0. -1.
<scales pt_clust_5="13000.00000" pt_clust_6="13000.00000" pt_clust_7="13000.00000" pt_clust_8="13000.00000" pt_clust_9="22.39726"></scales>
<clustering>
<clus scale="   22.397">  2  9  1 -1</clus>
<clus scale="   90.393">  7  8 -1 -1</clus>
<clus scale="   91.585">  5  6 -1 -1</clus>
<clus scale="   92.638">  1  7  2 -1</clus>
<clus scale="   22.397">  2  5  1 -1</clus>
</clustering>
</event>
<event>
 9    1  0.1399746E-005  0.9180737E+02  0.7546771E-02  0.1298591E+00
          2   -1    0    0  502    0 -0.00000000000E+00  0.00000000000E+00  0.14236069646E+03  0.14236069646E+03  0.00000000000E+00 0. -1.
         21   -1    0    0  501  502  0.00000000000E+00 -0.00000000000E+00 -0.25565802732E+03  0.25565802732E+03  0.00000000000E+00 0. -1.
         23    2    1    2    0    0  0.31369579638E+02 -0.35612037992E+01  0.59422829853E+02  0.11288136933E+03  0.90633316913E+02 0.  0.
         23    2    1    2    0    0  0.11596982233E+02 -0.57145134050E+00  0.14844301153E+02  0.92670132221E+02  0.90733585709E+02 0.  0.
        -11    1    3    3    0    0  0.44289789695E+02  0.33409363880E+02  0.43932220124E+02  0.70765888895E+02  0.00000000000E+00 0. -1.
         11    1    3    3    0    0 -0.12920210057E+02 -0.36970567679E+02  0.15490609729E+02  0.42115480434E+02  0.00000000000E+00 0.  1.
        -13    1    4    4    0    0 -0.30685935341E+02  0.42568929634E+00 -0.21035872228E+02  0.37206394068E+02  0.00000000000E+00 0.  1.
         13    1    4    4    0    0  0.42282917574E+02 -0.99714063685E+00  0.35880173381E+02  0.55463738153E+02  0.00000000000E+00 0. -1.
          2    1    1    2  501    0 -0.42966561871E+02  0.41326551397E+01 -0.18756446187E+03  0.19246722223E+03  0.00000000000E+00 0. -1.
<scales pt_clust_5="13000.00000" pt_clust_6="13000.00000" pt_clust_7="13000.00000" pt_clust_8="13000.00000" pt_clust_9="43.16485"></scales>
<clustering>
<clus scale="   43.165">  2  9  1 -1</clus>
<clus scale="   90.633">  5  6 -1 -1</clus>
<clus scale="   90.734">  7  8 -1 -1</clus>
<clus scale="   91.708">  1  5  2 -1</clus>
<clus scale="   43.165">  2  5  1 -1</clus>
</clustering>
</event>
<event>
 9    1  0.1399746E-005  0.1284132E+03  0.7546771E-02  0.1230087E+00
          1   -1    0    0  502    0 -0.00000000000E+00  0.00000000000E+00  0.10132386353E+04  0.10132386353E+04  0.00000000000E+00 0. -1.
         21   -1    0    0  501  502  0.00000000000E+00 -0.00000000000E+00 -0.32690782552E+02  0.32690782552E+02  0.00000000000E+00 0.  1.
         23    2    1    2    0    0 -0.84718854366E+02 -0.49403958072E+02  0.75261999154E+03  0.76403453777E+03  0.87714809906E+02 0.  0.
         23    2    1    2    0    0  0.57254928676E+02  0.40036488659E+02  0.10036122751E+03  0.15106956628E+03  0.88705076453E+02 0.  0.
        -13    1    4    4    0    0  0.79217959674E+02  0.31101456468E+02  0.59548978754E+02  0.10386946905E+03  0.00000000000E+00 0.  1.
         13    1    4    4    0    0 -0.21963030998E+02  0.89350321912E+01  0.40812248753E+02  0.47200097237E+02  0.00000000000E+00 0. -1.
        -13    1    3    3    0    0  0.98089082962E+01 -0.34102734589E+02  0.18027991813E+03  0.18373910871E+03  0.00000000000E+00 0.  1.
         13    1    3    3    0    0 -0.94527762662E+02 -0.15301223483E+02  0.57234007341E+03  0.58029542906E+03  0.00000000000E+00 0. -1.
          1    1    1    2  501    0  0.27463925690E+02  0.93674694125E+01  0.12756663367E+03  0.13082531377E+03  0.00000000000E+00 0. -1.
<scales pt_clust_5="13000.00000" pt_clust_6="13000.00000" pt_clust_7="13000.00000" pt_clust_8="13000.00000" pt_clust_9="29.01754"></scales>
<clustering>
<clus scale="   29.018">  2  9  1 -1</clus>
<clus scale="   87.715">  7  8 -1 -1</clus>
<clus scale="   88.705">  5  6 -1 -1</clus>
<clus scale="  127.731">  1  7  2 -1</clus>
<clus scale="   29.018">  2  5  1 -1</clus>
</clustering>
</event>
<event>
 9    1  0.1399746E-005  0.1502316E+03  0.7546771E-02  0.1200330E+00
         21   -1    0    0  501  502  0.00000000000E+00  0.00000000000E+00  0.32383082783E+03  0.32383082783E+03  0.00000000000E+00 0.  1.
          1   -1    0    0  502    0 -0.00000000000E+00 -0.00000000000E+00 -0.61408832151E+03  0.61408832151E+03  0.00000000000E+00 0. -1.
         23    2    1    2    0    0 -0.10113996364E+03  0.76359866309E+02 -0.54588995209E+03  0.56767600044E+03  0.90554294505E+02 0.  0.
         23    2    1    2    0    0  0.46253222248E+02 -0.66519976186E+02  0.13402528003E+02  0.12167783151E+03  0.89786408342E+02 0.  0.
        -11    1    3    3    0    0 -0.95314307548E+02  0.42268062519E+02 -0.49681480398E+03  0.50763801649E+03  0.00000000000E+00 0. -1.
         11    1    3    3    0    0 -0.58256560963E+01  0.34091803791E+02 -0.49075148110E+02  0.60037983949E+02  0.00000000000E+00 0.  1.
        -11    1    4    4    0    0 -0.85389299253E+01 -0.39318711520E+02  0.38377709632E+02  0.55603264260E+02  0.00000000000E+00 0. -1.
         11    1    4    4    0    0  0.54792152173E+02 -0.27201264666E+02 -0.24975181629E+02  0.66074567245E+02  0.00000000000E+00 0.  1.
          1    1    1    2  501    0  0.54886741397E+02 -0.98398901235E+01  0.24222993041E+03  0.24856531739E+03  0.00000000000E+00 0. -1.
<scales pt_clust_5="13000.00000" pt_clust_6="13000.00000" pt_clust_7="13000.00000" pt_clust_8="13000.00000" pt_clust_9="55.76180"></scales>
<clustering>
<clus scale="   55.762">  1  9  2 -1</clus>
<clus scale="   89.786">  7  8 -1 -1</clus>
<clus scale="   90.554">  5  6 -1 -1</clus>
<clus scale="  149.770">  1  7  2 -1</clus>
<clus scale="   55.762">  1  5  2 -1</clus>
</clustering>
</event>
<event>
 9    1  0.1399746E-005  0.9369489E+02  0.7546771E-02  0.1294157E+00
         21   -1    0    0  501  502  0.00000000000E+00  0.00000000000E+00  0.53676695769E+02  0.53676695769E+02  0.00000000000E+00 0. -1.
          1   -1    0    0  502    0 -0.00000000000E+00 -0.00000000000E+00 -0.69080404029E+03  0.69080404029E+03  0.00000000000E+00 0. -1.
         23    2    1    2    0    0 -0.13321503494E+02 -0.15082487417E+02 -0.40764692780E+03  0.41827187999E+03  0.91489911796E+02 0.  0.
         23    2    1    2    0    0 -0.70791217213E+02  0.29311001864E+02 -0.20541342418E+03  0.23757127636E+03  0.91514508423E+02 0.  0.
        -11    1    3    3    0    0  0.30787343740E+02 -0.31583135760E+02 -0.14974838423E+03  0.15610872358E+03  0.00000000000E+00 0.  1.
         11    1    3    3    0    0 -0.44108847234E+02  0.16500648344E+02 -0.25789854357E+03  0.26216315640E+03  0.00000000000E+00 0. -1.
        -13    1    4    4    0    0 -0.60646269192E+02  0.59956947280E+02 -0.16600291100E+03  0.18662736122E+03  0.00000000000E+00 0.  1.
         13    1    4    4    0    0 -0.10144948021E+02 -0.30645945416E+02 -0.39410513180E+02  0.50943915141E+02  0.00000000000E+00 0. -1.
          1    1    1    2  501    0  0.84112720707E+02 -0.14228514448E+02 -0.24066992542E+02  0.88637579717E+02  0.00000000000E+00 0. -1.
<scales pt_clust_5="13000.00000" pt_clust_6="13000.00000" pt_clust_7="13000.00000" pt_clust_8="13000.00000" pt_clust_9="85.30768"></scales>
<clustering>
<clus scale="   85.308">  1  9  2 -1</clus>
<clus scale="   91.490">  5  6 -1 -1</clus>
<clus scale="   91.515">  7  8 -1 -1</clus>
<clus scale="   93.671">  2  5  1 -1</clus>
<clus scale="   85.308">  1  5  2 -1</clus>
</clustering>
</event>
<event>
 9    1  0.1399746E-005  0.9965997E+02  0.7546771E-02  0.1282195E+00
          2   -1    0    0  502    0 -0.00000000000E+00  0.00000000000E+00  0.78104469090E+03  0.78104469090E+03  0.00000000000E+00 0. -1.
         21   -1    0    0  501  502  0.00000000000E+00 -0.00000000000E+00 -0.44513015314E+02  0.44513015314E+02  0.00000000000E+00 0. -1.
         23    2    1    2    0    0 -0.42916799167E+02 -0.48552140224E+01  0.43470315666E+03  0.44638874604E+03  0.91818589800E+02 0.  0.
         23    2    1    2    0    0  0.20330235117E+02 -0.54987841458E+02  0.29626049622E+03  0.31496345385E+03  0.89413167219E+02 0.  0.
        -13    1    3    3    0    0  0.19133513039E+02 -0.20819683385E+02  0.61027305670E+02  0.67259813967E+02  0.00000000000E+00 0.  1.
         13    1    3    3    0    0 -0.62050312206E+02  0.15964469363E+02  0.37367585099E+03  0.37912893208E+03  0.00000000000E+00 0. -1.
        -13    1    4    4    0    0  0.17977627927E+02  0.21315608111E+02  0.51371607092E+02  0.58451623333E+02  0.00000000000E+00 0.  1.
         13    1    4    4    0    0  0.23526071897E+01 -0.76303449568E+02  0.24488888913E+03  0.25651183052E+03  0.00000000000E+00 0. -1.
          2    1    1    2  501    0  0.22586564050E+02  0.59843055480E+02  0.55680227068E+01  0.64205506319E+02  0.00000000000E+00 0. -1.
<scales pt_clust_5="13000.00000" pt_clust_6="13000.00000" pt_clust_7="13000.00000" pt_clust_8="13000.00000" pt_clust_9="63.96362"></scales>
<clustering>
<clus scale="   63.964">  2  9  1 -1</clus>
<clus scale="   89.413">  7  8 -1 -1</clus>
<clus scale="   91.819">  5  6 -1 -1</clus>
<clus scale="   97.448">  2  7  1 -1</clus>
<clus scale="   63.964">  2  5  1 -1</clus>
</clustering>
</event>
<event>
 9    1  0.1399746E-005  0.9651451E+02  0.7546771E-02  0.1288146E+00
         21   -1    0    0  501  502  0.00000000000E+00  0.00000000000E+00  0.25379775780E+03  0.25379775780E+03  0.00000000000E+00 0. -1.
          2   -1    0    0  502    0 -0.00000000000E+00 -0.00000000000E+00 -0.55788035884E+03  0.55788035884E+03  0.00000000000E+00 0. -1.
         23    2    1    2    0    0 -0.94847186608E+01  0.34560562157E+02 -0.46381246599E+03  0.47421037294E+03  0.92027614571E+02 0.  0.
         23    2    1    2    0    0 -0.30308997870E+02  0.38980259572E+00 -0.58669119646E+02  0.11273860820E+03  0.91373633406E+02 0.  0.
        -13    1    3    3    0    0 -0.28289764904E+02 -0.23390071040E+02 -0.14105516814E+03  0.14575310178E+03  0.00000000000E+00 0.  1.
         13    1    3    3    0    0  0.18805046243E+02  0.57950633197E+02 -0.32275729786E+03  0.32845727115E+03  0.00000000000E+00 0. -1.
        -13    1    4    4    0    0  0.27741334394E+02  0.16252581273E+02 -0.58743114289E+01  0.32683873191E+02  0.00000000000E+00 0. -1.
         13    1    4    4    0    0 -0.58050332263E+02 -0.15862778678E+02 -0.52794808218E+02  0.80054735013E+02  0.00000000000E+00 0.  1.
          2    1    1    2  501    0  0.39793716530E+02 -0.34950364753E+02  0.21839898459E+03  0.22472913550E+03  0.00000000000E+00 0. -1.
<scales pt_clust_5="13000.00000" pt_clust_6="13000.00000" pt_clust_7="13000.00000" pt_clust_8="13000.00000" pt_clust_9="52.96289"></scales>
<clustering>
<clus scale="   52.963">  1  9  2 -1</clus>
<clus scale="   91.374">  7  8 -1 -1</clus>
<clus scale="   92.028">  5  6 -1 -1</clus>
<clus scale="   95.891">  1  7  2 -1</clus>
<clus scale="   52.963">  1  5  2 -1</clus>
</clustering>
</event>
<event>
 9    1  0.1399746E-005  0.1349126E+03  0.7546771E-02  0.1249829E+00
          1   -1    0    0  502    0 -0.00000000000E+00  0.00000000000E+00  0.13688110989E+03  0.13688110989E+03  0.00000000000E+00 0. -1.
         21   -1    0    0  501  502  0.00000000000E+00 -0.00000000000E+00 -0.34928376407E+03  0.34928376407E+03  0.00000000000E+00 0. -1.
         23    2    1    2    0    0  0.41903824955E+01 -0.24403707776E+02  0.73593811165E+02  0.10419503724E+03  0.69479899861E+02 0.  0.
         23    2    1    2    0    0  0.96603156576E+02  0.33380172792E+02 -0.95001725778E+02  0.16582427238E+03  0.89587697900E+02 0.  0.
        -11    1    4    4    0    0  0.69170705593E+02 -0.11677975943E+02 -0.17889413981E+02  0.72394701235E+02  0.00000000000E+00 0. -1.
         11    1    4    4    0    0  0.27432450983E+02  0.45058148736E+02 -0.77112311797E+02  0.93429571149E+02  0.00000000000E+00 0.  1.
        -13    1    3    3    0    0 -0.18036743454E+02  0.11062801790E+02  0.19865838242E+01  0.21252204901E+02  0.00000000000E+00 0. -1.
         13    1    3    3    0    0  0.22227125949E+02 -0.35466509566E+02  0.71607227341E+02  0.82942832338E+02  0.00000000000E+00 0.  1.
          1    1    1    2  501    0 -0.10079353907E+03 -0.89764650165E+01 -0.19099473956E+03  0.21614556434E+03  0.00000000000E+00 0. -1.
<scales pt_clust_5="13000.00000" pt_clust_6="13000.00000" pt_clust_7="13000.00000" pt_clust_8="13000.00000" pt_clust_9="100.87350"></scales>
<clustering>
<clus scale="   69.480">  7  8 -1 -1</clus>
<clus scale="   73.760">  1  7  2 -1</clus>
<clus scale="   89.588">  5  6 -1 -1</clus>
<clus scale="  100.874">  2  9  1 -1</clus>
<clus scale="  100.874">  2  5  1 -1</clus>
</clustering>
</event>
<event>
 9    1  0.1399746E-005  0.2053177E+03  0.7546771E-02  0.1145451E+00
          2   -1    0    0  502    0 -0.00000000000E+00  0.00000000000E+00  0.40300291533E+03  0.40300291533E+03  0.00000000000E+00 0. -1.
         21   -1    0    0  501  502  0.00000000000E+00 -0.00000000000E+00 -0.16794614215E+03  0.16794614215E+03  0.00000000000E+00 0. -1.
         23    2    1    2    0    0  0.16469334983E+03 -0.70239698547E+02  0.23151526222E+03  0.30636491537E+03  0.90568371950E+02 0.  0.
         23    2    1    2    0    0 -0.17243405421E+03  0.90546944863E+02  0.42929446711E+02  0.21959845283E+03  0.91914584339E+02 0.  0.
        -11    1    3    3    0    0  0.11524766328E+02 -0.21208370796E+02  0.86533502015E+02  0.89836864380E+02  0.00000000000E+00 0.  1.
         11    1    3    3    0    0  0.15316858350E+03 -0.49031327752E+02  0.14498176021E+03  0.21652805099E+03  0.00000000000E+00 0. -1.
        -11    1    4    4    0    0 -0.13175713791E+03  0.49121306807E+02 -0.10085721359E+02  0.14097718946E+03  0.00000000000E+00 0.  1.
         11    1    4    4    0    0 -0.40676916298E+02  0.41425638056E+02  0.53015168071E+02  0.78621263367E+02  0.00000000000E+00 0. -1.
          2    1    1    2  501    0  0.77407043816E+01 -0.20307246316E+02 -0.39387935758E+02  0.44985689286E+02  0.00000000000E+00 0. -1.
<scales pt_clust_5="13000.00000" pt_clust_6="13000.00000" pt_clust_7="13000.00000" pt_clust_8="13000.00000" pt_clust_9="21.73253"></scales>
<clustering>
<clus scale="   21.733">  2  9  1 -1</clus>
<clus scale="   90.568">  5  6 -1 -1</clus>
<clus scale="   91.915">  7  8 -1 -1</clus>
<clus scale="  204.719">  1  5  2 -1</clus>
<clus scale="   21.733">  2  5  1 -1</clus>
</clustering>
</event>
<event>
 9    1  0.1399746E-005  0.1765308E+03  0.7546771E-02  0.1172116E+00
         -3   -1    0    0    0  501 -0.00000000000E+00  0.00000000000E+00  0.58013523319E+02  0.58013523319E+02  0.00000000000E+00 0.  1.
         21   -1    0    0  501  502  0.00000000000E+00 -0.00000000000E+00 -0.80405858843E+03  0.80405858843E+03  0.00000000000E+00 0.  1.
         23    2    1    2    0    0  0.11676690860E+03 -0.73712351363E+02 -0.17504192062E+03  0.24354994287E+03  0.98024889758E+02 0.  0.
         23    2    1    2    0    0 -0.11990410407E+03  0.11897806241E+03 -0.44802073155E+03  0.48743631729E+03  0.91317106882E+02 0.  0.
        -11    1    3    3    0    0  0.33694730806E+02 -0.54729891942E+02 -0.13474666386E+03  0.14928951530E+03  0.00000000000E+00 0.  1.
         11    1    3    3    0    0  0.83072177794E+02 -0.18982459421E+02 -0.40295256753E+02  0.94260427572E+02  0.00000000000E+00 0. -1.
        -11    1    4    4    0    0 -0.10140427423E+03  0.10076493473E+03 -0.43598015298E+03  0.45881923750E+03  0.00000000000E+00 0.  1.
         11    1    4    4    0    0 -0.18499829835E+02  0.18213127677E+02 -0.12040578569E+02  0.28617079795E+02  0.00000000000E+00 0. -1.
         -3    1    1    2    0  502  0.31371954648E+01 -0.45265711049E+02 -0.12298241294E+03  0.13108585158E+03  0.00000000000E+00 0.  1.
<scales pt_clust_5="13000.00000" pt_clust_6="13000.00000" pt_clust_7="13000.00000" pt_clust_8="13000.00000" pt_clust_9="45.37429"></scales>
<clustering>
<clus scale="   45.374">  2  9  1 -1</clus>
<clus scale="   91.317">  7  8 -1 -1</clus>
<clus scale="   98.025">  5  6 -1 -1</clus>
<clus scale="  172.896">  2  7  1 -1</clus>
<clus scale="   45.374">  2  5  1 -1</clus>
</clustering>
</event>
<event>
 9    1  0.1399746E-005  0.1102668E+03  0.7546771E-02  0.1262411E+00
         21   -1    0    0  501  502  0.00000000000E+00  0.00000000000E+00  0.48823451414E+03  0.48823451414E+03  0.00000000000E+00 0.  1.
          3   -1    0    0  502    0 -0.00000000000E+00 -0.00000000000E+00 -0.86702004512E+02  0.86702004512E+02  0.00000000000E+00 0. -1.
         23    2    1    2    0    0  0.54495062167E+02 -0.19114078679E+02 -0.31569043488E+02  0.11366028113E+03  0.92666041220E+02 0.  0.
         23    2    1    2    0    0 -0.67227914556E+02  0.47236683807E+02  0.39244360747E+03  0.41022650693E+03  0.86734682531E+02 0.  0.
        -11    1    4    4    0    0  0.19852738943E+02  0.13099023621E+02  0.11522310454E+03  0.11765236709E+03  0.00000000000E+00 0. -1.
         11    1    4    4    0    0 -0.87080653500E+02  0.34137660186E+02  0.27722050293E+03  0.29257413984E+03  0.00000000000E+00 0.  1.
        -13    1    3    3    0    0 -0.88528097638E+01  0.26162340983E+02  0.42628930114E+01  0.27946602356E+02  0.00000000000E+00 0.  1.
         13    1    3    3    0    0  0.63347871931E+02 -0.45276419662E+02 -0.35831936500E+02  0.85713678774E+02  0.00000000000E+00 0. -1.
          3    1    1    2  501    0  0.12732852389E+02 -0.28122605129E+02  0.40657945652E+02  0.51049730595E+02  0.00000000000E+00 0. -1.
<scales pt_clust_5="13000.00000" pt_clust_6="13000.00000" pt_clust_7="13000.00000" pt_clust_8="13000.00000" pt_clust_9="30.87080"></scales>
<clustering>
<clus scale="   30.871">  1  9  2 -1</clus>
<clus scale="   86.735">  5  6 -1 -1</clus>
<clus scale="   92.666">  7  8 -1 -1</clus>
<clus scale="  105.331">  1  5  2 -1</clus>
<clus scale="   30.871">  1  5  2 -1</clus>
</clustering>
</event>
<event>
 9    1  0.1399746E-005  0.1095075E+03  0.7546771E-02  0.1263620E+00
          2   -1    0    0  502    0 -0.00000000000E+00  0.00000000000E+00  0.39862344100E+03  0.39862344100E+03  0.00000000000E+00 0. -1.
         21   -1    0    0  501  502  0.00000000000E+00 -0.00000000000E+00 -0.13245928290E+03  0.13245928290E+03  0.00000000000E+00 0. -1.
         23    2    1    2    0    0  0.48584500138E+02 -0.41248176711E+02  0.26007829365E+03  0.28479284272E+03  0.96976175963E+02 0.  0.
         23    2    1    2    0    0 -0.16410956041E+02  0.27668934664E+02  0.10392798604E+03  0.14240237708E+03  0.91883193733E+02 0.  0.
        -11    1    4    4    0    0  0.59818034626E+01  0.41992692556E+02  0.10751480905E+03  0.11557942016E+03  0.00000000000E+00 0. -1.
         11    1    4    4    0    0 -0.22392759504E+02 -0.14323757892E+02 -0.35868230048E+01  0.26822956914E+02  0.00000000000E+00 0.  1.
        -11    1    3    3    0    0 -0.89616166047E+01 -0.38989195486E+02  0.37320607641E+02  0.54711019837E+02  0.00000000000E+00 0.  1.
         11    1    3    3    0    0  0.57546116743E+02 -0.22589812247E+01  0.22275768600E+03  0.23008182289E+03  0.00000000000E+00 0. -1.
          2    1    1    2  501    0 -0.32173544098E+02  0.13579242047E+02 -0.97842121582E+02  0.10388750411E+03  0.00000000000E+00 0. -1.
<scales pt_clust_5="13000.00000" pt_clust_6="13000.00000" pt_clust_7="13000.00000" pt_clust_8="13000.00000" pt_clust_9="34.92181"></scales>
<clustering>
<clus scale="   34.922">  2  9  1 -1</clus>
<clus scale="   91.883">  5  6 -1 -1</clus>
<clus scale="   96.976">  7  8 -1 -1</clus>
<clus scale="  105.024">  2  5  1 -1</clus>
<clus scale="   34.922">  2  5  1 -1</clus>
</clustering>
</event>
<event>
 9    1  0.1399746E-005  0.9936216E+02  0.7546771E-02  0.1282212E+00
          2   -1    0    0  502    0 -0.00000000000E+00  0.00000000000E+00  0.36704208609E+03  0.36704208609E+03  0.00000000000E+00 0. -1.
         21   -1    0    0  501  502  0.00000000000E+00 -0.00000000000E+00 -0.60384428747E+02  0.60384428747E+02  0.00000000000E+00 0. -1.
         23    2    1    2    0    0 -0.37355975864E+02 -0.29510042118E+02  0.16821239129E+03  0.19696972437E+03  0.90748841398E+02 0.  0.
         23    2    1    2    0    0 -0.28284160269E+02  0.46082687300E+02  0.11949813685E+03  0.16015548362E+03  0.91904115422E+02 0.  0.
        -11    1    3    3    0    0  0.29113379222E+02 -0.80670953827E+01  0.71988534505E+02  0.78070583307E+02  0.00000000000E+00 0.  1.
         11    1    3    3    0    0 -0.66469355086E+02 -0.21442946735E+02  0.96223856785E+02  0.11889914106E+03  0.00000000000E+00 0. -1.
        -11    1    4    4    0    0 -0.48148111910E+02  0.21944590059E+02  0.11746060335E+03  0.12882856459E+03  0.00000000000E+00 0. -1.
         11    1    4    4    0    0  0.19863951640E+02  0.24138097241E+02  0.20375334955E+01  0.31326919031E+02  0.00000000000E+00 0.  1.
          2    1    1    2  501    0  0.65640136133E+02 -0.16572645182E+02  0.18947129203E+02  0.70301306851E+02  0.00000000000E+00 0. -1.
<scales pt_clust_5="13000.00000" pt_clust_6="13000.00000" pt_clust_7="13000.00000" pt_clust_8="13000.00000" pt_clust_9="67.69993"></scales>
<clustering>
<clus scale="   67.700">  2  9  1 -1</clus>
<clus scale="   90.749">  5  6 -1 -1</clus>
<clus scale="   91.904">  7  8 -1 -1</clus>
<clus scale="   98.295">  1  5  2 -1</clus>
<clus scale="   67.700">  2  5  1 -1</clus>
</clustering>
</event>
<event>
 9    1  0.1399746E-005  0.2702416E+03  0.7546771E-02  0.1101222E+00
         21   -1    0    0  501  502  0.00000000000E+00  0.00000000000E+00  0.36344295783E+03  0.36344295783E+03  0.00000000000E+00 0. -1.
          1   -1    0    0  502    0 -0.00000000000E+00 -0.00000000000E+00 -0.40797499365E+03  0.40797499365E+03  0.00000000000E+00 0. -1.
         23    2    1    2    0    0 -0.11856723810E+03  0.24343960448E+03 -0.26807755741E+03  0.39160055277E+03  0.90356987331E+02 0.  0.
         23    2    1    2    0    0  0.45936769893E+02 -0.19699335448E+03  0.16108434398E+03  0.27335690012E+03  0.88652469976E+02 0.  0.
        -11    1    4    4    0    0  0.32780402494E+02 -0.15783655861E+03  0.74839250973E+02  0.17772970350E+03  0.00000000000E+00 0.  1.
         11    1    4    4    0    0  0.13156367400E+02 -0.39156795870E+02  0.86245093004E+02  0.95627196619E+02  0.00000000000E+00 0. -1.
        -11    1    3    3    0    0 -0.11139443366E+03  0.12915576292E+03 -0.15028764471E+03  0.22732423342E+03  0.00000000000E+00 0. -1.
         11    1    3    3    0    0 -0.71728044429E+01  0.11428384156E+03 -0.11778991270E+03  0.16427631935E+03  0.00000000000E+00 0.  1.
          1    1    1    2  501    0  0.72630468210E+02 -0.46446250001E+02  0.62461177609E+02  0.10646049859E+03  0.00000000000E+00 0. -1.
<scales pt_clust_5="13000.00000" pt_clust_6="13000.00000" pt_clust_7="13000.00000" pt_clust_8="13000.00000" pt_clust_9="86.21159"></scales>
<clustering>
<clus scale="   86.212">  1  9  2 -1</clus>
<clus scale="   88.652">  5  6 -1 -1</clus>
<clus scale="   90.357">  7  8 -1 -1</clus>
<clus scale="  269.676">  1  5  2 -1</clus>
<clus scale="   86.212">  1  5  2 -1</clus>
</clustering>
</event>
<event>
 9    1  0.1399746E-005  0.1002399E+03  0.7546771E-02  0.1280158E+00
         21   -1    0    0  501  502  0.00000000000E+00  0.00000000000E+00  0.72721655522E+02  0.72721655522E+02  0.00000000000E+00 0.  1.
          1   -1    0    0  502    0 -0.00000000000E+00 -0.00000000000E+00 -0.41392565915E+03  0.41392565915E+03  0.00000000000E+00 0. -1.
         23    2    1    2    0    0  0.46235105256E+02 -0.26109462275E+02 -0.22629323316E+03  0.24945956132E+03  0.90565205117E+02 0.  0.
         23    2    1    2    0    0 -0.14787470920E+02  0.26804087121E+02 -0.15727192382E+03  0.18442504378E+03  0.91329132104E+02 0.  0.
        -11    1    4    4    0    0  0.19126761258E+02  0.23734815787E+02 -0.82740050150E+01  0.31585338935E+02  0.00000000000E+00 0.  1.
         11    1    4    4    0    0 -0.33914232178E+02  0.30692713338E+01 -0.14899791880E+03  0.15283970485E+03  0.00000000000E+00 0. -1.
        -11    1    3    3    0    0  0.18223993171E+02 -0.52622067469E+02 -0.75524061513E+02  0.93835386605E+02  0.00000000000E+00 0. -1.
         11    1    3    3    0    0  0.28011112085E+02  0.26512605193E+02 -0.15076917165E+03  0.15562417471E+03  0.00000000000E+00 0.  1.
          1    1    1    2  501    0 -0.31447634336E+02 -0.69462484569E+00  0.42361153348E+02  0.52762709578E+02  0.00000000000E+00 0. -1.
<scales pt_clust_5="13000.00000" pt_clust_6="13000.00000" pt_clust_7="13000.00000" pt_clust_8="13000.00000" pt_clust_9="31.45530"></scales>
<clustering>
<clus scale="   31.455">  1  9  2 -1</clus>
<clus scale="   90.565">  7  8 -1 -1</clus>
<clus scale="   91.329">  5  6 -1 -1</clus>
<clus scale="   99.544">  2  7  1 -1</clus>
<clus scale="   31.455">  1  5  2 -1</clus>
</clustering>
</event>
<event>
 9    1  0.1399746E-005  0.1973719E+03  0.7546771E-02  0.1156219E+00
         21   -1    0    0  501  502  0.00000000000E+00  0.00000000000E+00  0.37059278780E+03  0.37059278780E+03  0.00000000000E+00 0. -1.
          2   -1    0    0  502    0 -0.00000000000E+00 -0.00000000000E+00 -0.12930319734E+03  0.12930319734E+03  0.00000000000E+00 0. -1.
         23    2    1    2    0    0 -0.29990691819E+02  0.16102200680E+03  0.19813995233E+02  0.18577181448E+03  0.85387612556E+02 0.  0.
         23    2    1    2    0    0  0.52877510919E+02 -0.13361740466E+03  0.18599859576E+03  0.26379091924E+03  0.11975194972E+03 0.  0.
        -13    1    3    3    0    0  0.29698756855E+02  0.42341152148E+02  0.89000295195E+01  0.52478565619E+02  0.00000000000E+00 0.  1.
         13    1    3    3    0    0 -0.59689448675E+02  0.11868085466E+03  0.10913965714E+02  0.13329324886E+03  0.00000000000E+00 0. -1.
        -13    1    4    4    0    0 -0.24052447257E+02 -0.24835363806E+02  0.98503575897E+02  0.10439477946E+03  0.00000000000E+00 0.  1.
         13    1    4    4    0    0  0.76929958176E+02 -0.10878204085E+03  0.87495019860E+02  0.15939613978E+03  0.00000000000E+00 0. -1.
          2    1    1    2  501    0 -0.22886819100E+02 -0.27404602149E+02  0.35476999469E+02  0.50333251423E+02  0.00000000000E+00 0. -1.
<scales pt_clust_5="13000.00000" pt_clust_6="13000.00000" pt_clust_7="13000.00000" pt_clust_8="13000.00000" pt_clust_9="35.70460"></scales>
<clustering>
<clus scale="   35.705">  1  9  2 -1</clus>
<clus scale="   85.388">  5  6 -1 -1</clus>
<clus scale="  119.752">  7  8 -1 -1</clus>
<clus scale="  178.623">  2  5  1 -1</clus>
<clus scale="   35.705">  1  5  2 -1</clus>
</clustering>
</event>
<event>
 9    1  0.1399746E-005  0.1119358E+03  0.7546771E-02  0.1258127E+00
          1   -1    0    0  502    0 -0.00000000000E+00  0.00000000000E+00  0.58017487937E+03  0.58017487937E+03  0.00000000000E+00 0. -1.
         21   -1    0    0  501  502  0.00000000000E+00 -0.00000000000E+00 -0.57237369227E+02  0.57237369227E+02  0.00000000000E+00 0.  1.
         23    2    1    2    0    0 -0.27095490278E+02  0.64495224905E+02  0.38908877032E+03  0.40528798615E+03  0.89299949049E+02 0.  0.
         23    2    1    2    0    0 -0.10365999003E+01 -0.53725081703E+02  0.15992853360E+03  0.19227998901E+03  0.92233396180E+02 0.  0.
        -11    1    4    4    0    0  0.39782492107E+02 -0.14981591840E+02  0.10653628896E+03  0.11470429651E+03  0.00000000000E+00 0. -1.
         11    1    4    4    0    0 -0.40819092007E+02 -0.38743489864E+02  0.53392244634E+02  0.77575692495E+02  0.00000000000E+00 0.  1.
        -13    1    3    3    0    0  0.11521001187E+02  0.69476438529E+02  0.29832865751E+03  0.30652846013E+03  0.00000000000E+00 0.  1.
         13    1    3    3    0    0 -0.38616491466E+02 -0.49812136236E+01  0.90760112811E+02  0.98759526020E+02  0.00000000000E+00 0. -1.
          1    1    1    2  501    0  0.28132090179E+02 -0.10770143202E+02 -0.26079793776E+02  0.39844273438E+02  0.00000000000E+00 0. -1.
<scales pt_clust_5="13000.00000" pt_clust_6="13000.00000" pt_clust_7="13000.00000" pt_clust_8="13000.00000" pt_clust_9="30.12325"></scales>
<clustering>
<clus scale="   30.123">  2  9  1 -1</clus>
<clus scale="   89.300">  7  8 -1 -1</clus>
<clus scale="   92.233">  5  6 -1 -1</clus>
<clus scale="  109.531">  1  7  2 -1</clus>
<clus scale="   30.123">  2  5  1 -1</clus>
</clustering>
</event>
<event>
 9    1  0.1399746E-005  0.3743483E+03  0.7546771E-02  0.1100926E+00
          1   -1    0    0  502    0 -0.00000000000E+00  0.00000000000E+00  0.21756910628E+03  0.21756910628E+03  0.00000000000E+00 0. -1.
         21   -1    0    0  501  502  0.00000000000E+00 -0.00000000000E+00 -0.13809502874E+04  0.13809502874E+04  0.00000000000E+00 0. -1.
         23    2    1    2    0    0  0.36434823366E+02  0.27609672728E+02 -0.11266807433E+03  0.15213964600E+03  0.91447178912E+02 0.  0.
         23    2    1    2    0    0 -0.38521974161E+03  0.53664270690E+02 -0.74506009259E+02  0.40655444007E+03  0.91985129511E+02 0.  0.
        -11    1    3    3    0    0  0.63296545349E+02  0.37529659300E+02 -0.82298626126E+02  0.11039923841E+03  0.00000000000E+00 0.  1.
         11    1    3    3    0    0 -0.26861721983E+02 -0.99199865723E+01 -0.30369448205E+02  0.41740407590E+02  0.00000000000E+00 0. -1.
        -13    1    4    4    0    0 -0.35281092973E+03  0.71921809488E+02 -0.80288591512E+02  0.36890995750E+03  0.00000000000E+00 0. -1.
         13    1    4    4    0    0 -0.32408811885E+02 -0.18257538798E+02  0.57825822534E+01  0.37644482574E+02  0.00000000000E+00 0.  1.
          1    1    1    2  501    0  0.34878491825E+03 -0.81273943418E+02 -0.97620709754E+03  0.10398253076E+04  0.00000000000E+00 0. -1.
<scales pt_clust_5="13000.00000" pt_clust_6="13000.00000" pt_clust_7="13000.00000" pt_clust_8="13000.00000" pt_clust_9="362.87098"></scales>
<clustering>
<clus scale="   91.447">  5  6 -1 -1</clus>
<clus scale="   91.985">  7  8 -1 -1</clus>
<clus scale="  102.237">  1  5  2 -1</clus>
<clus scale="  362.871">  2  9  1 -1</clus>
<clus scale="  362.871">  2  5  1 -1</clus>
</clustering>
</event>
<event>
 9    1  0.1399746E-005  0.1304240E+03  0.7546771E-02  0.1227140E+00
         21   -1    0    0  501  502  0.00000000000E+00  0.00000000000E+00  0.70433244243E+03  0.70433244243E+03  0.00000000000E+00 0.  1.
          2   -1    0    0  502    0 -0.00000000000E+00 -0.00000000000E+00 -0.26787413455E+03  0.26787413455E+03  0.00000000000E+00 0. -1.
         23    2    1    2    0    0 -0.13400498418E+02 -0.98373279983E+02 -0.22459089658E+03  0.26218714535E+03  0.91892071419E+02 0.  0.
         23    2    1    2    0    0  0.59853209433E+02  0.29556250500E+02  0.12775751967E+03  0.17030315528E+03  0.90692900728E+02 0.  0.
        -11    1    3    3    0    0  0.33373005313E+02 -0.13723590082E+02 -0.40537854155E+02  0.54271650315E+02  0.00000000000E+00 0.  1.
         11    1    3    3    0    0 -0.46773503731E+02 -0.84649689901E+02 -0.18405304242E+03  0.20791549504E+03  0.00000000000E+00 0. -1.
        -13    1    4    4    0    0  0.61220283869E+02 -0.81269256247E+01  0.11493237460E+03  0.13047383189E+03  0.00000000000E+00 0.  1.
         13    1    4    4    0    0 -0.13670744362E+01  0.37683176125E+02  0.12825145068E+02  0.39829323386E+02  0.00000000000E+00 0. -1.
          2    1    1    2  501    0 -0.46452711014E+02  0.68817029483E+02  0.53329168478E+03  0.53971627635E+03  0.00000000000E+00 0. -1.
<scales pt_clust_5="13000.00000" pt_clust_6="13000.00000" pt_clust_7="13000.00000" pt_clust_8="13000.00000" pt_clust_9="83.02793"></scales>
<clustering>
<clus scale="   83.028">  1  9  2 -1</clus>
<clus scale="   90.693">  7  8 -1 -1</clus>
<clus scale="   91.892">  5  6 -1 -1</clus>
<clus scale="  129.582">  1  7  2 -1</clus>
<clus scale="   83.028">  1  5  2 -1</clus>
</clustering>
</event>
<event>
 9    1  0.1399746E-005  0.1604932E+03  0.7546771E-02  0.1188392E+00
         21   -1    0    0  501  502  0.00000000000E+00  0.00000000000E+00  0.10502539428E+03  0.10502539428E+03  0.00000000000E+00 0.  1.
          1   -1    0    0  502    0 -0.00000000000E+00 -0.00000000000E+00 -0.32790446385E+03  0.32790446385E+03  0.00000000000E+00 0. -1.
         23    2    1    2    0    0  0.13086500603E+03 -0.44122750938E+02 -0.16430782083E+03  0.23434494443E+03  0.94063946533E+02 0.  0.
         23    2    1    2    0    0 -0.11100524208E+03  0.29418312869E+02 -0.14672575965E+02  0.14820908423E+03  0.92536734665E+02 0.  0.
        -11    1    3    3    0    0  0.85603553555E+02  0.13403999208E+02 -0.12250823919E+03  0.15005300479E+03  0.00000000000E+00 0. -1.
         11    1    3    3    0    0  0.45261452477E+02 -0.57526750146E+02 -0.41799581642E+02  0.84291939639E+02  0.00000000000E+00 0.  1.
        -13    1    4    4    0    0 -0.78828485223E+02 -0.13565200603E+02 -0.39320156097E+02  0.89129228794E+02  0.00000000000E+00 0.  1.
         13    1    4    4    0    0 -0.32176756855E+02  0.42983513473E+02  0.24647580132E+02  0.59079855438E+02  0.00000000000E+00 0. -1.
          1    1    1    2  501    0 -0.19859763954E+02  0.14704438069E+02 -0.43898672780E+02  0.50375829473E+02  0.00000000000E+00 0. -1.
<scales pt_clust_5="13000.00000" pt_clust_6="13000.00000" pt_clust_7="13000.00000" pt_clust_8="13000.00000" pt_clust_9="24.71096"></scales>
<clustering>
<clus scale="   24.711">  1  9  2 -1</clus>
<clus scale="   92.537">  7  8 -1 -1</clus>
<clus scale="   94.064">  5  6 -1 -1</clus>
<clus scale="  159.603">  1  7  2 -1</clus>
<clus scale="   24.711">  1  5  2 -1</clus>
</clustering>
</event>
<event>
 9    1  0.1399746E-005  0.1336553E+03  0.7546771E-02  0.1222324E+00
          1   -1    0    0  502    0 -0.00000000000E+00  0.00000000000E+00  0.10579676179E+03  0.10579676179E+03  0.00000000000E+00 0. -1.
         21   -1    0    0  501  502  0.00000000000E+00 -0.00000000000E+00 -0.30303944207E+03  0.30303944207E+03  0.00000000000E+00 0. -1.
         23    2    1    2    0    0  0.87957819811E+02 -0.62430037763E+02 -0.25553943195E+01  0.14271886667E+03  0.93424071754E+02 0.  0.
         23    2    1    2    0    0 -0.78255459119E+02  0.15237487567E+02 -0.92981040231E+02  0.15357653117E+03  0.92650845512E+02 0.  0.
        -11    1    3    3    0    0 -0.76451320273E+00 -0.45525476063E+02 -0.21629647036E+02  0.50408283864E+02  0.00000000000E+00 0.  1.
         11    1    3    3    0    0  0.88722333014E+02 -0.16904561699E+02  0.19074252716E+02  0.92310582808E+02  0.00000000000E+00 0. -1.
        -13    1    4    4    0    0 -0.98945542595E+02  0.98162943816E+01 -0.66878984224E+02  0.11983062449E+03  0.00000000000E+00 0. -1.
         13    1    4    4    0    0  0.20690083476E+02  0.54211931852E+01 -0.26102056007E+02  0.33745906679E+02  0.00000000000E+00 0.  1.
          1    1    1    2  501    0 -0.97023606919E+01  0.47192550196E+02 -0.10170624573E+03  0.11254080601E+03  0.00000000000E+00 0. -1.
<scales pt_clust_5="13000.00000" pt_clust_6="13000.00000" pt_clust_7="13000.00000" pt_clust_8="13000.00000" pt_clust_9="48.17959"></scales>
<clustering>
<clus scale="   48.180">  2  9  1 -1</clus>
<clus scale="   92.651">  7  8 -1 -1</clus>
<clus scale="   93.424">  5  6 -1 -1</clus>
<clus scale="  133.116">  2  7  1 -1</clus>
<clus scale="   48.180">  2  5  1 -1</clus>
</clustering>
</event>
<event>
 9    1  0.1399746E-005  0.9217735E+02  0.7546771E-02  0.1298403E+00
          1   -1    0    0  502    0 -0.00000000000E+00  0.00000000000E+00  0.78670449460E+03  0.78670449460E+03  0.00000000000E+00 0. -1.
         21   -1    0    0  501  502  0.00000000000E+00 -0.00000000000E+00 -0.21116392575E+02  0.21116392575E+02  0.00000000000E+00 0. -1.
         23    2    1    2    0    0 -0.26221146668E+02 -0.12708402219E+02  0.45770513079E+03  0.46757635938E+03  0.91019849910E+02 0.  0.
         23    2    1    2    0    0 -0.68535404331E+01 -0.68428977455E-01  0.28288756760E+03  0.29686305081E+03  0.89751430841E+02 0.  0.
        -11    1    3    3    0    0 -0.53217834864E+02 -0.32181996469E+02  0.30773174521E+03  0.31395325425E+03  0.00000000000E+00 0. -1.
         11    1    3    3    0    0  0.26996688196E+02  0.19473594251E+02  0.14997338558E+03  0.15362310513E+03  0.00000000000E+00 0.  1.
        -11    1    4    4    0    0 -0.47059035733E+02  0.59619707466E+01  0.12144477006E+03  0.13037994522E+03  0.00000000000E+00 0. -1.
         11    1    4    4    0    0  0.40205495299E+02 -0.60303997240E+01  0.16144279753E+03  0.16648310560E+03  0.00000000000E+00 0.  1.
          1    1    1    2  501    0  0.33074687101E+02  0.12776831196E+02  0.24995403636E+02  0.43381476983E+02  0.00000000000E+00 0. -1.
<scales pt_clust_5="13000.00000" pt_clust_6="13000.00000" pt_clust_7="13000.00000" pt_clust_8="13000.00000" pt_clust_9="35.45677"></scales>
<clustering>
<clus scale="   35.457">  2  9  1 -1</clus>
<clus scale="   89.751">  7  8 -1 -1</clus>
<clus scale="   90.925">  2  7  1 -1</clus>
<clus scale="   91.020">  5  6 -1 -1</clus>
<clus scale="   35.457">  2  5  1 -1</clus>
</clustering>
</event>
<event>
 9    1  0.1399746E-005  0.9625758E+02  0.7546771E-02  0.1290460E+00
         21   -1    0    0  501  502  0.00000000000E+00  0.00000000000E+00  0.15217892014E+03  0.15217892014E+03  0.00000000000E+00 0.  1.
          2   -1    0    0  502    0 -0.00000000000E+00 -0.00000000000E+00 -0.19601397666E+03  0.19601397666E+03  0.00000000000E+00 0. -1.
         23    2    1    2    0    0 -0.10170123962E+02  0.30833600500E+02 -0.15708232654E+03  0.18226170133E+03  0.86546681721E+02 0.  0.
         23    2    1    2    0    0 -0.79860186229E+01 -0.39496007959E+02  0.81168318273E+02  0.12806641023E+03  0.90493084811E+02 0.  0.
        -13    1    3    3    0    0 -0.19839710825E+02  0.53032359117E+02 -0.61226603439E+02  0.83395097025E+02  0.00000000000E+00 0.  1.
         13    1    3    3    0    0  0.96695868632E+01 -0.22198758617E+02 -0.95855723103E+02  0.98866604300E+02  0.00000000000E+00 0. -1.
        -13    1    4    4    0    0  0.24919053410E+02 -0.10437823279E+02 -0.84218945211E+01  0.28299040355E+02  0.00000000000E+00 0.  1.
         13    1    4    4    0    0 -0.32905072033E+02 -0.29058184680E+02  0.89590212794E+02  0.99767369871E+02  0.00000000000E+00 0. -1.
          2    1    1    2  501    0  0.18156142585E+02  0.86624074594E+01  0.32078951749E+02  0.37864785248E+02  0.00000000000E+00 0. -1.
<scales pt_clust_5="13000.00000" pt_clust_6="13000.00000" pt_clust_7="13000.00000" pt_clust_8="13000.00000" pt_clust_9="20.11673"></scales>
<clustering>
<clus scale="   20.117">  1  9  2 -1</clus>
<clus scale="   86.547">  5  6 -1 -1</clus>
<clus scale="   90.493">  7  8 -1 -1</clus>
<clus scale="   92.557">  2  5  1 -1</clus>
<clus scale="   20.117">  1  5  2 -1</clus>
</clustering>
</event>
<event>
 9    1  0.1399746E-005  0.9898683E+02  0.7546771E-02  0.1282824E+00
         21   -1    0    0  501  502  0.00000000000E+00  0.00000000000E+00  0.28691152717E+03  0.28691152717E+03  0.00000000000E+00 0.  1.
          4   -1    0    0  502    0 -0.00000000000E+00 -0.00000000000E+00 -0.60899163845E+02  0.60899163845E+02  0.00000000000E+00 0. -1.
         23    2    1    2    0    0 -0.35957995730E+01 -0.35965995644E+02  0.21747557110E+02  0.10076726274E+03  0.91512853649E+02 0.  0.
         23    2    1    2    0    0  0.27198798027E+02  0.39038936870E+02  0.19717869102E+03  0.22220882475E+03  0.90738703955E+02 0.  0.
        -11    1    4    4    0    0 -0.27536192231E+02  0.96196650183E+01  0.22595246181E+02  0.36896137842E+02  0.00000000000E+00 0. -1.
         11    1    4    4    0    0  0.54734990258E+02  0.29419271852E+02  0.17458344484E+03  0.18531268691E+03  0.00000000000E+00 0.  1.
        -13    1    3    3    0    0 -0.15829575027E+02  0.27994449633E+02  0.15347353849E+00  0.32160351521E+02  0.00000000000E+00 0.  1.
         13    1    3    3    0    0  0.12233775454E+02 -0.63960445278E+02  0.21594083572E+02  0.68606911221E+02  0.00000000000E+00 0. -1.
          4    1    1    2  501    0 -0.23602998454E+02 -0.30729412261E+01  0.70861151898E+01  0.24834603526E+02  0.00000000000E+00 0. -1.
<scales pt_clust_5="13000.00000" pt_clust_6="13000.00000" pt_clust_7="13000.00000" pt_clust_8="13000.00000" pt_clust_9="23.80221"></scales>
<clustering>
<clus scale="   23.802">  1  9  2 -1</clus>
<clus scale="   90.739">  5  6 -1 -1</clus>
<clus scale="   91.513">  7  8 -1 -1</clus>
<clus scale="   98.272">  1  5  2 -1</clus>
<clus scale="   23.802">  1  5  2 -1</clus>
</clustering>
</event>
<event>
 9    1  0.1399746E-005  0.3566021E+03  0.7546771E-02  0.1059983E+00
         21   -1    0    0  501  502  0.00000000000E+00  0.00000000000E+00  0.92122037821E+02  0.92122037821E+02  0.00000000000E+00 0.  1.
          1   -1    0    0  502    0 -0.00000000000E+00 -0.00000000000E+00 -0.16633785613E+04  0.16633785613E+04  0.00000000000E+00 0. -1.
         23    2    1    2    0    0 -0.14185987366E+03 -0.30825862052E+03 -0.84486348947E+03  0.91493430538E+03  0.90348582935E+02 0.  0.
         23    2    1    2    0    0  0.12117496069E+03  0.33102948559E+03 -0.72350438968E+03  0.80966771471E+03  0.88539905854E+02 0.  0.
        -11    1    4    4    0    0  0.13251225974E+03  0.26660412371E+03 -0.57960223340E+03  0.65159497138E+03  0.00000000000E+00 0.  1.
         11    1    4    4    0    0 -0.11337299047E+02  0.64425361879E+02 -0.14390215628E+03  0.15807274333E+03  0.00000000000E+00 0. -1.
        -11    1    3    3    0    0 -0.80251898722E+02 -0.12980954769E+03 -0.48665181570E+03  0.51002046590E+03  0.00000000000E+00 0. -1.
         11    1    3    3    0    0 -0.61607974943E+02 -0.17844907283E+03 -0.35821167377E+03  0.40491383948E+03  0.00000000000E+00 0.  1.
          1    1    1    2  501    0  0.20684912974E+02 -0.22770865072E+02 -0.28886443413E+01  0.30898579046E+02  0.00000000000E+00 0. -1.
<scales pt_clust_5="13000.00000" pt_clust_6="13000.00000" pt_clust_7="13000.00000" pt_clust_8="13000.00000" pt_clust_9="30.76326"></scales>
<clustering>
<clus scale="   30.763">  1  9  2 -1</clus>
<clus scale="   88.540">  5  6 -1 -1</clus>
<clus scale="   90.349">  7  8 -1 -1</clus>
<clus scale="  356.148">  1  5  2 -1</clus>
<clus scale="   30.763">  1  5  2 -1</clus>
</clustering>
</event>
<event>
 9    1  0.1399746E-005  0.3793544E+03  0.7546771E-02  0.1051201E+00
         21   -1    0    0  501  502  0.00000000000E+00  0.00000000000E+00  0.18941446947E+03  0.18941446947E+03  0.00000000000E+00 0. -1.
          1   -1    0    0  502    0 -0.00000000000E+00 -0.00000000000E+00 -0.21770817275E+04  0.21770817275E+04  0.00000000000E+00 0. -1.
         23    2    1    2    0    0  0.38595334414E+03 -0.79327195627E+02 -0.18115992805E+04  0.18562352785E+04  0.92003632490E+02 0.  0.
         23    2    1    2    0    0 -0.26616579264E+03  0.10245063051E+03 -0.22942554995E+03  0.37710393865E+03  0.90724509959E+02 0.  0.
        -11    1    4    4    0    0 -0.10479206986E+03 -0.21909964475E+00 -0.55490779912E+02  0.11857762253E+03  0.00000000000E+00 0.  1.
         11    1    4    4    0    0 -0.16137372278E+03  0.10266973016E+03 -0.17393477004E+03  0.25852631611E+03  0.00000000000E+00 0. -1.
        -11    1    3    3    0    0  0.37491216126E+03 -0.57924152971E+02 -0.17326731807E+04  0.17737166311E+04  0.00000000000E+00 0. -1.
         11    1    3    3    0    0  0.11041182880E+02 -0.21403042656E+02 -0.78926099786E+02  0.82518647478E+02  0.00000000000E+00 0.  1.
          1    1    1    2  501    0 -0.11978755150E+03 -0.23123434885E+02  0.53357572401E+02  0.13315697979E+03  0.00000000000E+00 0. -1.
<scales pt_clust_5="13000.00000" pt_clust_6="13000.00000" pt_clust_7="13000.00000" pt_clust_8="13000.00000" pt_clust_9="121.99898"></scales>
<clustering>
<clus scale="   90.725">  5  6 -1 -1</clus>
<clus scale="   92.004">  7  8 -1 -1</clus>
<clus scale="  121.999">  1  9  2 -1</clus>
<clus scale="  379.046">  1  5  2 -1</clus>
<clus scale="  121.999">  1  5  2 -1</clus>
</clustering>
</event>
<event>
 9    1  0.1399746E-005  0.9831505E+02  0.7546771E-02  0.1287578E+00
         21   -1    0    0  501  502  0.00000000000E+00  0.00000000000E+00  0.45714711255E+03  0.45714711255E+03  0.00000000000E+00 0.  1.
         -1   -1    0    0    0  501 -0.00000000000E+00 -0.00000000000E+00 -0.12514960650E+03  0.12514960650E+03  0.00000000000E+00 0.  1.
         23    2    1    2    0    0 -0.39757380990E+02 -0.80286895053E+01 -0.81492038112E+02  0.12841071079E+03  0.90571790154E+02 0.  0.
         23    2    1    2    0    0 -0.91419013681E+01  0.49802827708E+02  0.35069845254E+03  0.36400308650E+03  0.83336344753E+02 0.  0.
        -11    1    3    3    0    0 -0.68744081920E+02 -0.78515605929E+01 -0.48517376476E+02  0.84506399893E+02  0.00000000000E+00 0.  1.
         11    1    3    3    0    0  0.28986700929E+02 -0.17712891245E+00 -0.32974661636E+02  0.43904310898E+02  0.00000000000E+00 0. -1.
        -11    1    4    4    0    0  0.56174276154E+01  0.68417687715E+02  0.30345698436E+03  0.31112485732E+03  0.00000000000E+00 0.  1.
         11    1    4    4    0    0 -0.14759328984E+02 -0.18614860007E+02  0.47241468184E+02  0.52878229181E+02  0.00000000000E+00 0. -1.
         -1    1    1    2    0  502  0.48899282358E+02 -0.41774138202E+02  0.62791091620E+02  0.89882921763E+02  0.00000000000E+00 0.  1.
<scales pt_clust_5="13000.00000" pt_clust_6="13000.00000" pt_clust_7="13000.00000" pt_clust_8="13000.00000" pt_clust_9="64.31344"></scales>
<clustering>
<clus scale="   64.313">  1  9  2 -1</clus>
<clus scale="   83.336">  7  8 -1 -1</clus>
<clus scale="   90.572">  5  6 -1 -1</clus>
<clus scale="   91.693">  1  7  2 -1</clus>
<clus scale="   64.313">  1  5  2 -1</clus>
</clustering>
</event>
<event>
 9    1  0.1399746E-005  0.9796847E+02  0.7546771E-02  0.1284792E+00
         21   -1    0    0  501  502  0.00000000000E+00  0.00000000000E+00  0.12506994652E+03  0.12506994652E+03  0.00000000000E+00 0.  1.
          2   -1    0    0  502    0 -0.00000000000E+00 -0.00000000000E+00 -0.26280279196E+03  0.26280279196E+03  0.00000000000E+00 0. -1.
         23    2    1    2    0    0 -0.75914401345E+01 -0.23142883558E+02 -0.15842099753E+03  0.18424755203E+03  0.90866522699E+02 0.  0.
         23    2    1    2    0    0  0.50972987771E+02  0.62308159147E+02 -0.31078140702E+02  0.12555069281E+03  0.91195249094E+02 0.  0.
        -11    1    3    3    0    0 -0.43340037986E+02 -0.29592633941E+02 -0.62103228024E+02  0.81307403151E+02  0.00000000000E+00 0. -1.
         11    1    3    3    0    0  0.35748597851E+02  0.64497503831E+01 -0.96317769506E+02  0.10294014888E+03  0.00000000000E+00 0.  1.
        -13    1    4    4    0    0  0.51149006174E+02  0.42194324520E+01  0.12630670388E+02  0.52854122614E+02  0.00000000000E+00 0.  1.
         13    1    4    4    0    0 -0.17601840382E+00  0.58088726695E+02 -0.43708811090E+02  0.72696570197E+02  0.00000000000E+00 0. -1.
          2    1    1    2  501    0 -0.43381547636E+02 -0.39165275590E+02  0.51766292799E+02  0.78074493642E+02  0.00000000000E+00 0. -1.
<scales pt_clust_5="13000.00000" pt_clust_6="13000.00000" pt_clust_7="13000.00000" pt_clust_8="13000.00000" pt_clust_9="58.44551"></scales>
<clustering>
<clus scale="   58.446">  1  9  2 -1</clus>
<clus scale="   90.867">  5  6 -1 -1</clus>
<clus scale="   91.195">  7  8 -1 -1</clus>
<clus scale="   97.663">  2  5  1 -1</clus>
<clus scale="   58.446">  1  5  2 -1</clus>
</clustering>
</event>
<event>
 9    1  0.1399746E-005  0.1039693E+03  0.7546771E-02  0.1272175E+00
         21   -1    0    0  501  502  0.00000000000E+00  0.00000000000E+00  0.55568344868E+03  0.55568344868E+03  0.00000000000E+00 0.  1.
          3   -1    0    0  502    0 -0.00000000000E+00 -0.00000000000E+00 -0.24856151840E+02  0.24856151840E+02  0.00000000000E+00 0. -1.
         23    2    1    2    0    0  0.19429791388E+01  0.41988801477E+02  0.23147770116E+03  0.25175815485E+03  0.89629279704E+02 0.  0.
         23    2    1    2    0    0 -0.10427770889E+02 -0.64065482870E+02  0.26384132322E+03  0.28611753861E+03  0.89654211073E+02 0.  0.
        -11    1    3    3    0    0  0.16019902933E+02  0.66093112951E+02  0.18962187462E+03  0.20144823703E+03  0.00000000000E+00 0.  1.
         11    1    3    3    0    0 -0.14076923794E+02 -0.24104311473E+02  0.41855826544E+02  0.50309917817E+02  0.00000000000E+00 0. -1.
        -13    1    4    4    0    0  0.35620759558E+02 -0.29482674510E+02  0.16853897298E+03  0.17476685046E+03  0.00000000000E+00 0. -1.
         13    1    4    4    0    0 -0.46048530447E+02 -0.34582808360E+02  0.95302350238E+02  0.11135068815E+03  0.00000000000E+00 0.  1.
          3    1    1    2  501    0  0.84847917500E+01  0.22076681393E+02  0.35508272456E+02  0.42663907055E+02  0.00000000000E+00 0. -1.
<scales pt_clust_5="13000.00000" pt_clust_6="13000.00000" pt_clust_7="13000.00000" pt_clust_8="13000.00000" pt_clust_9="23.65105"></scales>
<clustering>
<clus scale="   23.651">  1  9  2 -1</clus>
<clus scale="   89.629">  5  6 -1 -1</clus>
<clus scale="   89.654">  7  8 -1 -1</clus>
<clus scale="  103.948">  2  5  1 -1</clus>
<clus scale="   23.651">  1  5  2 -1</clus>
</clustering>
</event>
<event>
 9    1  0.1399746E-005  0.1074079E+03  0.7546771E-02  0.1265451E+00
         -1   -1    0    0    0  501 -0.00000000000E+00  0.00000000000E+00  0.68348973063E+02  0.68348973063E+02  0.00000000000E+00 0.  1.
         21   -1    0    0  501  502  0.00000000000E+00 -0.00000000000E+00 -0.23061528124E+03  0.23061528124E+03  0.00000000000E+00 0. -1.
         23    2    1    2    0    0 -0.48936739628E+02 -0.19205204144E+01 -0.38355772463E+02  0.11042727719E+03  0.91238837027E+02 0.  0.
         23    2    1    2    0    0  0.69286277914E+02 -0.15087433251E+02 -0.99678842560E+02  0.15261276314E+03  0.91250012992E+02 0.  0.
        -11    1    4    4    0    0  0.90571077193E+02 -0.21824368189E+02 -0.82527073392E+02  0.12445939464E+03  0.00000000000E+00 0.  1.
         11    1    4    4    0    0 -0.21284799279E+02  0.67369349385E+01 -0.17151769168E+02  0.28153368507E+02  0.00000000000E+00 0. -1.
        -13    1    3    3    0    0 -0.31618331858E+02  0.23978122423E+02 -0.60394698772E+02  0.72264714102E+02  0.00000000000E+00 0. -1.
         13    1    3    3    0    0 -0.17318407769E+02 -0.25898642837E+02  0.22038926309E+02  0.38162563087E+02  0.00000000000E+00 0.  1.
         -1    1    1    2    0  502 -0.20349538286E+02  0.17007953665E+02 -0.24231693158E+02  0.35924213974E+02  0.00000000000E+00 0.  1.
<scales pt_clust_5="13000.00000" pt_clust_6="13000.00000" pt_clust_7="13000.00000" pt_clust_8="13000.00000" pt_clust_9="26.52120"></scales>
<clustering>
<clus scale="   26.521">  2  9  1 -1</clus>
<clus scale="   91.239">  7  8 -1 -1</clus>
<clus scale="   91.250">  5  6 -1 -1</clus>
<clus scale="  107.398">  1  7  2 -1</clus>
<clus scale="   26.521">  2  5  1 -1</clus>
</clustering>
</event>
<event>
 9    1  0.1399746E-005  0.1690984E+03  0.7546771E-02  0.1179023E+00
          1   -1    0    0  502    0 -0.00000000000E+00  0.00000000000E+00  0.15504900027E+04  0.15504900027E+04  0.00000000000E+00 0. -1.
         21   -1    0    0  501  502  0.00000000000E+00 -0.00000000000E+00 -0.24699105850E+02  0.24699105850E+02  0.00000000000E+00 0. -1.
         23    2    1    2    0    0 -0.12809109904E+03  0.42340518365E+02  0.82369507746E+03  0.83991176829E+03  0.93691775204E+02 0.  0.
         23    2    1    2    0    0  0.13190749202E+03 -0.72624572055E+02  0.66053736191E+03  0.68371384395E+03  0.92092882466E+02 0.  0.
        -13    1    4    4    0    0  0.79348705730E+02 -0.54785698286E+02  0.56545113092E+03  0.57361369517E+03  0.00000000000E+00 0. -1.
         13    1    4    4    0    0  0.52558786294E+02 -0.17838873769E+02  0.95086230997E+02  0.11010014877E+03  0.00000000000E+00 0.  1.
        -13    1    3    3    0    0 -0.97571259102E+01  0.44777882675E+02  0.24046515393E+03  0.24479328123E+03  0.00000000000E+00 0. -1.
         13    1    3    3    0    0 -0.11833397313E+03 -0.24373643099E+01  0.58322992353E+03  0.59511848706E+03  0.00000000000E+00 0.  1.
          1    1    1    2  501    0 -0.38163929869E+01  0.30284053690E+02  0.41558457453E+02  0.51563496286E+02  0.00000000000E+00 0. -1.
<scales pt_clust_5="13000.00000" pt_clust_6="13000.00000" pt_clust_7="13000.00000" pt_clust_8="13000.00000" pt_clust_9="30.52358"></scales>
<clustering>
<clus scale="   30.524">  2  9  1 -1</clus>
<clus scale="   92.093">  5  6 -1 -1</clus>
<clus scale="   93.692">  7  8 -1 -1</clus>
<clus scale="  168.218">  2  5  1 -1</clus>
<clus scale="   30.524">  2  5  1 -1</clus>
</clustering>
</event>
<event>
 9    1  0.1399746E-005  0.1127200E+03  0.7546771E-02  0.1257556E+00
         -1   -1    0    0    0  501 -0.00000000000E+00  0.00000000000E+00  0.87147996710E+02  0.87147996710E+02  0.00000000000E+00 0.  1.
         21   -1    0    0  501  502  0.00000000000E+00 -0.00000000000E+00 -0.28646242539E+03  0.28646242539E+03  0.00000000000E+00 0. -1.
         23    2    1    2    0    0  0.21510417787E+02 -0.44273415313E+02 -0.10487787748E+01  0.10343370447E+03  0.90964816859E+02 0.  0.
         23    2    1    2    0    0 -0.44076690960E+02  0.84241570663E+02 -0.16620795353E+03  0.21419112998E+03  0.95986246071E+02 0.  0.
        -13    1    3    3    0    0  0.42857763826E+01 -0.31168241602E+02 -0.44728915594E+02  0.54685492171E+02  0.00000000000E+00 0. -1.
         13    1    3    3    0    0  0.17224641405E+02 -0.13105173711E+02  0.43680136820E+02  0.48748212297E+02  0.00000000000E+00 0.  1.
        -13    1    4    4    0    0 -0.47714813699E+02  0.46920830281E+01 -0.98958426091E+02  0.10996130767E+03  0.00000000000E+00 0.  1.
         13    1    4    4    0    0  0.36381227385E+01  0.79549487635E+02 -0.67249527434E+02  0.10422982232E+03  0.00000000000E+00 0. -1.
         -1    1    1    2    0  502  0.22566273173E+02 -0.39968155349E+02 -0.32057696375E+02  0.55985587644E+02  0.00000000000E+00 0.  1.
<scales pt_clust_5="13000.00000" pt_clust_6="13000.00000" pt_clust_7="13000.00000" pt_clust_8="13000.00000" pt_clust_9="45.89869"></scales>
<clustering>
<clus scale="   45.899">  2  9  1 -1</clus>
<clus scale="   90.965">  5  6 -1 -1</clus>
<clus scale="   95.986">  7  8 -1 -1</clus>
<clus scale="  108.476">  1  5  2 -1</clus>
<clus scale="   45.899">  2  5  1 -1</clus>
</clustering>
</event>
<event>
 9    1  0.1399746E-005  0.1298424E+03  0.7546771E-02  0.1227817E+00
         -3   -1    0    0    0  501 -0.00000000000E+00  0.00000000000E+00  0.30265175070E+03  0.30265175070E+03  0.00000000000E+00 0.  1.
         21   -1    0    0  501  502  0.00000000000E+00 -0.00000000000E+00 -0.35332737275E+03  0.35332737275E+03  0.00000000000E+00 0. -1.
         23    2    1    2    0    0 -0.86701638076E+02 -0.25916668966E+02  0.24895854326E+03  0.28002454205E+03  0.90799449968E+02 0.  0.
         23    2    1    2    0    0  0.11152074816E+03  0.65150468943E+01 -0.10410872421E+03  0.17790759385E+03  0.91286156599E+02 0.  0.
        -11    1    4    4    0    0  0.92125908395E+02 -0.34889219190E+02 -0.69340103331E+02  0.12046779878E+03  0.00000000000E+00 0. -1.
         11    1    4    4    0    0  0.19394839760E+02  0.41404266084E+02 -0.34768620882E+02  0.57439795067E+02  0.00000000000E+00 0.  1.
        -11    1    3    3    0    0 -0.25080748972E+02  0.10552903653E+02  0.75759066307E+01  0.28245390877E+02  0.00000000000E+00 0. -1.
         11    1    3    3    0    0 -0.61620889104E+02 -0.36469572619E+02  0.24138263663E+03  0.25177915118E+03  0.00000000000E+00 0.  1.
         -3    1    1    2    0  502 -0.24819110079E+02  0.19401622072E+02 -0.19552544109E+03  0.19804698755E+03  0.00000000000E+00 0.  1.
<scales pt_clust_5="13000.00000" pt_clust_6="13000.00000" pt_clust_7="13000.00000" pt_clust_8="13000.00000" pt_clust_9="31.50256"></scales>
<clustering>
<clus scale="   31.503">  2  9  1 -1</clus>
<clus scale="   90.799">  7  8 -1 -1</clus>
<clus scale="   91.286">  5  6 -1 -1</clus>
<clus scale="  129.501">  1  7  2 -1</clus>
<clus scale="   31.503">  2  5  1 -1</clus>
</clustering>
</event>
<event>
 9    1  0.1399746E-005  0.1074168E+03  0.7546771E-02  0.1267388E+00
         21   -1    0    0  501  502  0.00000000000E+00  0.00000000000E+00  0.50682595554E+02  0.50682595554E+02  0.00000000000E+00 0. -1.
          2   -1    0    0  502    0 -0.00000000000E+00 -0.00000000000E+00 -0.45181599877E+03  0.45181599877E+03  0.00000000000E+00 0. -1.
         23    2    1    2    0    0 -0.48413266968E+02  0.32037986758E+02 -0.32833345853E+03  0.34548498002E+03  0.90480574811E+02 0.  0.
         23    2    1    2    0    0  0.29212707345E+02  0.22862830462E+00 -0.64623239086E+02  0.11858635247E+03  0.95042755755E+02 0.  0.
        -11    1    3    3    0    0  0.32083769924E+01 -0.27228252530E+02 -0.61881481623E+02  0.67683005154E+02  0.00000000000E+00 0.  1.
         11    1    3    3    0    0 -0.51621643961E+02  0.59266239288E+02 -0.26645197690E+03  0.27780197487E+03  0.00000000000E+00 0. -1.
        -11    1    4    4    0    0 -0.85163914391E+01 -0.34306561713E+02  0.10273708134E+01  0.35362757112E+02  0.00000000000E+00 0.  1.
         11    1    4    4    0    0  0.37729098784E+02  0.34535190018E+02 -0.65650609899E+02  0.83223595361E+02  0.00000000000E+00 0. -1.
          2    1    1    2  501    0  0.19200559624E+02 -0.32266615063E+02 -0.81767056076E+01  0.38427261834E+02  0.00000000000E+00 0. -1.
<scales pt_clust_5="13000.00000" pt_clust_6="13000.00000" pt_clust_7="13000.00000" pt_clust_8="13000.00000" pt_clust_9="37.54725"></scales>
<clustering>
<clus scale="   37.547">  1  9  2 -1</clus>
<clus scale="   90.481">  5  6 -1 -1</clus>
<clus scale="   95.043">  7  8 -1 -1</clus>
<clus scale="  103.402">  2  5  1 -1</clus>
<clus scale="   37.547">  1  5  2 -1</clus>
</clustering>
</event>
<event>
 9    1  0.1399746E-005  0.1182207E+03  0.7546771E-02  0.1255167E+00
         21   -1    0    0  501  502  0.00000000000E+00  0.00000000000E+00  0.40347130688E+02  0.40347130688E+02  0.00000000000E+00 0.  1.
         -3   -1    0    0    0  501 -0.00000000000E+00 -0.00000000000E+00 -0.72020157957E+03  0.72020157957E+03  0.00000000000E+00 0.  1.
         23    2    1    2    0    0  0.42514536228E+02  0.35885772301E+02 -0.43969803760E+03  0.45639199485E+03  0.10892205584E+03 0.  0.
         23    2    1    2    0    0 -0.48442630981E+02  0.28830866715E+02 -0.20611104722E+03  0.23079137968E+03  0.87206592507E+02 0.  0.
        -11    1    4    4    0    0  0.24559878799E+02  0.81346154947E+01 -0.34239980736E+02  0.42915450559E+02  0.00000000000E+00 0. -1.
         11    1    4    4    0    0 -0.73002509780E+02  0.20696251220E+02 -0.17187106648E+03  0.18787592912E+03  0.00000000000E+00 0.  1.
        -13    1    3    3    0    0  0.76620696057E+02  0.41021756872E+02 -0.28832068341E+03  0.30113507282E+03  0.00000000000E+00 0.  1.
         13    1    3    3    0    0 -0.34106159829E+02 -0.51359845714E+01 -0.15137735419E+03  0.15525692203E+03  0.00000000000E+00 0. -1.
         -3    1    1    2    0  502  0.59280947530E+01 -0.64716639016E+02 -0.34045364066E+02  0.73365335733E+02  0.00000000000E+00 0.  1.
<scales pt_clust_5="13000.00000" pt_clust_6="13000.00000" pt_clust_7="13000.00000" pt_clust_8="13000.00000" pt_clust_9="64.98758"></scales>
<clustering>
<clus scale="   64.988">  1  9  2 -1</clus>
<clus scale="   87.207">  5  6 -1 -1</clus>
<clus scale="   98.575">  1  5  2 -1</clus>
<clus scale="  108.922">  7  8 -1 -1</clus>
<clus scale="   64.988">  1  5  2 -1</clus>
</clustering>
</event>
<event>
 9    1  0.1399746E-005  0.1221100E+03  0.7546771E-02  0.1240240E+00
          2   -1    0    0  502    0 -0.00000000000E+00  0.00000000000E+00  0.63940741841E+03  0.63940741841E+03  0.00000000000E+00 0. -1.
         21   -1    0    0  501  502  0.00000000000E+00 -0.00000000000E+00 -0.31963739247E+02  0.31963739247E+02  0.00000000000E+00 0.  1.
         23    2    1    2    0    0 -0.69188644859E+02 -0.39369075477E+02  0.29211608726E+03  0.31562298645E+03  0.89157548514E+02 0.  0.
         23    2    1    2    0    0  0.60261987721E+02  0.59165160108E+02  0.30914672015E+03  0.33317001030E+03  0.91096310848E+02 0.  0.
        -11    1    4    4    0    0  0.80398462888E+02  0.24818878816E+02  0.19947870062E+03  0.21649859488E+03  0.00000000000E+00 0.  1.
         11    1    4    4    0    0 -0.20136475167E+02  0.34346281292E+02  0.10966801952E+03  0.11667141542E+03  0.00000000000E+00 0. -1.
        -11    1    3    3    0    0 -0.34269741231E+01 -0.44686375894E+02  0.63820073866E+02  0.77984730367E+02  0.00000000000E+00 0.  1.
         11    1    3    3    0    0 -0.65761670736E+02  0.53173004170E+01  0.22829601339E+03  0.23763825608E+03  0.00000000000E+00 0. -1.
          2    1    1    2  501    0  0.89266571374E+01 -0.19796084631E+02  0.61808717531E+01  0.22578160908E+02  0.00000000000E+00 0. -1.
<scales pt_clust_5="13000.00000" pt_clust_6="13000.00000" pt_clust_7="13000.00000" pt_clust_8="13000.00000" pt_clust_9="21.71567"></scales>
<clustering>
<clus scale="   21.716">  2  9  1 -1</clus>
<clus scale="   89.158">  7  8 -1 -1</clus>
<clus scale="   91.096">  5  6 -1 -1</clus>
<clus scale="  120.671">  1  7  2 -1</clus>
<clus scale="   21.716">  2  5  1 -1</clus>
</clustering>
</event>
<event>
 9    1  0.1399746E-005  0.9295214E+02  0.7546771E-02  0.1296790E+00
          1   -1    0    0  502    0 -0.00000000000E+00  0.00000000000E+00  0.22522867871E+03  0.22522867871E+03  0.00000000000E+00 0. -1.
         21   -1    0    0  501  502  0.00000000000E+00 -0.00000000000E+00 -0.29323960458E+03  0.29323960458E+03  0.00000000000E+00 0. -1.
         23    2    1    2    0    0 -0.55143326301E+01  0.19959038032E+02  0.17022610783E+03  0.19335347241E+03  0.89330098190E+02 0.  0.
         23    2    1    2    0    0 -0.22439419338E+02 -0.15312077462E+02 -0.10374427403E+02  0.95496924288E+02  0.90961786196E+02 0.  0.
        -13    1    3    3    0    0  0.20214542212E+02  0.39993663751E+02  0.43330754243E+02  0.62335183647E+02  0.00000000000E+00 0.  1.
         13    1    3    3    0    0 -0.25728874842E+02 -0.20034625719E+02  0.12689535359E+03  0.13101828876E+03  0.00000000000E+00 0. -1.
        -13    1    4    4    0    0 -0.62975812776E+01  0.35096343066E+02  0.12570461107E+02  0.37807794421E+02  0.00000000000E+00 0.  1.
         13    1    4    4    0    0 -0.16141838061E+02 -0.50408420528E+02 -0.22944888510E+02  0.57689129867E+02  0.00000000000E+00 0. -1.
          1    1    1    2  501    0  0.27953751968E+02 -0.46469605698E+01 -0.22786260630E+03  0.22961788659E+03  0.00000000000E+00 0. -1.
<scales pt_clust_5="13000.00000" pt_clust_6="13000.00000" pt_clust_7="13000.00000" pt_clust_8="13000.00000" pt_clust_9="28.33737"></scales>
<clustering>
<clus scale="   28.337">  2  9  1 -1</clus>
<clus scale="   89.330">  5  6 -1 -1</clus>
<clus scale="   90.962">  7  8 -1 -1</clus>
<clus scale="   91.356">  1  5  2 -1</clus>
<clus scale="   28.337">  2  5  1 -1</clus>
</clustering>
</event>
<event>
 9    1  0.1399746E-005  0.2355832E+03  0.7546771E-02  0.1122906E+00
         21   -1    0    0  501  502  0.00000000000E+00  0.00000000000E+00  0.12714320729E+03  0.12714320729E+03  0.00000000000E+00 0. -1.
          1   -1    0    0  502    0 -0.00000000000E+00 -0.00000000000E+00 -0.11853178728E+04  0.11853178728E+04  0.00000000000E+00 0. -1.
         23    2    1    2    0    0  0.21839468057E+03  0.85818287056E+02 -0.53852028990E+03  0.59465654674E+03  0.92473191025E+02 0.  0.
         23    2    1    2    0    0 -0.19020452612E+03  0.70411736712E+02 -0.57854844215E+02  0.22947952649E+03  0.90432823982E+02 0.  0.
        -13    1    4    4    0    0 -0.30890059948E+02 -0.21957881694E+02 -0.10781006913E+02  0.39402721761E+02  0.00000000000E+00 0.  1.
         13    1    4    4    0    0 -0.15931446617E+03  0.92369618405E+02 -0.47073837302E+02  0.19007680473E+03  0.00000000000E+00 0. -1.
        -13    1    3    3    0    0  0.13235961546E+03  0.87648299841E+02 -0.27607608127E+03  0.31846396173E+03  0.00000000000E+00 0.  1.
         13    1    3    3    0    0  0.86035065104E+02 -0.18300127846E+01 -0.26244420862E+03  0.27619258501E+03  0.00000000000E+00 0. -1.
          1    1    1    2  501    0 -0.28190154448E+02 -0.15623002377E+03 -0.46179953138E+03  0.48832500685E+03  0.00000000000E+00 0. -1.
<scales pt_clust_5="13000.00000" pt_clust_6="13000.00000" pt_clust_7="13000.00000" pt_clust_8="13000.00000" pt_clust_9="158.75305"></scales>
<clustering>
<clus scale="   90.433">  5  6 -1 -1</clus>
<clus scale="   92.473">  7  8 -1 -1</clus>
<clus scale="  158.753">  1  9  2 -1</clus>
<clus scale="  234.790">  1  5  2 -1</clus>
<clus scale="  158.753">  1  5  2 -1</clus>
</clustering>
</event>
<event>
 9    1  0.1399746E-005  0.1085677E+03  0.7546771E-02  0.1264285E+00
         -4   -1    0    0    0  501 -0.00000000000E+00  0.00000000000E+00  0.91555684771E+03  0.91555684771E+03  0.00000000000E+00 0.  1.
         21   -1    0    0  501  502  0.00000000000E+00 -0.00000000000E+00 -0.65713204525E+02  0.65713204525E+02  0.00000000000E+00 0.  1.
         23    2    1    2    0    0  0.82320377268E+02 -0.18499477903E+02  0.56343902310E+03  0.57738974512E+03  0.93789710619E+02 0.  0.
         23    2    1    2    0    0 -0.22961024293E+02 -0.32444363156E+02  0.30721469475E+03  0.32293670369E+03  0.91254592110E+02 0.  0.
        -11    1    4    4    0    0 -0.24861825353E+02 -0.62633152525E+02  0.23895450372E+03  0.24827459999E+03  0.00000000000E+00 0.  1.
         11    1    4    4    0    0  0.19008010601E+01  0.30188789369E+02  0.68260191035E+02  0.74662103697E+02  0.00000000000E+00 0. -1.
        -13    1    3    3    0    0 -0.17661723636E+02  0.10993542570E+02  0.68360279895E+02  0.71455736840E+02  0.00000000000E+00 0. -1.
         13    1    3    3    0    0  0.99982100903E+02 -0.29493020474E+02  0.49507874321E+03  0.50593400828E+03  0.00000000000E+00 0.  1.
         -4    1    1    2    0  502 -0.59359352975E+02  0.50943841060E+02 -0.20810074671E+02  0.80943603424E+02  0.00000000000E+00 0.  1.
<scales pt_clust_5="13000.00000" pt_clust_6="13000.00000" pt_clust_7="13000.00000" pt_clust_8="13000.00000" pt_clust_9="78.22281"></scales>
<clustering>
<clus scale="   78.223">  2  9  1 -1</clus>
<clus scale="   91.255">  5  6 -1 -1</clus>
<clus scale="   93.790">  7  8 -1 -1</clus>
<clus scale="  106.385">  2  5  1 -1</clus>
<clus scale="   78.223">  2  5  1 -1</clus>
</clustering>
</event>
<event>
 9    1  0.1399746E-005  0.1468721E+03  0.7546771E-02  0.1204748E+00
         -2   -1    0    0    0  501 -0.00000000000E+00  0.00000000000E+00  0.12214454970E+03  0.12214454970E+03  0.00000000000E+00 0.  1.
         21   -1    0    0  501  502  0.00000000000E+00 -0.00000000000E+00 -0.35220915954E+03  0.35220915954E+03  0.00000000000E+00 0. -1.
         23    2    1    2    0    0 -0.75360085144E+02 -0.14277238274E+03 -0.40648797580E+02  0.18875475847E+03  0.88954698551E+02 0.  0.
         23    2    1    2    0    0  0.92530858525E+01  0.68264614214E+02 -0.96872584823E+02  0.14963648583E+03  0.90890610358E+02 0.  0.
        -11    1    4    4    0    0  0.30142725618E+02  0.39637434267E+02 -0.36791930625E+01  0.49932419975E+02  0.00000000000E+00 0.  1.
         11    1    4    4    0    0 -0.20889639766E+02  0.28627179947E+02 -0.93193391760E+02  0.99704065860E+02  0.00000000000E+00 0. -1.
        -13    1    3    3    0    0 -0.23420445530E+01 -0.86701736116E+02  0.31796063123E+01  0.86791624680E+02  0.00000000000E+00 0.  1.
         13    1    3    3    0    0 -0.73018040591E+02 -0.56070646622E+02 -0.43828403893E+02  0.10196313379E+03  0.00000000000E+00 0. -1.
         -2    1    1    2    0  502  0.66106999292E+02  0.74507768524E+02 -0.92543227445E+02  0.13596246494E+03  0.00000000000E+00 0.  1.
<scales pt_clust_5="13000.00000" pt_clust_6="13000.00000" pt_clust_7="13000.00000" pt_clust_8="13000.00000" pt_clust_9="99.60694"></scales>
<clustering>
<clus scale="   88.955">  7  8 -1 -1</clus>
<clus scale="   90.891">  5  6 -1 -1</clus>
<clus scale="   99.607">  2  9  1 -1</clus>
<clus scale="  145.682">  1  7  2 -1</clus>
<clus scale="   99.607">  2  5  1 -1</clus>
</clustering>
</event>
<event>
 9    1  0.1399746E-005  0.1182272E+03  0.7546771E-02  0.1249278E+00
          1   -1    0    0  502    0 -0.00000000000E+00  0.00000000000E+00  0.57734197350E+03  0.57734197350E+03  0.00000000000E+00 0. -1.
         21   -1    0    0  501  502  0.00000000000E+00 -0.00000000000E+00 -0.63114539643E+02  0.63114539643E+02  0.00000000000E+00 0. -1.
         23    2    1    2    0    0  0.57109135955E+01  0.79313534311E+02  0.33821982856E+03  0.35901003329E+03  0.90400776061E+02 0.  0.
         23    2    1    2    0    0  0.74032145481E+01 -0.44301025917E+02  0.20629268842E+03  0.23333159275E+03  0.99345711520E+02 0.  0.
        -11    1    4    4    0    0  0.38175688727E+02 -0.24670838772E+01  0.15747872433E+03  0.16205868791E+03  0.00000000000E+00 0. -1.
         11    1    4    4    0    0 -0.30772474179E+02 -0.41833942039E+02  0.48813964096E+02  0.71272904840E+02  0.00000000000E+00 0.  1.
        -13    1    3    3    0    0  0.30875453198E+02 -0.48489938349E+01  0.67265747514E+02  0.74172010489E+02  0.00000000000E+00 0.  1.
         13    1    3    3    0    0 -0.25164539603E+02  0.84162528146E+02  0.27095408104E+03  0.28483802280E+03  0.00000000000E+00 0. -1.
          1    1    1    2  501    0 -0.13114128144E+02 -0.35012508394E+02 -0.30285083123E+02  0.48114887101E+02  0.00000000000E+00 0. -1.
<scales pt_clust_5="13000.00000" pt_clust_6="13000.00000" pt_clust_7="13000.00000" pt_clust_8="13000.00000" pt_clust_9="37.38791"></scales>
<clustering>
<clus scale="   37.388">  2  9  1 -1</clus>
<clus scale="   90.401">  7  8 -1 -1</clus>
<clus scale="   99.346">  5  6 -1 -1</clus>
<clus scale="  110.817">  1  7  2 -1</clus>
<clus scale="   37.388">  2  5  1 -1</clus>
</clustering>
</event>
<event>
 9    1  0.1399746E-005  0.1046765E+03  0.7546771E-02  0.1271685E+00
         21   -1    0    0  501  502  0.00000000000E+00  0.00000000000E+00  0.45288254902E+03  0.45288254902E+03  0.00000000000E+00 0.  1.
          4   -1    0    0  502    0 -0.00000000000E+00 -0.00000000000E+00 -0.46403485320E+02  0.46403485320E+02  0.00000000000E+00 0. -1.
         23    2    1    2    0    0 -0.39552399002E+02  0.16052906874E+02  0.45836277937E+02  0.11217336845E+03  0.93058111563E+02 0.  0.
         23    2    1    2    0    0  0.66020236540E+02 -0.14365069554E+02  0.27412902078E+03  0.29662494987E+03  0.90964905307E+02 0.  0.
        -11    1    4    4    0    0  0.36751341422E+02 -0.52033518127E+02  0.18290701229E+03  0.19368304844E+03  0.00000000000E+00 0.  1.
         11    1    4    4    0    0  0.29268895118E+02  0.37668448573E+02  0.91222008481E+02  0.10294190143E+03  0.00000000000E+00 0. -1.
        -13    1    3    3    0    0 -0.67110915904E+02  0.19259785326E+01  0.15674402484E+02  0.68943972326E+02  0.00000000000E+00 0.  1.
         13    1    3    3    0    0  0.27558516902E+02  0.14126928342E+02  0.30161875452E+02  0.43229396121E+02  0.00000000000E+00 0. -1.
          4    1    1    2  501    0 -0.26467837538E+02 -0.16878373199E+01  0.86513764986E+02  0.90487716022E+02  0.00000000000E+00 0. -1.
<scales pt_clust_5="13000.00000" pt_clust_6="13000.00000" pt_clust_7="13000.00000" pt_clust_8="13000.00000" pt_clust_9="26.52160"></scales>
<clustering>
<clus scale="   26.522">  1  9  2 -1</clus>
<clus scale="   90.965">  5  6 -1 -1</clus>
<clus scale="   93.058">  7  8 -1 -1</clus>
<clus scale="  102.820">  1  5  2 -1</clus>
<clus scale="   26.522">  1  5  2 -1</clus>
</clustering>
</event>
<event>
 9    1  0.1399746E-005  0.9363087E+02  0.7546771E-02  0.1294909E+00
         21   -1    0    0  501  502  0.00000000000E+00  0.00000000000E+00  0.53829235726E+02  0.53829235726E+02  0.00000000000E+00 0.  1.
          1   -1    0    0  502    0 -0.00000000000E+00 -0.00000000000E+00 -0.22307060948E+03  0.22307060948E+03  0.00000000000E+00 0. -1.
         23    2    1    2    0    0  0.31231073083E+02  0.13879331070E+02 -0.89700360436E+02  0.13137948057E+03  0.89701713999E+02 0.  0.
         23    2    1    2    0    0 -0.69752007220E+01 -0.23528251870E+02 -0.75814428642E+02  0.11915113163E+03  0.88582913230E+02 0.  0.
        -11    1    4    4    0    0 -0.36490493269E+02 -0.36516339270E+02 -0.21366450450E+02  0.55870603518E+02  0.00000000000E+00 0. -1.
         11    1    4    4    0    0  0.29515292547E+02  0.12988087399E+02 -0.54447978192E+02  0.63280528108E+02  0.00000000000E+00 0.  1.
        -11    1    3    3    0    0 -0.31102618520E+02  0.16385196101E+01 -0.40157231214E+02  0.50819886306E+02  0.00000000000E+00 0. -1.
         11    1    3    3    0    0  0.62333691604E+02  0.12240811460E+02 -0.49543129222E+02  0.80559594260E+02  0.00000000000E+00 0.  1.
          1    1    1    2  501    0 -0.24255872361E+02  0.96489208006E+01 -0.37265846793E+01  0.26369233019E+02  0.00000000000E+00 0. -1.
<scales pt_clust_5="13000.00000" pt_clust_6="13000.00000" pt_clust_7="13000.00000" pt_clust_8="13000.00000" pt_clust_9="26.10458"></scales>
<clustering>
<clus scale="   26.105">  1  9  2 -1</clus>
<clus scale="   88.583">  5  6 -1 -1</clus>
<clus scale="   89.702">  7  8 -1 -1</clus>
<clus scale="   92.560">  1  5  2 -1</clus>
<clus scale="   26.105">  1  5  2 -1</clus>
</clustering>
</event>
<event>
 9    1  0.1399746E-005  0.9230508E+02  0.7546771E-02  0.1298656E+00
          2   -1    0    0  502    0 -0.00000000000E+00  0.00000000000E+00  0.16150511688E+03  0.16150511688E+03  0.00000000000E+00 0. -1.
         21   -1    0    0  501  502  0.00000000000E+00 -0.00000000000E+00 -0.94727278911E+02  0.94727278911E+02  0.00000000000E+00 0. -1.
         23    2    1    2    0    0  0.13058827041E+01  0.13339135773E+01  0.50889532248E+02  0.10266038086E+03  0.89139916145E+02 0.  0.
         23    2    1    2    0    0  0.28896292358E+02  0.93731821603E+01  0.48553038201E+02  0.10781397711E+03  0.91343329733E+02 0.  0.
        -13    1    4    4    0    0  0.40800958580E+02 -0.31144621663E+02  0.39133794337E+02  0.64545794121E+02  0.00000000000E+00 0.  1.
         13    1    4    4    0    0 -0.11904666222E+02  0.40517803823E+02  0.94192438642E+01  0.43268182992E+02  0.00000000000E+00 0. -1.
        -13    1    3    3    0    0  0.26937221178E+02  0.30137954586E+02  0.21019802389E+01  0.40476270979E+02  0.00000000000E+00 0. -1.
         13    1    3    3    0    0 -0.25631338474E+02 -0.28804041008E+02  0.48787552010E+02  0.62184109879E+02  0.00000000000E+00 0.  1.
          2    1    1    2  501    0 -0.30202175062E+02 -0.10707095738E+02 -0.32664732477E+02  0.45758037823E+02  0.00000000000E+00 0. -1.
<scales pt_clust_5="13000.00000" pt_clust_6="13000.00000" pt_clust_7="13000.00000" pt_clust_8="13000.00000" pt_clust_9="32.04393"></scales>
<clustering>
<clus scale="   32.044">  2  9  1 -1</clus>
<clus scale="   89.140">  7  8 -1 -1</clus>
<clus scale="   90.125">  1  7  2 -1</clus>
<clus scale="   91.343">  5  6 -1 -1</clus>
<clus scale="   32.044">  2  5  1 -1</clus>
</clustering>
</event>
<event>
 9    1  0.1399746E-005  0.2627379E+03  0.7546771E-02  0.1129138E+00
          2   -1    0    0  502    0 -0.00000000000E+00  0.00000000000E+00  0.69809038691E+03  0.69809038691E+03  0.00000000000E+00 0. -1.
         21   -1    0    0  501  502  0.00000000000E+00 -0.00000000000E+00 -0.31619530429E+03  0.31619530429E+03  0.00000000000E+00 0. -1.
         23    2    1    2    0    0  0.87099968653E+02  0.67761278687E+02  0.10406459771E+03  0.17853997643E+03  0.94175831600E+02 0.  0.
         23    2    1    2    0    0 -0.13476056726E+03 -0.29894794871E+03  0.43464549135E+03  0.55235595613E+03  0.93005981483E+02 0.  0.
        -13    1    4    4    0    0  0.13529056900E+02 -0.24640436045E+02  0.48143143807E+02  0.55748979943E+02  0.00000000000E+00 0.  1.
         13    1    4    4    0    0 -0.14828962416E+03 -0.27430751266E+03  0.38650234755E+03  0.49660697619E+03  0.00000000000E+00 0. -1.
        -13    1    3    3    0    0  0.38803238352E+02 -0.10232044323E+02  0.69992944345E+02  0.80680842185E+02  0.00000000000E+00 0. -1.
         13    1    3    3    0    0  0.48296730301E+02  0.77993323010E+02  0.34071653370E+02  0.97859134245E+02  0.00000000000E+00 0.  1.
          2    1    1    2  501    0  0.47660598607E+02  0.23118667002E+03 -0.15681500645E+03  0.28338975864E+03  0.00000000000E+00 0. -1.
<scales pt_clust_5="13000.00000" pt_clust_6="13000.00000" pt_clust_7="13000.00000" pt_clust_8="13000.00000" pt_clust_9="245.72564"></scales>
<clustering>
<clus scale="   93.006">  5  6 -1 -1</clus>
<clus scale="   94.176">  7  8 -1 -1</clus>
<clus scale="  145.076">  1  7  2 -1</clus>
<clus scale="  245.726">  2  9  1 -1</clus>
<clus scale="  245.726">  2  5  1 -1</clus>
</clustering>
</event>
<event>
 9    1  0.1399746E-005  0.1135593E+03  0.7546771E-02  0.1254769E+00
          3   -1    0    0  502    0 -0.00000000000E+00  0.00000000000E+00  0.21608575729E+03  0.21608575729E+03  0.00000000000E+00 0. -1.
         21   -1    0    0  501  502  0.00000000000E+00 -0.00000000000E+00 -0.44717769818E+03  0.44717769818E+03  0.00000000000E+00 0. -1.
         23    2    1    2    0    0 -0.34395273519E+02  0.69952385295E+02  0.16621825155E+03  0.20385939805E+03  0.88621532243E+02 0.  0.
         23    2    1    2    0    0  0.36829142635E+02 -0.10531718636E+02 -0.56255973644E+02  0.11320365374E+03  0.90460100619E+02 0.  0.
        -11    1    4    4    0    0  0.39859422971E+02 -0.38876653871E+02 -0.62827888308E+02  0.83949457205E+02  0.00000000000E+00 0.  1.
         11    1    4    4    0    0 -0.30302803359E+01  0.28344935235E+02  0.65719146637E+01  0.29254196532E+02  0.00000000000E+00 0. -1.
        -11    1    3    3    0    0 -0.63775003838E+02  0.36658916519E+02  0.10041033971E+03  0.12447234068E+03  0.00000000000E+00 0.  1.
         11    1    3    3    0    0  0.29379730319E+02  0.33293468776E+02  0.65807911844E+02  0.79387057371E+02  0.00000000000E+00 0. -1.
          3    1    1    2  501    0 -0.24338691157E+01 -0.59420666659E+02 -0.34105421880E+03  0.34620040368E+03  0.00000000000E+00 0. -1.
<scales pt_clust_5="13000.00000" pt_clust_6="13000.00000" pt_clust_7="13000.00000" pt_clust_8="13000.00000" pt_clust_9="59.47049"></scales>
<clustering>
<clus scale="   59.470">  2  9  1 -1</clus>
<clus scale="   88.622">  7  8 -1 -1</clus>
<clus scale="   90.460">  5  6 -1 -1</clus>
<clus scale="  112.100">  1  7  2 -1</clus>
<clus scale="   59.470">  2  5  1 -1</clus>
</clustering>
</event>
<event>
 9    1  0.1399746E-005  0.1239147E+03  0.7546771E-02  0.1236888E+00
          4   -1    0    0  502    0 -0.00000000000E+00  0.00000000000E+00  0.17699247593E+03  0.17699247593E+03  0.00000000000E+00 0. -1.
         21   -1    0    0  501  502  0.00000000000E+00 -0.00000000000E+00 -0.16394054668E+03  0.16394054668E+03  0.00000000000E+00 0.  1.
         23    2    1    2    0    0  0.46583532580E+02 -0.51582912233E+02  0.16509534524E+02  0.11627941083E+03  0.91747012543E+02 0.  0.
         23    2    1    2    0    0 -0.20742856907E+02  0.11556938124E+03 -0.28050137254E+02  0.15139515586E+03  0.91362656628E+02 0.  0.
        -11    1    3    3    0    0  0.34001883068E+02 -0.71988374450E+02  0.34034637303E+02  0.86584124668E+02  0.00000000000E+00 0. -1.
         11    1    3    3    0    0  0.12581649512E+02  0.20405462218E+02 -0.17525102779E+02  0.29695286161E+02  0.00000000000E+00 0.  1.
        -13    1    4    4    0    0 -0.16550183691E+02  0.52935142365E+02 -0.59366433757E+02  0.81242915595E+02  0.00000000000E+00 0.  1.
         13    1    4    4    0    0 -0.41926732161E+01  0.62634238872E+02  0.31316296502E+02  0.70152240267E+02  0.00000000000E+00 0. -1.
          4    1    1    2  501    0 -0.25840675673E+02 -0.63986469004E+02  0.24592531981E+02  0.73258455922E+02  0.00000000000E+00 0. -1.
<scales pt_clust_5="13000.00000" pt_clust_6="13000.00000" pt_clust_7="13000.00000" pt_clust_8="13000.00000" pt_clust_9="69.00734"></scales>
<clustering>
<clus scale="   69.007">  2  9  1 -1</clus>
<clus scale="   91.363">  7  8 -1 -1</clus>
<clus scale="   91.747">  5  6 -1 -1</clus>
<clus scale="  123.630">  2  7  1 -1</clus>
<clus scale="   69.007">  2  5  1 -1</clus>
</clustering>
</event>
<event>
 9    1  0.1399746E-005  0.2910252E+03  0.7546771E-02  0.1089926E+00
         -1   -1    0    0    0  501 -0.00000000000E+00  0.00000000000E+00  0.49973492364E+03  0.49973492364E+03  0.00000000000E+00 0.  1.
         21   -1    0    0  501  502  0.00000000000E+00 -0.00000000000E+00 -0.34268513941E+03  0.34268513941E+03  0.00000000000E+00 0. -1.
         23    2    1    2    0    0 -0.22783402228E+03 -0.16687368022E+03  0.23055947849E+03  0.37571234390E+03  0.90812583781E+02 0.  0.
         23    2    1    2    0    0  0.26881026368E+03  0.52059004280E+02 -0.14682450856E+03  0.32445258159E+03  0.93503709015E+02 0.  0.
        -11    1    3    3    0    0 -0.69826201275E+02 -0.32103890424E+02  0.18813328363E+02  0.79122054378E+02  0.00000000000E+00 0. -1.
         11    1    3    3    0    0 -0.15800782101E+03 -0.13476978979E+03  0.21174615013E+03  0.29659028952E+03  0.00000000000E+00 0.  1.
        -11    1    4    4    0    0  0.22193850163E+03  0.30013442768E+02 -0.75578365340E+02  0.23636749895E+03  0.00000000000E+00 0. -1.
         11    1    4    4    0    0  0.46871762050E+02  0.22045561513E+02 -0.71246143215E+02  0.88085082637E+02  0.00000000000E+00 0.  1.
         -1    1    1    2    0  502 -0.40976241396E+02  0.11481467594E+03  0.73314814297E+02  0.14225513757E+03  0.00000000000E+00 0.  1.
<scales pt_clust_5="13000.00000" pt_clust_6="13000.00000" pt_clust_7="13000.00000" pt_clust_8="13000.00000" pt_clust_9="121.90766"></scales>
<clustering>
<clus scale="   90.813">  5  6 -1 -1</clus>
<clus scale="   93.504">  7  8 -1 -1</clus>
<clus scale="  121.908">  2  9  1 -1</clus>
<clus scale="  290.172">  1  5  2 -1</clus>
<clus scale="  121.908">  2  5  1 -1</clus>
</clustering>
</event>
<event>
 9    1  0.1399746E-005  0.9269664E+02  0.7546771E-02  0.1297817E+00
          3   -1    0    0  502    0 -0.00000000000E+00  0.00000000000E+00  0.36602436586E+02  0.36602436586E+02  0.00000000000E+00 0. -1.
         21   -1    0    0  501  502  0.00000000000E+00 -0.00000000000E+00 -0.33264840381E+03  0.33264840381E+03  0.00000000000E+00 0.  1.
         23    2    1    2    0    0  0.16113224765E+02  0.65823588727E+01 -0.12018169010E+03  0.15093280068E+03  0.89633187087E+02 0.  0.
         23    2    1    2    0    0 -0.15850771721E+01  0.22413113983E+02 -0.14729532399E+03  0.17509779443E+03  0.91969913544E+02 0.  0.
        -11    1    4    4    0    0 -0.24063015506E+02  0.21470937522E+02 -0.14908110078E+03  0.15252935614E+03  0.00000000000E+00 0.  1.
         11    1    4    4    0    0  0.22477938334E+02  0.94217646122E+00  0.17857767930E+01  0.22568438293E+02  0.00000000000E+00 0. -1.
        -11    1    3    3    0    0 -0.22437254804E+02 -0.53542382453E+01  0.11197149853E+01  0.23094415602E+02  0.00000000000E+00 0.  1.
         11    1    3    3    0    0  0.38550479569E+02  0.11936597118E+02 -0.12130140508E+03  0.12783838508E+03  0.00000000000E+00 0. -1.
          3    1    1    2  501    0 -0.14528147593E+02 -0.28995472856E+02 -0.28568953136E+02  0.43220245278E+02  0.00000000000E+00 0. -1.
<scales pt_clust_5="13000.00000" pt_clust_6="13000.00000" pt_clust_7="13000.00000" pt_clust_8="13000.00000" pt_clust_9="32.43155"></scales>
<clustering>
<clus scale="   32.432">  2  9  1 -1</clus>
<clus scale="   89.633">  7  8 -1 -1</clus>
<clus scale="   90.379">  1  7  2 -1</clus>
<clus scale="   91.970">  5  6 -1 -1</clus>
<clus scale="   32.432">  2  5  1 -1</clus>
</clustering>
</event>
<event>
 9    1  0.1399746E-005  0.9632650E+02  0.7546771E-02  0.1288812E+00
         21   -1    0    0  501  502  0.00000000000E+00  0.00000000000E+00  0.13033398484E+03  0.13033398484E+03  0.00000000000E+00 0.  1.
          1   -1    0    0  502    0 -0.00000000000E+00 -0.00000000000E+00 -0.30955661489E+03  0.30955661489E+03  0.00000000000E+00 0. -1.
         23    2    1    2    0    0  0.12222005696E+02  0.25796623792E+02 -0.26587806593E+03  0.28231508726E+03  0.90530764556E+02 0.  0.
         23    2    1    2    0    0 -0.14636269932E+01 -0.47469792958E+02  0.84275298430E+02  0.13326226447E+03  0.91656869681E+02 0.  0.
        -11    1    4    4    0    0  0.36565760217E+02  0.65550970859E+01  0.29277316433E+02  0.47298894021E+02  0.00000000000E+00 0. -1.
         11    1    4    4    0    0 -0.38029387211E+02 -0.54024890044E+02  0.54997981997E+02  0.85963370453E+02  0.00000000000E+00 0.  1.
        -13    1    3    3    0    0  0.79119337347E+01 -0.24165521429E+02 -0.22911459927E+02  0.34227271544E+02  0.00000000000E+00 0.  1.
         13    1    3    3    0    0  0.43100719611E+01  0.49962145221E+02 -0.24296660600E+03  0.24808781571E+03  0.00000000000E+00 0. -1.
          1    1    1    2  501    0 -0.10758378703E+02  0.21673169167E+02  0.23801374453E+01  0.24313248000E+02  0.00000000000E+00 0. -1.
<scales pt_clust_5="13000.00000" pt_clust_6="13000.00000" pt_clust_7="13000.00000" pt_clust_8="13000.00000" pt_clust_9="24.19647"></scales>
<clustering>
<clus scale="   24.196">  1  9  2 -1</clus>
<clus scale="   90.531">  7  8 -1 -1</clus>
<clus scale="   91.657">  5  6 -1 -1</clus>
<clus scale="   95.256">  2  7  1 -1</clus>
<clus scale="   24.196">  1  5  2 -1</clus>
</clustering>
</event>
<event>
 9    1  0.1399746E-005  0.1547083E+03  0.7546771E-02  0.1218852E+00
          3   -1    0    0  502    0 -0.00000000000E+00  0.00000000000E+00  0.10427365824E+03  0.10427365824E+03  0.00000000000E+00 0. -1.
         21   -1    0    0  501  502  0.00000000000E+00 -0.00000000000E+00 -0.76526091474E+03  0.76526091474E+03  0.00000000000E+00 0. -1.
         23    2    1    2    0    0 -0.20604529095E+02  0.23383447517E+02 -0.19813384157E+03  0.21858434833E+03  0.86895143260E+02 0.  0.
         23    2    1    2    0    0  0.12556325268E+03 -0.66911147138E+02 -0.11713793838E+01  0.17549118725E+03  0.10272561822E+03 0.  0.
        -11    1    3    3    0    0  0.17812614026E+02  0.43395693705E+02 -0.79733632455E+02  0.92509067637E+02  0.00000000000E+00 0.  1.
         11    1    3    3    0    0 -0.38417143121E+02 -0.20012246189E+02 -0.11840020911E+03  0.12607528069E+03  0.00000000000E+00 0. -1.
        -11    1    4    4    0    0 -0.42420060010E+01 -0.39956704043E+02  0.12829272365E+02  0.42179651994E+02  0.00000000000E+00 0. -1.
         11    1    4    4    0    0  0.12980525868E+03 -0.26954443094E+02 -0.14000651749E+02  0.13331153526E+03  0.00000000000E+00 0.  1.
          3    1    1    2  501    0 -0.10495872358E+03  0.43527699621E+02 -0.46168203555E+03  0.47545903740E+03  0.00000000000E+00 0. -1.
<scales pt_clust_5="13000.00000" pt_clust_6="13000.00000" pt_clust_7="13000.00000" pt_clust_8="13000.00000" pt_clust_9="115.68105"></scales>
<clustering>
<clus scale="   86.895">  5  6 -1 -1</clus>
<clus scale="   92.315">  1  5  2 -1</clus>
<clus scale="  102.726">  7  8 -1 -1</clus>
<clus scale="  115.681">  2  9  1 -1</clus>
<clus scale="  115.681">  2  5  1 -1</clus>
</clustering>
</event>
<event>
 9    1  0.1399746E-005  0.1012105E+03  0.7546771E-02  0.1278182E+00
         -1   -1    0    0    0  501 -0.00000000000E+00  0.00000000000E+00  0.15982205155E+03  0.15982205155E+03  0.00000000000E+00 0.  1.
         21   -1    0    0  501  502  0.00000000000E+00 -0.00000000000E+00 -0.18772252915E+03  0.18772252915E+03  0.00000000000E+00 0.  1.
         23    2    1    2    0    0  0.31940657607E+02 -0.22228902363E+02  0.78479308654E+02  0.12832725625E+03  0.93779278634E+02 0.  0.
         23    2    1    2    0    0 -0.91149295235E+01  0.43332061888E+02  0.55167500837E+01  0.10308295380E+03  0.92924223453E+02 0.  0.
        -11    1    4    4    0    0  0.68257496950E+01  0.24688416664E+02  0.47782404177E+02  0.54215006458E+02  0.00000000000E+00 0.  1.
         11    1    4    4    0    0 -0.15940679219E+02  0.18643645224E+02 -0.42265654093E+02  0.48867947339E+02  0.00000000000E+00 0. -1.
        -13    1    3    3    0    0  0.47997420895E+02 -0.35706715960E+02  0.87096005659E+02  0.10566189559E+03  0.00000000000E+00 0.  1.
         13    1    3    3    0    0 -0.16056763288E+02  0.13477813597E+02 -0.86166970053E+01  0.22665360662E+02  0.00000000000E+00 0. -1.
         -1    1    1    2    0  502 -0.22825728083E+02 -0.21103159525E+02 -0.11189653633E+03  0.11613437066E+03  0.00000000000E+00 0.  1.
<scales pt_clust_5="13000.00000" pt_clust_6="13000.00000" pt_clust_7="13000.00000" pt_clust_8="13000.00000" pt_clust_9="31.08629"></scales>
<clustering>
<clus scale="   31.086">  2  9  1 -1</clus>
<clus scale="   92.924">  5  6 -1 -1</clus>
<clus scale="   93.779">  7  8 -1 -1</clus>
<clus scale="  100.419">  2  5  1 -1</clus>
<clus scale="   31.086">  2  5  1 -1</clus>
</clustering>
</event>
<event>
 9    1  0.1399746E-005  0.1540584E+03  0.7546771E-02  0.1196818E+00
         -1   -1    0    0    0  501 -0.00000000000E+00  0.00000000000E+00  0.18056389713E+03  0.18056389713E+03  0.00000000000E+00 0.  1.
         21   -1    0    0  501  502  0.00000000000E+00 -0.00000000000E+00 -0.23691131880E+03  0.23691131880E+03  0.00000000000E+00 0.  1.
         23    2    1    2    0    0 -0.12849479260E+03  0.21549417979E+02  0.36599192248E+02  0.16760067809E+03  0.98869597366E+02 0.  0.
         23    2    1    2    0    0  0.10023618695E+03 -0.37584609760E+02  0.10221505157E+02  0.14171106452E+03  0.92291118607E+02 0.  0.
        -11    1    4    4    0    0  0.42580604941E+02  0.26758922762E+02  0.21285252793E+02  0.54609613174E+02  0.00000000000E+00 0.  1.
         11    1    4    4    0    0  0.57655582008E+02 -0.64343532522E+02 -0.11063747636E+02  0.87101451342E+02  0.00000000000E+00 0. -1.
        -13    1    3    3    0    0 -0.42045478967E+02  0.47810905530E+02  0.43307883149E+02  0.77001803433E+02  0.00000000000E+00 0.  1.
         13    1    3    3    0    0 -0.86449313633E+02 -0.26261487550E+02 -0.67086909002E+01  0.90598874660E+02  0.00000000000E+00 0. -1.
         -1    1    1    2    0  502  0.28258605651E+02  0.16035191781E+02 -0.10316811908E+03  0.10816347333E+03  0.00000000000E+00 0.  1.
<scales pt_clust_5="13000.00000" pt_clust_6="13000.00000" pt_clust_7="13000.00000" pt_clust_8="13000.00000" pt_clust_9="32.49117"></scales>
<clustering>
<clus scale="   32.491">  2  9  1 -1</clus>
<clus scale="   92.291">  5  6 -1 -1</clus>
<clus scale="   98.870">  7  8 -1 -1</clus>
<clus scale="  149.921">  2  5  1 -1</clus>
<clus scale="   32.491">  2  5  1 -1</clus>
</clustering>
</event>
<event>
 9    1  0.1399746E-005  0.1068040E+03  0.7546771E-02  0.1269961E+00
          1   -1    0    0  502    0 -0.00000000000E+00  0.00000000000E+00  0.42397590205E+03  0.42397590205E+03  0.00000000000E+00 0. -1.
         21   -1    0    0  501  502  0.00000000000E+00 -0.00000000000E+00 -0.45076661716E+02  0.45076661716E+02  0.00000000000E+00 0.  1.
         23    2    1    2    0    0 -0.20282112387E+02  0.34347682819E+02  0.21622915251E+03  0.23842530137E+03  0.92197887951E+02 0.  0.
         23    2    1    2    0    0 -0.23571920102E+02 -0.47589067449E+02  0.88009000345E+02  0.14303280814E+03  0.99460772689E+02 0.  0.
        -11    1    4    4    0    0  0.27644797493E+02 -0.32775726831E+01 -0.46889022748E+01  0.28230535164E+02  0.00000000000E+00 0.  1.
         11    1    4    4    0    0 -0.51216717595E+02 -0.44311494766E+02  0.92697902620E+02  0.11480227297E+03  0.00000000000E+00 0. -1.
        -13    1    3    3    0    0  0.18549344385E+02  0.53627389770E+02  0.11251174838E+03  0.12601138296E+03  0.00000000000E+00 0. -1.
         13    1    3    3    0    0 -0.38831456771E+02 -0.19279706951E+02  0.10371740412E+03  0.11241391841E+03  0.00000000000E+00 0.  1.
          1    1    1    2  501    0  0.43854032488E+02  0.13241384630E+02  0.74661087477E+02  0.87594454251E+02  0.00000000000E+00 0. -1.
<scales pt_clust_5="13000.00000" pt_clust_6="13000.00000" pt_clust_7="13000.00000" pt_clust_8="13000.00000" pt_clust_9="45.80952"></scales>
<clustering>
<clus scale="   45.810">  2  9  1 -1</clus>
<clus scale="   92.198">  7  8 -1 -1</clus>
<clus scale="   99.461">  5  6 -1 -1</clus>
<clus scale="  100.075">  1  7  2 -1</clus>
<clus scale="   45.810">  2  5  1 -1</clus>
</clustering>
</event>
<event>
 9    1  0.1399746E-005  0.1046979E+03  0.7546771E-02  0.1273423E+00
         21   -1    0    0  501  502  0.00000000000E+00  0.00000000000E+00  0.70274982199E+02  0.70274982199E+02  0.00000000000E+00 0.  1.
          1   -1    0    0  502    0 -0.00000000000E+00 -0.00000000000E+00 -0.32723447478E+03  0.32723447478E+03  0.00000000000E+00 0. -1.
         23    2    1    2    0    0  0.52524139261E+02  0.41479548133E+02 -0.19337738055E+03  0.22177381917E+03  0.85495482008E+02 0.  0.
         23    2    1    2    0    0 -0.19874628999E+02 -0.17584543297E+02 -0.86897268484E+02  0.12903918937E+03  0.91628380335E+02 0.  0.
        -11    1    3    3    0    0 -0.10382109435E+02  0.25490103592E+02 -0.13724419282E+02  0.30755377775E+02  0.00000000000E+00 0.  1.
         11    1    3    3    0    0  0.62906248696E+02  0.15989444541E+02 -0.17965296127E+03  0.19101844140E+03  0.00000000000E+00 0. -1.
        -11    1    4    4    0    0 -0.47859167675E+02 -0.36747669370E+02 -0.45796467332E+02  0.75750957451E+02  0.00000000000E+00 0.  1.
         11    1    4    4    0    0  0.27984538677E+02  0.19163126073E+02 -0.41100801152E+02  0.53288231920E+02  0.00000000000E+00 0. -1.
          1    1    1    2  501    0 -0.32649510262E+02 -0.23895004836E+02  0.23315156450E+02  0.46696448438E+02  0.00000000000E+00 0. -1.
<scales pt_clust_5="13000.00000" pt_clust_6="13000.00000" pt_clust_7="13000.00000" pt_clust_8="13000.00000" pt_clust_9="40.45938"></scales>
<clustering>
<clus scale="   40.459">  1  9  2 -1</clus>
<clus scale="   85.495">  5  6 -1 -1</clus>
<clus scale="   91.628">  7  8 -1 -1</clus>
<clus scale="   99.375">  2  5  1 -1</clus>
<clus scale="   40.459">  1  5  2 -1</clus>
</clustering>
</event>
<event>
 9    1  0.1399746E-005  0.1035867E+03  0.7546771E-02  0.1273985E+00
          2   -1    0    0  502    0 -0.00000000000E+00  0.00000000000E+00  0.30707864892E+03  0.30707864892E+03  0.00000000000E+00 0. -1.
         21   -1    0    0  501  502  0.00000000000E+00 -0.00000000000E+00 -0.10403484489E+03  0.10403484489E+03  0.00000000000E+00 0.  1.
         23    2    1    2    0    0  0.60661368579E+01 -0.46933493921E+02  0.24477529530E+03  0.26568547154E+03  0.91838302075E+02 0.  0.
         23    2    1    2    0    0 -0.28681322890E+02  0.47049451562E+02 -0.87709445066E+01  0.10545480964E+03  0.89484737429E+02 0.  0.
        -11    1    3    3    0    0  0.21345174871E+02 -0.67791291291E+02  0.13129695131E+03  0.14929891188E+03  0.00000000000E+00 0. -1.
         11    1    3    3    0    0 -0.15279038013E+02  0.20857797371E+02  0.11347834400E+03  0.11638655966E+03  0.00000000000E+00 0.  1.
        -11    1    4    4    0    0  0.56383120986E+01  0.60005754626E+02 -0.25116533628E+02  0.65294114690E+02  0.00000000000E+00 0.  1.
         11    1    4    4    0    0 -0.34319634989E+02 -0.12956303064E+02  0.16345589122E+02  0.40160694946E+02  0.00000000000E+00 0. -1.
          2    1    1    2  501    0  0.22615186032E+02 -0.11595764163E+00 -0.32960546760E+02  0.39973212633E+02  0.00000000000E+00 0. -1.
<scales pt_clust_5="13000.00000" pt_clust_6="13000.00000" pt_clust_7="13000.00000" pt_clust_8="13000.00000" pt_clust_9="22.61548"></scales>
<clustering>
<clus scale="   22.615">  2  9  1 -1</clus>
<clus scale="   89.485">  7  8 -1 -1</clus>
<clus scale="   91.838">  5  6 -1 -1</clus>
<clus scale="  101.506">  2  7  1 -1</clus>
<clus scale="   22.615">  2  5  1 -1</clus>
</clustering>
</event>
<event>
 9    1  0.1399746E-005  0.1189642E+03  0.7546771E-02  0.1246444E+00
         21   -1    0    0  501  502  0.00000000000E+00  0.00000000000E+00  0.18654325536E+03  0.18654325536E+03  0.00000000000E+00 0.  1.
          3   -1    0    0  502    0 -0.00000000000E+00 -0.00000000000E+00 -0.23561322161E+03  0.23561322161E+03  0.00000000000E+00 0. -1.
         23    2    1    2    0    0  0.68367767166E+02  0.25960270583E+02 -0.14927166510E+03  0.18973488862E+03  0.91483390416E+02 0.  0.
         23    2    1    2    0    0 -0.66645518888E+02  0.85661073784E+01 -0.91342098000E+01  0.11775085175E+03  0.96264354334E+02 0.  0.
        -11    1    3    3    0    0  0.45549228987E+02 -0.14224216146E+02 -0.13206933255E+03  0.14042567139E+03  0.00000000000E+00 0. -1.
         11    1    3    3    0    0  0.22818538179E+02  0.40184486730E+02 -0.17202332550E+02  0.49309217227E+02  0.00000000000E+00 0.  1.
        -11    1    4    4    0    0 -0.87333086537E+02  0.21730172905E+02 -0.17808536373E+02  0.91741007114E+02  0.00000000000E+00 0.  1.
         11    1    4    4    0    0  0.20687567649E+02 -0.13164065527E+02  0.86743265726E+01  0.26009844635E+02  0.00000000000E+00 0. -1.
          3    1    1    2  501    0 -0.17222482781E+01 -0.34526377962E+02  0.10933590865E+03  0.11467073661E+03  0.00000000000E+00 0. -1.
<scales pt_clust_5="13000.00000" pt_clust_6="13000.00000" pt_clust_7="13000.00000" pt_clust_8="13000.00000" pt_clust_9="34.56931"></scales>
<clustering>
<clus scale="   34.569">  1  9  2 -1</clus>
<clus scale="   91.483">  5  6 -1 -1</clus>
<clus scale="   96.264">  7  8 -1 -1</clus>
<clus scale="  115.130">  2  5  1 -1</clus>
<clus scale="   34.569">  1  5  2 -1</clus>
</clustering>
</event>
<event>
 9    1  0.1399746E-005  0.1137907E+03  0.7546771E-02  0.1258182E+00
         21   -1    0    0  501  502  0.00000000000E+00  0.00000000000E+00  0.31627527506E+02  0.31627527506E+02  0.00000000000E+00 0.  1.
          3   -1    0    0  502    0 -0.00000000000E+00 -0.00000000000E+00 -0.50119083539E+03  0.50119083539E+03  0.00000000000E+00 0. -1.
         23    2    1    2    0    0 -0.60245828559E+02  0.53975794551E+02 -0.26197493109E+03  0.28822584474E+03  0.88883782529E+02 0.  0.
         23    2    1    2    0    0  0.57518239251E+02 -0.25999012587E+02 -0.17893923969E+03  0.20445633587E+03  0.76150149524E+02 0.  0.
        -11    1    3    3    0    0 -0.73471429477E+02  0.10047733998E+02 -0.15479802660E+03  0.17164334228E+03  0.00000000000E+00 0.  1.
         11    1    3    3    0    0  0.13225600918E+02  0.43928060554E+02 -0.10717690449E+03  0.11658250246E+03  0.00000000000E+00 0. -1.
        -13    1    4    4    0    0 -0.16137870034E+02 -0.14852726345E+02 -0.23837103508E+02  0.32392002605E+02  0.00000000000E+00 0.  1.
         13    1    4    4    0    0  0.73656109285E+02 -0.11146286242E+02 -0.15510213619E+03  0.17206433326E+03  0.00000000000E+00 0. -1.
          3    1    1    2  501    0  0.27275893075E+01 -0.27976781964E+02 -0.28649137096E+02  0.40136182290E+02  0.00000000000E+00 0. -1.
<scales pt_clust_5="13000.00000" pt_clust_6="13000.00000" pt_clust_7="13000.00000" pt_clust_8="13000.00000" pt_clust_9="28.10943"></scales>
<clustering>
<clus scale="   28.109">  1  9  2 -1</clus>
<clus scale="   76.150">  7  8 -1 -1</clus>
<clus scale="   88.884">  5  6 -1 -1</clus>
<clus scale="  104.148">  1  7  2 -1</clus>
<clus scale="   28.109">  1  5  2 -1</clus>
</clustering>
</event>
<event>
 9    1  0.1399746E-005  0.1191324E+03  0.7546771E-02  0.1244549E+00
         21   -1    0    0  501  502  0.00000000000E+00  0.00000000000E+00  0.43659421536E+03  0.43659421536E+03  0.00000000000E+00 0. -1.
          1   -1    0    0  502    0 -0.00000000000E+00 -0.00000000000E+00 -0.21314302398E+03  0.21314302398E+03  0.00000000000E+00 0. -1.
         23    2    1    2    0    0 -0.45554847817E+01  0.76629658286E+02 -0.17454320665E+03  0.21194681448E+03  0.92537906872E+02 0.  0.
         23    2    1    2    0    0  0.51825822068E+02 -0.50534395744E+02  0.19442918676E+03  0.22718595493E+03  0.92580281193E+02 0.  0.
        -13    1    3    3    0    0 -0.43962580120E+01  0.33109367272E+02 -0.14123885523E+01  0.33429808960E+02  0.00000000000E+00 0.  1.
         13    1    3    3    0    0 -0.15922676973E+00  0.43520291014E+02 -0.17313081810E+03  0.17851700552E+03  0.00000000000E+00 0. -1.
        -13    1    4    4    0    0  0.37898432631E+02  0.21013974674E+02  0.56767511228E+02  0.71417285432E+02  0.00000000000E+00 0. -1.
         13    1    4    4    0    0  0.13927389438E+02 -0.71548370418E+02  0.13766167553E+03  0.15576866950E+03  0.00000000000E+00 0.  1.
          1    1    1    2  501    0 -0.47270337287E+02 -0.26095262542E+02  0.20356521128E+03  0.21060446993E+03  0.00000000000E+00 0. -1.
<scales pt_clust_5="13000.00000" pt_clust_6="13000.00000" pt_clust_7="13000.00000" pt_clust_8="13000.00000" pt_clust_9="53.99488"></scales>
<clustering>
<clus scale="   53.995">  1  9  2 -1</clus>
<clus scale="   92.538">  5  6 -1 -1</clus>
<clus scale="   92.580">  7  8 -1 -1</clus>
<clus scale="  119.099">  2  5  1 -1</clus>
<clus scale="   53.995">  1  5  2 -1</clus>
</clustering>
</event>
<event>
 9    1  0.1399746E-005  0.3115125E+03  0.7546771E-02  0.1079756E+00
         21   -1    0    0  501  502  0.00000000000E+00  0.00000000000E+00  0.58753153301E+03  0.58753153301E+03  0.00000000000E+00 0. -1.
          1   -1    0    0  502    0 -0.00000000000E+00 -0.00000000000E+00 -0.24995211693E+03  0.24995211693E+03  0.00000000000E+00 0. -1.
         23    2    1    2    0    0  0.27780673584E+03  0.58284685648E+02  0.17489386224E+02  0.29924810756E+03  0.93112105467E+02 0.  0.
         23    2    1    2    0    0 -0.32843111279E+03 -0.51471915439E+02  0.33960345429E+03  0.48355451174E+03  0.89320242547E+02 0.  0.
        -11    1    3    3    0    0  0.51609937946E+02  0.49881963231E+02 -0.39339454618E+01  0.71883738617E+02  0.00000000000E+00 0. -1.
         11    1    3    3    0    0  0.22619679790E+03  0.84027224173E+01  0.21423331686E+02  0.22736436894E+03  0.00000000000E+00 0.  1.
        -13    1    4    4    0    0 -0.96178179664E+02 -0.86790802559E+01  0.15988861409E+03  0.18678848356E+03  0.00000000000E+00 0.  1.
         13    1    4    4    0    0 -0.23225293313E+03 -0.42792835183E+02  0.17971484020E+03  0.29676602817E+03  0.00000000000E+00 0. -1.
          1    1    1    2  501    0  0.50624376948E+02 -0.68127702093E+01 -0.19513424436E+02  0.54681030646E+02  0.00000000000E+00 0. -1.
<scales pt_clust_5="13000.00000" pt_clust_6="13000.00000" pt_clust_7="13000.00000" pt_clust_8="13000.00000" pt_clust_9="51.08076"></scales>
<clustering>
<clus scale="   51.081">  1  9  2 -1</clus>
<clus scale="   89.320">  7  8 -1 -1</clus>
<clus scale="   93.112">  5  6 -1 -1</clus>
<clus scale="  310.400">  1  7  2 -1</clus>
<clus scale="   51.081">  1  5  2 -1</clus>
</clustering>
</event>
<event>
 9    1  0.1399746E-005  0.2125025E+03  0.7546771E-02  0.1162194E+00
          2   -1    0    0  502    0 -0.00000000000E+00  0.00000000000E+00  0.34834637684E+03  0.34834637684E+03  0.00000000000E+00 0. -1.
         21   -1    0    0  501  502  0.00000000000E+00 -0.00000000000E+00 -0.22746299483E+03  0.22746299483E+03  0.00000000000E+00 0. -1.
         23    2    1    2    0    0  0.74525246305E+02 -0.40045391882E+02  0.69552163408E+02  0.14262065974E+03  0.91353726810E+02 0.  0.
         23    2    1    2    0    0  0.12041361013E+03 -0.61995071603E+02  0.11987750415E+03  0.20272828756E+03  0.91571371989E+02 0.  0.
        -13    1    4    4    0    0  0.99679939885E+02 -0.33698094282E+02  0.12901013277E+03  0.16647902670E+03  0.00000000000E+00 0. -1.
         13    1    4    4    0    0  0.20733670247E+02 -0.28296977321E+02 -0.91326286202E+01  0.36249260861E+02  0.00000000000E+00 0.  1.
        -13    1    3    3    0    0  0.23384089204E+02 -0.63473780136E+02  0.30891399187E+02  0.74364070198E+02  0.00000000000E+00 0.  1.
         13    1    3    3    0    0  0.51141157101E+02  0.23428388254E+02  0.38660764220E+02  0.68256589542E+02  0.00000000000E+00 0. -1.
          2    1    1    2  501    0 -0.19493885644E+03  0.10204046349E+03 -0.68546285543E+02  0.23046042437E+03  0.00000000000E+00 0. -1.
<scales pt_clust_5="13000.00000" pt_clust_6="13000.00000" pt_clust_7="13000.00000" pt_clust_8="13000.00000" pt_clust_9="191.76028"></scales>
<clustering>
<clus scale="   91.354">  7  8 -1 -1</clus>
<clus scale="   91.571">  5  6 -1 -1</clus>
<clus scale="  124.512">  1  7  2 -1</clus>
<clus scale="  191.760">  2  9  1 -1</clus>
<clus scale="  191.760">  2  5  1 -1</clus>
</clustering>
</event>
<event>
 9    1  0.1399746E-005  0.9139251E+02  0.7546771E-02  0.1299758E+00
         -4   -1    0    0    0  501 -0.00000000000E+00  0.00000000000E+00  0.81198716662E+03  0.81198716662E+03  0.00000000000E+00 0.  1.
         21   -1    0    0  501  502  0.00000000000E+00 -0.00000000000E+00 -0.34447371352E+02  0.34447371352E+02  0.00000000000E+00 0. -1.
         23    2    1    2    0    0 -0.21281692273E+01  0.72880657691E+01  0.51769621102E+03  0.52545012277E+03  0.89614840333E+02 0.  0.
         23    2    1    2    0    0 -0.24882061905E+02 -0.30663547538E+02  0.26702624221E+03  0.28454876908E+03  0.90031204596E+02 0.  0.
        -11    1    3    3    0    0  0.20798530714E+02 -0.35621559167E+02  0.24501064976E+03  0.24845863409E+03  0.00000000000E+00 0.  1.
         11    1    3    3    0    0 -0.22926699941E+02  0.42909624936E+02  0.27268556126E+03  0.27699148868E+03  0.00000000000E+00 0. -1.
        -13    1    4    4    0    0 -0.55564388688E+02 -0.36765892935E+02  0.19328924506E+03  0.20445015145E+03  0.00000000000E+00 0. -1.
         13    1    4    4    0    0  0.30682326783E+02  0.61023453969E+01  0.73736997155E+02  0.80098617626E+02  0.00000000000E+00 0.  1.
         -4    1    1    2    0  502  0.27010231132E+02  0.23375481769E+02 -0.71826579571E+01  0.36435646132E+02  0.00000000000E+00 0.  1.
<scales pt_clust_5="13000.00000" pt_clust_6="13000.00000" pt_clust_7="13000.00000" pt_clust_8="13000.00000" pt_clust_9="35.72066"></scales>
<clustering>
<clus scale="   35.721">  2  9  1 -1</clus>
<clus scale="   89.615">  5  6 -1 -1</clus>
<clus scale="   90.031">  7  8 -1 -1</clus>
<clus scale="   90.982">  1  5  2 -1</clus>
<clus scale="   35.721">  2  5  1 -1</clus>
</clustering>
</event>
<event>
 9    1  0.1399746E-005  0.1949425E+03  0.7546771E-02  0.1154202E+00
         21   -1    0    0  501  502  0.00000000000E+00  0.00000000000E+00  0.76192348434E+02  0.76192348434E+02  0.00000000000E+00 0. -1.
          2   -1    0    0  502    0 -0.00000000000E+00 -0.00000000000E+00 -0.95478836291E+03  0.95478836291E+03  0.00000000000E+00 0. -1.
         23    2    1    2    0    0 -0.98974555066E+02  0.10728933860E+03 -0.39352299901E+03  0.42950376074E+03  0.91138164411E+02 0.  0.
         23    2    1    2    0    0  0.15374162244E+03 -0.14320552522E+03 -0.48481947729E+03  0.53598291720E+03  0.89908025491E+02 0.  0.
        -11    1    3    3    0    0 -0.13877655191E+02 -0.16634839186E+02 -0.45048066469E+02  0.49986352947E+02  0.00000000000E+00 0.  1.
         11    1    3    3    0    0 -0.85096899874E+02  0.12392417779E+03 -0.34847493254E+03  0.37951740779E+03  0.00000000000E+00 0. -1.
        -13    1    4    4    0    0  0.15156828345E+01 -0.43462534774E+02 -0.62736365006E+02  0.76335710632E+02  0.00000000000E+00 0.  1.
         13    1    4    4    0    0  0.15222593961E+03 -0.99742990444E+02 -0.42208311228E+03  0.45964720657E+03  0.00000000000E+00 0. -1.
          2    1    1    2  501    0 -0.54767067374E+02  0.35916186618E+02 -0.25353817649E+00  0.65494033404E+02  0.00000000000E+00 0. -1.
<scales pt_clust_5="13000.00000" pt_clust_6="13000.00000" pt_clust_7="13000.00000" pt_clust_8="13000.00000" pt_clust_9="65.49354"></scales>
<clustering>
<clus scale="   65.494">  1  9  2 -1</clus>
<clus scale="   89.908">  7  8 -1 -1</clus>
<clus scale="   91.138">  5  6 -1 -1</clus>
<clus scale="  194.370">  1  7  2 -1</clus>
<clus scale="   65.494">  1  5  2 -1</clus>
</clustering>
</event>
<event>
 9    1  0.1399746E-005  0.1166091E+03  0.7546771E-02  0.1257685E+00
         -2   -1    0    0    0  501 -0.00000000000E+00  0.00000000000E+00  0.15059028569E+03  0.15059028569E+03  0.00000000000E+00 0.  1.
         21   -1    0    0  501  502  0.00000000000E+00 -0.00000000000E+00 -0.12612945793E+03  0.12612945793E+03  0.00000000000E+00 0. -1.
         23    2    1    2    0    0 -0.22800415546E+02  0.15245214293E+01  0.40289419213E+02  0.12128615937E+03  0.11209331844E+03 0.  0.
         23    2    1    2    0    0  0.32924026054E+02  0.37010835125E+02  0.13974923340E+02  0.10567707021E+03  0.92295998171E+02 0.  0.
        -11    1    3    3    0    0 -0.18247085095E+02  0.52331159134E+02 -0.13516498850E+01  0.55437652261E+02  0.00000000000E+00 0. -1.
         11    1    3    3    0    0 -0.45533304514E+01 -0.50806637705E+02  0.41641069098E+02  0.65848507110E+02  0.00000000000E+00 0.  1.
        -11    1    4    4    0    0 -0.30161740649E+02 -0.15583264349E+01  0.92399597998E+01  0.31583790737E+02  0.00000000000E+00 0.  1.
         11    1    4    4    0    0  0.63085766703E+02  0.38569161560E+02  0.47349635406E+01  0.74093279477E+02  0.00000000000E+00 0. -1.
         -2    1    1    2    0  502 -0.10123610507E+02 -0.38535356554E+02 -0.29803514795E+02  0.49756514032E+02  0.00000000000E+00 0.  1.
<scales pt_clust_5="13000.00000" pt_clust_6="13000.00000" pt_clust_7="13000.00000" pt_clust_8="13000.00000" pt_clust_9="39.84296"></scales>
<clustering>
<clus scale="   39.843">  2  9  1 -1</clus>
<clus scale="   92.296">  7  8 -1 -1</clus>
<clus scale="   97.731">  2  7  1 -1</clus>
<clus scale="  112.093">  5  6 -1 -1</clus>
<clus scale="   39.843">  2  5  1 -1</clus>
</clustering>
</event>
<event>
 9    1  0.1399746E-005  0.1307374E+03  0.7546771E-02  0.1227747E+00
         -1   -1    0    0    0  501 -0.00000000000E+00  0.00000000000E+00  0.46417707042E+03  0.46417707042E+03  0.00000000000E+00 0.  1.
         21   -1    0    0  501  502  0.00000000000E+00 -0.00000000000E+00 -0.70120813137E+02  0.70120813137E+02  0.00000000000E+00 0. -1.
         23    2    1    2    0    0  0.46690453879E+02 -0.75446178595E+02  0.30938386286E+03  0.33354405124E+03  0.87527910786E+02 0.  0.
         23    2    1    2    0    0 -0.84474553785E+02  0.68491059092E+02  0.73425560690E+02  0.16072255503E+03  0.92808681269E+02 0.  0.
        -11    1    4    4    0    0 -0.93805737614E+02  0.32312335387E+02  0.73307608715E+02  0.12335967300E+03  0.00000000000E+00 0.  1.
         11    1    4    4    0    0  0.93311838286E+01  0.36178723705E+02  0.11795197502E+00  0.37362882025E+02  0.00000000000E+00 0. -1.
        -13    1    3    3    0    0  0.41571516781E+02 -0.95383219717E+02  0.25831401711E+03  0.27848210184E+03  0.00000000000E+00 0.  1.
         13    1    3    3    0    0  0.51189370987E+01  0.19937041122E+02  0.51069845757E+02  0.55061949397E+02  0.00000000000E+00 0. -1.
         -1    1    1    2    0  502  0.37784099906E+02  0.69551195033E+01  0.11246833732E+02  0.40031277297E+02  0.00000000000E+00 0.  1.
<scales pt_clust_5="13000.00000" pt_clust_6="13000.00000" pt_clust_7="13000.00000" pt_clust_8="13000.00000" pt_clust_9="38.41890"></scales>
<clustering>
<clus scale="   38.419">  2  9  1 -1</clus>
<clus scale="   87.528">  7  8 -1 -1</clus>
<clus scale="   92.809">  5  6 -1 -1</clus>
<clus scale="  127.043">  1  7  2 -1</clus>
<clus scale="   38.419">  2  5  1 -1</clus>
</clustering>
</event>
<event>
 9    1  0.1399746E-005  0.1227652E+03  0.7546771E-02  0.1239402E+00
          1   -1    0    0  502    0 -0.00000000000E+00  0.00000000000E+00  0.39657290298E+03  0.39657290298E+03  0.00000000000E+00 0. -1.
         21   -1    0    0  501  502  0.00000000000E+00 -0.00000000000E+00 -0.13926479535E+03  0.13926479535E+03  0.00000000000E+00 0. -1.
         23    2    1    2    0    0 -0.39880914200E+02 -0.68706400731E+02  0.28102623920E+03  0.30525436148E+03  0.88844928175E+02 0.  0.
         23    2    1    2    0    0  0.98720747212E+02  0.45275059145E+02  0.32728464153E+02  0.14574601083E+03  0.91515738520E+02 0.  0.
        -11    1    4    4    0    0  0.30932382567E+01  0.28292344340E+02 -0.20422368999E+02  0.35029958988E+02  0.00000000000E+00 0.  1.
         11    1    4    4    0    0  0.95627508955E+02  0.16982714805E+02  0.53150833152E+02  0.11071605184E+03  0.00000000000E+00 0. -1.
        -13    1    3    3    0    0 -0.27787620577E+02  0.79852456190E+01  0.26748452009E+02  0.39387760660E+02  0.00000000000E+00 0.  1.
         13    1    3    3    0    0 -0.12093293622E+02 -0.76691646350E+02  0.25427778720E+03  0.26586660082E+03  0.00000000000E+00 0. -1.
          1    1    1    2  501    0 -0.58839833012E+02  0.23431341586E+02 -0.56446595720E+02  0.84837326018E+02  0.00000000000E+00 0. -1.
<scales pt_clust_5="13000.00000" pt_clust_6="13000.00000" pt_clust_7="13000.00000" pt_clust_8="13000.00000" pt_clust_9="63.33367"></scales>
<clustering>
<clus scale="   63.334">  2  9  1 -1</clus>
<clus scale="   88.845">  7  8 -1 -1</clus>
<clus scale="   91.516">  5  6 -1 -1</clus>
<clus scale="  120.787">  1  7  2 -1</clus>
<clus scale="   63.334">  2  5  1 -1</clus>
</clustering>
</event>
<event>
 9    1  0.1399746E-005  0.1146933E+03  0.7546771E-02  0.1258835E+00
         21   -1    0    0  501  502  0.00000000000E+00  0.00000000000E+00  0.64470593250E+03  0.64470593250E+03  0.00000000000E+00 0. -1.
         -4   -1    0    0    0  501 -0.00000000000E+00 -0.00000000000E+00 -0.40154372452E+02  0.40154372452E+02  0.00000000000E+00 0.  1.
         23    2    1    2    0    0  0.50627783855E+02 -0.46041590772E+01  0.71589005593E+02  0.12142171379E+03  0.83868206601E+02 0.  0.
         23    2    1    2    0    0 -0.78418577563E+02  0.82478427436E+01  0.51389391136E+03  0.52953847619E+03  0.10053131561E+03 0.  0.
        -11    1    4    4    0    0 -0.88010782581E+02 -0.26058777789E+02  0.35185384837E+03  0.36362905325E+03  0.00000000000E+00 0.  1.
         11    1    4    4    0    0  0.95922050180E+01  0.34306620532E+02  0.16204006299E+03  0.16590942294E+03  0.00000000000E+00 0. -1.
        -13    1    3    3    0    0  0.59215081028E+02 -0.31342451128E+02  0.35906957953E+02  0.76013713850E+02  0.00000000000E+00 0.  1.
         13    1    3    3    0    0 -0.85872971731E+01  0.26738292051E+02  0.35682047640E+02  0.45407999937E+02  0.00000000000E+00 0. -1.
         -4    1    1    2    0  502  0.27790793708E+02 -0.36436836664E+01  0.19068643093E+02  0.33900114970E+02  0.00000000000E+00 0.  1.
<scales pt_clust_5="13000.00000" pt_clust_6="13000.00000" pt_clust_7="13000.00000" pt_clust_8="13000.00000" pt_clust_9="28.02865"></scales>
<clustering>
<clus scale="   28.029">  1  9  2 -1</clus>
<clus scale="   83.868">  7  8 -1 -1</clus>
<clus scale="  100.409">  2  7  1 -1</clus>
<clus scale="  100.531">  5  6 -1 -1</clus>
<clus scale="   28.029">  1  5  2 -1</clus>
</clustering>
</event>
<event>
 9    1  0.1399746E-005  0.1052106E+03  0.7546771E-02  0.1272818E+00
         21   -1    0    0  501  502  0.00000000000E+00  0.00000000000E+00  0.18267758727E+03  0.18267758727E+03  0.00000000000E+00 0. -1.
          3   -1    0    0  502    0 -0.00000000000E+00 -0.00000000000E+00 -0.15247661659E+03  0.15247661659E+03  0.00000000000E+00 0. -1.
         23    2    1    2    0    0  0.47036886548E+02  0.35642120418E+02 -0.68007049446E+02  0.12845078630E+03  0.91606857186E+02 0.  0.
         23    2    1    2    0    0 -0.42587041090E+02 -0.10338274757E+02 -0.97982579979E+01  0.95683411051E+02  0.84491261660E+02 0.  0.
        -11    1    3    3    0    0  0.20137634213E+01 -0.26272557717E+02 -0.45456339711E+00  0.26353541698E+02  0.00000000000E+00 0.  1.
         11    1    3    3    0    0  0.45023123127E+02  0.61914678136E+02 -0.67552486049E+02  0.10209724461E+03  0.00000000000E+00 0. -1.
        -11    1    4    4    0    0 -0.12785566039E+02 -0.45202501523E+02 -0.15495093699E+02  0.49465490715E+02  0.00000000000E+00 0.  1.
         11    1    4    4    0    0 -0.29801475051E+02  0.34864226766E+02  0.56968357013E+01  0.46217920337E+02  0.00000000000E+00 0. -1.
          3    1    1    2  501    0 -0.44498454582E+01 -0.25303845661E+02  0.10800627813E+03  0.11102000651E+03  0.00000000000E+00 0. -1.
<scales pt_clust_5="13000.00000" pt_clust_6="13000.00000" pt_clust_7="13000.00000" pt_clust_8="13000.00000" pt_clust_9="25.69213"></scales>
<clustering>
<clus scale="   25.692">  1  9  2 -1</clus>
<clus scale="   84.491">  7  8 -1 -1</clus>
<clus scale="   91.607">  5  6 -1 -1</clus>
<clus scale="   99.077">  1  7  2 -1</clus>
<clus scale="   25.692">  1  5  2 -1</clus>
</clustering>
</event>
<event>
 9    1  0.1399746E-005  0.1874586E+03  0.7546771E-02  0.1174362E+00
         21   -1    0    0  501  502  0.00000000000E+00  0.00000000000E+00  0.15957500199E+03  0.15957500199E+03  0.00000000000E+00 0.  1.
          2   -1    0    0  502    0 -0.00000000000E+00 -0.00000000000E+00 -0.58976043859E+03  0.58976043859E+03  0.00000000000E+00 0. -1.
         23    2    1    2    0    0  0.63222408538E+02 -0.80725851313E+02 -0.13666302630E+03  0.19364758467E+03  0.91152993803E+02 0.  0.
         23    2    1    2    0    0 -0.11651778244E+03  0.22055582599E+03 -0.30721774415E+03  0.40542015856E+03  0.88099356669E+02 0.  0.
        -11    1    3    3    0    0  0.19660937740E+02 -0.70013661273E+02 -0.12907464083E+03  0.14815103153E+03  0.00000000000E+00 0. -1.
         11    1    3    3    0    0  0.43561470798E+02 -0.10712190040E+02 -0.75883854681E+01  0.45496553139E+02  0.00000000000E+00 0.  1.
        -13    1    4    4    0    0 -0.71433019680E+02  0.19554329343E+03 -0.21191809550E+03  0.29706755983E+03  0.00000000000E+00 0.  1.
         13    1    4    4    0    0 -0.45084762765E+02  0.25012532562E+02 -0.95299648649E+02  0.10835259873E+03  0.00000000000E+00 0. -1.
          2    1    1    2  501    0  0.53295373906E+02 -0.13982997468E+03  0.13695333839E+02  0.15026769735E+03  0.00000000000E+00 0. -1.
<scales pt_clust_5="13000.00000" pt_clust_6="13000.00000" pt_clust_7="13000.00000" pt_clust_8="13000.00000" pt_clust_9="165.46667"></scales>
<clustering>
<clus scale="   88.099">  7  8 -1 -1</clus>
<clus scale="   91.153">  5  6 -1 -1</clus>
<clus scale="  137.195">  2  5  1 -1</clus>
<clus scale="  165.467">  1  9  2 -1</clus>
<clus scale="  165.467">  1  5  2 -1</clus>
</clustering>
</event>
<event>
 9    1  0.1399746E-005  0.1124873E+03  0.7546771E-02  0.1256927E+00
         21   -1    0    0  501  502  0.00000000000E+00  0.00000000000E+00  0.89667523549E+03  0.89667523549E+03  0.00000000000E+00 0.  1.
          2   -1    0    0  502    0 -0.00000000000E+00 -0.00000000000E+00 -0.38491748439E+02  0.38491748439E+02  0.00000000000E+00 0. -1.
         23    2    1    2    0    0 -0.54451515888E+01 -0.61330559072E+02  0.68831763243E+02  0.12895462005E+03  0.90002195802E+02 0.  0.
         23    2    1    2    0    0 -0.27104547431E+02  0.80690686041E+02  0.57853226406E+03  0.59201819488E+03  0.92413847504E+02 0.  0.
        -11    1    4    4    0    0  0.34123683440E+02  0.22094286735E+02  0.17077683368E+03  0.17554859783E+03  0.00000000000E+00 0. -1.
         11    1    4    4    0    0 -0.61228230871E+02  0.58596399306E+02  0.40775543038E+03  0.41646959706E+03  0.00000000000E+00 0.  1.
        -11    1    3    3    0    0  0.21447759406E+02 -0.31846069164E+02 -0.10798091035E+02  0.39884549323E+02  0.00000000000E+00 0. -1.
         11    1    3    3    0    0 -0.26892910995E+02 -0.29484489908E+02  0.79629854278E+02  0.89070070726E+02  0.00000000000E+00 0.  1.
          2    1    1    2  501    0  0.32549699020E+02 -0.19360126969E+02  0.21081945975E+03  0.21419416899E+03  0.00000000000E+00 0. -1.
<scales pt_clust_5="13000.00000" pt_clust_6="13000.00000" pt_clust_7="13000.00000" pt_clust_8="13000.00000" pt_clust_9="37.87212"></scales>
<clustering>
<clus scale="   37.872">  1  9  2 -1</clus>
<clus scale="   90.002">  7  8 -1 -1</clus>
<clus scale="   92.414">  5  6 -1 -1</clus>
<clus scale="  110.515">  2  7  1 -1</clus>
<clus scale="   37.872">  1  5  2 -1</clus>
</clustering>
</event>
<event>
 9    1  0.1399746E-005  0.1346968E+03  0.7546771E-02  0.1220873E+00
         -1   -1    0    0    0  501 -0.00000000000E+00  0.00000000000E+00  0.40791434519E+03  0.40791434519E+03  0.00000000000E+00 0.  1.
         21   -1    0    0  501  502  0.00000000000E+00 -0.00000000000E+00 -0.15458435739E+03  0.15458435739E+03  0.00000000000E+00 0.  1.
         23    2    1    2    0    0  0.28218301110E+02 -0.86438142136E+02  0.23085526244E+03  0.26510021954E+03  0.93360319573E+02 0.  0.
         23    2    1    2    0    0  0.60594123038E+02  0.14892242926E+03 -0.44725242504E+01  0.18551422552E+03  0.92444506123E+02 0.  0.
        -11    1    4    4    0    0  0.42433059470E+02  0.66855570386E+02  0.41827702771E+02  0.89553272116E+02  0.00000000000E+00 0.  1.
         11    1    4    4    0    0  0.18161063569E+02  0.82066858875E+02 -0.46300227021E+02  0.95960953402E+02  0.00000000000E+00 0. -1.
        -13    1    3    3    0    0 -0.37372143661E+01 -0.82282714873E+02  0.21274933273E+03  0.22813743778E+03  0.00000000000E+00 0.  1.
         13    1    3    3    0    0  0.31955515476E+02 -0.41554272630E+01  0.18105929709E+02  0.36962781763E+02  0.00000000000E+00 0. -1.
         -1    1    1    2    0  502 -0.88812424148E+02 -0.62484287125E+02  0.26947249608E+02  0.11188425753E+03  0.00000000000E+00 0.  1.
<scales pt_clust_5="13000.00000" pt_clust_6="13000.00000" pt_clust_7="13000.00000" pt_clust_8="13000.00000" pt_clust_9="108.59067"></scales>
<clustering>
<clus scale="   92.445">  5  6 -1 -1</clus>
<clus scale="   93.360">  7  8 -1 -1</clus>
<clus scale="  108.591">  2  9  1 -1</clus>
<clus scale="  134.064">  2  5  1 -1</clus>
<clus scale="  108.591">  2  5  1 -1</clus>
</clustering>
</event>
<event>
 9    1  0.1399746E-005  0.1431471E+03  0.7546771E-02  0.1209394E+00
         21   -1    0    0  501  502  0.00000000000E+00  0.00000000000E+00  0.16190438868E+03  0.16190438868E+03  0.00000000000E+00 0. -1.
          3   -1    0    0  502    0 -0.00000000000E+00 -0.00000000000E+00 -0.25768829915E+03  0.25768829915E+03  0.00000000000E+00 0. -1.
         23    2    1    2    0    0 -0.11023326056E+03  0.59535458652E+02 -0.11991094624E+03  0.19652745582E+03  0.92458440905E+02 0.  0.
         23    2    1    2    0    0  0.28708301284E+02 -0.88710477703E+02  0.36674272704E+02  0.13557275304E+03  0.91330464096E+02 0.  0.
        -11    1    4    4    0    0  0.54428702417E+02 -0.38495342888E+02 -0.27847334053E+01  0.66724282019E+02  0.00000000000E+00 0.  1.
         11    1    4    4    0    0 -0.25720401133E+02 -0.50215134815E+02  0.39459006109E+02  0.68848471022E+02  0.00000000000E+00 0. -1.
        -13    1    3    3    0    0 -0.74709493475E+02 -0.12091287805E+02 -0.55314911037E+02  0.93741383813E+02  0.00000000000E+00 0.  1.
         13    1    3    3    0    0 -0.35523767084E+02  0.71626746457E+02 -0.64596035201E+02  0.10278607201E+03  0.00000000000E+00 0. -1.
          3    1    1    2  501    0  0.81524959275E+02  0.29175019050E+02 -0.12547236940E+02  0.87492478969E+02  0.00000000000E+00 0. -1.
<scales pt_clust_5="13000.00000" pt_clust_6="13000.00000" pt_clust_7="13000.00000" pt_clust_8="13000.00000" pt_clust_9="86.58811"></scales>
<clustering>
<clus scale="   86.588">  1  9  2 -1</clus>
<clus scale="   91.330">  5  6 -1 -1</clus>
<clus scale="   92.458">  7  8 -1 -1</clus>
<clus scale="  142.421">  1  5  2 -1</clus>
<clus scale="   86.588">  1  5  2 -1</clus>
</clustering>
</event>
<event>
 9    1  0.1399746E-005  0.1083768E+03  0.7546771E-02  0.1264241E+00
         21   -1    0    0  501  502  0.00000000000E+00  0.00000000000E+00  0.84170497304E+02  0.84170497304E+02  0.00000000000E+00 0.  1.
          2   -1    0    0  502    0 -0.00000000000E+00 -0.00000000000E+00 -0.24882163108E+03  0.24882163108E+03  0.00000000000E+00 0. -1.
         23    2    1    2    0    0 -0.36390375968E+02 -0.31908312577E+02 -0.12759075810E+03  0.16425808531E+03  0.91427113924E+02 0.  0.
         23    2    1    2    0    0  0.66601596941E+02  0.55677285218E+02 -0.19374298780E+02  0.12641998810E+03  0.89838283229E+02 0.  0.
        -13    1    3    3    0    0 -0.65955333014E+02 -0.11646951193E+02 -0.91508973651E+02  0.11340039543E+03  0.00000000000E+00 0. -1.
         13    1    3    3    0    0  0.29564957046E+02 -0.20261361384E+02 -0.36081784452E+02  0.50857689876E+02  0.00000000000E+00 0.  1.
        -13    1    4    4    0    0  0.81979823654E+02  0.19604962708E+02 -0.42747167025E+01  0.84399758602E+02  0.00000000000E+00 0.  1.
         13    1    4    4    0    0 -0.15378226714E+02  0.36072322509E+02 -0.15099582078E+02  0.42020229497E+02  0.00000000000E+00 0. -1.
          2    1    1    2  501    0 -0.30211220972E+02 -0.23768972640E+02 -0.17686076897E+02  0.42314054982E+02  0.00000000000E+00 0. -1.
<scales pt_clust_5="13000.00000" pt_clust_6="13000.00000" pt_clust_7="13000.00000" pt_clust_8="13000.00000" pt_clust_9="38.44063"></scales>
<clustering>
<clus scale="   38.441">  1  9  2 -1</clus>
<clus scale="   89.838">  7  8 -1 -1</clus>
<clus scale="   91.427">  5  6 -1 -1</clus>
<clus scale="  107.040">  1  7  2 -1</clus>
<clus scale="   38.441">  1  5  2 -1</clus>
</clustering>
</event>
<event>
 9    1  0.1399746E-005  0.1257047E+03  0.7546771E-02  0.1234170E+00
         21   -1    0    0  501  502  0.00000000000E+00  0.00000000000E+00  0.29691573497E+03  0.29691573497E+03  0.00000000000E+00 0. -1.
         -2   -1    0    0    0  501 -0.00000000000E+00 -0.00000000000E+00 -0.77605502136E+02  0.77605502136E+02  0.00000000000E+00 0.  1.
         23    2    1    2    0    0  0.49998412102E+02  0.74546413931E+02  0.76330895852E+02  0.14959710027E+03  0.92173085574E+02 0.  0.
         23    2    1    2    0    0 -0.23776525194E+02 -0.77454221902E+02  0.15377631598E+03  0.19641769097E+03  0.91478272459E+02 0.  0.
        -11    1    4    4    0    0 -0.35825918002E+02 -0.57919211264E+02  0.15891844309E+03  0.17289650948E+03  0.00000000000E+00 0.  1.
         11    1    4    4    0    0  0.12049392808E+02 -0.19535010639E+02 -0.51421271190E+01  0.23521181497E+02  0.00000000000E+00 0. -1.
        -11    1    3    3    0    0 -0.26832243032E+02  0.18847675673E+02  0.11846515764E+02  0.34864653736E+02  0.00000000000E+00 0.  1.
         11    1    3    3    0    0  0.76830655133E+02  0.55698738258E+02  0.64484380088E+02  0.11473244653E+03  0.00000000000E+00 0. -1.
         -2    1    1    2    0  502 -0.26221886908E+02  0.29078079713E+01 -0.10796978995E+02  0.28506445861E+02  0.00000000000E+00 0.  1.
<scales pt_clust_5="13000.00000" pt_clust_6="13000.00000" pt_clust_7="13000.00000" pt_clust_8="13000.00000" pt_clust_9="26.38263"></scales>
<clustering>
<clus scale="   26.383">  1  9  2 -1</clus>
<clus scale="   91.478">  5  6 -1 -1</clus>
<clus scale="   92.173">  7  8 -1 -1</clus>
<clus scale="  125.196">  1  5  2 -1</clus>
<clus scale="   26.383">  1  5  2 -1</clus>
</clustering>
</event>
<event>
 9    1  0.1399746E-005  0.1118170E+03  0.7546771E-02  0.1257503E+00
          2   -1    0    0  502    0 -0.00000000000E+00  0.00000000000E+00  0.23040466012E+03  0.23040466012E+03  0.00000000000E+00 0. -1.
         21   -1    0    0  501  502  0.00000000000E+00 -0.00000000000E+00 -0.19293402162E+03  0.19293402162E+03  0.00000000000E+00 0. -1.
         23    2    1    2    0    0  0.38963848173E+02 -0.38780739835E+02  0.11477591373E+03  0.15698302417E+03  0.91913177824E+02 0.  0.
         23    2    1    2    0    0 -0.46014823989E+01  0.10478216179E+03  0.23593646580E+02  0.14098599496E+03  0.91213571068E+02 0.  0.
        -11    1    4    4    0    0 -0.17108158249E+02  0.81512485911E+02  0.55103737104E+02  0.99866892817E+02  0.00000000000E+00 0. -1.
         11    1    4    4    0    0  0.12506675850E+02  0.23269675877E+02 -0.31510090525E+02  0.41119102144E+02  0.00000000000E+00 0.  1.
        -13    1    3    3    0    0  0.47892725888E+02 -0.51644386359E+01  0.11220299853E+03  0.12210609116E+03  0.00000000000E+00 0. -1.
         13    1    3    3    0    0 -0.89288777148E+01 -0.33616301199E+02  0.25729152037E+01  0.34876933010E+02  0.00000000000E+00 0.  1.
          2    1    1    2  501    0 -0.34362365775E+02 -0.66001421953E+02 -0.10089892181E+03  0.12536966262E+03  0.00000000000E+00 0. -1.
<scales pt_clust_5="13000.00000" pt_clust_6="13000.00000" pt_clust_7="13000.00000" pt_clust_8="13000.00000" pt_clust_9="74.41075"></scales>
<clustering>
<clus scale="   74.411">  2  9  1 -1</clus>
<clus scale="   91.214">  5  6 -1 -1</clus>
<clus scale="   91.913">  7  8 -1 -1</clus>
<clus scale="  111.243">  2  5  1 -1</clus>
<clus scale="   74.411">  2  5  1 -1</clus>
</clustering>
</event>
<event>
 9    1  0.1399746E-005  0.1201617E+03  0.7546771E-02  0.1243313E+00
         21   -1    0    0  501  502  0.00000000000E+00  0.00000000000E+00  0.52722591900E+02  0.52722591900E+02  0.00000000000E+00 0. -1.
          1   -1    0    0  502    0 -0.00000000000E+00 -0.00000000000E+00 -0.70260776288E+03  0.70260776288E+03  0.00000000000E+00 0. -1.
         23    2    1    2    0    0  0.64699184892E+02 -0.11533562633E+01 -0.39934255965E+03  0.41462063407E+03  0.90821118103E+02 0.  0.
         23    2    1    2    0    0 -0.13382574715E+03 -0.55825359371E+01 -0.18481458618E+03  0.24508531409E+03  0.89274210206E+02 0.  0.
        -13    1    4    4    0    0 -0.30224934516E+02 -0.19405323075E+02 -0.38736556407E+01  0.36126422992E+02  0.00000000000E+00 0.  1.
         13    1    4    4    0    0 -0.10360081263E+03  0.13822787138E+02 -0.18094093054E+03  0.20895889109E+03  0.00000000000E+00 0. -1.
        -13    1    3    3    0    0  0.41590858148E+02 -0.37130164262E+02 -0.31671561483E+03  0.32158549292E+03  0.00000000000E+00 0.  1.
         13    1    3    3    0    0  0.23108326744E+02  0.35976807999E+02 -0.82626944819E+02  0.93035141150E+02  0.00000000000E+00 0. -1.
          1    1    1    2  501    0  0.69126562253E+02  0.67358922004E+01 -0.65728025153E+02  0.95624406629E+02  0.00000000000E+00 0. -1.
<scales pt_clust_5="13000.00000" pt_clust_6="13000.00000" pt_clust_7="13000.00000" pt_clust_8="13000.00000" pt_clust_9="69.45397"></scales>
<clustering>
<clus scale="   69.454">  1  9  2 -1</clus>
<clus scale="   89.274">  5  6 -1 -1</clus>
<clus scale="   90.821">  7  8 -1 -1</clus>
<clus scale="  118.997">  1  5  2 -1</clus>
<clus scale="   69.454">  1  5  2 -1</clus>
</clustering>
</event>
<event>
 9    1  0.1399746E-005  0.1042820E+03  0.7546771E-02  0.1273834E+00
         21   -1    0    0  501  502  0.00000000000E+00  0.00000000000E+00  0.19094102181E+03  0.19094102181E+03  0.00000000000E+00 0. -1.
         -3   -1    0    0    0  501 -0.00000000000E+00 -0.00000000000E+00 -0.87083427556E+02  0.87083427556E+02  0.00000000000E+00 0.  1.
         23    2    1    2    0    0  0.57687563629E+02  0.42888226597E+01  0.73308168043E+01  0.10677394427E+03  0.89446549972E+02 0.  0.
         23    2    1    2    0    0 -0.23836796534E+02 -0.15860143013E+02  0.44857262310E+02  0.10840538848E+03  0.94444784213E+02 0.  0.
        -11    1    4    4    0    0 -0.10321442559E+02  0.22286188978E+02 -0.20191712776E+02  0.31794837010E+02  0.00000000000E+00 0.  1.
         11    1    4    4    0    0 -0.13515353975E+02 -0.38146331991E+02  0.65048975085E+02  0.76610551474E+02  0.00000000000E+00 0. -1.
        -13    1    3    3    0    0  0.16187558362E+02  0.45264337491E+02  0.68848966664E+00  0.48076723185E+02  0.00000000000E+00 0.  1.
         13    1    3    3    0    0  0.41500005267E+02 -0.40975514831E+02  0.66423271377E+01  0.58697221081E+02  0.00000000000E+00 0. -1.
         -3    1    1    2    0  502 -0.33850767094E+02  0.11571320353E+02  0.51669515142E+02  0.62845116617E+02  0.00000000000E+00 0.  1.
<scales pt_clust_5="13000.00000" pt_clust_6="13000.00000" pt_clust_7="13000.00000" pt_clust_8="13000.00000" pt_clust_9="35.77387"></scales>
<clustering>
<clus scale="   35.774">  1  9  2 -1</clus>
<clus scale="   89.447">  7  8 -1 -1</clus>
<clus scale="   94.445">  5  6 -1 -1</clus>
<clus scale="   99.778">  2  7  1 -1</clus>
<clus scale="   35.774">  1  5  2 -1</clus>
</clustering>
</event>
<event>
 9    1  0.1399746E-005  0.2104643E+03  0.7546771E-02  0.1165993E+00
         21   -1    0    0  501  502  0.00000000000E+00  0.00000000000E+00  0.36332484982E+03  0.36332484982E+03  0.00000000000E+00 0.  1.
         -4   -1    0    0    0  501 -0.00000000000E+00 -0.00000000000E+00 -0.30524087455E+03  0.30524087455E+03  0.00000000000E+00 0.  1.
         23    2    1    2    0    0 -0.49837692538E+02 -0.28200732022E+02 -0.81740042250E+01  0.11767527015E+03  0.10247720710E+03 0.  0.
         23    2    1    2    0    0  0.22860568158E+03  0.63927822984E+02 -0.12824342422E+03  0.28430985669E+03  0.89657094295E+02 0.  0.
        -13    1    4    4    0    0  0.13655198391E+03 -0.64365738192E+01 -0.55753985233E+02  0.14763597347E+03  0.00000000000E+00 0.  1.
         13    1    4    4    0    0  0.92053697664E+02  0.70364396803E+02 -0.72489438990E+02  0.13667388323E+03  0.00000000000E+00 0. -1.
        -13    1    3    3    0    0 -0.34710369301E+02 -0.64888966487E+02 -0.20013581193E+02  0.76262252399E+02  0.00000000000E+00 0.  1.
         13    1    3    3    0    0 -0.15127323237E+02  0.36688234465E+02  0.11839576968E+02  0.41413017751E+02  0.00000000000E+00 0. -1.
         -4    1    1    2    0  502 -0.17876798904E+03 -0.35727090961E+02  0.19450140372E+03  0.26658059753E+03  0.00000000000E+00 0.  1.
<scales pt_clust_5="13000.00000" pt_clust_6="13000.00000" pt_clust_7="13000.00000" pt_clust_8="13000.00000" pt_clust_9="190.41227"></scales>
<clustering>
<clus scale="   89.657">  5  6 -1 -1</clus>
<clus scale="  102.477">  7  8 -1 -1</clus>
<clus scale="  117.391">  2  7  1 -1</clus>
<clus scale="  190.412">  1  9  2 -1</clus>
<clus scale="  190.412">  1  5  2 -1</clus>
</clustering>
</event>
<event>
 9    1  0.1399746E-005  0.1295052E+03  0.7546771E-02  0.1228501E+00
         -1   -1    0    0    0  501 -0.00000000000E+00  0.00000000000E+00  0.15551128113E+03  0.15551128113E+03  0.00000000000E+00 0.  1.
         21   -1    0    0  501  502  0.00000000000E+00 -0.00000000000E+00 -0.41166622498E+03  0.41166622498E+03  0.00000000000E+00 0. -1.
         23    2    1    2    0    0  0.80233568323E+02  0.42934555048E+02  0.10150093765E+03  0.16445332402E+03  0.91987248755E+02 0.  0.
         23    2    1    2    0    0 -0.70132893437E+02 -0.63434055032E+02 -0.17512412806E+03  0.21876740960E+03  0.90819696078E+02 0.  0.
        -11    1    3    3    0    0  0.48819130226E+01 -0.26394722248E+02  0.17868544639E+02  0.32245919506E+02  0.00000000000E+00 0. -1.
         11    1    3    3    0    0  0.75351655300E+02  0.69329277296E+02  0.83632393008E+02  0.13220740451E+03  0.00000000000E+00 0.  1.
        -13    1    4    4    0    0 -0.18159794105E+02 -0.74208761115E+02 -0.11989655938E+03  0.14216857353E+03  0.00000000000E+00 0.  1.
         13    1    4    4    0    0 -0.51973099332E+02  0.10774706083E+02 -0.55227568674E+02  0.76598836068E+02  0.00000000000E+00 0. -1.
         -1    1    1    2    0  502 -0.10100674886E+02  0.20499499984E+02 -0.18253175344E+03  0.18395677250E+03  0.00000000000E+00 0.  1.
<scales pt_clust_5="13000.00000" pt_clust_6="13000.00000" pt_clust_7="13000.00000" pt_clust_8="13000.00000" pt_clust_9="22.85286"></scales>
<clustering>
<clus scale="   22.853">  2  9  1 -1</clus>
<clus scale="   90.820">  7  8 -1 -1</clus>
<clus scale="   91.987">  5  6 -1 -1</clus>
<clus scale="  128.678">  2  7  1 -1</clus>
<clus scale="   22.853">  2  5  1 -1</clus>
</clustering>
</event>
<event>
 9    1  0.1399746E-005  0.1490356E+03  0.7546771E-02  0.1202028E+00
         21   -1    0    0  501  502  0.00000000000E+00  0.00000000000E+00  0.25835499331E+03  0.25835499331E+03  0.00000000000E+00 0.  1.
          2   -1    0    0  502    0 -0.00000000000E+00 -0.00000000000E+00 -0.21610411013E+03  0.21610411013E+03  0.00000000000E+00 0. -1.
         23    2    1    2    0    0 -0.42404285613E+02 -0.10042641538E+03 -0.11321845899E+03  0.18363935390E+03  0.94981074427E+02 0.  0.
         23    2    1    2    0    0  0.10973579901E+03  0.10106365922E+03  0.92870431512E+02  0.19888193148E+03  0.93130536466E+02 0.  0.
        -11    1    4    4    0    0  0.33427810693E+01  0.31444162967E+02  0.59576339178E+02  0.67448126437E+02  0.00000000000E+00 0.  1.
         11    1    4    4    0    0  0.10639301794E+03  0.69619496249E+02  0.33294092333E+02  0.13143380504E+03  0.00000000000E+00 0. -1.
        -11    1    3    3    0    0 -0.65960228228E+02 -0.99644667854E+02 -0.83843230587E+02  0.14597773411E+03  0.00000000000E+00 0. -1.
         11    1    3    3    0    0  0.23555942615E+02 -0.78174752829E+00 -0.29375228401E+02  0.37661619791E+02  0.00000000000E+00 0.  1.
          2    1    1    2  501    0 -0.67331513395E+02 -0.63724383384E+00  0.62598910658E+02  0.91937818069E+02  0.00000000000E+00 0. -1.
<scales pt_clust_5="13000.00000" pt_clust_6="13000.00000" pt_clust_7="13000.00000" pt_clust_8="13000.00000" pt_clust_9="67.33453"></scales>
<clustering>
<clus scale="   67.335">  1  9  2 -1</clus>
<clus scale="   93.131">  5  6 -1 -1</clus>
<clus scale="   94.981">  7  8 -1 -1</clus>
<clus scale="  147.863">  1  5  2 -1</clus>
<clus scale="   67.335">  1  5  2 -1</clus>
</clustering>
</event>
<event>
 9    1  0.1399746E-005  0.1113923E+03  0.7546771E-02  0.1265683E+00
         21   -1    0    0  501  502  0.00000000000E+00  0.00000000000E+00  0.70429524487E+02  0.70429524487E+02  0.00000000000E+00 0.  1.
         -1   -1    0    0    0  501 -0.00000000000E+00 -0.00000000000E+00 -0.36451234169E+03  0.36451234169E+03  0.00000000000E+00 0.  1.
         23    2    1    2    0    0 -0.32562320660E+02 -0.65747251681E+01 -0.19505484694E+03  0.21806641020E+03  0.91668065355E+02 0.  0.
         23    2    1    2    0    0  0.18863262048E+02 -0.23613694232E+02 -0.12995313325E+03  0.17153926096E+03  0.10781684468E+03 0.  0.
        -11    1    4    4    0    0 -0.30442394211E+02 -0.33107652690E+02 -0.17274698467E+02  0.48179572840E+02  0.00000000000E+00 0.  1.
         11    1    4    4    0    0  0.49305656259E+02  0.94939584582E+01 -0.11267843479E+03  0.12335968812E+03  0.00000000000E+00 0. -1.
        -11    1    3    3    0    0  0.23156383242E+02 -0.21222045263E+02 -0.30760215472E+02  0.43963441015E+02  0.00000000000E+00 0. -1.
         11    1    3    3    0    0 -0.55718703902E+02  0.14647320095E+02 -0.16429463147E+03  0.17410296919E+03  0.00000000000E+00 0.  1.
         -1    1    1    2    0  502  0.13699058613E+02  0.30188419400E+02  0.30925162990E+02  0.45336195018E+02  0.00000000000E+00 0.  1.
<scales pt_clust_5="13000.00000" pt_clust_6="13000.00000" pt_clust_7="13000.00000" pt_clust_8="13000.00000" pt_clust_9="33.15124"></scales>
<clustering>
<clus scale="   33.151">  1  9  2 -1</clus>
<clus scale="   91.668">  7  8 -1 -1</clus>
<clus scale="   95.848">  2  7  1 -1</clus>
<clus scale="  107.817">  5  6 -1 -1</clus>
<clus scale="   33.151">  1  5  2 -1</clus>
</clustering>
</event>
<event>
 9    1  0.1399746E-005  0.9748384E+02  0.7546771E-02  0.1285869E+00
         -3   -1    0    0    0  501 -0.00000000000E+00  0.00000000000E+00  0.46988793740E+03  0.46988793740E+03  0.00000000000E+00 0.  1.
         21   -1    0    0  501  502  0.00000000000E+00 -0.00000000000E+00 -0.85530125543E+02  0.85530125543E+02  0.00000000000E+00 0.  1.
         23    2    1    2    0    0  0.18489249537E+02 -0.30915764916E+01  0.16970258845E+03  0.19302743069E+03  0.90051153680E+02 0.  0.
         23    2    1    2    0    0  0.20853047313E+01  0.68622439661E+02  0.25751298479E+03  0.28143142017E+03  0.90428530908E+02 0.  0.
        -11    1    3    3    0    0 -0.33211428898E+02  0.36868294929E+01  0.34090994726E+02  0.47736648841E+02  0.00000000000E+00 0. -1.
         11    1    3    3    0    0  0.51700678435E+02 -0.67784059845E+01  0.13561159372E+03  0.14529078185E+03  0.00000000000E+00 0.  1.
        -13    1    4    4    0    0  0.44013123065E+02  0.34119487576E+02  0.16518801805E+03  0.17432261971E+03  0.00000000000E+00 0.  1.
         13    1    4    4    0    0 -0.41927818334E+02  0.34502952084E+02  0.92324966739E+02  0.10710880046E+03  0.00000000000E+00 0. -1.
         -3    1    1    2    0  502 -0.20574554268E+02 -0.65530863169E+02 -0.42857761380E+02  0.80959212085E+02  0.00000000000E+00 0.  1.
<scales pt_clust_5="13000.00000" pt_clust_6="13000.00000" pt_clust_7="13000.00000" pt_clust_8="13000.00000" pt_clust_9="68.68483"></scales>
<clustering>
<clus scale="   68.685">  2  9  1 -1</clus>
<clus scale="   90.051">  5  6 -1 -1</clus>
<clus scale="   90.429">  7  8 -1 -1</clus>
<clus scale="   97.134">  1  5  2 -1</clus>
<clus scale="   68.685">  2  5  1 -1</clus>
</clustering>
</event>
<event>
 9    1  0.1399746E-005  0.1458213E+03  0.7546771E-02  0.1206635E+00
         21   -1    0    0  501  502  0.00000000000E+00  0.00000000000E+00  0.75262183574E+03  0.75262183574E+03  0.00000000000E+00 0.  1.
          3   -1    0    0  502    0 -0.00000000000E+00 -0.00000000000E+00 -0.85508699346E+02  0.85508699346E+02  0.00000000000E+00 0. -1.
         23    2    1    2    0    0 -0.10318085005E+03  0.30366775835E+02  0.89556053100E+01  0.13822603157E+03  0.86358578308E+02 0.  0.
         23    2    1    2    0    0  0.15037321001E+03 -0.19327770867E+02  0.40171559865E+03  0.43892281224E+03  0.91061231537E+02 0.  0.
        -11    1    3    3    0    0 -0.19473240989E+02  0.47208528032E+02 -0.64151675485E+01  0.51468501127E+02  0.00000000000E+00 0.  1.
         11    1    3    3    0    0 -0.83707609058E+02 -0.16841752197E+02  0.15370772859E+02  0.86757530448E+02  0.00000000000E+00 0. -1.
        -13    1    4    4    0    0  0.87305398199E+02 -0.41637761491E+02  0.31429683638E+03  0.32884409238E+03  0.00000000000E+00 0.  1.
         13    1    4    4    0    0  0.63067811808E+02  0.22309990624E+02  0.87418762269E+02  0.11007871985E+03  0.00000000000E+00 0. -1.
          3    1    1    2  501    0 -0.47192359961E+02 -0.11039004968E+02  0.25644193244E+03  0.26098169128E+03  0.00000000000E+00 0. -1.
<scales pt_clust_5="13000.00000" pt_clust_6="13000.00000" pt_clust_7="13000.00000" pt_clust_8="13000.00000" pt_clust_9="48.46626"></scales>
<clustering>
<clus scale="   48.466">  1  9  2 -1</clus>
<clus scale="   86.359">  5  6 -1 -1</clus>
<clus scale="   91.061">  7  8 -1 -1</clus>
<clus scale="  142.932">  2  5  1 -1</clus>
<clus scale="   48.466">  1  5  2 -1</clus>
</clustering>
</event>
<event>
 9    1  0.1399746E-005  0.1150343E+03  0.7546771E-02  0.1253623E+00
          2   -1    0    0  502    0 -0.00000000000E+00  0.00000000000E+00  0.47060013230E+03  0.47060013230E+03  0.00000000000E+00 0. -1.
         21   -1    0    0  501  502  0.00000000000E+00 -0.00000000000E+00 -0.90269051584E+02  0.90269051584E+02  0.00000000000E+00 0. -1.
         23    2    1    2    0    0 -0.11559251000E+02  0.69652080759E+02  0.38892771376E+03  0.40564738175E+03  0.91104353090E+02 0.  0.
         23    2    1    2    0    0  0.35723148358E+02 -0.61359732738E+02 -0.37181992466E+02  0.11688409557E+03  0.85077794421E+02 0.  0.
        -11    1    3    3    0    0  0.21913488254E+02 -0.28775902543E+01  0.26433126101E+02  0.34455647557E+02  0.00000000000E+00 0.  1.
         11    1    3    3    0    0 -0.33472739254E+02  0.72529671013E+02  0.36249458766E+03  0.37119173419E+03  0.00000000000E+00 0. -1.
        -11    1    4    4    0    0 -0.24602574109E+02 -0.86169014141E+00 -0.14167005060E+02  0.28403049045E+02  0.00000000000E+00 0.  1.
         11    1    4    4    0    0  0.60325722467E+02 -0.60498042597E+02 -0.23014987406E+02  0.88481046527E+02  0.00000000000E+00 0. -1.
          2    1    1    2  501    0 -0.24163897358E+02 -0.82923480206E+01  0.28585359419E+02  0.38337706560E+02  0.00000000000E+00 0. -1.
<scales pt_clust_5="13000.00000" pt_clust_6="13000.00000" pt_clust_7="13000.00000" pt_clust_8="13000.00000" pt_clust_9="25.54716"></scales>
<clustering>
<clus scale="   25.547">  2  9  1 -1</clus>
<clus scale="   85.078">  7  8 -1 -1</clus>
<clus scale="   91.104">  5  6 -1 -1</clus>
<clus scale="  110.323">  2  7  1 -1</clus>
<clus scale="   25.547">  2  5  1 -1</clus>
</clustering>
</event>
<event>
 9    1  0.1399746E-005  0.1573015E+03  0.7546771E-02  0.1192437E+00
          1   -1    0    0  502    0 -0.00000000000E+00  0.00000000000E+00  0.83389712308E+03  0.83389712308E+03  0.00000000000E+00 0. -1.
         21   -1    0    0  501  502  0.00000000000E+00 -0.00000000000E+00 -0.62554831419E+02  0.62554831419E+02  0.00000000000E+00 0.  1.
         23    2    1    2    0    0 -0.10275758041E+03 -0.65780909225E+02  0.60064551121E+03  0.61958933605E+03  0.90717511297E+02 0.  0.
         23    2    1    2    0    0  0.12444846199E+03  0.61983955724E+02  0.18547971452E+03  0.25034005562E+03  0.94540935543E+02 0.  0.
        -11    1    4    4    0    0  0.55572568440E+02  0.87425139151E+01  0.13913447904E+02  0.57951065090E+02  0.00000000000E+00 0.  1.
         11    1    4    4    0    0  0.68875893546E+02  0.53241441809E+02  0.17156626662E+03  0.19238899053E+03  0.00000000000E+00 0. -1.
        -13    1    3    3    0    0 -0.66838836241E+02  0.93446822115E+01  0.22952031907E+03  0.23923697453E+03  0.00000000000E+00 0.  1.
         13    1    3    3    0    0 -0.35918744170E+02 -0.75125591436E+02  0.37112519214E+03  0.38035236152E+03  0.00000000000E+00 0. -1.
          1    1    1    2  501    0 -0.21690881574E+02  0.37969535009E+01 -0.14782934069E+02  0.26522562829E+02  0.00000000000E+00 0. -1.
<scales pt_clust_5="13000.00000" pt_clust_6="13000.00000" pt_clust_7="13000.00000" pt_clust_8="13000.00000" pt_clust_9="22.02070"></scales>
<clustering>
<clus scale="   22.021">  2  9  1 -1</clus>
<clus scale="   90.718">  7  8 -1 -1</clus>
<clus scale="   94.541">  5  6 -1 -1</clus>
<clus scale="  155.034">  1  7  2 -1</clus>
<clus scale="   22.021">  2  5  1 -1</clus>
</clustering>
</event>
<event>
 9    1  0.1399746E-005  0.2036491E+03  0.7546771E-02  0.1173149E+00
         21   -1    0    0  501  502  0.00000000000E+00  0.00000000000E+00  0.19678618929E+03  0.19678618929E+03  0.00000000000E+00 0. -1.
          3   -1    0    0  502    0 -0.00000000000E+00 -0.00000000000E+00 -0.10098457724E+04  0.10098457724E+04  0.00000000000E+00 0. -1.
         23    2    1    2    0    0 -0.62552212288E+02  0.25915245967E+01 -0.39937437468E+03  0.41424539281E+03  0.90442573252E+02 0.  0.
         23    2    1    2    0    0  0.21940495047E+03 -0.84935480967E+02 -0.52539645634E+03  0.58295230346E+03  0.91866117601E+02 0.  0.
        -11    1    4    4    0    0  0.13792229109E+02 -0.38607201017E+02 -0.10391568711E+03  0.11171039156E+03  0.00000000000E+00 0.  1.
         11    1    4    4    0    0  0.20561272136E+03 -0.46328279950E+02 -0.42148076922E+03  0.47124191190E+03  0.00000000000E+00 0. -1.
        -13    1    3    3    0    0 -0.41982593456E+02  0.45807130829E+02 -0.22603054046E+03  0.23441552126E+03  0.00000000000E+00 0.  1.
         13    1    3    3    0    0 -0.20569618832E+02 -0.43215606232E+02 -0.17334383422E+03  0.17982987155E+03  0.00000000000E+00 0. -1.
          3    1    1    2  501    0 -0.15685273818E+03  0.82343956370E+02  0.11171124789E+03  0.20943426542E+03  0.00000000000E+00 0. -1.
<scales pt_clust_5="13000.00000" pt_clust_6="13000.00000" pt_clust_7="13000.00000" pt_clust_8="13000.00000" pt_clust_9="181.75145"></scales>
<clustering>
<clus scale="   90.443">  7  8 -1 -1</clus>
<clus scale="   91.866">  5  6 -1 -1</clus>
<clus scale="  109.997">  2  7  1 -1</clus>
<clus scale="  181.751">  1  9  2 -1</clus>
<clus scale="  181.751">  1  5  2 -1</clus>
</clustering>
</event>
<event>
 9    1  0.1399746E-005  0.9876043E+02  0.7546771E-02  0.1283271E+00
          4   -1    0    0  502    0 -0.00000000000E+00  0.00000000000E+00  0.27026700047E+02  0.27026700047E+02  0.00000000000E+00 0. -1.
         21   -1    0    0  501  502  0.00000000000E+00 -0.00000000000E+00 -0.59985495765E+03  0.59985495765E+03  0.00000000000E+00 0. -1.
         23    2    1    2    0    0  0.26282670856E+02  0.30982471215E+01 -0.12138107557E+03  0.15492296367E+03  0.92560149326E+02 0.  0.
         23    2    1    2    0    0 -0.40963018788E+02 -0.27928346035E+02 -0.30689324390E+03  0.32455486959E+03  0.93243974636E+02 0.  0.
        -11    1    3    3    0    0  0.20789598143E+02  0.42831312660E+02 -0.96811670838E+02  0.10788525546E+03  0.00000000000E+00 0.  1.
         11    1    3    3    0    0  0.54930727124E+01 -0.39733065538E+02 -0.24569404734E+02  0.47037708213E+02  0.00000000000E+00 0. -1.
        -11    1    4    4    0    0 -0.30466559436E+02  0.24182097158E+02 -0.21418377895E+03  0.21768710626E+03  0.00000000000E+00 0.  1.
         11    1    4    4    0    0 -0.10496459352E+02 -0.52110443193E+02 -0.92709464946E+02  0.10686776333E+03  0.00000000000E+00 0. -1.
          4    1    1    2  501    0  0.14680347932E+02  0.24830098914E+02 -0.14455393813E+03  0.14740382443E+03  0.00000000000E+00 0. -1.
<scales pt_clust_5="13000.00000" pt_clust_6="13000.00000" pt_clust_7="13000.00000" pt_clust_8="13000.00000" pt_clust_9="28.84521"></scales>
<clustering>
<clus scale="   28.845">  2  9  1 -1</clus>
<clus scale="   92.560">  5  6 -1 -1</clus>
<clus scale="   93.244">  7  8 -1 -1</clus>
<clus scale="   98.115">  1  5  2 -1</clus>
<clus scale="   28.845">  2  5  1 -1</clus>
</clustering>
</event>
<event>
 9    1  0.1399746E-005  0.1328779E+03  0.7546771E-02  0.1227673E+00
         21   -1    0    0  501  502  0.00000000000E+00  0.00000000000E+00  0.57360158977E+03  0.57360158977E+03  0.00000000000E+00 0. -1.
          2   -1    0    0  502    0 -0.00000000000E+00 -0.00000000000E+00 -0.16670717742E+03  0.16670717742E+03  0.00000000000E+00 0. -1.
         23    2    1    2    0    0  0.78116178929E+02  0.88551347595E+02 -0.57597786366E+02  0.16544979931E+03  0.10056168518E+03 0.  0.
         23    2    1    2    0    0 -0.40351359193E+02 -0.42019309690E+02 -0.38281887978E+01  0.10271979610E+03  0.84515364907E+02 0.  0.
        -11    1    3    3    0    0  0.59785364622E+02  0.10458090184E+03 -0.22210827661E+02  0.12249398237E+03  0.00000000000E+00 0.  1.
         11    1    3    3    0    0  0.18330814307E+02 -0.16029554244E+02 -0.35386958705E+02  0.42955816938E+02  0.00000000000E+00 0. -1.
        -13    1    4    4    0    0  0.10643571491E+02  0.18813697954E+02  0.67341813019E+01  0.22640451466E+02  0.00000000000E+00 0.  1.
         13    1    4    4    0    0 -0.50994930684E+02 -0.60833007644E+02 -0.10562370100E+02  0.80079344631E+02  0.00000000000E+00 0. -1.
          2    1    1    2  501    0 -0.37764819736E+02 -0.46532037905E+02  0.46832038751E+03  0.47213917177E+03  0.00000000000E+00 0. -1.
<scales pt_clust_5="13000.00000" pt_clust_6="13000.00000" pt_clust_7="13000.00000" pt_clust_8="13000.00000" pt_clust_9="59.92839"></scales>
<clustering>
<clus scale="   59.928">  1  9  2 -1</clus>
<clus scale="   84.515">  7  8 -1 -1</clus>
<clus scale="  100.562">  5  6 -1 -1</clus>
<clus scale="  121.189">  1  7  2 -1</clus>
<clus scale="   59.928">  1  5  2 -1</clus>
</clustering>
</event>
<event>
 9    1  0.1399746E-005  0.1418351E+03  0.7546771E-02  0.1229053E+00
          1   -1    0    0  502    0 -0.00000000000E+00  0.00000000000E+00  0.33077603711E+03  0.33077603711E+03  0.00000000000E+00 0. -1.
         21   -1    0    0  501  502  0.00000000000E+00 -0.00000000000E+00 -0.81573956893E+03  0.81573956893E+03  0.00000000000E+00 0. -1.
         23    2    1    2    0    0 -0.32232458469E+02  0.10756238299E+02 -0.18698151379E+03  0.21057083522E+03  0.90682755272E+02 0.  0.
         23    2    1    2    0    0  0.73687270320E+02 -0.10703604293E+03  0.29374118142E+03  0.33500829584E+03  0.95184811445E+02 0.  0.
        -13    1    4    4    0    0  0.69143080065E+02 -0.42019216243E+02  0.89646079639E+02  0.12075926320E+03  0.00000000000E+00 0.  1.
         13    1    4    4    0    0  0.45441902548E+01 -0.65016826683E+02  0.20409510178E+03  0.21424903264E+03  0.00000000000E+00 0. -1.
        -13    1    3    3    0    0 -0.12335722531E+02  0.46829088920E+02 -0.13972303642E+03  0.14787718055E+03  0.00000000000E+00 0. -1.
         13    1    3    3    0    0 -0.19896735938E+02 -0.36072850621E+02 -0.47258477370E+02  0.62693654673E+02  0.00000000000E+00 0.  1.
          1    1    1    2  501    0 -0.41454811851E+02  0.96279804627E+02 -0.59172319944E+03  0.60093647498E+03  0.00000000000E+00 0. -1.
<scales pt_clust_5="13000.00000" pt_clust_6="13000.00000" pt_clust_7="13000.00000" pt_clust_8="13000.00000" pt_clust_9="105.15250"></scales>
<clustering>
<clus scale="   90.683">  7  8 -1 -1</clus>
<clus scale="   95.185">  5  6 -1 -1</clus>
<clus scale="   96.840">  1  7  2 -1</clus>
<clus scale="  105.153">  2  9  1 -1</clus>
<clus scale="  105.153">  2  5  1 -1</clus>
</clustering>
</event>
<event>
 9    1  0.1399746E-005  0.1282428E+03  0.7546771E-02  0.1244160E+00
          1   -1    0    0  502    0 -0.00000000000E+00  0.00000000000E+00  0.33007330470E+03  0.33007330470E+03  0.00000000000E+00 0. -1.
         21   -1    0    0  501  502  0.00000000000E+00 -0.00000000000E+00 -0.58791067315E+02  0.58791067315E+02  0.00000000000E+00 0. -1.
         23    2    1    2    0    0 -0.20974759099E+02  0.26046270227E+02  0.23270276156E+03  0.26622372262E+03  0.12492456338E+03 0.  0.
         23    2    1    2    0    0  0.23191021947E+02 -0.61460774389E+01  0.39153772817E+02  0.10260919136E+03  0.91760723939E+02 0.  0.
        -11    1    4    4    0    0  0.50709038038E+02 -0.18622197622E+02  0.11160882529E+01  0.54031827991E+02  0.00000000000E+00 0.  1.
         11    1    4    4    0    0 -0.27518016091E+02  0.12476120183E+02  0.38037684564E+02  0.48577363364E+02  0.00000000000E+00 0. -1.
        -13    1    3    3    0    0 -0.25567799202E+02  0.51585679212E+02  0.23326834942E+03  0.24026842801E+03  0.00000000000E+00 0. -1.
         13    1    3    3    0    0  0.45930401025E+01 -0.25539408985E+02 -0.56558786343E+00  0.25955294610E+02  0.00000000000E+00 0.  1.
          1    1    1    2  501    0 -0.22162628483E+01 -0.19900192788E+02 -0.57429699584E+00  0.20031458036E+02  0.00000000000E+00 0. -1.
<scales pt_clust_5="13000.00000" pt_clust_6="13000.00000" pt_clust_7="13000.00000" pt_clust_8="13000.00000" pt_clust_9="20.02322"></scales>
<clustering>
<clus scale="   20.023">  2  9  1 -1</clus>
<clus scale="   91.761">  5  6 -1 -1</clus>
<clus scale="   96.229">  2  5  1 -1</clus>
<clus scale="  124.925">  7  8 -1 -1</clus>
<clus scale="   20.023">  2  5  1 -1</clus>
</clustering>
</event>
<event>
 9    1  0.1399746E-005  0.4011452E+03  0.7546771E-02  0.1043412E+00
         21   -1    0    0  501  502  0.00000000000E+00  0.00000000000E+00  0.35697442571E+03  0.35697442571E+03  0.00000000000E+00 0.  1.
          2   -1    0    0  502    0 -0.00000000000E+00 -0.00000000000E+00 -0.73739735026E+03  0.73739735026E+03  0.00000000000E+00 0. -1.
         23    2    1    2    0    0 -0.23474699154E+03 -0.30767235072E+03 -0.42501829950E+03  0.58186559004E+03  0.90324883266E+02 0.  0.
         23    2    1    2    0    0  0.21456637661E+03  0.33717161924E+03 -0.48377025041E+02  0.41290030646E+03  0.91776335360E+02 0.  0.
        -13    1    4    4    0    0  0.11515700925E+02  0.83151877574E+02  0.11273391487E+01  0.83953064301E+02  0.00000000000E+00 0. -1.
         13    1    4    4    0    0  0.20305067568E+03  0.25401974167E+03 -0.49504364189E+02  0.32894724216E+03  0.00000000000E+00 0.  1.
        -13    1    3    3    0    0 -0.12655264041E+03 -0.12603448853E+03 -0.25088309975E+03  0.30796524615E+03  0.00000000000E+00 0.  1.
         13    1    3    3    0    0 -0.10819435113E+03 -0.18163786219E+03 -0.17413519974E+03  0.27390034389E+03  0.00000000000E+00 0. -1.
          2    1    1    2  501    0  0.20180614928E+02 -0.29499268526E+02  0.92972399994E+02  0.99605879461E+02  0.00000000000E+00 0. -1.
<scales pt_clust_5="13000.00000" pt_clust_6="13000.00000" pt_clust_7="13000.00000" pt_clust_8="13000.00000" pt_clust_9="35.74163"></scales>
<clustering>
<clus scale="   35.742">  1  9  2 -1</clus>
<clus scale="   90.325">  7  8 -1 -1</clus>
<clus scale="   91.776">  5  6 -1 -1</clus>
<clus scale="  400.816">  2  7  1 -1</clus>
<clus scale="   35.742">  1  5  2 -1</clus>
</clustering>
</event>
<event>
 9    1  0.1399746E-005  0.3787670E+03  0.7546771E-02  0.1051402E+00
         21   -1    0    0  501  502  0.00000000000E+00  0.00000000000E+00  0.90481061183E+03  0.90481061183E+03  0.00000000000E+00 0.  1.
         -1   -1    0    0    0  501 -0.00000000000E+00 -0.00000000000E+00 -0.40922302535E+03  0.40922302535E+03  0.00000000000E+00 0.  1.
         23    2    1    2    0    0  0.17219577110E+03 -0.43440838037E+03 -0.10114875702E+03  0.48725537751E+03  0.93939913502E+02 0.  0.
         23    2    1    2    0    0 -0.14454814446E+03  0.21695115475E+03  0.12014173962E+03  0.30218846499E+03  0.94455604150E+02 0.  0.
        -11    1    3    3    0    0  0.55617069834E+02 -0.19692657963E+03 -0.17257694810E+01  0.20463703111E+03  0.00000000000E+00 0.  1.
         11    1    3    3    0    0  0.11657870126E+03 -0.23748180073E+03 -0.99422987541E+02  0.28261834640E+03  0.00000000000E+00 0. -1.
        -11    1    4    4    0    0 -0.39717896708E+02  0.41041789522E+01  0.14658938263E+02  0.42535162804E+02  0.00000000000E+00 0. -1.
         11    1    4    4    0    0 -0.10483024776E+03  0.21284697580E+03  0.10548280136E+03  0.25965330218E+03  0.00000000000E+00 0.  1.
         -1    1    1    2    0  502 -0.27647626634E+02  0.21745722561E+03  0.47659460388E+03  0.52458979468E+03  0.00000000000E+00 0.  1.
<scales pt_clust_5="13000.00000" pt_clust_6="13000.00000" pt_clust_7="13000.00000" pt_clust_8="13000.00000" pt_clust_9="219.20775"></scales>
<clustering>
<clus scale="   93.940">  5  6 -1 -1</clus>
<clus scale="   94.456">  7  8 -1 -1</clus>
<clus scale="  219.208">  1  9  2 -1</clus>
<clus scale="  378.639">  2  5  1 -1</clus>
<clus scale="  219.208">  1  5  2 -1</clus>
</clustering>
</event>
<event>
 9    1  0.1399746E-005  0.2009380E+03  0.7546771E-02  0.1179034E+00
          1   -1    0    0  502    0 -0.00000000000E+00  0.00000000000E+00  0.10502780584E+04  0.10502780584E+04  0.00000000000E+00 0. -1.
         21   -1    0    0  501  502  0.00000000000E+00 -0.00000000000E+00 -0.61701717471E+02  0.61701717471E+02  0.00000000000E+00 0.  1.
         23    2    1    2    0    0  0.20544857852E+02 -0.30387070615E+02  0.94807416729E+02  0.13796496282E+03  0.93276039022E+02 0.  0.
         23    2    1    2    0    0 -0.12551677562E+03  0.16016501137E+03  0.51405479272E+03  0.55923265447E+03  0.84151886948E+02 0.  0.
        -13    1    4    4    0    0 -0.70348562202E+02  0.42955588131E+02  0.27807028376E+03  0.29002962860E+03  0.00000000000E+00 0. -1.
         13    1    4    4    0    0 -0.55168213422E+02  0.11720942324E+03  0.23598450896E+03  0.26920302587E+03  0.00000000000E+00 0.  1.
        -13    1    3    3    0    0  0.30423889752E+02  0.24229544218E+02  0.17136399355E+02  0.42501059558E+02  0.00000000000E+00 0.  1.
         13    1    3    3    0    0 -0.98790319004E+01 -0.54616614833E+02  0.77671017373E+02  0.95463903266E+02  0.00000000000E+00 0. -1.
          1    1    1    2  501    0  0.10497191777E+03 -0.12977794076E+03  0.37971413150E+03  0.41478215859E+03  0.00000000000E+00 0. -1.
<scales pt_clust_5="13000.00000" pt_clust_6="13000.00000" pt_clust_7="13000.00000" pt_clust_8="13000.00000" pt_clust_9="182.46790"></scales>
<clustering>
<clus scale="   84.152">  5  6 -1 -1</clus>
<clus scale="   93.276">  7  8 -1 -1</clus>
<clus scale="  100.229">  1  7  2 -1</clus>
<clus scale="  182.468">  2  9  1 -1</clus>
<clus scale="  182.468">  2  5  1 -1</clus>
</clustering>
</event>
<event>
 9    1  0.1399746E-005  0.9004464E+02  0.7546771E-02  0.1302958E+00
         21   -1    0    0  501  502  0.00000000000E+00  0.00000000000E+00  0.46687725124E+02  0.46687725124E+02  0.00000000000E+00 0.  1.
          2   -1    0    0  502    0 -0.00000000000E+00 -0.00000000000E+00 -0.27477506033E+03  0.27477506033E+03  0.00000000000E+00 0. -1.
         23    2    1    2    0    0  0.13126414166E+02  0.13995035531E+02 -0.10120658302E+03  0.13660802315E+03  0.89726338233E+02 0.  0.
         23    2    1    2    0    0  0.23132296607E+02  0.26631025059E+01 -0.10304721411E+03  0.13837653937E+03  0.89370817678E+02 0.  0.
        -11    1    4    4    0    0  0.50650994744E+02 -0.62533560151E+01 -0.95814352273E+02  0.10855882199E+03  0.00000000000E+00 0.  1.
         11    1    4    4    0    0 -0.27518698137E+02  0.89164585210E+01 -0.72328618324E+01  0.29817717384E+02  0.00000000000E+00 0. -1.
        -13    1    3    3    0    0  0.18478574463E+02  0.45451874174E+02 -0.27394796639E+02  0.56194354369E+02  0.00000000000E+00 0.  1.
         13    1    3    3    0    0 -0.53521602976E+01 -0.31456838643E+02 -0.73811786383E+02  0.80413668778E+02  0.00000000000E+00 0. -1.
          2    1    1    2  501    0 -0.36258710773E+02 -0.16658138037E+02 -0.23833538076E+02  0.46478222933E+02  0.00000000000E+00 0. -1.
<scales pt_clust_5="13000.00000" pt_clust_6="13000.00000" pt_clust_7="13000.00000" pt_clust_8="13000.00000" pt_clust_9="39.90223"></scales>
<clustering>
<clus scale="   39.902">  1  9  2 -1</clus>
<clus scale="   89.371">  5  6 -1 -1</clus>
<clus scale="   89.690">  1  5  2 -1</clus>
<clus scale="   89.726">  7  8 -1 -1</clus>
<clus scale="   39.902">  1  5  2 -1</clus>
</clustering>
</event>
<event>
 9    1  0.1399746E-005  0.1021597E+03  0.7546771E-02  0.1277043E+00
          2   -1    0    0  502    0 -0.00000000000E+00  0.00000000000E+00  0.83456169783E+02  0.83456169783E+02  0.00000000000E+00 0. -1.
         21   -1    0    0  501  502  0.00000000000E+00 -0.00000000000E+00 -0.20728566105E+03  0.20728566105E+03  0.00000000000E+00 0. -1.
         23    2    1    2    0    0  0.27046161209E+02  0.32457498648E+02  0.87141072124E+01  0.10158480139E+03  0.91970387377E+02 0.  0.
         23    2    1    2    0    0 -0.47879287327E+02 -0.25854067494E+02 -0.13043961349E+03  0.16720136503E+03  0.89336133449E+02 0.  0.
        -13    1    4    4    0    0  0.55734884008E+01 -0.28549909226E+02 -0.33241468579E+01  0.29278166645E+02  0.00000000000E+00 0.  1.
         13    1    4    4    0    0 -0.53452775728E+02  0.26958417320E+01 -0.12711546663E+03  0.13792319838E+03  0.00000000000E+00 0. -1.
        -13    1    3    3    0    0  0.13871465659E+02 -0.28850607038E+02 -0.13933080537E+02  0.34912831728E+02  0.00000000000E+00 0.  1.
         13    1    3    3    0    0  0.13174695550E+02  0.61308105686E+02  0.22647187750E+02  0.66671969662E+02  0.00000000000E+00 0. -1.
          2    1    1    2  501    0  0.20833126118E+02 -0.66034311538E+01 -0.21039849857E+01  0.21955664409E+02  0.00000000000E+00 0. -1.
<scales pt_clust_5="13000.00000" pt_clust_6="13000.00000" pt_clust_7="13000.00000" pt_clust_8="13000.00000" pt_clust_9="21.85463"></scales>
<clustering>
<clus scale="   21.855">  2  9  1 -1</clus>
<clus scale="   89.336">  5  6 -1 -1</clus>
<clus scale="   91.970">  7  8 -1 -1</clus>
<clus scale="   99.795">  2  5  1 -1</clus>
<clus scale="   21.855">  2  5  1 -1</clus>
</clustering>
</event>
<event>
 9    1  0.1399746E-005  0.1058734E+03  0.7546771E-02  0.1269289E+00
          2   -1    0    0  502    0 -0.00000000000E+00  0.00000000000E+00  0.15222835921E+03  0.15222835921E+03  0.00000000000E+00 0. -1.
         21   -1    0    0  501  502  0.00000000000E+00 -0.00000000000E+00 -0.10406789544E+03  0.10406789544E+03  0.00000000000E+00 0.  1.
         23    2    1    2    0    0 -0.37563727700E+02  0.11393753583E+02  0.30309587581E+02  0.10303047533E+03  0.90309227033E+02 0.  0.
         23    2    1    2    0    0  0.71183066774E+02 -0.77547828578E+01  0.46460342914E+01  0.11696330120E+03  0.92366999201E+02 0.  0.
        -13    1    4    4    0    0 -0.21285303072E+01 -0.31712189778E+02  0.21035764726E+02  0.38114262677E+02  0.00000000000E+00 0.  1.
         13    1    4    4    0    0  0.73311597081E+02  0.23957406920E+02 -0.16389730435E+02  0.78849038527E+02  0.00000000000E+00 0. -1.
        -13    1    3    3    0    0 -0.84050393227E+01 -0.37246058528E+02 -0.11084944475E+01  0.38198721468E+02  0.00000000000E+00 0.  1.
         13    1    3    3    0    0 -0.29158688377E+02  0.48639812110E+02  0.31418082029E+02  0.64831753859E+02  0.00000000000E+00 0. -1.
          2    1    1    2  501    0 -0.33619339074E+02 -0.36389707247E+01  0.13204841893E+02  0.36302478113E+02  0.00000000000E+00 0. -1.
<scales pt_clust_5="13000.00000" pt_clust_6="13000.00000" pt_clust_7="13000.00000" pt_clust_8="13000.00000" pt_clust_9="33.81572"></scales>
<clustering>
<clus scale="   33.816">  2  9  1 -1</clus>
<clus scale="   90.309">  7  8 -1 -1</clus>
<clus scale="   92.367">  5  6 -1 -1</clus>
<clus scale="  104.083">  1  7  2 -1</clus>
<clus scale="   33.816">  2  5  1 -1</clus>
</clustering>
</event>
<event>
 9    1  0.1399746E-005  0.1092239E+03  0.7546771E-02  0.1264805E+00
         21   -1    0    0  501  502  0.00000000000E+00  0.00000000000E+00  0.74740332479E+02  0.74740332479E+02  0.00000000000E+00 0.  1.
         -1   -1    0    0    0  501 -0.00000000000E+00 -0.00000000000E+00 -0.26487119586E+03  0.26487119586E+03  0.00000000000E+00 0.  1.
         23    2    1    2    0    0 -0.20513766605E+02 -0.27412799009E+02 -0.10184278235E+03  0.14038520463E+03  0.90353623018E+02 0.  0.
         23    2    1    2    0    0  0.47947964466E+02  0.57451767595E+02 -0.98641297904E+02  0.15724818719E+03  0.96939021173E+02 0.  0.
        -11    1    3    3    0    0  0.37407868869E+01  0.24933120299E+02 -0.70189131270E+02  0.74579944508E+02  0.00000000000E+00 0.  1.
         11    1    3    3    0    0 -0.24254553492E+02 -0.52345919308E+02 -0.31653651085E+02  0.65805260126E+02  0.00000000000E+00 0. -1.
        -11    1    4    4    0    0  0.11844286120E+02 -0.17249709070E+02 -0.64007798697E+02  0.67341204850E+02  0.00000000000E+00 0. -1.
         11    1    4    4    0    0  0.36103678346E+02  0.74701476664E+02 -0.34633499208E+02  0.89906982339E+02  0.00000000000E+00 0.  1.
         -1    1    1    2    0  502 -0.27434197861E+02 -0.30038968585E+02  0.10353216875E+02  0.41978136519E+02  0.00000000000E+00 0.  1.
<scales pt_clust_5="13000.00000" pt_clust_6="13000.00000" pt_clust_7="13000.00000" pt_clust_8="13000.00000" pt_clust_9="40.68138"></scales>
<clustering>
<clus scale="   40.681">  1  9  2 -1</clus>
<clus scale="   90.354">  5  6 -1 -1</clus>
<clus scale="   96.939">  7  8 -1 -1</clus>
<clus scale="  103.424">  2  5  1 -1</clus>
<clus scale="   40.681">  1  5  2 -1</clus>
</clustering>
</event>
<event>
 9    1  0.1399746E-005  0.1385696E+03  0.7546771E-02  0.1215973E+00
         21   -1    0    0  501  502  0.00000000000E+00  0.00000000000E+00  0.43175961067E+03  0.43175961067E+03  0.00000000000E+00 0.  1.
          1   -1    0    0  502    0 -0.00000000000E+00 -0.00000000000E+00 -0.11604340450E+03  0.11604340450E+03  0.00000000000E+00 0. -1.
         23    2    1    2    0    0 -0.24417178824E+02  0.77736328426E+02  0.38356092834E+01  0.12287910956E+03  0.91899011353E+02 0.  0.
         23    2    1    2    0    0  0.33711224266E+02 -0.16731845723E+03  0.18262216518E+03  0.26738318311E+03  0.94926279937E+02 0.  0.
        -11    1    4    4    0    0 -0.41050431648E+00 -0.44439443925E+02 -0.24179491683E+00  0.44441997647E+02  0.00000000000E+00 0. -1.
         11    1    4    4    0    0  0.34121728582E+02 -0.12287901331E+03  0.18286396010E+03  0.22294118547E+03  0.00000000000E+00 0.  1.
        -11    1    3    3    0    0 -0.47501835857E+02  0.23010964485E+02 -0.23156936613E+02  0.57638291176E+02  0.00000000000E+00 0.  1.
         11    1    3    3    0    0  0.23084657033E+02  0.54725363941E+02  0.26992545897E+02  0.65240818379E+02  0.00000000000E+00 0. -1.
          1    1    1    2  501    0 -0.92940454419E+01  0.89582128809E+02  0.12925843170E+03  0.15754072251E+03  0.00000000000E+00 0. -1.
<scales pt_clust_5="13000.00000" pt_clust_6="13000.00000" pt_clust_7="13000.00000" pt_clust_8="13000.00000" pt_clust_9="90.06296"></scales>
<clustering>
<clus scale="   90.063">  1  9  2 -1</clus>
<clus scale="   91.899">  7  8 -1 -1</clus>
<clus scale="   94.926">  5  6 -1 -1</clus>
<clus scale="  136.514">  2  7  1 -1</clus>
<clus scale="   90.063">  1  5  2 -1</clus>
</clustering>
</event>
<event>
 9    1  0.1399746E-005  0.9300850E+02  0.7546771E-02  0.1296666E+00
         21   -1    0    0  501  502  0.00000000000E+00  0.00000000000E+00  0.29709341630E+03  0.29709341630E+03  0.00000000000E+00 0. -1.
          1   -1    0    0  502    0 -0.00000000000E+00 -0.00000000000E+00 -0.22128821511E+03  0.22128821511E+03  0.00000000000E+00 0. -1.
         23    2    1    2    0    0  0.43435448254E+01  0.21828500762E+02 -0.19028888527E+03  0.21108771201E+03  0.88616096038E+02 0.  0.
         23    2    1    2    0    0 -0.36873172874E+02 -0.15303467522E+02  0.11034859322E+03  0.14805381318E+03  0.90273432281E+02 0.  0.
        -13    1    3    3    0    0 -0.41054650708E+02  0.16585343626E+02 -0.11202503462E+03  0.12045815186E+03  0.00000000000E+00 0.  1.
         13    1    3    3    0    0  0.45398195533E+02  0.52431571364E+01 -0.78263850658E+02  0.90629560157E+02  0.00000000000E+00 0. -1.
        -13    1    4    4    0    0 -0.43331014454E+02  0.18896102118E+02  0.10176273899E+03  0.11220648170E+03  0.00000000000E+00 0. -1.
         13    1    4    4    0    0  0.64578415794E+01 -0.34199569641E+02  0.85858542302E+01  0.35847331481E+02  0.00000000000E+00 0.  1.
          1    1    1    2  501    0  0.32529628049E+02 -0.65250332401E+01  0.15574549325E+03  0.15924010621E+03  0.00000000000E+00 0. -1.
<scales pt_clust_5="13000.00000" pt_clust_6="13000.00000" pt_clust_7="13000.00000" pt_clust_8="13000.00000" pt_clust_9="33.17759"></scales>
<clustering>
<clus scale="   33.178">  1  9  2 -1</clus>
<clus scale="   88.616">  5  6 -1 -1</clus>
<clus scale="   90.273">  7  8 -1 -1</clus>
<clus scale="   91.401">  2  5  1 -1</clus>
<clus scale="   33.178">  1  5  2 -1</clus>
</clustering>
</event>
<event>
 9    1  0.1399746E-005  0.9738409E+02  0.7546771E-02  0.1287904E+00
         21   -1    0    0  501  502  0.00000000000E+00  0.00000000000E+00  0.75547296796E+02  0.75547296796E+02  0.00000000000E+00 0.  1.
          4   -1    0    0  502    0 -0.00000000000E+00 -0.00000000000E+00 -0.28440047899E+03  0.28440047899E+03  0.00000000000E+00 0. -1.
         23    2    1    2    0    0  0.32956936490E+02  0.13038678778E+02 -0.14048144662E+03  0.16913821815E+03  0.87272751684E+02 0.  0.
         23    2    1    2    0    0 -0.16027550905E+02 -0.35667182266E+02 -0.10507362597E+03  0.14448805048E+03  0.91144388632E+02 0.  0.
        -13    1    4    4    0    0 -0.41926060024E+02 -0.49936890772E+02 -0.90444786715E+02  0.11149774443E+03  0.00000000000E+00 0. -1.
         13    1    4    4    0    0  0.25898509119E+02  0.14269708506E+02 -0.14628839251E+02  0.32990306050E+02  0.00000000000E+00 0.  1.
        -13    1    3    3    0    0  0.21053232179E+02  0.50550358657E+02 -0.78266227062E+02  0.95520571837E+02  0.00000000000E+00 0.  1.
         13    1    3    3    0    0  0.11903704311E+02 -0.37511679879E+02 -0.62215219560E+02  0.73617646312E+02  0.00000000000E+00 0. -1.
          4    1    1    2  501    0 -0.16929385585E+02  0.22628503487E+02  0.36701890397E+02  0.46321507155E+02  0.00000000000E+00 0. -1.
<scales pt_clust_5="13000.00000" pt_clust_6="13000.00000" pt_clust_7="13000.00000" pt_clust_8="13000.00000" pt_clust_9="28.26045"></scales>
<clustering>
<clus scale="   28.260">  1  9  2 -1</clus>
<clus scale="   87.273">  7  8 -1 -1</clus>
<clus scale="   91.144">  5  6 -1 -1</clus>
<clus scale="   93.770">  2  7  1 -1</clus>
<clus scale="   28.260">  1  5  2 -1</clus>
</clustering>
</event>
<event>
 9    1  0.1399746E-005  0.1006490E+03  0.7546771E-02  0.1280632E+00
         21   -1    0    0  501  502  0.00000000000E+00  0.00000000000E+00  0.13170172858E+03  0.13170172858E+03  0.00000000000E+00 0. -1.
         -2   -1    0    0    0  501 -0.00000000000E+00 -0.00000000000E+00 -0.17886149478E+03  0.17886149478E+03  0.00000000000E+00 0.  1.
         23    2    1    2    0    0  0.98721497606E+00 -0.20677407065E+02 -0.69285267489E+02  0.11701404405E+03  0.91996241545E+02 0.  0.
         23    2    1    2    0    0  0.58966327038E+02  0.53115614027E+02  0.16133012152E+02  0.12511984059E+03  0.95375071433E+02 0.  0.
        -11    1    4    4    0    0  0.14651072110E+01  0.25148452513E+02 -0.35086421077E+02  0.43193149306E+02  0.00000000000E+00 0.  1.
         11    1    4    4    0    0  0.57501219827E+02  0.27967161514E+02  0.51219433229E+02  0.81926691286E+02  0.00000000000E+00 0. -1.
        -13    1    3    3    0    0 -0.43758510355E+02 -0.17151997249E+02 -0.48545403808E+02  0.67569626823E+02  0.00000000000E+00 0.  1.
         13    1    3    3    0    0  0.44745725331E+02 -0.35254098158E+01 -0.20739863681E+02  0.49444417231E+02  0.00000000000E+00 0. -1.
         -2    1    1    2    0  502 -0.59953542014E+02 -0.32438206961E+02  0.59924891343E+01  0.68429338715E+02  0.00000000000E+00 0.  1.
<scales pt_clust_5="13000.00000" pt_clust_6="13000.00000" pt_clust_7="13000.00000" pt_clust_8="13000.00000" pt_clust_9="68.16645"></scales>
<clustering>
<clus scale="   68.166">  1  9  2 -1</clus>
<clus scale="   91.996">  7  8 -1 -1</clus>
<clus scale="   95.375">  5  6 -1 -1</clus>
<clus scale="   97.453">  2  7  1 -1</clus>
<clus scale="   68.166">  1  5  2 -1</clus>
</clustering>
</event>
<event>
 9    1  0.1399746E-005  0.1080837E+03  0.7546771E-02  0.1264580E+00
         21   -1    0    0  501  502  0.00000000000E+00  0.00000000000E+00  0.37016372248E+03  0.37016372248E+03  0.00000000000E+00 0.  1.
          2   -1    0    0  502    0 -0.00000000000E+00 -0.00000000000E+00 -0.76105269342E+02  0.76105269342E+02  0.00000000000E+00 0.  1.
         23    2    1    2    0    0 -0.18138003607E+02  0.34841797822E+02  0.25842059087E+02  0.10837064851E+03  0.97639374179E+02 0.  0.
         23    2    1    2    0    0 -0.38505770387E+02 -0.70712121894E+02  0.11413635779E+03  0.16986306471E+03  0.96661543787E+02 0.  0.
        -13    1    3    3    0    0  0.24629531518E+02  0.52283451780E+02  0.22646586994E+02  0.62072868915E+02  0.00000000000E+00 0. -1.
         13    1    3    3    0    0 -0.42767535125E+02 -0.17441653958E+02  0.31954720933E+01  0.46297779594E+02  0.00000000000E+00 0.  1.
        -13    1    4    4    0    0  0.31420580736E+02 -0.24535131626E+02  0.22860349635E+02  0.45954555412E+02  0.00000000000E+00 0. -1.
         13    1    4    4    0    0 -0.69926351123E+02 -0.46176990268E+02  0.91276008157E+02  0.12390850930E+03  0.00000000000E+00 0.  1.
          2    1    1    2  501    0  0.56643773994E+02  0.35870324072E+02  0.15408003626E+03  0.16803527860E+03  0.00000000000E+00 0.  1.
<scales pt_clust_5="13000.00000" pt_clust_6="13000.00000" pt_clust_7="13000.00000" pt_clust_8="13000.00000" pt_clust_9="67.04623"></scales>
<clustering>
<clus scale="   67.046">  1  9  2 -1</clus>
<clus scale="   96.662">  7  8 -1 -1</clus>
<clus scale="   97.639">  5  6 -1 -1</clus>
<clus scale="  107.201">  1  7  2 -1</clus>
<clus scale="   67.046">  1  5  2 -1</clus>
</clustering>
</event>
<event>
 9    1  0.1399746E-005  0.9524116E+02  0.7546771E-02  0.1291083E+00
         21   -1    0    0  501  502  0.00000000000E+00  0.00000000000E+00  0.78116855595E+02  0.78116855595E+02  0.00000000000E+00 0. -1.
         -2   -1    0    0    0  501 -0.00000000000E+00 -0.00000000000E+00 -0.20364519207E+03  0.20364519207E+03  0.00000000000E+00 0.  1.
         23    2    1    2    0    0  0.20111703059E+02 -0.10787712615E+02 -0.12452750593E+03  0.15603221763E+03  0.91203606621E+02 0.  0.
         23    2    1    2    0    0 -0.43555559634E+02  0.87930917771E+01  0.68226750408E+01  0.10093466593E+03  0.90370640443E+02 0.  0.
        -13    1    4    4    0    0  0.11380715962E+02 -0.20921633333E+02 -0.21748163388E+02  0.32252411505E+02  0.00000000000E+00 0.  1.
         13    1    4    4    0    0 -0.54936275595E+02  0.29714725110E+02  0.28570838429E+02  0.68682254427E+02  0.00000000000E+00 0. -1.
        -13    1    3    3    0    0  0.21745408542E+02  0.36764452803E+02 -0.80872225012E+02  0.91459305492E+02  0.00000000000E+00 0.  1.
         13    1    3    3    0    0 -0.16337054833E+01 -0.47552165417E+02 -0.43655280917E+02  0.64572912134E+02  0.00000000000E+00 0. -1.
         -2    1    1    2    0  502  0.23443856575E+02  0.19946208376E+01 -0.78235055832E+01  0.24795164105E+02  0.00000000000E+00 0.  1.
<scales pt_clust_5="13000.00000" pt_clust_6="13000.00000" pt_clust_7="13000.00000" pt_clust_8="13000.00000" pt_clust_9="23.52856"></scales>
<clustering>
<clus scale="   23.529">  1  9  2 -1</clus>
<clus scale="   90.371">  5  6 -1 -1</clus>
<clus scale="   91.204">  7  8 -1 -1</clus>
<clus scale="   94.444">  1  5  2 -1</clus>
<clus scale="   23.529">  1  5  2 -1</clus>
</clustering>
</event>
<event>
 9    1  0.1399746E-005  0.1347477E+03  0.7546771E-02  0.1221532E+00
         21   -1    0    0  501  502  0.00000000000E+00  0.00000000000E+00  0.71245666872E+02  0.71245666872E+02  0.00000000000E+00 0. -1.
         -3   -1    0    0    0  501 -0.00000000000E+00 -0.00000000000E+00 -0.33915862866E+03  0.33915862866E+03  0.00000000000E+00 0.  1.
         23    2    1    2    0    0 -0.84557903883E+02 -0.40091352746E+02 -0.17759888044E+03  0.22105074512E+03  0.92545739573E+02 0.  0.
         23    2    1    2    0    0  0.86530661196E+02  0.61707132915E+02 -0.94075164624E+02  0.16732449071E+03  0.88611641523E+02 0.  0.
        -13    1    4    4    0    0  0.37442873947E+02  0.77615638078E+02 -0.51219390359E+02  0.10024760362E+03  0.00000000000E+00 0.  1.
         13    1    4    4    0    0  0.49087787250E+02 -0.15908505163E+02 -0.42855774265E+02  0.67076887088E+02  0.00000000000E+00 0. -1.
        -13    1    3    3    0    0 -0.48304197652E+02 -0.62637153483E+02 -0.15179009879E+03  0.17116349669E+03  0.00000000000E+00 0.  1.
         13    1    3    3    0    0 -0.36253706231E+02  0.22545800737E+02 -0.25808781644E+02  0.49887248434E+02  0.00000000000E+00 0. -1.
         -3    1    1    2    0  502 -0.19727573130E+01 -0.21615780170E+02  0.37610832726E+01  0.22029059697E+02  0.00000000000E+00 0.  1.
<scales pt_clust_5="13000.00000" pt_clust_6="13000.00000" pt_clust_7="13000.00000" pt_clust_8="13000.00000" pt_clust_9="21.70562"></scales>
<clustering>
<clus scale="   21.706">  1  9  2 -1</clus>
<clus scale="   88.612">  5  6 -1 -1</clus>
<clus scale="   92.546">  7  8 -1 -1</clus>
<clus scale="  132.077">  1  5  2 -1</clus>
<clus scale="   21.706">  1  5  2 -1</clus>
</clustering>
</event>
<event>
 9    1  0.1399746E-005  0.9772017E+02  0.7546771E-02  0.1285773E+00
         21   -1    0    0  501  502  0.00000000000E+00  0.00000000000E+00  0.71571115993E+02  0.71571115993E+02  0.00000000000E+00 0. -1.
          1   -1    0    0  502    0 -0.00000000000E+00 -0.00000000000E+00 -0.22681740060E+03  0.22681740060E+03  0.00000000000E+00 0. -1.
         23    2    1    2    0    0  0.42503887006E+02  0.10255549668E+02 -0.82400186762E+02  0.13086096287E+03  0.91777143753E+02 0.  0.
         23    2    1    2    0    0 -0.23395369843E+01 -0.39188910206E+02 -0.62824640121E+02  0.11702266307E+03  0.90587660033E+02 0.  0.
        -11    1    3    3    0    0 -0.26036876738E+02  0.18999059422E+02 -0.31235063683E+02  0.44883319980E+02  0.00000000000E+00 0.  1.
         11    1    3    3    0    0  0.68540763744E+02 -0.87435097538E+01 -0.51165123079E+02  0.85977642891E+02  0.00000000000E+00 0. -1.
        -13    1    4    4    0    0  0.22863350305E+02 -0.10243949679E+02 -0.73114324661E+02  0.77287617138E+02  0.00000000000E+00 0. -1.
         13    1    4    4    0    0 -0.25202887290E+02 -0.28944960527E+02  0.10289684540E+02  0.39735045936E+02  0.00000000000E+00 0.  1.
          1    1    1    2  501    0 -0.40164350022E+02  0.28933360537E+02 -0.10021457727E+02  0.50504890651E+02  0.00000000000E+00 0. -1.
<scales pt_clust_5="13000.00000" pt_clust_6="13000.00000" pt_clust_7="13000.00000" pt_clust_8="13000.00000" pt_clust_9="49.50065"></scales>
<clustering>
<clus scale="   49.501">  1  9  2 -1</clus>
<clus scale="   90.588">  7  8 -1 -1</clus>
<clus scale="   91.777">  5  6 -1 -1</clus>
<clus scale="   96.604">  1  7  2 -1</clus>
<clus scale="   49.501">  1  5  2 -1</clus>
</clustering>
</event>
<event>
 9    1  0.1399746E-005  0.9660762E+02  0.7546771E-02  0.1288743E+00
         21   -1    0    0  501  502  0.00000000000E+00  0.00000000000E+00  0.31812772715E+02  0.31812772715E+02  0.00000000000E+00 0. -1.
         -1   -1    0    0    0  501 -0.00000000000E+00 -0.00000000000E+00 -0.53895866574E+03  0.53895866574E+03  0.00000000000E+00 0.  1.
         23    2    1    2    0    0 -0.34803651571E+02  0.36582033098E+01 -0.36130582130E+03  0.37460946620E+03  0.92550953820E+02 0.  0.
         23    2    1    2    0    0  0.53033476531E+01  0.14279409493E+02 -0.79361898116E+02  0.12125287099E+03  0.90398677091E+02 0.  0.
        -13    1    4    4    0    0 -0.11693678392E+02 -0.26270123976E+02 -0.70857885330E+02  0.76470265081E+02  0.00000000000E+00 0.  1.
         13    1    4    4    0    0  0.16997026045E+02  0.40549533469E+02 -0.85040127861E+01  0.44782605913E+02  0.00000000000E+00 0. -1.
        -13    1    3    3    0    0  0.27048758822E+02  0.13581989691E+02 -0.64276798926E+02  0.71046552893E+02  0.00000000000E+00 0. -1.
         13    1    3    3    0    0 -0.61852410393E+02 -0.99237863815E+01 -0.29702902237E+03  0.30356291331E+03  0.00000000000E+00 0.  1.
         -1    1    1    2    0  502  0.29500303918E+02 -0.17937612803E+02 -0.66478173611E+02  0.74909101256E+02  0.00000000000E+00 0.  1.
<scales pt_clust_5="13000.00000" pt_clust_6="13000.00000" pt_clust_7="13000.00000" pt_clust_8="13000.00000" pt_clust_9="34.52573"></scales>
<clustering>
<clus scale="   34.526">  1  9  2 -1</clus>
<clus scale="   90.399">  5  6 -1 -1</clus>
<clus scale="   92.551">  7  8 -1 -1</clus>
<clus scale="   94.548">  1  5  2 -1</clus>
<clus scale="   34.526">  1  5  2 -1</clus>
</clustering>
</event>
<event>
 9    1  0.1399746E-005  0.1392267E+03  0.7546771E-02  0.1229740E+00
         -2   -1    0    0    0  501 -0.00000000000E+00  0.00000000000E+00  0.29742590100E+03  0.29742590100E+03  0.00000000000E+00 0.  1.
         21   -1    0    0  501  502  0.00000000000E+00 -0.00000000000E+00 -0.11258343834E+03  0.11258343834E+03  0.00000000000E+00 0.  1.
         23    2    1    2    0    0 -0.12346456656E+02 -0.38927801960E+02  0.10037284567E+03  0.14235230226E+03  0.92312843384E+02 0.  0.
         23    2    1    2    0    0  0.27217615248E+02 -0.77925128843E+02  0.86239069627E+02  0.14984833724E+03  0.90577164659E+02 0.  0.
        -11    1    4    4    0    0  0.51950061179E+02 -0.13979098406E+02  0.42017669205E+02  0.68262058087E+02  0.00000000000E+00 0. -1.
         11    1    4    4    0    0 -0.24732445932E+02 -0.63946030436E+02  0.44221400422E+02  0.81586279150E+02  0.00000000000E+00 0.  1.
        -13    1    3    3    0    0  0.20079568525E+02 -0.48245791958E+02  0.94670106589E+02  0.10813544560E+03  0.00000000000E+00 0.  1.
         13    1    3    3    0    0 -0.32426025181E+02  0.93179899981E+01  0.57027390819E+01  0.34216856660E+02  0.00000000000E+00 0. -1.
         -2    1    1    2    0  502 -0.14871158592E+02  0.11685293080E+03 -0.17694526327E+01  0.11780869984E+03  0.00000000000E+00 0.  1.
<scales pt_clust_5="13000.00000" pt_clust_6="13000.00000" pt_clust_7="13000.00000" pt_clust_8="13000.00000" pt_clust_9="105.73485"></scales>
<clustering>
<clus scale="   90.577">  5  6 -1 -1</clus>
<clus scale="   92.313">  7  8 -1 -1</clus>
<clus scale="  100.943">  1  7  2 -1</clus>
<clus scale="  105.735">  2  9  1 -1</clus>
<clus scale="  105.735">  2  5  1 -1</clus>
</clustering>
</event>
<event>
 9    1  0.1399746E-005  0.1654075E+03  0.7546771E-02  0.1187838E+00
          1   -1    0    0  502    0 -0.00000000000E+00  0.00000000000E+00  0.81145072585E+03  0.81145072585E+03  0.00000000000E+00 0. -1.
         21   -1    0    0  501  502  0.00000000000E+00 -0.00000000000E+00 -0.47387612489E+02  0.47387612489E+02  0.00000000000E+00 0.  1.
         23    2    1    2    0    0  0.20083437193E+02  0.10483733115E+03  0.42487313807E+03  0.45352407327E+03  0.11735710940E+03 0.  0.
         23    2    1    2    0    0 -0.23597630747E+02 -0.12591914947E+03  0.34836257347E+03  0.38205638087E+03  0.90543443677E+02 0.  0.
        -11    1    4    4    0    0 -0.48144926223E+02 -0.12307812244E+03  0.29217088770E+03  0.32067114894E+03  0.00000000000E+00 0.  1.
         11    1    4    4    0    0  0.24547295477E+02 -0.28410270284E+01  0.56191685770E+02  0.61385231933E+02  0.00000000000E+00 0. -1.
        -11    1    3    3    0    0 -0.48595030583E+02  0.40640098320E+02  0.14349128763E+03  0.15685293818E+03  0.00000000000E+00 0.  1.
         11    1    3    3    0    0  0.68678467776E+02  0.64197232834E+02  0.28138185044E+03  0.29667113509E+03  0.00000000000E+00 0. -1.
          1    1    1    2  501    0  0.35141935535E+01  0.21081818312E+02 -0.91725981840E+01  0.23257884193E+02  0.00000000000E+00 0. -1.
<scales pt_clust_5="13000.00000" pt_clust_6="13000.00000" pt_clust_7="13000.00000" pt_clust_8="13000.00000" pt_clust_9="21.37271"></scales>
<clustering>
<clus scale="   21.373">  2  9  1 -1</clus>
<clus scale="   90.543">  5  6 -1 -1</clus>
<clus scale="  117.357">  7  8 -1 -1</clus>
<clus scale="  147.598">  2  5  1 -1</clus>
<clus scale="   21.373">  2  5  1 -1</clus>
</clustering>
</event>
<event>
 9    1  0.1399746E-005  0.9211573E+02  0.7546771E-02  0.1298108E+00
         21   -1    0    0  501  502  0.00000000000E+00  0.00000000000E+00  0.10059364072E+03  0.10059364072E+03  0.00000000000E+00 0. -1.
          1   -1    0    0  502    0 -0.00000000000E+00 -0.00000000000E+00 -0.16077170882E+03  0.16077170882E+03  0.00000000000E+00 0. -1.
         23    2    1    2    0    0 -0.34918619648E+02  0.15807669378E+02 -0.45545883444E+02  0.10817571434E+03  0.90323669459E+02 0.  0.
         23    2    1    2    0    0 -0.22786700280E+02 -0.54767771962E+01 -0.10942145773E+02  0.94450826322E+02  0.90840515414E+02 0.  0.
        -13    1    3    3    0    0  0.11959354629E+02 -0.16224768115E+02  0.15036230338E+02  0.25146719196E+02  0.00000000000E+00 0.  1.
         13    1    3    3    0    0 -0.46877974277E+02  0.32032437492E+02 -0.60582113782E+02  0.83028995142E+02  0.00000000000E+00 0. -1.
        -13    1    4    4    0    0  0.22228505097E+01 -0.43496755985E+02 -0.20200988823E+02  0.48010298844E+02  0.00000000000E+00 0.  1.
         13    1    4    4    0    0 -0.25009550790E+02  0.38019978789E+02  0.92588430496E+01  0.46440527478E+02  0.00000000000E+00 0. -1.
          1    1    1    2  501    0  0.57705319928E+02 -0.10330892181E+02 -0.36900388871E+01  0.58738808876E+02  0.00000000000E+00 0. -1.
<scales pt_clust_5="13000.00000" pt_clust_6="13000.00000" pt_clust_7="13000.00000" pt_clust_8="13000.00000" pt_clust_9="58.62279"></scales>
<clustering>
<clus scale="   58.623">  1  9  2 -1</clus>
<clus scale="   90.324">  5  6 -1 -1</clus>
<clus scale="   90.841">  7  8 -1 -1</clus>
<clus scale="   91.606">  2  5  1 -1</clus>
<clus scale="   58.623">  1  5  2 -1</clus>
</clustering>
</event>
<event>
 9    1  0.1399746E-005  0.1389012E+03  0.7546771E-02  0.1216066E+00
         21   -1    0    0  501  502  0.00000000000E+00  0.00000000000E+00  0.26928397293E+03  0.26928397293E+03  0.00000000000E+00 0.  1.
          2   -1    0    0  502    0 -0.00000000000E+00 -0.00000000000E+00 -0.27429930778E+03  0.27429930778E+03  0.00000000000E+00 0. -1.
         23    2    1    2    0    0 -0.48037243159E+02  0.97531308505E+02 -0.22705449419E+03  0.26652747330E+03  0.87539807079E+02 0.  0.
         23    2    1    2    0    0  0.28892342284E+02 -0.56975582525E+02  0.11563297585E+03  0.16158472867E+03  0.93046520574E+02 0.  0.
        -11    1    3    3    0    0 -0.43644555128E+02  0.16925835607E+02 -0.35791600523E+02  0.58926817081E+02  0.00000000000E+00 0.  1.
         11    1    3    3    0    0 -0.43926880318E+01  0.80605472897E+02 -0.19126289367E+03  0.20760065622E+03  0.00000000000E+00 0. -1.
        -13    1    4    4    0    0  0.55042895176E+02 -0.25746995709E+02  0.10181989401E+03  0.11857452894E+03  0.00000000000E+00 0.  1.
         13    1    4    4    0    0 -0.26150552893E+02 -0.31228586815E+02  0.13813081833E+02  0.43010199730E+02  0.00000000000E+00 0. -1.
          2    1    1    2  501    0  0.19144900876E+02 -0.40555725980E+02  0.10640618349E+03  0.11547107874E+03  0.00000000000E+00 0. -1.
<scales pt_clust_5="13000.00000" pt_clust_6="13000.00000" pt_clust_7="13000.00000" pt_clust_8="13000.00000" pt_clust_9="44.84745"></scales>
<clustering>
<clus scale="   44.847">  1  9  2 -1</clus>
<clus scale="   87.540">  5  6 -1 -1</clus>
<clus scale="   93.047">  7  8 -1 -1</clus>
<clus scale="  135.274">  2  5  1 -1</clus>
<clus scale="   44.847">  1  5  2 -1</clus>
</clustering>
</event>
<event>
 9    1  0.1399746E-005  0.9884541E+02  0.7546771E-02  0.1283439E+00
         21   -1    0    0  501  502  0.00000000000E+00  0.00000000000E+00  0.12581913063E+03  0.12581913063E+03  0.00000000000E+00 0.  1.
          3   -1    0    0  502    0 -0.00000000000E+00 -0.00000000000E+00 -0.22967104770E+03  0.22967104770E+03  0.00000000000E+00 0. -1.
         23    2    1    2    0    0  0.41025383441E+02 -0.39560123164E+01 -0.14677870548E+03  0.17752930164E+03  0.90961158942E+02 0.  0.
         23    2    1    2    0    0 -0.16403672031E+02  0.24794875232E+02 -0.27212056115E+02  0.10076020058E+03  0.92348555638E+02 0.  0.
        -11    1    4    4    0    0  0.66374592636E+01  0.51544472879E+02 -0.37384022092E+02  0.64019166331E+02  0.00000000000E+00 0. -1.
         11    1    4    4    0    0 -0.23041131295E+02 -0.26749597648E+02  0.10171965977E+02  0.36741034246E+02  0.00000000000E+00 0.  1.
        -13    1    3    3    0    0  0.41469790512E+02 -0.42926693900E+02 -0.74985712286E+02  0.95839979243E+02  0.00000000000E+00 0.  1.
         13    1    3    3    0    0 -0.44440707109E+00  0.38970681584E+02 -0.71792993197E+02  0.81689322393E+02  0.00000000000E+00 0. -1.
          3    1    1    2  501    0 -0.24621711409E+02 -0.20838862915E+02  0.70138844531E+02  0.77200676114E+02  0.00000000000E+00 0. -1.
<scales pt_clust_5="13000.00000" pt_clust_6="13000.00000" pt_clust_7="13000.00000" pt_clust_8="13000.00000" pt_clust_9="32.25658"></scales>
<clustering>
<clus scale="   32.257">  1  9  2 -1</clus>
<clus scale="   90.961">  7  8 -1 -1</clus>
<clus scale="   92.349">  5  6 -1 -1</clus>
<clus scale="   97.550">  2  7  1 -1</clus>
<clus scale="   32.257">  1  5  2 -1</clus>
</clustering>
</event>
<event>
 9    1  0.1399746E-005  0.9574826E+02  0.7546771E-02  0.1290637E+00
         -2   -1    0    0    0  501 -0.00000000000E+00  0.00000000000E+00  0.65438138020E+02  0.65438138020E+02  0.00000000000E+00 0.  1.
         21   -1    0    0  501  502  0.00000000000E+00 -0.00000000000E+00 -0.41100203724E+03  0.41100203724E+03  0.00000000000E+00 0.  1.
         23    2    1    2    0    0  0.13501806887E+02 -0.18587655035E+02 -0.19550445017E+02  0.96550501997E+02  0.91716845926E+02 0.  0.
         23    2    1    2    0    0  0.24458560693E+02  0.43767838104E+02 -0.81293761901E+02  0.13096647441E+03  0.89608575774E+02 0.  0.
        -13    1    3    3    0    0 -0.36584581785E+02 -0.22936001918E+02 -0.17422309156E+01  0.43214895313E+02  0.00000000000E+00 0. -1.
         13    1    3    3    0    0  0.50086388673E+02  0.43483468830E+01 -0.17808214101E+02  0.53335606684E+02  0.00000000000E+00 0.  1.
        -13    1    4    4    0    0  0.46273907650E+02  0.56654473645E+02 -0.42407816451E+02  0.84554283211E+02  0.00000000000E+00 0.  1.
         13    1    4    4    0    0 -0.21815346957E+02 -0.12886635542E+02 -0.38885945450E+02  0.46412191200E+02  0.00000000000E+00 0. -1.
         -2    1    1    2    0  502 -0.37960367581E+02 -0.25180183069E+02 -0.24471969230E+03  0.24892319885E+03  0.00000000000E+00 0.  1.
<scales pt_clust_5="13000.00000" pt_clust_6="13000.00000" pt_clust_7="13000.00000" pt_clust_8="13000.00000" pt_clust_9="45.55251"></scales>
<clustering>
<clus scale="   45.553">  2  9  1 -1</clus>
<clus scale="   89.609">  7  8 -1 -1</clus>
<clus scale="   91.717">  5  6 -1 -1</clus>
<clus scale="   93.731">  2  7  1 -1</clus>
<clus scale="   45.553">  2  5  1 -1</clus>
</clustering>
</event>
<event>
 9    1  0.1399746E-005  0.9214882E+02  0.7546771E-02  0.1299389E+00
         -2   -1    0    0    0  501 -0.00000000000E+00  0.00000000000E+00  0.19844020118E+03  0.19844020118E+03  0.00000000000E+00 0.  1.
         21   -1    0    0  501  502  0.00000000000E+00 -0.00000000000E+00 -0.16544514941E+03  0.16544514941E+03  0.00000000000E+00 0.  1.
         23    2    1    2    0    0  0.81949537338E+01  0.75658517006E+01  0.95158706589E+02  0.13100999260E+03  0.89353451762E+02 0.  0.
         23    2    1    2    0    0  0.79215874121E+01  0.10385429774E+02  0.58438337795E+02  0.10988417121E+03  0.92135134768E+02 0.  0.
        -11    1    3    3    0    0  0.36066866836E+02 -0.63263564638E+01  0.92818085307E+02  0.99779951040E+02  0.00000000000E+00 0.  1.
         11    1    3    3    0    0 -0.27871913102E+02  0.13892208164E+02  0.23406212826E+01  0.31230041557E+02  0.00000000000E+00 0. -1.
        -11    1    4    4    0    0 -0.25375424526E+02  0.56874046732E+00 -0.14410386365E+02  0.29187238149E+02  0.00000000000E+00 0.  1.
         11    1    4    4    0    0  0.33297011938E+02  0.98166893064E+01  0.72848724161E+02  0.80696933057E+02  0.00000000000E+00 0. -1.
         -2    1    1    2    0  502 -0.16116541146E+02 -0.17951281474E+02 -0.12060199261E+03  0.12299118679E+03  0.00000000000E+00 0.  1.
<scales pt_clust_5="13000.00000" pt_clust_6="13000.00000" pt_clust_7="13000.00000" pt_clust_8="13000.00000" pt_clust_9="24.12450"></scales>
<clustering>
<clus scale="   24.124">  2  9  1 -1</clus>
<clus scale="   89.353">  5  6 -1 -1</clus>
<clus scale="   89.368">  1  5  2 -1</clus>
<clus scale="   92.135">  7  8 -1 -1</clus>
<clus scale="   24.124">  2  5  1 -1</clus>
</clustering>
</event>
<event>
 9    1  0.1399746E-005  0.1054309E+03  0.7546771E-02  0.1269494E+00
         21   -1    0    0  501  502  0.00000000000E+00  0.00000000000E+00  0.57156286251E+03  0.57156286251E+03  0.00000000000E+00 0. -1.
         -1   -1    0    0    0  501 -0.00000000000E+00 -0.00000000000E+00 -0.80778150455E+02  0.80778150455E+02  0.00000000000E+00 0.  1.
         23    2    1    2    0    0 -0.36243480935E+02 -0.35917152447E+02 -0.25227026168E+02  0.10717935707E+03  0.90815086750E+02 0.  0.
         23    2    1    2    0    0  0.76951568301E+02  0.10419448187E+02  0.28464112438E+03  0.30885752506E+03  0.91336150216E+02 0.  0.
        -13    1    3    3    0    0 -0.15891722815E+01 -0.51187603201E+02 -0.41544119960E+02  0.65943992094E+02  0.00000000000E+00 0.  1.
         13    1    3    3    0    0 -0.34654308654E+02  0.15270450754E+02  0.16317093792E+02  0.41235364972E+02  0.00000000000E+00 0. -1.
        -13    1    4    4    0    0  0.26187359084E+02  0.46477561126E+02  0.17284596191E+03  0.18089131547E+03  0.00000000000E+00 0. -1.
         13    1    4    4    0    0  0.50764209217E+02 -0.36058112940E+02  0.11179516247E+03  0.12796620959E+03  0.00000000000E+00 0.  1.
         -1    1    1    2    0  502 -0.40708087366E+02  0.25497704260E+02  0.23137061385E+03  0.23630413084E+03  0.00000000000E+00 0.  1.
<scales pt_clust_5="13000.00000" pt_clust_6="13000.00000" pt_clust_7="13000.00000" pt_clust_8="13000.00000" pt_clust_9="48.03417"></scales>
<clustering>
<clus scale="   48.034">  1  9  2 -1</clus>
<clus scale="   90.815">  5  6 -1 -1</clus>
<clus scale="   91.336">  7  8 -1 -1</clus>
<clus scale="  104.980">  2  5  1 -1</clus>
<clus scale="   48.034">  1  5  2 -1</clus>
</clustering>
</event>
<event>
 9    1  0.1399746E-005  0.9506045E+02  0.7546771E-02  0.1291615E+00
         -1   -1    0    0    0  501 -0.00000000000E+00  0.00000000000E+00  0.23721384083E+03  0.23721384083E+03  0.00000000000E+00 0.  1.
         21   -1    0    0  501  502  0.00000000000E+00 -0.00000000000E+00 -0.41704164138E+03  0.41704164138E+03  0.00000000000E+00 0.  1.
         23    2    1    2    0    0 -0.26160338306E+02  0.34856209318E+02  0.11373171560E+03  0.15164675113E+03  0.90346640040E+02 0.  0.
         23    2    1    2    0    0 -0.30308026860E+02 -0.15352343176E+02  0.78870885795E+02  0.12541715993E+03  0.91403372180E+02 0.  0.
        -11    1    3    3    0    0 -0.55487849076E+02  0.20274083068E+02  0.99969926303E+02  0.11612030832E+03  0.00000000000E+00 0.  1.
         11    1    3    3    0    0  0.29327510770E+02  0.14582126250E+02  0.13761789293E+02  0.35526442806E+02  0.00000000000E+00 0. -1.
        -13    1    4    4    0    0  0.14350552599E+02  0.27245218159E+02  0.46376533695E+02  0.55668870565E+02  0.00000000000E+00 0.  1.
         13    1    4    4    0    0 -0.44658579459E+02 -0.42597561336E+02  0.32494352100E+02  0.69748289366E+02  0.00000000000E+00 0. -1.
         -1    1    1    2    0  502  0.56468365166E+02 -0.19503866142E+02 -0.37243040194E+03  0.37719157116E+03  0.00000000000E+00 0.  1.
<scales pt_clust_5="13000.00000" pt_clust_6="13000.00000" pt_clust_7="13000.00000" pt_clust_8="13000.00000" pt_clust_9="59.74175"></scales>
<clustering>
<clus scale="   59.742">  2  9  1 -1</clus>
<clus scale="   90.347">  5  6 -1 -1</clus>
<clus scale="   91.403">  7  8 -1 -1</clus>
<clus scale="   94.045">  1  5  2 -1</clus>
<clus scale="   59.742">  2  5  1 -1</clus>
</clustering>
</event>
<event>
 9    1  0.1399746E-005  0.1320038E+03  0.7546771E-02  0.1225621E+00
         21   -1    0    0  501  502  0.00000000000E+00  0.00000000000E+00  0.24896088214E+03  0.24896088214E+03  0.00000000000E+00 0. -1.
         -3   -1    0    0    0  501 -0.00000000000E+00 -0.00000000000E+00 -0.94980761332E+02  0.94980761332E+02  0.00000000000E+00 0.  1.
         23    2    1    2    0    0  0.11204106424E+02  0.10456110971E+03  0.21396394605E+02  0.13784871908E+03  0.86521130282E+02 0.  0.
         23    2    1    2    0    0  0.13386139403E+02 -0.81829376915E+02  0.93095602032E+02  0.15431721758E+03  0.90949309347E+02 0.  0.
        -11    1    4    4    0    0 -0.32554836819E+02 -0.47257228447E+02  0.74188150091E+02  0.93792028738E+02  0.00000000000E+00 0.  1.
         11    1    4    4    0    0  0.45940976222E+02 -0.34572148468E+02  0.18907451941E+02  0.60525188846E+02  0.00000000000E+00 0. -1.
        -13    1    3    3    0    0  0.30979109086E+02  0.44263258446E+02  0.44827947749E+02  0.70203177616E+02  0.00000000000E+00 0. -1.
         13    1    3    3    0    0 -0.19775002662E+02  0.60297851260E+02 -0.23431553143E+02  0.67645541461E+02  0.00000000000E+00 0.  1.
         -3    1    1    2    0  502 -0.24590245827E+02 -0.22731732791E+02  0.39488124175E+02  0.51775706817E+02  0.00000000000E+00 0.  1.
<scales pt_clust_5="13000.00000" pt_clust_6="13000.00000" pt_clust_7="13000.00000" pt_clust_8="13000.00000" pt_clust_9="33.48749"></scales>
<clustering>
<clus scale="   33.487">  1  9  2 -1</clus>
<clus scale="   86.521">  7  8 -1 -1</clus>
<clus scale="   90.949">  5  6 -1 -1</clus>
<clus scale="  128.993">  2  7  1 -1</clus>
<clus scale="   33.487">  1  5  2 -1</clus>
</clustering>
</event>
<event>
 9    1  0.1405641E-005  0.4605581E+03  0.7546771E-02  0.1024633E+00
          3   -1    0    0  502    0 -0.00000000000E+00  0.00000000000E+00  0.89357936941E+03  0.89357936941E+03  0.00000000000E+00 0. -1.
         21   -1    0    0  501  502  0.00000000000E+00 -0.00000000000E+00 -0.63385389313E+03  0.63385389313E+03  0.00000000000E+00 0. -1.
         23    2    1    2    0    0  0.45314835226E+03 -0.97599722241E+01  0.63267129365E+03  0.78362817295E+03  0.91441026961E+02 0.  0.
         23    2    1    2    0    0 -0.43222602148E+03  0.13657576708E+03 -0.40103802787E+03  0.61224080097E+03  0.92385197782E+02 0.  0.
        -11    1    4    4    0    0 -0.41164328863E+03  0.11521418576E+03 -0.39488771309E+03  0.58194571192E+03  0.00000000000E+00 0. -1.
         11    1    4    4    0    0 -0.20582732850E+02  0.21361581325E+02 -0.61503147807E+01  0.30295089044E+02  0.00000000000E+00 0.  1.
        -13    1    3    3    0    0  0.13071091994E+03 -0.42547285453E+02  0.16748714890E+03  0.21667385892E+03  0.00000000000E+00 0.  1.
         13    1    3    3    0    0  0.32243743232E+03  0.32787313229E+02  0.46518414475E+03  0.56695431403E+03  0.00000000000E+00 0. -1.
          3    1    1    2  501    0 -0.20922330781E+02 -0.12681579486E+03  0.28092210500E+02  0.13156428863E+03  0.00000000000E+00 0. -1.
<scales pt_clust_5="13000.00000" pt_clust_6="13000.00000" pt_clust_7="13000.00000" pt_clust_8="13000.00000" pt_clust_9="128.53018"></scales>
<clustering>
<clus scale="   91.441">  7  8 -1 -1</clus>
<clus scale="   92.385">  5  6 -1 -1</clus>
<clus scale="  128.530">  2  9  1 -1</clus>
<clus scale="  460.370">  1  7  2 -1</clus>
<clus scale="  128.530">  2  5  1 -1</clus>
</clustering>
</event>
<event>
 9    1  0.1399746E-005  0.9605708E+02  0.7546771E-02  0.1291531E+00
          1   -1    0    0  502    0 -0.00000000000E+00  0.00000000000E+00  0.60240511020E+02  0.60240511020E+02  0.00000000000E+00 0. -1.
         21   -1    0    0  501  502  0.00000000000E+00 -0.00000000000E+00 -0.36926054111E+03  0.36926054111E+03  0.00000000000E+00 0.  1.
         23    2    1    2    0    0  0.94437335617E+01  0.24459068824E+02  0.68483310718E+01  0.92251252841E+02  0.88181425827E+02 0.  0.
         23    2    1    2    0    0 -0.15985516085E+02 -0.18178061631E+01 -0.24662985694E+03  0.26411026032E+03  0.93108013240E+02 0.  0.
        -11    1    3    3    0    0  0.36507851702E+02 -0.18068011437E+02  0.93028715836E+01  0.41783007227E+02  0.00000000000E+00 0.  1.
         11    1    3    3    0    0 -0.27064118141E+02  0.42527080261E+02 -0.24545405118E+01  0.50468245614E+02  0.00000000000E+00 0. -1.
        -13    1    4    4    0    0 -0.47514644414E+02 -0.18628472783E+02 -0.90064073440E+02  0.10351907436E+03  0.00000000000E+00 0.  1.
         13    1    4    4    0    0  0.31529128329E+02  0.16810666620E+02 -0.15656578350E+03  0.16059118596E+03  0.00000000000E+00 0. -1.
          1    1    1    2  501    0  0.65417825237E+01 -0.22641262661E+02 -0.69238504220E+02  0.73139538965E+02  0.00000000000E+00 0. -1.
<scales pt_clust_5="13000.00000" pt_clust_6="13000.00000" pt_clust_7="13000.00000" pt_clust_8="13000.00000" pt_clust_9="23.56739"></scales>
<clustering>
<clus scale="   23.567">  2  9  1 -1</clus>
<clus scale="   88.181">  5  6 -1 -1</clus>
<clus scale="   91.290">  1  5  2 -1</clus>
<clus scale="   93.108">  7  8 -1 -1</clus>
<clus scale="   23.567">  2  5  1 -1</clus>
</clustering>
</event>
<event>
 9    1  0.1399746E-005  0.9580221E+02  0.7546771E-02  0.1290121E+00
         21   -1    0    0  501  502  0.00000000000E+00  0.00000000000E+00  0.59445275286E+02  0.59445275286E+02  0.00000000000E+00 0.  1.
          2   -1    0    0  502    0 -0.00000000000E+00 -0.00000000000E+00 -0.40307762386E+03  0.40307762386E+03  0.00000000000E+00 0. -1.
         23    2    1    2    0    0  0.11975125610E+02 -0.15601468196E+02 -0.31832102273E+03  0.33217306303E+03  0.92864744903E+02 0.  0.
         23    2    1    2    0    0  0.65234257947E+01  0.62522915916E+01  0.36779219788E+01  0.94713057412E+02  0.94209287759E+02 0.  0.
        -13    1    4    4    0    0  0.49333410952E+02 -0.53111860597E+01  0.75940992164E+01  0.50196259586E+02  0.00000000000E+00 0.  1.
         13    1    4    4    0    0 -0.42809985157E+02  0.11563477651E+02 -0.39161772376E+01  0.44516797826E+02  0.00000000000E+00 0. -1.
        -13    1    3    3    0    0 -0.33028527910E+02  0.18784381444E+02 -0.14075123742E+03  0.14578973722E+03  0.00000000000E+00 0.  1.
         13    1    3    3    0    0  0.45003653520E+02 -0.34385849640E+02 -0.17756978531E+03  0.18638332581E+03  0.00000000000E+00 0. -1.
          2    1    1    2  501    0 -0.18498551405E+02  0.93491766040E+01 -0.28989247820E+02  0.35636778704E+02  0.00000000000E+00 0. -1.
<scales pt_clust_5="13000.00000" pt_clust_6="13000.00000" pt_clust_7="13000.00000" pt_clust_8="13000.00000" pt_clust_9="20.72689"></scales>
<clustering>
<clus scale="   20.727">  1  9  2 -1</clus>
<clus scale="   92.865">  7  8 -1 -1</clus>
<clus scale="   94.209">  5  6 -1 -1</clus>
<clus scale="   94.480">  2  7  1 -1</clus>
<clus scale="   20.727">  1  5  2 -1</clus>
</clustering>
</event>
<event>
 9    1  0.1399746E-005  0.1274687E+03  0.7546771E-02  0.1231992E+00
         21   -1    0    0  501  502  0.00000000000E+00  0.00000000000E+00  0.25228462350E+03  0.25228462350E+03  0.00000000000E+00 0. -1.
         -1   -1    0    0    0  501 -0.00000000000E+00 -0.00000000000E+00 -0.10671165486E+03  0.10671165486E+03  0.00000000000E+00 0.  1.
         23    2    1    2    0    0 -0.93416945068E+02  0.78855297087E+01 -0.26464225631E+01  0.13137375559E+03  0.91995396092E+02 0.  0.
         23    2    1    2    0    0  0.70049508309E+02 -0.49296726903E+02  0.93394871485E+02  0.15505081812E+03  0.89336740944E+02 0.  0.
        -13    1    3    3    0    0 -0.16725907711E+02 -0.34918190868E+02  0.15476326978E+02  0.41695955906E+02  0.00000000000E+00 0.  1.
         13    1    3    3    0    0 -0.76691037357E+02  0.42803720576E+02 -0.18122749541E+02  0.89677799689E+02  0.00000000000E+00 0. -1.
        -13    1    4    4    0    0  0.50019956110E+02  0.73310971048E+01  0.88222264839E+01  0.51318346370E+02  0.00000000000E+00 0.  1.
         13    1    4    4    0    0  0.20029552199E+02 -0.56627824007E+02  0.84572645001E+02  0.10373247175E+03  0.00000000000E+00 0. -1.
         -1    1    1    2    0  502  0.23367436758E+02  0.41411197194E+02  0.54824519717E+02  0.72571704651E+02  0.00000000000E+00 0.  1.
<scales pt_clust_5="13000.00000" pt_clust_6="13000.00000" pt_clust_7="13000.00000" pt_clust_8="13000.00000" pt_clust_9="47.54918"></scales>
<clustering>
<clus scale="   47.549">  1  9  2 -1</clus>
<clus scale="   89.337">  7  8 -1 -1</clus>
<clus scale="   91.995">  5  6 -1 -1</clus>
<clus scale="  125.563">  1  7  2 -1</clus>
<clus scale="   47.549">  1  5  2 -1</clus>
</clustering>
</event>
<event>
 9    1  0.1399746E-005  0.1458038E+03  0.7546771E-02  0.1206271E+00
          1   -1    0    0  502    0 -0.00000000000E+00  0.00000000000E+00  0.24365699110E+03  0.24365699110E+03  0.00000000000E+00 0. -1.
         21   -1    0    0  501  502  0.00000000000E+00 -0.00000000000E+00 -0.11624453707E+03  0.11624453707E+03  0.00000000000E+00 0.  1.
         23    2    1    2    0    0 -0.10459462518E+03 -0.41496398864E+02  0.92280043450E+02  0.17107160222E+03  0.89932752283E+02 0.  0.
         23    2    1    2    0    0  0.11613027117E+03  0.65246309157E+01  0.29150215299E+02  0.15152198655E+03  0.92630268612E+02 0.  0.
        -11    1    4    4    0    0  0.10193946246E+03  0.35082308241E+02  0.43879897682E+02  0.11639530823E+03  0.00000000000E+00 0.  1.
         11    1    4    4    0    0  0.14190808714E+02 -0.28557677325E+02 -0.14729682383E+02  0.35126678312E+02  0.00000000000E+00 0. -1.
        -11    1    3    3    0    0 -0.41931817398E+02  0.22382843027E+02  0.81016616160E+01  0.48217277954E+02  0.00000000000E+00 0.  1.
         11    1    3    3    0    0 -0.62662807777E+02 -0.63879241891E+02  0.84178381834E+02  0.12285432427E+03  0.00000000000E+00 0. -1.
          1    1    1    2  501    0 -0.11535645999E+02  0.34971767948E+02  0.59821952884E+01  0.37307939403E+02  0.00000000000E+00 0. -1.
<scales pt_clust_5="13000.00000" pt_clust_6="13000.00000" pt_clust_7="13000.00000" pt_clust_8="13000.00000" pt_clust_9="36.82520"></scales>
<clustering>
<clus scale="   36.825">  2  9  1 -1</clus>
<clus scale="   89.933">  7  8 -1 -1</clus>
<clus scale="   92.630">  5  6 -1 -1</clus>
<clus scale="  144.105">  1  7  2 -1</clus>
<clus scale="   36.825">  2  5  1 -1</clus>
</clustering>
</event>
<event>
 9    1  0.1399746E-005  0.1508978E+03  0.7546771E-02  0.1200036E+00
         21   -1    0    0  501  502  0.00000000000E+00  0.00000000000E+00  0.62996990698E+03  0.62996990698E+03  0.00000000000E+00 0. -1.
         -3   -1    0    0    0  501 -0.00000000000E+00 -0.00000000000E+00 -0.59950850078E+02  0.59950850078E+02  0.00000000000E+00 0.  1.
         23    2    1    2    0    0  0.57162121709E+02 -0.10924384556E+03  0.87176045105E+02  0.17639695769E+03  0.91183868586E+02 0.  0.
         23    2    1    2    0    0 -0.31442595300E+02  0.98432393882E+02  0.33597561755E+03  0.36402994324E+03  0.94660504043E+02 0.  0.
        -11    1    3    3    0    0  0.77840490151E+02 -0.10116301225E+03  0.86486549973E+02  0.15418501964E+03  0.00000000000E+00 0. -1.
         11    1    3    3    0    0 -0.20678368442E+02 -0.80808333122E+01  0.68949513162E+00  0.22211938051E+02  0.00000000000E+00 0.  1.
        -11    1    4    4    0    0 -0.40462835321E+02 -0.79295321225E+00  0.93599722409E+02  0.10197439802E+03  0.00000000000E+00 0.  1.
         11    1    4    4    0    0  0.90202400214E+01  0.99225347094E+02  0.24237589514E+03  0.26205554522E+03  0.00000000000E+00 0. -1.
         -3    1    1    2    0  502 -0.25719526409E+02  0.10811451679E+02  0.14686739425E+03  0.14949385612E+03  0.00000000000E+00 0.  1.
<scales pt_clust_5="13000.00000" pt_clust_6="13000.00000" pt_clust_7="13000.00000" pt_clust_8="13000.00000" pt_clust_9="27.89949"></scales>
<clustering>
<clus scale="   27.899">  1  9  2 -1</clus>
<clus scale="   91.184">  5  6 -1 -1</clus>
<clus scale="   94.661">  7  8 -1 -1</clus>
<clus scale="  148.741">  2  5  1 -1</clus>
<clus scale="   27.899">  1  5  2 -1</clus>
</clustering>
</event>
<event>
 9    1  0.1399746E-005  0.1130449E+03  0.7546771E-02  0.1255393E+00
          2   -1    0    0  502    0 -0.00000000000E+00  0.00000000000E+00  0.10513395664E+04  0.10513395664E+04  0.00000000000E+00 0. -1.
         21   -1    0    0  501  502  0.00000000000E+00 -0.00000000000E+00 -0.31617732879E+02  0.31617732879E+02  0.00000000000E+00 0. -1.
         23    2    1    2    0    0  0.87699443829E+01  0.86957404513E+02  0.71160879152E+03  0.72252851377E+03  0.89564942489E+02 0.  0.
         23    2    1    2    0    0 -0.44379840986E+02 -0.89778155340E+01  0.17028931704E+03  0.19811963544E+03  0.90569128253E+02 0.  0.
        -11    1    4    4    0    0  0.53235490799E+01  0.34201203774E+02  0.47243151876E+02  0.58566013298E+02  0.00000000000E+00 0.  1.
         11    1    4    4    0    0 -0.49703390066E+02 -0.43179019308E+02  0.12304616516E+03  0.13955362214E+03  0.00000000000E+00 0. -1.
        -13    1    3    3    0    0 -0.28985296247E+02 -0.11116496054E+01  0.14468549220E+03  0.14756447681E+03  0.00000000000E+00 0.  1.
         13    1    3    3    0    0  0.37755240630E+02  0.88069054118E+02  0.56692329932E+03  0.57496403697E+03  0.00000000000E+00 0. -1.
          2    1    1    2  501    0  0.35609896603E+02 -0.77979588979E+02  0.13782372500E+03  0.16230915010E+03  0.00000000000E+00 0. -1.
<scales pt_clust_5="13000.00000" pt_clust_6="13000.00000" pt_clust_7="13000.00000" pt_clust_8="13000.00000" pt_clust_9="85.72561"></scales>
<clustering>
<clus scale="   85.726">  2  9  1 -1</clus>
<clus scale="   89.565">  7  8 -1 -1</clus>
<clus scale="   90.569">  5  6 -1 -1</clus>
<clus scale="  112.242">  1  7  2 -1</clus>
<clus scale="   85.726">  2  5  1 -1</clus>
</clustering>
</event>
<event>
 9    1  0.1399746E-005  0.9333621E+02  0.7546771E-02  0.1295672E+00
         21   -1    0    0  501  502  0.00000000000E+00  0.00000000000E+00  0.42467228209E+03  0.42467228209E+03  0.00000000000E+00 0. -1.
         -1   -1    0    0    0  501 -0.00000000000E+00 -0.00000000000E+00 -0.63145417338E+02  0.63145417338E+02  0.00000000000E+00 0.  1.
         23    2    1    2    0    0  0.24301440448E+02  0.18658659992E+02  0.32525291100E+01  0.96406319028E+02  0.91350390270E+02 0.  0.
         23    2    1    2    0    0  0.30344156259E+02  0.37712504351E+01  0.17998904272E+03  0.20359527941E+03  0.90110999034E+02 0.  0.
        -11    1    4    4    0    0 -0.24961218382E+02 -0.13953536788E+02  0.24648253938E+02  0.37753146018E+02  0.00000000000E+00 0.  1.
         11    1    4    4    0    0  0.55305374642E+02  0.17724787223E+02  0.15534078879E+03  0.16584213339E+03  0.00000000000E+00 0. -1.
        -11    1    3    3    0    0  0.42149307295E+02 -0.69836566894E+01  0.32445671207E+02  0.53647526935E+02  0.00000000000E+00 0. -1.
         11    1    3    3    0    0 -0.17847866847E+02  0.25642316682E+02 -0.29193142097E+02  0.42758792093E+02  0.00000000000E+00 0.  1.
         -1    1    1    2    0  502 -0.54645596707E+02 -0.22429910428E+02  0.17828529292E+03  0.18781610100E+03  0.00000000000E+00 0.  1.
<scales pt_clust_5="13000.00000" pt_clust_6="13000.00000" pt_clust_7="13000.00000" pt_clust_8="13000.00000" pt_clust_9="59.06981"></scales>
<clustering>
<clus scale="   59.070">  1  9  2 -1</clus>
<clus scale="   90.111">  5  6 -1 -1</clus>
<clus scale="   91.350">  7  8 -1 -1</clus>
<clus scale="   92.124">  1  5  2 -1</clus>
<clus scale="   59.070">  1  5  2 -1</clus>
</clustering>
</event>
<event>
 9    1  0.1399746E-005  0.9826451E+02  0.7546771E-02  0.1285713E+00
         21   -1    0    0  501  502  0.00000000000E+00  0.00000000000E+00  0.34897463893E+03  0.34897463893E+03  0.00000000000E+00 0. -1.
         -1   -1    0    0    0  501 -0.00000000000E+00 -0.00000000000E+00 -0.43738214775E+02  0.43738214775E+02  0.00000000000E+00 0.  1.
         23    2    1    2    0    0 -0.33852993238E+02  0.12327447747E+02  0.10101576407E+03  0.14368543684E+03  0.95620756369E+02 0.  0.
         23    2    1    2    0    0 -0.49252306539E+01 -0.13100073121E+02  0.18133762608E+03  0.20399430857E+03  0.92382214102E+02 0.  0.
        -11    1    4    4    0    0 -0.20437252909E+02  0.31688837949E+02  0.40232283785E+02  0.55140732817E+02  0.00000000000E+00 0.  1.
         11    1    4    4    0    0  0.15512022255E+02 -0.44788911070E+02  0.14110534229E+03  0.14885357575E+03  0.00000000000E+00 0. -1.
        -13    1    3    3    0    0 -0.59741325152E+02  0.30333329483E+02  0.49572156472E+02  0.83345878757E+02  0.00000000000E+00 0. -1.
         13    1    3    3    0    0  0.25888331914E+02 -0.18005881736E+02  0.51443607598E+02  0.60339558079E+02  0.00000000000E+00 0.  1.
         -1    1    1    2    0  502  0.38778223892E+02  0.77262537380E+00  0.22883034004E+02  0.45033108303E+02  0.00000000000E+00 0.  1.
<scales pt_clust_5="13000.00000" pt_clust_6="13000.00000" pt_clust_7="13000.00000" pt_clust_8="13000.00000" pt_clust_9="38.78594"></scales>
<clustering>
<clus scale="   38.786">  1  9  2 -1</clus>
<clus scale="   92.382">  5  6 -1 -1</clus>
<clus scale="   95.116">  1  5  2 -1</clus>
<clus scale="   95.621">  7  8 -1 -1</clus>
<clus scale="   38.786">  1  5  2 -1</clus>
</clustering>
</event>
<event>
 9    1  0.1399746E-005  0.9798904E+02  0.7546771E-02  0.1288577E+00
          1   -1    0    0  502    0 -0.00000000000E+00  0.00000000000E+00  0.35799870918E+03  0.35799870918E+03  0.00000000000E+00 0. -1.
         21   -1    0    0  501  502  0.00000000000E+00 -0.00000000000E+00 -0.81000807490E+02  0.81000807490E+02  0.00000000000E+00 0.  1.
         23    2    1    2    0    0 -0.22664678903E+02 -0.31150272535E+01  0.29252269678E+03  0.30824788740E+03  0.94466083287E+02 0.  0.
         23    2    1    2    0    0  0.48986556187E+02  0.12991070669E+02 -0.18651533550E+02  0.10246463666E+03  0.87078536155E+02 0.  0.
        -11    1    3    3    0    0  0.23657493944E+02  0.24397623333E+02  0.18371789410E+03  0.18683464790E+03  0.00000000000E+00 0.  1.
         11    1    3    3    0    0 -0.46322172847E+02 -0.27512650587E+02  0.10880480268E+03  0.12141323950E+03  0.00000000000E+00 0. -1.
        -13    1    4    4    0    0  0.70271941356E+02 -0.56113339363E+01 -0.22353070199E+02  0.73954665558E+02  0.00000000000E+00 0.  1.
         13    1    4    4    0    0 -0.21285385169E+02  0.18602404606E+02  0.37015366492E+01  0.28509971106E+02  0.00000000000E+00 0. -1.
          1    1    1    2  501    0 -0.26321877284E+02 -0.98760434159E+01  0.31267384636E+01  0.28286992606E+02  0.00000000000E+00 0. -1.
<scales pt_clust_5="13000.00000" pt_clust_6="13000.00000" pt_clust_7="13000.00000" pt_clust_8="13000.00000" pt_clust_9="28.11365"></scales>
<clustering>
<clus scale="   28.114">  2  9  1 -1</clus>
<clus scale="   87.079">  7  8 -1 -1</clus>
<clus scale="   90.888">  2  7  1 -1</clus>
<clus scale="   94.466">  5  6 -1 -1</clus>
<clus scale="   28.114">  2  5  1 -1</clus>
</clustering>
</event>
<event>
 9    1  0.1399746E-005  0.1805288E+03  0.7546771E-02  0.1167695E+00
          2   -1    0    0  502    0 -0.00000000000E+00  0.00000000000E+00  0.32640644732E+03  0.32640644732E+03  0.00000000000E+00 0. -1.
         21   -1    0    0  501  502  0.00000000000E+00 -0.00000000000E+00 -0.11665598594E+03  0.11665598594E+03  0.00000000000E+00 0.  1.
         23    2    1    2    0    0  0.14223079634E+03 -0.53628063716E+01  0.90038358752E+02  0.19254782735E+03  0.93324169716E+02 0.  0.
         23    2    1    2    0    0 -0.16641361893E+03  0.17836912763E+02  0.11695614738E+03  0.22316487962E+03  0.90067613851E+02 0.  0.
        -11    1    3    3    0    0  0.55046183310E+01  0.28597230929E+02  0.18979645628E+02  0.34761032608E+02  0.00000000000E+00 0.  1.
         11    1    3    3    0    0  0.13672617801E+03 -0.33960037301E+02  0.71058713124E+02  0.15778679475E+03  0.00000000000E+00 0. -1.
        -13    1    4    4    0    0 -0.15346730946E+02 -0.14748614601E+02  0.50761984557E+02  0.55043826716E+02  0.00000000000E+00 0. -1.
         13    1    4    4    0    0 -0.15106688798E+03  0.32585527364E+02  0.66194162822E+02  0.16812105290E+03  0.00000000000E+00 0.  1.
          2    1    1    2  501    0  0.24182822591E+02 -0.12474106391E+02  0.27559552547E+01  0.27349726289E+02  0.00000000000E+00 0. -1.
<scales pt_clust_5="13000.00000" pt_clust_6="13000.00000" pt_clust_7="13000.00000" pt_clust_8="13000.00000" pt_clust_9="27.21052"></scales>
<clustering>
<clus scale="   27.211">  2  9  1 -1</clus>
<clus scale="   90.068">  7  8 -1 -1</clus>
<clus scale="   93.324">  5  6 -1 -1</clus>
<clus scale="  178.867">  2  7  1 -1</clus>
<clus scale="   27.211">  2  5  1 -1</clus>
</clustering>
</event>
<event>
 9    1  0.1399746E-005  0.1028630E+03  0.7546771E-02  0.1274889E+00
         21   -1    0    0  501  502  0.00000000000E+00  0.00000000000E+00  0.16869143344E+03  0.16869143344E+03  0.00000000000E+00 0. -1.
          3   -1    0    0  502    0 -0.00000000000E+00 -0.00000000000E+00 -0.13633193010E+03  0.13633193010E+03  0.00000000000E+00 0. -1.
         23    2    1    2    0    0 -0.39050002843E+02  0.34517531961E+02 -0.51865833514E+02  0.11718883910E+03  0.91251282673E+02 0.  0.
         23    2    1    2    0    0  0.18384065565E+02 -0.31393378849E+02 -0.18337796334E+01  0.99273738387E+02  0.92349305809E+02 0.  0.
        -11    1    4    4    0    0  0.41276152803E+02 -0.50825473405E+02 -0.13862983396E+02  0.66926316541E+02  0.00000000000E+00 0. -1.
         11    1    4    4    0    0 -0.22892087238E+02  0.19432094556E+02  0.12029203763E+02  0.32347421846E+02  0.00000000000E+00 0.  1.
        -11    1    3    3    0    0  0.21044944323E+01 -0.29017522698E+02 -0.10542709863E+02  0.30945019819E+02  0.00000000000E+00 0. -1.
         11    1    3    3    0    0 -0.41154497275E+02  0.63535054658E+02 -0.41323123651E+02  0.86243819284E+02  0.00000000000E+00 0.  1.
          3    1    1    2  501    0  0.20665937278E+02 -0.31241531113E+01  0.86059116481E+02  0.88560786050E+02  0.00000000000E+00 0. -1.
<scales pt_clust_5="13000.00000" pt_clust_6="13000.00000" pt_clust_7="13000.00000" pt_clust_8="13000.00000" pt_clust_9="20.90075"></scales>
<clustering>
<clus scale="   20.901">  1  9  2 -1</clus>
<clus scale="   91.251">  7  8 -1 -1</clus>
<clus scale="   92.349">  5  6 -1 -1</clus>
<clus scale="  101.878">  2  7  1 -1</clus>
<clus scale="   20.901">  1  5  2 -1</clus>
</clustering>
</event>
<event>
 9    1  0.1399746E-005  0.2135695E+03  0.7546771E-02  0.1152636E+00
          2   -1    0    0  502    0 -0.00000000000E+00  0.00000000000E+00  0.50123423149E+03  0.50123423149E+03  0.00000000000E+00 0. -1.
         21   -1    0    0  501  502  0.00000000000E+00 -0.00000000000E+00 -0.20895834769E+03  0.20895834769E+03  0.00000000000E+00 0. -1.
         23    2    1    2    0    0  0.84121049968E+02  0.89985064499E+02  0.13349209825E+03  0.20333250823E+03  0.91380007264E+02 0.  0.
         23    2    1    2    0    0 -0.11718466915E+03  0.11688004235E+03  0.21851413429E+03  0.28902047422E+03  0.91603584284E+02 0.  0.
        -11    1    3    3    0    0  0.67601137444E+01  0.71191975198E+02  0.45939114633E+02  0.84996463007E+02  0.00000000000E+00 0.  1.
         11    1    3    3    0    0  0.77360936224E+02  0.18793089301E+02  0.87552983617E+02  0.11833604522E+03  0.00000000000E+00 0. -1.
        -13    1    4    4    0    0  0.34515879773E+01  0.21783645505E+02  0.17136671746E+00  0.22056065778E+02  0.00000000000E+00 0.  1.
         13    1    4    4    0    0 -0.12063625712E+03  0.95096396843E+02  0.21834276757E+03  0.26696440845E+03  0.00000000000E+00 0. -1.
          2    1    1    2  501    0  0.33063619179E+02 -0.20686510685E+03 -0.59730348740E+02  0.21783959673E+03  0.00000000000E+00 0. -1.
<scales pt_clust_5="13000.00000" pt_clust_6="13000.00000" pt_clust_7="13000.00000" pt_clust_8="13000.00000" pt_clust_9="192.92666"></scales>
<clustering>
<clus scale="   91.380">  5  6 -1 -1</clus>
<clus scale="   91.604">  7  8 -1 -1</clus>
<clus scale="  153.375">  1  5  2 -1</clus>
<clus scale="  192.927">  2  9  1 -1</clus>
<clus scale="  192.927">  2  5  1 -1</clus>
</clustering>
</event>
<event>
 9    1  0.1399746E-005  0.1030064E+03  0.7546771E-02  0.1275144E+00
         21   -1    0    0  501  502  0.00000000000E+00  0.00000000000E+00  0.31348449091E+02  0.31348449091E+02  0.00000000000E+00 0.  1.
          3   -1    0    0  502    0 -0.00000000000E+00 -0.00000000000E+00 -0.49364693570E+03  0.49364693570E+03  0.00000000000E+00 0. -1.
         23    2    1    2    0    0  0.34753868083E+02  0.19517227856E+02 -0.23948320896E+03  0.25908061373E+03  0.90453322247E+02 0.  0.
         23    2    1    2    0    0 -0.56049598935E+02  0.25168467473E+01 -0.20079612638E+03  0.22818081263E+03  0.92733525910E+02 0.  0.
        -13    1    4    4    0    0 -0.75681759209E+02 -0.20010998642E+02 -0.15165529974E+03  0.17066780213E+03  0.00000000000E+00 0.  1.
         13    1    4    4    0    0  0.19632160275E+02  0.22527845389E+02 -0.49140826632E+02  0.57513010502E+02  0.00000000000E+00 0. -1.
        -13    1    3    3    0    0  0.41874017727E+02 -0.83348038651E+01 -0.22058156588E+03  0.22467560954E+03  0.00000000000E+00 0. -1.
         13    1    3    3    0    0 -0.71201496440E+01  0.27852031721E+02 -0.18901643079E+02  0.34405004186E+02  0.00000000000E+00 0.  1.
          3    1    1    2  501    0  0.21295730852E+02 -0.22034074603E+02 -0.22019151272E+02  0.37733958431E+02  0.00000000000E+00 0. -1.
<scales pt_clust_5="13000.00000" pt_clust_6="13000.00000" pt_clust_7="13000.00000" pt_clust_8="13000.00000" pt_clust_9="30.64325"></scales>
<clustering>
<clus scale="   30.643">  1  9  2 -1</clus>
<clus scale="   90.453">  7  8 -1 -1</clus>
<clus scale="   92.734">  5  6 -1 -1</clus>
<clus scale="  100.958">  2  7  1 -1</clus>
<clus scale="   30.643">  1  5  2 -1</clus>
</clustering>
</event>
<event>
 9    1  0.2247539E-005  0.1022083E+03  0.7546771E-02  0.1276285E+00
         21   -1    0    0  501  502  0.00000000000E+00  0.00000000000E+00  0.21396975561E+03  0.21396975561E+03  0.00000000000E+00 0. -1.
          2   -1    0    0  502    0 -0.00000000000E+00 -0.00000000000E+00 -0.44809240461E+03  0.44809240461E+03  0.00000000000E+00 0. -1.
         23    2    1    2    0    0 -0.44767899256E+02  0.11282131858E+02 -0.41864391643E+03  0.43085856419E+03  0.90801554341E+02 0.  0.
         23    2    1    2    0    0  0.16570340603E+02  0.24630982697E+01  0.83370102421E+02  0.12529990464E+03  0.92026349944E+02 0.  0.
        -11    1    4    4    0    0  0.36192938113E+02  0.28098304146E+02  0.12609881331E+02  0.47523179316E+02  0.00000000000E+00 0.  1.
         11    1    4    4    0    0 -0.19622597509E+02 -0.25635205876E+02  0.70760221090E+02  0.77776725323E+02  0.00000000000E+00 0. -1.
        -11    1    3    3    0    0  0.28109770642E+02  0.41774550143E+01 -0.13024422620E+03  0.13330854734E+03  0.00000000000E+00 0.  1.
         11    1    3    3    0    0 -0.72877669898E+02  0.71046768440E+01 -0.28839969023E+03  0.29755001685E+03  0.00000000000E+00 0. -1.
          2    1    1    2  501    0  0.28197558653E+02 -0.13745230128E+02  0.10115116502E+03  0.10590369139E+03  0.00000000000E+00 0. -1.
<scales pt_clust_5="13000.00000" pt_clust_6="13000.00000" pt_clust_7="13000.00000" pt_clust_8="13000.00000" pt_clust_9="31.36931"></scales>
<clustering>
<clus scale="   31.369">  1  9  2 -1</clus>
<clus scale="   90.802">  7  8 -1 -1</clus>
<clus scale="   92.026">  5  6 -1 -1</clus>
<clus scale="  101.107">  2  7  1 -1</clus>
<clus scale="   31.369">  1  5  2 -1</clus>
</clustering>
</event>
<event>
 9    1  0.1399746E-005  0.1065019E+03  0.7546771E-02  0.1268629E+00
         21   -1    0    0  501  502  0.00000000000E+00  0.00000000000E+00  0.39919496427E+02  0.39919496427E+02  0.00000000000E+00 0. -1.
          1   -1    0    0  502    0 -0.00000000000E+00 -0.00000000000E+00 -0.50978706469E+03  0.50978706469E+03  0.00000000000E+00 0. -1.
         23    2    1    2    0    0  0.19653366004E+02  0.34816893322E+02 -0.28526970433E+03  0.30296897303E+03  0.93877172724E+02 0.  0.
         23    2    1    2    0    0 -0.16992313170E+02 -0.69800311548E+02 -0.17610108009E+03  0.21063888882E+03  0.90533578718E+02 0.  0.
        -11    1    4    4    0    0 -0.22830924164E+02  0.95318544888E+01 -0.10408939177E+02  0.26841262321E+02  0.00000000000E+00 0.  1.
         11    1    4    4    0    0  0.58386109938E+01 -0.79332166036E+02 -0.16569214091E+03  0.18379762650E+03  0.00000000000E+00 0. -1.
        -11    1    3    3    0    0 -0.36709111953E+02  0.25514127025E+02 -0.13486405056E+03  0.14208040580E+03  0.00000000000E+00 0.  1.
         11    1    3    3    0    0  0.56362477957E+02  0.93027662967E+01 -0.15040565377E+03  0.16088856723E+03  0.00000000000E+00 0. -1.
          1    1    1    2  501    0 -0.26610528337E+01  0.34983418226E+02 -0.84967838502E+01  0.36098699267E+02  0.00000000000E+00 0. -1.
<scales pt_clust_5="13000.00000" pt_clust_6="13000.00000" pt_clust_7="13000.00000" pt_clust_8="13000.00000" pt_clust_9="35.08448"></scales>
<clustering>
<clus scale="   35.084">  1  9  2 -1</clus>
<clus scale="   90.534">  5  6 -1 -1</clus>
<clus scale="   93.877">  7  8 -1 -1</clus>
<clus scale="  103.567">  1  5  2 -1</clus>
<clus scale="   35.084">  1  5  2 -1</clus>
</clustering>
</event>
<event>
 9    1  0.1399746E-005  0.9350705E+02  0.7546771E-02  0.1295607E+00
         -3   -1    0    0    0  501 -0.00000000000E+00  0.00000000000E+00  0.47617429355E+03  0.47617429355E+03  0.00000000000E+00 0.  1.
         21   -1    0    0  501  502  0.00000000000E+00 -0.00000000000E+00 -0.60715289376E+02  0.60715289376E+02  0.00000000000E+00 0.  1.
         23    2    1    2    0    0 -0.24822866859E+02 -0.25754827107E+02  0.32866060234E+03  0.34248124825E+03  0.89421071522E+02 0.  0.
         23    2    1    2    0    0 -0.26542577274E+02 -0.10774712752E+02  0.89964418364E+02  0.13129859063E+03  0.91242098213E+02 0.  0.
        -13    1    3    3    0    0  0.31203709873E+02 -0.59354143260E+01  0.66876181884E+02  0.74035966641E+02  0.00000000000E+00 0. -1.
         13    1    3    3    0    0 -0.56026576732E+02 -0.19819412781E+02  0.26178442046E+03  0.26844528161E+03  0.00000000000E+00 0.  1.
        -13    1    4    4    0    0 -0.49026614597E+02  0.18977958660E+02  0.73902989777E+02  0.90694121925E+02  0.00000000000E+00 0.  1.
         13    1    4    4    0    0  0.22484037322E+02 -0.29752671412E+02  0.16061428587E+02  0.40604468704E+02  0.00000000000E+00 0. -1.
         -3    1    1    2    0  502  0.51365444133E+02  0.36529539858E+02 -0.31660165314E+01  0.63109744049E+02  0.00000000000E+00 0.  1.
<scales pt_clust_5="13000.00000" pt_clust_6="13000.00000" pt_clust_7="13000.00000" pt_clust_8="13000.00000" pt_clust_9="63.03028"></scales>
<clustering>
<clus scale="   63.030">  2  9  1 -1</clus>
<clus scale="   89.421">  5  6 -1 -1</clus>
<clus scale="   91.242">  7  8 -1 -1</clus>
<clus scale="   91.731">  1  5  2 -1</clus>
<clus scale="   63.030">  2  5  1 -1</clus>
</clustering>
</event>
<event>
 9    1  0.1399746E-005  0.1178738E+03  0.7546771E-02  0.1247064E+00
         21   -1    0    0  501  502  0.00000000000E+00  0.00000000000E+00  0.15111654994E+03  0.15111654994E+03  0.00000000000E+00 0.  1.
          3   -1    0    0  502    0 -0.00000000000E+00 -0.00000000000E+00 -0.16051782948E+03  0.16051782948E+03  0.00000000000E+00 0. -1.
         23    2    1    2    0    0 -0.51043324480E+02 -0.13144147448E+02 -0.24810097253E+02  0.10934181051E+03  0.92530540982E+02 0.  0.
         23    2    1    2    0    0  0.91511580607E+02  0.22203285542E+02 -0.34603212069E+02  0.13732372360E+03  0.93771357583E+02 0.  0.
        -11    1    4    4    0    0  0.47757001406E+02 -0.30272894267E+02  0.75452386534E+01  0.57044806398E+02  0.00000000000E+00 0.  1.
         11    1    4    4    0    0  0.43754579201E+02  0.52476179809E+02 -0.42148450722E+02  0.80278917199E+02  0.00000000000E+00 0. -1.
        -13    1    3    3    0    0 -0.38292581338E+01 -0.47751551652E+02 -0.95715780821E+01  0.48851704270E+02  0.00000000000E+00 0.  1.
         13    1    3    3    0    0 -0.47214066346E+02  0.34607404205E+02 -0.15238519171E+02  0.60490106243E+02  0.00000000000E+00 0. -1.
          3    1    1    2  501    0 -0.40468256127E+02 -0.90591380946E+01  0.50012029785E+02  0.64968845304E+02  0.00000000000E+00 0. -1.
<scales pt_clust_5="13000.00000" pt_clust_6="13000.00000" pt_clust_7="13000.00000" pt_clust_8="13000.00000" pt_clust_9="41.46984"></scales>
<clustering>
<clus scale="   41.470">  1  9  2 -1</clus>
<clus scale="   92.531">  7  8 -1 -1</clus>
<clus scale="   93.771">  5  6 -1 -1</clus>
<clus scale="  116.889">  2  7  1 -1</clus>
<clus scale="   41.470">  1  5  2 -1</clus>
</clustering>
</event>
<event>
 9    1  0.1399746E-005  0.9980701E+02  0.7546771E-02  0.1282074E+00
         21   -1    0    0  501  502  0.00000000000E+00  0.00000000000E+00  0.19542139351E+02  0.19542139351E+02  0.00000000000E+00 0.  1.
          2   -1    0    0  502    0 -0.00000000000E+00 -0.00000000000E+00 -0.75951889669E+03  0.75951889669E+03  0.00000000000E+00 0. -1.
         23    2    1    2    0    0 -0.19737428735E+02  0.23875830534E+02 -0.32692663291E+03  0.34189608157E+03  0.95143501644E+02 0.  0.
         23    2    1    2    0    0 -0.15001488523E+02 -0.37620906844E+02 -0.24428634666E+03  0.26431550501E+03  0.92447226751E+02 0.  0.
        -11    1    3    3    0    0 -0.12179946717E+02 -0.33757152205E+02 -0.72269353001E+02  0.80689254614E+02  0.00000000000E+00 0.  1.
         11    1    3    3    0    0 -0.75574820184E+01  0.57632982738E+02 -0.25465727991E+03  0.26120682695E+03  0.00000000000E+00 0. -1.
        -13    1    4    4    0    0 -0.41614105773E+02  0.12535604748E+01 -0.17917275029E+03  0.18394613249E+03  0.00000000000E+00 0. -1.
         13    1    4    4    0    0  0.26612617249E+02 -0.38874467318E+02 -0.65113596371E+02  0.80369372515E+02  0.00000000000E+00 0.  1.
          2    1    1    2  501    0  0.34738917259E+02  0.13745076310E+02 -0.16876377777E+03  0.17284944947E+03  0.00000000000E+00 0. -1.
<scales pt_clust_5="13000.00000" pt_clust_6="13000.00000" pt_clust_7="13000.00000" pt_clust_8="13000.00000" pt_clust_9="37.35935"></scales>
<clustering>
<clus scale="   37.359">  1  9  2 -1</clus>
<clus scale="   92.447">  7  8 -1 -1</clus>
<clus scale="   95.144">  5  6 -1 -1</clus>
<clus scale="   97.240">  1  7  2 -1</clus>
<clus scale="   37.359">  1  5  2 -1</clus>
</clustering>
</event>
<event>
 9    1  0.1399746E-005  0.1015196E+03  0.7546771E-02  0.1281699E+00
          1   -1    0    0  502    0 -0.00000000000E+00  0.00000000000E+00  0.16345037058E+03  0.16345037058E+03  0.00000000000E+00 0. -1.
         21   -1    0    0  501  502  0.00000000000E+00 -0.00000000000E+00 -0.11226160557E+03  0.11226160557E+03  0.00000000000E+00 0. -1.
         23    2    1    2    0    0 -0.46949801721E+01  0.25733082539E+02  0.75082035737E+02  0.11830738739E+03  0.87607599235E+02 0.  0.
         23    2    1    2    0    0  0.37671490525E+02 -0.32159844857E+02  0.10879571694E+02  0.10905271105E+03  0.96543937601E+02 0.  0.
        -13    1    4    4    0    0 -0.31776877678E+02 -0.11518294545E+02 -0.67966347957E+01  0.34476590735E+02  0.00000000000E+00 0.  1.
         13    1    4    4    0    0  0.69448368203E+02 -0.20641550312E+02  0.17676206489E+02  0.74576120314E+02  0.00000000000E+00 0. -1.
        -13    1    3    3    0    0  0.33541650792E+02  0.20742201229E+02  0.68710131769E+02  0.79223503188E+02  0.00000000000E+00 0. -1.
         13    1    3    3    0    0 -0.38236630964E+02  0.49908813103E+01  0.63719039681E+01  0.39083884197E+02  0.00000000000E+00 0.  1.
          1    1    1    2  501    0 -0.32976510353E+02  0.64267623180E+01 -0.34772842415E+02  0.48351877715E+02  0.00000000000E+00 0. -1.
<scales pt_clust_5="13000.00000" pt_clust_6="13000.00000" pt_clust_7="13000.00000" pt_clust_8="13000.00000" pt_clust_9="33.59693"></scales>
<clustering>
<clus scale="   33.597">  2  9  1 -1</clus>
<clus scale="   87.608">  7  8 -1 -1</clus>
<clus scale="   93.062">  1  7  2 -1</clus>
<clus scale="   96.544">  5  6 -1 -1</clus>
<clus scale="   33.597">  2  5  1 -1</clus>
</clustering>
</event>
<event>
 9    1  0.1399746E-005  0.1280803E+03  0.7546771E-02  0.1231696E+00
         21   -1    0    0  501  502  0.00000000000E+00  0.00000000000E+00  0.80092649878E+02  0.80092649878E+02  0.00000000000E+00 0.  1.
         -1   -1    0    0    0  501 -0.00000000000E+00 -0.00000000000E+00 -0.76964213439E+03  0.76964213439E+03  0.00000000000E+00 0.  1.
         23    2    1    2    0    0  0.87191807577E+02 -0.54282983084E+02 -0.61282108372E+03  0.62814065349E+03  0.91988838216E+02 0.  0.
         23    2    1    2    0    0 -0.25716044672E+02  0.20847049391E+02 -0.10459457033E+03  0.14626980209E+03  0.96741492842E+02 0.  0.
        -11    1    4    4    0    0 -0.13636734869E+02  0.59486216025E+02 -0.71312839013E+02  0.93862087357E+02  0.00000000000E+00 0.  1.
         11    1    4    4    0    0 -0.12079309803E+02 -0.38639166634E+02 -0.33281731319E+02  0.52407714729E+02  0.00000000000E+00 0. -1.
        -13    1    3    3    0    0  0.19048888883E+02 -0.62746287279E+02 -0.37138979014E+03  0.37713436990E+03  0.00000000000E+00 0.  1.
         13    1    3    3    0    0  0.68142918694E+02  0.84633041943E+01 -0.24143129358E+03  0.25100628360E+03  0.00000000000E+00 0. -1.
         -1    1    1    2    0  502 -0.61475762905E+02  0.33435933693E+02  0.27866169546E+02  0.75324328685E+02  0.00000000000E+00 0.  1.
<scales pt_clust_5="13000.00000" pt_clust_6="13000.00000" pt_clust_7="13000.00000" pt_clust_8="13000.00000" pt_clust_9="69.98022"></scales>
<clustering>
<clus scale="   69.980">  1  9  2 -1</clus>
<clus scale="   91.989">  7  8 -1 -1</clus>
<clus scale="   96.741">  5  6 -1 -1</clus>
<clus scale="  124.529">  2  7  1 -1</clus>
<clus scale="   69.980">  1  5  2 -1</clus>
</clustering>
</event>
<event>
 9    1  0.1399746E-005  0.1027399E+03  0.7546771E-02  0.1274822E+00
          2   -1    0    0  502    0 -0.00000000000E+00  0.00000000000E+00  0.12135889933E+03  0.12135889933E+03  0.00000000000E+00 0. -1.
         21   -1    0    0  501  502  0.00000000000E+00 -0.00000000000E+00 -0.12765551884E+03  0.12765551884E+03  0.00000000000E+00 0. -1.
         23    2    1    2    0    0 -0.54759935229E+02  0.38404994399E+01  0.17993803359E+02  0.10883169181E+03  0.92234268254E+02 0.  0.
         23    2    1    2    0    0  0.29398753379E+02  0.42565847927E+01 -0.44964872628E+02  0.10647538012E+03  0.91830069077E+02 0.  0.
        -11    1    4    4    0    0 -0.63450755236E+01 -0.28898445843E+02 -0.49334966747E+02  0.57526681631E+02  0.00000000000E+00 0.  1.
         11    1    4    4    0    0  0.35743828903E+02  0.33155030635E+02  0.43700941193E+01  0.48948698488E+02  0.00000000000E+00 0. -1.
        -11    1    3    3    0    0 -0.38018129936E+02  0.27052632997E+02  0.48293296267E+02  0.67152554830E+02  0.00000000000E+00 0. -1.
         11    1    3    3    0    0 -0.16741805293E+02 -0.23212133558E+02 -0.30299492908E+02  0.41679136978E+02  0.00000000000E+00 0.  1.
          2    1    1    2  501    0  0.25361181849E+02 -0.80970842326E+01  0.20674449758E+02  0.33707346242E+02  0.00000000000E+00 0. -1.
<scales pt_clust_5="13000.00000" pt_clust_6="13000.00000" pt_clust_7="13000.00000" pt_clust_8="13000.00000" pt_clust_9="26.62242"></scales>
<clustering>
<clus scale="   26.622">  2  9  1 -1</clus>
<clus scale="   91.830">  5  6 -1 -1</clus>
<clus scale="   92.234">  7  8 -1 -1</clus>
<clus scale="  102.377">  2  5  1 -1</clus>
<clus scale="   26.622">  2  5  1 -1</clus>
</clustering>
</event>
<event>
 9    1  0.1399746E-005  0.1255580E+03  0.7546771E-02  0.1238386E+00
         21   -1    0    0  501  502  0.00000000000E+00  0.00000000000E+00  0.15577547834E+03  0.15577547834E+03  0.00000000000E+00 0.  1.
          1   -1    0    0  502    0 -0.00000000000E+00 -0.00000000000E+00 -0.37131911061E+03  0.37131911061E+03  0.00000000000E+00 0. -1.
         23    2    1    2    0    0  0.29046089566E+02  0.49822246257E+02 -0.30260374403E+03  0.32427190362E+03  0.10127837890E+03 0.  0.
         23    2    1    2    0    0 -0.24919586066E+00 -0.44061095261E+02  0.11429709886E+02  0.12169063473E+03  0.11285623642E+03 0.  0.
        -11    1    3    3    0    0  0.35637111111E+02 -0.59833240407E+01 -0.33205987734E+02  0.49075874687E+02  0.00000000000E+00 0.  1.
         11    1    3    3    0    0 -0.65910215454E+01  0.55805570297E+02 -0.26939775630E+03  0.27519602893E+03  0.00000000000E+00 0. -1.
        -13    1    4    4    0    0 -0.14700294974E+02  0.19336436895E+02 -0.34420012097E+02  0.42127588311E+02  0.00000000000E+00 0. -1.
         13    1    4    4    0    0  0.14451099113E+02 -0.63397532157E+02  0.45849721983E+02  0.79563046416E+02  0.00000000000E+00 0.  1.
          1    1    1    2  501    0 -0.28796893705E+02 -0.57611509951E+01  0.75630401873E+02  0.81132050605E+02  0.00000000000E+00 0. -1.
<scales pt_clust_5="13000.00000" pt_clust_6="13000.00000" pt_clust_7="13000.00000" pt_clust_8="13000.00000" pt_clust_9="29.36753"></scales>
<clustering>
<clus scale="   29.368">  1  9  2 -1</clus>
<clus scale="  101.278">  5  6 -1 -1</clus>
<clus scale="  112.856">  7  8 -1 -1</clus>
<clus scale="  115.263">  2  5  1 -1</clus>
<clus scale="   29.368">  1  5  2 -1</clus>
</clustering>
</event>
<event>
 9    1  0.1399746E-005  0.3039339E+03  0.7546771E-02  0.1083315E+00
         21   -1    0    0  501  502  0.00000000000E+00  0.00000000000E+00  0.28469887986E+03  0.28469887986E+03  0.00000000000E+00 0.  1.
         -4   -1    0    0    0  501 -0.00000000000E+00 -0.00000000000E+00 -0.44955318609E+03  0.44955318609E+03  0.00000000000E+00 0.  1.
         23    2    1    2    0    0  0.43987978554E+02 -0.28790247263E+03 -0.24075350282E+03  0.38864097753E+03  0.90866849247E+02 0.  0.
         23    2    1    2    0    0 -0.12934628268E+02  0.28797190906E+03  0.52141458473E+02  0.30651191317E+03  0.90198094258E+02 0.  0.
        -11    1    4    4    0    0  0.25676208745E+02  0.21948052754E+03  0.21104287264E+02  0.22198279349E+03  0.00000000000E+00 0.  1.
         11    1    4    4    0    0 -0.38610837013E+02  0.68491381520E+02  0.31037171209E+02  0.84529119681E+02  0.00000000000E+00 0. -1.
        -11    1    3    3    0    0 -0.25798888106E+01 -0.44771004958E+02 -0.85178963103E+02  0.96262944410E+02  0.00000000000E+00 0.  1.
         11    1    3    3    0    0  0.46567867365E+02 -0.24313146767E+03 -0.15557453971E+03  0.29237803312E+03  0.00000000000E+00 0. -1.
         -4    1    1    2    0  502 -0.31053350286E+02 -0.69436429220E-01  0.23757738121E+02  0.39099175260E+02  0.00000000000E+00 0.  1.
<scales pt_clust_5="13000.00000" pt_clust_6="13000.00000" pt_clust_7="13000.00000" pt_clust_8="13000.00000" pt_clust_9="31.05343"></scales>
<clustering>
<clus scale="   31.053">  1  9  2 -1</clus>
<clus scale="   90.198">  5  6 -1 -1</clus>
<clus scale="   90.867">  7  8 -1 -1</clus>
<clus scale="  303.735">  1  5  2 -1</clus>
<clus scale="   31.053">  1  5  2 -1</clus>
</clustering>
</event>
<event>
 9    1  0.1399746E-005  0.2406708E+03  0.7546771E-02  0.1145289E+00
         21   -1    0    0  501  502  0.00000000000E+00  0.00000000000E+00  0.30912420556E+03  0.30912420556E+03  0.00000000000E+00 0.  1.
          2   -1    0    0  502    0 -0.00000000000E+00 -0.00000000000E+00 -0.39382520201E+03  0.39382520201E+03  0.00000000000E+00 0. -1.
         23    2    1    2    0    0  0.87665971323E+02  0.14456815786E+02 -0.77167920678E+02  0.14911882834E+03  0.91581739074E+02 0.  0.
         23    2    1    2    0    0 -0.11399085946E+03  0.19955624461E+03  0.14807109526E+03  0.28792223450E+03  0.90319173291E+02 0.  0.
        -11    1    3    3    0    0  0.48387363944E+02 -0.66156906898E+01 -0.90291276589E+02  0.10265290537E+03  0.00000000000E+00 0.  1.
         11    1    3    3    0    0  0.39278607378E+02  0.21072506476E+02  0.13123355911E+02  0.46465922966E+02  0.00000000000E+00 0. -1.
        -13    1    4    4    0    0 -0.14576806073E+02  0.11229213191E+03  0.53016634885E+02  0.12503107509E+03  0.00000000000E+00 0.  1.
         13    1    4    4    0    0 -0.99414053382E+02  0.87264112705E+02  0.95054460377E+02  0.16289115941E+03  0.00000000000E+00 0. -1.
          2    1    1    2  501    0  0.26324888133E+02 -0.21401306040E+03 -0.15560417103E+03  0.26590834473E+03  0.00000000000E+00 0. -1.
<scales pt_clust_5="13000.00000" pt_clust_6="13000.00000" pt_clust_7="13000.00000" pt_clust_8="13000.00000" pt_clust_9="223.08056"></scales>
<clustering>
<clus scale="   90.319">  7  8 -1 -1</clus>
<clus scale="   91.582">  5  6 -1 -1</clus>
<clus scale="  127.599">  2  5  1 -1</clus>
<clus scale="  223.081">  1  9  2 -1</clus>
<clus scale="  223.081">  1  5  2 -1</clus>
</clustering>
</event>
<event>
 9    1  0.1399746E-005  0.1323287E+03  0.7546771E-02  0.1224401E+00
         21   -1    0    0  501  502  0.00000000000E+00  0.00000000000E+00  0.42062555930E+02  0.42062555930E+02  0.00000000000E+00 0. -1.
         -4   -1    0    0    0  501 -0.00000000000E+00 -0.00000000000E+00 -0.62319755732E+03  0.62319755732E+03  0.00000000000E+00 0.  1.
         23    2    1    2    0    0  0.36771401129E+02  0.88478198480E+02 -0.42954454332E+03  0.44924881352E+03  0.90196752772E+02 0.  0.
         23    2    1    2    0    0 -0.17388354446E+02 -0.94471168171E+02 -0.12317189938E+03  0.18109378746E+03  0.91632344590E+02 0.  0.
        -11    1    3    3    0    0 -0.29038095490E+02  0.30274186354E+02 -0.17542389379E+03  0.18036984189E+03  0.00000000000E+00 0. -1.
         11    1    3    3    0    0  0.65809496620E+02  0.58204012127E+02 -0.25412064953E+03  0.26887897164E+03  0.00000000000E+00 0.  1.
        -13    1    4    4    0    0  0.21147194680E+02 -0.37335095416E+02 -0.35692040269E+01  0.43056386402E+02  0.00000000000E+00 0. -1.
         13    1    4    4    0    0 -0.38535549126E+02 -0.57136072755E+02 -0.11960269535E+03  0.13803740106E+03  0.00000000000E+00 0.  1.
         -4    1    1    2    0  502 -0.19383046684E+02  0.59929696907E+01 -0.28418558687E+02  0.34917512258E+02  0.00000000000E+00 0.  1.
<scales pt_clust_5="13000.00000" pt_clust_6="13000.00000" pt_clust_7="13000.00000" pt_clust_8="13000.00000" pt_clust_9="20.28838"></scales>
<clustering>
<clus scale="   20.288">  1  9  2 -1</clus>
<clus scale="   90.197">  5  6 -1 -1</clus>
<clus scale="   91.632">  7  8 -1 -1</clus>
<clus scale="  131.339">  2  5  1 -1</clus>
<clus scale="   20.288">  1  5  2 -1</clus>
</clustering>
</event>
<event>
 9    1  0.1399746E-005  0.9318876E+02  0.7546771E-02  0.1297080E+00
         -1   -1    0    0    0  501 -0.00000000000E+00  0.00000000000E+00  0.26728060233E+03  0.26728060233E+03  0.00000000000E+00 0.  1.
         21   -1    0    0  501  502  0.00000000000E+00 -0.00000000000E+00 -0.49629249941E+02  0.49629249941E+02  0.00000000000E+00 0. -1.
         23    2    1    2    0    0 -0.65816040579E+01 -0.47297216649E+01  0.12311577316E+03  0.15210602121E+03  0.88955383814E+02 0.  0.
         23    2    1    2    0    0  0.25334740744E+02 -0.56757147997E+01  0.10408594134E+03  0.14132697736E+03  0.92007437287E+02 0.  0.
        -11    1    4    4    0    0 -0.10226095535E+02  0.31731742155E+02  0.11390235990E+02  0.35230866666E+02  0.00000000000E+00 0.  1.
         11    1    4    4    0    0  0.35560836279E+02 -0.37407456955E+02  0.92695705353E+02  0.10609611069E+03  0.00000000000E+00 0. -1.
        -11    1    3    3    0    0  0.25593587810E+02 -0.30963659375E+02  0.29944844407E+02  0.50104626986E+02  0.00000000000E+00 0. -1.
         11    1    3    3    0    0 -0.32175191868E+02  0.26233937710E+02  0.93170928752E+02  0.10200139423E+03  0.00000000000E+00 0.  1.
         -1    1    1    2    0  502 -0.18753136686E+02  0.10405436465E+02 -0.95503621088E+01  0.23476853707E+02  0.00000000000E+00 0.  1.
<scales pt_clust_5="13000.00000" pt_clust_6="13000.00000" pt_clust_7="13000.00000" pt_clust_8="13000.00000" pt_clust_9="21.44652"></scales>
<clustering>
<clus scale="   21.447">  2  9  1 -1</clus>
<clus scale="   88.955">  7  8 -1 -1</clus>
<clus scale="   90.177">  1  7  2 -1</clus>
<clus scale="   92.007">  5  6 -1 -1</clus>
<clus scale="   21.447">  2  5  1 -1</clus>
</clustering>
</event>
<event>
 9    1  0.1399746E-005  0.1018070E+03  0.7546771E-02  0.1277297E+00
         21   -1    0    0  501  502  0.00000000000E+00  0.00000000000E+00  0.30823764280E+03  0.30823764280E+03  0.00000000000E+00 0.  1.
          1   -1    0    0  502    0 -0.00000000000E+00 -0.00000000000E+00 -0.62008558755E+02  0.62008558755E+02  0.00000000000E+00 0. -1.
         23    2    1    2    0    0 -0.29789256347E+02  0.20805948272E+02  0.33434324917E+02  0.10282126560E+03  0.90189086371E+02 0.  0.
         23    2    1    2    0    0  0.60884276568E+02 -0.78885535124E+01  0.97537861404E+02  0.14735032647E+03  0.91811545531E+02 0.  0.
        -11    1    3    3    0    0 -0.50458944213E+02  0.19420390313E+02 -0.97369125758E+01  0.54936909974E+02  0.00000000000E+00 0. -1.
         11    1    3    3    0    0  0.20669687866E+02  0.13855579593E+01  0.43171237493E+02  0.47884355629E+02  0.00000000000E+00 0.  1.
        -13    1    4    4    0    0  0.40005694851E+02  0.30836513950E+02  0.89293265465E+02  0.10258963627E+03  0.00000000000E+00 0.  1.
         13    1    4    4    0    0  0.20878581717E+02 -0.38725067462E+02  0.82445959386E+01  0.44760690194E+02  0.00000000000E+00 0. -1.
          1    1    1    2  501    0 -0.31095020221E+02 -0.12917394759E+02  0.11525689773E+03  0.12007460949E+03  0.00000000000E+00 0. -1.
<scales pt_clust_5="13000.00000" pt_clust_6="13000.00000" pt_clust_7="13000.00000" pt_clust_8="13000.00000" pt_clust_9="33.67134"></scales>
<clustering>
<clus scale="   33.671">  1  9  2 -1</clus>
<clus scale="   90.189">  5  6 -1 -1</clus>
<clus scale="   91.812">  7  8 -1 -1</clus>
<clus scale="  100.346">  2  5  1 -1</clus>
<clus scale="   33.671">  1  5  2 -1</clus>
</clustering>
</event>
<event>
 9    1  0.1399746E-005  0.9408483E+02  0.7546771E-02  0.1296216E+00
         21   -1    0    0  501  502  0.00000000000E+00  0.00000000000E+00  0.95390911165E+02  0.95390911165E+02  0.00000000000E+00 0.  1.
          1   -1    0    0  502    0 -0.00000000000E+00 -0.00000000000E+00 -0.31621998763E+03  0.31621998763E+03  0.00000000000E+00 0. -1.
         23    2    1    2    0    0  0.94298474826E+01 -0.18719573905E+02 -0.26248300804E+03  0.27708904760E+03  0.86265093281E+02 0.  0.
         23    2    1    2    0    0 -0.29610339285E+02  0.22910567669E+02  0.51763410451E+02  0.11156497333E+03  0.91463797809E+02 0.  0.
        -11    1    4    4    0    0 -0.27466173556E+02 -0.92079870871E+01  0.69154934377E+02  0.74977214303E+02  0.00000000000E+00 0.  1.
         11    1    4    4    0    0 -0.21441657297E+01  0.32118554757E+02 -0.17391523926E+02  0.36587759029E+02  0.00000000000E+00 0. -1.
        -13    1    3    3    0    0  0.10991932833E+02 -0.52749102609E+02 -0.14186853231E+03  0.15175628776E+03  0.00000000000E+00 0. -1.
         13    1    3    3    0    0 -0.15620853509E+01  0.34029528703E+02 -0.12061447573E+03  0.12533275984E+03  0.00000000000E+00 0.  1.
          1    1    1    2  501    0  0.20180491803E+02 -0.41909937642E+01 -0.10109478877E+02  0.22956877865E+02  0.00000000000E+00 0. -1.
<scales pt_clust_5="13000.00000" pt_clust_6="13000.00000" pt_clust_7="13000.00000" pt_clust_8="13000.00000" pt_clust_9="20.61108"></scales>
<clustering>
<clus scale="   20.611">  1  9  2 -1</clus>
<clus scale="   86.265">  7  8 -1 -1</clus>
<clus scale="   89.039">  2  7  1 -1</clus>
<clus scale="   91.464">  5  6 -1 -1</clus>
<clus scale="   20.611">  1  5  2 -1</clus>
</clustering>
</event>
<event>
 9    1  0.1399746E-005  0.1153376E+03  0.7546771E-02  0.1251106E+00
         -4   -1    0    0    0  501 -0.00000000000E+00  0.00000000000E+00  0.14322653949E+03  0.14322653949E+03  0.00000000000E+00 0.  1.
         21   -1    0    0  501  502  0.00000000000E+00 -0.00000000000E+00 -0.59616726901E+03  0.59616726901E+03  0.00000000000E+00 0.  1.
         23    2    1    2    0    0  0.80439492830E+02 -0.55083514611E+02  0.63391480473E+02  0.14712227777E+03  0.90120914510E+02 0.  0.
         23    2    1    2    0    0 -0.41226347867E+02 -0.38348713685E+02 -0.53964266328E+02  0.11893088452E+03  0.89789629980E+02 0.  0.
        -11    1    4    4    0    0 -0.69655370777E+02 -0.25238188887E+02 -0.43545246064E+02  0.85936169982E+02  0.00000000000E+00 0. -1.
         11    1    4    4    0    0  0.28429022909E+02 -0.13110524798E+02 -0.10419020264E+02  0.32994714536E+02  0.00000000000E+00 0.  1.
        -13    1    3    3    0    0  0.73882492281E+02 -0.31343578394E+02  0.83137835112E+02  0.11555493152E+03  0.00000000000E+00 0.  1.
         13    1    3    3    0    0  0.65570005492E+01 -0.23739936217E+02 -0.19746354639E+02  0.31567346251E+02  0.00000000000E+00 0. -1.
         -4    1    1    2    0  502 -0.39213144963E+02  0.93432228296E+02 -0.46236794367E+03  0.47334064621E+03  0.00000000000E+00 0.  1.
<scales pt_clust_5="13000.00000" pt_clust_6="13000.00000" pt_clust_7="13000.00000" pt_clust_8="13000.00000" pt_clust_9="101.32745"></scales>
<clustering>
<clus scale="   89.790">  5  6 -1 -1</clus>
<clus scale="   90.121">  7  8 -1 -1</clus>
<clus scale="  101.327">  2  9  1 -1</clus>
<clus scale="  115.079">  2  5  1 -1</clus>
<clus scale="  101.327">  2  5  1 -1</clus>
</clustering>
</event>
<event>
 9    1  0.1399746E-005  0.1262973E+03  0.7546771E-02  0.1244228E+00
         21   -1    0    0  501  502  0.00000000000E+00  0.00000000000E+00  0.19327644561E+02  0.19327644561E+02  0.00000000000E+00 0.  1.
          2   -1    0    0  502    0 -0.00000000000E+00 -0.00000000000E+00 -0.88903960102E+03  0.88903960102E+03  0.00000000000E+00 0. -1.
         23    2    1    2    0    0  0.94389759820E+01  0.43173726106E+02 -0.52564707126E+03  0.54053723120E+03  0.11799402483E+03 0.  0.
         23    2    1    2    0    0 -0.32648782877E+02 -0.37464108986E+02 -0.24044903730E+03  0.26149310263E+03  0.89963329763E+02 0.  0.
        -11    1    3    3    0    0  0.56071264151E+01 -0.40891571192E+02 -0.14960360948E+03  0.15519278473E+03  0.00000000000E+00 0.  1.
         11    1    3    3    0    0  0.38318495669E+01  0.84065297298E+02 -0.37604346178E+03  0.38534444647E+03  0.00000000000E+00 0. -1.
        -13    1    4    4    0    0 -0.33178578686E+02 -0.65757173307E+02 -0.15802223331E+03  0.17434405681E+03  0.00000000000E+00 0.  1.
         13    1    4    4    0    0  0.52979580971E+00  0.28293064320E+02 -0.82426803987E+02  0.87149045823E+02  0.00000000000E+00 0. -1.
          2    1    1    2  501    0  0.23209806895E+02 -0.57096171194E+01 -0.10361584791E+03  0.10633691175E+03  0.00000000000E+00 0. -1.
<scales pt_clust_5="13000.00000" pt_clust_6="13000.00000" pt_clust_7="13000.00000" pt_clust_8="13000.00000" pt_clust_9="23.90179"></scales>
<clustering>
<clus scale="   23.902">  1  9  2 -1</clus>
<clus scale="   89.963">  7  8 -1 -1</clus>
<clus scale="  100.607">  1  7  2 -1</clus>
<clus scale="  117.994">  5  6 -1 -1</clus>
<clus scale="   23.902">  1  5  2 -1</clus>
</clustering>
</event>
<event>
 9    1  0.1399746E-005  0.9329629E+02  0.7546771E-02  0.1296703E+00
         21   -1    0    0  501  502  0.00000000000E+00  0.00000000000E+00  0.20750814218E+03  0.20750814218E+03  0.00000000000E+00 0. -1.
         -1   -1    0    0    0  501 -0.00000000000E+00 -0.00000000000E+00 -0.66786571319E+02  0.66786571319E+02  0.00000000000E+00 0.  1.
         23    2    1    2    0    0 -0.10125444543E+02  0.84201289988E+01  0.85358624538E+01  0.93618427942E+02  0.92293693733E+02 0.  0.
         23    2    1    2    0    0  0.21785435073E+02  0.18420475123E+02  0.99945075969E+02  0.13713513504E+03  0.89460091471E+02 0.  0.
        -13    1    3    3    0    0 -0.49824995246E+02  0.35133835151E+01  0.16940698714E+02  0.52743353021E+02  0.00000000000E+00 0. -1.
         13    1    3    3    0    0  0.39699550703E+02  0.49067454837E+01 -0.84048362602E+01  0.40875074921E+02  0.00000000000E+00 0.  1.
        -13    1    4    4    0    0  0.52935214097E+02 -0.67491728432E+01  0.63930345558E+02  0.83275310319E+02  0.00000000000E+00 0.  1.
         13    1    4    4    0    0 -0.31149779024E+02  0.25169647966E+02  0.36014730411E+02  0.53859824717E+02  0.00000000000E+00 0. -1.
         -1    1    1    2    0  502 -0.11659990530E+02 -0.26840604122E+02  0.32240632442E+02  0.43541150525E+02  0.00000000000E+00 0.  1.
<scales pt_clust_5="13000.00000" pt_clust_6="13000.00000" pt_clust_7="13000.00000" pt_clust_8="13000.00000" pt_clust_9="29.26386"></scales>
<clustering>
<clus scale="   29.264">  1  9  2 -1</clus>
<clus scale="   89.460">  7  8 -1 -1</clus>
<clus scale="   90.494">  1  7  2 -1</clus>
<clus scale="   92.294">  5  6 -1 -1</clus>
<clus scale="   29.264">  1  5  2 -1</clus>
</clustering>
</event>
<event>
 9    1  0.1399746E-005  0.1458626E+03  0.7546771E-02  0.1219858E+00
         -1   -1    0    0    0  501 -0.00000000000E+00  0.00000000000E+00  0.26777821688E+03  0.26777821688E+03  0.00000000000E+00 0.  1.
         21   -1    0    0  501  502  0.00000000000E+00 -0.00000000000E+00 -0.53059317304E+03  0.53059317304E+03  0.00000000000E+00 0.  1.
         23    2    1    2    0    0 -0.34334439940E+02  0.43101302029E+02  0.13759857667E+03  0.17482557391E+03  0.92704028982E+02 0.  0.
         23    2    1    2    0    0 -0.58497657956E+02 -0.10945228675E+03  0.47703665094E+02  0.16112904010E+03  0.91022792959E+02 0.  0.
        -11    1    4    4    0    0 -0.49120370946E+02 -0.37112449955E+02  0.61355521359E+02  0.86917459608E+02  0.00000000000E+00 0.  1.
         11    1    4    4    0    0 -0.93772870103E+01 -0.72339836794E+02 -0.13651856265E+02  0.74211580489E+02  0.00000000000E+00 0. -1.
        -13    1    3    3    0    0  0.18468559725E+02 -0.17182429401E+02  0.18529931278E+02  0.31299871112E+02  0.00000000000E+00 0. -1.
         13    1    3    3    0    0 -0.52802999665E+02  0.60283731431E+02  0.11906864539E+03  0.14352570280E+03  0.00000000000E+00 0.  1.
         -1    1    1    2    0  502  0.92832097896E+02  0.66350984720E+02 -0.44811719792E+03  0.46241677591E+03  0.00000000000E+00 0.  1.
<scales pt_clust_5="13000.00000" pt_clust_6="13000.00000" pt_clust_7="13000.00000" pt_clust_8="13000.00000" pt_clust_9="113.97694"></scales>
<clustering>
<clus scale="   91.023">  5  6 -1 -1</clus>
<clus scale="   92.704">  7  8 -1 -1</clus>
<clus scale="  107.845">  1  7  2 -1</clus>
<clus scale="  113.977">  2  9  1 -1</clus>
<clus scale="  113.977">  2  5  1 -1</clus>
</clustering>
</event>
<event>
 9    1  0.1399746E-005  0.1075786E+03  0.7546771E-02  0.1266302E+00
          2   -1    0    0  502    0 -0.00000000000E+00  0.00000000000E+00  0.11005138362E+04  0.11005138362E+04  0.00000000000E+00 0. -1.
         21   -1    0    0  501  502  0.00000000000E+00 -0.00000000000E+00 -0.15061738331E+02  0.15061738331E+02  0.00000000000E+00 0. -1.
         23    2    1    2    0    0  0.37136432492E+02 -0.24678877087E+02  0.43095110770E+03  0.44239235099E+03  0.89464928290E+02 0.  0.
         23    2    1    2    0    0 -0.71195759303E+02  0.41543036390E+01  0.52004801496E+03  0.53297302990E+03  0.92326693622E+02 0.  0.
        -11    1    3    3    0    0  0.96577577916E+01  0.33840710313E+02  0.16235508250E+03  0.16612537065E+03  0.00000000000E+00 0.  1.
         11    1    3    3    0    0  0.27478674700E+02 -0.58519587400E+02  0.26859602521E+03  0.27626698034E+03  0.00000000000E+00 0. -1.
        -11    1    4    4    0    0 -0.15146588313E+02 -0.41215097306E+02  0.22462403105E+03  0.22887564027E+03  0.00000000000E+00 0. -1.
         11    1    4    4    0    0 -0.56049170990E+02  0.45369400945E+02  0.29542398390E+03  0.30409738962E+03  0.00000000000E+00 0.  1.
          2    1    1    2  501    0  0.34059326811E+02  0.20524573448E+02  0.13445297517E+03  0.14021019360E+03  0.00000000000E+00 0. -1.
<scales pt_clust_5="13000.00000" pt_clust_6="13000.00000" pt_clust_7="13000.00000" pt_clust_8="13000.00000" pt_clust_9="39.76551"></scales>
<clustering>
<clus scale="   39.766">  2  9  1 -1</clus>
<clus scale="   89.465">  5  6 -1 -1</clus>
<clus scale="   92.327">  7  8 -1 -1</clus>
<clus scale="  105.133">  1  5  2 -1</clus>
<clus scale="   39.766">  2  5  1 -1</clus>
</clustering>
</event>
<event>
 9    1  0.1399746E-005  0.1732068E+03  0.7546771E-02  0.1175267E+00
         -4   -1    0    0    0  501 -0.00000000000E+00  0.00000000000E+00  0.16466366908E+03  0.16466366908E+03  0.00000000000E+00 0.  1.
         21   -1    0    0  501  502  0.00000000000E+00 -0.00000000000E+00 -0.29879860401E+03  0.29879860401E+03  0.00000000000E+00 0. -1.
         23    2    1    2    0    0 -0.14688686019E+03  0.82371500612E+02  0.27478347323E+02  0.19335445505E+03  0.90939935703E+02 0.  0.
         23    2    1    2    0    0  0.79699170610E+02 -0.53456444755E+02 -0.13704657462E+03  0.19294701704E+03  0.96110553483E+02 0.  0.
        -11    1    4    4    0    0  0.58905996197E+02 -0.45186517224E+02 -0.14980191078E+03  0.16718956367E+03  0.00000000000E+00 0. -1.
         11    1    4    4    0    0  0.20793174413E+02 -0.82699275309E+01  0.12755336166E+02  0.25757453372E+02  0.00000000000E+00 0.  1.
        -13    1    3    3    0    0 -0.12761593738E+03  0.95891474759E+02  0.33758675218E+01  0.15966339244E+03  0.00000000000E+00 0.  1.
         13    1    3    3    0    0 -0.19270922810E+02 -0.13519974147E+02  0.24102479801E+02  0.33691062605E+02  0.00000000000E+00 0. -1.
         -4    1    1    2    0  502  0.67187689578E+02 -0.28915055857E+02 -0.24566707638E+02  0.77160800995E+02  0.00000000000E+00 0.  1.
<scales pt_clust_5="13000.00000" pt_clust_6="13000.00000" pt_clust_7="13000.00000" pt_clust_8="13000.00000" pt_clust_9="73.14551"></scales>
<clustering>
<clus scale="   73.146">  2  9  1 -1</clus>
<clus scale="   90.940">  7  8 -1 -1</clus>
<clus scale="   96.111">  5  6 -1 -1</clus>
<clus scale="  170.392">  1  7  2 -1</clus>
<clus scale="   73.146">  2  5  1 -1</clus>
</clustering>
</event>
<event>
 9    1  0.1399746E-005  0.1080842E+03  0.7546771E-02  0.1264961E+00
         -2   -1    0    0    0  501 -0.00000000000E+00  0.00000000000E+00  0.54206773370E+03  0.54206773370E+03  0.00000000000E+00 0.  1.
         21   -1    0    0  501  502  0.00000000000E+00 -0.00000000000E+00 -0.63568783828E+02  0.63568783828E+02  0.00000000000E+00 0.  1.
         23    2    1    2    0    0 -0.44044820291E+02 -0.25891609903E+02  0.33962585613E+03  0.35457634519E+03  0.88138191258E+02 0.  0.
         23    2    1    2    0    0  0.50974629510E+02  0.88559707022E+02  0.12823426361E+03  0.18711881358E+03  0.90156472160E+02 0.  0.
        -13    1    4    4    0    0  0.34553555572E+02  0.62856813575E+01  0.86618286508E+02  0.93467564162E+02  0.00000000000E+00 0. -1.
         13    1    4    4    0    0  0.16421073939E+02  0.82274025664E+02  0.41615977101E+02  0.93651249423E+02  0.00000000000E+00 0.  1.
        -13    1    3    3    0    0  0.26094603697E+02 -0.97136694116E+01  0.65824027769E+02  0.71470877617E+02  0.00000000000E+00 0. -1.
         13    1    3    3    0    0 -0.70139423988E+02 -0.16177940492E+02  0.27380182836E+03  0.28310546758E+03  0.00000000000E+00 0.  1.
         -2    1    1    2    0  502 -0.69298092193E+01 -0.62668097119E+02  0.10638830130E+02  0.63941358750E+02  0.00000000000E+00 0.  1.
<scales pt_clust_5="13000.00000" pt_clust_6="13000.00000" pt_clust_7="13000.00000" pt_clust_8="13000.00000" pt_clust_9="63.05008"></scales>
<clustering>
<clus scale="   63.050">  2  9  1 -1</clus>
<clus scale="   88.138">  7  8 -1 -1</clus>
<clus scale="   90.156">  5  6 -1 -1</clus>
<clus scale="  106.407">  1  7  2 -1</clus>
<clus scale="   63.050">  2  5  1 -1</clus>
</clustering>
</event>
<event>
 9    1  0.1399746E-005  0.1436452E+03  0.7546771E-02  0.1209148E+00
          2   -1    0    0  502    0 -0.00000000000E+00  0.00000000000E+00  0.95025123385E+03  0.95025123385E+03  0.00000000000E+00 0. -1.
         21   -1    0    0  501  502  0.00000000000E+00 -0.00000000000E+00 -0.63645874941E+02  0.63645874941E+02  0.00000000000E+00 0. -1.
         23    2    1    2    0    0  0.54811809975E+01  0.93173501549E+02  0.52283429593E+03  0.53941348463E+03  0.94339078193E+02 0.  0.
         23    2    1    2    0    0 -0.85109125582E+02 -0.15200701411E+03  0.29252471167E+03  0.35250807605E+03  0.91332037906E+02 0.  0.
        -11    1    4    4    0    0 -0.50573929706E+02 -0.29103697205E+02  0.15115412466E+03  0.16202566759E+03  0.00000000000E+00 0.  1.
         11    1    4    4    0    0 -0.34535195876E+02 -0.12290331691E+03  0.14137058700E+03  0.19048240846E+03  0.00000000000E+00 0. -1.
        -13    1    3    3    0    0 -0.31146400088E+02  0.15862170052E+02  0.66466894462E+02  0.75096968891E+02  0.00000000000E+00 0.  1.
         13    1    3    3    0    0  0.36627581086E+02  0.77311331497E+02  0.45636740146E+03  0.46431651574E+03  0.00000000000E+00 0. -1.
          2    1    1    2  501    0  0.79627944585E+02  0.58833512564E+02  0.71246351315E+02  0.12197554810E+03  0.00000000000E+00 0. -1.
<scales pt_clust_5="13000.00000" pt_clust_6="13000.00000" pt_clust_7="13000.00000" pt_clust_8="13000.00000" pt_clust_9="99.00501"></scales>
<clustering>
<clus scale="   91.332">  5  6 -1 -1</clus>
<clus scale="   94.339">  7  8 -1 -1</clus>
<clus scale="   99.005">  2  9  1 -1</clus>
<clus scale="  141.688">  2  5  1 -1</clus>
<clus scale="   99.005">  2  5  1 -1</clus>
</clustering>
</event>
<event>
 9    1  0.1399746E-005  0.1355492E+03  0.7546771E-02  0.1219903E+00
         21   -1    0    0  501  502  0.00000000000E+00  0.00000000000E+00  0.38839116666E+03  0.38839116666E+03  0.00000000000E+00 0. -1.
         -1   -1    0    0    0  501 -0.00000000000E+00 -0.00000000000E+00 -0.69592945993E+02  0.69592945993E+02  0.00000000000E+00 0.  1.
         23    2    1    2    0    0 -0.98174230360E+02  0.33113280538E+02  0.81905014642E+02  0.16012897643E+03  0.90543850225E+02 0.  0.
         23    2    1    2    0    0  0.97383171399E+02  0.98041115250E+01  0.15435352855E+03  0.20482112807E+03  0.92450419432E+02 0.  0.
        -11    1    3    3    0    0 -0.30164789365E+02  0.54251256396E+02  0.18489903424E+02  0.64768741432E+02  0.00000000000E+00 0. -1.
         11    1    3    3    0    0 -0.68009440994E+02 -0.21137975858E+02  0.63415111218E+02  0.95360234996E+02  0.00000000000E+00 0.  1.
        -13    1    4    4    0    0  0.25806799148E+02 -0.16312849855E+02 -0.23045317632E+01  0.30617165435E+02  0.00000000000E+00 0.  1.
         13    1    4    4    0    0  0.71576372251E+02  0.26116961380E+02  0.15665806031E+03  0.17420396263E+03  0.00000000000E+00 0. -1.
         -1    1    1    2    0  502  0.79105896113E+00 -0.42917392063E+02  0.82539677477E+02  0.93034008157E+02  0.00000000000E+00 0.  1.
<scales pt_clust_5="13000.00000" pt_clust_6="13000.00000" pt_clust_7="13000.00000" pt_clust_8="13000.00000" pt_clust_9="42.92468"></scales>
<clustering>
<clus scale="   42.925">  1  9  2 -1</clus>
<clus scale="   90.544">  5  6 -1 -1</clus>
<clus scale="   92.450">  7  8 -1 -1</clus>
<clus scale="  134.256">  2  5  1 -1</clus>
<clus scale="   42.925">  1  5  2 -1</clus>
</clustering>
</event>
<event>
 9    1  0.1399746E-005  0.4176076E+03  0.7546771E-02  0.1037878E+00
         21   -1    0    0  501  502  0.00000000000E+00  0.00000000000E+00  0.50090750972E+03  0.50090750972E+03  0.00000000000E+00 0. -1.
          1   -1    0    0  502    0 -0.00000000000E+00 -0.00000000000E+00 -0.18260409128E+04  0.18260409128E+04  0.00000000000E+00 0. -1.
         23    2    1    2    0    0  0.39818894538E+03  0.33243320975E+02 -0.13861904985E+04  0.14456768457E+04  0.93797065751E+02 0.  0.
         23    2    1    2    0    0 -0.43182330929E+03 -0.80874150968E+02 -0.28408875551E+03  0.53123497176E+03  0.92153000350E+02 0.  0.
        -13    1    4    4    0    0 -0.97043753102E+02 -0.49486181514E+02 -0.10010171392E+03  0.14794162804E+03  0.00000000000E+00 0.  1.
         13    1    4    4    0    0 -0.33477955619E+03 -0.31387969454E+02 -0.18398704159E+03  0.38329334372E+03  0.00000000000E+00 0. -1.
        -13    1    3    3    0    0  0.13164906881E+03 -0.77406959960E+01 -0.60636098672E+03  0.62053609235E+03  0.00000000000E+00 0.  1.
         13    1    3    3    0    0  0.26653987657E+03  0.40984016971E+02 -0.77982951177E+03  0.82514075337E+03  0.00000000000E+00 0. -1.
          1    1    1    2  501    0  0.33634363909E+02  0.47630829993E+02  0.34514585096E+03  0.35003660499E+03  0.00000000000E+00 0. -1.
<scales pt_clust_5="13000.00000" pt_clust_6="13000.00000" pt_clust_7="13000.00000" pt_clust_8="13000.00000" pt_clust_9="58.30923"></scales>
<clustering>
<clus scale="   58.309">  1  9  2 -1</clus>
<clus scale="   92.153">  5  6 -1 -1</clus>
<clus scale="   93.797">  7  8 -1 -1</clus>
<clus scale="  417.241">  1  5  2 -1</clus>
<clus scale="   58.309">  1  5  2 -1</clus>
</clustering>
</event>
<event>
 9    1  0.1399746E-005  0.1000110E+03  0.7546771E-02  0.1281154E+00
         21   -1    0    0  501  502  0.00000000000E+00  0.00000000000E+00  0.25237248986E+03  0.25237248986E+03  0.00000000000E+00 0. -1.
          4   -1    0    0  502    0 -0.00000000000E+00 -0.00000000000E+00 -0.10325758484E+03  0.10325758484E+03  0.00000000000E+00 0. -1.
         23    2    1    2    0    0 -0.36711127051E+02 -0.31046337325E+02 -0.14796466347E+02  0.10543372236E+03  0.92659335656E+02 0.  0.
         23    2    1    2    0    0  0.21339651839E+02  0.14168814778E+02  0.10376506389E+02  0.94973648511E+02  0.90863556907E+02 0.  0.
        -11    1    4    4    0    0 -0.64957216199E+01 -0.36186418503E+02  0.18772232384E+01  0.36812705015E+02  0.00000000000E+00 0. -1.
         11    1    4    4    0    0  0.27835373459E+02  0.50355233280E+02  0.84992831506E+01  0.58160943496E+02  0.00000000000E+00 0.  1.
        -11    1    3    3    0    0 -0.50548009207E+02 -0.51178878573E+02  0.75466405616E+01  0.72327938106E+02  0.00000000000E+00 0. -1.
         11    1    3    3    0    0  0.13836882157E+02  0.20132541248E+02 -0.22343106909E+02  0.33105784257E+02  0.00000000000E+00 0.  1.
          4    1    1    2  501    0  0.15371475212E+02  0.16877522547E+02  0.15353486498E+03  0.15522270382E+03  0.00000000000E+00 0. -1.
<scales pt_clust_5="13000.00000" pt_clust_6="13000.00000" pt_clust_7="13000.00000" pt_clust_8="13000.00000" pt_clust_9="22.82834"></scales>
<clustering>
<clus scale="   22.828">  1  9  2 -1</clus>
<clus scale="   90.864">  5  6 -1 -1</clus>
<clus scale="   92.659">  7  8 -1 -1</clus>
<clus scale="   98.350">  1  5  2 -1</clus>
<clus scale="   22.828">  1  5  2 -1</clus>
</clustering>
</event>
<event>
 9    1  0.1399746E-005  0.1407604E+03  0.7546771E-02  0.1212637E+00
         21   -1    0    0  501  502  0.00000000000E+00  0.00000000000E+00  0.27377046297E+03  0.27377046297E+03  0.00000000000E+00 0. -1.
          1   -1    0    0  502    0 -0.00000000000E+00 -0.00000000000E+00 -0.27578473546E+03  0.27578473546E+03  0.00000000000E+00 0. -1.
         23    2    1    2    0    0  0.10155304531E+03 -0.33978353976E+02 -0.22738054204E+03  0.26821510539E+03  0.93647649789E+02 0.  0.
         23    2    1    2    0    0 -0.71367145920E+02  0.57505082066E+02  0.16893603158E+03  0.21315602443E+03  0.92173770698E+02 0.  0.
        -13    1    3    3    0    0 -0.11286205602E+02 -0.26486641656E+02 -0.38614488072E+02  0.48166371175E+02  0.00000000000E+00 0.  1.
         13    1    3    3    0    0  0.11283925091E+03 -0.74917123201E+01 -0.18876605396E+03  0.22004873421E+03  0.00000000000E+00 0. -1.
        -13    1    4    4    0    0 -0.55889895209E+01  0.21815328244E+02 -0.56402817269E+01  0.23215471743E+02  0.00000000000E+00 0.  1.
         13    1    4    4    0    0 -0.65778156399E+02  0.35689753822E+02  0.17457631331E+03  0.18994055269E+03  0.00000000000E+00 0. -1.
          1    1    1    2  501    0 -0.30185899386E+02 -0.23526728090E+02  0.56430237964E+02  0.68184068616E+02  0.00000000000E+00 0. -1.
<scales pt_clust_5="13000.00000" pt_clust_6="13000.00000" pt_clust_7="13000.00000" pt_clust_8="13000.00000" pt_clust_9="38.27134"></scales>
<clustering>
<clus scale="   38.271">  1  9  2 -1</clus>
<clus scale="   92.174">  7  8 -1 -1</clus>
<clus scale="   93.648">  5  6 -1 -1</clus>
<clus scale="  139.784">  1  7  2 -1</clus>
<clus scale="   38.271">  1  5  2 -1</clus>
</clustering>
</event>
<event>
 9    1  0.1399746E-005  0.1051668E+03  0.7546771E-02  0.1271907E+00
         21   -1    0    0  501  502  0.00000000000E+00  0.00000000000E+00  0.11593857037E+03  0.11593857037E+03  0.00000000000E+00 0.  1.
          1   -1    0    0  502    0 -0.00000000000E+00 -0.00000000000E+00 -0.16271441702E+03  0.16271441702E+03  0.00000000000E+00 0. -1.
         23    2    1    2    0    0  0.20500004575E+02 -0.40086100270E+02 -0.85284563140E+02  0.13467990074E+03  0.94011027709E+02 0.  0.
         23    2    1    2    0    0  0.28630690003E+01  0.59169816159E+02  0.38372705765E+02  0.11380621877E+03  0.89275565388E+02 0.  0.
        -11    1    4    4    0    0  0.25869895313E+02 -0.96474336181E+01  0.29987030564E+02  0.40762071352E+02  0.00000000000E+00 0.  1.
         11    1    4    4    0    0 -0.23006826312E+02  0.68817249777E+02  0.83856752014E+01  0.73044147421E+02  0.00000000000E+00 0. -1.
        -13    1    3    3    0    0  0.57503410184E+02 -0.19010104069E+02 -0.40364324551E+02  0.72782586763E+02  0.00000000000E+00 0.  1.
         13    1    3    3    0    0 -0.37003405610E+02 -0.21075996202E+02 -0.44920238589E+02  0.61897313977E+02  0.00000000000E+00 0. -1.
          1    1    1    2  501    0 -0.23363073575E+02 -0.19083715889E+02  0.13601072478E+00  0.30166867884E+02  0.00000000000E+00 0. -1.
<scales pt_clust_5="13000.00000" pt_clust_6="13000.00000" pt_clust_7="13000.00000" pt_clust_8="13000.00000" pt_clust_9="30.16656"></scales>
<clustering>
<clus scale="   30.167">  1  9  2 -1</clus>
<clus scale="   89.276">  5  6 -1 -1</clus>
<clus scale="   94.011">  7  8 -1 -1</clus>
<clus scale="  100.956">  1  5  2 -1</clus>
<clus scale="   30.167">  1  5  2 -1</clus>
</clustering>
</event>
<event>
 9    1  0.1399746E-005  0.1852741E+03  0.7546771E-02  0.1162801E+00
          2   -1    0    0  502    0 -0.00000000000E+00  0.00000000000E+00  0.47592411315E+03  0.47592411315E+03  0.00000000000E+00 0. -1.
         21   -1    0    0  501  502  0.00000000000E+00 -0.00000000000E+00 -0.13360990603E+03  0.13360990603E+03  0.00000000000E+00 0. -1.
         23    2    1    2    0    0 -0.12561927134E+01  0.15399392004E+03  0.29880311418E+03  0.34835119689E+03  0.91375871529E+02 0.  0.
         23    2    1    2    0    0  0.16466182633E+02 -0.18134959152E+03  0.74674801382E+02  0.21701435753E+03  0.91433560024E+02 0.  0.
        -13    1    3    3    0    0 -0.26048329039E+02  0.19683313519E+02  0.11382260817E+03  0.11841256017E+03  0.00000000000E+00 0.  1.
         13    1    3    3    0    0  0.24792136326E+02  0.13431060652E+03  0.18498050601E+03  0.22993863671E+03  0.00000000000E+00 0. -1.
        -13    1    4    4    0    0  0.22908514479E+02 -0.58507835668E+01  0.25213162508E+02  0.34564942754E+02  0.00000000000E+00 0.  1.
         13    1    4    4    0    0 -0.64423318461E+01 -0.17549880795E+03  0.49461638874E+02  0.18244941478E+03  0.00000000000E+00 0. -1.
          2    1    1    2  501    0 -0.15209989919E+02  0.27355671477E+02 -0.31163708441E+02  0.44168464758E+02  0.00000000000E+00 0. -1.
<scales pt_clust_5="13000.00000" pt_clust_6="13000.00000" pt_clust_7="13000.00000" pt_clust_8="13000.00000" pt_clust_9="31.29979"></scales>
<clustering>
<clus scale="   31.300">  2  9  1 -1</clus>
<clus scale="   91.376">  5  6 -1 -1</clus>
<clus scale="   91.434">  7  8 -1 -1</clus>
<clus scale="  185.246">  1  5  2 -1</clus>
<clus scale="   31.300">  2  5  1 -1</clus>
</clustering>
</event>
<event>
 9    1  0.1399746E-005  0.9436575E+02  0.7546771E-02  0.1293304E+00
         21   -1    0    0  501  502  0.00000000000E+00  0.00000000000E+00  0.21105791926E+03  0.21105791926E+03  0.00000000000E+00 0. -1.
          1   -1    0    0  502    0 -0.00000000000E+00 -0.00000000000E+00 -0.15754232592E+03  0.15754232592E+03  0.00000000000E+00 0. -1.
         23    2    1    2    0    0  0.56589353639E+01 -0.14726738857E+02 -0.43439620910E+02  0.10264013681E+03  0.91646585493E+02 0.  0.
         23    2    1    2    0    0 -0.67305825987E+01 -0.54700358604E+02 -0.37754994363E+02  0.11440777222E+03  0.92877708692E+02 0.  0.
        -11    1    3    3    0    0  0.64863552625E+01  0.36070187077E+02 -0.13621819695E+01  0.36674060862E+02  0.00000000000E+00 0.  1.
         11    1    3    3    0    0 -0.82741989857E+00 -0.50796925934E+02 -0.42077438941E+02  0.65966075947E+02  0.00000000000E+00 0. -1.
        -13    1    4    4    0    0 -0.26401982867E+01 -0.81147920351E+02 -0.26949418963E+02  0.85546635274E+02  0.00000000000E+00 0. -1.
         13    1    4    4    0    0 -0.40903843120E+01  0.26447561747E+02 -0.10805575401E+02  0.28861136948E+02  0.00000000000E+00 0.  1.
          1    1    1    2  501    0  0.10716472347E+01  0.69427097461E+02  0.13471020861E+03  0.15155233615E+03  0.00000000000E+00 0. -1.
<scales pt_clust_5="13000.00000" pt_clust_6="13000.00000" pt_clust_7="13000.00000" pt_clust_8="13000.00000" pt_clust_9="69.43537"></scales>
<clustering>
<clus scale="   69.435">  1  9  2 -1</clus>
<clus scale="   91.647">  5  6 -1 -1</clus>
<clus scale="   92.878">  7  8 -1 -1</clus>
<clus scale="   93.154">  2  5  1 -1</clus>
<clus scale="   69.435">  1  5  2 -1</clus>
</clustering>
</event>
<event>
 9    1  0.1399746E-005  0.9816074E+02  0.7546771E-02  0.1285162E+00
          1   -1    0    0  502    0 -0.00000000000E+00  0.00000000000E+00  0.40257200482E+03  0.40257200482E+03  0.00000000000E+00 0. -1.
         21   -1    0    0  501  502  0.00000000000E+00 -0.00000000000E+00 -0.16291427404E+03  0.16291427404E+03  0.00000000000E+00 0. -1.
         23    2    1    2    0    0 -0.23155119002E+02  0.97278163371E+01  0.33341224161E+03  0.34741920368E+03  0.94369435130E+02 0.  0.
         23    2    1    2    0    0  0.17608643795E+02 -0.53035157251E+02  0.69177977201E+01  0.10833466031E+03  0.92551339578E+02 0.  0.
        -11    1    3    3    0    0  0.33188384572E+02  0.13544651370E+02  0.78061385624E+02  0.85898232675E+02  0.00000000000E+00 0.  1.
         11    1    3    3    0    0 -0.56343503575E+02 -0.38168350325E+01  0.25535085598E+03  0.26152097100E+03  0.00000000000E+00 0. -1.
        -13    1    4    4    0    0 -0.53484383641E+01 -0.73934456455E+02 -0.67085377806E+01  0.74430599375E+02  0.00000000000E+00 0. -1.
         13    1    4    4    0    0  0.22957082159E+02  0.20899299204E+02  0.13626335501E+02  0.33904060932E+02  0.00000000000E+00 0.  1.
          1    1    1    2  501    0  0.55464752076E+01  0.43307340913E+02 -0.10067230855E+03  0.10973241487E+03  0.00000000000E+00 0. -1.
<scales pt_clust_5="13000.00000" pt_clust_6="13000.00000" pt_clust_7="13000.00000" pt_clust_8="13000.00000" pt_clust_9="43.66107"></scales>
<clustering>
<clus scale="   43.661">  2  9  1 -1</clus>
<clus scale="   92.551">  7  8 -1 -1</clus>
<clus scale="   94.369">  5  6 -1 -1</clus>
<clus scale="   96.414">  2  7  1 -1</clus>
<clus scale="   43.661">  2  5  1 -1</clus>
</clustering>
</event>
<event>
 9    1  0.1399746E-005  0.9546684E+02  0.7546771E-02  0.1290307E+00
         -1   -1    0    0    0  501 -0.00000000000E+00  0.00000000000E+00  0.35335644944E+03  0.35335644944E+03  0.00000000000E+00 0.  1.
         21   -1    0    0  501  502  0.00000000000E+00 -0.00000000000E+00 -0.41476572811E+02  0.41476572811E+02  0.00000000000E+00 0. -1.
         23    2    1    2    0    0 -0.34659222902E+02  0.52980131166E+01  0.23272777759E+03  0.25219047547E+03  0.90600699659E+02 0.  0.
         23    2    1    2    0    0  0.14126122195E+02 -0.79591526760E+01  0.43703112214E+02  0.10158989090E+03  0.90264325599E+02 0.  0.
        -11    1    4    4    0    0  0.49999524615E+02  0.95904600965E+00  0.88522366631E+01  0.50786162731E+02  0.00000000000E+00 0. -1.
         11    1    4    4    0    0 -0.35873402420E+02 -0.89181986857E+01  0.34850875550E+02  0.50803728167E+02  0.00000000000E+00 0.  1.
        -13    1    3    3    0    0  0.28265826616E+02  0.41262714114E+01  0.37963596235E+02  0.47510185319E+02  0.00000000000E+00 0. -1.
         13    1    3    3    0    0 -0.62925049518E+02  0.11717417052E+01  0.19476418136E+03  0.20468029015E+03  0.00000000000E+00 0.  1.
         -1    1    1    2    0  502  0.20533100707E+02  0.26611395594E+01  0.35448986819E+02  0.41052655881E+02  0.00000000000E+00 0.  1.
<scales pt_clust_5="13000.00000" pt_clust_6="13000.00000" pt_clust_7="13000.00000" pt_clust_8="13000.00000" pt_clust_9="20.70484"></scales>
<clustering>
<clus scale="   20.705">  2  9  1 -1</clus>
<clus scale="   90.264">  5  6 -1 -1</clus>
<clus scale="   90.601">  7  8 -1 -1</clus>
<clus scale="   95.148">  2  5  1 -1</clus>
<clus scale="   20.705">  2  5  1 -1</clus>
</clustering>
</event>
<event>
 9    1  0.1399746E-005  0.9665916E+02  0.7546771E-02  0.1289632E+00
          2   -1    0    0  502    0 -0.00000000000E+00  0.00000000000E+00  0.68742917928E+03  0.68742917928E+03  0.00000000000E+00 0. -1.
         21   -1    0    0  501  502  0.00000000000E+00 -0.00000000000E+00 -0.56278019584E+02  0.56278019584E+02  0.00000000000E+00 0. -1.
         23    2    1    2    0    0  0.53385399730E+02  0.11028565887E+02  0.33767661700E+03  0.35456423209E+03  0.93373801665E+02 0.  0.
         23    2    1    2    0    0  0.34044218916E+02  0.34620500743E+02  0.26875167391E+03  0.28746211439E+03  0.89718543615E+02 0.  0.
        -11    1    3    3    0    0 -0.10980127370E+02  0.22560321938E+02  0.26116801092E+02  0.36216275654E+02  0.00000000000E+00 0.  1.
         11    1    3    3    0    0  0.64365527100E+02 -0.11531756051E+02  0.31155981591E+03  0.31834795643E+03  0.00000000000E+00 0. -1.
        -13    1    4    4    0    0  0.64515721404E+02  0.28723945198E+02  0.19740468643E+03  0.20965675176E+03  0.00000000000E+00 0. -1.
         13    1    4    4    0    0 -0.30471502488E+02  0.58965555454E+01  0.71346987480E+02  0.77805362628E+02  0.00000000000E+00 0.  1.
          2    1    1    2  501    0 -0.87429618646E+02 -0.45649066630E+02  0.24722868789E+02  0.10168085239E+03  0.00000000000E+00 0. -1.
<scales pt_clust_5="13000.00000" pt_clust_6="13000.00000" pt_clust_7="13000.00000" pt_clust_8="13000.00000" pt_clust_9="98.62949"></scales>
<clustering>
<clus scale="   89.719">  7  8 -1 -1</clus>
<clus scale="   93.374">  5  6 -1 -1</clus>
<clus scale="   98.629">  2  9  1 -1</clus>
<clus scale="   98.629">  2  7  1 -1</clus>
<clus scale="   96.659">  2  5  1 -1</clus>
</clustering>
</event>
<event>
 9    1  0.1399746E-005  0.9791760E+02  0.7546771E-02  0.1285297E+00
          2   -1    0    0  502    0 -0.00000000000E+00  0.00000000000E+00  0.43069736051E+03  0.43069736051E+03  0.00000000000E+00 0. -1.
         21   -1    0    0  501  502  0.00000000000E+00 -0.00000000000E+00 -0.15465217650E+03  0.15465217650E+03  0.00000000000E+00 0. -1.
         23    2    1    2    0    0 -0.35525943816E+02 -0.24599491319E+01  0.37956125423E+03  0.39193139177E+03  0.90968819401E+02 0.  0.
         23    2    1    2    0    0  0.14804979981E+02  0.47670838721E+01 -0.58518429065E+01  0.93553324053E+02  0.92065562808E+02 0.  0.
        -13    1    4    4    0    0  0.12110539398E+02  0.36465459480E+02 -0.33825144077E+02  0.51191163997E+02  0.00000000000E+00 0.  1.
         13    1    4    4    0    0  0.26944405833E+01 -0.31698375608E+02  0.27973301170E+02  0.42362160056E+02  0.00000000000E+00 0. -1.
        -13    1    3    3    0    0  0.19040215921E+02 -0.24683066886E+02  0.67417861726E+02  0.74276185234E+02  0.00000000000E+00 0.  1.
         13    1    3    3    0    0 -0.54566159737E+02  0.22223117754E+02  0.31214339251E+03  0.31765520653E+03  0.00000000000E+00 0. -1.
          2    1    1    2  501    0  0.20720963835E+02 -0.23071347401E+01 -0.97664227323E+02  0.99864821191E+02  0.00000000000E+00 0. -1.
<scales pt_clust_5="13000.00000" pt_clust_6="13000.00000" pt_clust_7="13000.00000" pt_clust_8="13000.00000" pt_clust_9="20.84901"></scales>
<clustering>
<clus scale="   20.849">  2  9  1 -1</clus>
<clus scale="   90.969">  7  8 -1 -1</clus>
<clus scale="   92.066">  5  6 -1 -1</clus>
<clus scale="   96.887">  1  7  2 -1</clus>
<clus scale="   20.849">  2  5  1 -1</clus>
</clustering>
</event>
<event>
 9    1  0.1399746E-005  0.1398590E+03  0.7546771E-02  0.1214242E+00
          2   -1    0    0  502    0 -0.00000000000E+00  0.00000000000E+00  0.70571946787E+03  0.70571946787E+03  0.00000000000E+00 0. -1.
         21   -1    0    0  501  502  0.00000000000E+00 -0.00000000000E+00 -0.54786042314E+02  0.54786042314E+02  0.00000000000E+00 0. -1.
         23    2    1    2    0    0  0.66321578481E+02 -0.78807660039E+02  0.41116770060E+03  0.43265783043E+03  0.86745150664E+02 0.  0.
         23    2    1    2    0    0 -0.11787162908E+03  0.54297385787E+02  0.13187726767E+03  0.20578998652E+03  0.90088721719E+02 0.  0.
        -11    1    4    4    0    0 -0.10774831833E+03  0.19395406728E+02  0.59026977730E+02  0.12437872006E+03  0.00000000000E+00 0. -1.
         11    1    4    4    0    0 -0.10123310752E+02  0.34901979059E+02  0.72850289938E+02  0.81411266462E+02  0.00000000000E+00 0.  1.
        -11    1    3    3    0    0 -0.17472369487E+02 -0.25405385875E+02  0.56877090583E+02  0.64697146461E+02  0.00000000000E+00 0.  1.
         11    1    3    3    0    0  0.83793947968E+02 -0.53402274164E+02  0.35429061001E+03  0.36796068397E+03  0.00000000000E+00 0. -1.
          2    1    1    2  501    0  0.51550050598E+02  0.24510274252E+02  0.10788845729E+03  0.12205769323E+03  0.00000000000E+00 0. -1.
<scales pt_clust_5="13000.00000" pt_clust_6="13000.00000" pt_clust_7="13000.00000" pt_clust_8="13000.00000" pt_clust_9="57.08033"></scales>
<clustering>
<clus scale="   57.080">  2  9  1 -1</clus>
<clus scale="   86.745">  7  8 -1 -1</clus>
<clus scale="   90.089">  5  6 -1 -1</clus>
<clus scale="  137.729">  1  7  2 -1</clus>
<clus scale="   57.080">  2  5  1 -1</clus>
</clustering>
</event>
<event>
 9    1  0.1399746E-005  0.1526057E+03  0.7546771E-02  0.1197472E+00
         21   -1    0    0  501  502  0.00000000000E+00  0.00000000000E+00  0.43066567635E+02  0.43066567635E+02  0.00000000000E+00 0.  1.
          2   -1    0    0  502    0 -0.00000000000E+00 -0.00000000000E+00 -0.10825158242E+04  0.10825158242E+04  0.00000000000E+00 0. -1.
         23    2    1    2    0    0 -0.11361221824E+03  0.38808769361E+02 -0.63635812996E+03  0.65391199604E+03  0.90748952009E+02 0.  0.
         23    2    1    2    0    0  0.10536094615E+03 -0.77875496322E+02 -0.40141799567E+03  0.43170676212E+03  0.89826495620E+02 0.  0.
        -11    1    3    3    0    0 -0.11278249770E+02  0.43931982467E+02 -0.14278306487E+03  0.14981395668E+03  0.00000000000E+00 0.  1.
         11    1    3    3    0    0 -0.10233396847E+03 -0.51232131058E+01 -0.49357506509E+03  0.50409803936E+03  0.00000000000E+00 0. -1.
        -13    1    4    4    0    0  0.62407167430E+02 -0.70363475723E+02 -0.15379464837E+03  0.18027331230E+03  0.00000000000E+00 0.  1.
         13    1    4    4    0    0  0.42953778722E+02 -0.75120205994E+01 -0.24762334730E+03  0.25143344982E+03  0.00000000000E+00 0. -1.
          2    1    1    2  501    0  0.82512720853E+01  0.39066726961E+02 -0.16731309057E+01  0.39963633638E+02  0.00000000000E+00 0. -1.
<scales pt_clust_5="13000.00000" pt_clust_6="13000.00000" pt_clust_7="13000.00000" pt_clust_8="13000.00000" pt_clust_9="39.92859"></scales>
<clustering>
<clus scale="   39.929">  1  9  2 -1</clus>
<clus scale="   89.826">  7  8 -1 -1</clus>
<clus scale="   90.749">  5  6 -1 -1</clus>
<clus scale="  152.059">  1  7  2 -1</clus>
<clus scale="   39.929">  1  5  2 -1</clus>
</clustering>
</event>
<event>
 9    1  0.1399746E-005  0.1125482E+03  0.7546771E-02  0.1256100E+00
         -2   -1    0    0    0  501 -0.00000000000E+00  0.00000000000E+00  0.42320060896E+03  0.42320060896E+03  0.00000000000E+00 0.  1.
         21   -1    0    0  501  502  0.00000000000E+00 -0.00000000000E+00 -0.46654853339E+02  0.46654853339E+02  0.00000000000E+00 0.  1.
         23    2    1    2    0    0  0.41799687686E+02  0.40307326211E+02  0.25065736335E+03  0.27305555221E+03  0.91423882849E+02 0.  0.
         23    2    1    2    0    0 -0.66402104194E+02 -0.50901651051E+02  0.99644860152E+02  0.15930002215E+03  0.91908549015E+02 0.  0.
        -13    1    4    4    0    0 -0.80717726476E+02 -0.65401811134E+02  0.82154368442E+02  0.13244654968E+03  0.00000000000E+00 0.  1.
         13    1    4    4    0    0  0.14315622282E+02  0.14500160083E+02  0.17490491710E+02  0.26853472476E+02  0.00000000000E+00 0. -1.
        -13    1    3    3    0    0  0.68550380735E+02  0.43259818044E+02  0.17851288991E+03  0.19605463121E+03  0.00000000000E+00 0.  1.
         13    1    3    3    0    0 -0.26750693049E+02 -0.29524918339E+01  0.72144473440E+02  0.77000920998E+02  0.00000000000E+00 0. -1.
         -2    1    1    2    0  502  0.24602416508E+02  0.10594324840E+02  0.26243532113E+02  0.37499887928E+02  0.00000000000E+00 0.  1.
<scales pt_clust_5="13000.00000" pt_clust_6="13000.00000" pt_clust_7="13000.00000" pt_clust_8="13000.00000" pt_clust_9="26.78654"></scales>
<clustering>
<clus scale="   26.787">  2  9  1 -1</clus>
<clus scale="   91.424">  7  8 -1 -1</clus>
<clus scale="   91.909">  5  6 -1 -1</clus>
<clus scale="  112.153">  1  7  2 -1</clus>
<clus scale="   26.787">  2  5  1 -1</clus>
</clustering>
</event>
<event>
 9    1  0.1399746E-005  0.1407536E+03  0.7546771E-02  0.1220432E+00
          1   -1    0    0  502    0 -0.00000000000E+00  0.00000000000E+00  0.64854114657E+03  0.64854114657E+03  0.00000000000E+00 0. -1.
         21   -1    0    0  501  502  0.00000000000E+00 -0.00000000000E+00 -0.82745774751E+02  0.82745774751E+02  0.00000000000E+00 0.  1.
         23    2    1    2    0    0  0.85158656829E+02 -0.25603898391E+02  0.27691664630E+03  0.30123895881E+03  0.78450779841E+02 0.  0.
         23    2    1    2    0    0  0.85990827161E+02 -0.10706623227E+02  0.49777883211E+02  0.13377138119E+03  0.88926321368E+02 0.  0.
        -11    1    3    3    0    0 -0.61486682544E+01 -0.23776497440E+02  0.35867710666E+02  0.43469766738E+02  0.00000000000E+00 0. -1.
         11    1    3    3    0    0  0.91307325083E+02 -0.18274009501E+01  0.24104893564E+03  0.25776919207E+03  0.00000000000E+00 0.  1.
        -13    1    4    4    0    0  0.48102882341E+01  0.20652606593E+02  0.41182112369E+02  0.46321003996E+02  0.00000000000E+00 0. -1.
         13    1    4    4    0    0  0.81180538927E+02 -0.31359229820E+02  0.85957708421E+01  0.87450377196E+02  0.00000000000E+00 0.  1.
          1    1    1    2  501    0 -0.17114948399E+03  0.36310521617E+02  0.23910084231E+03  0.29627658133E+03  0.00000000000E+00 0. -1.
<scales pt_clust_5="13000.00000" pt_clust_6="13000.00000" pt_clust_7="13000.00000" pt_clust_8="13000.00000" pt_clust_9="109.10401"></scales>
<clustering>
<clus scale="   78.451">  5  6 -1 -1</clus>
<clus scale="   88.926">  7  8 -1 -1</clus>
<clus scale="  118.584">  1  5  2 -1</clus>
<clus scale="  109.104">  2  9  1 -1</clus>
<clus scale="  109.104">  2  5  1 -1</clus>
</clustering>
</event>
<event>
 9    1  0.1399746E-005  0.1406250E+03  0.7546771E-02  0.1212826E+00
         21   -1    0    0  501  502  0.00000000000E+00  0.00000000000E+00  0.70390292399E+03  0.70390292399E+03  0.00000000000E+00 0.  1.
          3   -1    0    0  502    0 -0.00000000000E+00 -0.00000000000E+00 -0.60958795159E+02  0.60958795159E+02  0.00000000000E+00 0. -1.
         23    2    1    2    0    0 -0.19425405519E+02 -0.94377183225E+02  0.76635333208E+02  0.15406293707E+03  0.92617574953E+02 0.  0.
         23    2    1    2    0    0  0.46062998589E+02  0.12394248383E+03  0.28865300844E+03  0.33030563685E+03  0.91091796093E+02 0.  0.
        -11    1    3    3    0    0 -0.33422784639E+02  0.40845718876E+01  0.13582831148E+02  0.36307844366E+02  0.00000000000E+00 0.  1.
         11    1    3    3    0    0  0.13997379120E+02 -0.98461755112E+02  0.63052502060E+02  0.11775509271E+03  0.00000000000E+00 0. -1.
        -11    1    4    4    0    0  0.19959264549E+02  0.12949114197E+03  0.21285803077E+03  0.24994973365E+03  0.00000000000E+00 0.  1.
         11    1    4    4    0    0  0.26103734040E+02 -0.55486581434E+01  0.75794977673E+02  0.80355903196E+02  0.00000000000E+00 0. -1.
          3    1    1    2  501    0 -0.26637593070E+02 -0.29565300605E+02  0.27765578718E+03  0.28049314522E+03  0.00000000000E+00 0. -1.
<scales pt_clust_5="13000.00000" pt_clust_6="13000.00000" pt_clust_7="13000.00000" pt_clust_8="13000.00000" pt_clust_9="39.79533"></scales>
<clustering>
<clus scale="   39.795">  1  9  2 -1</clus>
<clus scale="   91.092">  7  8 -1 -1</clus>
<clus scale="   92.618">  5  6 -1 -1</clus>
<clus scale="  139.625">  1  7  2 -1</clus>
<clus scale="   39.795">  1  5  2 -1</clus>
</clustering>
</event>
<event>
 9    1  0.1399746E-005  0.1256797E+03  0.7546771E-02  0.1235644E+00
         21   -1    0    0  501  502  0.00000000000E+00  0.00000000000E+00  0.43172825524E+03  0.43172825524E+03  0.00000000000E+00 0.  1.
         -3   -1    0    0    0  501 -0.00000000000E+00 -0.00000000000E+00 -0.11144402006E+03  0.11144402006E+03  0.00000000000E+00 0.  1.
         23    2    1    2    0    0 -0.26305159103E+02 -0.11565783003E+03 -0.92936162140E+01  0.14998632750E+03  0.91328156072E+02 0.  0.
         23    2    1    2    0    0  0.18476050269E+02  0.42657500749E+02  0.61321029637E+02  0.11506355488E+03  0.85547216103E+02 0.  0.
        -11    1    3    3    0    0  0.25110751715E+02 -0.81424835801E+02  0.86930214518E+01  0.85651166710E+02  0.00000000000E+00 0. -1.
         11    1    3    3    0    0 -0.51415910817E+02 -0.34232994228E+02 -0.17986637666E+02  0.64335160787E+02  0.00000000000E+00 0.  1.
        -13    1    4    4    0    0 -0.31888450099E+02  0.87787135212E+00  0.18914467088E+02  0.37086398760E+02  0.00000000000E+00 0.  1.
         13    1    4    4    0    0  0.50364500367E+02  0.41779629397E+02  0.42406562550E+02  0.77977156123E+02  0.00000000000E+00 0. -1.
         -3    1    1    2    0  502  0.78291088339E+01  0.73000329279E+02  0.26825682176E+03  0.27812239291E+03  0.00000000000E+00 0.  1.
<scales pt_clust_5="13000.00000" pt_clust_6="13000.00000" pt_clust_7="13000.00000" pt_clust_8="13000.00000" pt_clust_9="73.41896"></scales>
<clustering>
<clus scale="   73.419">  1  9  2 -1</clus>
<clus scale="   85.547">  7  8 -1 -1</clus>
<clus scale="   91.328">  5  6 -1 -1</clus>
<clus scale="  121.544">  1  7  2 -1</clus>
<clus scale="   73.419">  1  5  2 -1</clus>
</clustering>
</event>
<event>
 9    1  0.1399746E-005  0.1287713E+03  0.7546771E-02  0.1229415E+00
          2   -1    0    0  502    0 -0.00000000000E+00  0.00000000000E+00  0.32179622724E+03  0.32179622724E+03  0.00000000000E+00 0. -1.
         21   -1    0    0  501  502  0.00000000000E+00 -0.00000000000E+00 -0.23092845464E+03  0.23092845464E+03  0.00000000000E+00 0.  1.
         23    2    1    2    0    0  0.84952354454E+02 -0.28844026208E+02  0.26663750160E+03  0.29544632648E+03  0.90244635296E+02 0.  0.
         23    2    1    2    0    0 -0.10421552450E+03  0.38682933922E+02 -0.90100436750E+02  0.16892055177E+03  0.89770926174E+02 0.  0.
        -11    1    3    3    0    0  0.33503129143E+02  0.30379133875E+02  0.13305665628E+03  0.14053264823E+03  0.00000000000E+00 0. -1.
         11    1    3    3    0    0  0.51449225311E+02 -0.59223160083E+02  0.13358084531E+03  0.15491367825E+03  0.00000000000E+00 0.  1.
        -13    1    4    4    0    0 -0.79895660259E+02  0.88084134901E+01 -0.10081495151E+03  0.12893625993E+03  0.00000000000E+00 0.  1.
         13    1    4    4    0    0 -0.24319864238E+02  0.29874520432E+02  0.10714514763E+02  0.39984291843E+02  0.00000000000E+00 0. -1.
          2    1    1    2  501    0  0.19263170043E+02 -0.98389077144E+01 -0.85669292248E+02  0.88357803613E+02  0.00000000000E+00 0. -1.
<scales pt_clust_5="13000.00000" pt_clust_6="13000.00000" pt_clust_7="13000.00000" pt_clust_8="13000.00000" pt_clust_9="21.63039"></scales>
<clustering>
<clus scale="   21.630">  2  9  1 -1</clus>
<clus scale="   89.771">  7  8 -1 -1</clus>
<clus scale="   90.245">  5  6 -1 -1</clus>
<clus scale="  128.440">  2  7  1 -1</clus>
<clus scale="   21.630">  2  5  1 -1</clus>
</clustering>
</event>
<event>
 9    1  0.1399746E-005  0.1434815E+03  0.7546771E-02  0.1213010E+00
         21   -1    0    0  501  502  0.00000000000E+00  0.00000000000E+00  0.12760175392E+03  0.12760175392E+03  0.00000000000E+00 0.  1.
          1   -1    0    0  502    0 -0.00000000000E+00 -0.00000000000E+00 -0.22053349138E+03  0.22053349138E+03  0.00000000000E+00 0. -1.
         23    2    1    2    0    0 -0.49068500457E+02  0.85364273367E+02 -0.10762887913E+03  0.18108428380E+03  0.10729755501E+03 0.  0.
         23    2    1    2    0    0  0.24766931289E+02 -0.88617574043E+02 -0.13941948633E+02  0.12935019595E+03  0.89836629205E+02 0.  0.
        -11    1    4    4    0    0  0.48184461817E+02 -0.89621357481E+02  0.62158953966E+00  0.10175517899E+03  0.00000000000E+00 0. -1.
         11    1    4    4    0    0 -0.23417530529E+02  0.10037834378E+01 -0.14563538173E+02  0.27595016966E+02  0.00000000000E+00 0.  1.
        -13    1    3    3    0    0  0.30581371699E+02  0.45163230868E+02 -0.55192759619E+02  0.77596252692E+02  0.00000000000E+00 0. -1.
         13    1    3    3    0    0 -0.79649872156E+02  0.40201042499E+02 -0.52436119509E+02  0.10348803110E+03  0.00000000000E+00 0.  1.
          1    1    1    2  501    0  0.24301569168E+02  0.32533006756E+01  0.28639090304E+02  0.37700765546E+02  0.00000000000E+00 0. -1.
<scales pt_clust_5="13000.00000" pt_clust_6="13000.00000" pt_clust_7="13000.00000" pt_clust_8="13000.00000" pt_clust_9="24.51837"></scales>
<clustering>
<clus scale="   24.518">  1  9  2 -1</clus>
<clus scale="   89.837">  5  6 -1 -1</clus>
<clus scale="  107.298">  7  8 -1 -1</clus>
<clus scale="  130.938">  1  5  2 -1</clus>
<clus scale="   24.518">  1  5  2 -1</clus>
</clustering>
</event>
<event>
 9    1  0.1399746E-005  0.1256350E+03  0.7546771E-02  0.1234596E+00
         21   -1    0    0  501  502  0.00000000000E+00  0.00000000000E+00  0.34593357106E+03  0.34593357106E+03  0.00000000000E+00 0. -1.
          1   -1    0    0  502    0 -0.00000000000E+00 -0.00000000000E+00 -0.15275079939E+03  0.15275079939E+03  0.00000000000E+00 0. -1.
         23    2    1    2    0    0  0.79416504845E+02  0.82926290354E+01 -0.88506580060E+02  0.15071685117E+03  0.92230177128E+02 0.  0.
         23    2    1    2    0    0 -0.11541964272E+03 -0.14949390340E+02  0.14610866494E+03  0.20753012741E+03  0.90420316383E+02 0.  0.
        -11    1    3    3    0    0  0.32721631038E+02 -0.41091155410E+02 -0.50408874645E+02  0.72802766663E+02  0.00000000000E+00 0.  1.
         11    1    3    3    0    0  0.46694873807E+02  0.49383784446E+02 -0.38097705415E+02  0.77914084502E+02  0.00000000000E+00 0. -1.
        -13    1    4    4    0    0 -0.66597954532E+02 -0.23468867919E+02  0.22107485832E+02  0.73992001183E+02  0.00000000000E+00 0. -1.
         13    1    4    4    0    0 -0.48821688186E+02  0.85194775794E+01  0.12400117911E+03  0.13353812622E+03  0.00000000000E+00 0.  1.
          1    1    1    2  501    0  0.36003137873E+02  0.66567613047E+01  0.13558068679E+03  0.14043739188E+03  0.00000000000E+00 0. -1.
<scales pt_clust_5="13000.00000" pt_clust_6="13000.00000" pt_clust_7="13000.00000" pt_clust_8="13000.00000" pt_clust_9="36.61336"></scales>
<clustering>
<clus scale="   36.613">  1  9  2 -1</clus>
<clus scale="   90.420">  7  8 -1 -1</clus>
<clus scale="   92.230">  5  6 -1 -1</clus>
<clus scale="  124.312">  1  7  2 -1</clus>
<clus scale="   36.613">  1  5  2 -1</clus>
</clustering>
</event>
<event>
 9    1  0.1399746E-005  0.1013770E+03  0.7546771E-02  0.1280136E+00
          2   -1    0    0  502    0 -0.00000000000E+00  0.00000000000E+00  0.31105684604E+03  0.31105684604E+03  0.00000000000E+00 0. -1.
         21   -1    0    0  501  502  0.00000000000E+00 -0.00000000000E+00 -0.72917375130E+02  0.72917375130E+02  0.00000000000E+00 0. -1.
         23    2    1    2    0    0 -0.23456007270E+02 -0.10880389659E+02  0.15827146534E+03  0.18694597371E+03  0.96074831196E+02 0.  0.
         23    2    1    2    0    0  0.23882348024E+02  0.36884330646E+02  0.11527038752E+03  0.15309972187E+03  0.90672168851E+02 0.  0.
        -13    1    3    3    0    0  0.26635345281E+02 -0.33242886381E+02  0.50898411718E+02  0.66371525736E+02  0.00000000000E+00 0.  1.
         13    1    3    3    0    0 -0.50091352551E+02  0.22362496722E+02  0.10737305362E+03  0.12057444797E+03  0.00000000000E+00 0. -1.
        -13    1    4    4    0    0  0.22202759039E+02  0.65053800213E+02  0.99006312160E+02  0.12052887322E+03  0.00000000000E+00 0. -1.
         13    1    4    4    0    0  0.16795889849E+01 -0.28169469568E+02  0.16264075361E+02  0.32570848657E+02  0.00000000000E+00 0.  1.
          2    1    1    2  501    0 -0.42634075368E+00 -0.26003940987E+02 -0.35402381945E+02  0.43928525591E+02  0.00000000000E+00 0. -1.
<scales pt_clust_5="13000.00000" pt_clust_6="13000.00000" pt_clust_7="13000.00000" pt_clust_8="13000.00000" pt_clust_9="26.00744"></scales>
<clustering>
<clus scale="   26.007">  2  9  1 -1</clus>
<clus scale="   90.672">  7  8 -1 -1</clus>
<clus scale="   96.075">  5  6 -1 -1</clus>
<clus scale="   96.272">  2  7  1 -1</clus>
<clus scale="   26.007">  2  5  1 -1</clus>
</clustering>
</event>
<event>
 9    1  0.1399746E-005  0.1859758E+03  0.7546771E-02  0.1162400E+00
         -3   -1    0    0    0  501 -0.00000000000E+00  0.00000000000E+00  0.47038033349E+03  0.47038033349E+03  0.00000000000E+00 0.  1.
         21   -1    0    0  501  502  0.00000000000E+00 -0.00000000000E+00 -0.20285181906E+03  0.20285181906E+03  0.00000000000E+00 0.  1.
         23    2    1    2    0    0 -0.12167284087E+03 -0.83593416205E+02  0.23810766808E+03  0.29416839067E+03  0.89708645256E+02 0.  0.
         23    2    1    2    0    0  0.15684721098E+03  0.11384567676E+03  0.14310698080E+03  0.25627543693E+03  0.87381954136E+02 0.  0.
        -11    1    4    4    0    0  0.71728505944E+01  0.46176881749E+02  0.45395058989E+02  0.65149563117E+02  0.00000000000E+00 0. -1.
         11    1    4    4    0    0  0.14967436039E+03  0.67668795008E+02  0.97711921814E+02  0.19112587381E+03  0.00000000000E+00 0.  1.
        -11    1    3    3    0    0 -0.84857353039E+02 -0.66652513304E+01  0.14306641283E+03  0.16647280385E+03  0.00000000000E+00 0.  1.
         11    1    3    3    0    0 -0.36815487826E+02 -0.76928164874E+02  0.95041255244E+02  0.12769558682E+03  0.00000000000E+00 0. -1.
         -3    1    1    2    0  502 -0.35174370116E+02 -0.30252260552E+02 -0.11368613444E+03  0.12278832496E+03  0.00000000000E+00 0.  1.
<scales pt_clust_5="13000.00000" pt_clust_6="13000.00000" pt_clust_7="13000.00000" pt_clust_8="13000.00000" pt_clust_9="46.39435"></scales>
<clustering>
<clus scale="   46.394">  2  9  1 -1</clus>
<clus scale="   87.382">  5  6 -1 -1</clus>
<clus scale="   89.709">  7  8 -1 -1</clus>
<clus scale="  184.865">  2  5  1 -1</clus>
<clus scale="   46.394">  2  5  1 -1</clus>
</clustering>
</event>
<event>
 9    1  0.1399746E-005  0.1365942E+03  0.7546771E-02  0.1218732E+00
         21   -1    0    0  501  502  0.00000000000E+00  0.00000000000E+00  0.14245342954E+03  0.14245342954E+03  0.00000000000E+00 0. -1.
         -4   -1    0    0    0  501 -0.00000000000E+00 -0.00000000000E+00 -0.45782769165E+03  0.45782769165E+03  0.00000000000E+00 0.  1.
         23    2    1    2    0    0 -0.73373292390E+02  0.69867187887E+02 -0.40180547671E+03  0.42407909937E+03  0.90168605580E+02 0.  0.
         23    2    1    2    0    0  0.74781261074E+02 -0.43661217623E+02  0.72109991303E+02  0.14630498702E+03  0.93310017939E+02 0.  0.
        -11    1    3    3    0    0  0.15560481312E+02  0.37092644035E+02 -0.10185086649E+03  0.10950612688E+03  0.00000000000E+00 0. -1.
         11    1    3    3    0    0 -0.88933773702E+02  0.32774543852E+02 -0.29995461022E+03  0.31457297249E+03  0.00000000000E+00 0.  1.
        -11    1    4    4    0    0  0.79558009271E+02 -0.65932144296E+02  0.66399222575E+02  0.12282256002E+03  0.00000000000E+00 0. -1.
         11    1    4    4    0    0 -0.47767481974E+01  0.22270926673E+02  0.57107687279E+01  0.23482426998E+02  0.00000000000E+00 0.  1.
         -4    1    1    2    0  502 -0.14079686835E+01 -0.26205970265E+02  0.14321223289E+02  0.29897034800E+02  0.00000000000E+00 0.  1.
<scales pt_clust_5="13000.00000" pt_clust_6="13000.00000" pt_clust_7="13000.00000" pt_clust_8="13000.00000" pt_clust_9="26.24377"></scales>
<clustering>
<clus scale="   26.244">  1  9  2 -1</clus>
<clus scale="   90.169">  5  6 -1 -1</clus>
<clus scale="   93.310">  7  8 -1 -1</clus>
<clus scale="  134.468">  2  5  1 -1</clus>
<clus scale="   26.244">  1  5  2 -1</clus>
</clustering>
</event>
<event>
 9    1  0.1554038E-005  0.1098787E+03  0.7546771E-02  0.1261890E+00
         -1   -1    0    0    0  501 -0.00000000000E+00  0.00000000000E+00  0.19465440997E+03  0.19465440997E+03  0.00000000000E+00 0.  1.
         21   -1    0    0  501  502  0.00000000000E+00 -0.00000000000E+00 -0.27478513434E+03  0.27478513434E+03  0.00000000000E+00 0.  1.
         23    2    1    2    0    0 -0.39234468479E+01 -0.60411502728E+02  0.15383421146E+03  0.18886613846E+03  0.91326395657E+02 0.  0.
         23    2    1    2    0    0  0.31620955408E+02  0.63286319368E+02 -0.12769469162E+03  0.17071540044E+03  0.88502941412E+02 0.  0.
        -11    1    3    3    0    0  0.27242136375E+02 -0.34089657968E+02  0.13862207676E+03  0.14532831431E+03  0.00000000000E+00 0.  1.
         11    1    3    3    0    0 -0.31165583223E+02 -0.26321844760E+02  0.15212134692E+02  0.43537824143E+02  0.00000000000E+00 0. -1.
        -13    1    4    4    0    0  0.53974677666E+02  0.71228595207E+02 -0.96510339967E+02  0.13153335822E+03  0.00000000000E+00 0.  1.
         13    1    4    4    0    0 -0.22353722258E+02 -0.79422758390E+01 -0.31184351655E+02  0.39182042218E+02  0.00000000000E+00 0. -1.
         -1    1    1    2    0  502 -0.27697508560E+02 -0.28748166400E+01 -0.10627024420E+03  0.10985800542E+03  0.00000000000E+00 0.  1.
<scales pt_clust_5="13000.00000" pt_clust_6="13000.00000" pt_clust_7="13000.00000" pt_clust_8="13000.00000" pt_clust_9="27.84630"></scales>
<clustering>
<clus scale="   27.846">  2  9  1 -1</clus>
<clus scale="   88.503">  7  8 -1 -1</clus>
<clus scale="   91.326">  5  6 -1 -1</clus>
<clus scale="  107.543">  2  7  1 -1</clus>
<clus scale="   27.846">  2  5  1 -1</clus>
</clustering>
</event>
<event>
 9    1  0.1399746E-005  0.1765342E+03  0.7546771E-02  0.1171505E+00
         21   -1    0    0  501  502  0.00000000000E+00  0.00000000000E+00  0.16736905146E+03  0.16736905146E+03  0.00000000000E+00 0.  1.
          1   -1    0    0  502    0 -0.00000000000E+00 -0.00000000000E+00 -0.29064072228E+03  0.29064072228E+03  0.00000000000E+00 0. -1.
         23    2    1    2    0    0  0.66487401165E+02 -0.11764085498E+03 -0.79888121267E+02  0.18245667735E+03  0.92996676907E+02 0.  0.
         23    2    1    2    0    0 -0.57687025992E+02  0.15863712270E+03 -0.90993943282E+02  0.21211107435E+03  0.90651422942E+02 0.  0.
        -13    1    3    3    0    0 -0.17623303075E+02 -0.14100876795E+02  0.65503006605E+01  0.23501531363E+02  0.00000000000E+00 0.  1.
         13    1    3    3    0    0  0.84110704240E+02 -0.10353997818E+03 -0.86438421928E+02  0.15895514598E+03  0.00000000000E+00 0. -1.
        -13    1    4    4    0    0  0.98189559163E+01  0.96831322833E+02 -0.28966236889E+02  0.10154683578E+03  0.00000000000E+00 0.  1.
         13    1    4    4    0    0 -0.67505981908E+02  0.61805799865E+02 -0.62027706394E+02  0.11056423857E+03  0.00000000000E+00 0. -1.
          1    1    1    2  501    0 -0.88003751731E+01 -0.40996267722E+02  0.47610393727E+02  0.63442022045E+02  0.00000000000E+00 0. -1.
<scales pt_clust_5="13000.00000" pt_clust_6="13000.00000" pt_clust_7="13000.00000" pt_clust_8="13000.00000" pt_clust_9="41.93019"></scales>
<clustering>
<clus scale="   41.930">  1  9  2 -1</clus>
<clus scale="   90.651">  7  8 -1 -1</clus>
<clus scale="   92.997">  5  6 -1 -1</clus>
<clus scale="  175.310">  1  7  2 -1</clus>
<clus scale="   41.930">  1  5  2 -1</clus>
</clustering>
</event>
<event>
 9    1  0.1399746E-005  0.1585632E+03  0.7546771E-02  0.1190552E+00
         21   -1    0    0  501  502  0.00000000000E+00  0.00000000000E+00  0.33728607267E+02  0.33728607267E+02  0.00000000000E+00 0.  1.
          2   -1    0    0  502    0 -0.00000000000E+00 -0.00000000000E+00 -0.14480704776E+04  0.14480704776E+04  0.00000000000E+00 0. -1.
         23    2    1    2    0    0 -0.12532369394E+03  0.25410658975E+02 -0.66222287601E+03  0.68055565717E+03  0.90912788658E+02 0.  0.
         23    2    1    2    0    0  0.10721759307E+03 -0.10604515088E+03 -0.35923113077E+03  0.39975790430E+03  0.89544349031E+02 0.  0.
        -11    1    3    3    0    0 -0.51947341016E+01  0.31371525304E+02 -0.80995723758E+02  0.87014166257E+02  0.00000000000E+00 0.  1.
         11    1    3    3    0    0 -0.12012895984E+03 -0.59608663292E+01 -0.58122715225E+03  0.59354149091E+03  0.00000000000E+00 0. -1.
        -13    1    4    4    0    0  0.54745556904E+02 -0.20678367018E+02 -0.22357018020E+03  0.23110235035E+03  0.00000000000E+00 0. -1.
         13    1    4    4    0    0  0.52472036169E+02 -0.85366783863E+02 -0.13566095057E+03  0.16865555394E+03  0.00000000000E+00 0.  1.
          2    1    1    2  501    0  0.18106100871E+02  0.80634491906E+02 -0.39288786360E+03  0.40148552344E+03  0.00000000000E+00 0. -1.
<scales pt_clust_5="13000.00000" pt_clust_6="13000.00000" pt_clust_7="13000.00000" pt_clust_8="13000.00000" pt_clust_9="82.64236"></scales>
<clustering>
<clus scale="   82.642">  1  9  2 -1</clus>
<clus scale="   89.544">  7  8 -1 -1</clus>
<clus scale="   90.913">  5  6 -1 -1</clus>
<clus scale="  157.783">  1  7  2 -1</clus>
<clus scale="   82.642">  1  5  2 -1</clus>
</clustering>
</event>
<event>
 9    1  0.1573267E-005  0.1174109E+03  0.7546771E-02  0.1247609E+00
          2   -1    0    0  502    0 -0.00000000000E+00  0.00000000000E+00  0.56913798945E+03  0.56913798945E+03  0.00000000000E+00 0. -1.
         21   -1    0    0  501  502  0.00000000000E+00 -0.00000000000E+00 -0.12961900158E+03  0.12961900158E+03  0.00000000000E+00 0.  1.
         23    2    1    2    0    0  0.70905256927E+02  0.24794283581E+02  0.51957985440E+03  0.53258359260E+03  0.89664630983E+02 0.  0.
         23    2    1    2    0    0 -0.62851818081E+02 -0.48771992688E+02 -0.67656215937E+02  0.13800135968E+03  0.90210605871E+02 0.  0.
        -11    1    4    4    0    0 -0.54395687975E+02  0.14574784981E+02 -0.29596404312E+02  0.63618097863E+02  0.00000000000E+00 0.  1.
         11    1    4    4    0    0 -0.84561301055E+01 -0.63346777669E+02 -0.38059811625E+02  0.74383261816E+02  0.00000000000E+00 0. -1.
        -13    1    3    3    0    0  0.71642916434E+02 -0.16257649109E+02  0.27819043294E+03  0.28772718956E+03  0.00000000000E+00 0.  1.
         13    1    3    3    0    0 -0.73765950654E+00  0.41051932690E+02  0.24138942146E+03  0.24485640304E+03  0.00000000000E+00 0. -1.
          2    1    1    2  501    0 -0.80534388465E+01  0.23977709108E+02 -0.12404650595E+02  0.28172038756E+02  0.00000000000E+00 0. -1.
<scales pt_clust_5="13000.00000" pt_clust_6="13000.00000" pt_clust_7="13000.00000" pt_clust_8="13000.00000" pt_clust_9="25.29404"></scales>
<clustering>
<clus scale="   25.294">  2  9  1 -1</clus>
<clus scale="   89.665">  7  8 -1 -1</clus>
<clus scale="   90.211">  5  6 -1 -1</clus>
<clus scale="  116.992">  1  7  2 -1</clus>
<clus scale="   25.294">  2  5  1 -1</clus>
</clustering>
</event>
<event>
 9    1  0.1399746E-005  0.9434795E+02  0.7546771E-02  0.1293422E+00
          2   -1    0    0  502    0 -0.00000000000E+00  0.00000000000E+00  0.70821053410E+03  0.70821053410E+03  0.00000000000E+00 0. -1.
         21   -1    0    0  501  502  0.00000000000E+00 -0.00000000000E+00 -0.70574565540E+02  0.70574565540E+02  0.00000000000E+00 0. -1.
         23    2    1    2    0    0 -0.17239713764E+02  0.29877307395E+02  0.43874706077E+03  0.44936429230E+03  0.90771265454E+02 0.  0.
         23    2    1    2    0    0  0.36131769416E+01 -0.12691111779E+02  0.25427676347E+03  0.26984847833E+03  0.89372308083E+02 0.  0.
        -11    1    3    3    0    0 -0.51560579911E+02  0.30454919778E+00  0.21775914464E+03  0.22378031912E+03  0.00000000000E+00 0.  1.
         11    1    3    3    0    0  0.34320866147E+02  0.29572758197E+02  0.22098791612E+03  0.22558397318E+03  0.00000000000E+00 0. -1.
        -13    1    4    4    0    0  0.36275367080E+02 -0.34903251255E+02  0.15640603086E+03  0.16430759476E+03  0.00000000000E+00 0. -1.
         13    1    4    4    0    0 -0.32662190138E+02  0.22212139476E+02  0.97870732607E+02  0.10554088358E+03  0.00000000000E+00 0.  1.
          2    1    1    2  501    0  0.13626536822E+02 -0.17186195615E+02 -0.55387855684E+02  0.59572329002E+02  0.00000000000E+00 0. -1.
<scales pt_clust_5="13000.00000" pt_clust_6="13000.00000" pt_clust_7="13000.00000" pt_clust_8="13000.00000" pt_clust_9="21.93280"></scales>
<clustering>
<clus scale="   21.933">  2  9  1 -1</clus>
<clus scale="   89.372">  7  8 -1 -1</clus>
<clus scale="   90.771">  5  6 -1 -1</clus>
<clus scale="   93.003">  2  7  1 -1</clus>
<clus scale="   21.933">  2  5  1 -1</clus>
</clustering>
</event>
<event>
 9    1  0.1399746E-005  0.9944376E+02  0.7546771E-02  0.1282633E+00
          1   -1    0    0  502    0 -0.00000000000E+00  0.00000000000E+00  0.47567447117E+03  0.47567447117E+03  0.00000000000E+00 0. -1.
         21   -1    0    0  501  502  0.00000000000E+00 -0.00000000000E+00 -0.35218565348E+02  0.35218565348E+02  0.00000000000E+00 0.  1.
         23    2    1    2    0    0  0.42957488913E+02 -0.15852759451E+02  0.23599301305E+03  0.25649742126E+03  0.89451490026E+02 0.  0.
         23    2    1    2    0    0 -0.28702546080E+02 -0.26313740725E+02  0.10183142697E+03  0.14252768016E+03  0.91805506310E+02 0.  0.
        -11    1    4    4    0    0 -0.30329215857E+02 -0.55255080177E+02  0.41140464839E+02  0.75269668971E+02  0.00000000000E+00 0.  1.
         11    1    4    4    0    0  0.16266697767E+01  0.28941339452E+02  0.60690962134E+02  0.67258011185E+02  0.00000000000E+00 0. -1.
        -13    1    3    3    0    0  0.70350825175E+02 -0.12682572040E+02  0.14943713855E+03  0.16565489614E+03  0.00000000000E+00 0.  1.
         13    1    3    3    0    0 -0.27393336262E+02 -0.31701874108E+01  0.86555874503E+02  0.90842525124E+02  0.00000000000E+00 0. -1.
          1    1    1    2  501    0 -0.14254942832E+02  0.42166500177E+02  0.10263146579E+03  0.11186793510E+03  0.00000000000E+00 0. -1.
<scales pt_clust_5="13000.00000" pt_clust_6="13000.00000" pt_clust_7="13000.00000" pt_clust_8="13000.00000" pt_clust_9="44.51089"></scales>
<clustering>
<clus scale="   44.511">  2  9  1 -1</clus>
<clus scale="   89.451">  7  8 -1 -1</clus>
<clus scale="   91.806">  5  6 -1 -1</clus>
<clus scale="   97.275">  1  7  2 -1</clus>
<clus scale="   44.511">  2  5  1 -1</clus>
</clustering>
</event>
<event>
 9    1  0.1399746E-005  0.1363836E+03  0.7546771E-02  0.1218290E+00
          2   -1    0    0  502    0 -0.00000000000E+00  0.00000000000E+00  0.42130621947E+03  0.42130621947E+03  0.00000000000E+00 0. -1.
         21   -1    0    0  501  502  0.00000000000E+00 -0.00000000000E+00 -0.69999333222E+02  0.69999333222E+02  0.00000000000E+00 0. -1.
         23    2    1    2    0    0  0.64428524322E+02 -0.60511846441E+02  0.15594951157E+03  0.20118610646E+03  0.91339372495E+02 0.  0.
         23    2    1    2    0    0 -0.10895306303E+03  0.65105264490E+02  0.10237732838E+03  0.18692631155E+03  0.91383057380E+02 0.  0.
        -11    1    4    4    0    0 -0.14681178908E+02  0.58660017371E+02  0.27818637923E+02  0.66561334632E+02  0.00000000000E+00 0.  1.
         11    1    4    4    0    0 -0.94271884118E+02  0.64452471185E+01  0.74558690456E+02  0.12036497692E+03  0.00000000000E+00 0. -1.
        -11    1    3    3    0    0  0.29888105186E+02 -0.57831813345E+02  0.15317093333E+03  0.16643062303E+03  0.00000000000E+00 0. -1.
         11    1    3    3    0    0  0.34540419136E+02 -0.26800330959E+01  0.27785782461E+01  0.34755483431E+02  0.00000000000E+00 0.  1.
          2    1    1    2  501    0  0.44524538703E+02 -0.45934180489E+01  0.92980046293E+02  0.10319313468E+03  0.00000000000E+00 0. -1.
<scales pt_clust_5="13000.00000" pt_clust_6="13000.00000" pt_clust_7="13000.00000" pt_clust_8="13000.00000" pt_clust_9="44.76088"></scales>
<clustering>
<clus scale="   44.761">  2  9  1 -1</clus>
<clus scale="   91.339">  7  8 -1 -1</clus>
<clus scale="   91.383">  5  6 -1 -1</clus>
<clus scale="  136.354">  1  7  2 -1</clus>
<clus scale="   44.761">  2  5  1 -1</clus>
</clustering>
</event>
<event>
 9    1  0.1399746E-005  0.1471172E+03  0.7546771E-02  0.1214768E+00
         21   -1    0    0  501  502  0.00000000000E+00  0.00000000000E+00  0.14523848125E+03  0.14523848125E+03  0.00000000000E+00 0.  1.
         -3   -1    0    0    0  501 -0.00000000000E+00 -0.00000000000E+00 -0.36135594601E+03  0.36135594601E+03  0.00000000000E+00 0.  1.
         23    2    1    2    0    0  0.59275217017E+02 -0.37917411811E+02 -0.20025928379E+03  0.23194337046E+03  0.93502218599E+02 0.  0.
         23    2    1    2    0    0 -0.23155010863E+02 -0.97214316622E+02 -0.15938640574E+02  0.13477518398E+03  0.89014223973E+02 0.  0.
        -13    1    3    3    0    0  0.32086183666E+01 -0.57066808987E+02 -0.11024793468E+03  0.12418342491E+03  0.00000000000E+00 0.  1.
         13    1    3    3    0    0  0.56066598651E+02  0.19149397175E+02 -0.90011349112E+02  0.10775994555E+03  0.00000000000E+00 0. -1.
        -13    1    4    4    0    0 -0.20025851370E+02  0.75397002059E+01  0.14255065181E+02  0.25711644941E+02  0.00000000000E+00 0. -1.
         13    1    4    4    0    0 -0.31291594934E+01 -0.10475401683E+03 -0.30193705754E+02  0.10906353904E+03  0.00000000000E+00 0.  1.
         -3    1    1    2    0  502 -0.36120206154E+02  0.13513172843E+03  0.80459605269E-01  0.13987587282E+03  0.00000000000E+00 0.  1.
<scales pt_clust_5="13000.00000" pt_clust_6="13000.00000" pt_clust_7="13000.00000" pt_clust_8="13000.00000" pt_clust_9="117.13221"></scales>
<clustering>
<clus scale="   89.014">  7  8 -1 -1</clus>
<clus scale="   93.502">  5  6 -1 -1</clus>
<clus scale="  117.021">  2  5  1 -1</clus>
<clus scale="  117.132">  1  9  2 -1</clus>
<clus scale="  117.132">  1  5  2 -1</clus>
</clustering>
</event>
<event>
 9    1  0.1399746E-005  0.1645377E+03  0.7546771E-02  0.1184476E+00
         21   -1    0    0  501  502  0.00000000000E+00  0.00000000000E+00  0.21329122855E+02  0.21329122855E+02  0.00000000000E+00 0.  1.
         -4   -1    0    0    0  501 -0.00000000000E+00 -0.00000000000E+00 -0.15013952663E+04  0.15013952663E+04  0.00000000000E+00 0.  1.
         23    2    1    2    0    0  0.11041183445E+03  0.62502435513E+02 -0.78873239613E+03  0.80446561012E+03  0.94703735551E+02 0.  0.
         23    2    1    2    0    0 -0.13299180532E+03 -0.61865379928E+02 -0.59502614733E+03  0.61933752379E+03  0.89491378671E+02 0.  0.
        -11    1    4    4    0    0 -0.68931487224E+02 -0.70989987610E+02 -0.26155419404E+03  0.27964571281E+03  0.00000000000E+00 0.  1.
         11    1    4    4    0    0 -0.64060318095E+02  0.91246076817E+01 -0.33347195329E+03  0.33969181098E+03  0.00000000000E+00 0. -1.
        -13    1    3    3    0    0  0.42316418236E+02  0.76674001602E+02 -0.48786890134E+03  0.49566687066E+03  0.00000000000E+00 0.  1.
         13    1    3    3    0    0  0.68095416217E+02 -0.14171566088E+02 -0.30086349479E+03  0.30879873946E+03  0.00000000000E+00 0. -1.
         -4    1    1    2    0  502  0.22579970866E+02 -0.63705558490E+00 -0.96307600007E+02  0.98921255265E+02  0.00000000000E+00 0.  1.
<scales pt_clust_5="13000.00000" pt_clust_6="13000.00000" pt_clust_7="13000.00000" pt_clust_8="13000.00000" pt_clust_9="22.58897"></scales>
<clustering>
<clus scale="   22.589">  1  9  2 -1</clus>
<clus scale="   89.491">  5  6 -1 -1</clus>
<clus scale="   94.704">  7  8 -1 -1</clus>
<clus scale="  161.594">  1  5  2 -1</clus>
<clus scale="   22.589">  1  5  2 -1</clus>
</clustering>
</event>
<event>
 9    1  0.1399746E-005  0.1846047E+03  0.7546771E-02  0.1163470E+00
         -1   -1    0    0    0  501 -0.00000000000E+00  0.00000000000E+00  0.48547917232E+03  0.48547917232E+03  0.00000000000E+00 0.  1.
         21   -1    0    0  501  502  0.00000000000E+00 -0.00000000000E+00 -0.30543720107E+03  0.30543720107E+03  0.00000000000E+00 0.  1.
         23    2    1    2    0    0 -0.13501164600E+02  0.17266390246E+03  0.36128295026E+03  0.41017165819E+03  0.87865319538E+02 0.  0.
         23    2    1    2    0    0 -0.29274442677E+02 -0.13247930790E+03  0.27236009374E+02  0.16416399376E+03  0.88319061498E+02 0.  0.
        -13    1    4    4    0    0  0.20737456112E+02 -0.81181231420E+02 -0.82890501625E+01  0.84197047297E+02  0.00000000000E+00 0. -1.
         13    1    4    4    0    0 -0.50011898790E+02 -0.51298076478E+02  0.35525059537E+02  0.79966946459E+02  0.00000000000E+00 0.  1.
        -13    1    3    3    0    0  0.31623406664E+02  0.26884884012E+02  0.72113738311E+02  0.83205937832E+02  0.00000000000E+00 0. -1.
         13    1    3    3    0    0 -0.45124571264E+02  0.14577901845E+03  0.28916921195E+03  0.32696572036E+03  0.00000000000E+00 0.  1.
         -1    1    1    2    0  502  0.42775607277E+02 -0.40184594562E+02 -0.20847698839E+03  0.21658072145E+03  0.00000000000E+00 0.  1.
<scales pt_clust_5="13000.00000" pt_clust_6="13000.00000" pt_clust_7="13000.00000" pt_clust_8="13000.00000" pt_clust_9="58.69032"></scales>
<clustering>
<clus scale="   58.690">  2  9  1 -1</clus>
<clus scale="   87.865">  7  8 -1 -1</clus>
<clus scale="   88.319">  5  6 -1 -1</clus>
<clus scale="  184.388">  1  7  2 -1</clus>
<clus scale="   58.690">  2  5  1 -1</clus>
</clustering>
</event>
<event>
 9    1  0.1399746E-005  0.1200854E+03  0.7546771E-02  0.1243509E+00
         21   -1    0    0  501  502  0.00000000000E+00  0.00000000000E+00  0.31387884562E+02  0.31387884562E+02  0.00000000000E+00 0.  1.
          2   -1    0    0  502    0 -0.00000000000E+00 -0.00000000000E+00 -0.72448637864E+03  0.72448637864E+03  0.00000000000E+00 0. -1.
         23    2    1    2    0    0 -0.43303579619E+02  0.69888830114E+02 -0.47881084723E+03  0.49427062955E+03  0.91016367904E+02 0.  0.
         23    2    1    2    0    0  0.94388288075E+01 -0.73473630242E+02 -0.16728091370E+03  0.20355791804E+03  0.89249403807E+02 0.  0.
        -11    1    3    3    0    0 -0.59895680246E+02  0.11228585638E+02 -0.26668131385E+03  0.27355529021E+03  0.00000000000E+00 0.  1.
         11    1    3    3    0    0  0.16592100627E+02  0.58660244476E+02 -0.21212953338E+03  0.22071533933E+03  0.00000000000E+00 0. -1.
        -11    1    4    4    0    0 -0.15806295939E+02 -0.83772500588E+02 -0.14560674838E+03  0.16872757931E+03  0.00000000000E+00 0. -1.
         11    1    4    4    0    0  0.25245124746E+02  0.10298870347E+02 -0.21674165315E+02  0.34830338729E+02  0.00000000000E+00 0.  1.
          2    1    1    2  501    0  0.33864750811E+02  0.35848001275E+01 -0.47006733153E+02  0.58045715615E+02  0.00000000000E+00 0. -1.
<scales pt_clust_5="13000.00000" pt_clust_6="13000.00000" pt_clust_7="13000.00000" pt_clust_8="13000.00000" pt_clust_9="34.05396"></scales>
<clustering>
<clus scale="   34.054">  1  9  2 -1</clus>
<clus scale="   89.249">  7  8 -1 -1</clus>
<clus scale="   91.016">  5  6 -1 -1</clus>
<clus scale="  118.752">  1  7  2 -1</clus>
<clus scale="   34.054">  1  5  2 -1</clus>
</clustering>
</event>
<event>
 9    1  0.1399746E-005  0.9298431E+02  0.7546771E-02  0.1296665E+00
         21   -1    0    0  501  502  0.00000000000E+00  0.00000000000E+00  0.42618287219E+03  0.42618287219E+03  0.00000000000E+00 0. -1.
          1   -1    0    0  502    0 -0.00000000000E+00 -0.00000000000E+00 -0.12785927788E+03  0.12785927788E+03  0.00000000000E+00 0. -1.
         23    2    1    2    0    0  0.10124198293E+02  0.61312458902E+01 -0.48802009679E+02  0.10393014251E+03  0.90993114058E+02 0.  0.
         23    2    1    2    0    0  0.42920944706E+02  0.34777264572E+02  0.12068297892E+02  0.10842400398E+03  0.92511919229E+02 0.  0.
        -11    1    4    4    0    0 -0.24869432458E+02  0.30441553826E+02  0.95312126425E+01  0.40447755000E+02  0.00000000000E+00 0.  1.
         11    1    4    4    0    0  0.67790377164E+02  0.43357107463E+01  0.25370852499E+01  0.67976248980E+02  0.00000000000E+00 0. -1.
        -13    1    3    3    0    0 -0.30875117507E+02 -0.19713396322E+02 -0.40760047859E+02  0.54802120188E+02  0.00000000000E+00 0.  1.
         13    1    3    3    0    0  0.40999315801E+02  0.25844642212E+02 -0.80419618195E+01  0.49128022320E+02  0.00000000000E+00 0. -1.
          1    1    1    2  501    0 -0.53045143000E+02 -0.40908510462E+02  0.33505730609E+03  0.34168800358E+03  0.00000000000E+00 0. -1.
<scales pt_clust_5="13000.00000" pt_clust_6="13000.00000" pt_clust_7="13000.00000" pt_clust_8="13000.00000" pt_clust_9="66.98726"></scales>
<clustering>
<clus scale="   66.987">  1  9  2 -1</clus>
<clus scale="   90.993">  7  8 -1 -1</clus>
<clus scale="   91.473">  2  7  1 -1</clus>
<clus scale="   92.512">  5  6 -1 -1</clus>
<clus scale="   66.987">  1  5  2 -1</clus>
</clustering>
</event>
<event>
 9    1  0.1399746E-005  0.1100415E+03  0.7546771E-02  0.1266732E+00
          1   -1    0    0  502    0 -0.00000000000E+00  0.00000000000E+00  0.28697334190E+03  0.28697334190E+03  0.00000000000E+00 0. -1.
         21   -1    0    0  501  502  0.00000000000E+00 -0.00000000000E+00 -0.61620173660E+02  0.61620173660E+02  0.00000000000E+00 0.  1.
         23    2    1    2    0    0 -0.50954620169E+02 -0.37237189915E+02  0.20332926220E+03  0.23282544816E+03  0.94243932520E+02 0.  0.
         23    2    1    2    0    0  0.28680554553E+02  0.31444412090E+02  0.22943805111E+02  0.92734689693E+02  0.79132668464E+02 0.  0.
        -11    1    3    3    0    0 -0.16695298846E+02 -0.56169530202E+02  0.17488030573E+03  0.18443662993E+03  0.00000000000E+00 0. -1.
         11    1    3    3    0    0 -0.34259321323E+02  0.18932340287E+02  0.28448956471E+02  0.48388818239E+02  0.00000000000E+00 0.  1.
        -13    1    4    4    0    0  0.42789151070E+02 -0.11701132865E+02  0.13500909918E+02  0.46369198055E+02  0.00000000000E+00 0. -1.
         13    1    4    4    0    0 -0.14108596517E+02  0.43145544956E+02  0.94428951926E+01  0.46365491638E+02  0.00000000000E+00 0.  1.
          1    1    1    2  501    0  0.22274065616E+02  0.57927778242E+01 -0.91989907353E+00  0.23033377700E+02  0.00000000000E+00 0. -1.
<scales pt_clust_5="13000.00000" pt_clust_6="13000.00000" pt_clust_7="13000.00000" pt_clust_8="13000.00000" pt_clust_9="23.01500"></scales>
<clustering>
<clus scale="   23.015">  2  9  1 -1</clus>
<clus scale="   79.133">  7  8 -1 -1</clus>
<clus scale="   94.244">  5  6 -1 -1</clus>
<clus scale="   97.412">  2  7  1 -1</clus>
<clus scale="   23.015">  2  5  1 -1</clus>
</clustering>
</event>
<event>
 9    1  0.1399746E-005  0.1371738E+03  0.7546771E-02  0.1217566E+00
         21   -1    0    0  501  502  0.00000000000E+00  0.00000000000E+00  0.14374589259E+03  0.14374589259E+03  0.00000000000E+00 0. -1.
          2   -1    0    0  502    0 -0.00000000000E+00 -0.00000000000E+00 -0.32288215646E+03  0.32288215646E+03  0.00000000000E+00 0. -1.
         23    2    1    2    0    0  0.28051275410E+02 -0.10776013238E+03 -0.21934730216E+03  0.26301579627E+03  0.93085712882E+02 0.  0.
         23    2    1    2    0    0  0.23483183768E+02  0.79715555556E+02 -0.13197581377E+02  0.12427260679E+03  0.91452036207E+02 0.  0.
        -11    1    3    3    0    0  0.24166751823E+02  0.10553509463E+02 -0.32913096272E+02  0.42174404108E+02  0.00000000000E+00 0.  1.
         11    1    3    3    0    0  0.38845235866E+01 -0.11831364184E+03 -0.18643420588E+03  0.22084139216E+03  0.00000000000E+00 0. -1.
        -13    1    4    4    0    0 -0.26048967034E+02  0.49272010487E+02  0.17642338018E+02  0.58459659524E+02  0.00000000000E+00 0.  1.
         13    1    4    4    0    0  0.49532150802E+02  0.30443545069E+02 -0.30839919395E+02  0.65812947265E+02  0.00000000000E+00 0. -1.
          2    1    1    2  501    0 -0.51534459177E+02  0.28044576820E+02  0.53408619660E+02  0.79339645989E+02  0.00000000000E+00 0. -1.
<scales pt_clust_5="13000.00000" pt_clust_6="13000.00000" pt_clust_7="13000.00000" pt_clust_8="13000.00000" pt_clust_9="58.67111"></scales>
<clustering>
<clus scale="   58.671">  1  9  2 -1</clus>
<clus scale="   91.452">  7  8 -1 -1</clus>
<clus scale="   93.086">  5  6 -1 -1</clus>
<clus scale="  136.070">  1  7  2 -1</clus>
<clus scale="   58.671">  1  5  2 -1</clus>
</clustering>
</event>
<event>
 9    1  0.1399746E-005  0.1015008E+03  0.7546771E-02  0.1277330E+00
         21   -1    0    0  501  502  0.00000000000E+00  0.00000000000E+00  0.23863896382E+03  0.23863896382E+03  0.00000000000E+00 0. -1.
          2   -1    0    0  502    0 -0.00000000000E+00 -0.00000000000E+00 -0.52519859799E+03  0.52519859799E+03  0.00000000000E+00 0. -1.
         23    2    1    2    0    0  0.56136488146E+02 -0.13731800817E+02 -0.36383016317E+03  0.37913466783E+03  0.89614960026E+02 0.  0.
         23    2    1    2    0    0 -0.18461671568E+02  0.30639264853E+02 -0.13650344931E+03  0.16697699302E+03  0.89266604368E+02 0.  0.
        -11    1    3    3    0    0  0.65798721039E+02  0.21004064120E+02 -0.20722411933E+03  0.21843186130E+03  0.00000000000E+00 0. -1.
         11    1    3    3    0    0 -0.96622328931E+01 -0.34735864938E+02 -0.15660604385E+03  0.16070280653E+03  0.00000000000E+00 0.  1.
        -13    1    4    4    0    0 -0.43827293828E+02 -0.12895556073E+02 -0.68656125215E+02  0.82466905970E+02  0.00000000000E+00 0.  1.
         13    1    4    4    0    0  0.25365622260E+02  0.43534820926E+02 -0.67847324095E+02  0.84510087047E+02  0.00000000000E+00 0. -1.
          2    1    1    2  501    0 -0.37674816578E+02 -0.16907464036E+02  0.21377397832E+03  0.21772590096E+03  0.00000000000E+00 0. -1.
<scales pt_clust_5="13000.00000" pt_clust_6="13000.00000" pt_clust_7="13000.00000" pt_clust_8="13000.00000" pt_clust_9="41.29472"></scales>
<clustering>
<clus scale="   41.295">  1  9  2 -1</clus>
<clus scale="   89.267">  7  8 -1 -1</clus>
<clus scale="   89.615">  5  6 -1 -1</clus>
<clus scale="  101.193">  1  7  2 -1</clus>
<clus scale="   41.295">  1  5  2 -1</clus>
</clustering>
</event>
<event>
 9    1  0.1399746E-005  0.1439445E+03  0.7546771E-02  0.1208463E+00
          2   -1    0    0  502    0 -0.00000000000E+00  0.00000000000E+00  0.10227781371E+04  0.10227781371E+04  0.00000000000E+00 0. -1.
         21   -1    0    0  501  502  0.00000000000E+00 -0.00000000000E+00 -0.48917875568E+02  0.48917875568E+02  0.00000000000E+00 0. -1.
         23    2    1    2    0    0  0.11400730223E+03  0.69830902220E+01  0.75186900734E+03  0.76614303351E+03  0.92853191042E+02 0.  0.
         23    2    1    2    0    0 -0.95103884980E+02 -0.39304993966E+02  0.22933206295E+03  0.26739630065E+03  0.91202823498E+02 0.  0.
        -11    1    4    4    0    0 -0.83500326248E+02 -0.60452460867E+02  0.13402636364E+03  0.16908539458E+03  0.00000000000E+00 0. -1.
         11    1    4    4    0    0 -0.11603558732E+02  0.21147466901E+02  0.95305699312E+02  0.98310906073E+02  0.00000000000E+00 0.  1.
        -13    1    3    3    0    0  0.60754526280E+01 -0.30205689460E+02  0.11153028331E+03  0.11570781692E+03  0.00000000000E+00 0.  1.
         13    1    3    3    0    0  0.10793184960E+03  0.37188779682E+02  0.64033872402E+03  0.65043521659E+03  0.00000000000E+00 0. -1.
          2    1    1    2  501    0 -0.18903417250E+02  0.32321903744E+02 -0.73408087186E+01  0.38156678551E+02  0.00000000000E+00 0. -1.
<scales pt_clust_5="13000.00000" pt_clust_6="13000.00000" pt_clust_7="13000.00000" pt_clust_8="13000.00000" pt_clust_9="37.44389"></scales>
<clustering>
<clus scale="   37.444">  2  9  1 -1</clus>
<clus scale="   91.203">  5  6 -1 -1</clus>
<clus scale="   92.853">  7  8 -1 -1</clus>
<clus scale="  142.885">  2  5  1 -1</clus>
<clus scale="   37.444">  2  5  1 -1</clus>
</clustering>
</event>
<event>
 9    1  0.1399746E-005  0.1423724E+03  0.7546771E-02  0.1212603E+00
         -3   -1    0    0    0  501 -0.00000000000E+00  0.00000000000E+00  0.68690775914E+03  0.68690775914E+03  0.00000000000E+00 0.  1.
         21   -1    0    0  501  502  0.00000000000E+00 -0.00000000000E+00 -0.57834364991E+02  0.57834364991E+02  0.00000000000E+00 0. -1.
         23    2    1    2    0    0 -0.62928313529E+01 -0.94901605714E+02  0.41815537794E+03  0.43811257587E+03  0.89681628781E+02 0.  0.
         23    2    1    2    0    0 -0.17264031809E+02  0.11620706647E+03  0.22418357470E+03  0.27220828300E+03  0.10018455508E+03 0.  0.
        -11    1    3    3    0    0 -0.19664062363E+02 -0.70351046414E+02  0.39533024194E+03  0.40202231937E+03  0.00000000000E+00 0.  1.
         11    1    3    3    0    0  0.13371231010E+02 -0.24550559300E+02  0.22825136001E+02  0.36090256498E+02  0.00000000000E+00 0. -1.
        -13    1    4    4    0    0 -0.34615561038E+02  0.50127044620E+02  0.18197658753E+03  0.19190215235E+03  0.00000000000E+00 0.  1.
         13    1    4    4    0    0  0.17351529229E+02  0.66080021846E+02  0.42206987177E+02  0.80306130652E+02  0.00000000000E+00 0. -1.
         -3    1    1    2    0  502  0.23556863162E+02 -0.21305460753E+02 -0.13265558495E+02  0.34421265260E+02  0.00000000000E+00 0.  1.
<scales pt_clust_5="13000.00000" pt_clust_6="13000.00000" pt_clust_7="13000.00000" pt_clust_8="13000.00000" pt_clust_9="31.76237"></scales>
<clustering>
<clus scale="   31.762">  2  9  1 -1</clus>
<clus scale="   89.682">  5  6 -1 -1</clus>
<clus scale="  100.185">  7  8 -1 -1</clus>
<clus scale="  135.188">  1  5  2 -1</clus>
<clus scale="   31.762">  2  5  1 -1</clus>
</clustering>
</event>
<event>
 9    1  0.1399746E-005  0.2238608E+03  0.7546771E-02  0.1131244E+00
          1   -1    0    0  502    0 -0.00000000000E+00  0.00000000000E+00  0.44801353650E+03  0.44801353650E+03  0.00000000000E+00 0. -1.
         21   -1    0    0  501  502  0.00000000000E+00 -0.00000000000E+00 -0.16402161387E+03  0.16402161387E+03  0.00000000000E+00 0.  1.
         23    2    1    2    0    0 -0.20407483955E+03  0.24415378093E+02  0.29570772728E+03  0.37236385003E+03  0.94705469819E+02 0.  0.
         23    2    1    2    0    0  0.19145442485E+03 -0.41151581085E+02 -0.15225952585E+01  0.21636299978E+03  0.91991194989E+02 0.  0.
        -13    1    4    4    0    0  0.10526741746E+03  0.10273798667E+02 -0.33636129142E+02  0.11098724837E+03  0.00000000000E+00 0.  1.
         13    1    4    4    0    0  0.86187007394E+02 -0.51425379752E+02  0.32113533884E+02  0.10537575141E+03  0.00000000000E+00 0. -1.
        -13    1    3    3    0    0 -0.84062947141E+01 -0.23009911793E+02  0.40031702074E+02  0.46932494100E+02  0.00000000000E+00 0.  1.
         13    1    3    3    0    0 -0.19566854484E+03  0.47425289886E+02  0.25567602520E+03  0.32543135593E+03  0.00000000000E+00 0. -1.
          1    1    1    2  501    0  0.12620414698E+02  0.16736202992E+02 -0.10193209390E+02  0.23308300569E+02  0.00000000000E+00 0. -1.
<scales pt_clust_5="13000.00000" pt_clust_6="13000.00000" pt_clust_7="13000.00000" pt_clust_8="13000.00000" pt_clust_9="20.96128"></scales>
<clustering>
<clus scale="   20.961">  2  9  1 -1</clus>
<clus scale="   91.991">  5  6 -1 -1</clus>
<clus scale="   94.705">  7  8 -1 -1</clus>
<clus scale="  222.726">  2  5  1 -1</clus>
<clus scale="   20.961">  2  5  1 -1</clus>
</clustering>
</event>
<event>
 9    1  0.1399746E-005  0.1399553E+03  0.7546771E-02  0.1216043E+00
         21   -1    0    0  501  502  0.00000000000E+00  0.00000000000E+00  0.34984381481E+03  0.34984381481E+03  0.00000000000E+00 0. -1.
          1   -1    0    0  502    0 -0.00000000000E+00 -0.00000000000E+00 -0.13021947144E+03  0.13021947144E+03  0.00000000000E+00 0. -1.
         23    2    1    2    0    0 -0.10123941464E+03 -0.28804768302E+02 -0.44929816760E+02  0.14507815358E+03  0.89161922688E+02 0.  0.
         23    2    1    2    0    0  0.62748357452E+02  0.56098458358E+02  0.10251003616E+03  0.16621071187E+03  0.10016636079E+03 0.  0.
        -11    1    3    3    0    0 -0.19605402883E+02 -0.39419964830E+02  0.11216784565E+02  0.45432606192E+02  0.00000000000E+00 0.  1.
         11    1    3    3    0    0 -0.81634011762E+02  0.10615196529E+02 -0.56146601325E+02  0.99645547387E+02  0.00000000000E+00 0. -1.
        -13    1    4    4    0    0 -0.24656116462E+02  0.15757101185E+02  0.59446699394E+01  0.29858824784E+02  0.00000000000E+00 0. -1.
         13    1    4    4    0    0  0.87404473914E+02  0.40341357173E+02  0.96565366220E+02  0.13635188709E+03  0.00000000000E+00 0.  1.
          1    1    1    2  501    0  0.38491057193E+02 -0.27293690056E+02  0.16204412397E+03  0.16877442079E+03  0.00000000000E+00 0. -1.
<scales pt_clust_5="13000.00000" pt_clust_6="13000.00000" pt_clust_7="13000.00000" pt_clust_8="13000.00000" pt_clust_9="47.18588"></scales>
<clustering>
<clus scale="   47.186">  1  9  2 -1</clus>
<clus scale="   89.162">  5  6 -1 -1</clus>
<clus scale="  100.166">  7  8 -1 -1</clus>
<clus scale="  132.303">  2  5  1 -1</clus>
<clus scale="   47.186">  1  5  2 -1</clus>
</clustering>
</event>
<event>
 9    1  0.1399746E-005  0.1413698E+03  0.7546771E-02  0.1230540E+00
          3   -1    0    0  502    0 -0.00000000000E+00  0.00000000000E+00  0.44746723009E+03  0.44746723009E+03  0.00000000000E+00 0. -1.
         21   -1    0    0  501  502  0.00000000000E+00 -0.00000000000E+00 -0.13371507574E+03  0.13371507574E+03  0.00000000000E+00 0. -1.
         23    2    1    2    0    0  0.87070301023E+01 -0.23413000683E+02  0.10383872192E+03  0.14063168818E+03  0.91492133964E+02 0.  0.
         23    2    1    2    0    0 -0.11206662254E+03  0.48844379609E+02  0.27587700420E+03  0.31532620635E+03  0.91530288203E+02 0.  0.
        -11    1    4    4    0    0 -0.70540237044E+02  0.60832995073E+02  0.24527592824E+03  0.26236779396E+03  0.00000000000E+00 0. -1.
         11    1    4    4    0    0 -0.41526385501E+02 -0.11988615463E+02  0.30601075956E+02  0.52958412393E+02  0.00000000000E+00 0.  1.
        -13    1    3    3    0    0  0.37598183655E+02 -0.42967422826E+02  0.80370079607E+02  0.98585863766E+02  0.00000000000E+00 0.  1.
         13    1    3    3    0    0 -0.28891153553E+02  0.19554422143E+02  0.23468642315E+02  0.42045824419E+02  0.00000000000E+00 0. -1.
          3    1    1    2  501    0  0.10335959244E+03 -0.25431378927E+02 -0.65963571772E+02  0.12522441130E+03  0.00000000000E+00 0. -1.
<scales pt_clust_5="13000.00000" pt_clust_6="13000.00000" pt_clust_7="13000.00000" pt_clust_8="13000.00000" pt_clust_9="107.73864"></scales>
<clustering>
<clus scale="   91.492">  7  8 -1 -1</clus>
<clus scale="   91.530">  5  6 -1 -1</clus>
<clus scale="   94.841">  1  7  2 -1</clus>
<clus scale="  107.739">  2  9  1 -1</clus>
<clus scale="  107.739">  2  5  1 -1</clus>
</clustering>
</event>
<event>
 9    1  0.1812267E-005  0.1112507E+03  0.7546771E-02  0.1260880E+00
         21   -1    0    0  501  502  0.00000000000E+00  0.00000000000E+00  0.17784420982E+03  0.17784420982E+03  0.00000000000E+00 0.  1.
          1   -1    0    0  502    0 -0.00000000000E+00 -0.00000000000E+00 -0.37824859117E+03  0.37824859117E+03  0.00000000000E+00 0. -1.
         23    2    1    2    0    0  0.63580258326E+02 -0.19488888853E+01 -0.32002729904E+03  0.33945975777E+03  0.93644047325E+02 0.  0.
         23    2    1    2    0    0 -0.16577715038E+02 -0.52544163968E+02  0.96349044093E+02  0.14099968366E+03  0.86960121268E+02 0.  0.
        -13    1    4    4    0    0 -0.33785888317E+02  0.48693466438E+01  0.94208830793E+01  0.35411153951E+02  0.00000000000E+00 0. -1.
         13    1    4    4    0    0  0.17208173279E+02 -0.57413510612E+02  0.86928161014E+02  0.10558852971E+03  0.00000000000E+00 0.  1.
        -13    1    3    3    0    0 -0.24299418576E+02  0.55710509305E+01 -0.65529390202E+02  0.70111335259E+02  0.00000000000E+00 0.  1.
         13    1    3    3    0    0  0.87879676903E+02 -0.75199398157E+01 -0.25449790884E+03  0.26934842251E+03  0.00000000000E+00 0. -1.
          1    1    1    2  501    0 -0.47002543289E+02  0.54493052854E+02  0.23273873597E+02  0.75633359552E+02  0.00000000000E+00 0. -1.
<scales pt_clust_5="13000.00000" pt_clust_6="13000.00000" pt_clust_7="13000.00000" pt_clust_8="13000.00000" pt_clust_9="71.96341"></scales>
<clustering>
<clus scale="   71.963">  1  9  2 -1</clus>
<clus scale="   86.960">  5  6 -1 -1</clus>
<clus scale="   93.644">  7  8 -1 -1</clus>
<clus scale="  105.686">  1  5  2 -1</clus>
<clus scale="   71.963">  1  5  2 -1</clus>
</clustering>
</event>
<event>
 9    1  0.1399746E-005  0.8811569E+02  0.7546771E-02  0.1320378E+00
          3   -1    0    0  502    0 -0.00000000000E+00  0.00000000000E+00  0.37510598240E+03  0.37510598240E+03  0.00000000000E+00 0. -1.
         21   -1    0    0  501  502  0.00000000000E+00 -0.00000000000E+00 -0.66486562223E+02  0.66486562223E+02  0.00000000000E+00 0. -1.
         23    2    1    2    0    0  0.32230521610E+01  0.76909826150E+01  0.27151849294E+03  0.28027457475E+03  0.69007289206E+02 0.  0.
         23    2    1    2    0    0  0.11347409062E+02 -0.25377817920E+02  0.73990605131E+02  0.11789020435E+03  0.87468241662E+02 0.  0.
        -11    1    4    4    0    0 -0.18128410693E+02 -0.40695421566E+02  0.71928857870E+02  0.84608020927E+02  0.00000000000E+00 0.  1.
         11    1    4    4    0    0  0.29475819755E+02  0.15317603647E+02  0.20617472613E+01  0.33282183424E+02  0.00000000000E+00 0. -1.
        -11    1    3    3    0    0  0.34361525278E+02 -0.21002374230E+01  0.10231379606E+03  0.10795016573E+03  0.00000000000E+00 0. -1.
         11    1    3    3    0    0 -0.31138473117E+02  0.97912200379E+01  0.16920469688E+03  0.17232440902E+03  0.00000000000E+00 0.  1.
          3    1    1    2  501    0 -0.14570461223E+02  0.17686835305E+02 -0.36889677892E+02  0.43427765523E+02  0.00000000000E+00 0. -1.
<scales pt_clust_5="13000.00000" pt_clust_6="13000.00000" pt_clust_7="13000.00000" pt_clust_8="13000.00000" pt_clust_9="22.91555"></scales>
<clustering>
<clus scale="   22.916">  2  9  1 -1</clus>
<clus scale="   69.007">  7  8 -1 -1</clus>
<clus scale="   69.826">  1  7  2 -1</clus>
<clus scale="   87.468">  5  6 -1 -1</clus>
<clus scale="   22.916">  2  5  1 -1</clus>
</clustering>
</event>
<event>
 9    1  0.1399746E-005  0.1105162E+03  0.7546771E-02  0.1259709E+00
          2   -1    0    0  502    0 -0.00000000000E+00  0.00000000000E+00  0.13868524948E+03  0.13868524948E+03  0.00000000000E+00 0. -1.
         21   -1    0    0  501  502  0.00000000000E+00 -0.00000000000E+00 -0.33009334935E+03  0.33009334935E+03  0.00000000000E+00 0.  1.
         23    2    1    2    0    0 -0.52044551801E+02 -0.31315182686E+02  0.97579475728E+02  0.14675932247E+03  0.91253869008E+02 0.  0.
         23    2    1    2    0    0  0.72971512021E+02  0.31411566872E+02 -0.23805133619E+03  0.26695161398E+03  0.91012073088E+02 0.  0.
        -11    1    4    4    0    0  0.28153486391E+02  0.38786380390E+02 -0.36223902319E+02  0.60076394690E+02  0.00000000000E+00 0. -1.
         11    1    4    4    0    0  0.44818025630E+02 -0.73748135177E+01 -0.20182743387E+03  0.20687521929E+03  0.00000000000E+00 0.  1.
        -13    1    3    3    0    0 -0.14563378625E+02 -0.57025202084E+02  0.76864807035E+02  0.96809938695E+02  0.00000000000E+00 0. -1.
         13    1    3    3    0    0 -0.37481173177E+02  0.25710019398E+02  0.20714668692E+02  0.49949383772E+02  0.00000000000E+00 0.  1.
          2    1    1    2  501    0 -0.20926960220E+02 -0.96384186274E-01 -0.50936239412E+02  0.55067662375E+02  0.00000000000E+00 0. -1.
<scales pt_clust_5="13000.00000" pt_clust_6="13000.00000" pt_clust_7="13000.00000" pt_clust_8="13000.00000" pt_clust_9="20.92718"></scales>
<clustering>
<clus scale="   20.927">  2  9  1 -1</clus>
<clus scale="   91.012">  5  6 -1 -1</clus>
<clus scale="   91.254">  7  8 -1 -1</clus>
<clus scale="  110.317">  2  5  1 -1</clus>
<clus scale="   20.927">  2  5  1 -1</clus>
</clustering>
</event>
<event>
 9    1  0.1399746E-005  0.1020090E+03  0.7546771E-02  0.1279405E+00
          1   -1    0    0  502    0 -0.00000000000E+00  0.00000000000E+00  0.44663395214E+02  0.44663395214E+02  0.00000000000E+00 0. -1.
         21   -1    0    0  501  502  0.00000000000E+00 -0.00000000000E+00 -0.65324641157E+03  0.65324641157E+03  0.00000000000E+00 0. -1.
         23    2    1    2    0    0  0.24781489023E+02  0.45116117272E+02 -0.72372039288E+02  0.12787146165E+03  0.91998980421E+02 0.  0.
         23    2    1    2    0    0  0.20040587141E+02  0.15611342508E+02 -0.18781919343E+03  0.21356439406E+03  0.98429476498E+02 0.  0.
        -11    1    3    3    0    0 -0.25461796741E+01  0.54406797958E+02 -0.81121962551E+02  0.97710570069E+02  0.00000000000E+00 0. -1.
         11    1    3    3    0    0  0.27327668697E+02 -0.92906806860E+01  0.87499232631E+01  0.30160891584E+02  0.00000000000E+00 0.  1.
        -13    1    4    4    0    0 -0.18384634384E+02  0.35548973205E+02 -0.30280005736E+02  0.50185685457E+02  0.00000000000E+00 0.  1.
         13    1    4    4    0    0  0.38425221525E+02 -0.19937630698E+02 -0.15753918769E+03  0.16337870860E+03  0.00000000000E+00 0. -1.
          1    1    1    2  501    0 -0.44822076164E+02 -0.60727459780E+02 -0.34839178364E+03  0.35647395107E+03  0.00000000000E+00 0. -1.
<scales pt_clust_5="13000.00000" pt_clust_6="13000.00000" pt_clust_7="13000.00000" pt_clust_8="13000.00000" pt_clust_9="75.47743"></scales>
<clustering>
<clus scale="   75.477">  2  9  1 -1</clus>
<clus scale="   91.999">  5  6 -1 -1</clus>
<clus scale="   95.819">  1  5  2 -1</clus>
<clus scale="   98.429">  7  8 -1 -1</clus>
<clus scale="   75.477">  2  5  1 -1</clus>
</clustering>
</event>
<event>
 9    1  0.1399746E-005  0.1100963E+03  0.7546771E-02  0.1260707E+00
         21   -1    0    0  501  502  0.00000000000E+00  0.00000000000E+00  0.53399538708E+03  0.53399538708E+03  0.00000000000E+00 0. -1.
          3   -1    0    0  502    0 -0.00000000000E+00 -0.00000000000E+00 -0.48302389783E+02  0.48302389783E+02  0.00000000000E+00 0. -1.
         23    2    1    2    0    0 -0.19948401345E+02 -0.53500810583E+02  0.87140913350E+02  0.13822211952E+03  0.90837988169E+02 0.  0.
         23    2    1    2    0    0 -0.38696668601E+02  0.84291906557E+02  0.27621503662E+03  0.30495812083E+03  0.90011951035E+02 0.  0.
        -13    1    3    3    0    0  0.30730264075E+01 -0.68036939181E+02  0.87638674686E+02  0.11099101714E+03  0.00000000000E+00 0. -1.
         13    1    3    3    0    0 -0.23021427752E+02  0.14536128598E+02 -0.49776133602E+00  0.27231102378E+02  0.00000000000E+00 0.  1.
        -13    1    4    4    0    0 -0.19096747938E+02 -0.10913044442E+02  0.11193710260E+03  0.11407758439E+03  0.00000000000E+00 0.  1.
         13    1    4    4    0    0 -0.19599920663E+02  0.95204950999E+02  0.16427793402E+03  0.19088053644E+03  0.00000000000E+00 0. -1.
          3    1    1    2  501    0  0.58645069946E+02 -0.30791095974E+02  0.12233704732E+03  0.13911753652E+03  0.00000000000E+00 0. -1.
<scales pt_clust_5="13000.00000" pt_clust_6="13000.00000" pt_clust_7="13000.00000" pt_clust_8="13000.00000" pt_clust_9="66.23697"></scales>
<clustering>
<clus scale="   66.237">  1  9  2 -1</clus>
<clus scale="   90.012">  7  8 -1 -1</clus>
<clus scale="   90.838">  5  6 -1 -1</clus>
<clus scale="  109.416">  1  7  2 -1</clus>
<clus scale="   66.237">  1  5  2 -1</clus>
</clustering>
</event>
<event>
 9    1  0.1399746E-005  0.1940176E+03  0.7546771E-02  0.1154902E+00
         21   -1    0    0  501  502  0.00000000000E+00  0.00000000000E+00  0.18722673764E+03  0.18722673764E+03  0.00000000000E+00 0. -1.
          2   -1    0    0  502    0 -0.00000000000E+00 -0.00000000000E+00 -0.26198889857E+03  0.26198889857E+03  0.00000000000E+00 0. -1.
         23    2    1    2    0    0  0.18044965916E+03  0.61960138573E+02 -0.78786785814E+02  0.22558162381E+03  0.90986664526E+02 0.  0.
         23    2    1    2    0    0 -0.14691376641E+03 -0.30815481224E+02 -0.10075869869E+02  0.17574382827E+03  0.90835683383E+02 0.  0.
        -11    1    4    4    0    0 -0.10152585742E+03 -0.48070878215E+02 -0.39374397081E+02  0.11903214777E+03  0.00000000000E+00 0. -1.
         11    1    4    4    0    0 -0.45387908994E+02  0.17255396991E+02  0.29298527211E+02  0.56711680498E+02  0.00000000000E+00 0.  1.
        -13    1    3    3    0    0  0.47935250006E+02 -0.22515002834E+02 -0.93664508642E+01  0.53781446127E+02  0.00000000000E+00 0.  1.
         13    1    3    3    0    0  0.13251440915E+03  0.84475141407E+02 -0.69420334950E+02  0.17180017769E+03  0.00000000000E+00 0. -1.
          2    1    1    2  501    0 -0.33535892744E+02 -0.31144657348E+02  0.14100494750E+02  0.47890184127E+02  0.00000000000E+00 0. -1.
<scales pt_clust_5="13000.00000" pt_clust_6="13000.00000" pt_clust_7="13000.00000" pt_clust_8="13000.00000" pt_clust_9="45.76730"></scales>
<clustering>
<clus scale="   45.767">  1  9  2 -1</clus>
<clus scale="   90.836">  5  6 -1 -1</clus>
<clus scale="   90.987">  7  8 -1 -1</clus>
<clus scale="  193.947">  1  5  2 -1</clus>
<clus scale="   45.767">  1  5  2 -1</clus>
</clustering>
</event>
<event>
 9    1  0.1399746E-005  0.2492273E+03  0.7546771E-02  0.1113854E+00
         21   -1    0    0  501  502  0.00000000000E+00  0.00000000000E+00  0.44730713909E+03  0.44730713909E+03  0.00000000000E+00 0.  1.
         -2   -1    0    0    0  501 -0.00000000000E+00 -0.00000000000E+00 -0.40576056296E+03  0.40576056296E+03  0.00000000000E+00 0.  1.
         23    2    1    2    0    0 -0.31585148113E+02 -0.25632536701E+03 -0.28141935046E+03  0.39332644617E+03  0.93853753730E+02 0.  0.
         23    2    1    2    0    0 -0.12275518734E+02  0.15921831962E+03  0.94145144798E+02  0.20732793029E+03  0.92846113150E+02 0.  0.
        -11    1    4    4    0    0 -0.22449323515E+02  0.19808407824E+02 -0.11545112610E+02  0.32087922525E+02  0.00000000000E+00 0. -1.
         11    1    4    4    0    0  0.10173804782E+02  0.13940991180E+03  0.10569025741E+03  0.17524000777E+03  0.00000000000E+00 0.  1.
        -13    1    3    3    0    0 -0.58712930726E+02 -0.17335294420E+03 -0.15582445223E+03  0.24037410720E+03  0.00000000000E+00 0.  1.
         13    1    3    3    0    0  0.27127782613E+02 -0.82972422810E+02 -0.12559489823E+03  0.15295233898E+03  0.00000000000E+00 0. -1.
         -2    1    1    2    0  502  0.43860666847E+02  0.97107047384E+02  0.22882078180E+03  0.25241332558E+03  0.00000000000E+00 0.  1.
<scales pt_clust_5="13000.00000" pt_clust_6="13000.00000" pt_clust_7="13000.00000" pt_clust_8="13000.00000" pt_clust_9="106.55298"></scales>
<clustering>
<clus scale="   92.846">  5  6 -1 -1</clus>
<clus scale="   93.854">  7  8 -1 -1</clus>
<clus scale="  106.553">  1  9  2 -1</clus>
<clus scale="  248.850">  1  5  2 -1</clus>
<clus scale="  106.553">  1  5  2 -1</clus>
</clustering>
</event>
<event>
 9    1  0.1399746E-005  0.1071466E+03  0.7546771E-02  0.1268589E+00
         -3   -1    0    0    0  501 -0.00000000000E+00  0.00000000000E+00  0.12386256619E+03  0.12386256619E+03  0.00000000000E+00 0.  1.
         21   -1    0    0  501  502  0.00000000000E+00 -0.00000000000E+00 -0.16820457868E+03  0.16820457868E+03  0.00000000000E+00 0. -1.
         23    2    1    2    0    0 -0.41807830044E+02  0.16511008524E+02  0.39354514877E+02  0.10455624543E+03  0.85806308403E+02 0.  0.
         23    2    1    2    0    0  0.69043734545E+02 -0.38014461775E+02 -0.32222264583E+02  0.12543197609E+03  0.92101952788E+02 0.  0.
        -11    1    3    3    0    0 -0.37023850461E+02  0.40614125715E+02 -0.35943396418E+01  0.55074422267E+02  0.00000000000E+00 0. -1.
         11    1    3    3    0    0 -0.47839795830E+01 -0.24103117192E+02  0.42948854519E+02  0.49481823163E+02  0.00000000000E+00 0.  1.
        -13    1    4    4    0    0  0.83970665067E+02 -0.42536655026E+01 -0.25930638168E+02  0.87986159467E+02  0.00000000000E+00 0.  1.
         13    1    4    4    0    0 -0.14926930521E+02 -0.33760796273E+02 -0.62916264153E+01  0.37445816625E+02  0.00000000000E+00 0. -1.
         -3    1    1    2    0  502 -0.27235904501E+02  0.21503453251E+02 -0.51474262779E+02  0.62078923351E+02  0.00000000000E+00 0.  1.
<scales pt_clust_5="13000.00000" pt_clust_6="13000.00000" pt_clust_7="13000.00000" pt_clust_8="13000.00000" pt_clust_9="34.70148"></scales>
<clustering>
<clus scale="   34.701">  2  9  1 -1</clus>
<clus scale="   85.806">  5  6 -1 -1</clus>
<clus scale="   92.102">  7  8 -1 -1</clus>
<clus scale="  101.786">  1  5  2 -1</clus>
<clus scale="   34.701">  2  5  1 -1</clus>
</clustering>
</event>
<event>
 9    1  0.1399746E-005  0.1667899E+03  0.7546771E-02  0.1181258E+00
         21   -1    0    0  501  502  0.00000000000E+00  0.00000000000E+00  0.58015397944E+02  0.58015397944E+02  0.00000000000E+00 0.  1.
          1   -1    0    0  502    0 -0.00000000000E+00 -0.00000000000E+00 -0.72335003793E+03  0.72335003793E+03  0.00000000000E+00 0. -1.
         23    2    1    2    0    0 -0.70631986213E+02  0.13264813867E+03 -0.45851280210E+03  0.49119887598E+03  0.91967058837E+02 0.  0.
         23    2    1    2    0    0  0.64536603449E+02 -0.10400120090E+03 -0.21093543037E+03  0.26059085402E+03  0.91829267898E+02 0.  0.
        -13    1    4    4    0    0 -0.13986098955E+02 -0.61438465610E+02 -0.75248777496E+02  0.98146189611E+02  0.00000000000E+00 0.  1.
         13    1    4    4    0    0  0.78522702404E+02 -0.42562735286E+02 -0.13568665287E+03  0.16244466441E+03  0.00000000000E+00 0. -1.
        -13    1    3    3    0    0 -0.71157451813E+02  0.90204908943E+02 -0.21268832820E+03  0.24173670283E+03  0.00000000000E+00 0.  1.
         13    1    3    3    0    0  0.52546559974E+00  0.42443229724E+02 -0.24582447390E+03  0.24946217315E+03  0.00000000000E+00 0. -1.
          1    1    1    2  501    0  0.60953827637E+01 -0.28646937771E+02  0.41135924781E+01  0.29575705871E+02  0.00000000000E+00 0. -1.
<scales pt_clust_5="13000.00000" pt_clust_6="13000.00000" pt_clust_7="13000.00000" pt_clust_8="13000.00000" pt_clust_9="29.28824"></scales>
<clustering>
<clus scale="   29.288">  1  9  2 -1</clus>
<clus scale="   91.829">  5  6 -1 -1</clus>
<clus scale="   91.967">  7  8 -1 -1</clus>
<clus scale="  166.714">  1  5  2 -1</clus>
<clus scale="   29.288">  1  5  2 -1</clus>
</clustering>
</event>
<event>
 9    1  0.1399746E-005  0.1037526E+03  0.7546771E-02  0.1276041E+00
         21   -1    0    0  501  502  0.00000000000E+00  0.00000000000E+00  0.22503940153E+03  0.22503940153E+03  0.00000000000E+00 0.  1.
          3   -1    0    0  502    0 -0.00000000000E+00 -0.00000000000E+00 -0.72284928717E+02  0.72284928717E+02  0.00000000000E+00 0. -1.
         23    2    1    2    0    0  0.46184870346E+01 -0.26101407853E+02  0.20586296226E+02  0.10512797513E+03  0.99626711517E+02 0.  0.
         23    2    1    2    0    0  0.21767932582E+02  0.31541573811E+02  0.64212233183E+02  0.11909472183E+03  0.92691035758E+02 0.  0.
        -11    1    4    4    0    0 -0.26788204390E+01  0.52216950958E+02  0.59610734192E+01  0.52624333180E+02  0.00000000000E+00 0.  1.
         11    1    4    4    0    0  0.24446753021E+02 -0.20675377147E+02  0.58251159764E+02  0.66470388650E+02  0.00000000000E+00 0. -1.
        -13    1    3    3    0    0  0.28056539463E+02  0.12806233709E+02 -0.25797528163E+02  0.40207977912E+02  0.00000000000E+00 0. -1.
         13    1    3    3    0    0 -0.23438052428E+02 -0.38907641563E+02  0.46383824389E+02  0.64919997216E+02  0.00000000000E+00 0.  1.
          3    1    1    2  501    0 -0.26386419617E+02 -0.54401659580E+01  0.67955943407E+02  0.73101633293E+02  0.00000000000E+00 0. -1.
<scales pt_clust_5="13000.00000" pt_clust_6="13000.00000" pt_clust_7="13000.00000" pt_clust_8="13000.00000" pt_clust_9="26.94139"></scales>
<clustering>
<clus scale="   26.941">  1  9  2 -1</clus>
<clus scale="   92.691">  5  6 -1 -1</clus>
<clus scale="   97.112">  1  5  2 -1</clus>
<clus scale="   99.627">  7  8 -1 -1</clus>
<clus scale="   26.941">  1  5  2 -1</clus>
</clustering>
</event>
<event>
 9    1  0.1399746E-005  0.1009969E+03  0.7546771E-02  0.1278244E+00
         21   -1    0    0  501  502  0.00000000000E+00  0.00000000000E+00  0.32838357506E+02  0.32838357506E+02  0.00000000000E+00 0. -1.
         -1   -1    0    0    0  501 -0.00000000000E+00 -0.00000000000E+00 -0.44320885263E+03  0.44320885263E+03  0.00000000000E+00 0.  1.
         23    2    1    2    0    0  0.10691864573E+02  0.39032076238E+02 -0.22642471301E+03  0.24754695354E+03  0.91506964762E+02 0.  0.
         23    2    1    2    0    0  0.99041996535E+01 -0.47574668553E+02 -0.17714115358E+03  0.20518766956E+03  0.91441506918E+02 0.  0.
        -11    1    4    4    0    0 -0.18254630030E+02 -0.51617442369E+02 -0.16572531708E+03  0.17453501825E+03  0.00000000000E+00 0.  1.
         11    1    4    4    0    0  0.28158829683E+02  0.40427738159E+01 -0.11415836505E+02  0.30652651310E+02  0.00000000000E+00 0. -1.
        -13    1    3    3    0    0 -0.87771646146E+01 -0.26705991450E+02 -0.39796201908E+02  0.48723570110E+02  0.00000000000E+00 0.  1.
         13    1    3    3    0    0  0.19469029188E+02  0.65738067688E+02 -0.18662851110E+03  0.19882338343E+03  0.00000000000E+00 0. -1.
         -1    1    1    2    0  502 -0.20596064226E+02  0.85425923150E+01 -0.68046285316E+01  0.23312587041E+02  0.00000000000E+00 0.  1.
<scales pt_clust_5="13000.00000" pt_clust_6="13000.00000" pt_clust_7="13000.00000" pt_clust_8="13000.00000" pt_clust_9="22.29739"></scales>
<clustering>
<clus scale="   22.297">  1  9  2 -1</clus>
<clus scale="   91.442">  5  6 -1 -1</clus>
<clus scale="   91.507">  7  8 -1 -1</clus>
<clus scale="  100.938">  1  5  2 -1</clus>
<clus scale="   22.297">  1  5  2 -1</clus>
</clustering>
</event>
<event>
 9    1  0.1399746E-005  0.2457492E+03  0.7546771E-02  0.1116088E+00
          2   -1    0    0  502    0 -0.00000000000E+00  0.00000000000E+00  0.67676910285E+03  0.67676910285E+03  0.00000000000E+00 0. -1.
         21   -1    0    0  501  502  0.00000000000E+00 -0.00000000000E+00 -0.11006294704E+03  0.11006294704E+03  0.00000000000E+00 0.  1.
         23    2    1    2    0    0 -0.16025152563E+03 -0.16010885257E+03  0.35041752357E+03  0.42712382164E+03  0.91251970091E+02 0.  0.
         23    2    1    2    0    0  0.17783110591E+03  0.14601885467E+03  0.22570833543E+03  0.33528896349E+03  0.92352737962E+02 0.  0.
        -13    1    3    3    0    0 -0.66063365412E+02 -0.11960694618E+02  0.76553127555E+02  0.10182243271E+03  0.00000000000E+00 0. -1.
         13    1    3    3    0    0 -0.94188160222E+02 -0.14814815795E+03  0.27386439602E+03  0.32530138892E+03  0.00000000000E+00 0.  1.
        -13    1    4    4    0    0  0.15151439810E+03  0.98774310270E+02  0.12151332328E+03  0.21789553675E+03  0.00000000000E+00 0.  1.
         13    1    4    4    0    0  0.26316707811E+02  0.47244544400E+02  0.10419501215E+03  0.11739342674E+03  0.00000000000E+00 0. -1.
          2    1    1    2  501    0 -0.17579580276E+02  0.14089997897E+02 -0.94197031873E+01  0.24419264763E+02  0.00000000000E+00 0. -1.
<scales pt_clust_5="13000.00000" pt_clust_6="13000.00000" pt_clust_7="13000.00000" pt_clust_8="13000.00000" pt_clust_9="22.52931"></scales>
<clustering>
<clus scale="   22.529">  2  9  1 -1</clus>
<clus scale="   91.252">  5  6 -1 -1</clus>
<clus scale="   92.353">  7  8 -1 -1</clus>
<clus scale="  245.338">  1  5  2 -1</clus>
<clus scale="   22.529">  2  5  1 -1</clus>
</clustering>
</event>
<event>
 9    1  0.1399746E-005  0.9614576E+02  0.7546771E-02  0.1288797E+00
          2   -1    0    0  502    0 -0.00000000000E+00  0.00000000000E+00  0.14024954788E+03  0.14024954788E+03  0.00000000000E+00 0. -1.
         21   -1    0    0  501  502  0.00000000000E+00 -0.00000000000E+00 -0.30175754986E+03  0.30175754986E+03  0.00000000000E+00 0. -1.
         23    2    1    2    0    0 -0.30198386433E+02  0.21146850651E+02  0.95268756149E+02  0.13564412599E+03  0.89241588861E+02 0.  0.
         23    2    1    2    0    0  0.18492480519E+01 -0.44668011852E+02 -0.85558734053E+02  0.13122722314E+03  0.88891147590E+02 0.  0.
        -11    1    3    3    0    0 -0.59545477027E+02  0.81738199759E+01  0.80127786776E+02  0.10016455152E+03  0.00000000000E+00 0. -1.
         11    1    3    3    0    0  0.29347090594E+02  0.12973030676E+02  0.15140969373E+02  0.35479574473E+02  0.00000000000E+00 0.  1.
        -13    1    4    4    0    0  0.64574750058E+01 -0.70443218825E+02 -0.48171570941E+02  0.85582979083E+02  0.00000000000E+00 0. -1.
         13    1    4    4    0    0 -0.46082269539E+01  0.25775206973E+02 -0.37387163112E+02  0.45644244059E+02  0.00000000000E+00 0.  1.
          2    1    1    2  501    0  0.28349138381E+02  0.23521161200E+02 -0.17121802408E+03  0.17513574861E+03  0.00000000000E+00 0. -1.
<scales pt_clust_5="13000.00000" pt_clust_6="13000.00000" pt_clust_7="13000.00000" pt_clust_8="13000.00000" pt_clust_9="36.83638"></scales>
<clustering>
<clus scale="   36.836">  2  9  1 -1</clus>
<clus scale="   88.891">  7  8 -1 -1</clus>
<clus scale="   89.242">  5  6 -1 -1</clus>
<clus scale="   95.821">  2  7  1 -1</clus>
<clus scale="   36.836">  2  5  1 -1</clus>
</clustering>
</event>
<event>
 9    1  0.1399746E-005  0.2496499E+03  0.7546771E-02  0.1113555E+00
         21   -1    0    0  501  502  0.00000000000E+00  0.00000000000E+00  0.12883522684E+04  0.12883522684E+04  0.00000000000E+00 0. -1.
         -1   -1    0    0    0  501 -0.00000000000E+00 -0.00000000000E+00 -0.19847362594E+03  0.19847362594E+03  0.00000000000E+00 0.  1.
         23    2    1    2    0    0  0.12716195721E+03 -0.19437671091E+03 -0.55855610959E+02  0.25588981100E+03  0.91691204558E+02 0.  0.
         23    2    1    2    0    0 -0.25420958559E+03  0.10064419833E+03  0.66366204071E+03  0.72366840050E+03  0.92178530779E+02 0.  0.
        -11    1    4    4    0    0 -0.12263095526E+03  0.35041165226E+01  0.24010538435E+03  0.26963164802E+03  0.00000000000E+00 0.  1.
         11    1    4    4    0    0 -0.13157863033E+03  0.97140081807E+02  0.42355665636E+03  0.45403675248E+03  0.00000000000E+00 0. -1.
        -11    1    3    3    0    0  0.45445927001E+02 -0.16198669907E+02  0.96682853117E+01  0.49205740810E+02  0.00000000000E+00 0. -1.
         11    1    3    3    0    0  0.81716030207E+02 -0.17817804100E+03 -0.65523896271E+02  0.20668407019E+03  0.00000000000E+00 0.  1.
         -1    1    1    2    0  502  0.12704762838E+03  0.93732512579E+02  0.48207221274E+03  0.50726768287E+03  0.00000000000E+00 0.  1.
<scales pt_clust_5="13000.00000" pt_clust_6="13000.00000" pt_clust_7="13000.00000" pt_clust_8="13000.00000" pt_clust_9="157.88250"></scales>
<clustering>
<clus scale="   91.691">  7  8 -1 -1</clus>
<clus scale="   92.179">  5  6 -1 -1</clus>
<clus scale="  157.882">  1  9  2 -1</clus>
<clus scale="  249.470">  2  7  1 -1</clus>
<clus scale="  157.882">  1  5  2 -1</clus>
</clustering>
</event>
<event>
 9    1  0.1399746E-005  0.9884782E+02  0.7546771E-02  0.1284494E+00
         -3   -1    0    0    0  501 -0.00000000000E+00  0.00000000000E+00  0.15613323522E+03  0.15613323522E+03  0.00000000000E+00 0.  1.
         21   -1    0    0  501  502  0.00000000000E+00 -0.00000000000E+00 -0.13237805057E+03  0.13237805057E+03  0.00000000000E+00 0.  1.
         23    2    1    2    0    0  0.13219761702E+02  0.32757563967E+02  0.79242080470E+02  0.12508273551E+03  0.90103070477E+02 0.  0.
         23    2    1    2    0    0 -0.32335539526E+02 -0.10021008795E+02  0.11559607518E+01  0.99469367165E+02  0.93524387329E+02 0.  0.
        -11    1    4    4    0    0 -0.20051441920E+02 -0.50562271286E+02  0.12088018226E+02  0.55720048325E+02  0.00000000000E+00 0. -1.
         11    1    4    4    0    0 -0.12284097606E+02  0.40541262491E+02 -0.10932057474E+02  0.43749318840E+02  0.00000000000E+00 0.  1.
        -13    1    3    3    0    0  0.20867738386E+02  0.58401309509E+02  0.29670856604E+02  0.68749801376E+02  0.00000000000E+00 0.  1.
         13    1    3    3    0    0 -0.76479766845E+01 -0.25643745542E+02  0.49571223866E+02  0.56332934136E+02  0.00000000000E+00 0. -1.
         -3    1    1    2    0  502  0.19115777824E+02 -0.22736555172E+02 -0.56642856576E+02  0.63959183109E+02  0.00000000000E+00 0.  1.
<scales pt_clust_5="13000.00000" pt_clust_6="13000.00000" pt_clust_7="13000.00000" pt_clust_8="13000.00000" pt_clust_9="29.70461"></scales>
<clustering>
<clus scale="   29.705">  2  9  1 -1</clus>
<clus scale="   90.103">  7  8 -1 -1</clus>
<clus scale="   93.524">  5  6 -1 -1</clus>
<clus scale="   95.617">  1  7  2 -1</clus>
<clus scale="   29.705">  2  5  1 -1</clus>
</clustering>
</event>
<event>
 9    1  0.1399746E-005  0.9301825E+02  0.7546771E-02  0.1295784E+00
          2   -1    0    0  502    0 -0.00000000000E+00  0.00000000000E+00  0.38219365083E+03  0.38219365083E+03  0.00000000000E+00 0. -1.
         21   -1    0    0  501  502  0.00000000000E+00 -0.00000000000E+00 -0.68242483443E+02  0.68242483443E+02  0.00000000000E+00 0. -1.
         23    2    1    2    0    0  0.25908153059E+02 -0.15182836934E+02  0.26936037577E+03  0.28592740758E+03  0.91091818735E+02 0.  0.
         23    2    1    2    0    0  0.24400439860E+02 -0.62775955344E-01  0.57248687364E+02  0.11043835072E+03  0.91235035475E+02 0.  0.
        -11    1    4    4    0    0  0.15340577208E+02 -0.41014449150E+02  0.52290829598E+02  0.68204466189E+02  0.00000000000E+00 0.  1.
         11    1    4    4    0    0  0.90598626520E+01  0.40951673195E+02  0.49578577656E+01  0.42233884528E+02  0.00000000000E+00 0. -1.
        -11    1    3    3    0    0  0.78668526773E+01 -0.45042059257E+02  0.22444538316E+03  0.22905546162E+03  0.00000000000E+00 0. -1.
         11    1    3    3    0    0  0.18041300382E+02  0.29859222323E+02  0.44914992603E+02  0.56871945964E+02  0.00000000000E+00 0.  1.
          2    1    1    2  501    0 -0.50308592919E+02  0.15245612890E+02 -0.12657895740E+02  0.54070375978E+02  0.00000000000E+00 0. -1.
<scales pt_clust_5="13000.00000" pt_clust_6="13000.00000" pt_clust_7="13000.00000" pt_clust_8="13000.00000" pt_clust_9="52.56789"></scales>
<clustering>
<clus scale="   52.568">  2  9  1 -1</clus>
<clus scale="   91.092">  7  8 -1 -1</clus>
<clus scale="   91.235">  5  6 -1 -1</clus>
<clus scale="   92.878">  1  7  2 -1</clus>
<clus scale="   52.568">  2  5  1 -1</clus>
</clustering>
</event>
<event>
 9    1  0.1399746E-005  0.1694619E+03  0.7546771E-02  0.1204076E+00
         -1   -1    0    0    0  501 -0.00000000000E+00  0.00000000000E+00  0.28105581740E+03  0.28105581740E+03  0.00000000000E+00 0.  1.
         21   -1    0    0  501  502  0.00000000000E+00 -0.00000000000E+00 -0.30959302927E+03  0.30959302927E+03  0.00000000000E+00 0. -1.
         23    2    1    2    0    0 -0.23513657300E+02 -0.14051733788E+02  0.18635474472E+03  0.20973186458E+03  0.92244353958E+02 0.  0.
         23    2    1    2    0    0  0.91009943557E+02  0.12841676040E+03 -0.12436651144E+03  0.22019995066E+03  0.90814728561E+02 0.  0.
        -11    1    4    4    0    0  0.71829191549E+02  0.27822284000E+02 -0.70826590945E+02  0.10464185697E+03  0.00000000000E+00 0.  1.
         11    1    4    4    0    0  0.19180752008E+02  0.10059447640E+03 -0.53539920499E+02  0.11555809369E+03  0.00000000000E+00 0. -1.
        -11    1    3    3    0    0 -0.15862817000E+02 -0.50843649960E+02  0.14164139861E+03  0.15132412730E+03  0.00000000000E+00 0.  1.
         11    1    3    3    0    0 -0.76508403000E+01  0.36791916173E+02  0.44713346115E+02  0.58407737277E+02  0.00000000000E+00 0. -1.
         -1    1    1    2    0  502 -0.67496286257E+02 -0.11436502661E+03 -0.90525445156E+02  0.16071703143E+03  0.00000000000E+00 0.  1.
<scales pt_clust_5="13000.00000" pt_clust_6="13000.00000" pt_clust_7="13000.00000" pt_clust_8="13000.00000" pt_clust_9="143.07348"></scales>
<clustering>
<clus scale="   90.815">  5  6 -1 -1</clus>
<clus scale="   92.244">  7  8 -1 -1</clus>
<clus scale="   96.226">  1  7  2 -1</clus>
<clus scale="  143.073">  2  9  1 -1</clus>
<clus scale="  143.073">  2  5  1 -1</clus>
</clustering>
</event>
<event>
 9    1  0.1399746E-005  0.1243274E+03  0.7546771E-02  0.1236644E+00
         21   -1    0    0  501  502  0.00000000000E+00  0.00000000000E+00  0.12853239643E+03  0.12853239643E+03  0.00000000000E+00 0.  1.
          1   -1    0    0  502    0 -0.00000000000E+00 -0.00000000000E+00 -0.50242938016E+03  0.50242938016E+03  0.00000000000E+00 0. -1.
         23    2    1    2    0    0 -0.34333061266E+02 -0.68489298070E+02 -0.33018939335E+03  0.35116579403E+03  0.91776011945E+02 0.  0.
         23    2    1    2    0    0  0.19027616799E+02  0.10737305200E+03 -0.12479043432E+03  0.18857849229E+03  0.89989848095E+02 0.  0.
        -11    1    4    4    0    0 -0.17340455333E+02  0.10280719567E+03 -0.98880211062E+02  0.14369170822E+03  0.00000000000E+00 0.  1.
         11    1    4    4    0    0  0.36368072132E+02  0.45658563298E+01 -0.25910223261E+02  0.44886784069E+02  0.00000000000E+00 0. -1.
        -13    1    3    3    0    0  0.30765092719E+02 -0.22795250831E+02 -0.13686727808E+03  0.14212236347E+03  0.00000000000E+00 0.  1.
         13    1    3    3    0    0 -0.65098153985E+02 -0.45694047239E+02 -0.19332211527E+03  0.20904343055E+03  0.00000000000E+00 0. -1.
          1    1    1    2  501    0  0.15305444467E+02 -0.38883753927E+02  0.81082843943E+02  0.91217490273E+02  0.00000000000E+00 0. -1.
<scales pt_clust_5="13000.00000" pt_clust_6="13000.00000" pt_clust_7="13000.00000" pt_clust_8="13000.00000" pt_clust_9="41.78759"></scales>
<clustering>
<clus scale="   41.788">  1  9  2 -1</clus>
<clus scale="   89.990">  5  6 -1 -1</clus>
<clus scale="   91.776">  7  8 -1 -1</clus>
<clus scale="  123.015">  1  5  2 -1</clus>
<clus scale="   41.788">  1  5  2 -1</clus>
</clustering>
</event>
<event>
 9    1  0.1399746E-005  0.1023111E+03  0.7546771E-02  0.1280530E+00
         -1   -1    0    0    0  501 -0.00000000000E+00  0.00000000000E+00  0.15147899207E+03  0.15147899207E+03  0.00000000000E+00 0.  1.
         21   -1    0    0  501  502  0.00000000000E+00 -0.00000000000E+00 -0.84766384846E+02  0.84766384846E+02  0.00000000000E+00 0. -1.
         23    2    1    2    0    0  0.42730348778E+02  0.11425409173E+02  0.38083092176E+02  0.11202737976E+03  0.95621071028E+02 0.  0.
         23    2    1    2    0    0 -0.18680067342E+02 -0.27573493512E+02  0.19510162677E+02  0.93847958425E+02  0.85542681701E+02 0.  0.
        -11    1    3    3    0    0  0.35320905220E+02  0.52017503846E+02  0.31210988368E+02  0.70196245248E+02  0.00000000000E+00 0.  1.
         11    1    3    3    0    0  0.74094435578E+01 -0.40592094673E+02  0.68721038086E+01  0.41831134512E+02  0.00000000000E+00 0. -1.
        -13    1    4    4    0    0 -0.16249833168E+02 -0.48352242086E+02 -0.15282618828E+02  0.53249927990E+02  0.00000000000E+00 0. -1.
         13    1    4    4    0    0 -0.24302341744E+01  0.20778748574E+02  0.34792781504E+02  0.40598030435E+02  0.00000000000E+00 0.  1.
         -1    1    1    2    0  502 -0.24050281436E+02  0.16148084339E+02  0.91193523732E+01  0.30370038733E+02  0.00000000000E+00 0.  1.
<scales pt_clust_5="13000.00000" pt_clust_6="13000.00000" pt_clust_7="13000.00000" pt_clust_8="13000.00000" pt_clust_9="28.96856"></scales>
<clustering>
<clus scale="   28.969">  2  9  1 -1</clus>
<clus scale="   85.543">  7  8 -1 -1</clus>
<clus scale="   92.961">  2  7  1 -1</clus>
<clus scale="   95.621">  5  6 -1 -1</clus>
<clus scale="   28.969">  2  5  1 -1</clus>
</clustering>
</event>
<event>
 9    1  0.1399746E-005  0.1931303E+03  0.7546771E-02  0.1175526E+00
         21   -1    0    0  501  502  0.00000000000E+00  0.00000000000E+00  0.36120101686E+03  0.36120101686E+03  0.00000000000E+00 0.  1.
         -2   -1    0    0    0  501 -0.00000000000E+00 -0.00000000000E+00 -0.43229239381E+03  0.43229239381E+03  0.00000000000E+00 0.  1.
         23    2    1    2    0    0  0.19902462345E+02  0.66075678369E+02  0.22059499987E+02  0.12416689846E+03  0.10083994176E+03 0.  0.
         23    2    1    2    0    0 -0.69802984286E+02  0.10164996274E+03 -0.33651365410E+03  0.36958096332E+03  0.90241218472E+02 0.  0.
        -11    1    3    3    0    0  0.40720659485E+02 -0.11050617261E+00 -0.17473647414E+02  0.44311541098E+02  0.00000000000E+00 0. -1.
         11    1    3    3    0    0 -0.20818197140E+02  0.66186184541E+02  0.39533147401E+02  0.79855357364E+02  0.00000000000E+00 0.  1.
        -11    1    4    4    0    0 -0.78900626561E+02  0.70480387388E+02 -0.17230253810E+03  0.20219040164E+03  0.00000000000E+00 0. -1.
         11    1    4    4    0    0  0.90976422749E+01  0.31169575356E+02 -0.16421111599E+03  0.16739056168E+03  0.00000000000E+00 0.  1.
         -2    1    1    2    0  502  0.49900521941E+02 -0.16772564111E+03  0.24336277716E+03  0.29974554890E+03  0.00000000000E+00 0.  1.
<scales pt_clust_5="13000.00000" pt_clust_6="13000.00000" pt_clust_7="13000.00000" pt_clust_8="13000.00000" pt_clust_9="170.75078"></scales>
<clustering>
<clus scale="   90.241">  7  8 -1 -1</clus>
<clus scale="  100.840">  5  6 -1 -1</clus>
<clus scale="  122.192">  2  5  1 -1</clus>
<clus scale="  170.751">  1  9  2 -1</clus>
<clus scale="  170.751">  1  5  2 -1</clus>
</clustering>
</event>
<event>
 9    1  0.1399746E-005  0.9549513E+02  0.7546771E-02  0.1291228E+00
         21   -1    0    0  501  502  0.00000000000E+00  0.00000000000E+00  0.20268397974E+03  0.20268397974E+03  0.00000000000E+00 0.  1.
          1   -1    0    0  502    0 -0.00000000000E+00 -0.00000000000E+00 -0.86909343547E+02  0.86909343547E+02  0.00000000000E+00 0. -1.
         23    2    1    2    0    0  0.73789927881E+01  0.30057452660E+02 -0.64897295382E+01  0.96297146526E+02  0.90956714126E+02 0.  0.
         23    2    1    2    0    0 -0.17796983263E+02  0.13414611305E+02  0.11221033890E+03  0.14747654858E+03  0.93067114575E+02 0.  0.
        -11    1    4    4    0    0  0.36624887160E+02 -0.60661131625E+01  0.53199833486E+02  0.64872200297E+02  0.00000000000E+00 0. -1.
         11    1    4    4    0    0 -0.54421870423E+02  0.19480724467E+02  0.59010505411E+02  0.82604348281E+02  0.00000000000E+00 0.  1.
        -11    1    3    3    0    0  0.18927605054E+02  0.57911690303E+02  0.10290260631E+02  0.61789218887E+02  0.00000000000E+00 0. -1.
         11    1    3    3    0    0 -0.11548612266E+02 -0.27854237642E+02 -0.16779990169E+02  0.34507927639E+02  0.00000000000E+00 0.  1.
          1    1    1    2  501    0  0.10417990475E+02 -0.43472063965E+02  0.10054026830E+02  0.45819628178E+02  0.00000000000E+00 0. -1.
<scales pt_clust_5="13000.00000" pt_clust_6="13000.00000" pt_clust_7="13000.00000" pt_clust_8="13000.00000" pt_clust_9="44.70299"></scales>
<clustering>
<clus scale="   44.703">  1  9  2 -1</clus>
<clus scale="   90.957">  7  8 -1 -1</clus>
<clus scale="   93.067">  5  6 -1 -1</clus>
<clus scale="   93.440">  2  7  1 -1</clus>
<clus scale="   44.703">  1  5  2 -1</clus>
</clustering>
</event>
<event>
 9    1  0.1399746E-005  0.1407875E+03  0.7546771E-02  0.1212305E+00
          1   -1    0    0  502    0 -0.00000000000E+00  0.00000000000E+00  0.60672022358E+03  0.60672022358E+03  0.00000000000E+00 0. -1.
         21   -1    0    0  501  502  0.00000000000E+00 -0.00000000000E+00 -0.42191322931E+02  0.42191322931E+02  0.00000000000E+00 0.  1.
         23    2    1    2    0    0 -0.98594666577E+02 -0.59210564750E+02  0.38160874493E+03  0.40886340450E+03  0.91198958763E+02 0.  0.
         23    2    1    2    0    0  0.84768509464E+02  0.41140742083E+02  0.16643684951E+03  0.21195222602E+03  0.91346923236E+02 0.  0.
        -13    1    3    3    0    0 -0.47867576812E+02  0.15127059269E+01  0.25577943302E+03  0.26022434849E+03  0.00000000000E+00 0. -1.
         13    1    3    3    0    0 -0.50727089765E+02 -0.60723270677E+02  0.12582931190E+03  0.14863905601E+03  0.00000000000E+00 0.  1.
        -13    1    4    4    0    0  0.63203582259E+02 -0.17382132852E+02  0.10884549594E+03  0.12705972351E+03  0.00000000000E+00 0.  1.
         13    1    4    4    0    0  0.21564927205E+02  0.58522874935E+02  0.57591353566E+02  0.84892502505E+02  0.00000000000E+00 0. -1.
          1    1    1    2  501    0  0.13826157114E+02  0.18069822668E+02  0.16483306220E+02  0.28095915997E+02  0.00000000000E+00 0. -1.
<scales pt_clust_5="13000.00000" pt_clust_6="13000.00000" pt_clust_7="13000.00000" pt_clust_8="13000.00000" pt_clust_9="22.75261"></scales>
<clustering>
<clus scale="   22.753">  2  9  1 -1</clus>
<clus scale="   91.199">  5  6 -1 -1</clus>
<clus scale="   91.347">  7  8 -1 -1</clus>
<clus scale="  140.692">  1  5  2 -1</clus>
<clus scale="   22.753">  2  5  1 -1</clus>
</clustering>
</event>
<event>
 9    1  0.1399746E-005  0.9185138E+02  0.7546771E-02  0.1298680E+00
          1   -1    0    0  502    0 -0.00000000000E+00  0.00000000000E+00  0.17093236438E+03  0.17093236438E+03  0.00000000000E+00 0. -1.
         21   -1    0    0  501  502  0.00000000000E+00 -0.00000000000E+00 -0.10260042430E+03  0.10260042430E+03  0.00000000000E+00 0. -1.
         23    2    1    2    0    0  0.64095355444E+01 -0.34977625752E+02  0.52677668065E+02  0.11090966287E+03  0.90892794850E+02 0.  0.
         23    2    1    2    0    0 -0.16366570500E+02 -0.27821875589E+02  0.22564965334E+02  0.98664720608E+02  0.90463407193E+02 0.  0.
        -13    1    3    3    0    0  0.36630774481E+02 -0.47812068368E+02  0.17350605002E+02  0.62680547338E+02  0.00000000000E+00 0. -1.
         13    1    3    3    0    0 -0.30221238937E+02  0.12834442616E+02  0.35327063064E+02  0.48229115530E+02  0.00000000000E+00 0.  1.
        -13    1    4    4    0    0  0.28951981419E+02 -0.68147348942E+01 -0.17607379299E+02  0.34564109211E+02  0.00000000000E+00 0.  1.
         13    1    4    4    0    0 -0.45318551919E+02 -0.21007140695E+02  0.40172344633E+02  0.64100611397E+02  0.00000000000E+00 0. -1.
          1    1    1    2  501    0  0.99570349554E+01  0.62799501342E+02 -0.69106933130E+01  0.63958405201E+02  0.00000000000E+00 0. -1.
<scales pt_clust_5="13000.00000" pt_clust_6="13000.00000" pt_clust_7="13000.00000" pt_clust_8="13000.00000" pt_clust_9="63.58396"></scales>
<clustering>
<clus scale="   63.584">  2  9  1 -1</clus>
<clus scale="   90.463">  7  8 -1 -1</clus>
<clus scale="   90.893">  5  6 -1 -1</clus>
<clus scale="   91.426">  2  7  1 -1</clus>
<clus scale="   63.584">  2  5  1 -1</clus>
</clustering>
</event>
<event>
 9    1  0.1399746E-005  0.9751008E+02  0.7546771E-02  0.1285893E+00
          1   -1    0    0  502    0 -0.00000000000E+00  0.00000000000E+00  0.28473208355E+03  0.28473208355E+03  0.00000000000E+00 0. -1.
         21   -1    0    0  501  502  0.00000000000E+00 -0.00000000000E+00 -0.12347730710E+03  0.12347730710E+03  0.00000000000E+00 0. -1.
         23    2    1    2    0    0  0.21230067543E+02 -0.53702738003E+01  0.17697027117E+03  0.20122973731E+03  0.93248992983E+02 0.  0.
         23    2    1    2    0    0 -0.47079796502E+02 -0.32757075432E+02  0.55361871355E+02  0.12228080320E+03  0.92726074006E+02 0.  0.
        -11    1    3    3    0    0  0.64473282223E+01  0.43872224679E+02  0.84419385182E+02  0.95357080147E+02  0.00000000000E+00 0.  1.
         11    1    3    3    0    0  0.14782739320E+02 -0.49242498480E+02  0.92550885987E+02  0.10587265717E+03  0.00000000000E+00 0. -1.
        -13    1    4    4    0    0 -0.11573200612E+02 -0.61941784795E+02  0.30085022821E+02  0.69827160003E+02  0.00000000000E+00 0. -1.
         13    1    4    4    0    0 -0.35506595890E+02  0.29184709363E+02  0.25276848534E+02  0.52453643192E+02  0.00000000000E+00 0.  1.
          1    1    1    2  501    0  0.25849728960E+02  0.38127349232E+02 -0.71077366071E+02  0.84698850136E+02  0.00000000000E+00 0. -1.
<scales pt_clust_5="13000.00000" pt_clust_6="13000.00000" pt_clust_7="13000.00000" pt_clust_8="13000.00000" pt_clust_9="46.06412"></scales>
<clustering>
<clus scale="   46.064">  2  9  1 -1</clus>
<clus scale="   92.726">  7  8 -1 -1</clus>
<clus scale="   93.249">  5  6 -1 -1</clus>
<clus scale="   97.010">  2  7  1 -1</clus>
<clus scale="   46.064">  2  5  1 -1</clus>
</clustering>
</event>
<event>
 9    1  0.1399746E-005  0.1394884E+03  0.7546771E-02  0.1214470E+00
         -1   -1    0    0    0  501 -0.00000000000E+00  0.00000000000E+00  0.10554045384E+03  0.10554045384E+03  0.00000000000E+00 0.  1.
         21   -1    0    0  501  502  0.00000000000E+00 -0.00000000000E+00 -0.36777280792E+03  0.36777280792E+03  0.00000000000E+00 0. -1.
         23    2    1    2    0    0 -0.10282510054E+03 -0.97704069983E+02 -0.50990908201E+02  0.17679658062E+03  0.92400603946E+02 0.  0.
         23    2    1    2    0    0  0.22129765498E+02  0.47269357906E+02 -0.15213404521E+03  0.18449399552E+03  0.90383338910E+02 0.  0.
        -11    1    3    3    0    0 -0.10364228471E+03 -0.76802045220E+02 -0.83091410608E+01  0.12926453169E+03  0.00000000000E+00 0. -1.
         11    1    3    3    0    0  0.81718417025E+00 -0.20902024763E+02 -0.42681767140E+02  0.47532048929E+02  0.00000000000E+00 0.  1.
        -13    1    4    4    0    0 -0.20312309210E+02 -0.16010110396E+02 -0.57115925663E+02  0.62698823790E+02  0.00000000000E+00 0. -1.
         13    1    4    4    0    0  0.42442074708E+02  0.63279468302E+02 -0.95018119551E+02  0.12179517173E+03  0.00000000000E+00 0.  1.
         -1    1    1    2    0  502  0.80695335037E+02  0.50434712077E+02 -0.59107400666E+02  0.11202268562E+03  0.00000000000E+00 0.  1.
<scales pt_clust_5="13000.00000" pt_clust_6="13000.00000" pt_clust_7="13000.00000" pt_clust_8="13000.00000" pt_clust_9="95.15990"></scales>
<clustering>
<clus scale="   90.383">  7  8 -1 -1</clus>
<clus scale="   92.401">  5  6 -1 -1</clus>
<clus scale="   95.160">  2  9  1 -1</clus>
<clus scale="  138.160">  2  7  1 -1</clus>
<clus scale="   95.160">  2  5  1 -1</clus>
</clustering>
</event>
<event>
 9    1  0.1399746E-005  0.1198791E+03  0.7546771E-02  0.1244375E+00
          1   -1    0    0  502    0 -0.00000000000E+00  0.00000000000E+00  0.14325487210E+03  0.14325487210E+03  0.00000000000E+00 0. -1.
         21   -1    0    0  501  502  0.00000000000E+00 -0.00000000000E+00 -0.28039487754E+03  0.28039487754E+03  0.00000000000E+00 0. -1.
         23    2    1    2    0    0 -0.36710157765E+01 -0.85495049307E+02  0.79593171996E+02  0.14912374725E+03  0.92627960958E+02 0.  0.
         23    2    1    2    0    0 -0.16300984196E+02  0.23972798568E+02 -0.10290821061E+03  0.14360621324E+03  0.95876105021E+02 0.  0.
        -11    1    3    3    0    0 -0.40193356571E+02 -0.38028258951E+02  0.82008959831E+01  0.55936652441E+02  0.00000000000E+00 0.  1.
         11    1    3    3    0    0  0.36522340795E+02 -0.47466790356E+02  0.71392276013E+02  0.93187094805E+02  0.00000000000E+00 0. -1.
        -13    1    4    4    0    0  0.18716658941E+02 -0.26929887432E+02 -0.60018854452E+02  0.68394408022E+02  0.00000000000E+00 0. -1.
         13    1    4    4    0    0 -0.35017643137E+02  0.50902685999E+02 -0.42889356158E+02  0.75211805220E+02  0.00000000000E+00 0.  1.
          1    1    1    2  501    0  0.19971999973E+02  0.61522250740E+02 -0.11382496683E+03  0.13091978915E+03  0.00000000000E+00 0. -1.
<scales pt_clust_5="13000.00000" pt_clust_6="13000.00000" pt_clust_7="13000.00000" pt_clust_8="13000.00000" pt_clust_9="64.68283"></scales>
<clustering>
<clus scale="   64.683">  2  9  1 -1</clus>
<clus scale="   92.628">  5  6 -1 -1</clus>
<clus scale="   95.876">  7  8 -1 -1</clus>
<clus scale="  117.298">  1  5  2 -1</clus>
<clus scale="   64.683">  2  5  1 -1</clus>
</clustering>
</event>
<event>
 9    1  0.1399746E-005  0.9641522E+02  0.7546771E-02  0.1289707E+00
         21   -1    0    0  501  502  0.00000000000E+00  0.00000000000E+00  0.18852840511E+03  0.18852840511E+03  0.00000000000E+00 0. -1.
          3   -1    0    0  502    0 -0.00000000000E+00 -0.00000000000E+00 -0.13655784913E+03  0.13655784913E+03  0.00000000000E+00 0. -1.
         23    2    1    2    0    0  0.24302134088E+02  0.81744648407E+01 -0.87417143984E+02  0.12935754143E+03  0.91837905387E+02 0.  0.
         23    2    1    2    0    0 -0.53081581243E+02  0.59580428641E+01  0.91895271881E+02  0.13842674882E+03  0.88679598848E+02 0.  0.
        -11    1    4    4    0    0 -0.39581338987E+02  0.39863542132E+02  0.23478807175E+02  0.60885456176E+02  0.00000000000E+00 0. -1.
         11    1    4    4    0    0 -0.13500242256E+02 -0.33905499268E+02  0.68416464705E+02  0.77541292641E+02  0.00000000000E+00 0.  1.
        -13    1    3    3    0    0  0.46359907968E+02  0.29412451124E+02 -0.81347620650E+02  0.98141574948E+02  0.00000000000E+00 0.  1.
         13    1    3    3    0    0 -0.22057773880E+02 -0.21237986283E+02 -0.60695233341E+01  0.31215966482E+02  0.00000000000E+00 0. -1.
          3    1    1    2  501    0  0.28779447155E+02 -0.14132507705E+02  0.47492428084E+02  0.57301963997E+02  0.00000000000E+00 0. -1.
<scales pt_clust_5="13000.00000" pt_clust_6="13000.00000" pt_clust_7="13000.00000" pt_clust_8="13000.00000" pt_clust_9="32.06220"></scales>
<clustering>
<clus scale="   32.062">  1  9  2 -1</clus>
<clus scale="   88.680">  5  6 -1 -1</clus>
<clus scale="   91.838">  7  8 -1 -1</clus>
<clus scale="   93.412">  1  5  2 -1</clus>
<clus scale="   32.062">  1  5  2 -1</clus>
</clustering>
</event>
<event>
 9    1  0.1399746E-005  0.1748726E+03  0.7546771E-02  0.1173706E+00
         21   -1    0    0  501  502  0.00000000000E+00  0.00000000000E+00  0.14262964405E+03  0.14262964405E+03  0.00000000000E+00 0. -1.
          2   -1    0    0  502    0 -0.00000000000E+00 -0.00000000000E+00 -0.50634881135E+03  0.50634881135E+03  0.00000000000E+00 0. -1.
         23    2    1    2    0    0  0.50347013302E+02  0.13548441438E+03 -0.37729980987E+03  0.41499762929E+03  0.94747229533E+02 0.  0.
         23    2    1    2    0    0 -0.33794979992E+02 -0.15452693111E+03 -0.29933765229E+02  0.18368081680E+03  0.88441726852E+02 0.  0.
        -11    1    4    4    0    0  0.58533351364E+01 -0.70254924831E+02 -0.52444360067E+02  0.87865959837E+02  0.00000000000E+00 0. -1.
         11    1    4    4    0    0 -0.39648315129E+02 -0.84272006278E+02  0.22510594838E+02  0.95814856962E+02  0.00000000000E+00 0.  1.
        -13    1    3    3    0    0  0.23817357183E+01  0.71249663257E+02 -0.80348687809E+02  0.10741554269E+03  0.00000000000E+00 0. -1.
         13    1    3    3    0    0  0.47965277584E+02  0.64234751122E+02 -0.29695112206E+03  0.30758208660E+03  0.00000000000E+00 0.  1.
          2    1    1    2  501    0 -0.16552033310E+02  0.19042516730E+02  0.43514407796E+02  0.50300009304E+02  0.00000000000E+00 0. -1.
<scales pt_clust_5="13000.00000" pt_clust_6="13000.00000" pt_clust_7="13000.00000" pt_clust_8="13000.00000" pt_clust_9="25.23068"></scales>
<clustering>
<clus scale="   25.231">  1  9  2 -1</clus>
<clus scale="   88.442">  5  6 -1 -1</clus>
<clus scale="   94.747">  7  8 -1 -1</clus>
<clus scale="  171.538">  1  5  2 -1</clus>
<clus scale="   25.231">  1  5  2 -1</clus>
</clustering>
</event>
<event>
 9    1  0.1399746E-005  0.9256704E+02  0.7546771E-02  0.1297625E+00
          1   -1    0    0  502    0 -0.00000000000E+00  0.00000000000E+00  0.33982934341E+03  0.33982934341E+03  0.00000000000E+00 0. -1.
         21   -1    0    0  501  502  0.00000000000E+00 -0.00000000000E+00 -0.10792417821E+03  0.10792417821E+03  0.00000000000E+00 0.  1.
         23    2    1    2    0    0 -0.23886748080E+01  0.10162005125E+02  0.29149892526E+03  0.30591357798E+03  0.92209119122E+02 0.  0.
         23    2    1    2    0    0  0.75522137822E+01  0.21577199225E+02 -0.57063471164E+02  0.10958406682E+03  0.90718336076E+02 0.  0.
        -11    1    3    3    0    0 -0.36270560869E+02  0.34797886852E+02  0.14090986265E+03  0.14960626961E+03  0.00000000000E+00 0. -1.
         11    1    3    3    0    0  0.33881886061E+02 -0.24635881727E+02  0.15058906261E+03  0.15630730837E+03  0.00000000000E+00 0.  1.
        -13    1    4    4    0    0  0.16383361386E+02  0.40453811484E+02 -0.71824543461E+02  0.84045763946E+02  0.00000000000E+00 0.  1.
         13    1    4    4    0    0 -0.88311476038E+01 -0.18876612259E+02  0.14761072297E+02  0.25538302875E+02  0.00000000000E+00 0. -1.
          1    1    1    2  501    0 -0.51635389742E+01 -0.31739204350E+02 -0.25302888887E+01  0.32255876819E+02  0.00000000000E+00 0. -1.
<scales pt_clust_5="13000.00000" pt_clust_6="13000.00000" pt_clust_7="13000.00000" pt_clust_8="13000.00000" pt_clust_9="32.15648"></scales>
<clustering>
<clus scale="   32.156">  2  9  1 -1</clus>
<clus scale="   90.718">  7  8 -1 -1</clus>
<clus scale="   91.082">  2  7  1 -1</clus>
<clus scale="   92.209">  5  6 -1 -1</clus>
<clus scale="   32.156">  2  5  1 -1</clus>
</clustering>
</event>
<event>
 9    1  0.1399746E-005  0.1008550E+03  0.7546771E-02  0.1278746E+00
          1   -1    0    0  502    0 -0.00000000000E+00  0.00000000000E+00  0.78902100269E+03  0.78902100269E+03  0.00000000000E+00 0. -1.
         21   -1    0    0  501  502  0.00000000000E+00 -0.00000000000E+00 -0.22056375353E+02  0.22056375353E+02  0.00000000000E+00 0.  1.
         23    2    1    2    0    0  0.44890506974E+02  0.11143819381E+02  0.38339269826E+03  0.39619564147E+03  0.88553277259E+02 0.  0.
         23    2    1    2    0    0 -0.32861511106E+02 -0.54451180204E+02  0.22149281665E+03  0.24668583018E+03  0.88034203839E+02 0.  0.
        -11    1    4    4    0    0  0.25769830375E+02  0.22412055770E+01  0.39011834036E+02  0.46808443200E+02  0.00000000000E+00 0. -1.
         11    1    4    4    0    0 -0.58631341481E+02 -0.56692385781E+02  0.18248098261E+03  0.19987738698E+03  0.00000000000E+00 0.  1.
        -13    1    3    3    0    0 -0.22211979425E+02  0.24813537127E+01  0.36758314906E+02  0.43019796151E+02  0.00000000000E+00 0.  1.
         13    1    3    3    0    0  0.67102486399E+02  0.86624656685E+01  0.34663438335E+03  0.35317584531E+03  0.00000000000E+00 0. -1.
          1    1    1    2  501    0 -0.12028995868E+02  0.43307360823E+02  0.16207911243E+03  0.16819590640E+03  0.00000000000E+00 0. -1.
<scales pt_clust_5="13000.00000" pt_clust_6="13000.00000" pt_clust_7="13000.00000" pt_clust_8="13000.00000" pt_clust_9="44.94693"></scales>
<clustering>
<clus scale="   44.947">  2  9  1 -1</clus>
<clus scale="   88.034">  5  6 -1 -1</clus>
<clus scale="   88.553">  7  8 -1 -1</clus>
<clus scale="  100.400">  2  5  1 -1</clus>
<clus scale="   44.947">  2  5  1 -1</clus>
</clustering>
</event>
<event>
 9    1  0.1399746E-005  0.9811011E+02  0.7546771E-02  0.1288566E+00
         -1   -1    0    0    0  501 -0.00000000000E+00  0.00000000000E+00  0.24302505626E+03  0.24302505626E+03  0.00000000000E+00 0.  1.
         21   -1    0    0  501  502  0.00000000000E+00 -0.00000000000E+00 -0.22822799789E+03  0.22822799789E+03  0.00000000000E+00 0.  1.
         23    2    1    2    0    0 -0.20820310251E+02 -0.48782806587E+02  0.11261996541E+03  0.14864774121E+03  0.81238210349E+02 0.  0.
         23    2    1    2    0    0  0.17682276021E+02  0.20136925857E+02  0.91670001719E+02  0.13093372868E+03  0.89566139929E+02 0.  0.
        -11    1    3    3    0    0 -0.25666694095E+02 -0.69094804830E+02  0.72337168592E+02  0.10327408775E+03  0.00000000000E+00 0.  1.
         11    1    3    3    0    0  0.48463838447E+01  0.20311998244E+02  0.40282796822E+02  0.45373653466E+02  0.00000000000E+00 0. -1.
        -13    1    4    4    0    0  0.42723552131E+02  0.15528827427E+02  0.94941023887E+02  0.10526273987E+03  0.00000000000E+00 0.  1.
         13    1    4    4    0    0 -0.25041276110E+02  0.46080984307E+01 -0.32710221676E+01  0.25670988808E+02  0.00000000000E+00 0. -1.
         -1    1    1    2    0  502  0.31380342293E+01  0.28645880730E+02 -0.18949290877E+03  0.19167158426E+03  0.00000000000E+00 0.  1.
<scales pt_clust_5="13000.00000" pt_clust_6="13000.00000" pt_clust_7="13000.00000" pt_clust_8="13000.00000" pt_clust_9="28.81725"></scales>
<clustering>
<clus scale="   28.817">  2  9  1 -1</clus>
<clus scale="   81.238">  5  6 -1 -1</clus>
<clus scale="   89.566">  7  8 -1 -1</clus>
<clus scale="   90.571">  1  5  2 -1</clus>
<clus scale="   28.817">  2  5  1 -1</clus>
</clustering>
</event>
<event>
 9    1  0.1399746E-005  0.1053634E+03  0.7546771E-02  0.1269650E+00
         21   -1    0    0  501  502  0.00000000000E+00  0.00000000000E+00  0.25914937808E+03  0.25914937808E+03  0.00000000000E+00 0.  1.
         -1   -1    0    0    0  501 -0.00000000000E+00 -0.00000000000E+00 -0.10222599906E+03  0.10222599906E+03  0.00000000000E+00 0.  1.
         23    2    1    2    0    0  0.66435564647E+02 -0.15082328472E+02 -0.30114584237E+02  0.11430148812E+03  0.86699372089E+02 0.  0.
         23    2    1    2    0    0 -0.38770288832E+02 -0.33294735102E+02  0.91144340925E+02  0.13616268774E+03  0.87300125827E+02 0.  0.
        -11    1    4    4    0    0 -0.56337585424E+02 -0.46568321103E+02  0.87220198548E+02  0.11379760585E+03  0.00000000000E+00 0.  1.
         11    1    4    4    0    0  0.17567296592E+02  0.13273586001E+02  0.39241423763E+01  0.22365081897E+02  0.00000000000E+00 0. -1.
        -11    1    3    3    0    0  0.49179677459E+02  0.31635168422E+02 -0.26981530355E+02  0.64400524349E+02  0.00000000000E+00 0. -1.
         11    1    3    3    0    0  0.17255887187E+02 -0.46717496894E+02 -0.31330538820E+01  0.49900963771E+02  0.00000000000E+00 0.  1.
         -1    1    1    2    0  502 -0.27665275815E+02  0.48377063574E+02  0.95893622333E+02  0.11091120128E+03  0.00000000000E+00 0.  1.
<scales pt_clust_5="13000.00000" pt_clust_6="13000.00000" pt_clust_7="13000.00000" pt_clust_8="13000.00000" pt_clust_9="55.72888"></scales>
<clustering>
<clus scale="   55.729">  1  9  2 -1</clus>
<clus scale="   86.699">  7  8 -1 -1</clus>
<clus scale="   87.300">  5  6 -1 -1</clus>
<clus scale="  104.866">  2  7  1 -1</clus>
<clus scale="   55.729">  1  5  2 -1</clus>
</clustering>
</event>
<event>
 9    1  0.1399746E-005  0.2753318E+03  0.7546771E-02  0.1128581E+00
         21   -1    0    0  501  502  0.00000000000E+00  0.00000000000E+00  0.39961665661E+03  0.39961665661E+03  0.00000000000E+00 0. -1.
         -1   -1    0    0    0  501 -0.00000000000E+00 -0.00000000000E+00 -0.30891626380E+03  0.30891626380E+03  0.00000000000E+00 0.  1.
         23    2    1    2    0    0 -0.89891592029E+02  0.96804016664E+01 -0.42292332774E+02  0.13462053110E+03  0.90331818800E+02 0.  0.
         23    2    1    2    0    0  0.28393197266E+03  0.12025118952E+03  0.46083003237E+02  0.32473938206E+03  0.90853229958E+02 0.  0.
        -13    1    3    3    0    0 -0.22946257777E+02  0.46147764541E+02 -0.15551436049E+02  0.53833020362E+02  0.00000000000E+00 0.  1.
         13    1    3    3    0    0 -0.66945334252E+02 -0.36467362875E+02 -0.26740896724E+02  0.80787510735E+02  0.00000000000E+00 0. -1.
        -13    1    4    4    0    0  0.23799743972E+03  0.59705778981E+02  0.38305087041E+02  0.24834419874E+03  0.00000000000E+00 0. -1.
         13    1    4    4    0    0  0.45934532943E+02  0.60545410536E+02  0.77779161962E+01  0.76395183316E+02  0.00000000000E+00 0.  1.
         -1    1    1    2    0  502 -0.19404038063E+03 -0.12993159118E+03  0.86909722347E+02  0.24917300725E+03  0.00000000000E+00 0.  1.
<scales pt_clust_5="13000.00000" pt_clust_6="13000.00000" pt_clust_7="13000.00000" pt_clust_8="13000.00000" pt_clust_9="259.91020"></scales>
<clustering>
<clus scale="   90.332">  5  6 -1 -1</clus>
<clus scale="   90.853">  7  8 -1 -1</clus>
<clus scale="  127.805">  2  5  1 -1</clus>
<clus scale="  259.910">  1  9  2 -1</clus>
<clus scale="  259.910">  1  5  2 -1</clus>
</clustering>
</event>
<event>
 9    1  0.1399746E-005  0.3216237E+03  0.7546771E-02  0.1074913E+00
         21   -1    0    0  501  502  0.00000000000E+00  0.00000000000E+00  0.52621808766E+03  0.52621808766E+03  0.00000000000E+00 0.  1.
         -3   -1    0    0    0  501 -0.00000000000E+00 -0.00000000000E+00 -0.28905577150E+03  0.28905577150E+03  0.00000000000E+00 0.  1.
         23    2    1    2    0    0  0.32295249551E+03 -0.24355217969E+02  0.77327798614E+01  0.33654781861E+03  0.91176462576E+02 0.  0.
         23    2    1    2    0    0 -0.28044616342E+03 -0.39054085993E+02  0.26130476220E+03  0.39600023972E+03  0.91437076186E+02 0.  0.
        -13    1    4    4    0    0 -0.18103971417E+03 -0.34711224935E+02  0.10924003255E+03  0.21427466475E+03  0.00000000000E+00 0.  1.
         13    1    4    4    0    0 -0.99406449246E+02 -0.43428610586E+01  0.15206472964E+03  0.18172557496E+03  0.00000000000E+00 0. -1.
        -13    1    3    3    0    0  0.21058712866E+03 -0.59142201959E+02  0.88928911758E+01  0.21891510300E+03  0.00000000000E+00 0.  1.
         13    1    3    3    0    0  0.11236536685E+03  0.34786983990E+02 -0.11601113144E+01  0.11763271561E+03  0.00000000000E+00 0. -1.
         -3    1    1    2    0  502 -0.42506332096E+02  0.63409303962E+02 -0.31875225894E+02  0.82725800830E+02  0.00000000000E+00 0.  1.
<scales pt_clust_5="13000.00000" pt_clust_6="13000.00000" pt_clust_7="13000.00000" pt_clust_8="13000.00000" pt_clust_9="76.33829"></scales>
<clustering>
<clus scale="   76.338">  1  9  2 -1</clus>
<clus scale="   91.176">  7  8 -1 -1</clus>
<clus scale="   91.437">  5  6 -1 -1</clus>
<clus scale="  321.550">  2  7  1 -1</clus>
<clus scale="   76.338">  1  5  2 -1</clus>
</clustering>
</event>
<event>
 9    1  0.1399746E-005  0.1862761E+03  0.7546771E-02  0.1188430E+00
         -1   -1    0    0    0  501 -0.00000000000E+00  0.00000000000E+00  0.32103463065E+03  0.32103463065E+03  0.00000000000E+00 0.  1.
         21   -1    0    0  501  502  0.00000000000E+00 -0.00000000000E+00 -0.31421203238E+03  0.31421203238E+03  0.00000000000E+00 0.  1.
         23    2    1    2    0    0  0.41192230588E+02  0.17349361001E+02  0.13239749486E+00  0.10199296124E+03  0.91677404122E+02 0.  0.
         23    2    1    2    0    0 -0.11602652223E+03 -0.15650814475E+03  0.19271769932E+03  0.28918082636E+03  0.92349799500E+02 0.  0.
        -11    1    3    3    0    0  0.58457635038E+02  0.47571088461E+01  0.29517019879E+02  0.65659573874E+02  0.00000000000E+00 0. -1.
         11    1    3    3    0    0 -0.17265404450E+02  0.12592252155E+02 -0.29384622385E+02  0.36333387371E+02  0.00000000000E+00 0.  1.
        -13    1    4    4    0    0 -0.57708537583E+02 -0.28510635762E+02  0.22091441599E+02  0.68052652068E+02  0.00000000000E+00 0. -1.
         13    1    4    4    0    0 -0.58317984643E+02 -0.12799750899E+03  0.17062625772E+03  0.22112817429E+03  0.00000000000E+00 0.  1.
         -1    1    1    2    0  502  0.74834291639E+02  0.13915878375E+03 -0.18602749855E+03  0.24407287542E+03  0.00000000000E+00 0.  1.
<scales pt_clust_5="13000.00000" pt_clust_6="13000.00000" pt_clust_7="13000.00000" pt_clust_8="13000.00000" pt_clust_9="161.77234"></scales>
<clustering>
<clus scale="   91.677">  5  6 -1 -1</clus>
<clus scale="   92.350">  7  8 -1 -1</clus>
<clus scale="  101.993">  1  5  2 -1</clus>
<clus scale="  161.772">  2  9  1 -1</clus>
<clus scale="  161.772">  2  5  1 -1</clus>
</clustering>
</event>
<event>
 9    1  0.1399746E-005  0.9874928E+02  0.7546771E-02  0.1283067E+00
         21   -1    0    0  501  502  0.00000000000E+00  0.00000000000E+00  0.18441123911E+03  0.18441123911E+03  0.00000000000E+00 0. -1.
         -4   -1    0    0    0  501 -0.00000000000E+00 -0.00000000000E+00 -0.25584584963E+03  0.25584584963E+03  0.00000000000E+00 0.  1.
         23    2    1    2    0    0 -0.37477830820E+02  0.13004435989E+02 -0.21728866878E+03  0.23902328792E+03  0.91345845152E+02 0.  0.
         23    2    1    2    0    0  0.11587093195E+02  0.21306821264E+02  0.11068658726E+03  0.14569693301E+03  0.91585120678E+02 0.  0.
        -11    1    4    4    0    0 -0.14589681027E+02 -0.27267560428E+02  0.13089532864E+02  0.33581460879E+02  0.00000000000E+00 0.  1.
         11    1    4    4    0    0  0.26176774222E+02  0.48574381692E+02  0.97597054395E+02  0.11211547214E+03  0.00000000000E+00 0. -1.
        -13    1    3    3    0    0 -0.92604977544E+01  0.43307492366E+02 -0.17221280351E+03  0.17781604373E+03  0.00000000000E+00 0.  1.
         13    1    3    3    0    0 -0.28217333066E+02 -0.30303056377E+02 -0.45075865270E+02  0.61207244187E+02  0.00000000000E+00 0. -1.
         -4    1    1    2    0  502  0.25890737625E+02 -0.34311257253E+02  0.35167471011E+02  0.55536867812E+02  0.00000000000E+00 0.  1.
<scales pt_clust_5="13000.00000" pt_clust_6="13000.00000" pt_clust_7="13000.00000" pt_clust_8="13000.00000" pt_clust_9="42.98363"></scales>
<clustering>
<clus scale="   42.984">  1  9  2 -1</clus>
<clus scale="   91.346">  7  8 -1 -1</clus>
<clus scale="   91.585">  5  6 -1 -1</clus>
<clus scale="   98.527">  2  7  1 -1</clus>
<clus scale="   42.984">  1  5  2 -1</clus>
</clustering>
</event>
<event>
 9    1  0.1399746E-005  0.1089266E+03  0.7546771E-02  0.1262586E+00
          1   -1    0    0  502    0 -0.00000000000E+00  0.00000000000E+00  0.12895661771E+04  0.12895661771E+04  0.00000000000E+00 0. -1.
         21   -1    0    0  501  502  0.00000000000E+00 -0.00000000000E+00 -0.21490218584E+02  0.21490218584E+02  0.00000000000E+00 0. -1.
         23    2    1    2    0    0  0.41902043085E+02 -0.10655405145E+02  0.46724777576E+03  0.47779724150E+03  0.90002228603E+02 0.  0.
         23    2    1    2    0    0 -0.43066696176E+02  0.84241305587E+02  0.67482351708E+03  0.68733651395E+03  0.89963138684E+02 0.  0.
        -11    1    3    3    0    0 -0.14680861578E+02 -0.34595459349E+02  0.20807709667E+03  0.21144373167E+03  0.00000000000E+00 0.  1.
         11    1    3    3    0    0  0.56582904663E+02  0.23940054203E+02  0.25917067909E+03  0.26635350983E+03  0.00000000000E+00 0. -1.
        -11    1    4    4    0    0  0.25969482141E+02  0.36968187238E+02  0.18630399411E+03  0.19170351873E+03  0.00000000000E+00 0.  1.
         11    1    4    4    0    0 -0.69036178318E+02  0.47273118349E+02  0.48851952297E+03  0.49563299522E+03  0.00000000000E+00 0. -1.
          1    1    1    2  501    0  0.11646530914E+01 -0.73585900442E+02  0.12600466565E+03  0.14592264021E+03  0.00000000000E+00 0. -1.
<scales pt_clust_5="13000.00000" pt_clust_6="13000.00000" pt_clust_7="13000.00000" pt_clust_8="13000.00000" pt_clust_9="73.59512"></scales>
<clustering>
<clus scale="   73.595">  2  9  1 -1</clus>
<clus scale="   89.963">  7  8 -1 -1</clus>
<clus scale="   90.002">  5  6 -1 -1</clus>
<clus scale="  108.894">  2  7  1 -1</clus>
<clus scale="   73.595">  2  5  1 -1</clus>
</clustering>
</event>
<event>
 9    1  0.1399746E-005  0.1160657E+03  0.7546771E-02  0.1251030E+00
          1   -1    0    0  502    0 -0.00000000000E+00  0.00000000000E+00  0.49085200301E+02  0.49085200301E+02  0.00000000000E+00 0. -1.
         21   -1    0    0  501  502  0.00000000000E+00 -0.00000000000E+00 -0.45872373505E+03  0.45872373505E+03  0.00000000000E+00 0.  1.
         23    2    1    2    0    0 -0.22201343659E+02  0.50795898982E+02 -0.11067722160E+03  0.15454151534E+03  0.92523021835E+02 0.  0.
         23    2    1    2    0    0  0.23399915052E+02 -0.98292163944E+02 -0.25615197221E+03  0.28931453555E+03  0.88770277103E+02 0.  0.
        -13    1    3    3    0    0 -0.55835194146E+02  0.18569015648E+02 -0.45262880597E+02  0.74236821103E+02  0.00000000000E+00 0. -1.
         13    1    3    3    0    0  0.33633850488E+02  0.32226883334E+02 -0.65414341002E+02  0.80304694239E+02  0.00000000000E+00 0.  1.
        -13    1    4    4    0    0  0.45637142213E+02 -0.27576155927E+02 -0.63654018165E+02  0.83036300216E+02  0.00000000000E+00 0.  1.
         13    1    4    4    0    0 -0.22237227160E+02 -0.70716008018E+02 -0.19249795404E+03  0.20627823533E+03  0.00000000000E+00 0. -1.
          1    1    1    2  501    0 -0.11985713938E+01  0.47496264962E+02 -0.42809340942E+02  0.63952884459E+02  0.00000000000E+00 0. -1.
<scales pt_clust_5="13000.00000" pt_clust_6="13000.00000" pt_clust_7="13000.00000" pt_clust_8="13000.00000" pt_clust_9="47.51141"></scales>
<clustering>
<clus scale="   47.511">  2  9  1 -1</clus>
<clus scale="   88.770">  7  8 -1 -1</clus>
<clus scale="   92.523">  5  6 -1 -1</clus>
<clus scale="  113.097">  2  7  1 -1</clus>
<clus scale="   47.511">  2  5  1 -1</clus>
</clustering>
</event>
<event>
 9    1  0.1399746E-005  0.9773627E+02  0.7546771E-02  0.1286283E+00
         21   -1    0    0  501  502  0.00000000000E+00  0.00000000000E+00  0.72058390033E+02  0.72058390033E+02  0.00000000000E+00 0.  1.
          2   -1    0    0  502    0 -0.00000000000E+00 -0.00000000000E+00 -0.50877806038E+03  0.50877806038E+03  0.00000000000E+00 0. -1.
         23    2    1    2    0    0 -0.25660400942E+02 -0.72417681005E+01 -0.35447829249E+03  0.36761596468E+03  0.93678910432E+02 0.  0.
         23    2    1    2    0    0  0.85420181255E+01  0.50138908974E+02 -0.11582621087E+03  0.15611405235E+03  0.91482293092E+02 0.  0.
        -11    1    4    4    0    0  0.45133024599E+02  0.47395358321E+02 -0.57036625414E+02  0.86812939926E+02  0.00000000000E+00 0.  1.
         11    1    4    4    0    0 -0.36591006474E+02  0.27435506522E+01 -0.58789585457E+02  0.69301112424E+02  0.00000000000E+00 0. -1.
        -11    1    3    3    0    0 -0.11225122851E+02 -0.49651193687E+02 -0.22224313520E+03  0.22799836745E+03  0.00000000000E+00 0. -1.
         11    1    3    3    0    0 -0.14435278091E+02  0.42409425587E+02 -0.13223515729E+03  0.13961759722E+03  0.00000000000E+00 0.  1.
          2    1    1    2  501    0  0.17118382817E+02 -0.42897140873E+02  0.33584833013E+02  0.57106433384E+02  0.00000000000E+00 0. -1.
<scales pt_clust_5="13000.00000" pt_clust_6="13000.00000" pt_clust_7="13000.00000" pt_clust_8="13000.00000" pt_clust_9="46.18662"></scales>
<clustering>
<clus scale="   46.187">  1  9  2 -1</clus>
<clus scale="   91.482">  5  6 -1 -1</clus>
<clus scale="   93.679">  7  8 -1 -1</clus>
<clus scale="   95.633">  1  5  2 -1</clus>
<clus scale="   46.187">  1  5  2 -1</clus>
</clustering>
</event>
<event>
 9    1  0.1399746E-005  0.9145809E+02  0.7546771E-02  0.1300035E+00
          3   -1    0    0  502    0 -0.00000000000E+00  0.00000000000E+00  0.16712058638E+03  0.16712058638E+03  0.00000000000E+00 0. -1.
         21   -1    0    0  501  502  0.00000000000E+00 -0.00000000000E+00 -0.13899707176E+03  0.13899707176E+03  0.00000000000E+00 0.  1.
         23    2    1    2    0    0  0.76999277197E+01 -0.86530788500E+01  0.97123023764E+02  0.13384750767E+03  0.91367986211E+02 0.  0.
         23    2    1    2    0    0  0.32182701115E+02 -0.21740127176E+02 -0.72367020646E+02  0.12201369627E+03  0.90233015125E+02 0.  0.
        -13    1    4    4    0    0  0.58511683515E+02 -0.23645927463E+01 -0.23235634455E+02  0.63000818368E+02  0.00000000000E+00 0. -1.
         13    1    4    4    0    0 -0.26328982400E+02 -0.19375534430E+02 -0.49131386191E+02  0.59012877897E+02  0.00000000000E+00 0.  1.
        -13    1    3    3    0    0  0.48153758141E+02  0.61382311502E+01  0.58261579742E+02  0.75834517067E+02  0.00000000000E+00 0.  1.
         13    1    3    3    0    0 -0.40453830422E+02 -0.14791310000E+02  0.38861444022E+02  0.58012990604E+02  0.00000000000E+00 0. -1.
          3    1    1    2  501    0 -0.39882628834E+02  0.30393206026E+02  0.33675115022E+01  0.50256454202E+02  0.00000000000E+00 0. -1.
<scales pt_clust_5="13000.00000" pt_clust_6="13000.00000" pt_clust_7="13000.00000" pt_clust_8="13000.00000" pt_clust_9="50.14350"></scales>
<clustering>
<clus scale="   50.144">  2  9  1 -1</clus>
<clus scale="   90.233">  5  6 -1 -1</clus>
<clus scale="   90.324">  2  5  1 -1</clus>
<clus scale="   91.368">  7  8 -1 -1</clus>
<clus scale="   50.144">  2  5  1 -1</clus>
</clustering>
</event>
<event>
 9    1  0.1399746E-005  0.1624713E+03  0.7546771E-02  0.1186527E+00
          2   -1    0    0  502    0 -0.00000000000E+00  0.00000000000E+00  0.51897755083E+03  0.51897755083E+03  0.00000000000E+00 0. -1.
         21   -1    0    0  501  502  0.00000000000E+00 -0.00000000000E+00 -0.10433161838E+03  0.10433161838E+03  0.00000000000E+00 0.  1.
         23    2    1    2    0    0 -0.12148800121E+03 -0.54950952215E+02  0.35161815744E+03  0.38786142490E+03  0.94985339380E+02 0.  0.
         23    2    1    2    0    0  0.10832560453E+03  0.70582841408E+02  0.10418851284E+03  0.18949329964E+03  0.91302192216E+02 0.  0.
        -11    1    3    3    0    0 -0.48907920114E+02  0.14996488654E+02  0.57560461619E+02  0.77007052039E+02  0.00000000000E+00 0.  1.
         11    1    3    3    0    0 -0.72580081097E+02 -0.69947440869E+02  0.29405769582E+03  0.31085437286E+03  0.00000000000E+00 0. -1.
        -13    1    4    4    0    0  0.11603473084E+03  0.34934445282E+02  0.86984345484E+02  0.14916685486E+03  0.00000000000E+00 0.  1.
         13    1    4    4    0    0 -0.77091263083E+01  0.35648396125E+02  0.17204167357E+02  0.40326444787E+02  0.00000000000E+00 0. -1.
          2    1    1    2  501    0  0.13162396679E+02 -0.15631889193E+02 -0.41160737833E+02  0.45954444671E+02  0.00000000000E+00 0. -1.
<scales pt_clust_5="13000.00000" pt_clust_6="13000.00000" pt_clust_7="13000.00000" pt_clust_8="13000.00000" pt_clust_9="20.43538"></scales>
<clustering>
<clus scale="   20.435">  2  9  1 -1</clus>
<clus scale="   91.302">  7  8 -1 -1</clus>
<clus scale="   94.985">  5  6 -1 -1</clus>
<clus scale="  160.346">  2  7  1 -1</clus>
<clus scale="   20.435">  2  5  1 -1</clus>
</clustering>
</event>
<event>
 9    1  0.1399746E-005  0.1198817E+03  0.7546771E-02  0.1244900E+00
         21   -1    0    0  501  502  0.00000000000E+00  0.00000000000E+00  0.41367577122E+02  0.41367577122E+02  0.00000000000E+00 0. -1.
         -1   -1    0    0    0  501 -0.00000000000E+00 -0.00000000000E+00 -0.48928259231E+03  0.48928259231E+03  0.00000000000E+00 0.  1.
         23    2    1    2    0    0  0.34299247500E+02 -0.74256636663E+02 -0.26141735442E+03  0.28803706409E+03  0.89083279181E+02 0.  0.
         23    2    1    2    0    0  0.34154871359E+01  0.67021736975E+02 -0.12578484428E+03  0.17077445928E+03  0.94013350714E+02 0.  0.
        -11    1    4    4    0    0 -0.18363558262E+02  0.35259485766E+02 -0.12614469827E+03  0.13226086538E+03  0.00000000000E+00 0. -1.
         11    1    4    4    0    0  0.21779045398E+02  0.31762251209E+02  0.35985399280E+00  0.38513593901E+02  0.00000000000E+00 0.  1.
        -13    1    3    3    0    0  0.45352979640E+01 -0.64128137298E+02 -0.24351319263E+03  0.25185643114E+03  0.00000000000E+00 0.  1.
         13    1    3    3    0    0  0.29763949537E+02 -0.10128499365E+02 -0.17904161793E+02  0.36180632953E+02  0.00000000000E+00 0. -1.
         -1    1    1    2    0  502 -0.37714734636E+02  0.72348996880E+01 -0.60712816483E+02  0.71838646059E+02  0.00000000000E+00 0.  1.
<scales pt_clust_5="13000.00000" pt_clust_6="13000.00000" pt_clust_7="13000.00000" pt_clust_8="13000.00000" pt_clust_9="38.40243"></scales>
<clustering>
<clus scale="   38.402">  1  9  2 -1</clus>
<clus scale="   89.083">  7  8 -1 -1</clus>
<clus scale="   94.013">  5  6 -1 -1</clus>
<clus scale="  116.056">  2  7  1 -1</clus>
<clus scale="   38.402">  1  5  2 -1</clus>
</clustering>
</event>
<event>
 9    1  0.1399746E-005  0.1235308E+03  0.7546771E-02  0.1238067E+00
         21   -1    0    0  501  502  0.00000000000E+00  0.00000000000E+00  0.11052562007E+03  0.11052562007E+03  0.00000000000E+00 0. -1.
          1   -1    0    0  502    0 -0.00000000000E+00 -0.00000000000E+00 -0.31310088583E+03  0.31310088583E+03  0.00000000000E+00 0. -1.
         23    2    1    2    0    0  0.20434118402E+02  0.94166184433E+02 -0.20333364990E+03  0.24353667972E+03  0.93170369218E+02 0.  0.
         23    2    1    2    0    0 -0.49823729041E+02 -0.32377291309E+02 -0.15693033445E+02  0.10971749022E+03  0.90889842081E+02 0.  0.
        -13    1    4    4    0    0 -0.55861909126E+02  0.13236674700E+02 -0.25262105707E+02  0.62721100382E+02  0.00000000000E+00 0.  1.
         13    1    4    4    0    0  0.60381800858E+01 -0.45613966010E+02  0.95690722614E+01  0.46996389838E+02  0.00000000000E+00 0. -1.
        -13    1    3    3    0    0 -0.33086425985E+02  0.14772198884E+02 -0.38195950530E+02  0.52648457539E+02  0.00000000000E+00 0.  1.
         13    1    3    3    0    0  0.53520544387E+02  0.79393985549E+02 -0.16513769937E+03  0.19088822218E+03  0.00000000000E+00 0. -1.
          1    1    1    2  501    0  0.29389610639E+02 -0.61788893124E+02  0.16451417588E+02  0.70372335954E+02  0.00000000000E+00 0. -1.
<scales pt_clust_5="13000.00000" pt_clust_6="13000.00000" pt_clust_7="13000.00000" pt_clust_8="13000.00000" pt_clust_9="68.42234"></scales>
<clustering>
<clus scale="   68.422">  1  9  2 -1</clus>
<clus scale="   90.890">  5  6 -1 -1</clus>
<clus scale="   93.170">  7  8 -1 -1</clus>
<clus scale="  121.820">  1  5  2 -1</clus>
<clus scale="   68.422">  1  5  2 -1</clus>
</clustering>
</event>
<event>
 9    1  0.1399746E-005  0.9619575E+02  0.7546771E-02  0.1288928E+00
          1   -1    0    0  502    0 -0.00000000000E+00  0.00000000000E+00  0.14443168139E+03  0.14443168139E+03  0.00000000000E+00 0. -1.
         21   -1    0    0  501  502  0.00000000000E+00 -0.00000000000E+00 -0.10441770648E+03  0.10441770648E+03  0.00000000000E+00 0.  1.
         23    2    1    2    0    0 -0.14112475394E+02  0.24301524142E+02  0.62317750455E+02  0.11444758505E+03  0.91787916770E+02 0.  0.
         23    2    1    2    0    0  0.40244448401E+02 -0.56026795724E+01 -0.22956659972E+02  0.10226221571E+03  0.90992015467E+02 0.  0.
        -11    1    3    3    0    0  0.30220394186E+02  0.34046196243E+02  0.49565678787E+02  0.67299124935E+02  0.00000000000E+00 0.  1.
         11    1    3    3    0    0 -0.44332869580E+02 -0.97446721011E+01  0.12752071668E+02  0.47148460117E+02  0.00000000000E+00 0. -1.
        -11    1    4    4    0    0  0.38935695411E+01  0.38303274500E+02 -0.23785037052E+02  0.45255151185E+02  0.00000000000E+00 0.  1.
         11    1    4    4    0    0  0.36350878859E+02 -0.43905954073E+02  0.82837707960E+00  0.57007064522E+02  0.00000000000E+00 0. -1.
          1    1    1    2  501    0 -0.26131973007E+02 -0.18698844569E+02  0.65288442718E+00  0.32139587109E+02  0.00000000000E+00 0. -1.
<scales pt_clust_5="13000.00000" pt_clust_6="13000.00000" pt_clust_7="13000.00000" pt_clust_8="13000.00000" pt_clust_9="32.13296"></scales>
<clustering>
<clus scale="   32.133">  2  9  1 -1</clus>
<clus scale="   90.992">  7  8 -1 -1</clus>
<clus scale="   91.788">  5  6 -1 -1</clus>
<clus scale="   95.437">  2  7  1 -1</clus>
<clus scale="   32.133">  2  5  1 -1</clus>
</clustering>
</event>
<event>
 9    1  0.1399746E-005  0.1330404E+03  0.7546771E-02  0.1234100E+00
         21   -1    0    0  501  502  0.00000000000E+00  0.00000000000E+00  0.24911803499E+02  0.24911803499E+02  0.00000000000E+00 0. -1.
          1   -1    0    0  502    0 -0.00000000000E+00 -0.00000000000E+00 -0.12117689030E+04  0.12117689030E+04  0.00000000000E+00 0. -1.
         23    2    1    2    0    0  0.29886656764E+02 -0.35537762231E+02 -0.43684074476E+03  0.44946064798E+03  0.95020487262E+02 0.  0.
         23    2    1    2    0    0  0.51782071742E+02 -0.43158917082E+02 -0.50246496902E+03  0.51492492980E+03  0.90180724999E+02 0.  0.
        -11    1    4    4    0    0 -0.25176108267E+02 -0.91723457260E+01 -0.87205826105E+02  0.91229515291E+02  0.00000000000E+00 0.  1.
         11    1    4    4    0    0  0.76958180008E+02 -0.33986571356E+02 -0.41525914291E+03  0.42369541451E+03  0.00000000000E+00 0. -1.
        -11    1    3    3    0    0 -0.18940820696E+02  0.17942076492E+02 -0.55780236766E+02  0.61580091029E+02  0.00000000000E+00 0.  1.
         11    1    3    3    0    0  0.48827477459E+02 -0.53479838723E+02 -0.38106050800E+03  0.38788055695E+03  0.00000000000E+00 0. -1.
          1    1    1    2  501    0 -0.81668728505E+02  0.78696679313E+02 -0.24755138568E+03  0.27229512868E+03  0.00000000000E+00 0. -1.
<scales pt_clust_5="13000.00000" pt_clust_6="13000.00000" pt_clust_7="13000.00000" pt_clust_8="13000.00000" pt_clust_9="97.81202"></scales>
<clustering>
<clus scale="   90.181">  5  6 -1 -1</clus>
<clus scale="   95.020">  7  8 -1 -1</clus>
<clus scale="  105.759">  2  7  1 -1</clus>
<clus scale="   97.812">  1  9  2 -1</clus>
<clus scale="   97.812">  1  5  2 -1</clus>
</clustering>
</event>
<event>
 9    1  0.1399746E-005  0.1001561E+03  0.7546771E-02  0.1280928E+00
         -3   -1    0    0    0  501 -0.00000000000E+00  0.00000000000E+00  0.34165271465E+03  0.34165271465E+03  0.00000000000E+00 0.  1.
         21   -1    0    0  501  502  0.00000000000E+00 -0.00000000000E+00 -0.53126047216E+02  0.53126047216E+02  0.00000000000E+00 0. -1.
         23    2    1    2    0    0  0.31630390401E+02  0.78378938531E+01  0.25014289358E+03  0.26927617213E+03  0.94213987794E+02 0.  0.
         23    2    1    2    0    0 -0.10330362611E+02 -0.38638370186E+01  0.24568370725E+02  0.99805319927E+02  0.96103337182E+02 0.  0.
        -13    1    3    3    0    0 -0.58777883907E+01 -0.38122301829E+02  0.74630757655E+02  0.84009572557E+02  0.00000000000E+00 0. -1.
         13    1    3    3    0    0  0.37508178792E+02  0.45960195682E+02  0.17551213592E+03  0.18526659958E+03  0.00000000000E+00 0.  1.
        -13    1    4    4    0    0 -0.94653113962E+01  0.21026366668E+02  0.55496417699E+02  0.60096194493E+02  0.00000000000E+00 0.  1.
         13    1    4    4    0    0 -0.86505121456E+00 -0.24890203686E+02 -0.30928046974E+02  0.39709125435E+02  0.00000000000E+00 0. -1.
         -3    1    1    2    0  502 -0.21300027790E+02 -0.39740568345E+01  0.13815403132E+02  0.25697269802E+02  0.00000000000E+00 0.  1.
<scales pt_clust_5="13000.00000" pt_clust_6="13000.00000" pt_clust_7="13000.00000" pt_clust_8="13000.00000" pt_clust_9="21.66759"></scales>
<clustering>
<clus scale="   21.668">  2  9  1 -1</clus>
<clus scale="   94.214">  5  6 -1 -1</clus>
<clus scale="   96.103">  7  8 -1 -1</clus>
<clus scale="   98.345">  1  5  2 -1</clus>
<clus scale="   21.668">  2  5  1 -1</clus>
</clustering>
</event>
<event>
 9    1  0.1399746E-005  0.1168634E+03  0.7546771E-02  0.1248728E+00
         21   -1    0    0  501  502  0.00000000000E+00  0.00000000000E+00  0.24455842480E+03  0.24455842480E+03  0.00000000000E+00 0.  1.
          1   -1    0    0  502    0 -0.00000000000E+00 -0.00000000000E+00 -0.97459659989E+02  0.97459659989E+02  0.00000000000E+00 0. -1.
         23    2    1    2    0    0  0.66007337937E+02  0.35377038091E+02 -0.25593081412E+02  0.12125947000E+03  0.91871376189E+02 0.  0.
         23    2    1    2    0    0 -0.64155422140E+02 -0.15453777233E+02  0.11957067697E+03  0.16399397317E+03  0.90786227063E+02 0.  0.
        -11    1    3    3    0    0 -0.30755222038E+01  0.32720510201E+02  0.19974867175E+02  0.38458886402E+02  0.00000000000E+00 0.  1.
         11    1    3    3    0    0  0.69082860141E+02  0.26565278902E+01 -0.45567948587E+02  0.82800583598E+02  0.00000000000E+00 0. -1.
        -13    1    4    4    0    0 -0.34191214356E+02 -0.52979954832E+02  0.56060894588E+02  0.84372617922E+02  0.00000000000E+00 0.  1.
         13    1    4    4    0    0 -0.29964207785E+02  0.37526177598E+02  0.63509782385E+02  0.79621355250E+02  0.00000000000E+00 0. -1.
          1    1    1    2  501    0 -0.18519157972E+01 -0.19923260858E+02  0.53121169251E+02  0.56764641617E+02  0.00000000000E+00 0. -1.
<scales pt_clust_5="13000.00000" pt_clust_6="13000.00000" pt_clust_7="13000.00000" pt_clust_8="13000.00000" pt_clust_9="20.00915"></scales>
<clustering>
<clus scale="   20.009">  1  9  2 -1</clus>
<clus scale="   90.786">  7  8 -1 -1</clus>
<clus scale="   91.871">  5  6 -1 -1</clus>
<clus scale="  116.012">  1  7  2 -1</clus>
<clus scale="   20.009">  1  5  2 -1</clus>
</clustering>
</event>
<event>
 9    1  0.1399746E-005  0.1055503E+03  0.7546771E-02  0.1269106E+00
         21   -1    0    0  501  502  0.00000000000E+00  0.00000000000E+00  0.20689204187E+03  0.20689204187E+03  0.00000000000E+00 0. -1.
         -1   -1    0    0    0  501 -0.00000000000E+00 -0.00000000000E+00 -0.12502574473E+03  0.12502574473E+03  0.00000000000E+00 0.  1.
         23    2    1    2    0    0  0.31500692449E+02  0.29680771627E+02 -0.52114851062E+02  0.11414544951E+03  0.91869386162E+02 0.  0.
         23    2    1    2    0    0 -0.60565509810E+02 -0.63549137722E+02  0.95955279797E+02  0.15913961159E+03  0.91713283517E+02 0.  0.
        -11    1    3    3    0    0  0.20461481071E+02  0.62695810614E+02 -0.40756346974E+02  0.77527522177E+02  0.00000000000E+00 0.  1.
         11    1    3    3    0    0  0.11039211378E+02 -0.33015038987E+02 -0.11358504088E+02  0.36617927334E+02  0.00000000000E+00 0. -1.
        -13    1    4    4    0    0 -0.60129262189E+02  0.18244298866E+01  0.34150662367E+02  0.69174594006E+02  0.00000000000E+00 0.  1.
         13    1    4    4    0    0 -0.43624762134E+00 -0.65373567609E+02  0.61804617430E+02  0.89965017588E+02  0.00000000000E+00 0. -1.
         -1    1    1    2    0  502  0.29064817362E+02  0.33868366095E+02  0.38025868410E+02  0.58632725492E+02  0.00000000000E+00 0.  1.
<scales pt_clust_5="13000.00000" pt_clust_6="13000.00000" pt_clust_7="13000.00000" pt_clust_8="13000.00000" pt_clust_9="44.62992"></scales>
<clustering>
<clus scale="   44.630">  1  9  2 -1</clus>
<clus scale="   91.713">  7  8 -1 -1</clus>
<clus scale="   91.869">  5  6 -1 -1</clus>
<clus scale="  105.414">  1  7  2 -1</clus>
<clus scale="   44.630">  1  5  2 -1</clus>
</clustering>
</event>
<event>
 9    1  0.1399746E-005  0.9117753E+02  0.7546771E-02  0.1300100E+00
         21   -1    0    0  501  502  0.00000000000E+00  0.00000000000E+00  0.15455720867E+03  0.15455720867E+03  0.00000000000E+00 0. -1.
          3   -1    0    0  502    0 -0.00000000000E+00 -0.00000000000E+00 -0.19472308098E+03  0.19472308098E+03  0.00000000000E+00 0. -1.
         23    2    1    2    0    0 -0.25108866487E+02  0.18201091686E+01 -0.13708164978E+03  0.16564334449E+03  0.89512964953E+02 0.  0.
         23    2    1    2    0    0 -0.18979875303E+02 -0.10557375750E+02  0.19734728706E+02  0.94322493532E+02  0.89641393450E+02 0.  0.
        -11    1    3    3    0    0 -0.24542625327E+02 -0.40040818132E+02 -0.47681362715E+02  0.66926227482E+02  0.00000000000E+00 0.  1.
         11    1    3    3    0    0 -0.56624115936E+00  0.41860927301E+02 -0.89400287066E+02  0.98717117011E+02  0.00000000000E+00 0. -1.
        -13    1    4    4    0    0 -0.31899020065E+02  0.32911171975E+02  0.28101186314E+01  0.45919380316E+02  0.00000000000E+00 0.  1.
         13    1    4    4    0    0  0.12919144762E+02 -0.43468547726E+02  0.16924610074E+02  0.48403113215E+02  0.00000000000E+00 0. -1.
          3    1    1    2  501    0  0.44088741789E+02  0.87372665818E+01  0.77181048771E+02  0.89314451626E+02  0.00000000000E+00 0. -1.
<scales pt_clust_5="13000.00000" pt_clust_6="13000.00000" pt_clust_7="13000.00000" pt_clust_8="13000.00000" pt_clust_9="44.94616"></scales>
<clustering>
<clus scale="   44.946">  1  9  2 -1</clus>
<clus scale="   89.513">  5  6 -1 -1</clus>
<clus scale="   89.641">  7  8 -1 -1</clus>
<clus scale="   91.051">  2  5  1 -1</clus>
<clus scale="   44.946">  1  5  2 -1</clus>
</clustering>
</event>
<event>
 9    1  0.1399746E-005  0.1744635E+03  0.7546771E-02  0.1187917E+00
          2   -1    0    0  502    0 -0.00000000000E+00  0.00000000000E+00  0.81684107453E+03  0.81684107453E+03  0.00000000000E+00 0. -1.
         21   -1    0    0  501  502  0.00000000000E+00 -0.00000000000E+00 -0.70174671916E+02  0.70174671916E+02  0.00000000000E+00 0. -1.
         23    2    1    2    0    0 -0.36173726306E+02 -0.78666383810E+02  0.18894697753E+03  0.22686399075E+03  0.90936085064E+02 0.  0.
         23    2    1    2    0    0 -0.99908453112E+02  0.13471177907E+03  0.40611615332E+03  0.44886285893E+03  0.91752785882E+02 0.  0.
        -13    1    4    4    0    0 -0.62165713001E+01  0.50966682251E+02  0.51854209385E+02  0.72973334098E+02  0.00000000000E+00 0.  1.
         13    1    4    4    0    0 -0.93691881812E+02  0.83745096816E+02  0.35426194394E+03  0.37588952483E+03  0.00000000000E+00 0. -1.
        -13    1    3    3    0    0  0.27123812305E+02 -0.69528485206E+01  0.60954284100E+02  0.67078074262E+02  0.00000000000E+00 0.  1.
         13    1    3    3    0    0 -0.63297538611E+02 -0.71713535289E+02  0.12799269343E+03  0.15978591649E+03  0.00000000000E+00 0. -1.
          2    1    1    2  501    0  0.13608217942E+03 -0.56045395256E+02  0.15160327176E+03  0.21128889676E+03  0.00000000000E+00 0. -1.
<scales pt_clust_5="13000.00000" pt_clust_6="13000.00000" pt_clust_7="13000.00000" pt_clust_8="13000.00000" pt_clust_9="148.38780"></scales>
<clustering>
<clus scale="   90.936">  7  8 -1 -1</clus>
<clus scale="   91.753">  5  6 -1 -1</clus>
<clus scale="  125.564">  1  7  2 -1</clus>
<clus scale="  148.388">  2  9  1 -1</clus>
<clus scale="  148.388">  2  5  1 -1</clus>
</clustering>
</event>
<event>
 9    1  0.1504956E-005  0.1238876E+03  0.7546771E-02  0.1238886E+00
         21   -1    0    0  501  502  0.00000000000E+00  0.00000000000E+00  0.20035595523E+03  0.20035595523E+03  0.00000000000E+00 0.  1.
          2   -1    0    0  502    0 -0.00000000000E+00 -0.00000000000E+00 -0.32959312529E+03  0.32959312529E+03  0.00000000000E+00 0. -1.
         23    2    1    2    0    0  0.87320785725E+02 -0.77766518664E+01 -0.28950046923E+03  0.31594112502E+03  0.91229802489E+02 0.  0.
         23    2    1    2    0    0 -0.49865758844E+02 -0.11906056066E+02  0.10019295972E+03  0.14053187972E+03  0.84155997788E+02 0.  0.
        -11    1    3    3    0    0  0.12916112588E+02 -0.32927113851E+02 -0.35652985755E+02  0.50221073109E+02  0.00000000000E+00 0.  1.
         11    1    3    3    0    0  0.74404673137E+02  0.25150461985E+02 -0.25384748347E+03  0.26572005191E+03  0.00000000000E+00 0. -1.
        -13    1    4    4    0    0 -0.40461294212E+02 -0.39460484333E+02  0.28804614637E+02  0.63434627591E+02  0.00000000000E+00 0.  1.
         13    1    4    4    0    0 -0.94044646313E+01  0.27554428267E+02  0.71388345081E+02  0.77097252127E+02  0.00000000000E+00 0. -1.
          2    1    1    2  501    0 -0.37455026881E+02  0.19682707933E+02  0.60070339450E+02  0.73476075778E+02  0.00000000000E+00 0. -1.
<scales pt_clust_5="13000.00000" pt_clust_6="13000.00000" pt_clust_7="13000.00000" pt_clust_8="13000.00000" pt_clust_9="42.31180"></scales>
<clustering>
<clus scale="   42.312">  1  9  2 -1</clus>
<clus scale="   84.156">  7  8 -1 -1</clus>
<clus scale="   91.230">  5  6 -1 -1</clus>
<clus scale="  118.775">  1  7  2 -1</clus>
<clus scale="   42.312">  1  5  2 -1</clus>
</clustering>
</event>
<event>
 9    1  0.1399746E-005  0.1952574E+03  0.7546771E-02  0.1171121E+00
          2   -1    0    0  502    0 -0.00000000000E+00  0.00000000000E+00  0.11907121104E+04  0.11907121104E+04  0.00000000000E+00 0. -1.
         21   -1    0    0  501  502  0.00000000000E+00 -0.00000000000E+00 -0.69804081811E+02  0.69804081811E+02  0.00000000000E+00 0. -1.
         23    2    1    2    0    0  0.80153575262E+02  0.40812768748E+02  0.10602195704E+03  0.16829384933E+03  0.94825558940E+02 0.  0.
         23    2    1    2    0    0 -0.20440480540E+03  0.51516313174E+02  0.74835743442E+03  0.78400076354E+03  0.10091131047E+03 0.  0.
        -11    1    3    3    0    0  0.52289020840E+02  0.69201001597E+02  0.51732247040E+02  0.10099081991E+03  0.00000000000E+00 0. -1.
         11    1    3    3    0    0  0.27864554422E+02 -0.28388232849E+02  0.54289710000E+02  0.67303029421E+02  0.00000000000E+00 0.  1.
        -13    1    4    4    0    0 -0.15477952744E+03  0.37859545395E+02  0.68007374567E+03  0.69849147943E+03  0.00000000000E+00 0. -1.
         13    1    4    4    0    0 -0.49625277955E+02  0.13656767779E+02  0.68283688751E+02  0.85509284102E+02  0.00000000000E+00 0.  1.
          2    1    1    2  501    0  0.12425123014E+03 -0.92329081922E+02  0.26652863709E+03  0.30822157930E+03  0.00000000000E+00 0. -1.
<scales pt_clust_5="13000.00000" pt_clust_6="13000.00000" pt_clust_7="13000.00000" pt_clust_8="13000.00000" pt_clust_9="167.15966"></scales>
<clustering>
<clus scale="   94.826">  5  6 -1 -1</clus>
<clus scale="  100.911">  7  8 -1 -1</clus>
<clus scale="  130.699">  1  5  2 -1</clus>
<clus scale="  167.160">  2  9  1 -1</clus>
<clus scale="  167.160">  2  5  1 -1</clus>
</clustering>
</event>
<event>
 9    1  0.1399746E-005  0.1059843E+03  0.7546771E-02  0.1272174E+00
         -3   -1    0    0    0  501 -0.00000000000E+00  0.00000000000E+00  0.46131544560E+02  0.46131544560E+02  0.00000000000E+00 0.  1.
         21   -1    0    0  501  502  0.00000000000E+00 -0.00000000000E+00 -0.41089634964E+03  0.41089634964E+03  0.00000000000E+00 0. -1.
         23    2    1    2    0    0  0.43307621274E+02  0.25317986978E+02 -0.79847239563E+02  0.13002414619E+03  0.89521764966E+02 0.  0.
         23    2    1    2    0    0 -0.12827640024E+02 -0.28687732401E+02 -0.11511157504E+03  0.15445097682E+03  0.98065769738E+02 0.  0.
        -11    1    3    3    0    0  0.35038029490E+02  0.33479148326E+01  0.10457373072E+02  0.36718233833E+02  0.00000000000E+00 0.  1.
         11    1    3    3    0    0  0.82695917846E+01  0.21970072146E+02 -0.90304612635E+02  0.93305912361E+02  0.00000000000E+00 0. -1.
        -13    1    4    4    0    0 -0.50156742604E+02  0.70842888573E+01 -0.65443132219E+02  0.82756809580E+02  0.00000000000E+00 0. -1.
         13    1    4    4    0    0  0.37329102580E+02 -0.35772021258E+02 -0.49668442819E+02  0.71694167241E+02  0.00000000000E+00 0.  1.
         -3    1    1    2    0  502 -0.30479981250E+02  0.33697454222E+01 -0.16980599048E+03  0.17255277119E+03  0.00000000000E+00 0.  1.
<scales pt_clust_5="13000.00000" pt_clust_6="13000.00000" pt_clust_7="13000.00000" pt_clust_8="13000.00000" pt_clust_9="30.66569"></scales>
<clustering>
<clus scale="   30.666">  2  9  1 -1</clus>
<clus scale="   89.522">  5  6 -1 -1</clus>
<clus scale="   98.066">  7  8 -1 -1</clus>
<clus scale="   98.132">  1  5  2 -1</clus>
<clus scale="   30.666">  2  5  1 -1</clus>
</clustering>
</event>
<event>
 9    1  0.1399746E-005  0.2994104E+03  0.7546771E-02  0.1085788E+00
         21   -1    0    0  501  502  0.00000000000E+00  0.00000000000E+00  0.12956091018E+03  0.12956091018E+03  0.00000000000E+00 0. -1.
          2   -1    0    0  502    0 -0.00000000000E+00 -0.00000000000E+00 -0.79358962801E+03  0.79358962801E+03  0.00000000000E+00 0. -1.
         23    2    1    2    0    0 -0.25488478759E+02 -0.29395287363E+03 -0.37417620371E+03  0.48438957030E+03  0.86991206010E+02 0.  0.
         23    2    1    2    0    0  0.18461453198E+02  0.27249146498E+03 -0.29784075049E+03  0.41480719847E+03  0.93613436559E+02 0.  0.
        -11    1    4    4    0    0 -0.25909560180E+02  0.70967313431E+02 -0.12297770430E+03  0.14433010996E+03  0.00000000000E+00 0.  1.
         11    1    4    4    0    0  0.44371013378E+02  0.20152415155E+03 -0.17486304618E+03  0.27047708851E+03  0.00000000000E+00 0. -1.
        -13    1    3    3    0    0 -0.56104582473E+01 -0.24371589978E+03 -0.34656217818E+03  0.42371483382E+03  0.00000000000E+00 0. -1.
         13    1    3    3    0    0 -0.19878020512E+02 -0.50236973855E+02 -0.27614025527E+02  0.60674736484E+02  0.00000000000E+00 0.  1.
          2    1    1    2  501    0  0.70270255612E+01  0.21461408651E+02  0.79882363727E+01  0.23953769429E+02  0.00000000000E+00 0. -1.
<scales pt_clust_5="13000.00000" pt_clust_6="13000.00000" pt_clust_7="13000.00000" pt_clust_8="13000.00000" pt_clust_9="22.58254"></scales>
<clustering>
<clus scale="   22.583">  1  9  2 -1</clus>
<clus scale="   86.991">  7  8 -1 -1</clus>
<clus scale="   93.613">  5  6 -1 -1</clus>
<clus scale="  297.406">  2  7  1 -1</clus>
<clus scale="   22.583">  1  5  2 -1</clus>
</clustering>
</event>
<event>
 9    1  0.1399746E-005  0.9438314E+02  0.7546771E-02  0.1295739E+00
         -1   -1    0    0    0  501 -0.00000000000E+00  0.00000000000E+00  0.91424900798E+02  0.91424900798E+02  0.00000000000E+00 0.  1.
         21   -1    0    0  501  502  0.00000000000E+00 -0.00000000000E+00 -0.23630991601E+03  0.23630991601E+03  0.00000000000E+00 0. -1.
         23    2    1    2    0    0  0.29599134485E+02 -0.19407768410E+01  0.50052526655E+02  0.10288507021E+03  0.84854032724E+02 0.  0.
         23    2    1    2    0    0 -0.87630950459E+01  0.16075724767E+01 -0.15211458493E+03  0.17722562241E+03  0.90502476014E+02 0.  0.
        -11    1    3    3    0    0  0.55075164661E+02 -0.20070854366E+02  0.32292232626E+02  0.66924593726E+02  0.00000000000E+00 0.  1.
         11    1    3    3    0    0 -0.25476030176E+02  0.18130077524E+02  0.17760294030E+02  0.35960476479E+02  0.00000000000E+00 0. -1.
        -11    1    4    4    0    0  0.11453838607E+02 -0.37967051530E+02 -0.38681268231E+02  0.55397905490E+02  0.00000000000E+00 0.  1.
         11    1    4    4    0    0 -0.20216933653E+02  0.39574624007E+02 -0.11343331670E+03  0.12182771692E+03  0.00000000000E+00 0. -1.
         -1    1    1    2    0  502 -0.20836039439E+02  0.33320436437E+00 -0.42822956931E+02  0.47624124191E+02  0.00000000000E+00 0.  1.
<scales pt_clust_5="13000.00000" pt_clust_6="13000.00000" pt_clust_7="13000.00000" pt_clust_8="13000.00000" pt_clust_9="20.83870"></scales>
<clustering>
<clus scale="   20.839">  2  9  1 -1</clus>
<clus scale="   84.854">  5  6 -1 -1</clus>
<clus scale="   88.981">  1  5  2 -1</clus>
<clus scale="   90.502">  7  8 -1 -1</clus>
<clus scale="   20.839">  2  5  1 -1</clus>
</clustering>
</event>
<event>
 9    1  0.1399746E-005  0.1219122E+03  0.7546771E-02  0.1242932E+00
         21   -1    0    0  501  502  0.00000000000E+00  0.00000000000E+00  0.29381452724E+03  0.29381452724E+03  0.00000000000E+00 0.  1.
          4   -1    0    0  502    0 -0.00000000000E+00 -0.00000000000E+00 -0.67171299139E+02  0.67171299139E+02  0.00000000000E+00 0. -1.
         23    2    1    2    0    0 -0.67894540822E+02 -0.50473135187E+02  0.58733198724E+02  0.13306771590E+03  0.84262817021E+02 0.  0.
         23    2    1    2    0    0  0.46260174777E+02  0.53444287734E+02  0.92573973002E+02  0.14948090674E+03  0.93692610912E+02 0.  0.
        -11    1    3    3    0    0 -0.72026705645E+02 -0.99580117685E+01  0.56851482168E+02  0.92298967215E+02  0.00000000000E+00 0.  1.
         11    1    3    3    0    0  0.41321648230E+01 -0.40515123419E+02  0.18817165565E+01  0.40768748680E+02  0.00000000000E+00 0. -1.
        -11    1    4    4    0    0  0.36693084881E+02 -0.17986916372E+02  0.54057289155E+02  0.67765051092E+02  0.00000000000E+00 0. -1.
         11    1    4    4    0    0  0.95670898956E+01  0.71431204106E+02  0.38516683847E+02  0.81715855644E+02  0.00000000000E+00 0.  1.
          4    1    1    2  501    0  0.21634366045E+02 -0.29711525462E+01  0.75336056379E+02  0.78437203751E+02  0.00000000000E+00 0. -1.
<scales pt_clust_5="13000.00000" pt_clust_6="13000.00000" pt_clust_7="13000.00000" pt_clust_8="13000.00000" pt_clust_9="21.83743"></scales>
<clustering>
<clus scale="   21.837">  1  9  2 -1</clus>
<clus scale="   84.263">  5  6 -1 -1</clus>
<clus scale="   93.693">  7  8 -1 -1</clus>
<clus scale="  114.824">  2  5  1 -1</clus>
<clus scale="   21.837">  1  5  2 -1</clus>
</clustering>
</event>
<event>
 9    1  0.1399746E-005  0.1352243E+03  0.7546771E-02  0.1220165E+00
         -3   -1    0    0    0  501 -0.00000000000E+00  0.00000000000E+00  0.17504701437E+03  0.17504701437E+03  0.00000000000E+00 0.  1.
         21   -1    0    0  501  502  0.00000000000E+00 -0.00000000000E+00 -0.19903008618E+03  0.19903008618E+03  0.00000000000E+00 0.  1.
         23    2    1    2    0    0  0.62426196484E+02  0.47272102318E+02  0.20655884308E+02  0.12144056340E+03  0.90495653031E+02 0.  0.
         23    2    1    2    0    0 -0.93615668141E+02 -0.84101608276E+02  0.34983538293E+02  0.15952940924E+03  0.91590450513E+02 0.  0.
        -13    1    4    4    0    0 -0.33658892041E+02 -0.68110971423E+02 -0.17837414442E+02  0.78039725752E+02  0.00000000000E+00 0. -1.
         13    1    4    4    0    0 -0.59956776100E+02 -0.15990636853E+02  0.52820952734E+02  0.81489683489E+02  0.00000000000E+00 0.  1.
        -13    1    3    3    0    0  0.22681163131E+02 -0.26977989618E+02  0.93662541556E+01  0.36468805871E+02  0.00000000000E+00 0. -1.
         13    1    3    3    0    0  0.39745033353E+02  0.74250091936E+02  0.11289630152E+02  0.84971757530E+02  0.00000000000E+00 0.  1.
         -3    1    1    2    0  502  0.31189471658E+02  0.36829505958E+02 -0.79622494412E+02  0.93107127910E+02  0.00000000000E+00 0.  1.
<scales pt_clust_5="13000.00000" pt_clust_6="13000.00000" pt_clust_7="13000.00000" pt_clust_8="13000.00000" pt_clust_9="48.26174"></scales>
<clustering>
<clus scale="   48.262">  2  9  1 -1</clus>
<clus scale="   90.496">  7  8 -1 -1</clus>
<clus scale="   91.590">  5  6 -1 -1</clus>
<clus scale="  134.485">  1  7  2 -1</clus>
<clus scale="   48.262">  2  5  1 -1</clus>
</clustering>
</event>
<event>
 9    1  0.1399746E-005  0.1174241E+03  0.7546771E-02  0.1250907E+00
          2   -1    0    0  502    0 -0.00000000000E+00  0.00000000000E+00  0.85897420424E+03  0.85897420424E+03  0.00000000000E+00 0. -1.
         21   -1    0    0  501  502  0.00000000000E+00 -0.00000000000E+00 -0.29264010873E+02  0.29264010873E+02  0.00000000000E+00 0. -1.
         23    2    1    2    0    0 -0.43890327565E+02  0.50447184447E+01  0.28500130793E+03  0.30034225598E+03  0.83832661694E+02 0.  0.
         23    2    1    2    0    0  0.10734462212E+03 -0.28219734020E+02  0.43885892404E+03  0.46232628456E+03  0.93963912741E+02 0.  0.
        -11    1    3    3    0    0  0.32664045075E+01 -0.30900564503E+02  0.14517833584E+03  0.14846637155E+03  0.00000000000E+00 0. -1.
         11    1    3    3    0    0 -0.47156732073E+02  0.35945282948E+02  0.13982297209E+03  0.15187588443E+03  0.00000000000E+00 0.  1.
        -13    1    4    4    0    0 -0.88497003052E-02  0.24905752117E+02  0.94655555626E+02  0.97877325146E+02  0.00000000000E+00 0.  1.
         13    1    4    4    0    0  0.10735347182E+03 -0.53125486137E+02  0.34420336841E+03  0.36444895941E+03  0.00000000000E+00 0. -1.
          2    1    1    2  501    0 -0.63454294559E+02  0.23175015575E+02  0.10584996139E+03  0.12556967457E+03  0.00000000000E+00 0. -1.
<scales pt_clust_5="13000.00000" pt_clust_6="13000.00000" pt_clust_7="13000.00000" pt_clust_8="13000.00000" pt_clust_9="67.55390"></scales>
<clustering>
<clus scale="   67.554">  2  9  1 -1</clus>
<clus scale="   83.833">  5  6 -1 -1</clus>
<clus scale="   93.964">  7  8 -1 -1</clus>
<clus scale="  109.486">  1  5  2 -1</clus>
<clus scale="   67.554">  2  5  1 -1</clus>
</clustering>
</event>
<event>
 9    1  0.1399746E-005  0.9296743E+02  0.7546771E-02  0.1297539E+00
         -4   -1    0    0    0  501 -0.00000000000E+00  0.00000000000E+00  0.17610916125E+03  0.17610916125E+03  0.00000000000E+00 0.  1.
         21   -1    0    0  501  502  0.00000000000E+00 -0.00000000000E+00 -0.18851072432E+03  0.18851072432E+03  0.00000000000E+00 0.  1.
         23    2    1    2    0    0  0.25627253596E+02  0.35241323529E+02  0.48105952916E+02  0.11214377892E+03  0.91451284489E+02 0.  0.
         23    2    1    2    0    0  0.34225481317E+02  0.37835528508E+02  0.42527142631E+02  0.11269514566E+03  0.91042447276E+02 0.  0.
        -13    1    4    4    0    0 -0.73654354555E+01  0.42824961840E+02  0.53952779696E+02  0.69275749242E+02  0.00000000000E+00 0.  1.
         13    1    4    4    0    0  0.41590916772E+02 -0.49894333322E+01 -0.11425637065E+02  0.43419396418E+02  0.00000000000E+00 0. -1.
        -13    1    3    3    0    0  0.16842762618E+02 -0.27717773760E+02  0.15835684942E-01  0.32433838588E+02  0.00000000000E+00 0. -1.
         13    1    3    3    0    0  0.87844909783E+01  0.62959097289E+02  0.48090117231E+02  0.79709940337E+02  0.00000000000E+00 0.  1.
         -4    1    1    2    0  502 -0.59852734913E+02 -0.73076852038E+02 -0.10303465862E+03  0.13978096099E+03  0.00000000000E+00 0.  1.
<scales pt_clust_5="13000.00000" pt_clust_6="13000.00000" pt_clust_7="13000.00000" pt_clust_8="13000.00000" pt_clust_9="94.45939"></scales>
<clustering>
<clus scale="   91.042">  5  6 -1 -1</clus>
<clus scale="   91.451">  7  8 -1 -1</clus>
<clus scale="   94.459">  2  9  1 -1</clus>
<clus scale="   94.459">  2  5  1 -1</clus>
<clus scale="   92.967">  2  5  1 -1</clus>
</clustering>
</event>
<event>
 9    1  0.1399746E-005  0.9648366E+02  0.7546771E-02  0.1290064E+00
         -1   -1    0    0    0  501 -0.00000000000E+00  0.00000000000E+00  0.27008054537E+03  0.27008054537E+03  0.00000000000E+00 0.  1.
         21   -1    0    0  501  502  0.00000000000E+00 -0.00000000000E+00 -0.49110771423E+02  0.49110771423E+02  0.00000000000E+00 0. -1.
         23    2    1    2    0    0 -0.21102445689E+02  0.21776060965E+02  0.15829115240E+03  0.18339676264E+03  0.87514419237E+02 0.  0.
         23    2    1    2    0    0  0.34715974321E+02 -0.48754841067E+01  0.56600321957E+02  0.11325784220E+03  0.91622994686E+02 0.  0.
        -13    1    3    3    0    0 -0.49793692181E+02  0.11502910665E+02  0.52348276318E+02  0.73157848302E+02  0.00000000000E+00 0. -1.
         13    1    3    3    0    0  0.28691246492E+02  0.10273150300E+02  0.10594287608E+03  0.11023891434E+03  0.00000000000E+00 0.  1.
        -13    1    4    4    0    0  0.20916422519E+02  0.41186593927E+02  0.12124943012E+02  0.47758208649E+02  0.00000000000E+00 0.  1.
         13    1    4    4    0    0  0.13799551801E+02 -0.46062078033E+02  0.44475378945E+02  0.65499633548E+02  0.00000000000E+00 0. -1.
         -1    1    1    2    0  502 -0.13613528632E+02 -0.16900576859E+02  0.60782995976E+01  0.22536711960E+02  0.00000000000E+00 0.  1.
<scales pt_clust_5="13000.00000" pt_clust_6="13000.00000" pt_clust_7="13000.00000" pt_clust_8="13000.00000" pt_clust_9="21.70156"></scales>
<clustering>
<clus scale="   21.702">  2  9  1 -1</clus>
<clus scale="   87.514">  5  6 -1 -1</clus>
<clus scale="   91.623">  7  8 -1 -1</clus>
<clus scale="   92.591">  1  5  2 -1</clus>
<clus scale="   21.702">  2  5  1 -1</clus>
</clustering>
</event>
<event>
 9    1  0.1399746E-005  0.1050413E+03  0.7546771E-02  0.1272420E+00
         21   -1    0    0  501  502  0.00000000000E+00  0.00000000000E+00  0.56783018196E+02  0.56783018196E+02  0.00000000000E+00 0. -1.
         -1   -1    0    0    0  501 -0.00000000000E+00 -0.00000000000E+00 -0.36719068440E+03  0.36719068440E+03  0.00000000000E+00 0.  1.
         23    2    1    2    0    0  0.41915119365E+02  0.19360074673E+01 -0.17302230584E+03  0.20283425311E+03  0.97182254337E+02 0.  0.
         23    2    1    2    0    0 -0.34497998173E+02  0.24700150819E+02 -0.15725224938E+03  0.18709254222E+03  0.92060524072E+02 0.  0.
        -13    1    4    4    0    0 -0.64135081669E+02  0.29253043451E+02 -0.12111494925E+03  0.14013522107E+03  0.00000000000E+00 0.  1.
         13    1    4    4    0    0  0.29637083496E+02 -0.45528926326E+01 -0.36137300128E+02  0.46957321155E+02  0.00000000000E+00 0. -1.
        -13    1    3    3    0    0 -0.14798083428E+02 -0.26132504437E+02 -0.10802222745E+03  0.11211910044E+03  0.00000000000E+00 0.  1.
         13    1    3    3    0    0  0.56713202793E+02  0.28068511904E+02 -0.65000078396E+02  0.90715152665E+02  0.00000000000E+00 0. -1.
         -1    1    1    2    0  502 -0.74171211918E+01 -0.26636158286E+02  0.19866889019E+02  0.34046907265E+02  0.00000000000E+00 0.  1.
<scales pt_clust_5="13000.00000" pt_clust_6="13000.00000" pt_clust_7="13000.00000" pt_clust_8="13000.00000" pt_clust_9="27.64957"></scales>
<clustering>
<clus scale="   27.650">  1  9  2 -1</clus>
<clus scale="   92.061">  5  6 -1 -1</clus>
<clus scale="   97.182">  7  8 -1 -1</clus>
<clus scale="  100.322">  1  5  2 -1</clus>
<clus scale="   27.650">  1  5  2 -1</clus>
</clustering>
</event>
<event>
 9    1  0.1399746E-005  0.1085853E+03  0.7546771E-02  0.1265679E+00
         21   -1    0    0  501  502  0.00000000000E+00  0.00000000000E+00  0.25016693794E+02  0.25016693794E+02  0.00000000000E+00 0.  1.
         -4   -1    0    0    0  501 -0.00000000000E+00 -0.00000000000E+00 -0.86859625044E+03  0.86859625044E+03  0.00000000000E+00 0.  1.
         23    2    1    2    0    0  0.29237523169E+02 -0.56561229568E+02 -0.56302365776E+03  0.57353096779E+03  0.88815124622E+02 0.  0.
         23    2    1    2    0    0 -0.38841125482E+02  0.11765520799E+02 -0.22898487324E+03  0.25110041813E+03  0.94711600684E+02 0.  0.
        -11    1    3    3    0    0  0.19216408648E+02  0.22497765226E+02 -0.15352710759E+03  0.15635214283E+03  0.00000000000E+00 0. -1.
         11    1    3    3    0    0  0.10021114521E+02 -0.79058994794E+02 -0.40949655017E+03  0.41717882496E+03  0.00000000000E+00 0.  1.
        -13    1    4    4    0    0 -0.49973989724E+02 -0.64707995122E+01 -0.22340535895E+03  0.22901795848E+03  0.00000000000E+00 0.  1.
         13    1    4    4    0    0  0.11132864242E+02  0.18236320311E+02 -0.55795142864E+01  0.22082459654E+02  0.00000000000E+00 0. -1.
         -4    1    1    2    0  502  0.96036023131E+01  0.44795708770E+02 -0.51571025646E+02  0.68981558316E+02  0.00000000000E+00 0.  1.
<scales pt_clust_5="13000.00000" pt_clust_6="13000.00000" pt_clust_7="13000.00000" pt_clust_8="13000.00000" pt_clust_9="45.81359"></scales>
<clustering>
<clus scale="   45.814">  1  9  2 -1</clus>
<clus scale="   88.815">  5  6 -1 -1</clus>
<clus scale="   94.712">  7  8 -1 -1</clus>
<clus scale="  103.482">  2  5  1 -1</clus>
<clus scale="   45.814">  1  5  2 -1</clus>
</clustering>
</event>
<event>
 9    1  0.1399746E-005  0.2182863E+03  0.7546771E-02  0.1135244E+00
          1   -1    0    0  502    0 -0.00000000000E+00  0.00000000000E+00  0.12447419750E+04  0.12447419750E+04  0.00000000000E+00 0. -1.
         21   -1    0    0  501  502  0.00000000000E+00 -0.00000000000E+00 -0.78722117081E+02  0.78722117081E+02  0.00000000000E+00 0. -1.
         23    2    1    2    0    0 -0.46848607332E+02 -0.19951995115E+03  0.72543248801E+03  0.75945870563E+03  0.92315913983E+02 0.  0.
         23    2    1    2    0    0  0.14732773002E+03  0.14354331858E+03  0.35621015476E+03  0.42135563383E+03  0.91349611186E+02 0.  0.
        -11    1    3    3    0    0  0.18525772115E+02 -0.10302122421E+03  0.41093353697E+03  0.42405536040E+03  0.00000000000E+00 0. -1.
         11    1    3    3    0    0 -0.65374379446E+02 -0.96498726936E+02  0.31449895104E+03  0.33540334523E+03  0.00000000000E+00 0.  1.
        -13    1    4    4    0    0 -0.95886617456E+01  0.23700849219E+02  0.61660619684E+02  0.66751065217E+02  0.00000000000E+00 0.  1.
         13    1    4    4    0    0  0.15691639177E+03  0.11984246936E+03  0.29454953508E+03  0.35460456861E+03  0.00000000000E+00 0. -1.
          1    1    1    2  501    0 -0.10047912269E+03  0.55976632574E+02  0.84377215169E+02  0.14264975265E+03  0.00000000000E+00 0. -1.
<scales pt_clust_5="13000.00000" pt_clust_6="13000.00000" pt_clust_7="13000.00000" pt_clust_8="13000.00000" pt_clust_9="115.01929"></scales>
<clustering>
<clus scale="   91.350">  7  8 -1 -1</clus>
<clus scale="   92.316">  5  6 -1 -1</clus>
<clus scale="  115.019">  2  9  1 -1</clus>
<clus scale="  217.879">  2  7  1 -1</clus>
<clus scale="  115.019">  2  5  1 -1</clus>
</clustering>
</event>
<event>
 9    1  0.1399746E-005  0.9208461E+02  0.7546771E-02  0.1297990E+00
         21   -1    0    0  501  502  0.00000000000E+00  0.00000000000E+00  0.96752115972E+02  0.96752115972E+02  0.00000000000E+00 0. -1.
          1   -1    0    0  502    0 -0.00000000000E+00 -0.00000000000E+00 -0.32742111568E+03  0.32742111568E+03  0.00000000000E+00 0. -1.
         23    2    1    2    0    0  0.31712434694E+01  0.98087024746E+01 -0.22716398804E+03  0.24525916500E+03  0.91882060940E+02 0.  0.
         23    2    1    2    0    0  0.87775580084E+01  0.46388027443E+02 -0.39911257354E+02  0.11089744342E+03  0.92067583215E+02 0.  0.
        -13    1    3    3    0    0  0.26676266626E+02  0.43702691726E+02 -0.12394621300E+03  0.13410522802E+03  0.00000000000E+00 0. -1.
         13    1    3    3    0    0 -0.23505023157E+02 -0.33893989251E+02 -0.10321777504E+03  0.11115393698E+03  0.00000000000E+00 0.  1.
        -13    1    4    4    0    0 -0.14040056814E+02  0.63170494384E+02 -0.48977739725E+02  0.81156968552E+02  0.00000000000E+00 0. -1.
         13    1    4    4    0    0  0.22817614822E+02 -0.16782466942E+02  0.90664823703E+01  0.29740474868E+02  0.00000000000E+00 0.  1.
          1    1    1    2  501    0 -0.11948801478E+02 -0.56196729917E+02  0.36406245693E+02  0.68016623230E+02  0.00000000000E+00 0. -1.
<scales pt_clust_5="13000.00000" pt_clust_6="13000.00000" pt_clust_7="13000.00000" pt_clust_8="13000.00000" pt_clust_9="57.45299"></scales>
<clustering>
<clus scale="   57.453">  1  9  2 -1</clus>
<clus scale="   91.882">  5  6 -1 -1</clus>
<clus scale="   91.899">  2  5  1 -1</clus>
<clus scale="   92.068">  7  8 -1 -1</clus>
<clus scale="   57.453">  1  5  2 -1</clus>
</clustering>
</event>
<event>
 9    1  0.1399746E-005  0.1779499E+03  0.7546771E-02  0.1171377E+00
         -3   -1    0    0    0  501 -0.00000000000E+00  0.00000000000E+00  0.42883317467E+03  0.42883317467E+03  0.00000000000E+00 0.  1.
         21   -1    0    0  501  502  0.00000000000E+00 -0.00000000000E+00 -0.28581457145E+03  0.28581457145E+03  0.00000000000E+00 0.  1.
         23    2    1    2    0    0  0.97130674128E+02 -0.85513126110E+02  0.24482306876E+03  0.29999206015E+03  0.11536914041E+03 0.  0.
         23    2    1    2    0    0 -0.59321777966E+02  0.14900490092E+03  0.87883508255E+02  0.21108200028E+03  0.10540666952E+03 0.  0.
        -11    1    4    4    0    0 -0.20832439192E+02  0.14235330570E+03  0.93554449184E+02  0.17161261355E+03  0.00000000000E+00 0.  1.
         11    1    4    4    0    0 -0.38489338774E+02  0.66515952235E+01 -0.56709409288E+01  0.39469386736E+02  0.00000000000E+00 0. -1.
        -13    1    3    3    0    0  0.52436805798E+02  0.16751118064E+02  0.44938478983E+02  0.71061138831E+02  0.00000000000E+00 0.  1.
         13    1    3    3    0    0  0.44693868330E+02 -0.10226424417E+03  0.19988458978E+03  0.22893092132E+03  0.00000000000E+00 0. -1.
         -3    1    1    2    0  502 -0.37808896162E+02 -0.63491774814E+02 -0.18968797380E+03  0.20357368569E+03  0.00000000000E+00 0.  1.
<scales pt_clust_5="13000.00000" pt_clust_6="13000.00000" pt_clust_7="13000.00000" pt_clust_8="13000.00000" pt_clust_9="73.89667"></scales>
<clustering>
<clus scale="   73.897">  2  9  1 -1</clus>
<clus scale="  105.407">  5  6 -1 -1</clus>
<clus scale="  115.369">  7  8 -1 -1</clus>
<clus scale="  171.659">  2  5  1 -1</clus>
<clus scale="   73.897">  2  5  1 -1</clus>
</clustering>
</event>
<event>
 9    1  0.1399746E-005  0.1177301E+03  0.7546771E-02  0.1249061E+00
         21   -1    0    0  501  502  0.00000000000E+00  0.00000000000E+00  0.63773630132E+02  0.63773630132E+02  0.00000000000E+00 0. -1.
          2   -1    0    0  502    0 -0.00000000000E+00 -0.00000000000E+00 -0.34134767794E+03  0.34134767794E+03  0.00000000000E+00 0. -1.
         23    2    1    2    0    0  0.47611308071E+02  0.62519008693E+02 -0.22189306579E+03  0.25158107172E+03  0.88775221202E+02 0.  0.
         23    2    1    2    0    0 -0.24737031624E+02 -0.44051410003E+02 -0.60896956036E+02  0.12368238798E+03  0.95060225042E+02 0.  0.
        -11    1    4    4    0    0 -0.28235967512E+02 -0.21079915828E+02 -0.83891746097E+02  0.90991525847E+02  0.00000000000E+00 0.  1.
         11    1    4    4    0    0  0.34989358879E+01 -0.22971494176E+02  0.22994790062E+02  0.32690862133E+02  0.00000000000E+00 0. -1.
        -13    1    3    3    0    0  0.40897827360E+01 -0.22089821458E+02 -0.56025282869E+02  0.60361567702E+02  0.00000000000E+00 0.  1.
         13    1    3    3    0    0  0.43521525335E+02  0.84608830151E+02 -0.16586778292E+03  0.19121950402E+03  0.00000000000E+00 0. -1.
          2    1    1    2  501    0 -0.22874276447E+02 -0.18467598690E+02  0.52159740169E+01  0.29857848370E+02  0.00000000000E+00 0. -1.
<scales pt_clust_5="13000.00000" pt_clust_6="13000.00000" pt_clust_7="13000.00000" pt_clust_8="13000.00000" pt_clust_9="29.39872"></scales>
<clustering>
<clus scale="   29.399">  1  9  2 -1</clus>
<clus scale="   88.775">  7  8 -1 -1</clus>
<clus scale="   95.060">  5  6 -1 -1</clus>
<clus scale="  112.716">  2  7  1 -1</clus>
<clus scale="   29.399">  1  5  2 -1</clus>
</clustering>
</event>
<event>
 9    1  0.1399746E-005  0.1126586E+03  0.7546771E-02  0.1256047E+00
         21   -1    0    0  501  502  0.00000000000E+00  0.00000000000E+00  0.30529818902E+02  0.30529818902E+02  0.00000000000E+00 0. -1.
         -1   -1    0    0    0  501 -0.00000000000E+00 -0.00000000000E+00 -0.81928724867E+03  0.81928724867E+03  0.00000000000E+00 0.  1.
         23    2    1    2    0    0 -0.64349524740E+01 -0.76404720383E+02 -0.44676912202E+03  0.46231823831E+03  0.90864818143E+02 0.  0.
         23    2    1    2    0    0 -0.28322053723E+02  0.51148695681E+02 -0.32243568853E+03  0.34029479149E+03  0.91746629811E+02 0.  0.
        -11    1    3    3    0    0  0.31359258056E+02  0.64908743734E+00 -0.87874100762E+02  0.93304244089E+02  0.00000000000E+00 0. -1.
         11    1    3    3    0    0 -0.37794210530E+02 -0.77053807821E+02 -0.35889502126E+03  0.36901399422E+03  0.00000000000E+00 0.  1.
        -13    1    4    4    0    0  0.28828142109E+02  0.22002555766E+02 -0.18634514397E+03  0.18984121502E+03  0.00000000000E+00 0. -1.
         13    1    4    4    0    0 -0.57150195831E+02  0.29146139915E+02 -0.13609054455E+03  0.15045357647E+03  0.00000000000E+00 0.  1.
         -1    1    1    2    0  502  0.34757006197E+02  0.25256024702E+02 -0.19552619223E+02  0.47204037772E+02  0.00000000000E+00 0.  1.
<scales pt_clust_5="13000.00000" pt_clust_6="13000.00000" pt_clust_7="13000.00000" pt_clust_8="13000.00000" pt_clust_9="42.96413"></scales>
<clustering>
<clus scale="   42.964">  1  9  2 -1</clus>
<clus scale="   90.865">  5  6 -1 -1</clus>
<clus scale="   91.747">  7  8 -1 -1</clus>
<clus scale="  111.942">  2  5  1 -1</clus>
<clus scale="   42.964">  1  5  2 -1</clus>
</clustering>
</event>
<event>
 9    1  0.1399746E-005  0.7734991E+02  0.7546771E-02  0.1337720E+00
          1   -1    0    0  502    0 -0.00000000000E+00  0.00000000000E+00  0.88974102737E+03  0.88974102737E+03  0.00000000000E+00 0. -1.
         21   -1    0    0  501  502  0.00000000000E+00 -0.00000000000E+00 -0.13012659600E+02  0.13012659600E+02  0.00000000000E+00 0.  1.
         23    2    1    2    0    0 -0.12079558649E+02  0.14940659898E+02  0.25470608638E+03  0.26561308578E+03  0.72842170789E+02 0.  0.
         23    2    1    2    0    0 -0.33328674859E+02 -0.24542163496E+02  0.30030489711E+03  0.31209264797E+03  0.74200211130E+02 0.  0.
        -11    1    4    4    0    0 -0.55752903021E+02 -0.26294532483E+02  0.23795856725E+03  0.24581307606E+03  0.00000000000E+00 0.  1.
         11    1    4    4    0    0  0.22424228162E+02  0.17523689877E+01  0.62346329863E+02  0.66279571914E+02  0.00000000000E+00 0. -1.
        -13    1    3    3    0    0 -0.14456382235E+02 -0.24944547490E+02  0.56623418497E+02  0.63540766120E+02  0.00000000000E+00 0.  1.
         13    1    3    3    0    0  0.23768235863E+01  0.39885207388E+02  0.19808266788E+03  0.20207231966E+03  0.00000000000E+00 0. -1.
          1    1    1    2  501    0  0.45408233508E+02  0.96015035975E+01  0.32171738428E+03  0.32504795321E+03  0.00000000000E+00 0. -1.
<scales pt_clust_5="13000.00000" pt_clust_6="13000.00000" pt_clust_7="13000.00000" pt_clust_8="13000.00000" pt_clust_9="46.41227"></scales>
<clustering>
<clus scale="   46.412">  2  9  1 -1</clus>
<clus scale="   72.842">  7  8 -1 -1</clus>
<clus scale="   74.200">  5  6 -1 -1</clus>
<clus scale="   76.048">  1  7  2 -1</clus>
<clus scale="   46.412">  2  5  1 -1</clus>
</clustering>
</event>
<event>
 9    1  0.1399746E-005  0.1883953E+03  0.7546771E-02  0.1162312E+00
         21   -1    0    0  501  502  0.00000000000E+00  0.00000000000E+00  0.18014043433E+03  0.18014043433E+03  0.00000000000E+00 0.  1.
          2   -1    0    0  502    0 -0.00000000000E+00 -0.00000000000E+00 -0.39873784530E+03  0.39873784530E+03  0.00000000000E+00 0. -1.
         23    2    1    2    0    0  0.91738049012E+02  0.13226279783E+03 -0.19916431925E+03  0.27276473885E+03  0.93940722649E+02 0.  0.
         23    2    1    2    0    0 -0.15234063249E+03 -0.38692223967E+02 -0.24009411617E+02  0.19453814868E+03  0.11208872799E+03 0.  0.
        -11    1    4    4    0    0 -0.16423423377E+03 -0.14536405243E+02 -0.12798398930E+02  0.16537227589E+03  0.00000000000E+00 0.  1.
         11    1    4    4    0    0  0.11893601284E+02 -0.24155818725E+02 -0.11211012688E+02  0.29165872784E+02  0.00000000000E+00 0. -1.
        -13    1    3    3    0    0  0.93697625843E+02  0.78896204498E+02 -0.17629508611E+03  0.21467140835E+03  0.00000000000E+00 0. -1.
         13    1    3    3    0    0 -0.19595768309E+01  0.53366593332E+02 -0.22869233140E+02  0.58093330509E+02  0.00000000000E+00 0.  1.
          2    1    1    2  501    0  0.60602583474E+02 -0.93570573863E+02  0.45763199017E+01  0.11157539209E+03  0.00000000000E+00 0. -1.
<scales pt_clust_5="13000.00000" pt_clust_6="13000.00000" pt_clust_7="13000.00000" pt_clust_8="13000.00000" pt_clust_9="111.48150"></scales>
<clustering>
<clus scale="   93.941">  7  8 -1 -1</clus>
<clus scale="  111.482">  1  9  2 -1</clus>
<clus scale="  112.089">  5  6 -1 -1</clus>
<clus scale="  178.196">  2  7  1 -1</clus>
<clus scale="  111.482">  1  5  2 -1</clus>
</clustering>
</event>
<event>
 9    1  0.1399746E-005  0.1461690E+03  0.7546771E-02  0.1219999E+00
         21   -1    0    0  501  502  0.00000000000E+00  0.00000000000E+00  0.30678118331E+03  0.30678118331E+03  0.00000000000E+00 0.  1.
         -1   -1    0    0    0  501 -0.00000000000E+00 -0.00000000000E+00 -0.12993984983E+03  0.12993984983E+03  0.00000000000E+00 0.  1.
         23    2    1    2    0    0 -0.36220099403E+02 -0.41585720932E+02  0.36621614405E+02  0.11295421205E+03  0.91521820308E+02 0.  0.
         23    2    1    2    0    0 -0.10149240659E+03  0.14484260644E+02  0.11896174208E+03  0.18181216268E+03  0.91614758741E+02 0.  0.
        -11    1    4    4    0    0 -0.63418823802E+01  0.27304539695E+02  0.67033635031E+02  0.72658554799E+02  0.00000000000E+00 0. -1.
         11    1    4    4    0    0 -0.95150524211E+02 -0.12820279050E+02  0.51928107048E+02  0.10915360788E+03  0.00000000000E+00 0.  1.
        -13    1    3    3    0    0 -0.11808929944E+02 -0.67415333449E+02  0.36170102968E+02  0.77411590599E+02  0.00000000000E+00 0.  1.
         13    1    3    3    0    0 -0.24411169459E+02  0.25829612517E+02  0.45151143706E+00  0.35542621453E+02  0.00000000000E+00 0. -1.
         -1    1    1    2    0  502  0.13771250599E+03  0.27101460288E+02  0.21257976987E+02  0.14195465840E+03  0.00000000000E+00 0.  1.
<scales pt_clust_5="13000.00000" pt_clust_6="13000.00000" pt_clust_7="13000.00000" pt_clust_8="13000.00000" pt_clust_9="113.89526"></scales>
<clustering>
<clus scale="   91.522">  7  8 -1 -1</clus>
<clus scale="   91.615">  5  6 -1 -1</clus>
<clus scale="  106.853">  2  7  1 -1</clus>
<clus scale="  113.895">  1  9  2 -1</clus>
<clus scale="  113.895">  1  5  2 -1</clus>
</clustering>
</event>
<event>
 9    1  0.1399746E-005  0.1433154E+03  0.7546771E-02  0.1230070E+00
         -1   -1    0    0    0  501 -0.00000000000E+00  0.00000000000E+00  0.12133958294E+03  0.12133958294E+03  0.00000000000E+00 0.  1.
         21   -1    0    0  501  502  0.00000000000E+00 -0.00000000000E+00 -0.66562674942E+03  0.66562674942E+03  0.00000000000E+00 0.  1.
         23    2    1    2    0    0  0.11102312785E+02 -0.10421844751E+02 -0.17581684958E+01  0.91934996272E+02  0.90648089809E+02 0.  0.
         23    2    1    2    0    0  0.75099715599E+02  0.80818984804E+02 -0.15101586813E+01  0.14268368152E+03  0.90469203621E+02 0.  0.
        -13    1    4    4    0    0  0.83163668866E+02  0.45874318474E+02  0.24851061706E+02  0.98174457893E+02  0.00000000000E+00 0. -1.
         13    1    4    4    0    0 -0.80639532671E+01  0.34944666330E+02 -0.26361220387E+02  0.44509223623E+02  0.00000000000E+00 0.  1.
        -13    1    3    3    0    0 -0.56175929332E+01  0.34498179464E+02  0.18907557133E+02  0.39738865779E+02  0.00000000000E+00 0.  1.
         13    1    3    3    0    0  0.16719905718E+02 -0.44920024215E+02 -0.20665725629E+02  0.52196130493E+02  0.00000000000E+00 0. -1.
         -1    1    1    2    0  502 -0.86202028383E+02 -0.70397140052E+02 -0.54101883931E+03  0.55234765457E+03  0.00000000000E+00 0.  1.
<scales pt_clust_5="13000.00000" pt_clust_6="13000.00000" pt_clust_7="13000.00000" pt_clust_8="13000.00000" pt_clust_9="111.15143"></scales>
<clustering>
<clus scale="   90.469">  5  6 -1 -1</clus>
<clus scale="   90.648">  7  8 -1 -1</clus>
<clus scale="   91.918">  1  7  2 -1</clus>
<clus scale="  111.151">  2  9  1 -1</clus>
<clus scale="  111.151">  2  5  1 -1</clus>
</clustering>
</event>
<event>
 9    1  0.1399746E-005  0.1111389E+03  0.7546771E-02  0.1260260E+00
          2   -1    0    0  502    0 -0.00000000000E+00  0.00000000000E+00  0.18397064219E+03  0.18397064219E+03  0.00000000000E+00 0. -1.
         21   -1    0    0  501  502  0.00000000000E+00 -0.00000000000E+00 -0.10472784023E+03  0.10472784023E+03  0.00000000000E+00 0.  1.
         23    2    1    2    0    0  0.48786219597E+02  0.25011845976E+02  0.97981204455E+02  0.14730017139E+03  0.95348499741E+02 0.  0.
         23    2    1    2    0    0 -0.63404852305E+02 -0.10046647037E+02  0.29286685849E+01  0.11127981885E+03  0.90848833630E+02 0.  0.
        -11    1    3    3    0    0  0.17111493746E+02  0.33539971452E+02  0.10687453943E+03  0.11331328290E+03  0.00000000000E+00 0. -1.
         11    1    3    3    0    0  0.31674725852E+02 -0.85281254766E+01 -0.88933349776E+01  0.33986888486E+02  0.00000000000E+00 0.  1.
        -13    1    4    4    0    0 -0.51567964741E+02  0.31483134666E+02 -0.18342062689E+02  0.63141697947E+02  0.00000000000E+00 0.  1.
         13    1    4    4    0    0 -0.11836887564E+02 -0.41529781703E+02  0.21270731274E+02  0.48138120907E+02  0.00000000000E+00 0. -1.
          2    1    1    2  501    0  0.14618632707E+02 -0.14965198939E+02 -0.21667071079E+02  0.30118492171E+02  0.00000000000E+00 0. -1.
<scales pt_clust_5="13000.00000" pt_clust_6="13000.00000" pt_clust_7="13000.00000" pt_clust_8="13000.00000" pt_clust_9="20.92036"></scales>
<clustering>
<clus scale="   20.920">  2  9  1 -1</clus>
<clus scale="   90.849">  7  8 -1 -1</clus>
<clus scale="   95.348">  5  6 -1 -1</clus>
<clus scale="  107.303">  2  7  1 -1</clus>
<clus scale="   20.920">  2  5  1 -1</clus>
</clustering>
</event>
<event>
 9    1  0.1399746E-005  0.1027327E+03  0.7546771E-02  0.1275364E+00
         21   -1    0    0  501  502  0.00000000000E+00  0.00000000000E+00  0.24030286372E+03  0.24030286372E+03  0.00000000000E+00 0.  1.
         -1   -1    0    0    0  501 -0.00000000000E+00 -0.00000000000E+00 -0.21043919334E+03  0.21043919334E+03  0.00000000000E+00 0.  1.
         23    2    1    2    0    0  0.45556204902E+02 -0.22946143933E+02 -0.16035538823E+03  0.19203663908E+03  0.92532842215E+02 0.  0.
         23    2    1    2    0    0  0.23965461214E+02  0.48995044759E+01  0.74284466608E+02  0.12232443367E+03  0.94057092335E+02 0.  0.
        -13    1    3    3    0    0  0.51309700960E+02  0.11443362006E+02 -0.14443861554E+03  0.15370800111E+03  0.00000000000E+00 0.  1.
         13    1    3    3    0    0 -0.57534960573E+01 -0.34389505939E+02 -0.15916772688E+02  0.38328637967E+02  0.00000000000E+00 0. -1.
        -13    1    4    4    0    0 -0.36059434501E+02 -0.27771091151E+00  0.20039133774E+02  0.41254415791E+02  0.00000000000E+00 0.  1.
         13    1    4    4    0    0  0.60024895716E+02  0.51772153874E+01  0.54245332834E+02  0.81070017880E+02  0.00000000000E+00 0. -1.
         -1    1    1    2    0  502 -0.69521666117E+02  0.18046639458E+02  0.11593459201E+03  0.13638098431E+03  0.00000000000E+00 0.  1.
<scales pt_clust_5="13000.00000" pt_clust_6="13000.00000" pt_clust_7="13000.00000" pt_clust_8="13000.00000" pt_clust_9="71.82578"></scales>
<clustering>
<clus scale="   71.826">  1  9  2 -1</clus>
<clus scale="   92.533">  5  6 -1 -1</clus>
<clus scale="   94.057">  7  8 -1 -1</clus>
<clus scale="  101.339">  2  5  1 -1</clus>
<clus scale="   71.826">  1  5  2 -1</clus>
</clustering>
</event>
<event>
 9    1  0.1399746E-005  0.9799367E+02  0.7546771E-02  0.1286871E+00
         21   -1    0    0  501  502  0.00000000000E+00  0.00000000000E+00  0.64556254767E+02  0.64556254767E+02  0.00000000000E+00 0. -1.
          1   -1    0    0  502    0 -0.00000000000E+00 -0.00000000000E+00 -0.77885680746E+03  0.77885680746E+03  0.00000000000E+00 0. -1.
         23    2    1    2    0    0 -0.66007210580E+00  0.16770606970E+02 -0.34050332061E+03  0.35179518840E+03  0.86808146393E+02 0.  0.
         23    2    1    2    0    0 -0.33623237482E+02 -0.53192714419E+02 -0.41327961510E+03  0.42789367281E+03  0.91285091944E+02 0.  0.
        -11    1    4    4    0    0 -0.42693534841E+02  0.11068886450E+02 -0.20697307114E+03  0.21162020306E+03  0.00000000000E+00 0.  1.
         11    1    4    4    0    0  0.90702973591E+01 -0.64261600869E+02 -0.20630654395E+03  0.21627346975E+03  0.00000000000E+00 0. -1.
        -13    1    3    3    0    0  0.24111277150E+02  0.41145083723E+02 -0.13060441044E+03  0.13903878462E+03  0.00000000000E+00 0.  1.
         13    1    3    3    0    0 -0.24771349256E+02 -0.24374476753E+02 -0.20989891016E+03  0.21275640378E+03  0.00000000000E+00 0. -1.
          1    1    1    2  501    0  0.34283309588E+02  0.36422107449E+02  0.39482383012E+02  0.63724201020E+02  0.00000000000E+00 0. -1.
<scales pt_clust_5="13000.00000" pt_clust_6="13000.00000" pt_clust_7="13000.00000" pt_clust_8="13000.00000" pt_clust_9="50.01915"></scales>
<clustering>
<clus scale="   50.019">  1  9  2 -1</clus>
<clus scale="   86.808">  7  8 -1 -1</clus>
<clus scale="   91.285">  5  6 -1 -1</clus>
<clus scale="   93.837">  2  7  1 -1</clus>
<clus scale="   50.019">  1  5  2 -1</clus>
</clustering>
</event>
<event>
 9    1  0.1399746E-005  0.1077953E+03  0.7546771E-02  0.1267194E+00
          1   -1    0    0  502    0 -0.00000000000E+00  0.00000000000E+00  0.47462312690E+03  0.47462312690E+03  0.00000000000E+00 0. -1.
         21   -1    0    0  501  502  0.00000000000E+00 -0.00000000000E+00 -0.81110877428E+02  0.81110877428E+02  0.00000000000E+00 0.  1.
         23    2    1    2    0    0  0.39411761274E+02 -0.36791804615E+01  0.33264514033E+03  0.34866834214E+03  0.96695398694E+02 0.  0.
         23    2    1    2    0    0 -0.78333189101E+02  0.45715667779E+02  0.74048311558E+02  0.14828056282E+03  0.90983306548E+02 0.  0.
        -11    1    4    4    0    0 -0.37373744675E+02  0.49638161124E+02 -0.16115603397E+01  0.62155779760E+02  0.00000000000E+00 0.  1.
         11    1    4    4    0    0 -0.40959444425E+02 -0.39224933442E+01  0.75659871898E+02  0.86124783061E+02  0.00000000000E+00 0. -1.
        -11    1    3    3    0    0  0.62798630536E+02 -0.18924098201E+02  0.29254732684E+03  0.29980948606E+03  0.00000000000E+00 0.  1.
         11    1    3    3    0    0 -0.23386869261E+02  0.15244917739E+02  0.40097813493E+02  0.48858856082E+02  0.00000000000E+00 0. -1.
          1    1    1    2  501    0  0.38921427826E+02 -0.42036487318E+02 -0.13181202421E+02  0.58785099365E+02  0.00000000000E+00 0. -1.
<scales pt_clust_5="13000.00000" pt_clust_6="13000.00000" pt_clust_7="13000.00000" pt_clust_8="13000.00000" pt_clust_9="57.28825"></scales>
<clustering>
<clus scale="   57.288">  2  9  1 -1</clus>
<clus scale="   90.983">  5  6 -1 -1</clus>
<clus scale="   96.695">  7  8 -1 -1</clus>
<clus scale="  102.702">  2  5  1 -1</clus>
<clus scale="   57.288">  2  5  1 -1</clus>
</clustering>
</event>
<event>
 9    1  0.1399746E-005  0.1082118E+03  0.7546771E-02  0.1264043E+00
         21   -1    0    0  501  502  0.00000000000E+00  0.00000000000E+00  0.17619050517E+03  0.17619050517E+03  0.00000000000E+00 0. -1.
          3   -1    0    0  502    0 -0.00000000000E+00 -0.00000000000E+00 -0.34847070981E+03  0.34847070981E+03  0.00000000000E+00 0. -1.
         23    2    1    2    0    0  0.44211164422E+02 -0.23323752401E+02 -0.24437097129E+03  0.26566203561E+03  0.91435885025E+02 0.  0.
         23    2    1    2    0    0 -0.87208615817E+02  0.34348710381E+02 -0.41411429308E+02  0.13712597061E+03  0.91123261359E+02 0.  0.
        -11    1    3    3    0    0  0.83521670193E+00 -0.51889557015E+02 -0.13337678951E+03  0.14311740528E+03  0.00000000000E+00 0.  1.
         11    1    3    3    0    0  0.43375947720E+02  0.28565804615E+02 -0.11099418178E+03  0.12254463033E+03  0.00000000000E+00 0. -1.
        -13    1    4    4    0    0 -0.43039538401E+02  0.73003484864E+01  0.26993058923E+02  0.51325648401E+02  0.00000000000E+00 0. -1.
         13    1    4    4    0    0 -0.44169077415E+02  0.27048361895E+02 -0.68404488231E+02  0.85800322208E+02  0.00000000000E+00 0.  1.
          3    1    1    2  501    0  0.42997451395E+02 -0.11024957981E+02  0.11350219596E+03  0.12187320876E+03  0.00000000000E+00 0. -1.
<scales pt_clust_5="13000.00000" pt_clust_6="13000.00000" pt_clust_7="13000.00000" pt_clust_8="13000.00000" pt_clust_9="44.38841"></scales>
<clustering>
<clus scale="   44.388">  1  9  2 -1</clus>
<clus scale="   91.123">  7  8 -1 -1</clus>
<clus scale="   91.436">  5  6 -1 -1</clus>
<clus scale="  107.948">  1  7  2 -1</clus>
<clus scale="   44.388">  1  5  2 -1</clus>
</clustering>
</event>
<event>
 9    1  0.1399746E-005  0.1681434E+03  0.7546771E-02  0.1182130E+00
         21   -1    0    0  501  502  0.00000000000E+00  0.00000000000E+00  0.38288373017E+03  0.38288373017E+03  0.00000000000E+00 0.  1.
          2   -1    0    0  502    0 -0.00000000000E+00 -0.00000000000E+00 -0.18624370348E+03  0.18624370348E+03  0.00000000000E+00 0. -1.
         23    2    1    2    0    0  0.11022519392E+03 -0.76744395057E+02 -0.12267262297E+03  0.20306410632E+03  0.90261638024E+02 0.  0.
         23    2    1    2    0    0 -0.97668840781E+02  0.54431749933E+02  0.27988583667E+03  0.31905279958E+03  0.10467372875E+03 0.  0.
        -11    1    4    4    0    0 -0.56909418581E+02 -0.25632897193E+02  0.98006569631E+02  0.11619386831E+03  0.00000000000E+00 0. -1.
         11    1    4    4    0    0 -0.40759422200E+02  0.80064647126E+02  0.18187926704E+03  0.20285893127E+03  0.00000000000E+00 0.  1.
        -13    1    3    3    0    0  0.33520814309E+02  0.17923384267E+02 -0.43452017347E+02  0.57731884665E+02  0.00000000000E+00 0.  1.
         13    1    3    3    0    0  0.76704379612E+02 -0.94667779324E+02 -0.79220605627E+02  0.14533222165E+03  0.00000000000E+00 0. -1.
          2    1    1    2  501    0 -0.12556353140E+02  0.22312645124E+02  0.39426812993E+02  0.47010527750E+02  0.00000000000E+00 0. -1.
<scales pt_clust_5="13000.00000" pt_clust_6="13000.00000" pt_clust_7="13000.00000" pt_clust_8="13000.00000" pt_clust_9="25.60305"></scales>
<clustering>
<clus scale="   25.603">  1  9  2 -1</clus>
<clus scale="   90.262">  7  8 -1 -1</clus>
<clus scale="  104.674">  5  6 -1 -1</clus>
<clus scale="  159.571">  2  7  1 -1</clus>
<clus scale="   25.603">  1  5  2 -1</clus>
</clustering>
</event>
<event>
 9    1  0.1399746E-005  0.1254531E+03  0.7546771E-02  0.1235371E+00
          2   -1    0    0  502    0 -0.00000000000E+00  0.00000000000E+00  0.54477199305E+03  0.54477199305E+03  0.00000000000E+00 0.  1.
         21   -1    0    0  501  502  0.00000000000E+00 -0.00000000000E+00 -0.20740139997E+03  0.20740139997E+03  0.00000000000E+00 0.  1.
         23    2    1    2    0    0  0.40569390025E+02 -0.75961618996E+02  0.37894743208E+03  0.39933044373E+03  0.91910848350E+02 0.  0.
         23    2    1    2    0    0  0.16599778229E+02  0.96985642914E+02  0.12098210947E+03  0.17924647723E+03  0.88379076814E+02 0.  0.
        -13    1    4    4    0    0 -0.15548006451E+02  0.57289291898E+02  0.14441173952E+02  0.61092969938E+02  0.00000000000E+00 0. -1.
         13    1    4    4    0    0  0.32147784680E+02  0.39696351016E+02  0.10654093552E+03  0.11815350729E+03  0.00000000000E+00 0.  1.
        -13    1    3    3    0    0  0.22772511719E+02 -0.17691197873E+02  0.19630239203E+02  0.34884266702E+02  0.00000000000E+00 0. -1.
         13    1    3    3    0    0  0.17796878305E+02 -0.58270421123E+02  0.35931719288E+03  0.36444617703E+03  0.00000000000E+00 0.  1.
          2    1    1    2  501    0 -0.57169168254E+02 -0.21024023918E+02 -0.16255894847E+03  0.17359647205E+03  0.00000000000E+00 0.  1.
<scales pt_clust_5="13000.00000" pt_clust_6="13000.00000" pt_clust_7="13000.00000" pt_clust_8="13000.00000" pt_clust_9="60.91242"></scales>
<clustering>
<clus scale="   60.912">  2  9  1 -1</clus>
<clus scale="   88.379">  5  6 -1 -1</clus>
<clus scale="   91.911">  7  8 -1 -1</clus>
<clus scale="  122.889">  2  5  1 -1</clus>
<clus scale="   60.912">  2  5  1 -1</clus>
</clustering>
</event>
<event>
 9    1  0.1399746E-005  0.1630353E+03  0.7546771E-02  0.1198611E+00
         21   -1    0    0  501  502  0.00000000000E+00  0.00000000000E+00  0.12743126626E+03  0.12743126626E+03  0.00000000000E+00 0. -1.
         -1   -1    0    0    0  501 -0.00000000000E+00 -0.00000000000E+00 -0.71225797759E+03  0.71225797759E+03  0.00000000000E+00 0.  1.
         23    2    1    2    0    0 -0.20306838949E+02  0.76928308088E+02  0.86950086764E+01  0.12195667902E+03  0.92018998518E+02 0.  0.
         23    2    1    2    0    0 -0.83152539125E+02 -0.15592879242E+03 -0.54266418237E+03  0.57797774892E+03  0.91354968946E+02 0.  0.
        -13    1    3    3    0    0  0.31052547214E+02  0.43074434408E+01  0.10289694417E+02  0.32995341621E+02  0.00000000000E+00 0.  1.
         13    1    3    3    0    0 -0.51359386163E+02  0.72620864647E+02 -0.15946857404E+01  0.88961337399E+02  0.00000000000E+00 0. -1.
        -13    1    4    4    0    0 -0.18481393455E+02 -0.12289283325E+03 -0.38089580642E+03  0.40065674301E+03  0.00000000000E+00 0.  1.
         13    1    4    4    0    0 -0.64671145670E+02 -0.33035959164E+02 -0.16176837595E+03  0.17732100592E+03  0.00000000000E+00 0. -1.
         -1    1    1    2    0  502  0.10345937807E+03  0.79000484327E+02 -0.50857537638E+02  0.13975481591E+03  0.00000000000E+00 0.  1.
<scales pt_clust_5="13000.00000" pt_clust_6="13000.00000" pt_clust_7="13000.00000" pt_clust_8="13000.00000" pt_clust_9="135.03618"></scales>
<clustering>
<clus scale="   91.355">  7  8 -1 -1</clus>
<clus scale="   92.019">  5  6 -1 -1</clus>
<clus scale="  121.646">  2  5  1 -1</clus>
<clus scale="  135.036">  1  9  2 -1</clus>
<clus scale="  135.036">  1  5  2 -1</clus>
</clustering>
</event>
<event>
 9    1  0.1399746E-005  0.9950910E+02  0.7546771E-02  0.1281338E+00
         21   -1    0    0  501  502  0.00000000000E+00  0.00000000000E+00  0.29639570980E+02  0.29639570980E+02  0.00000000000E+00 0.  1.
          2   -1    0    0  502    0 -0.00000000000E+00 -0.00000000000E+00 -0.70887084271E+03  0.70887084271E+03  0.00000000000E+00 0. -1.
         23    2    1    2    0    0  0.15927050881E+02 -0.30717319768E+02 -0.49195497419E+03  0.50154176046E+03  0.91253581694E+02 0.  0.
         23    2    1    2    0    0 -0.14935392510E+02  0.53564958807E+02 -0.18544539623E+03  0.21402632999E+03  0.91241460881E+02 0.  0.
        -11    1    4    4    0    0  0.22466220152E+02 -0.14394105822E+02 -0.29010913528E+02  0.39415154878E+02  0.00000000000E+00 0. -1.
         11    1    4    4    0    0 -0.37401612662E+02  0.67959064629E+02 -0.15643448270E+03  0.17461117511E+03  0.00000000000E+00 0.  1.
        -13    1    3    3    0    0  0.85070112247E+01  0.32485120560E+02 -0.19144355372E+03  0.19436637199E+03  0.00000000000E+00 0.  1.
         13    1    3    3    0    0  0.74200396565E+01 -0.63202440328E+02 -0.30051142047E+03  0.30717538847E+03  0.00000000000E+00 0. -1.
          2    1    1    2  501    0 -0.99165837132E+00 -0.22847639039E+02 -0.18309013071E+01  0.22942323239E+02  0.00000000000E+00 0. -1.
<scales pt_clust_5="13000.00000" pt_clust_6="13000.00000" pt_clust_7="13000.00000" pt_clust_8="13000.00000" pt_clust_9="22.86915"></scales>
<clustering>
<clus scale="   22.869">  1  9  2 -1</clus>
<clus scale="   91.241">  5  6 -1 -1</clus>
<clus scale="   91.254">  7  8 -1 -1</clus>
<clus scale="   99.498">  1  5  2 -1</clus>
<clus scale="   22.869">  1  5  2 -1</clus>
</clustering>
</event>
<event>
 9    1  0.1399746E-005  0.1055201E+03  0.7546771E-02  0.1272010E+00
         21   -1    0    0  501  502  0.00000000000E+00  0.00000000000E+00  0.61490688269E+02  0.61490688269E+02  0.00000000000E+00 0.  1.
          1   -1    0    0  502    0 -0.00000000000E+00 -0.00000000000E+00 -0.51180968891E+03  0.51180968891E+03  0.00000000000E+00 0. -1.
         23    2    1    2    0    0  0.23698483684E+02 -0.27257543506E+02 -0.35985802401E+03  0.37415155104E+03  0.95848807474E+02 0.  0.
         23    2    1    2    0    0 -0.49415942807E+02  0.51785625031E+02 -0.10980143548E+03  0.15868813118E+03  0.89453235724E+02 0.  0.
        -11    1    4    4    0    0  0.12842620727E+02  0.46618310526E+02 -0.68308896908E+02  0.83691727071E+02  0.00000000000E+00 0. -1.
         11    1    4    4    0    0 -0.62258563533E+02  0.51673145048E+01 -0.41492538571E+02  0.74996404111E+02  0.00000000000E+00 0.  1.
        -11    1    3    3    0    0 -0.14526379770E+02  0.26550795622E+02 -0.61043069813E+02  0.68133815610E+02  0.00000000000E+00 0. -1.
         11    1    3    3    0    0  0.38224863454E+02 -0.53808339128E+02 -0.29881495420E+03  0.30601773543E+03  0.00000000000E+00 0.  1.
          1    1    1    2  501    0  0.25717459123E+02 -0.24528081525E+02  0.19340458856E+02  0.40460694949E+02  0.00000000000E+00 0. -1.
<scales pt_clust_5="13000.00000" pt_clust_6="13000.00000" pt_clust_7="13000.00000" pt_clust_8="13000.00000" pt_clust_9="35.53892"></scales>
<clustering>
<clus scale="   35.539">  1  9  2 -1</clus>
<clus scale="   89.453">  5  6 -1 -1</clus>
<clus scale="   95.849">  7  8 -1 -1</clus>
<clus scale="   99.747">  1  5  2 -1</clus>
<clus scale="   35.539">  1  5  2 -1</clus>
</clustering>
</event>
<event>
 9    1  0.1779142E-005  0.1329369E+03  0.7546771E-02  0.1223310E+00
          2   -1    0    0  502    0 -0.00000000000E+00  0.00000000000E+00  0.43971083544E+03  0.43971083544E+03  0.00000000000E+00 0. -1.
         21   -1    0    0  501  502  0.00000000000E+00 -0.00000000000E+00 -0.18983501668E+03  0.18983501668E+03  0.00000000000E+00 0. -1.
         23    2    1    2    0    0 -0.41819047564E+02 -0.11625978144E+03  0.33018197566E+03  0.36411801778E+03  0.91085807363E+02 0.  0.
         23    2    1    2    0    0 -0.11006654474E+02  0.49069705978E+02  0.45708523018E+02  0.11316240626E+03  0.90484687247E+02 0.  0.
        -11    1    3    3    0    0  0.48496287530E+01 -0.25587661494E+02  0.96808170365E+01  0.27784267819E+02  0.00000000000E+00 0.  1.
         11    1    3    3    0    0 -0.46668676317E+02 -0.90672119942E+02  0.32050115862E+03  0.33633374996E+03  0.00000000000E+00 0. -1.
        -11    1    4    4    0    0 -0.62882819957E+01 -0.19831003283E+02 -0.11242127537E+02  0.23647338397E+02  0.00000000000E+00 0.  1.
         11    1    4    4    0    0 -0.47183724788E+01  0.68900709262E+02  0.56950650555E+02  0.89515067862E+02  0.00000000000E+00 0. -1.
          2    1    1    2  501    0  0.52825702039E+02  0.67190075458E+02 -0.12601467992E+03  0.15226542809E+03  0.00000000000E+00 0. -1.
<scales pt_clust_5="13000.00000" pt_clust_6="13000.00000" pt_clust_7="13000.00000" pt_clust_8="13000.00000" pt_clust_9="85.46965"></scales>
<clustering>
<clus scale="   85.470">  2  9  1 -1</clus>
<clus scale="   90.485">  7  8 -1 -1</clus>
<clus scale="   91.086">  5  6 -1 -1</clus>
<clus scale="  132.526">  2  7  1 -1</clus>
<clus scale="   85.470">  2  5  1 -1</clus>
</clustering>
</event>
<event>
 9    1  0.1399746E-005  0.1718732E+03  0.7546771E-02  0.1177062E+00
          2   -1    0    0  502    0 -0.00000000000E+00  0.00000000000E+00  0.99012408361E+03  0.99012408361E+03  0.00000000000E+00 0. -1.
         21   -1    0    0  501  502  0.00000000000E+00 -0.00000000000E+00 -0.46788944955E+02  0.46788944955E+02  0.00000000000E+00 0.  1.
         23    2    1    2    0    0  0.15807300996E+03 -0.10688190802E+02  0.65560326736E+03  0.67953853162E+03  0.82798900318E+02 0.  0.
         23    2    1    2    0    0 -0.11342693382E+03 -0.12940942236E+02  0.14492913647E+03  0.20590097081E+03  0.91420008104E+02 0.  0.
        -13    1    3    3    0    0  0.12542351765E+03 -0.36822762742E+02  0.40800781374E+03  0.42843593536E+03  0.00000000000E+00 0.  1.
         13    1    3    3    0    0  0.32649492307E+02  0.26134571940E+02  0.24759545362E+03  0.25110259626E+03  0.00000000000E+00 0. -1.
        -13    1    4    4    0    0 -0.67317959256E+02  0.13228948436E+02  0.22033415621E+02  0.72056811746E+02  0.00000000000E+00 0.  1.
         13    1    4    4    0    0 -0.46108974561E+02 -0.26169890672E+02  0.12289572085E+03  0.13384415906E+03  0.00000000000E+00 0. -1.
          2    1    1    2  501    0 -0.44646076145E+02  0.23629133038E+02  0.14280273483E+03  0.15147352613E+03  0.00000000000E+00 0. -1.
<scales pt_clust_5="13000.00000" pt_clust_6="13000.00000" pt_clust_7="13000.00000" pt_clust_8="13000.00000" pt_clust_9="50.51347"></scales>
<clustering>
<clus scale="   50.513">  2  9  1 -1</clus>
<clus scale="   82.799">  5  6 -1 -1</clus>
<clus scale="   91.420">  7  8 -1 -1</clus>
<clus scale="  167.447">  1  5  2 -1</clus>
<clus scale="   50.513">  2  5  1 -1</clus>
</clustering>
</event>
<event>
 9    1  0.1399746E-005  0.1303634E+03  0.7546771E-02  0.1229074E+00
         21   -1    0    0  501  502  0.00000000000E+00  0.00000000000E+00  0.66289399811E+02  0.66289399811E+02  0.00000000000E+00 0. -1.
         -1   -1    0    0    0  501 -0.00000000000E+00 -0.00000000000E+00 -0.39538903514E+03  0.39538903514E+03  0.00000000000E+00 0.  1.
         23    2    1    2    0    0  0.65534045439E+02  0.29734533460E+02 -0.12040095453E+03  0.16355616663E+03  0.84115255453E+02 0.  0.
         23    2    1    2    0    0 -0.11527650857E+03 -0.19979257787E+02 -0.19532299671E+03  0.24569720783E+03  0.92348257830E+02 0.  0.
        -11    1    3    3    0    0  0.39255245632E+02 -0.26828894803E+02 -0.42583920071E+02  0.63829101158E+02  0.00000000000E+00 0.  1.
         11    1    3    3    0    0  0.26278799807E+02  0.56563428263E+02 -0.77817034460E+02  0.99727065475E+02  0.00000000000E+00 0. -1.
        -13    1    4    4    0    0 -0.72706983822E+02 -0.37936490668E+02 -0.17865861777E+03  0.19658175023E+03  0.00000000000E+00 0.  1.
         13    1    4    4    0    0 -0.42569524749E+02  0.17957232881E+02 -0.16664378939E+02  0.49115457603E+02  0.00000000000E+00 0. -1.
         -1    1    1    2    0  502  0.49742463132E+02 -0.97552756727E+01 -0.13375684089E+02  0.52425060484E+02  0.00000000000E+00 0.  1.
<scales pt_clust_5="13000.00000" pt_clust_6="13000.00000" pt_clust_7="13000.00000" pt_clust_8="13000.00000" pt_clust_9="50.69002"></scales>
<clustering>
<clus scale="   50.690">  1  9  2 -1</clus>
<clus scale="   84.115">  5  6 -1 -1</clus>
<clus scale="   92.348">  7  8 -1 -1</clus>
<clus scale="  124.667">  2  5  1 -1</clus>
<clus scale="   50.690">  1  5  2 -1</clus>
</clustering>
</event>
<event>
 9    1  0.1399746E-005  0.1004904E+03  0.7546771E-02  0.1279860E+00
         -1   -1    0    0    0  501 -0.00000000000E+00  0.00000000000E+00  0.23939952771E+03  0.23939952771E+03  0.00000000000E+00 0.  1.
         21   -1    0    0  501  502  0.00000000000E+00 -0.00000000000E+00 -0.63151514179E+02  0.63151514179E+02  0.00000000000E+00 0. -1.
         23    2    1    2    0    0  0.22120034361E+02  0.29370350757E+02  0.13399684989E+03  0.16651378800E+03  0.91759317732E+02 0.  0.
         23    2    1    2    0    0 -0.75015535745E+01 -0.43196853467E+02  0.50203619516E+02  0.11440131822E+03  0.92978582175E+02 0.  0.
        -11    1    3    3    0    0  0.22055868329E+02  0.55782779220E+02  0.12493659866E+03  0.13859052446E+03  0.00000000000E+00 0. -1.
         11    1    3    3    0    0  0.64166031957E-01 -0.26412428464E+02  0.90602512344E+01  0.27923263546E+02  0.00000000000E+00 0.  1.
        -11    1    4    4    0    0  0.13718743673E+02 -0.17243214052E+02  0.71410219962E+02  0.74732535577E+02  0.00000000000E+00 0.  1.
         11    1    4    4    0    0 -0.21220297247E+02 -0.25953639415E+02 -0.21206600446E+02  0.39668782646E+02  0.00000000000E+00 0. -1.
         -1    1    1    2    0  502 -0.14618480786E+02  0.13826502711E+02 -0.79524558726E+01  0.21635935665E+02  0.00000000000E+00 0.  1.
<scales pt_clust_5="13000.00000" pt_clust_6="13000.00000" pt_clust_7="13000.00000" pt_clust_8="13000.00000" pt_clust_9="20.12144"></scales>
<clustering>
<clus scale="   20.121">  2  9  1 -1</clus>
<clus scale="   91.759">  5  6 -1 -1</clus>
<clus scale="   92.979">  7  8 -1 -1</clus>
<clus scale="   99.363">  1  5  2 -1</clus>
<clus scale="   20.121">  2  5  1 -1</clus>
</clustering>
</event>
<event>
 9    1  0.1399746E-005  0.1258322E+03  0.7546771E-02  0.1233786E+00
         21   -1    0    0  501  502  0.00000000000E+00  0.00000000000E+00  0.47684151228E+02  0.47684151228E+02  0.00000000000E+00 0.  1.
          1   -1    0    0  502    0 -0.00000000000E+00 -0.00000000000E+00 -0.40361446571E+03  0.40361446571E+03  0.00000000000E+00 0. -1.
         23    2    1    2    0    0 -0.93633982035E+02  0.17108527528E+02 -0.18681868774E+03  0.22846637064E+03  0.90750405619E+02 0.  0.
         23    2    1    2    0    0  0.78900710051E+02  0.14467508230E+01 -0.13010851061E+03  0.17719661629E+03  0.90790975084E+02 0.  0.
        -11    1    4    4    0    0  0.67800642492E+02 -0.30138434843E+02 -0.47596888756E+02  0.88151665874E+02  0.00000000000E+00 0.  1.
         11    1    4    4    0    0  0.11100067559E+02  0.31585185666E+02 -0.82511621856E+02  0.89044950417E+02  0.00000000000E+00 0. -1.
        -11    1    3    3    0    0 -0.23463235097E+02 -0.35084245042E+02 -0.79667618662E+02  0.90157401885E+02  0.00000000000E+00 0.  1.
         11    1    3    3    0    0 -0.70170746937E+02  0.52192772570E+02 -0.10715106907E+03  0.13830896875E+03  0.00000000000E+00 0. -1.
          1    1    1    2  501    0  0.14733271983E+02 -0.18555278351E+02 -0.39003116132E+02  0.45635630005E+02  0.00000000000E+00 0. -1.
<scales pt_clust_5="13000.00000" pt_clust_6="13000.00000" pt_clust_7="13000.00000" pt_clust_8="13000.00000" pt_clust_9="23.69321"></scales>
<clustering>
<clus scale="   23.693">  1  9  2 -1</clus>
<clus scale="   90.750">  7  8 -1 -1</clus>
<clus scale="   90.791">  5  6 -1 -1</clus>
<clus scale="  125.803">  2  7  1 -1</clus>
<clus scale="   23.693">  1  5  2 -1</clus>
</clustering>
</event>
<event>
 9    1  0.1399746E-005  0.1127108E+03  0.7546771E-02  0.1255762E+00
          1   -1    0    0  502    0 -0.00000000000E+00  0.00000000000E+00  0.93180281092E+02  0.93180281092E+02  0.00000000000E+00 0. -1.
         21   -1    0    0  501  502  0.00000000000E+00 -0.00000000000E+00 -0.29212363388E+03  0.29212363388E+03  0.00000000000E+00 0. -1.
         23    2    1    2    0    0  0.69784366847E+01  0.65418246330E+02  0.20252550187E+02  0.11291637640E+03  0.89508081978E+02 0.  0.
         23    2    1    2    0    0 -0.25869712713E+02 -0.73578641426E+02 -0.11125039098E+03  0.16249802170E+03  0.89139772568E+02 0.  0.
        -13    1    3    3    0    0  0.39577978227E+02  0.48219532502E+01  0.18828645019E+02  0.44092918558E+02  0.00000000000E+00 0.  1.
         13    1    3    3    0    0 -0.32599541542E+02  0.60596293080E+02  0.14239051680E+01  0.68823457845E+02  0.00000000000E+00 0. -1.
        -13    1    4    4    0    0 -0.15250702641E+02  0.18988836573E+02 -0.15353487447E+02  0.28790439771E+02  0.00000000000E+00 0.  1.
         13    1    4    4    0    0 -0.10619010072E+02 -0.92567477999E+02 -0.95896903534E+02  0.13370758193E+03  0.00000000000E+00 0. -1.
          1    1    1    2  501    0  0.18891276028E+02  0.81603950958E+01 -0.10794551200E+03  0.10988951687E+03  0.00000000000E+00 0. -1.
<scales pt_clust_5="13000.00000" pt_clust_6="13000.00000" pt_clust_7="13000.00000" pt_clust_8="13000.00000" pt_clust_9="20.57844"></scales>
<clustering>
<clus scale="   20.578">  2  9  1 -1</clus>
<clus scale="   89.140">  7  8 -1 -1</clus>
<clus scale="   89.508">  5  6 -1 -1</clus>
<clus scale="  112.418">  2  7  1 -1</clus>
<clus scale="   20.578">  2  5  1 -1</clus>
</clustering>
</event>
<event>
 9    1  0.1399746E-005  0.9622471E+02  0.7546771E-02  0.1290552E+00
         21   -1    0    0  501  502  0.00000000000E+00  0.00000000000E+00  0.48431325025E+03  0.48431325025E+03  0.00000000000E+00 0. -1.
         -1   -1    0    0    0  501 -0.00000000000E+00 -0.00000000000E+00 -0.27749068665E+02  0.27749068665E+02  0.00000000000E+00 0.  1.
         23    2    1    2    0    0 -0.28921161089E+01  0.15411259788E+01  0.21299133668E+03  0.23176124342E+03  0.91308406214E+02 0.  0.
         23    2    1    2    0    0  0.25830628985E+02 -0.91014403320E+01  0.23446059977E+03  0.25448699528E+03  0.95088381571E+02 0.  0.
        -11    1    4    4    0    0  0.50515866950E+02  0.13847831439E+02  0.19809865201E+03  0.20490654254E+03  0.00000000000E+00 0. -1.
         11    1    4    4    0    0 -0.24685237966E+02 -0.22949271771E+02  0.36361947767E+02  0.49580452737E+02  0.00000000000E+00 0.  1.
        -11    1    3    3    0    0  0.35192152870E+02 -0.25654621175E+02  0.85505212845E+02  0.95957222943E+02  0.00000000000E+00 0. -1.
         11    1    3    3    0    0 -0.38084268978E+02  0.27195747154E+02  0.12748612383E+03  0.13580402047E+03  0.00000000000E+00 0.  1.
         -1    1    1    2    0  502 -0.22938512876E+02  0.75603143533E+01  0.91122451307E+01  0.25814080216E+02  0.00000000000E+00 0.  1.
<scales pt_clust_5="13000.00000" pt_clust_6="13000.00000" pt_clust_7="13000.00000" pt_clust_8="13000.00000" pt_clust_9="24.15231"></scales>
<clustering>
<clus scale="   24.152">  1  9  2 -1</clus>
<clus scale="   91.308">  7  8 -1 -1</clus>
<clus scale="   92.491">  2  7  1 -1</clus>
<clus scale="   95.088">  5  6 -1 -1</clus>
<clus scale="   24.152">  1  5  2 -1</clus>
</clustering>
</event>
<event>
 9    1  0.1399746E-005  0.9954843E+02  0.7546771E-02  0.1281262E+00
          2   -1    0    0  502    0 -0.00000000000E+00  0.00000000000E+00  0.36707658377E+03  0.36707658377E+03  0.00000000000E+00 0. -1.
         21   -1    0    0  501  502  0.00000000000E+00 -0.00000000000E+00 -0.18262768481E+03  0.18262768481E+03  0.00000000000E+00 0. -1.
         23    2    1    2    0    0 -0.88170506010E+01 -0.26410751011E+02  0.15892922942E+03  0.18532169560E+03  0.91161191009E+02 0.  0.
         23    2    1    2    0    0 -0.44253045565E+01  0.54768900464E+02  0.17871453804E+03  0.20802333167E+03  0.91189937128E+02 0.  0.
        -11    1    3    3    0    0  0.19647688577E+02  0.15704104723E+02  0.11627513982E+03  0.11896452711E+03  0.00000000000E+00 0. -1.
         11    1    3    3    0    0 -0.28464739178E+02 -0.42114855734E+02  0.42654089602E+02  0.66357168488E+02  0.00000000000E+00 0.  1.
        -13    1    4    4    0    0  0.42027307275E+02  0.13055864336E+02  0.71720136107E+02  0.84145873776E+02  0.00000000000E+00 0.  1.
         13    1    4    4    0    0 -0.46452611832E+02  0.41713036129E+02  0.10699440193E+03  0.12387745789E+03  0.00000000000E+00 0. -1.
          2    1    1    2  501    0  0.13242355158E+02 -0.28358149453E+02 -0.15319486849E+03  0.15635924131E+03  0.00000000000E+00 0. -1.
<scales pt_clust_5="13000.00000" pt_clust_6="13000.00000" pt_clust_7="13000.00000" pt_clust_8="13000.00000" pt_clust_9="31.29768"></scales>
<clustering>
<clus scale="   31.298">  2  9  1 -1</clus>
<clus scale="   91.161">  5  6 -1 -1</clus>
<clus scale="   91.190">  7  8 -1 -1</clus>
<clus scale="   99.522">  1  5  2 -1</clus>
<clus scale="   31.298">  2  5  1 -1</clus>
</clustering>
</event>
<event>
 9    1  0.1399746E-005  0.2536262E+03  0.7546771E-02  0.1111186E+00
         21   -1    0    0  501  502  0.00000000000E+00  0.00000000000E+00  0.23243148435E+03  0.23243148435E+03  0.00000000000E+00 0. -1.
          1   -1    0    0  502    0 -0.00000000000E+00 -0.00000000000E+00 -0.68768897167E+03  0.68768897167E+03  0.00000000000E+00 0. -1.
         23    2    1    2    0    0 -0.13856020272E+03  0.12860718673E+03 -0.19697173594E+03  0.28772173863E+03  0.90814073057E+02 0.  0.
         23    2    1    2    0    0  0.17611054206E+03 -0.24092522633E+03 -0.35958644087E+03  0.47655520711E+03  0.93501707241E+02 0.  0.
        -13    1    4    4    0    0  0.15845032324E+03 -0.14438094191E+03 -0.23821590807E+03  0.32046712808E+03  0.00000000000E+00 0. -1.
         13    1    4    4    0    0  0.17660218825E+02 -0.96544284425E+02 -0.12137053280E+03  0.15608807903E+03  0.00000000000E+00 0.  1.
        -13    1    3    3    0    0 -0.10752216524E+02  0.66719951751E+02 -0.58574497137E+02  0.89432286322E+02  0.00000000000E+00 0.  1.
         13    1    3    3    0    0 -0.12780798619E+03  0.61887234977E+02 -0.13839723880E+03  0.19828945231E+03  0.00000000000E+00 0. -1.
          1    1    1    2  501    0 -0.37550339342E+02  0.11231803960E+03  0.10130068949E+03  0.15584351028E+03  0.00000000000E+00 0. -1.
<scales pt_clust_5="13000.00000" pt_clust_6="13000.00000" pt_clust_7="13000.00000" pt_clust_8="13000.00000" pt_clust_9="118.42875"></scales>
<clustering>
<clus scale="   90.814">  7  8 -1 -1</clus>
<clus scale="   93.502">  5  6 -1 -1</clus>
<clus scale="  118.429">  1  9  2 -1</clus>
<clus scale="  252.648">  2  7  1 -1</clus>
<clus scale="  118.429">  1  5  2 -1</clus>
</clustering>
</event>
<event>
 9    1  0.1399746E-005  0.1208188E+03  0.7546771E-02  0.1241906E+00
          1   -1    0    0  502    0 -0.00000000000E+00  0.00000000000E+00  0.33805370475E+03  0.33805370475E+03  0.00000000000E+00 0. -1.
         21   -1    0    0  501  502  0.00000000000E+00 -0.00000000000E+00 -0.73298662471E+02  0.73298662471E+02  0.00000000000E+00 0.  1.
         23    2    1    2    0    0 -0.49797095862E+01  0.87951260055E+02  0.20841792553E+03  0.24369113005E+03  0.90482669769E+02 0.  0.
         23    2    1    2    0    0 -0.28533558280E+01 -0.65303993591E+02  0.77066020571E+02  0.13597617688E+03  0.90981294422E+02 0.  0.
        -11    1    4    4    0    0  0.35355505241E+02 -0.21217009601E+02  0.64093293646E+02  0.76211046034E+02  0.00000000000E+00 0. -1.
         11    1    4    4    0    0 -0.38208861069E+02 -0.44086983990E+02  0.12972726926E+02  0.59765130850E+02  0.00000000000E+00 0.  1.
        -13    1    3    3    0    0 -0.24799311806E+02  0.76146259468E+02  0.79920958500E+02  0.11313981750E+03  0.00000000000E+00 0.  1.
         13    1    3    3    0    0  0.19819602220E+02  0.11805000586E+02  0.12849696703E+03  0.13055131254E+03  0.00000000000E+00 0. -1.
          1    1    1    2  501    0  0.78330654142E+01 -0.22647266464E+02 -0.20728903821E+02  0.31685060292E+02  0.00000000000E+00 0. -1.
<scales pt_clust_5="13000.00000" pt_clust_6="13000.00000" pt_clust_7="13000.00000" pt_clust_8="13000.00000" pt_clust_9="23.96363"></scales>
<clustering>
<clus scale="   23.964">  2  9  1 -1</clus>
<clus scale="   90.483">  7  8 -1 -1</clus>
<clus scale="   90.981">  5  6 -1 -1</clus>
<clus scale="  120.444">  1  7  2 -1</clus>
<clus scale="   23.964">  2  5  1 -1</clus>
</clustering>
</event>
<event>
 9    1  0.1399746E-005  0.1674505E+03  0.7546771E-02  0.1188617E+00
          1   -1    0    0  502    0 -0.00000000000E+00  0.00000000000E+00  0.10040606239E+03  0.10040606239E+03  0.00000000000E+00 0. -1.
         21   -1    0    0  501  502  0.00000000000E+00 -0.00000000000E+00 -0.38115221959E+03  0.38115221959E+03  0.00000000000E+00 0.  1.
         23    2    1    2    0    0 -0.96613027008E+02 -0.87123997213E+02 -0.67362938225E+02  0.19247260492E+03  0.12483296969E+03 0.  0.
         23    2    1    2    0    0  0.84303117515E+02  0.26672702981E+02 -0.18379131901E+03  0.22066365289E+03  0.84230339296E+02 0.  0.
        -11    1    4    4    0    0  0.41970979206E+02  0.55658915152E+02 -0.90983287008E+02  0.11461865662E+03  0.00000000000E+00 0.  1.
         11    1    4    4    0    0  0.42332138310E+02 -0.28986212171E+02 -0.92808032000E+02  0.10604499627E+03  0.00000000000E+00 0. -1.
        -11    1    3    3    0    0 -0.35740783513E+02 -0.97183097054E+02 -0.34000958784E+01  0.10360269596E+03  0.00000000000E+00 0.  1.
         11    1    3    3    0    0 -0.60872243494E+02  0.10059099840E+02 -0.63962842346E+02  0.88869908961E+02  0.00000000000E+00 0. -1.
          1    1    1    2  501    0  0.12309909492E+02  0.60451294232E+02 -0.29591899973E+02  0.68422024159E+02  0.00000000000E+00 0. -1.
<scales pt_clust_5="13000.00000" pt_clust_6="13000.00000" pt_clust_7="13000.00000" pt_clust_8="13000.00000" pt_clust_9="61.69195"></scales>
<clustering>
<clus scale="   61.692">  2  9  1 -1</clus>
<clus scale="   84.230">  5  6 -1 -1</clus>
<clus scale="  124.833">  7  8 -1 -1</clus>
<clus scale="  139.825">  2  5  1 -1</clus>
<clus scale="   61.692">  2  5  1 -1</clus>
</clustering>
</event>
<event>
 9    1  0.1399746E-005  0.9823140E+02  0.7546771E-02  0.1285112E+00
         21   -1    0    0  501  502  0.00000000000E+00  0.00000000000E+00  0.89360585184E+02  0.89360585184E+02  0.00000000000E+00 0.  1.
          1   -1    0    0  502    0 -0.00000000000E+00 -0.00000000000E+00 -0.40291744203E+03  0.40291744203E+03  0.00000000000E+00 0. -1.
         23    2    1    2    0    0  0.25313476458E+02  0.98378566646E+01 -0.29244976334E+03  0.30867689012E+03  0.94957900716E+02 0.  0.
         23    2    1    2    0    0  0.10012820443E+02 -0.47132900179E+02 -0.58617084697E+02  0.11999400729E+03  0.92956077336E+02 0.  0.
        -11    1    3    3    0    0  0.14264240580E+02 -0.41385322399E+02 -0.98813424776E+02  0.10807546616E+03  0.00000000000E+00 0. -1.
         11    1    3    3    0    0  0.11049235878E+02  0.51223179064E+02 -0.19363633856E+03  0.20060142397E+03  0.00000000000E+00 0.  1.
        -11    1    4    4    0    0  0.49514631437E+02 -0.39897023296E+02 -0.27926914005E+02  0.69450584735E+02  0.00000000000E+00 0.  1.
         11    1    4    4    0    0 -0.39501810994E+02 -0.72358768827E+01 -0.30690170692E+02  0.50543422551E+02  0.00000000000E+00 0. -1.
          1    1    1    2  501    0 -0.35326296901E+02  0.37295043514E+02  0.37509991183E+02  0.63607129805E+02  0.00000000000E+00 0. -1.
<scales pt_clust_5="13000.00000" pt_clust_6="13000.00000" pt_clust_7="13000.00000" pt_clust_8="13000.00000" pt_clust_9="51.36991"></scales>
<clustering>
<clus scale="   51.370">  1  9  2 -1</clus>
<clus scale="   92.956">  7  8 -1 -1</clus>
<clus scale="   94.958">  5  6 -1 -1</clus>
<clus scale="   96.298">  1  7  2 -1</clus>
<clus scale="   51.370">  1  5  2 -1</clus>
</clustering>
</event>
<event>
 9    1  0.1399746E-005  0.1165367E+03  0.7546771E-02  0.1249832E+00
         -1   -1    0    0    0  501 -0.00000000000E+00  0.00000000000E+00  0.63113176283E+03  0.63113176283E+03  0.00000000000E+00 0.  1.
         21   -1    0    0  501  502  0.00000000000E+00 -0.00000000000E+00 -0.33956145212E+02  0.33956145212E+02  0.00000000000E+00 0.  1.
         23    2    1    2    0    0 -0.45919587946E+02  0.61407424560E+02  0.37170556453E+03  0.38991208146E+03  0.89369593355E+02 0.  0.
         23    2    1    2    0    0  0.65098208530E+01 -0.68703579928E+02  0.18742013982E+03  0.21991137576E+03  0.92044254111E+02 0.  0.
        -11    1    3    3    0    0 -0.22524964194E+02 -0.80925974793E+01  0.21700883760E+02  0.32307777730E+02  0.00000000000E+00 0. -1.
         11    1    3    3    0    0 -0.23394623751E+02  0.69500022039E+02  0.35000468077E+03  0.35760430372E+03  0.00000000000E+00 0.  1.
        -13    1    4    4    0    0 -0.18347041613E+02 -0.35717994934E+02  0.17068899010E+03  0.17534856839E+03  0.00000000000E+00 0.  1.
         13    1    4    4    0    0  0.24856862466E+02 -0.32985584994E+02  0.16731149726E+02  0.44562807365E+02  0.00000000000E+00 0. -1.
         -1    1    1    2    0  502  0.39409767093E+02  0.72961553682E+01  0.38049913267E+02  0.55264450826E+02  0.00000000000E+00 0.  1.
<scales pt_clust_5="13000.00000" pt_clust_6="13000.00000" pt_clust_7="13000.00000" pt_clust_8="13000.00000" pt_clust_9="40.07947"></scales>
<clustering>
<clus scale="   40.079">  2  9  1 -1</clus>
<clus scale="   89.370">  5  6 -1 -1</clus>
<clus scale="   92.044">  7  8 -1 -1</clus>
<clus scale="  114.436">  1  5  2 -1</clus>
<clus scale="   40.079">  2  5  1 -1</clus>
</clustering>
</event>
<event>
 9    1  0.1399746E-005  0.1386552E+03  0.7546771E-02  0.1215207E+00
         21   -1    0    0  501  502  0.00000000000E+00  0.00000000000E+00  0.33740589720E+03  0.33740589720E+03  0.00000000000E+00 0.  1.
          2   -1    0    0  502    0 -0.00000000000E+00 -0.00000000000E+00 -0.13589803959E+03  0.13589803959E+03  0.00000000000E+00 0. -1.
         23    2    1    2    0    0  0.10092204148E+03 -0.76350935097E+01 -0.68761081468E+02  0.15311458972E+03  0.92045848104E+02 0.  0.
         23    2    1    2    0    0 -0.11886770073E+03 -0.28367454620E+01  0.22714373344E+03  0.27231984259E+03  0.91794572963E+02 0.  0.
        -11    1    4    4    0    0 -0.82974396088E+02  0.14356756715E+02  0.67883483332E+02  0.10816207366E+03  0.00000000000E+00 0. -1.
         11    1    4    4    0    0 -0.35893304643E+02 -0.17193502177E+02  0.15926025010E+03  0.16415776893E+03  0.00000000000E+00 0.  1.
        -13    1    3    3    0    0 -0.80649706452E+01 -0.23950142902E+02 -0.21604268622E+02  0.33247518993E+02  0.00000000000E+00 0.  1.
         13    1    3    3    0    0  0.10898701212E+03  0.16315049392E+02 -0.47156812846E+02  0.11986707073E+03  0.00000000000E+00 0. -1.
          2    1    1    2  501    0  0.17945659256E+02  0.10471838972E+02  0.43125205643E+02  0.47869504481E+02  0.00000000000E+00 0. -1.
<scales pt_clust_5="13000.00000" pt_clust_6="13000.00000" pt_clust_7="13000.00000" pt_clust_8="13000.00000" pt_clust_9="20.77754"></scales>
<clustering>
<clus scale="   20.778">  1  9  2 -1</clus>
<clus scale="   91.795">  5  6 -1 -1</clus>
<clus scale="   92.046">  7  8 -1 -1</clus>
<clus scale="  138.489">  1  5  2 -1</clus>
<clus scale="   20.778">  1  5  2 -1</clus>
</clustering>
</event>
<event>
 9    1  0.1399746E-005  0.1041553E+03  0.7546771E-02  0.1271842E+00
         21   -1    0    0  501  502  0.00000000000E+00  0.00000000000E+00  0.75967547637E+02  0.75967547637E+02  0.00000000000E+00 0.  1.
          2   -1    0    0  502    0 -0.00000000000E+00 -0.00000000000E+00 -0.23057823843E+03  0.23057823843E+03  0.00000000000E+00 0. -1.
         23    2    1    2    0    0 -0.39732110177E+02  0.14276576468E+02 -0.12020167074E+03  0.15785968576E+03  0.93213612332E+02 0.  0.
         23    2    1    2    0    0  0.58359841587E+02  0.10105729430E+02 -0.39904299568E+02  0.11751420086E+03  0.93323295068E+02 0.  0.
        -13    1    3    3    0    0 -0.53438319359E+02 -0.23792943048E+02 -0.90123293629E+02  0.10744285071E+03  0.00000000000E+00 0. -1.
         13    1    3    3    0    0  0.13706209183E+02  0.38069519515E+02 -0.30078377114E+02  0.50416835046E+02  0.00000000000E+00 0.  1.
        -13    1    4    4    0    0 -0.25040352625E+02 -0.56151536385E+01 -0.94040288166E+01  0.27331025739E+02  0.00000000000E+00 0. -1.
         13    1    4    4    0    0  0.83400194212E+02  0.15720883068E+02 -0.30500270752E+02  0.90183175121E+02  0.00000000000E+00 0.  1.
          2    1    1    2  501    0 -0.18627731411E+02 -0.24382305897E+02  0.54952795155E+01  0.31171899450E+02  0.00000000000E+00 0. -1.
<scales pt_clust_5="13000.00000" pt_clust_6="13000.00000" pt_clust_7="13000.00000" pt_clust_8="13000.00000" pt_clust_9="30.68370"></scales>
<clustering>
<clus scale="   30.684">  1  9  2 -1</clus>
<clus scale="   93.214">  5  6 -1 -1</clus>
<clus scale="   93.323">  7  8 -1 -1</clus>
<clus scale="  104.057">  2  5  1 -1</clus>
<clus scale="   30.684">  1  5  2 -1</clus>
</clustering>
</event>
<event>
 9    1  0.1399746E-005  0.1464369E+03  0.7546771E-02  0.1226673E+00
         -1   -1    0    0    0  501 -0.00000000000E+00  0.00000000000E+00  0.95080346841E+03  0.95080346841E+03  0.00000000000E+00 0.  1.
         21   -1    0    0  501  502  0.00000000000E+00 -0.00000000000E+00 -0.72643670933E+02  0.72643670933E+02  0.00000000000E+00 0. -1.
         23    2    1    2    0    0 -0.63994992449E+01 -0.30047789027E+01 -0.12460677413E+02  0.93279810703E+02  0.92173056347E+02 0.  0.
         23    2    1    2    0    0  0.31041623549E+02  0.10595665695E+03  0.65728781927E+03  0.67394388775E+03  0.99913417154E+02 0.  0.
        -11    1    3    3    0    0 -0.28617775742E+01 -0.44104487165E+02  0.11374212677E+02  0.45637356113E+02  0.00000000000E+00 0.  1.
         11    1    3    3    0    0 -0.35377216707E+01  0.41099708262E+02 -0.23834890090E+02  0.47642454591E+02  0.00000000000E+00 0. -1.
        -13    1    4    4    0    0 -0.27297505897E+02 -0.52948658346E+00  0.10820458178E+03  0.11159599322E+03  0.00000000000E+00 0.  1.
         13    1    4    4    0    0  0.58339129446E+02  0.10648614353E+03  0.54908323749E+03  0.56234789453E+03  0.00000000000E+00 0. -1.
         -1    1    1    2    0  502 -0.24642124304E+02 -0.10295187805E+03  0.23333265562E+03  0.25622344089E+03  0.00000000000E+00 0.  1.
<scales pt_clust_5="13000.00000" pt_clust_6="13000.00000" pt_clust_7="13000.00000" pt_clust_8="13000.00000" pt_clust_9="107.05646"></scales>
<clustering>
<clus scale="   92.173">  5  6 -1 -1</clus>
<clus scale="   92.444">  1  5  2 -1</clus>
<clus scale="   99.913">  7  8 -1 -1</clus>
<clus scale="  107.056">  2  9  1 -1</clus>
<clus scale="  107.056">  2  5  1 -1</clus>
</clustering>
</event>
<event>
 9    1  0.1399746E-005  0.2110948E+03  0.7546771E-02  0.1141091E+00
         21   -1    0    0  501  502  0.00000000000E+00  0.00000000000E+00  0.15647360559E+03  0.15647360559E+03  0.00000000000E+00 0.  1.
         -1   -1    0    0    0  501 -0.00000000000E+00 -0.00000000000E+00 -0.56914002092E+03  0.56914002092E+03  0.00000000000E+00 0.  1.
         23    2    1    2    0    0  0.13985856981E+02 -0.19598569505E+03 -0.44188874164E+03  0.49180137639E+03  0.89425594594E+02 0.  0.
         23    2    1    2    0    0 -0.57911402342E+01  0.15392656796E+03  0.48503695783E+02  0.18682400943E+03  0.93934425875E+02 0.  0.
        -13    1    3    3    0    0  0.44214642952E+02 -0.69002797636E+02 -0.12969743154E+03  0.15342015670E+03  0.00000000000E+00 0.  1.
         13    1    3    3    0    0 -0.30228785971E+02 -0.12698289742E+03 -0.31219131010E+03  0.33838121970E+03  0.00000000000E+00 0. -1.
        -13    1    4    4    0    0 -0.22099985017E+02  0.84861064712E+01  0.31622012531E+02  0.39501582466E+02  0.00000000000E+00 0.  1.
         13    1    4    4    0    0  0.16308844783E+02  0.14544046149E+03  0.16881683252E+02  0.14732242696E+03  0.00000000000E+00 0. -1.
         -1    1    1    2    0  502 -0.81947167472E+01  0.42059127095E+02 -0.19281369470E+02  0.46988240690E+02  0.00000000000E+00 0.  1.
<scales pt_clust_5="13000.00000" pt_clust_6="13000.00000" pt_clust_7="13000.00000" pt_clust_8="13000.00000" pt_clust_9="42.85001"></scales>
<clustering>
<clus scale="   42.850">  1  9  2 -1</clus>
<clus scale="   89.426">  5  6 -1 -1</clus>
<clus scale="   93.934">  7  8 -1 -1</clus>
<clus scale="  209.127">  2  5  1 -1</clus>
<clus scale="   42.850">  1  5  2 -1</clus>
</clustering>
</event>
<event>
 9    1  0.1399746E-005  0.1595054E+03  0.7546771E-02  0.1189890E+00
         -1   -1    0    0    0  501 -0.00000000000E+00  0.00000000000E+00  0.95174881796E+03  0.95174881796E+03  0.00000000000E+00 0.  1.
         21   -1    0    0  501  502  0.00000000000E+00 -0.00000000000E+00 -0.40457066020E+02  0.40457066020E+02  0.00000000000E+00 0.  1.
         23    2    1    2    0    0 -0.10280588300E+03  0.88321877238E+02  0.55963416775E+03  0.58217913134E+03  0.85862306462E+02 0.  0.
         23    2    1    2    0    0  0.11402002990E+03 -0.58756944759E+02  0.34327461520E+03  0.37731411758E+03  0.89863986705E+02 0.  0.
        -11    1    4    4    0    0  0.83361644795E+02  0.72243162532E+01  0.17443301083E+03  0.19346376879E+03  0.00000000000E+00 0.  1.
         11    1    4    4    0    0  0.30658385108E+02 -0.65981261013E+02  0.16884160438E+03  0.18385034879E+03  0.00000000000E+00 0. -1.
        -13    1    3    3    0    0 -0.92334033906E+02  0.10545881406E+03  0.49844223900E+03  0.51777582109E+03  0.00000000000E+00 0.  1.
         13    1    3    3    0    0 -0.10471849091E+02 -0.17136936823E+02  0.61191928751E+02  0.64403310251E+02  0.00000000000E+00 0. -1.
         -1    1    1    2    0  502 -0.11214146907E+02 -0.29564932479E+02  0.83829689773E+01  0.32712635054E+02  0.00000000000E+00 0.  1.
<scales pt_clust_5="13000.00000" pt_clust_6="13000.00000" pt_clust_7="13000.00000" pt_clust_8="13000.00000" pt_clust_9="31.62028"></scales>
<clustering>
<clus scale="   31.620">  2  9  1 -1</clus>
<clus scale="   85.862">  7  8 -1 -1</clus>
<clus scale="   89.864">  5  6 -1 -1</clus>
<clus scale="  157.286">  1  7  2 -1</clus>
<clus scale="   31.620">  2  5  1 -1</clus>
</clustering>
</event>
<event>
 9    1  0.1399746E-005  0.1049826E+03  0.7546771E-02  0.1270427E+00
         21   -1    0    0  501  502  0.00000000000E+00  0.00000000000E+00  0.27691373643E+02  0.27691373643E+02  0.00000000000E+00 0. -1.
         -4   -1    0    0    0  501 -0.00000000000E+00 -0.00000000000E+00 -0.78682743320E+03  0.78682743320E+03  0.00000000000E+00 0.  1.
         23    2    1    2    0    0  0.38335308292E+02 -0.12660099629E+02 -0.47765274888E+03  0.48814792262E+03  0.92229994356E+02 0.  0.
         23    2    1    2    0    0 -0.71319047006E+02  0.18044235778E+02 -0.26330575593E+03  0.28832696962E+03  0.91599778346E+02 0.  0.
        -11    1    3    3    0    0  0.49092848005E+02  0.28785730434E+02 -0.23881590982E+03  0.24550308509E+03  0.00000000000E+00 0. -1.
         11    1    3    3    0    0 -0.10757539713E+02 -0.41445830063E+02 -0.23883683906E+03  0.24264483754E+03  0.00000000000E+00 0.  1.
        -13    1    4    4    0    0  0.21710655985E+02 -0.25468032257E+01 -0.58214875593E+02  0.62183683795E+02  0.00000000000E+00 0.  1.
         13    1    4    4    0    0 -0.93029702991E+02  0.20591039003E+02 -0.20509088034E+03  0.22614328583E+03  0.00000000000E+00 0. -1.
         -4    1    1    2    0  502  0.32983738714E+02 -0.53841361486E+01 -0.18177554735E+02  0.38043914596E+02  0.00000000000E+00 0.  1.
<scales pt_clust_5="13000.00000" pt_clust_6="13000.00000" pt_clust_7="13000.00000" pt_clust_8="13000.00000" pt_clust_9="33.42029"></scales>
<clustering>
<clus scale="   33.420">  1  9  2 -1</clus>
<clus scale="   91.600">  7  8 -1 -1</clus>
<clus scale="   92.230">  5  6 -1 -1</clus>
<clus scale="  104.429">  1  7  2 -1</clus>
<clus scale="   33.420">  1  5  2 -1</clus>
</clustering>
</event>
<event>
 9    1  0.1399746E-005  0.9664495E+02  0.7546771E-02  0.1290714E+00
          1   -1    0    0  502    0 -0.00000000000E+00  0.00000000000E+00  0.36501214485E+03  0.36501214485E+03  0.00000000000E+00 0. -1.
         21   -1    0    0  501  502  0.00000000000E+00 -0.00000000000E+00 -0.39735433880E+02  0.39735433880E+02  0.00000000000E+00 0. -1.
         23    2    1    2    0    0 -0.28099745093E+00  0.38490767507E+01  0.17331361754E+03  0.19830417578E+03  0.96291441747E+02 0.  0.
         23    2    1    2    0    0 -0.15185521034E+02  0.10961914938E+02  0.15893721079E+03  0.18392192472E+03  0.90639250830E+02 0.  0.
        -11    1    3    3    0    0  0.12936773988E+02 -0.25426682142E+02  0.76239858322E+01  0.29529670603E+02  0.00000000000E+00 0.  1.
         11    1    3    3    0    0 -0.13217771439E+02  0.29275758893E+02  0.16568963171E+03  0.16877450517E+03  0.00000000000E+00 0. -1.
        -13    1    4    4    0    0  0.21631539263E+02 -0.25974098446E+02  0.98265848748E+02  0.10391705496E+03  0.00000000000E+00 0.  1.
         13    1    4    4    0    0 -0.36817060297E+02  0.36936013385E+02  0.60671362039E+02  0.80004869760E+02  0.00000000000E+00 0. -1.
          1    1    1    2  501    0  0.15466518485E+02 -0.14810991689E+02 -0.69741173602E+01  0.22521478233E+02  0.00000000000E+00 0. -1.
<scales pt_clust_5="13000.00000" pt_clust_6="13000.00000" pt_clust_7="13000.00000" pt_clust_8="13000.00000" pt_clust_9="21.41445"></scales>
<clustering>
<clus scale="   21.414">  2  9  1 -1</clus>
<clus scale="   90.639">  7  8 -1 -1</clus>
<clus scale="   91.015">  2  7  1 -1</clus>
<clus scale="   96.291">  5  6 -1 -1</clus>
<clus scale="   21.414">  2  5  1 -1</clus>
</clustering>
</event>
<event>
 9    1  0.4204456E-005  0.9365615E+02  0.7546771E-02  0.1295739E+00
          1   -1    0    0  502    0 -0.00000000000E+00  0.00000000000E+00  0.27928516965E+03  0.27928516965E+03  0.00000000000E+00 0. -1.
         21   -1    0    0  501  502  0.00000000000E+00 -0.00000000000E+00 -0.16508291680E+03  0.16508291680E+03  0.00000000000E+00 0.  1.
         23    2    1    2    0    0 -0.21942655707E+02  0.90922241902E+01  0.24210430879E+03  0.25938520271E+03  0.90011323547E+02 0.  0.
         23    2    1    2    0    0  0.47759884136E+02 -0.24916534892E+02 -0.90057415105E+02  0.13651480216E+03  0.87316166598E+02 0.  0.
        -11    1    4    4    0    0  0.71639873658E+02 -0.61933660337E+01 -0.58101964797E+02  0.92447107007E+02  0.00000000000E+00 0.  1.
         11    1    4    4    0    0 -0.23879989522E+02 -0.18723168858E+02 -0.31955450308E+02  0.44067695152E+02  0.00000000000E+00 0. -1.
        -13    1    3    3    0    0  0.29676866419E+02 -0.26324585871E+01  0.36705993348E+02  0.47275534755E+02  0.00000000000E+00 0.  1.
         13    1    3    3    0    0 -0.51619522127E+02  0.11724682777E+02  0.20539831545E+03  0.21210966795E+03  0.00000000000E+00 0. -1.
          1    1    1    2  501    0 -0.25817228429E+02  0.15824310702E+02 -0.37844640839E+02  0.48468081592E+02  0.00000000000E+00 0. -1.
<scales pt_clust_5="13000.00000" pt_clust_6="13000.00000" pt_clust_7="13000.00000" pt_clust_8="13000.00000" pt_clust_9="30.28099"></scales>
<clustering>
<clus scale="   30.281">  2  9  1 -1</clus>
<clus scale="   87.316">  5  6 -1 -1</clus>
<clus scale="   90.011">  7  8 -1 -1</clus>
<clus scale="   91.069">  2  5  1 -1</clus>
<clus scale="   30.281">  2  5  1 -1</clus>
</clustering>
</event>
<event>
 9    1  0.1399746E-005  0.1173669E+03  0.7546771E-02  0.1248039E+00
         21   -1    0    0  501  502  0.00000000000E+00  0.00000000000E+00  0.21208330343E+03  0.21208330343E+03  0.00000000000E+00 0.  1.
         -3   -1    0    0    0  501 -0.00000000000E+00 -0.00000000000E+00 -0.35464795228E+03  0.35464795228E+03  0.00000000000E+00 0.  1.
         23    2    1    2    0    0 -0.20651007355E+02  0.60988595594E+02 -0.30412054599E+03  0.32602019874E+03  0.98253705244E+02 0.  0.
         23    2    1    2    0    0 -0.69494077984E+00 -0.65923174805E+02  0.50491109398E+02  0.12750599237E+03  0.96757831945E+02 0.  0.
        -11    1    3    3    0    0  0.20831152851E+02  0.40867316467E+02 -0.25322950990E+03  0.25735045982E+03  0.00000000000E+00 0.  1.
         11    1    3    3    0    0 -0.41482160205E+02  0.20121279127E+02 -0.50891036093E+02  0.68669738922E+02  0.00000000000E+00 0. -1.
        -13    1    4    4    0    0  0.22471424239E+02 -0.83876648332E+02  0.30529581145E+02  0.92045164825E+02  0.00000000000E+00 0. -1.
         13    1    4    4    0    0 -0.23166365019E+02  0.17953473527E+02  0.19961528253E+02  0.35460827544E+02  0.00000000000E+00 0.  1.
         -3    1    1    2    0  502  0.21345948134E+02  0.49345792113E+01  0.11106478775E+03  0.11320506460E+03  0.00000000000E+00 0.  1.
<scales pt_clust_5="13000.00000" pt_clust_6="13000.00000" pt_clust_7="13000.00000" pt_clust_8="13000.00000" pt_clust_9="21.90889"></scales>
<clustering>
<clus scale="   21.909">  1  9  2 -1</clus>
<clus scale="   96.758">  7  8 -1 -1</clus>
<clus scale="   98.254">  5  6 -1 -1</clus>
<clus scale="  116.117">  1  7  2 -1</clus>
<clus scale="   21.909">  1  5  2 -1</clus>
</clustering>
</event>
<event>
 9    1  0.1399746E-005  0.2358919E+03  0.7546771E-02  0.1123184E+00
          3   -1    0    0  502    0 -0.00000000000E+00  0.00000000000E+00  0.22263114585E+03  0.22263114585E+03  0.00000000000E+00 0. -1.
         21   -1    0    0  501  502  0.00000000000E+00 -0.00000000000E+00 -0.65409533741E+03  0.65409533741E+03  0.00000000000E+00 0.  1.
         23    2    1    2    0    0  0.20720128624E+03 -0.38519372918E+02  0.10215341309E+03  0.25139318785E+03  0.91362464853E+02 0.  0.
         23    2    1    2    0    0 -0.23474561064E+03  0.19745131226E+02 -0.53377930065E+03  0.59199880721E+03  0.10023409603E+03 0.  0.
        -13    1    3    3    0    0  0.31282091090E+02 -0.62621093537E+01  0.59518587803E+02  0.67529590037E+02  0.00000000000E+00 0.  1.
         13    1    3    3    0    0  0.17591919515E+03 -0.32257263564E+02  0.42634825282E+02  0.18386359781E+03  0.00000000000E+00 0. -1.
        -13    1    4    4    0    0 -0.20005845218E+03 -0.78578749009E+01 -0.35262144848E+03  0.40549601282E+03  0.00000000000E+00 0.  1.
         13    1    4    4    0    0 -0.34687158461E+02  0.27603006127E+02 -0.18115785217E+03  0.18650279438E+03  0.00000000000E+00 0. -1.
          3    1    1    2  501    0  0.27544324409E+02  0.18774241691E+02  0.16169600975E+00  0.33334488204E+02  0.00000000000E+00 0. -1.
<scales pt_clust_5="13000.00000" pt_clust_6="13000.00000" pt_clust_7="13000.00000" pt_clust_8="13000.00000" pt_clust_9="33.33411"></scales>
<clustering>
<clus scale="   33.334">  2  9  1 -1</clus>
<clus scale="   91.362">  5  6 -1 -1</clus>
<clus scale="  100.234">  7  8 -1 -1</clus>
<clus scale="  232.261">  1  5  2 -1</clus>
<clus scale="   33.334">  2  5  1 -1</clus>
</clustering>
</event>
<event>
 9    1  0.1399746E-005  0.1452829E+03  0.7546771E-02  0.1207415E+00
         21   -1    0    0  501  502  0.00000000000E+00  0.00000000000E+00  0.23366953873E+02  0.23366953873E+02  0.00000000000E+00 0.  1.
          1   -1    0    0  502    0 -0.00000000000E+00 -0.00000000000E+00 -0.11309954567E+04  0.11309954567E+04  0.00000000000E+00 0. -1.
         23    2    1    2    0    0  0.19471354787E+02  0.11818155086E+03 -0.70120275050E+03  0.71756174895E+03  0.94146447763E+02 0.  0.
         23    2    1    2    0    0 -0.15787135357E+01 -0.97819725254E+02 -0.34996705727E+03  0.37417211541E+03  0.89199998821E+02 0.  0.
        -11    1    4    4    0    0  0.23962759052E+02 -0.56772338539E+01 -0.23682281367E+02  0.34165702925E+02  0.00000000000E+00 0.  1.
         11    1    4    4    0    0 -0.25541472588E+02 -0.92142491400E+02 -0.32628477591E+03  0.34000641249E+03  0.00000000000E+00 0. -1.
        -11    1    3    3    0    0 -0.29313108093E+02  0.34613981634E+02 -0.11859925336E+03  0.12697704095E+03  0.00000000000E+00 0.  1.
         11    1    3    3    0    0  0.48784462879E+02  0.83567569226E+02 -0.58260349714E+03  0.59058470800E+03  0.00000000000E+00 0. -1.
          1    1    1    2  501    0 -0.17892641251E+02 -0.20361825606E+02 -0.56458695010E+02  0.62628546168E+02  0.00000000000E+00 0. -1.
<scales pt_clust_5="13000.00000" pt_clust_6="13000.00000" pt_clust_7="13000.00000" pt_clust_8="13000.00000" pt_clust_9="27.10628"></scales>
<clustering>
<clus scale="   27.106">  1  9  2 -1</clus>
<clus scale="   89.200">  5  6 -1 -1</clus>
<clus scale="   94.146">  7  8 -1 -1</clus>
<clus scale="  142.127">  1  5  2 -1</clus>
<clus scale="   27.106">  1  5  2 -1</clus>
</clustering>
</event>
<event>
 9    1  0.1399746E-005  0.1277629E+03  0.7546771E-02  0.1232069E+00
         21   -1    0    0  501  502  0.00000000000E+00  0.00000000000E+00  0.31973635359E+02  0.31973635359E+02  0.00000000000E+00 0. -1.
          2   -1    0    0  502    0 -0.00000000000E+00 -0.00000000000E+00 -0.64314268654E+03  0.64314268654E+03  0.00000000000E+00 0. -1.
         23    2    1    2    0    0  0.78220690974E+02  0.32617316315E+02 -0.32129955789E+03  0.34496743852E+03  0.92664782523E+02 0.  0.
         23    2    1    2    0    0 -0.72845775569E+02 -0.60691630011E+02 -0.23602158978E+03  0.26918452069E+03  0.88114325544E+02 0.  0.
        -11    1    3    3    0    0  0.78519518499E+02 -0.10316352166E+02 -0.16734267702E+03  0.18513593238E+03  0.00000000000E+00 0. -1.
         11    1    3    3    0    0 -0.29882752564E+00  0.42933668481E+02 -0.15395688087E+03  0.15983150614E+03  0.00000000000E+00 0.  1.
        -11    1    4    4    0    0 -0.16520098500E+02 -0.24243476666E+02 -0.64863744347E+01  0.30045513286E+02  0.00000000000E+00 0. -1.
         11    1    4    4    0    0 -0.56325677068E+02 -0.36448153346E+02 -0.22953521534E+03  0.23913900740E+03  0.00000000000E+00 0.  1.
          2    1    1    2  501    0 -0.53749154052E+01  0.28074313696E+02 -0.53847903522E+02  0.60964362695E+02  0.00000000000E+00 0. -1.
<scales pt_clust_5="13000.00000" pt_clust_6="13000.00000" pt_clust_7="13000.00000" pt_clust_8="13000.00000" pt_clust_9="28.58421"></scales>
<clustering>
<clus scale="   28.584">  1  9  2 -1</clus>
<clus scale="   88.114">  7  8 -1 -1</clus>
<clus scale="   92.665">  5  6 -1 -1</clus>
<clus scale="  124.502">  1  7  2 -1</clus>
<clus scale="   28.584">  1  5  2 -1</clus>
</clustering>
</event>
<event>
 9    1  0.1399746E-005  0.9332002E+02  0.7546771E-02  0.1296157E+00
          3   -1    0    0  502    0 -0.00000000000E+00  0.00000000000E+00  0.27114294779E+03  0.27114294779E+03  0.00000000000E+00 0. -1.
         21   -1    0    0  501  502  0.00000000000E+00 -0.00000000000E+00 -0.10046699780E+03  0.10046699780E+03  0.00000000000E+00 0. -1.
         23    2    1    2    0    0 -0.86958132942E+01  0.16469687061E+02  0.18991081890E+03  0.21104450874E+03  0.90148753597E+02 0.  0.
         23    2    1    2    0    0 -0.46201525081E+02 -0.48901067446E+01 -0.15244698049E+02  0.10431842889E+03  0.92149008262E+02 0.  0.
        -11    1    3    3    0    0 -0.32773410048E+02  0.20699609433E+02  0.18087457621E+03  0.18498157355E+03  0.00000000000E+00 0. -1.
         11    1    3    3    0    0  0.24077596753E+02 -0.42299223714E+01  0.90362426933E+01  0.26062935190E+02  0.00000000000E+00 0.  1.
        -11    1    4    4    0    0 -0.21054446284E+02 -0.32310715655E+02  0.27712095477E+02  0.47489286057E+02  0.00000000000E+00 0.  1.
         11    1    4    4    0    0 -0.25147078798E+02  0.27420608911E+02 -0.42956793526E+02  0.56829142833E+02  0.00000000000E+00 0. -1.
          3    1    1    2  501    0  0.54897338376E+02 -0.11579580317E+02 -0.39901708626E+01  0.56247007961E+02  0.00000000000E+00 0. -1.
<scales pt_clust_5="13000.00000" pt_clust_6="13000.00000" pt_clust_7="13000.00000" pt_clust_8="13000.00000" pt_clust_9="56.10530"></scales>
<clustering>
<clus scale="   56.105">  2  9  1 -1</clus>
<clus scale="   90.149">  5  6 -1 -1</clus>
<clus scale="   91.345">  1  5  2 -1</clus>
<clus scale="   92.149">  7  8 -1 -1</clus>
<clus scale="   56.105">  2  5  1 -1</clus>
</clustering>
</event>
<event>
 9    1  0.1399746E-005  0.1094988E+03  0.7546771E-02  0.1261595E+00
         21   -1    0    0  501  502  0.00000000000E+00  0.00000000000E+00  0.71815178703E+03  0.71815178703E+03  0.00000000000E+00 0.  1.
         -3   -1    0    0    0  501 -0.00000000000E+00 -0.00000000000E+00 -0.23284931481E+02  0.23284931481E+02  0.00000000000E+00 0.  1.
         23    2    1    2    0    0 -0.26821077476E+02  0.59751008456E+02  0.23298014041E+03  0.25845308364E+03  0.90712167915E+02 0.  0.
         23    2    1    2    0    0  0.41313296785E+01 -0.56009647036E+02  0.43382862507E+03  0.44670583369E+03  0.90469207343E+02 0.  0.
        -11    1    4    4    0    0 -0.23688410854E+02  0.16325681473E+02  0.10525740534E+03  0.10911823891E+03  0.00000000000E+00 0.  1.
         11    1    4    4    0    0  0.27819740532E+02 -0.72335328509E+02  0.32857121973E+03  0.33758759478E+03  0.00000000000E+00 0. -1.
        -13    1    3    3    0    0 -0.51355081695E+02  0.98539249813E+01  0.14735638386E+03  0.15635967549E+03  0.00000000000E+00 0. -1.
         13    1    3    3    0    0  0.24534004220E+02  0.49897083475E+02  0.85623756543E+02  0.10209340815E+03  0.00000000000E+00 0.  1.
         -3    1    1    2    0  502  0.22689747797E+02 -0.37413614196E+01  0.28058090069E+02  0.36277801183E+02  0.00000000000E+00 0.  1.
<scales pt_clust_5="13000.00000" pt_clust_6="13000.00000" pt_clust_7="13000.00000" pt_clust_8="13000.00000" pt_clust_9="22.99615"></scales>
<clustering>
<clus scale="   22.996">  1  9  2 -1</clus>
<clus scale="   90.469">  5  6 -1 -1</clus>
<clus scale="   90.712">  7  8 -1 -1</clus>
<clus scale="  109.298">  1  5  2 -1</clus>
<clus scale="   22.996">  1  5  2 -1</clus>
</clustering>
</event>
<event>
 9    1  0.1399746E-005  0.2861984E+03  0.7546771E-02  0.1092512E+00
         21   -1    0    0  501  502  0.00000000000E+00  0.00000000000E+00  0.53633338032E+03  0.53633338032E+03  0.00000000000E+00 0. -1.
          1   -1    0    0  502    0 -0.00000000000E+00 -0.00000000000E+00 -0.60464356197E+03  0.60464356197E+03  0.00000000000E+00 0. -1.
         23    2    1    2    0    0 -0.34190654568E+03 -0.80785852846E+02 -0.36651381047E+03  0.51513344978E+03  0.87198955364E+02 0.  0.
         23    2    1    2    0    0  0.17219872509E+03  0.82907643878E+02 -0.67881628712E+02  0.22232935132E+03  0.91084282971E+02 0.  0.
        -11    1    3    3    0    0 -0.30721873295E+03 -0.77549556331E+02 -0.28375258068E+03  0.42533846594E+03  0.00000000000E+00 0. -1.
         11    1    3    3    0    0 -0.34687812731E+02 -0.32362965150E+01 -0.82761229785E+02  0.89794983840E+02  0.00000000000E+00 0.  1.
        -13    1    4    4    0    0  0.12737445572E+03  0.82671116557E+02 -0.14378018827E+02  0.15253030161E+03  0.00000000000E+00 0.  1.
         13    1    4    4    0    0  0.44824269370E+02  0.23652732101E+00 -0.53503609885E+02  0.69799049711E+02  0.00000000000E+00 0. -1.
          1    1    1    2  501    0  0.16970782059E+03 -0.21217910318E+01  0.36608525753E+03  0.40351414120E+03  0.00000000000E+00 0. -1.
<scales pt_clust_5="13000.00000" pt_clust_6="13000.00000" pt_clust_7="13000.00000" pt_clust_8="13000.00000" pt_clust_9="169.72108"></scales>
<clustering>
<clus scale="   87.199">  5  6 -1 -1</clus>
<clus scale="   91.084">  7  8 -1 -1</clus>
<clus scale="  169.721">  1  9  2 -1</clus>
<clus scale="  284.986">  2  5  1 -1</clus>
<clus scale="  169.721">  1  5  2 -1</clus>
</clustering>
</event>
<event>
 9    1  0.1399746E-005  0.9850193E+02  0.7546771E-02  0.1283662E+00
         21   -1    0    0  501  502  0.00000000000E+00  0.00000000000E+00  0.21782386968E+03  0.21782386968E+03  0.00000000000E+00 0.  1.
         -3   -1    0    0    0  501 -0.00000000000E+00 -0.00000000000E+00 -0.85969632620E+02  0.85969632620E+02  0.00000000000E+00 0.  1.
         23    2    1    2    0    0  0.43433299266E+02  0.41903656718E+02  0.26152958709E+02  0.11371366377E+03  0.92760186222E+02 0.  0.
         23    2    1    2    0    0  0.17127540811E+01  0.40307797313E+01  0.73067118596E+02  0.11787785124E+03  0.92396987410E+02 0.  0.
        -11    1    4    4    0    0  0.22909390217E+02  0.31568790331E+02  0.73405403471E+02  0.83125098146E+02  0.00000000000E+00 0.  1.
         11    1    4    4    0    0 -0.21196636136E+02 -0.27538010599E+02 -0.33828487541E+00  0.34752753098E+02  0.00000000000E+00 0. -1.
        -13    1    3    3    0    0  0.34718601527E+02 -0.13635157020E+02  0.41139945347E+02  0.55531917868E+02  0.00000000000E+00 0. -1.
         13    1    3    3    0    0  0.87146977391E+01  0.55538813738E+02 -0.14986986638E+02  0.58181745905E+02  0.00000000000E+00 0.  1.
         -3    1    1    2    0  502 -0.45146053347E+02 -0.45934436449E+02  0.32634159755E+02  0.72201987283E+02  0.00000000000E+00 0.  1.
<scales pt_clust_5="13000.00000" pt_clust_6="13000.00000" pt_clust_7="13000.00000" pt_clust_8="13000.00000" pt_clust_9="64.40604"></scales>
<clustering>
<clus scale="   64.406">  1  9  2 -1</clus>
<clus scale="   92.397">  5  6 -1 -1</clus>
<clus scale="   92.760">  7  8 -1 -1</clus>
<clus scale="   98.160">  1  5  2 -1</clus>
<clus scale="   64.406">  1  5  2 -1</clus>
</clustering>
</event>
<event>
 9    1  0.1399746E-005  0.9616739E+02  0.7546771E-02  0.1289881E+00
         -3   -1    0    0    0  501 -0.00000000000E+00  0.00000000000E+00  0.56815193093E+02  0.56815193093E+02  0.00000000000E+00 0.  1.
         21   -1    0    0  501  502  0.00000000000E+00 -0.00000000000E+00 -0.39014755824E+03  0.39014755824E+03  0.00000000000E+00 0.  1.
         23    2    1    2    0    0 -0.43376050311E+02 -0.41750029027E+02 -0.12449148822E+03  0.16641545302E+03  0.92581994465E+02 0.  0.
         23    2    1    2    0    0 -0.28576579222E+02  0.28257686111E+01 -0.15820437760E+03  0.18433745469E+03  0.90150242724E+02 0.  0.
        -11    1    3    3    0    0 -0.49115885809E+02  0.16312421293E+02 -0.65016153050E+02  0.83099732158E+02  0.00000000000E+00 0.  1.
         11    1    3    3    0    0  0.57398354982E+01 -0.58062450319E+02 -0.59475335169E+02  0.83315720858E+02  0.00000000000E+00 0. -1.
        -13    1    4    4    0    0 -0.23655376439E+01  0.42869367585E+02 -0.49262686833E+02  0.65346696623E+02  0.00000000000E+00 0. -1.
         13    1    4    4    0    0 -0.26211041578E+02 -0.40043598974E+02 -0.10894169077E+03  0.11899075807E+03  0.00000000000E+00 0.  1.
         -3    1    1    2    0  502  0.71952629534E+02  0.38924260416E+02 -0.50636499327E+02  0.96209843622E+02  0.00000000000E+00 0.  1.
<scales pt_clust_5="13000.00000" pt_clust_6="13000.00000" pt_clust_7="13000.00000" pt_clust_8="13000.00000" pt_clust_9="81.80639"></scales>
<clustering>
<clus scale="   81.806">  2  9  1 -1</clus>
<clus scale="   90.150">  7  8 -1 -1</clus>
<clus scale="   92.582">  5  6 -1 -1</clus>
<clus scale="   93.829">  2  7  1 -1</clus>
<clus scale="   81.806">  2  5  1 -1</clus>
</clustering>
</event>
<event>
 9    1  0.1399746E-005  0.1900419E+03  0.7546771E-02  0.1188674E+00
         -1   -1    0    0    0  501 -0.00000000000E+00  0.00000000000E+00  0.44798320662E+03  0.44798320662E+03  0.00000000000E+00 0.  1.
         21   -1    0    0  501  502  0.00000000000E+00 -0.00000000000E+00 -0.17227584978E+03  0.17227584978E+03  0.00000000000E+00 0.  1.
         23    2    1    2    0    0 -0.30774398260E+02  0.34911556355E+01  0.68803400255E+02  0.11772927626E+03  0.90371582071E+02 0.  0.
         23    2    1    2    0    0  0.58580506034E+02  0.16317969323E+03  0.26110411756E+03  0.32507553551E+03  0.86252278897E+02 0.  0.
        -11    1    3    3    0    0  0.32153351369E+02 -0.25012014835E+01  0.25370500048E+02  0.41033599474E+02  0.00000000000E+00 0. -1.
         11    1    3    3    0    0 -0.62927749629E+02  0.59923571190E+01  0.43432900207E+02  0.76695676785E+02  0.00000000000E+00 0.  1.
        -11    1    4    4    0    0  0.38987717291E+02  0.11422570052E+02  0.55480171671E+02  0.68764574127E+02  0.00000000000E+00 0. -1.
         11    1    4    4    0    0  0.19592788743E+02  0.15175712317E+03  0.20562394588E+03  0.25631096139E+03  0.00000000000E+00 0.  1.
         -1    1    1    2    0  502 -0.27806107774E+02 -0.16667084886E+03 -0.54200160973E+02  0.17745424464E+03  0.00000000000E+00 0.  1.
<scales pt_clust_5="13000.00000" pt_clust_6="13000.00000" pt_clust_7="13000.00000" pt_clust_8="13000.00000" pt_clust_9="169.34125"></scales>
<clustering>
<clus scale="   86.252">  7  8 -1 -1</clus>
<clus scale="   90.372">  5  6 -1 -1</clus>
<clus scale="   95.532">  1  5  2 -1</clus>
<clus scale="  169.341">  2  9  1 -1</clus>
<clus scale="  169.341">  2  5  1 -1</clus>
</clustering>
</event>
<event>
 9    1  0.1399746E-005  0.1331392E+03  0.7546771E-02  0.1223092E+00
         21   -1    0    0  501  502  0.00000000000E+00  0.00000000000E+00  0.14995722281E+03  0.14995722281E+03  0.00000000000E+00 0.  1.
          3   -1    0    0  502    0 -0.00000000000E+00 -0.00000000000E+00 -0.36337281442E+03  0.36337281442E+03  0.00000000000E+00 0. -1.
         23    2    1    2    0    0  0.94377775062E+02  0.12414353331E+02 -0.29389769830E+03  0.32185387829E+03  0.90292753362E+02 0.  0.
         23    2    1    2    0    0 -0.11182121631E+03  0.58615889319E+01  0.52205643520E+02  0.15355727081E+03  0.91192453419E+02 0.  0.
        -11    1    3    3    0    0  0.37503498219E+02  0.49243417434E+02 -0.16507498884E+03  0.17629854928E+03  0.00000000000E+00 0. -1.
         11    1    3    3    0    0  0.56874276843E+02 -0.36829064103E+02 -0.12882270946E+03  0.14555532900E+03  0.00000000000E+00 0.  1.
        -11    1    4    4    0    0 -0.51052971479E+02 -0.12902902482E+00 -0.23577355151E+02  0.56234457597E+02  0.00000000000E+00 0. -1.
         11    1    4    4    0    0 -0.60768244829E+02  0.59906179567E+01  0.75782998672E+02  0.97322813209E+02  0.00000000000E+00 0.  1.
          3    1    1    2  501    0  0.17443441246E+02 -0.18275942263E+02  0.28276463164E+02  0.37918888132E+02  0.00000000000E+00 0. -1.
<scales pt_clust_5="13000.00000" pt_clust_6="13000.00000" pt_clust_7="13000.00000" pt_clust_8="13000.00000" pt_clust_9="25.26428"></scales>
<clustering>
<clus scale="   25.264">  1  9  2 -1</clus>
<clus scale="   90.293">  5  6 -1 -1</clus>
<clus scale="   91.192">  7  8 -1 -1</clus>
<clus scale="  132.525">  2  5  1 -1</clus>
<clus scale="   25.264">  1  5  2 -1</clus>
</clustering>
</event>
<event>
 9    1  0.1399746E-005  0.1974969E+03  0.7546771E-02  0.1152265E+00
         21   -1    0    0  501  502  0.00000000000E+00  0.00000000000E+00  0.79365821329E+02  0.79365821329E+02  0.00000000000E+00 0. -1.
          2   -1    0    0  502    0 -0.00000000000E+00 -0.00000000000E+00 -0.87329328847E+03  0.87329328847E+03  0.00000000000E+00 0. -1.
         23    2    1    2    0    0 -0.22768407619E+02 -0.15716497860E+03 -0.38128979016E+03  0.42289843498E+03  0.90785193391E+02 0.  0.
         23    2    1    2    0    0  0.50219329314E+02  0.18950671305E+03 -0.43265822093E+03  0.48285264705E+03  0.86710825758E+02 0.  0.
        -13    1    4    4    0    0 -0.18389002154E+02  0.34973127667E+02 -0.44754016765E+02  0.59700896774E+02  0.00000000000E+00 0.  1.
         13    1    4    4    0    0  0.68608331468E+02  0.15453358538E+03 -0.38790420416E+03  0.42315175028E+03  0.00000000000E+00 0. -1.
        -13    1    3    3    0    0 -0.43834628234E+02 -0.13599857928E+03 -0.24722002904E+03  0.28554304572E+03  0.00000000000E+00 0. -1.
         13    1    3    3    0    0  0.21066220615E+02 -0.21166399321E+02 -0.13406976112E+03  0.13735538926E+03  0.00000000000E+00 0.  1.
          2    1    1    2  501    0 -0.27450921695E+02 -0.32341734444E+02  0.20020543953E+02  0.46908027767E+02  0.00000000000E+00 0. -1.
<scales pt_clust_5="13000.00000" pt_clust_6="13000.00000" pt_clust_7="13000.00000" pt_clust_8="13000.00000" pt_clust_9="42.42100"></scales>
<clustering>
<clus scale="   42.421">  1  9  2 -1</clus>
<clus scale="   86.711">  5  6 -1 -1</clus>
<clus scale="   90.785">  7  8 -1 -1</clus>
<clus scale="  195.657">  1  5  2 -1</clus>
<clus scale="   42.421">  1  5  2 -1</clus>
</clustering>
</event>
<event>
 9    1  0.1399746E-005  0.1230905E+03  0.7546771E-02  0.1239383E+00
         21   -1    0    0  501  502  0.00000000000E+00  0.00000000000E+00  0.17155159865E+03  0.17155159865E+03  0.00000000000E+00 0.  1.
         -3   -1    0    0    0  501 -0.00000000000E+00 -0.00000000000E+00 -0.19117298422E+03  0.19117298422E+03  0.00000000000E+00 0.  1.
         23    2    1    2    0    0  0.63273587099E+02 -0.26106570595E+02 -0.91630263868E+02  0.14672717329E+03  0.91911143354E+02 0.  0.
         23    2    1    2    0    0 -0.91924394470E+02  0.34213504896E+02 -0.84507379325E+00  0.13729360102E+03  0.96063315139E+02 0.  0.
        -11    1    4    4    0    0  0.16134651890E+02  0.11925730767E+02  0.16024883291E+02  0.25677751662E+02  0.00000000000E+00 0. -1.
         11    1    4    4    0    0 -0.10805904636E+03  0.22287774129E+02 -0.16869957084E+02  0.11161584936E+03  0.00000000000E+00 0.  1.
        -13    1    3    3    0    0 -0.65948891604E+01 -0.40819880286E+02 -0.46657941778E+02  0.62343553961E+02  0.00000000000E+00 0. -1.
         13    1    3    3    0    0  0.69868476259E+02  0.14713309691E+02 -0.44972322090E+02  0.84383619329E+02  0.00000000000E+00 0.  1.
         -3    1    1    2    0  502  0.28650807372E+02 -0.81069343010E+01  0.72853952094E+02  0.78703808564E+02  0.00000000000E+00 0.  1.
<scales pt_clust_5="13000.00000" pt_clust_6="13000.00000" pt_clust_7="13000.00000" pt_clust_8="13000.00000" pt_clust_9="29.77568"></scales>
<clustering>
<clus scale="   29.776">  1  9  2 -1</clus>
<clus scale="   91.911">  7  8 -1 -1</clus>
<clus scale="   96.063">  5  6 -1 -1</clus>
<clus scale="  119.878">  2  7  1 -1</clus>
<clus scale="   29.776">  1  5  2 -1</clus>
</clustering>
</event>
<event>
 9    1  0.1399746E-005  0.1024791E+03  0.7546771E-02  0.1275432E+00
         -3   -1    0    0    0  501 -0.00000000000E+00  0.00000000000E+00  0.64172904387E+03  0.64172904387E+03  0.00000000000E+00 0.  1.
         21   -1    0    0  501  502  0.00000000000E+00 -0.00000000000E+00 -0.44768136045E+02  0.44768136045E+02  0.00000000000E+00 0. -1.
         23    2    1    2    0    0 -0.52208689987E+02  0.31006784708E+01  0.18550909910E+03  0.21518153232E+03  0.95677084426E+02 0.  0.
         23    2    1    2    0    0  0.46513274120E+01  0.32282637074E+02  0.64789025101E+02  0.11962150875E+03  0.95120366262E+02 0.  0.
        -11    1    3    3    0    0 -0.67797631294E+02 -0.27744279139E+02  0.11027403084E+03  0.13238816303E+03  0.00000000000E+00 0.  1.
         11    1    3    3    0    0  0.15588941307E+02  0.30844957610E+02  0.75235068262E+02  0.82793369284E+02  0.00000000000E+00 0. -1.
        -11    1    4    4    0    0  0.41267274484E+02 -0.10031777871E+02  0.40276744522E+02  0.58530681355E+02  0.00000000000E+00 0.  1.
         11    1    4    4    0    0 -0.36615947072E+02  0.42314414945E+02  0.24512280579E+02  0.61090827391E+02  0.00000000000E+00 0. -1.
         -3    1    1    2    0  502  0.47557362575E+02 -0.35383315545E+02  0.34666278362E+03  0.35169413885E+03  0.00000000000E+00 0.  1.
<scales pt_clust_5="13000.00000" pt_clust_6="13000.00000" pt_clust_7="13000.00000" pt_clust_8="13000.00000" pt_clust_9="59.27635"></scales>
<clustering>
<clus scale="   59.276">  2  9  1 -1</clus>
<clus scale="   95.120">  7  8 -1 -1</clus>
<clus scale="   95.677">  5  6 -1 -1</clus>
<clus scale="  101.960">  2  7  1 -1</clus>
<clus scale="   59.276">  2  5  1 -1</clus>
</clustering>
</event>
<event>
 9    1  0.1399746E-005  0.1124056E+03  0.7546771E-02  0.1261696E+00
         -1   -1    0    0    0  501 -0.00000000000E+00  0.00000000000E+00  0.71284397284E+03  0.71284397284E+03  0.00000000000E+00 0.  1.
         21   -1    0    0  501  502  0.00000000000E+00 -0.00000000000E+00 -0.34744489486E+02  0.34744489486E+02  0.00000000000E+00 0.  1.
         23    2    1    2    0    0  0.32266662227E+02  0.31159840637E+02  0.42600215374E+03  0.43801045115E+03  0.91450790976E+02 0.  0.
         23    2    1    2    0    0 -0.12876588352E+02 -0.39136447288E+02  0.26308592891E+03  0.28590628685E+03  0.10407079721E+03 0.  0.
        -11    1    3    3    0    0 -0.15547590624E+02 -0.24165743098E+02  0.12046688230E+03  0.12384660046E+03  0.00000000000E+00 0. -1.
         11    1    3    3    0    0  0.47814252851E+02  0.55325583735E+02  0.30553527143E+03  0.31416385069E+03  0.00000000000E+00 0.  1.
        -11    1    4    4    0    0  0.34437026148E+02 -0.28557025989E+02  0.20696020324E+03  0.21174026124E+03  0.00000000000E+00 0.  1.
         11    1    4    4    0    0 -0.47313614500E+02 -0.10579421299E+02  0.56125725672E+02  0.74166025606E+02  0.00000000000E+00 0. -1.
         -1    1    1    2    0  502 -0.19390073875E+02  0.79766066518E+01 -0.10988599291E+02  0.23671724334E+02  0.00000000000E+00 0.  1.
<scales pt_clust_5="13000.00000" pt_clust_6="13000.00000" pt_clust_7="13000.00000" pt_clust_8="13000.00000" pt_clust_9="20.96667"></scales>
<clustering>
<clus scale="   20.967">  2  9  1 -1</clus>
<clus scale="   91.451">  5  6 -1 -1</clus>
<clus scale="  100.834">  1  5  2 -1</clus>
<clus scale="  104.071">  7  8 -1 -1</clus>
<clus scale="   20.967">  2  5  1 -1</clus>
</clustering>
</event>
<event>
 9    1  0.1399746E-005  0.9924631E+02  0.7546771E-02  0.1282277E+00
         21   -1    0    0  501  502  0.00000000000E+00  0.00000000000E+00  0.68862648220E+02  0.68862648220E+02  0.00000000000E+00 0.  1.
          1   -1    0    0  502    0 -0.00000000000E+00 -0.00000000000E+00 -0.23288234536E+03  0.23288234536E+03  0.00000000000E+00 0. -1.
         23    2    1    2    0    0  0.46444850347E+02  0.20591285873E+00 -0.13005639389E+03  0.16572099522E+03  0.91605764786E+02 0.  0.
         23    2    1    2    0    0 -0.12116004738E+02 -0.38851309038E+01 -0.95688467653E+01  0.93749942561E+02  0.92388295194E+02 0.  0.
        -13    1    3    3    0    0  0.66645348529E+02 -0.11389228643E+02 -0.55071650007E+02  0.87202085090E+02  0.00000000000E+00 0. -1.
         13    1    3    3    0    0 -0.20200498181E+02  0.11595141501E+02 -0.74984743881E+02  0.78518910131E+02  0.00000000000E+00 0.  1.
        -13    1    4    4    0    0 -0.50391579254E+02 -0.16280857990E+02 -0.36223368942E+01  0.53080117946E+02  0.00000000000E+00 0.  1.
         13    1    4    4    0    0  0.38275574516E+02  0.12395727086E+02 -0.59465098710E+01  0.40669824615E+02  0.00000000000E+00 0. -1.
          1    1    1    2  501    0 -0.34328845609E+02  0.36792180451E+01 -0.24394456483E+02  0.42274055796E+02  0.00000000000E+00 0. -1.
<scales pt_clust_5="13000.00000" pt_clust_6="13000.00000" pt_clust_7="13000.00000" pt_clust_8="13000.00000" pt_clust_9="34.52546"></scales>
<clustering>
<clus scale="   34.525">  1  9  2 -1</clus>
<clus scale="   91.606">  5  6 -1 -1</clus>
<clus scale="   92.388">  7  8 -1 -1</clus>
<clus scale="   98.518">  2  5  1 -1</clus>
<clus scale="   34.525">  1  5  2 -1</clus>
</clustering>
</event>
<event>
 9    1  0.1399746E-005  0.1445824E+03  0.7546771E-02  0.1208420E+00
          1   -1    0    0  502    0 -0.00000000000E+00  0.00000000000E+00  0.49906452377E+03  0.49906452377E+03  0.00000000000E+00 0. -1.
         21   -1    0    0  501  502  0.00000000000E+00 -0.00000000000E+00 -0.12406594948E+03  0.12406594948E+03  0.00000000000E+00 0. -1.
         23    2    1    2    0    0 -0.10074237644E+03 -0.40975943215E+02  0.31386739085E+03  0.34395723478E+03  0.89251252032E+02 0.  0.
         23    2    1    2    0    0  0.83886966715E+02  0.12839230731E+03  0.73135005599E+02  0.18934107665E+03  0.83544637785E+02 0.  0.
        -11    1    4    4    0    0  0.41694779224E+02  0.40745013614E+02  0.71234256094E+02  0.92048519762E+02  0.00000000000E+00 0. -1.
         11    1    4    4    0    0  0.42192187491E+02  0.87647293699E+02  0.19007495052E+01  0.97292556893E+02  0.00000000000E+00 0.  1.
        -11    1    3    3    0    0 -0.63831601427E+02  0.22075430239E+02  0.15688168205E+03  0.17080298628E+03  0.00000000000E+00 0.  1.
         11    1    3    3    0    0 -0.36910775017E+02 -0.63051373454E+02  0.15698570880E+03  0.17315424850E+03  0.00000000000E+00 0. -1.
          1    1    1    2  501    0  0.16855409728E+02 -0.87416364098E+02 -0.12003822160E+02  0.89832161812E+02  0.00000000000E+00 0. -1.
<scales pt_clust_5="13000.00000" pt_clust_6="13000.00000" pt_clust_7="13000.00000" pt_clust_8="13000.00000" pt_clust_9="89.02654"></scales>
<clustering>
<clus scale="   83.545">  5  6 -1 -1</clus>
<clus scale="   89.027">  2  9  1 -1</clus>
<clus scale="   89.251">  7  8 -1 -1</clus>
<clus scale="  141.131">  2  5  1 -1</clus>
<clus scale="   89.027">  2  5  1 -1</clus>
</clustering>
</event>
<event>
 9    1  0.1399746E-005  0.1056450E+03  0.7546771E-02  0.1275093E+00
         21   -1    0    0  501  502  0.00000000000E+00  0.00000000000E+00  0.51742536585E+02  0.51742536585E+02  0.00000000000E+00 0.  1.
          1   -1    0    0  502    0 -0.00000000000E+00 -0.00000000000E+00 -0.34884599815E+03  0.34884599815E+03  0.00000000000E+00 0. -1.
         23    2    1    2    0    0  0.61189089092E+01 -0.53845985388E+02 -0.23001155579E+03  0.25374268936E+03  0.92429461845E+02 0.  0.
         23    2    1    2    0    0 -0.23844779324E+02  0.42098587433E+02 -0.79926294043E+02  0.12200778260E+03  0.78465418951E+02 0.  0.
        -11    1    3    3    0    0  0.85724551706E+01 -0.79963458320E+02 -0.16244006222E+03  0.18125787009E+03  0.00000000000E+00 0. -1.
         11    1    3    3    0    0 -0.24535462614E+01  0.26117472932E+02 -0.67571493566E+02  0.72484819268E+02  0.00000000000E+00 0.  1.
        -11    1    4    4    0    0 -0.35487731926E+02 -0.10729538358E+02 -0.23802465961E+02  0.44057456763E+02  0.00000000000E+00 0. -1.
         11    1    4    4    0    0  0.11642952602E+02  0.52828125791E+02 -0.56123828082E+02  0.77950325839E+02  0.00000000000E+00 0.  1.
          1    1    1    2  501    0  0.17725870415E+02  0.11747397955E+02  0.12834388262E+02  0.24838062781E+02  0.00000000000E+00 0. -1.
<scales pt_clust_5="13000.00000" pt_clust_6="13000.00000" pt_clust_7="13000.00000" pt_clust_8="13000.00000" pt_clust_9="21.26518"></scales>
<clustering>
<clus scale="   21.265">  1  9  2 -1</clus>
<clus scale="   78.465">  7  8 -1 -1</clus>
<clus scale="   92.429">  5  6 -1 -1</clus>
<clus scale="   93.672">  1  7  2 -1</clus>
<clus scale="   21.265">  1  5  2 -1</clus>
</clustering>
</event>
<event>
 9    1  0.1399746E-005  0.1261889E+03  0.7546771E-02  0.1233486E+00
         21   -1    0    0  501  502  0.00000000000E+00  0.00000000000E+00  0.33624313022E+03  0.33624313022E+03  0.00000000000E+00 0.  1.
          1   -1    0    0  502    0 -0.00000000000E+00 -0.00000000000E+00 -0.20402425643E+03  0.20402425643E+03  0.00000000000E+00 0. -1.
         23    2    1    2    0    0  0.20439877113E+02 -0.84605210665E+02 -0.13216678735E+03  0.18267375377E+03  0.91245878758E+02 0.  0.
         23    2    1    2    0    0  0.63243472441E+02  0.91578535009E+02  0.21831896676E+03  0.26181435236E+03  0.92180361107E+02 0.  0.
        -13    1    4    4    0    0  0.26036399875E+02  0.97576048988E+02  0.18814572224E+03  0.21353639561E+03  0.00000000000E+00 0.  1.
         13    1    4    4    0    0  0.37207072567E+02 -0.59975139792E+01  0.30173244528E+02  0.48277956753E+02  0.00000000000E+00 0. -1.
        -13    1    3    3    0    0 -0.33100846190E+02 -0.56612795250E+02 -0.72517570674E+02  0.97772555766E+02  0.00000000000E+00 0.  1.
         13    1    3    3    0    0  0.53540723303E+02 -0.27992415415E+02 -0.59649216673E+02  0.84901198003E+02  0.00000000000E+00 0. -1.
          1    1    1    2  501    0 -0.83683349554E+02 -0.69733243438E+01  0.46066694371E+02  0.95779280511E+02  0.00000000000E+00 0. -1.
<scales pt_clust_5="13000.00000" pt_clust_6="13000.00000" pt_clust_7="13000.00000" pt_clust_8="13000.00000" pt_clust_9="83.97339"></scales>
<clustering>
<clus scale="   83.973">  1  9  2 -1</clus>
<clus scale="   91.246">  7  8 -1 -1</clus>
<clus scale="   92.180">  5  6 -1 -1</clus>
<clus scale="  125.508">  2  7  1 -1</clus>
<clus scale="   83.973">  1  5  2 -1</clus>
</clustering>
</event>
<event>
 9    1  0.1399746E-005  0.1100426E+03  0.7546771E-02  0.1261956E+00
          3   -1    0    0  502    0 -0.00000000000E+00  0.00000000000E+00  0.23262703809E+03  0.23262703809E+03  0.00000000000E+00 0. -1.
         21   -1    0    0  501  502  0.00000000000E+00 -0.00000000000E+00 -0.53330691572E+03  0.53330691572E+03  0.00000000000E+00 0. -1.
         23    2    1    2    0    0 -0.34461709126E+02  0.28897148410E+02  0.16309312879E+03  0.19507906461E+03  0.97127844657E+02 0.  0.
         23    2    1    2    0    0  0.32393829720E+02 -0.99020417699E+02 -0.46254843564E+02  0.14748393444E+03  0.93582033745E+02 0.  0.
        -11    1    3    3    0    0 -0.57337343157E+02 -0.12753960645E+02  0.78367796084E+02  0.97937459103E+02  0.00000000000E+00 0. -1.
         11    1    3    3    0    0  0.22875634031E+02  0.41651109056E+02  0.84725332708E+02  0.97141605507E+02  0.00000000000E+00 0.  1.
        -13    1    4    4    0    0  0.20794363370E+02 -0.45350678563E+02 -0.71390009886E+02  0.87095482693E+02  0.00000000000E+00 0.  1.
         13    1    4    4    0    0  0.11599466350E+02 -0.53669739135E+02  0.25135166322E+02  0.60388451748E+02  0.00000000000E+00 0. -1.
          3    1    1    2  501    0  0.20678794061E+01  0.70123269288E+02 -0.41751816286E+03  0.42337095476E+03  0.00000000000E+00 0. -1.
<scales pt_clust_5="13000.00000" pt_clust_6="13000.00000" pt_clust_7="13000.00000" pt_clust_8="13000.00000" pt_clust_9="70.15375"></scales>
<clustering>
<clus scale="   70.154">  2  9  1 -1</clus>
<clus scale="   93.582">  7  8 -1 -1</clus>
<clus scale="   97.128">  5  6 -1 -1</clus>
<clus scale="  106.926">  2  7  1 -1</clus>
<clus scale="   70.154">  2  5  1 -1</clus>
</clustering>
</event>
<event>
 9    1  0.1399746E-005  0.9538369E+02  0.7546771E-02  0.1291132E+00
          4   -1    0    0  502    0 -0.00000000000E+00  0.00000000000E+00  0.53430417269E+02  0.53430417269E+02  0.00000000000E+00 0. -1.
         21   -1    0    0  501  502  0.00000000000E+00 -0.00000000000E+00 -0.31480482971E+03  0.31480482971E+03  0.00000000000E+00 0.  1.
         23    2    1    2    0    0  0.91479107859E+01 -0.56033964845E+00 -0.65120512696E+02  0.11358062062E+03  0.92606036278E+02 0.  0.
         23    2    1    2    0    0 -0.14512706293E+02 -0.42722837974E+02 -0.76597987641E+02  0.12729783699E+03  0.91113270512E+02 0.  0.
        -13    1    3    3    0    0  0.33566298095E+02 -0.62359060212E+01 -0.78183098620E+02  0.85312248837E+02  0.00000000000E+00 0. -1.
         13    1    3    3    0    0 -0.24418387309E+02  0.56755663728E+01  0.13062585924E+02  0.28268371786E+02  0.00000000000E+00 0.  1.
        -13    1    4    4    0    0  0.26431750109E+02 -0.17467604016E+02  0.54879268595E+01  0.32153879161E+02  0.00000000000E+00 0. -1.
         13    1    4    4    0    0 -0.40944456401E+02 -0.25255233959E+02 -0.82085914500E+02  0.95143957830E+02  0.00000000000E+00 0.  1.
          4    1    1    2  501    0  0.53647955069E+01  0.43283177623E+02 -0.11965591210E+03  0.12735678936E+03  0.00000000000E+00 0. -1.
<scales pt_clust_5="13000.00000" pt_clust_6="13000.00000" pt_clust_7="13000.00000" pt_clust_8="13000.00000" pt_clust_9="43.61438"></scales>
<clustering>
<clus scale="   43.614">  2  9  1 -1</clus>
<clus scale="   91.113">  7  8 -1 -1</clus>
<clus scale="   92.606">  5  6 -1 -1</clus>
<clus scale="   93.935">  2  7  1 -1</clus>
<clus scale="   43.614">  2  5  1 -1</clus>
</clustering>
</event>
<event>
 9    1  0.1399746E-005  0.1192679E+03  0.7546771E-02  0.1244714E+00
         -3   -1    0    0    0  501 -0.00000000000E+00  0.00000000000E+00  0.12378799846E+03  0.12378799846E+03  0.00000000000E+00 0.  1.
         21   -1    0    0  501  502  0.00000000000E+00 -0.00000000000E+00 -0.14679729450E+03  0.14679729450E+03  0.00000000000E+00 0. -1.
         23    2    1    2    0    0 -0.41742519952E+02  0.48963330813E+02  0.11571691636E+02  0.11404296803E+03  0.93445432067E+02 0.  0.
         23    2    1    2    0    0  0.43982449725E+02 -0.73055189309E+02 -0.22084386357E+02  0.12930999165E+03  0.94666980780E+02 0.  0.
        -11    1    4    4    0    0 -0.16168340258E+02  0.14139806286E+02 -0.34873041496E+01  0.21760299601E+02  0.00000000000E+00 0.  1.
         11    1    4    4    0    0  0.60150789983E+02 -0.87194995595E+02 -0.18597082208E+02  0.10754969205E+03  0.00000000000E+00 0. -1.
        -13    1    3    3    0    0 -0.40034371218E+02 -0.32416777037E+01 -0.27616652836E+02  0.48743603344E+02  0.00000000000E+00 0. -1.
         13    1    3    3    0    0 -0.17081487344E+01  0.52205008516E+02  0.39188344472E+02  0.65299364689E+02  0.00000000000E+00 0.  1.
         -3    1    1    2    0  502 -0.22399297727E+01  0.24091858497E+02 -0.12496601318E+02  0.27232333277E+02  0.00000000000E+00 0.  1.
<scales pt_clust_5="13000.00000" pt_clust_6="13000.00000" pt_clust_7="13000.00000" pt_clust_8="13000.00000" pt_clust_9="24.19576"></scales>
<clustering>
<clus scale="   24.196">  2  9  1 -1</clus>
<clus scale="   93.445">  7  8 -1 -1</clus>
<clus scale="   94.667">  5  6 -1 -1</clus>
<clus scale="  118.301">  1  7  2 -1</clus>
<clus scale="   24.196">  2  5  1 -1</clus>
</clustering>
</event>
<event>
 9    1  0.1399746E-005  0.9315822E+02  0.7546771E-02  0.1296003E+00
         -2   -1    0    0    0  501 -0.00000000000E+00  0.00000000000E+00  0.19145763173E+03  0.19145763173E+03  0.00000000000E+00 0.  1.
         21   -1    0    0  501  502  0.00000000000E+00 -0.00000000000E+00 -0.10946036802E+03  0.10946036802E+03  0.00000000000E+00 0.  1.
         23    2    1    2    0    0  0.17847729150E+02 -0.25894187039E+02  0.10765205937E+03  0.14487876439E+03  0.91716084334E+02 0.  0.
         23    2    1    2    0    0  0.23396820901E+01 -0.25037346777E+02  0.32294581625E+01  0.94104973219E+02  0.90625458557E+02 0.  0.
        -13    1    4    4    0    0  0.10685197231E+02  0.32494957322E+02 -0.74225113836E+01  0.35002705131E+02  0.00000000000E+00 0. -1.
         13    1    4    4    0    0 -0.83455151409E+01 -0.57532304099E+02  0.10651969546E+02  0.59102268088E+02  0.00000000000E+00 0.  1.
        -13    1    3    3    0    0  0.15628622858E+02 -0.60257529341E+02  0.74418929942E+02  0.97022682031E+02  0.00000000000E+00 0.  1.
         13    1    3    3    0    0  0.22191062920E+01  0.34363342302E+02  0.33233129426E+02  0.47856082355E+02  0.00000000000E+00 0. -1.
         -2    1    1    2    0  502 -0.20187411241E+02  0.50931533816E+02 -0.28884253819E+02  0.61934262150E+02  0.00000000000E+00 0.  1.
<scales pt_clust_5="13000.00000" pt_clust_6="13000.00000" pt_clust_7="13000.00000" pt_clust_8="13000.00000" pt_clust_9="54.78643"></scales>
<clustering>
<clus scale="   54.786">  2  9  1 -1</clus>
<clus scale="   90.625">  5  6 -1 -1</clus>
<clus scale="   91.716">  7  8 -1 -1</clus>
<clus scale="   92.085">  2  5  1 -1</clus>
<clus scale="   54.786">  2  5  1 -1</clus>
</clustering>
</event>
<event>
 9    1  0.1399746E-005  0.1973053E+03  0.7546771E-02  0.1152698E+00
         -4   -1    0    0    0  501 -0.00000000000E+00  0.00000000000E+00  0.55794400608E+03  0.55794400608E+03  0.00000000000E+00 0.  1.
         21   -1    0    0  501  502  0.00000000000E+00 -0.00000000000E+00 -0.20802392948E+03  0.20802392948E+03  0.00000000000E+00 0.  1.
         23    2    1    2    0    0  0.18344059353E+03 -0.31172952683E+02  0.34655661389E+03  0.40385169261E+03  0.91501358824E+02 0.  0.
         23    2    1    2    0    0 -0.14391529984E+03  0.38657203329E+02  0.13554342472E+03  0.22395038173E+03  0.97855815341E+02 0.  0.
        -13    1    3    3    0    0  0.15290785309E+03 -0.34011772489E+01  0.20110263304E+03  0.25265519697E+03  0.00000000000E+00 0. -1.
         13    1    3    3    0    0  0.30532740438E+02 -0.27771775434E+02  0.14545398085E+03  0.15119649564E+03  0.00000000000E+00 0.  1.
        -13    1    4    4    0    0 -0.92421885538E+02  0.56412302333E+02  0.42871198995E+02  0.11645639735E+03  0.00000000000E+00 0. -1.
         13    1    4    4    0    0 -0.51493414300E+02 -0.17755099004E+02  0.92672225726E+02  0.10749398438E+03  0.00000000000E+00 0.  1.
         -4    1    1    2    0  502 -0.39525293689E+02 -0.74842506462E+01 -0.13217996201E+03  0.13816586122E+03  0.00000000000E+00 0.  1.
<scales pt_clust_5="13000.00000" pt_clust_6="13000.00000" pt_clust_7="13000.00000" pt_clust_8="13000.00000" pt_clust_9="40.22764"></scales>
<clustering>
<clus scale="   40.228">  2  9  1 -1</clus>
<clus scale="   91.501">  5  6 -1 -1</clus>
<clus scale="   97.856">  7  8 -1 -1</clus>
<clus scale="  194.232">  1  5  2 -1</clus>
<clus scale="   40.228">  2  5  1 -1</clus>
</clustering>
</event>
<event>
 9    1  0.1399746E-005  0.9761378E+02  0.7546771E-02  0.1287561E+00
         -1   -1    0    0    0  501 -0.00000000000E+00  0.00000000000E+00  0.11375105856E+03  0.11375105856E+03  0.00000000000E+00 0.  1.
         21   -1    0    0  501  502  0.00000000000E+00 -0.00000000000E+00 -0.21139906025E+03  0.21139906025E+03  0.00000000000E+00 0.  1.
         23    2    1    2    0    0  0.23084963051E+02 -0.46864539911E+01  0.48589184932E+02  0.10726163677E+03  0.92678322489E+02 0.  0.
         23    2    1    2    0    0 -0.43659867664E+02  0.26468555857E+02 -0.43892863161E+02  0.11124821196E+03  0.88559656353E+02 0.  0.
        -11    1    3    3    0    0 -0.27458497527E+02 -0.24537660996E+02  0.36044671054E+02  0.51529449880E+02  0.00000000000E+00 0.  1.
         11    1    3    3    0    0  0.50543460578E+02  0.19851207005E+02  0.12544513878E+02  0.55732186887E+02  0.00000000000E+00 0. -1.
        -13    1    4    4    0    0  0.13585536993E+02  0.37168273085E+02 -0.34008089035E+02  0.52178515304E+02  0.00000000000E+00 0. -1.
         13    1    4    4    0    0 -0.57245404657E+02 -0.10699717228E+02 -0.98847741263E+01  0.59069696652E+02  0.00000000000E+00 0.  1.
         -1    1    1    2    0  502  0.20574904613E+02 -0.21782101866E+02 -0.10234432345E+03  0.10664027009E+03  0.00000000000E+00 0.  1.
<scales pt_clust_5="13000.00000" pt_clust_6="13000.00000" pt_clust_7="13000.00000" pt_clust_8="13000.00000" pt_clust_9="29.96309"></scales>
<clustering>
<clus scale="   29.963">  2  9  1 -1</clus>
<clus scale="   88.560">  7  8 -1 -1</clus>
<clus scale="   92.678">  5  6 -1 -1</clus>
<clus scale="   93.712">  2  7  1 -1</clus>
<clus scale="   29.963">  2  5  1 -1</clus>
</clustering>
</event>
<event>
 9    1  0.1399746E-005  0.1879477E+03  0.7546771E-02  0.1191275E+00
         21   -1    0    0  501  502  0.00000000000E+00  0.00000000000E+00  0.31622896531E+02  0.31622896531E+02  0.00000000000E+00 0. -1.
          2   -1    0    0  502    0 -0.00000000000E+00 -0.00000000000E+00 -0.16420231599E+04  0.16420231599E+04  0.00000000000E+00 0. -1.
         23    2    1    2    0    0 -0.16147918347E+02 -0.13751041544E+02 -0.28666480163E+03  0.30144919772E+03  0.90802334232E+02 0.  0.
         23    2    1    2    0    0 -0.13925452962E+03 -0.69201264451E+02 -0.81083111267E+03  0.82988525346E+03  0.84153440814E+02 0.  0.
        -11    1    4    4    0    0 -0.73935065193E+02 -0.73538552035E+02 -0.60418001596E+03  0.61311320667E+03  0.00000000000E+00 0. -1.
         11    1    4    4    0    0 -0.65319464432E+02  0.43372875834E+01 -0.20665109671E+03  0.21677204679E+03  0.00000000000E+00 0.  1.
        -13    1    3    3    0    0  0.78579535489E+01  0.36144700753E+02 -0.95011162268E+02  0.10195738218E+03  0.00000000000E+00 0. -1.
         13    1    3    3    0    0 -0.24005871896E+02 -0.49895742296E+02 -0.19165363936E+03  0.19949181554E+03  0.00000000000E+00 0.  1.
          2    1    1    2  501    0  0.15540244797E+03  0.82952305995E+02 -0.51290434908E+03  0.54231160527E+03  0.00000000000E+00 0. -1.
<scales pt_clust_5="13000.00000" pt_clust_6="13000.00000" pt_clust_7="13000.00000" pt_clust_8="13000.00000" pt_clust_9="168.05518"></scales>
<clustering>
<clus scale="   84.153">  5  6 -1 -1</clus>
<clus scale="   90.802">  7  8 -1 -1</clus>
<clus scale="   93.247">  2  7  1 -1</clus>
<clus scale="  168.055">  1  9  2 -1</clus>
<clus scale="  168.055">  1  5  2 -1</clus>
</clustering>
</event>
<event>
 9    1  0.1399746E-005  0.9291857E+02  0.7546771E-02  0.1296444E+00
          1   -1    0    0  502    0 -0.00000000000E+00  0.00000000000E+00  0.41855996638E+03  0.41855996638E+03  0.00000000000E+00 0. -1.
         21   -1    0    0  501  502  0.00000000000E+00 -0.00000000000E+00 -0.57136699805E+02  0.57136699805E+02  0.00000000000E+00 0.  1.
         23    2    1    2    0    0  0.11770751818E+02 -0.39901779180E+01  0.34052994224E+03  0.35307457348E+03  0.92447502710E+02 0.  0.
         23    2    1    2    0    0  0.10629408709E+02 -0.73359830569E+01  0.43840859330E+01  0.92578722943E+02  0.91568546758E+02 0.  0.
        -11    1    4    4    0    0 -0.37469649158E+02  0.11040628073E+02  0.11207991316E+02  0.40638518005E+02  0.00000000000E+00 0. -1.
         11    1    4    4    0    0  0.48099057867E+02 -0.18376611130E+02 -0.68239053831E+01  0.51940204938E+02  0.00000000000E+00 0.  1.
        -11    1    3    3    0    0 -0.22471181225E+02 -0.35793804276E+02  0.21530071036E+03  0.21940954011E+03  0.00000000000E+00 0. -1.
         11    1    3    3    0    0  0.34241933043E+02  0.31803626358E+02  0.12522923188E+03  0.13366503337E+03  0.00000000000E+00 0.  1.
          1    1    1    2  501    0 -0.22400160527E+02  0.11326160975E+02  0.16509238400E+02  0.30043369761E+02  0.00000000000E+00 0. -1.
<scales pt_clust_5="13000.00000" pt_clust_6="13000.00000" pt_clust_7="13000.00000" pt_clust_8="13000.00000" pt_clust_9="25.10078"></scales>
<clustering>
<clus scale="   25.101">  2  9  1 -1</clus>
<clus scale="   91.569">  5  6 -1 -1</clus>
<clus scale="   92.044">  2  5  1 -1</clus>
<clus scale="   92.448">  7  8 -1 -1</clus>
<clus scale="   25.101">  2  5  1 -1</clus>
</clustering>
</event>
<event>
 9    1  0.1399746E-005  0.1003292E+03  0.7546771E-02  0.1280051E+00
         21   -1    0    0  501  502  0.00000000000E+00  0.00000000000E+00  0.82208316889E+02  0.82208316889E+02  0.00000000000E+00 0.  1.
         -4   -1    0    0    0  501 -0.00000000000E+00 -0.00000000000E+00 -0.25282971404E+03  0.25282971404E+03  0.00000000000E+00 0.  1.
         23    2    1    2    0    0  0.49501136667E+02 -0.12612933962E+02 -0.17192909586E+03  0.20058775479E+03  0.89813054362E+02 0.  0.
         23    2    1    2    0    0 -0.17328404316E+02  0.15062495124E+02 -0.20078123290E+02  0.95740607597E+02  0.90752303292E+02 0.  0.
        -13    1    4    4    0    0  0.27980047228E+02  0.55623432957E+01  0.19729397821E+02  0.34685326064E+02  0.00000000000E+00 0. -1.
         13    1    4    4    0    0 -0.45308451544E+02  0.95001518287E+01 -0.39807521111E+02  0.61055281533E+02  0.00000000000E+00 0.  1.
        -13    1    3    3    0    0  0.60822962554E+02  0.48023051098E+01 -0.56011720160E+02  0.82823956097E+02  0.00000000000E+00 0. -1.
         13    1    3    3    0    0 -0.11321825888E+02 -0.17415239071E+02 -0.11591737570E+03  0.11776379869E+03  0.00000000000E+00 0.  1.
         -4    1    1    2    0  502 -0.32172732350E+02 -0.24495611627E+01  0.21385821993E+02  0.38709668548E+02  0.00000000000E+00 0.  1.
<scales pt_clust_5="13000.00000" pt_clust_6="13000.00000" pt_clust_7="13000.00000" pt_clust_8="13000.00000" pt_clust_9="32.26585"></scales>
<clustering>
<clus scale="   32.266">  1  9  2 -1</clus>
<clus scale="   89.813">  7  8 -1 -1</clus>
<clus scale="   90.752">  5  6 -1 -1</clus>
<clus scale="   99.480">  2  7  1 -1</clus>
<clus scale="   32.266">  1  5  2 -1</clus>
</clustering>
</event>
<event>
 9    1  0.1399746E-005  0.1607339E+03  0.7546771E-02  0.1201918E+00
         21   -1    0    0  501  502  0.00000000000E+00  0.00000000000E+00  0.63213135956E+03  0.63213135956E+03  0.00000000000E+00 0. -1.
         -2   -1    0    0    0  501 -0.00000000000E+00 -0.00000000000E+00 -0.14980590509E+03  0.14980590509E+03  0.00000000000E+00 0.  1.
         23    2    1    2    0    0  0.23386594566E+02 -0.72594556691E+02 -0.15600435177E+02  0.11917714832E+03  0.90238110775E+02 0.  0.
         23    2    1    2    0    0 -0.27343335088E+02 -0.51639581672E+02 -0.24085081578E+02  0.12615483216E+03  0.10918171162E+03 0.  0.
        -11    1    3    3    0    0  0.44568101837E+02 -0.58777011577E+02 -0.40106410780E+02  0.83961759016E+02  0.00000000000E+00 0. -1.
         11    1    3    3    0    0 -0.21181507271E+02 -0.13817545114E+02  0.24505975603E+02  0.35215389299E+02  0.00000000000E+00 0.  1.
        -13    1    4    4    0    0  0.16639525238E+02 -0.46583911695E+02 -0.53606490004E+02  0.72942377255E+02  0.00000000000E+00 0. -1.
         13    1    4    4    0    0 -0.43982860326E+02 -0.50556699768E+01  0.29521408426E+02  0.53212454903E+02  0.00000000000E+00 0.  1.
         -2    1    1    2    0  502  0.39567405210E+01  0.12423413836E+03  0.52201097122E+03  0.53660528418E+03  0.00000000000E+00 0.  1.
<scales pt_clust_5="13000.00000" pt_clust_6="13000.00000" pt_clust_7="13000.00000" pt_clust_8="13000.00000" pt_clust_9="117.96075"></scales>
<clustering>
<clus scale="   90.238">  5  6 -1 -1</clus>
<clus scale="  109.182">  7  8 -1 -1</clus>
<clus scale="  118.152">  2  5  1 -1</clus>
<clus scale="  117.961">  1  9  2 -1</clus>
<clus scale="  117.961">  1  5  2 -1</clus>
</clustering>
</event>
<event>
 9    1  0.1399746E-005  0.1031017E+03  0.7546771E-02  0.1280136E+00
         21   -1    0    0  501  502  0.00000000000E+00  0.00000000000E+00  0.49777761288E+02  0.49777761288E+02  0.00000000000E+00 0. -1.
          1   -1    0    0  502    0 -0.00000000000E+00 -0.00000000000E+00 -0.50532878307E+03  0.50532878307E+03  0.00000000000E+00 0. -1.
         23    2    1    2    0    0 -0.25707797347E+01 -0.11806097807E+01 -0.27900467217E+03  0.29313672648E+03  0.89875083165E+02 0.  0.
         23    2    1    2    0    0  0.12219640930E+00  0.64557708482E+02 -0.15210832239E+03  0.19400019690E+03  0.10164360286E+03 0.  0.
        -11    1    4    4    0    0 -0.48079127067E+02  0.51540250917E+02 -0.89186430245E+02  0.11367593969E+03  0.00000000000E+00 0. -1.
         11    1    4    4    0    0  0.48201323477E+02  0.13017457565E+02 -0.62921892143E+02  0.80324257216E+02  0.00000000000E+00 0.  1.
        -11    1    3    3    0    0  0.92138460715E+01 -0.42041235312E+02 -0.95202328741E+02  0.10447891569E+03  0.00000000000E+00 0.  1.
         11    1    3    3    0    0 -0.11784625806E+02  0.40860625531E+02 -0.18380234343E+03  0.18865781079E+03  0.00000000000E+00 0. -1.
          1    1    1    2  501    0  0.24485833254E+01 -0.63377098702E+02 -0.24438027225E+02  0.67969620970E+02  0.00000000000E+00 0. -1.
<scales pt_clust_5="13000.00000" pt_clust_6="13000.00000" pt_clust_7="13000.00000" pt_clust_8="13000.00000" pt_clust_9="63.42438"></scales>
<clustering>
<clus scale="   63.424">  1  9  2 -1</clus>
<clus scale="   89.875">  7  8 -1 -1</clus>
<clus scale="   91.521">  2  7  1 -1</clus>
<clus scale="  101.644">  5  6 -1 -1</clus>
<clus scale="   63.424">  1  5  2 -1</clus>
</clustering>
</event>
<event>
 9    1  0.1399746E-005  0.1755869E+03  0.7546771E-02  0.1172603E+00
          1   -1    0    0  502    0 -0.00000000000E+00  0.00000000000E+00  0.19924207772E+03  0.19924207772E+03  0.00000000000E+00 0. -1.
         21   -1    0    0  501  502  0.00000000000E+00 -0.00000000000E+00 -0.25614061877E+03  0.25614061877E+03  0.00000000000E+00 0.  1.
         23    2    1    2    0    0  0.68496076417E+02 -0.11372718668E+03  0.45311455348E+02  0.16685574422E+03  0.90344484724E+02 0.  0.
         23    2    1    2    0    0 -0.97957800369E+02  0.14995366250E+03 -0.32747716863E+02  0.20482892955E+03  0.93811757635E+02 0.  0.
        -11    1    3    3    0    0 -0.11544134279E+02 -0.55113380126E+02 -0.32458956590E+01  0.56402903682E+02  0.00000000000E+00 0.  1.
         11    1    3    3    0    0  0.80040210695E+02 -0.58613806556E+02  0.48557351007E+02  0.11045284054E+03  0.00000000000E+00 0. -1.
        -11    1    4    4    0    0 -0.95506808851E+02  0.12192685547E+03  0.82582587911E+01  0.15509966944E+03  0.00000000000E+00 0.  1.
         11    1    4    4    0    0 -0.24509915179E+01  0.28026807022E+02 -0.41005975654E+02  0.49729260105E+02  0.00000000000E+00 0. -1.
          1    1    1    2  501    0  0.29461723952E+02 -0.36226475815E+02 -0.69462279533E+02  0.83698022713E+02  0.00000000000E+00 0. -1.
<scales pt_clust_5="13000.00000" pt_clust_6="13000.00000" pt_clust_7="13000.00000" pt_clust_8="13000.00000" pt_clust_9="46.69423"></scales>
<clustering>
<clus scale="   46.694">  2  9  1 -1</clus>
<clus scale="   90.344">  5  6 -1 -1</clus>
<clus scale="   93.812">  7  8 -1 -1</clus>
<clus scale="  173.759">  1  5  2 -1</clus>
<clus scale="   46.694">  2  5  1 -1</clus>
</clustering>
</event>
<event>
 9    1  0.1399746E-005  0.1021208E+03  0.7546771E-02  0.1284871E+00
          3   -1    0    0  502    0 -0.00000000000E+00  0.00000000000E+00  0.24623846901E+03  0.24623846901E+03  0.00000000000E+00 0. -1.
         21   -1    0    0  501  502  0.00000000000E+00 -0.00000000000E+00 -0.10403344909E+03  0.10403344909E+03  0.00000000000E+00 0. -1.
         23    2    1    2    0    0 -0.10939930947E+02  0.45789758891E+02  0.11571477207E+03  0.14197399649E+03  0.67456082706E+02 0.  0.
         23    2    1    2    0    0 -0.67861100544E+01 -0.68607454777E+02  0.87144214029E+02  0.14111337436E+03  0.86981815597E+02 0.  0.
        -13    1    4    4    0    0 -0.26925727442E+02 -0.49362730417E+02  0.96534977611E+02  0.11171694525E+03  0.00000000000E+00 0. -1.
         13    1    4    4    0    0  0.20139617388E+02 -0.19244724359E+02 -0.93907635820E+01  0.29396429117E+02  0.00000000000E+00 0.  1.
        -13    1    3    3    0    0  0.24995440692E+02  0.66299720414E+01  0.58062363775E+02  0.63560732152E+02  0.00000000000E+00 0.  1.
         13    1    3    3    0    0 -0.35935371639E+02  0.39159786850E+02  0.57652408299E+02  0.78413264335E+02  0.00000000000E+00 0. -1.
          3    1    1    2  501    0  0.17726041002E+02  0.22817695886E+02 -0.60653966186E+02  0.67184547250E+02  0.00000000000E+00 0. -1.
<scales pt_clust_5="13000.00000" pt_clust_6="13000.00000" pt_clust_7="13000.00000" pt_clust_8="13000.00000" pt_clust_9="28.89394"></scales>
<clustering>
<clus scale="   28.894">  2  9  1 -1</clus>
<clus scale="   67.456">  7  8 -1 -1</clus>
<clus scale="   86.100">  1  7  2 -1</clus>
<clus scale="   86.982">  5  6 -1 -1</clus>
<clus scale="   28.894">  2  5  1 -1</clus>
</clustering>
</event>
<event>
 9    1  0.1399746E-005  0.9773908E+02  0.7546771E-02  0.1288386E+00
         -1   -1    0    0    0  501 -0.00000000000E+00  0.00000000000E+00  0.30324287198E+02  0.30324287198E+02  0.00000000000E+00 0.  1.
         21   -1    0    0  501  502  0.00000000000E+00 -0.00000000000E+00 -0.67050971675E+03  0.67050971675E+03  0.00000000000E+00 0.  1.
         23    2    1    2    0    0  0.58263389291E+01 -0.33846154013E+02 -0.63782111247E+02  0.11289994347E+03  0.86595214382E+02 0.  0.
         23    2    1    2    0    0  0.80398760792E+00  0.13105540526E+02 -0.44685450480E+03  0.45656804753E+03  0.92752530826E+02 0.  0.
        -11    1    3    3    0    0  0.10389709764E+02  0.27008371083E+02 -0.35040740810E+02  0.45445040368E+02  0.00000000000E+00 0. -1.
         11    1    3    3    0    0 -0.45633708350E+01 -0.60854525096E+02 -0.28741370437E+02  0.67454903103E+02  0.00000000000E+00 0.  1.
        -11    1    4    4    0    0  0.34381207304E+02 -0.25225553455E+02 -0.19440684329E+03  0.19902868306E+03  0.00000000000E+00 0. -1.
         11    1    4    4    0    0 -0.33577219696E+02  0.38331093981E+02 -0.25244766151E+03  0.25753936447E+03  0.00000000000E+00 0.  1.
         -1    1    1    2    0  502 -0.66303265370E+01  0.20740613487E+02 -0.12954881350E+03  0.13136601294E+03  0.00000000000E+00 0.  1.
<scales pt_clust_5="13000.00000" pt_clust_6="13000.00000" pt_clust_7="13000.00000" pt_clust_8="13000.00000" pt_clust_9="21.77462"></scales>
<clustering>
<clus scale="   21.775">  2  9  1 -1</clus>
<clus scale="   86.595">  5  6 -1 -1</clus>
<clus scale="   91.916">  1  5  2 -1</clus>
<clus scale="   92.753">  7  8 -1 -1</clus>
<clus scale="   21.775">  2  5  1 -1</clus>
</clustering>
</event>
<event>
 9    1  0.1399746E-005  0.1198486E+03  0.7546771E-02  0.1243770E+00
          1   -1    0    0  502    0 -0.00000000000E+00  0.00000000000E+00  0.52272367034E+03  0.52272367034E+03  0.00000000000E+00 0. -1.
         21   -1    0    0  501  502  0.00000000000E+00 -0.00000000000E+00 -0.75234278347E+02  0.75234278347E+02  0.00000000000E+00 0.  1.
         23    2    1    2    0    0 -0.62929331909E+02 -0.10430120068E+02  0.25795269706E+03  0.28072639805E+03  0.90547382202E+02 0.  0.
         23    2    1    2    0    0  0.10509787968E+03 -0.57341298263E+01  0.22216521510E+03  0.26151719230E+03  0.89193130415E+02 0.  0.
        -11    1    3    3    0    0 -0.48564120872E+02  0.29186676030E+02  0.81163547922E+02  0.98984127036E+02  0.00000000000E+00 0.  1.
         11    1    3    3    0    0 -0.14365211037E+02 -0.39616796099E+02  0.17678914914E+03  0.18174227101E+03  0.00000000000E+00 0. -1.
        -11    1    4    4    0    0  0.27192745802E+02 -0.50302727269E+01  0.17171887428E+01  0.27707360126E+02  0.00000000000E+00 0. -1.
         11    1    4    4    0    0  0.77905133875E+02 -0.70385709940E+00  0.22044802636E+03  0.23380983218E+03  0.00000000000E+00 0.  1.
          1    1    1    2  501    0 -0.42168547768E+02  0.16164249895E+02 -0.32628520169E+02  0.55714358328E+02  0.00000000000E+00 0. -1.
<scales pt_clust_5="13000.00000" pt_clust_6="13000.00000" pt_clust_7="13000.00000" pt_clust_8="13000.00000" pt_clust_9="45.16048"></scales>
<clustering>
<clus scale="   45.160">  2  9  1 -1</clus>
<clus scale="   89.193">  7  8 -1 -1</clus>
<clus scale="   90.547">  5  6 -1 -1</clus>
<clus scale="  118.829">  2  7  1 -1</clus>
<clus scale="   45.160">  2  5  1 -1</clus>
</clustering>
</event>
<event>
 9    1  0.1399746E-005  0.1057796E+03  0.7546771E-02  0.1268986E+00
          4   -1    0    0  502    0 -0.00000000000E+00  0.00000000000E+00  0.35111041491E+03  0.35111041491E+03  0.00000000000E+00 0. -1.
         21   -1    0    0  501  502  0.00000000000E+00 -0.00000000000E+00 -0.10052219440E+03  0.10052219440E+03  0.00000000000E+00 0. -1.
         23    2    1    2    0    0 -0.34077005266E+02 -0.54879736462E+02  0.23710295817E+03  0.26206090336E+03  0.91022395790E+02 0.  0.
         23    2    1    2    0    0  0.35669478442E+02  0.13856419513E+02  0.69559622361E+02  0.12007507036E+03  0.90084235056E+02 0.  0.
        -11    1    3    3    0    0 -0.29976884803E+02 -0.79655759573E+02  0.16407753313E+03  0.18483801160E+03  0.00000000000E+00 0. -1.
         11    1    3    3    0    0 -0.41001204628E+01  0.24776023111E+02  0.73025425044E+02  0.77222891760E+02  0.00000000000E+00 0.  1.
        -11    1    4    4    0    0 -0.26258359667E+02  0.13369742408E+02  0.44272084264E+02  0.53181471487E+02  0.00000000000E+00 0.  1.
         11    1    4    4    0    0  0.61927838109E+02  0.48667710518E+00  0.25287538096E+02  0.66893598875E+02  0.00000000000E+00 0. -1.
          4    1    1    2  501    0 -0.15924731765E+01  0.41023316949E+02 -0.56074360032E+02  0.69496635583E+02  0.00000000000E+00 0. -1.
<scales pt_clust_5="13000.00000" pt_clust_6="13000.00000" pt_clust_7="13000.00000" pt_clust_8="13000.00000" pt_clust_9="41.05421"></scales>
<clustering>
<clus scale="   41.054">  2  9  1 -1</clus>
<clus scale="   90.084">  7  8 -1 -1</clus>
<clus scale="   91.022">  5  6 -1 -1</clus>
<clus scale="  104.973">  2  7  1 -1</clus>
<clus scale="   41.054">  2  5  1 -1</clus>
</clustering>
</event>
<event>
 9    1  0.1399746E-005  0.1019238E+03  0.7546771E-02  0.1278232E+00
         21   -1    0    0  501  502  0.00000000000E+00  0.00000000000E+00  0.10403801797E+03  0.10403801797E+03  0.00000000000E+00 0. -1.
          2   -1    0    0  502    0 -0.00000000000E+00 -0.00000000000E+00 -0.32807386563E+03  0.32807386563E+03  0.00000000000E+00 0. -1.
         23    2    1    2    0    0  0.10445593237E+02 -0.35422555778E+02 -0.28096212582E+03  0.29913312903E+03  0.95796893809E+02 0.  0.
         23    2    1    2    0    0 -0.19873514075E+02  0.11773014196E+02  0.44877035262E+02  0.10481191657E+03  0.91858745558E+02 0.  0.
        -11    1    4    4    0    0 -0.13167477118E+02 -0.39326553221E+02  0.10244871329E+02  0.42719054653E+02  0.00000000000E+00 0. -1.
         11    1    4    4    0    0 -0.67060369577E+01  0.51099567417E+02  0.34632163934E+02  0.62092861914E+02  0.00000000000E+00 0.  1.
        -13    1    3    3    0    0  0.51912506269E+02 -0.24241834020E+02 -0.19166011660E+03  0.20004043371E+03  0.00000000000E+00 0.  1.
         13    1    3    3    0    0 -0.41466913032E+02 -0.11180721759E+02 -0.89302009217E+02  0.99092695319E+02  0.00000000000E+00 0. -1.
          2    1    1    2  501    0  0.94279208387E+01  0.23649541583E+02  0.12049242897E+02  0.28166837998E+02  0.00000000000E+00 0. -1.
<scales pt_clust_5="13000.00000" pt_clust_6="13000.00000" pt_clust_7="13000.00000" pt_clust_8="13000.00000" pt_clust_9="25.45951"></scales>
<clustering>
<clus scale="   25.460">  1  9  2 -1</clus>
<clus scale="   91.859">  5  6 -1 -1</clus>
<clus scale="   95.797">  7  8 -1 -1</clus>
<clus scale="   98.232">  1  5  2 -1</clus>
<clus scale="   25.460">  1  5  2 -1</clus>
</clustering>
</event>
<event>
 9    1  0.1399746E-005  0.1289231E+03  0.7546771E-02  0.1229773E+00
         21   -1    0    0  501  502  0.00000000000E+00  0.00000000000E+00  0.38936737398E+02  0.38936737398E+02  0.00000000000E+00 0.  1.
          2   -1    0    0  502    0 -0.00000000000E+00 -0.00000000000E+00 -0.60730498061E+03  0.60730498061E+03  0.00000000000E+00 0. -1.
         23    2    1    2    0    0  0.44794183064E+02  0.78127593809E+02 -0.37505506194E+03  0.39611323391E+03  0.90160716739E+02 0.  0.
         23    2    1    2    0    0 -0.26173908328E+02 -0.86060213787E+02 -0.18974805073E+03  0.22957729807E+03  0.92789973387E+02 0.  0.
        -11    1    4    4    0    0  0.19826379321E+02  0.10362485810E+02 -0.34738342807E+02  0.41318505420E+02  0.00000000000E+00 0. -1.
         11    1    4    4    0    0 -0.46000287649E+02 -0.96422699598E+02 -0.15500970792E+03  0.18825879265E+03  0.00000000000E+00 0.  1.
        -11    1    3    3    0    0 -0.26131490903E+02  0.73392751585E+01 -0.74177157809E+02  0.78987154128E+02  0.00000000000E+00 0.  1.
         11    1    3    3    0    0  0.70925673967E+02  0.70788318651E+02 -0.30087790413E+03  0.31712607979E+03  0.00000000000E+00 0. -1.
          2    1    1    2  501    0 -0.18620274736E+02  0.79326199780E+01 -0.35651305384E+01  0.20551186018E+02  0.00000000000E+00 0. -1.
<scales pt_clust_5="13000.00000" pt_clust_6="13000.00000" pt_clust_7="13000.00000" pt_clust_8="13000.00000" pt_clust_9="20.23959"></scales>
<clustering>
<clus scale="   20.240">  1  9  2 -1</clus>
<clus scale="   90.161">  7  8 -1 -1</clus>
<clus scale="   92.790">  5  6 -1 -1</clus>
<clus scale="  127.044">  2  7  1 -1</clus>
<clus scale="   20.240">  1  5  2 -1</clus>
</clustering>
</event>
<event>
 9    1  0.1399746E-005  0.1165500E+03  0.7546771E-02  0.1248990E+00
         21   -1    0    0  501  502  0.00000000000E+00  0.00000000000E+00  0.12712874269E+03  0.12712874269E+03  0.00000000000E+00 0. -1.
          1   -1    0    0  502    0 -0.00000000000E+00 -0.00000000000E+00 -0.26890815781E+03  0.26890815781E+03  0.00000000000E+00 0. -1.
         23    2    1    2    0    0 -0.69357787569E+02 -0.35204940555E+02 -0.13393234377E+03  0.17932910675E+03  0.90394498092E+02 0.  0.
         23    2    1    2    0    0  0.37446710569E+02  0.45795332622E+02  0.72293679481E+02  0.12979972058E+03  0.90122820345E+02 0.  0.
        -11    1    4    4    0    0  0.65062413816E+02  0.43433744081E+02  0.42189480792E+02  0.88879469541E+02  0.00000000000E+00 0. -1.
         11    1    4    4    0    0 -0.27615703247E+02  0.23615885417E+01  0.30104198689E+02  0.40920251037E+02  0.00000000000E+00 0.  1.
        -13    1    3    3    0    0 -0.53167034145E+02  0.15579032212E+02 -0.10490327537E+03  0.11863446779E+03  0.00000000000E+00 0.  1.
         13    1    3    3    0    0 -0.16190753424E+02 -0.50783972767E+02 -0.29029068393E+02  0.60694638958E+02  0.00000000000E+00 0. -1.
          1    1    1    2  501    0  0.31911077000E+02 -0.10590392067E+02 -0.80140750824E+02  0.86908073170E+02  0.00000000000E+00 0. -1.
<scales pt_clust_5="13000.00000" pt_clust_6="13000.00000" pt_clust_7="13000.00000" pt_clust_8="13000.00000" pt_clust_9="33.62253"></scales>
<clustering>
<clus scale="   33.623">  1  9  2 -1</clus>
<clus scale="   90.123">  5  6 -1 -1</clus>
<clus scale="   90.394">  7  8 -1 -1</clus>
<clus scale="  116.339">  1  5  2 -1</clus>
<clus scale="   33.623">  1  5  2 -1</clus>
</clustering>
</event>
<event>
 9    1  0.1399746E-005  0.1193344E+03  0.7546771E-02  0.1244839E+00
         21   -1    0    0  501  502  0.00000000000E+00  0.00000000000E+00  0.82115027047E+02  0.82115027047E+02  0.00000000000E+00 0.  1.
          1   -1    0    0  502    0 -0.00000000000E+00 -0.00000000000E+00 -0.34165910543E+03  0.34165910543E+03  0.00000000000E+00 0. -1.
         23    2    1    2    0    0  0.72314685665E+02 -0.17725276622E+02 -0.23661808925E+03  0.26380689384E+03  0.89790633608E+02 0.  0.
         23    2    1    2    0    0 -0.96502104663E+02  0.15133955774E+02 -0.82684833824E+01  0.13156673413E+03  0.87748190241E+02 0.  0.
        -11    1    4    4    0    0 -0.26195428663E+02 -0.21933772895E+02  0.28028049051E+02  0.44191202856E+02  0.00000000000E+00 0.  1.
         11    1    4    4    0    0 -0.70306676000E+02  0.37067728669E+02 -0.36296532434E+02  0.87375531275E+02  0.00000000000E+00 0. -1.
        -13    1    3    3    0    0  0.23223045845E+01 -0.37210306104E+02 -0.12650597781E+03  0.13188541390E+03  0.00000000000E+00 0.  1.
         13    1    3    3    0    0  0.69992381080E+02  0.19485029481E+02 -0.11011211144E+03  0.13192147994E+03  0.00000000000E+00 0. -1.
          1    1    1    2  501    0  0.24187418998E+02  0.25913208480E+01 -0.14657505760E+02  0.28400504514E+02  0.00000000000E+00 0. -1.
<scales pt_clust_5="13000.00000" pt_clust_6="13000.00000" pt_clust_7="13000.00000" pt_clust_8="13000.00000" pt_clust_9="24.32583"></scales>
<clustering>
<clus scale="   24.326">  1  9  2 -1</clus>
<clus scale="   87.748">  5  6 -1 -1</clus>
<clus scale="   89.791">  7  8 -1 -1</clus>
<clus scale="  117.805">  1  5  2 -1</clus>
<clus scale="   24.326">  1  5  2 -1</clus>
</clustering>
</event>
<event>
 9    1  0.1399746E-005  0.9410479E+02  0.7546771E-02  0.1293534E+00
         21   -1    0    0  501  502  0.00000000000E+00  0.00000000000E+00  0.14310971401E+03  0.14310971401E+03  0.00000000000E+00 0.  1.
          3   -1    0    0  502    0 -0.00000000000E+00 -0.00000000000E+00 -0.89134637266E+02  0.89134637266E+02  0.00000000000E+00 0. -1.
         23    2    1    2    0    0 -0.73359570361E+01 -0.74182664808E+01  0.12633927316E+02  0.93652353972E+02  0.92207919085E+02 0.  0.
         23    2    1    2    0    0  0.34833616098E+02 -0.80574318569E+01  0.42213791490E+02  0.10702650987E+03  0.91620776048E+02 0.  0.
        -11    1    4    4    0    0  0.56995988915E+02 -0.23340131888E+02  0.59699822689E+01  0.61878471194E+02  0.00000000000E+00 0. -1.
         11    1    4    4    0    0 -0.22162372817E+02  0.15282700031E+02  0.36243809222E+02  0.45148038673E+02  0.00000000000E+00 0.  1.
        -11    1    3    3    0    0  0.38376963005E+02  0.15822576263E+02  0.60750013874E+01  0.41952959978E+02  0.00000000000E+00 0. -1.
         11    1    3    3    0    0 -0.45712920041E+02 -0.23240842744E+02  0.65589259288E+01  0.51699393995E+02  0.00000000000E+00 0.  1.
          3    1    1    2  501    0 -0.27497659062E+02  0.15475698338E+02 -0.87264206403E+00  0.31565487437E+02  0.00000000000E+00 0. -1.
<scales pt_clust_5="13000.00000" pt_clust_6="13000.00000" pt_clust_7="13000.00000" pt_clust_8="13000.00000" pt_clust_9="31.55344"></scales>
<clustering>
<clus scale="   31.553">  1  9  2 -1</clus>
<clus scale="   91.621">  5  6 -1 -1</clus>
<clus scale="   92.208">  7  8 -1 -1</clus>
<clus scale="   93.530">  1  5  2 -1</clus>
<clus scale="   31.553">  1  5  2 -1</clus>
</clustering>
</event>
<event>
 9    1  0.1399746E-005  0.1341885E+03  0.7546771E-02  0.1221553E+00
         -4   -1    0    0    0  501 -0.00000000000E+00  0.00000000000E+00  0.80376577195E+02  0.80376577195E+02  0.00000000000E+00 0.  1.
         21   -1    0    0  501  502  0.00000000000E+00 -0.00000000000E+00 -0.12048187664E+04  0.12048187664E+04  0.00000000000E+00 0.  1.
         23    2    1    2    0    0 -0.61608679786E+02  0.61867231788E+02 -0.17597953064E+02  0.12733172199E+03  0.90997228958E+02 0.  0.
         23    2    1    2    0    0  0.61775123414E+02 -0.15687504621E+03 -0.38921746620E+03  0.43397502973E+03  0.91750446553E+02 0.  0.
        -11    1    3    3    0    0 -0.62952216094E+02  0.31337899113E+01  0.74443819204E+01  0.63468267446E+02  0.00000000000E+00 0. -1.
         11    1    3    3    0    0  0.13435363082E+01  0.58733441877E+02 -0.25042334984E+02  0.63863454542E+02  0.00000000000E+00 0.  1.
        -11    1    4    4    0    0 -0.32261660427E+01 -0.75267111874E+02 -0.91601465165E+02  0.11860174829E+03  0.00000000000E+00 0. -1.
         11    1    4    4    0    0  0.65001289456E+02 -0.81607934338E+02 -0.29761600103E+03  0.31537328144E+03  0.00000000000E+00 0.  1.
         -4    1    1    2    0  502 -0.16644362778E+00  0.95007814424E+02 -0.71762676991E+03  0.72388859184E+03  0.00000000000E+00 0.  1.
<scales pt_clust_5="13000.00000" pt_clust_6="13000.00000" pt_clust_7="13000.00000" pt_clust_8="13000.00000" pt_clust_9="95.00796"></scales>
<clustering>
<clus scale="   90.997">  5  6 -1 -1</clus>
<clus scale="   91.750">  7  8 -1 -1</clus>
<clus scale="   95.008">  2  9  1 -1</clus>
<clus scale="  133.675">  1  5  2 -1</clus>
<clus scale="   95.008">  2  5  1 -1</clus>
</clustering>
</event>
<event>
 9    1  0.1399746E-005  0.1074150E+03  0.7546771E-02  0.1268538E+00
         21   -1    0    0  501  502  0.00000000000E+00  0.00000000000E+00  0.94175222465E+03  0.94175222465E+03  0.00000000000E+00 0. -1.
         -3   -1    0    0    0  501 -0.00000000000E+00 -0.00000000000E+00 -0.15621334325E+02  0.15621334325E+02  0.00000000000E+00 0.  1.
         23    2    1    2    0    0 -0.33646614007E+02  0.18761076515E+02  0.32903056171E+03  0.34318768705E+03  0.89624803371E+02 0.  0.
         23    2    1    2    0    0  0.60219149529E+02 -0.63005823225E+01  0.45424237865E+03  0.46834432287E+03  0.96665520754E+02 0.  0.
        -11    1    3    3    0    0  0.14005849351E+02  0.34560325784E+02  0.69760965226E+02  0.79102289497E+02  0.00000000000E+00 0. -1.
         11    1    3    3    0    0 -0.47652463358E+02 -0.15799249269E+02  0.25926959648E+03  0.26408539756E+03  0.00000000000E+00 0.  1.
        -13    1    4    4    0    0  0.77919984753E+02 -0.29532596609E+02  0.29983260572E+03  0.31119654519E+03  0.00000000000E+00 0.  1.
         13    1    4    4    0    0 -0.17700835224E+02  0.23232014287E+02  0.15440977292E+03  0.15714777768E+03  0.00000000000E+00 0. -1.
         -3    1    1    2    0  502 -0.26572535522E+02 -0.12460494193E+02  0.14285794997E+03  0.14584154905E+03  0.00000000000E+00 0.  1.
<scales pt_clust_5="13000.00000" pt_clust_6="13000.00000" pt_clust_7="13000.00000" pt_clust_8="13000.00000" pt_clust_9="29.34900"></scales>
<clustering>
<clus scale="   29.349">  1  9  2 -1</clus>
<clus scale="   89.625">  5  6 -1 -1</clus>
<clus scale="   96.666">  7  8 -1 -1</clus>
<clus scale="  101.125">  2  5  1 -1</clus>
<clus scale="   29.349">  1  5  2 -1</clus>
</clustering>
</event>
<event>
 9    1  0.1399746E-005  0.9469009E+02  0.7546771E-02  0.1293164E+00
         21   -1    0    0  501  502  0.00000000000E+00  0.00000000000E+00  0.12538482934E+03  0.12538482934E+03  0.00000000000E+00 0.  1.
          1   -1    0    0  502    0 -0.00000000000E+00 -0.00000000000E+00 -0.27447076593E+03  0.27447076593E+03  0.00000000000E+00 0. -1.
         23    2    1    2    0    0 -0.32567333406E+02  0.15080351279E+02 -0.14440658316E+03  0.17476311821E+03  0.91656085594E+02 0.  0.
         23    2    1    2    0    0 -0.41702138783E+02 -0.37285102051E+02 -0.67630703123E+02  0.12523318664E+03  0.89331919358E+02 0.  0.
        -11    1    4    4    0    0 -0.47852242143E+02 -0.25841048690E+01  0.11650302885E+01  0.47936123870E+02  0.00000000000E+00 0.  1.
         11    1    4    4    0    0  0.61501033602E+01 -0.34700997182E+02 -0.68795733411E+02  0.77297062767E+02  0.00000000000E+00 0. -1.
        -11    1    3    3    0    0 -0.44202396275E+02 -0.21128826383E+02 -0.11988813924E+03  0.12951233560E+03  0.00000000000E+00 0.  1.
         11    1    3    3    0    0  0.11635062870E+02  0.36209177662E+02 -0.24518443921E+02  0.45250782614E+02  0.00000000000E+00 0. -1.
          1    1    1    2  501    0  0.74269472188E+02  0.22204750772E+02  0.62951349689E+02  0.99859290422E+02  0.00000000000E+00 0. -1.
<scales pt_clust_5="13000.00000" pt_clust_6="13000.00000" pt_clust_7="13000.00000" pt_clust_8="13000.00000" pt_clust_9="77.51778"></scales>
<clustering>
<clus scale="   77.518">  1  9  2 -1</clus>
<clus scale="   89.332">  5  6 -1 -1</clus>
<clus scale="   91.656">  7  8 -1 -1</clus>
<clus scale="   92.442">  1  5  2 -1</clus>
<clus scale="   77.518">  1  5  2 -1</clus>
</clustering>
</event>
<event>
 9    1  0.1399746E-005  0.9828218E+02  0.7546771E-02  0.1284473E+00
          2   -1    0    0  502    0 -0.00000000000E+00  0.00000000000E+00  0.60693368188E+03  0.60693368188E+03  0.00000000000E+00 0.  1.
         21   -1    0    0  501  502  0.00000000000E+00 -0.00000000000E+00 -0.34880147935E+02  0.34880147935E+02  0.00000000000E+00 0. -1.
         23    2    1    2    0    0 -0.12584087133E+02  0.19565296794E+02  0.38478253847E+03  0.39653867547E+03  0.92973970228E+02 0.  0.
         23    2    1    2    0    0  0.54771079120E+01 -0.64498751950E+02  0.14150316399E+03  0.18074439467E+03  0.91952721940E+02 0.  0.
        -13    1    4    4    0    0  0.30100138847E+02 -0.33437975676E+02  0.13273101352E+03  0.14014863013E+03  0.00000000000E+00 0.  1.
         13    1    4    4    0    0 -0.24623030935E+02 -0.31060776274E+02  0.87721504674E+01  0.40595764545E+02  0.00000000000E+00 0. -1.
        -13    1    3    3    0    0 -0.19611332974E+02  0.55532642014E+02  0.25212854670E+03  0.25891559005E+03  0.00000000000E+00 0. -1.
         13    1    3    3    0    0  0.70272458415E+01 -0.35967345220E+02  0.13265399178E+03  0.13762308542E+03  0.00000000000E+00 0.  1.
          2    1    1    2  501    0  0.71069792207E+01  0.44933455156E+02  0.45767831489E+02  0.64530759682E+02  0.00000000000E+00 0.  1.
<scales pt_clust_5="13000.00000" pt_clust_6="13000.00000" pt_clust_7="13000.00000" pt_clust_8="13000.00000" pt_clust_9="45.49203"></scales>
<clustering>
<clus scale="   45.492">  2  9  1 -1</clus>
<clus scale="   91.953">  5  6 -1 -1</clus>
<clus scale="   92.974">  7  8 -1 -1</clus>
<clus scale="   97.317">  2  5  1 -1</clus>
<clus scale="   45.492">  2  5  1 -1</clus>
</clustering>
</event>
<event>
 9    1  0.1399746E-005  0.9800173E+02  0.7546771E-02  0.1284611E+00
          1   -1    0    0  502    0 -0.00000000000E+00  0.00000000000E+00  0.55625054357E+03  0.55625054357E+03  0.00000000000E+00 0. -1.
         21   -1    0    0  501  502  0.00000000000E+00 -0.00000000000E+00 -0.68625407544E+02  0.68625407544E+02  0.00000000000E+00 0. -1.
         23    2    1    2    0    0  0.23340251814E+02  0.52024014139E+02  0.40178544795E+03  0.41571613649E+03  0.90205845442E+02 0.  0.
         23    2    1    2    0    0 -0.25209703119E+01  0.90967598276E+01  0.10780640293E+03  0.14095623661E+03  0.90317959427E+02 0.  0.
        -13    1    4    4    0    0  0.48805158593E+01 -0.25091107249E+02  0.10242308582E+03  0.10556453764E+03  0.00000000000E+00 0.  1.
         13    1    4    4    0    0 -0.74014861712E+01  0.34187867077E+02  0.53833171126E+01  0.35391698970E+02  0.00000000000E+00 0. -1.
        -13    1    3    3    0    0  0.55512024957E+01  0.73216479944E+02  0.34263264068E+03  0.35041203638E+03  0.00000000000E+00 0. -1.
         13    1    3    3    0    0  0.17789049319E+02 -0.21192465804E+02  0.59152807268E+02  0.65304100103E+02  0.00000000000E+00 0.  1.
          1    1    1    2  501    0 -0.20819281503E+02 -0.61120773967E+02 -0.21966714857E+02  0.68203578016E+02  0.00000000000E+00 0. -1.
<scales pt_clust_5="13000.00000" pt_clust_6="13000.00000" pt_clust_7="13000.00000" pt_clust_8="13000.00000" pt_clust_9="64.56928"></scales>
<clustering>
<clus scale="   64.569">  2  9  1 -1</clus>
<clus scale="   90.206">  7  8 -1 -1</clus>
<clus scale="   90.318">  5  6 -1 -1</clus>
<clus scale="   97.898">  1  7  2 -1</clus>
<clus scale="   64.569">  2  5  1 -1</clus>
</clustering>
</event>
<event>
 9    1  0.1399746E-005  0.1040458E+03  0.7546771E-02  0.1272907E+00
          1   -1    0    0  502    0 -0.00000000000E+00  0.00000000000E+00  0.12984760882E+03  0.12984760882E+03  0.00000000000E+00 0. -1.
         21   -1    0    0  501  502  0.00000000000E+00 -0.00000000000E+00 -0.12544960113E+03  0.12544960113E+03  0.00000000000E+00 0.  1.
         23    2    1    2    0    0  0.29751928752E+02 -0.13298366163E+02  0.29170220460E+02  0.10344676069E+03  0.93745969136E+02 0.  0.
         23    2    1    2    0    0 -0.57442623656E+02  0.28560358969E+02 -0.46259133341E+00  0.11196736132E+03  0.91766698177E+02 0.  0.
        -11    1    3    3    0    0  0.21922022566E+02  0.34223829573E+02  0.36624814961E+02  0.54710352356E+02  0.00000000000E+00 0.  1.
         11    1    3    3    0    0  0.78299061856E+01 -0.47522195736E+02 -0.74545945007E+01  0.48736408337E+02  0.00000000000E+00 0. -1.
        -13    1    4    4    0    0 -0.78349701000E+02  0.36938761332E+02  0.98809156879E+01  0.87182453684E+02  0.00000000000E+00 0.  1.
         13    1    4    4    0    0  0.20907077344E+02 -0.83784023631E+01 -0.10343507021E+02  0.24784907640E+02  0.00000000000E+00 0. -1.
          1    1    1    2  501    0  0.27690694904E+02 -0.15261992806E+02 -0.24309621436E+02  0.39883087933E+02  0.00000000000E+00 0. -1.
<scales pt_clust_5="13000.00000" pt_clust_6="13000.00000" pt_clust_7="13000.00000" pt_clust_8="13000.00000" pt_clust_9="31.61808"></scales>
<clustering>
<clus scale="   31.618">  2  9  1 -1</clus>
<clus scale="   91.767">  7  8 -1 -1</clus>
<clus scale="   93.746">  5  6 -1 -1</clus>
<clus scale="  102.266">  2  7  1 -1</clus>
<clus scale="   31.618">  2  5  1 -1</clus>
</clustering>
</event>
<event>
 9    1  0.1399746E-005  0.1206285E+03  0.7546771E-02  0.1242261E+00
         21   -1    0    0  501  502  0.00000000000E+00  0.00000000000E+00  0.10546229559E+03  0.10546229559E+03  0.00000000000E+00 0. -1.
         -3   -1    0    0    0  501 -0.00000000000E+00 -0.00000000000E+00 -0.17334617117E+03  0.17334617117E+03  0.00000000000E+00 0.  1.
         23    2    1    2    0    0  0.45454673477E+02  0.62227664396E+02 -0.40587805903E+02  0.12612801190E+03  0.91227714220E+02 0.  0.
         23    2    1    2    0    0 -0.29617471565E+02 -0.76761293389E+02 -0.38696385541E+02  0.12834918818E+03  0.90590358579E+02 0.  0.
        -11    1    4    4    0    0 -0.59492855365E+02 -0.53034555031E+02 -0.94097136746E+01  0.80253389824E+02  0.00000000000E+00 0.  1.
         11    1    4    4    0    0  0.29875383800E+02 -0.23726738358E+02 -0.29286671867E+02  0.48095798354E+02  0.00000000000E+00 0. -1.
        -13    1    3    3    0    0  0.10665427857E+02  0.17421478691E+02 -0.62166096433E+02  0.65436097201E+02  0.00000000000E+00 0.  1.
         13    1    3    3    0    0  0.34789245620E+02  0.44806185705E+02  0.21578290530E+02  0.60691914704E+02  0.00000000000E+00 0. -1.
         -3    1    1    2    0  502 -0.15837201912E+02  0.14533628993E+02  0.11400315872E+02  0.24331266677E+02  0.00000000000E+00 0.  1.
<scales pt_clust_5="13000.00000" pt_clust_6="13000.00000" pt_clust_7="13000.00000" pt_clust_8="13000.00000" pt_clust_9="21.49519"></scales>
<clustering>
<clus scale="   21.495">  1  9  2 -1</clus>
<clus scale="   90.590">  5  6 -1 -1</clus>
<clus scale="   91.228">  7  8 -1 -1</clus>
<clus scale="  120.147">  1  5  2 -1</clus>
<clus scale="   21.495">  1  5  2 -1</clus>
</clustering>
</event>
<event>
 9    1  0.1399746E-005  0.1480868E+03  0.7546771E-02  0.1202941E+00
         -1   -1    0    0    0  501 -0.00000000000E+00  0.00000000000E+00  0.38626096878E+03  0.38626096878E+03  0.00000000000E+00 0.  1.
         21   -1    0    0  501  502  0.00000000000E+00 -0.00000000000E+00 -0.11222510876E+03  0.11222510876E+03  0.00000000000E+00 0.  1.
         23    2    1    2    0    0  0.12311964750E+02  0.10217697275E+03  0.15184061032E+03  0.20437243798E+03  0.90115504940E+02 0.  0.
         23    2    1    2    0    0  0.34538349168E+02 -0.15748976889E+03  0.49526772488E+02  0.19147268811E+03  0.90625406098E+02 0.  0.
        -11    1    4    4    0    0 -0.14402095089E+02 -0.14214046673E+02 -0.16682321127E+02  0.26225165471E+02  0.00000000000E+00 0. -1.
         11    1    4    4    0    0  0.48940444257E+02 -0.14327572222E+03  0.66209093616E+02  0.16524752264E+03  0.00000000000E+00 0.  1.
        -11    1    3    3    0    0  0.37123439879E+02  0.78784643891E+02  0.58286304875E+02  0.10479724823E+03  0.00000000000E+00 0.  1.
         11    1    3    3    0    0 -0.24811475128E+02  0.23392328859E+02  0.93554305440E+02  0.99575189751E+02  0.00000000000E+00 0. -1.
         -1    1    1    2    0  502 -0.46850313919E+02  0.55312796145E+02  0.72668477216E+02  0.10264095144E+03  0.00000000000E+00 0.  1.
<scales pt_clust_5="13000.00000" pt_clust_6="13000.00000" pt_clust_7="13000.00000" pt_clust_8="13000.00000" pt_clust_9="72.48767"></scales>
<clustering>
<clus scale="   72.488">  2  9  1 -1</clus>
<clus scale="   90.116">  7  8 -1 -1</clus>
<clus scale="   90.625">  5  6 -1 -1</clus>
<clus scale="  147.775">  1  7  2 -1</clus>
<clus scale="   72.488">  2  5  1 -1</clus>
</clustering>
</event>
<event>
 9    1  0.1399746E-005  0.9777192E+02  0.7546771E-02  0.1285675E+00
          4   -1    0    0  502    0 -0.00000000000E+00  0.00000000000E+00  0.98411270600E+02  0.98411270600E+02  0.00000000000E+00 0. -1.
         21   -1    0    0  501  502  0.00000000000E+00 -0.00000000000E+00 -0.24634075553E+03  0.24634075553E+03  0.00000000000E+00 0.  1.
         23    2    1    2    0    0  0.13423194836E+02 -0.33256476089E+02  0.49509592600E+02  0.10927545384E+03  0.90574553221E+02 0.  0.
         23    2    1    2    0    0  0.44892740920E+01  0.21780985945E+02 -0.19128461898E+03  0.21333112632E+03  0.91792151451E+02 0.  0.
        -13    1    4    4    0    0  0.19492517795E+02 -0.26757000090E+02 -0.31621358965E+02  0.45779969927E+02  0.00000000000E+00 0. -1.
         13    1    4    4    0    0 -0.15003243703E+02  0.48537986035E+02 -0.15966326001E+03  0.16755115639E+03  0.00000000000E+00 0.  1.
        -13    1    3    3    0    0 -0.15726871038E+02  0.22673205545E+02 -0.22504773527E+01  0.27685255473E+02  0.00000000000E+00 0.  1.
         13    1    3    3    0    0  0.29150065874E+02 -0.55929681634E+02  0.51760069952E+02  0.81590198367E+02  0.00000000000E+00 0. -1.
          4    1    1    2  501    0 -0.17912468928E+02  0.11475490144E+02 -0.61544585501E+01  0.22145445969E+02  0.00000000000E+00 0. -1.
<scales pt_clust_5="13000.00000" pt_clust_6="13000.00000" pt_clust_7="13000.00000" pt_clust_8="13000.00000" pt_clust_9="21.27308"></scales>
<clustering>
<clus scale="   21.273">  2  9  1 -1</clus>
<clus scale="   90.575">  7  8 -1 -1</clus>
<clus scale="   91.792">  5  6 -1 -1</clus>
<clus scale="   96.630">  1  7  2 -1</clus>
<clus scale="   21.273">  2  5  1 -1</clus>
</clustering>
</event>
<event>
 9    1  0.1399746E-005  0.1253832E+03  0.7546771E-02  0.1234696E+00
         21   -1    0    0  501  502  0.00000000000E+00  0.00000000000E+00  0.24343033489E+02  0.24343033489E+02  0.00000000000E+00 0.  1.
          2   -1    0    0  502    0 -0.00000000000E+00 -0.00000000000E+00 -0.97856459309E+03  0.97856459309E+03  0.00000000000E+00 0. -1.
         23    2    1    2    0    0 -0.81365896538E+02  0.56387861892E+02 -0.56804618403E+03  0.58356689117E+03  0.89854600276E+02 0.  0.
         23    2    1    2    0    0  0.39926568382E+02 -0.62213516765E+02 -0.32332400287E+03  0.34383278071E+03  0.90652731492E+02 0.  0.
        -11    1    3    3    0    0  0.97055404199E+01  0.33756871490E+02 -0.94601186592E+02  0.10091138881E+03  0.00000000000E+00 0.  1.
         11    1    3    3    0    0 -0.91071436957E+02  0.22630990401E+02 -0.47344499744E+03  0.48265550236E+03  0.00000000000E+00 0. -1.
        -13    1    4    4    0    0 -0.21837174768E+02 -0.35872927147E+01 -0.24064994352E+02  0.32693345256E+02  0.00000000000E+00 0. -1.
         13    1    4    4    0    0  0.61763743150E+02 -0.58626224051E+02 -0.29925900852E+03  0.31113943545E+03  0.00000000000E+00 0.  1.
          2    1    1    2  501    0  0.41439328156E+02  0.58256548737E+01 -0.62851372700E+02  0.75507954700E+02  0.00000000000E+00 0. -1.
<scales pt_clust_5="13000.00000" pt_clust_6="13000.00000" pt_clust_7="13000.00000" pt_clust_8="13000.00000" pt_clust_9="41.84682"></scales>
<clustering>
<clus scale="   41.847">  1  9  2 -1</clus>
<clus scale="   89.855">  5  6 -1 -1</clus>
<clus scale="   90.653">  7  8 -1 -1</clus>
<clus scale="  124.807">  2  5  1 -1</clus>
<clus scale="   41.847">  1  5  2 -1</clus>
</clustering>
</event>
<event>
 9    1  0.1399746E-005  0.9977342E+02  0.7546771E-02  0.1282023E+00
         21   -1    0    0  501  502  0.00000000000E+00  0.00000000000E+00  0.45469220419E+03  0.45469220419E+03  0.00000000000E+00 0.  1.
          1   -1    0    0  502    0 -0.00000000000E+00 -0.00000000000E+00 -0.33720384008E+02  0.33720384008E+02  0.00000000000E+00 0. -1.
         23    2    1    2    0    0  0.29268114269E+02  0.76787809872E+01  0.11687656027E+03  0.15156397825E+03  0.91629269194E+02 0.  0.
         23    2    1    2    0    0 -0.47089789499E+02 -0.20665458682E+02  0.15429827589E+03  0.18543724205E+03  0.89075829150E+02 0.  0.
        -11    1    3    3    0    0 -0.21916209070E+02 -0.24103681223E+02  0.22487960305E+02  0.39585553264E+02  0.00000000000E+00 0.  1.
         11    1    3    3    0    0  0.51184323339E+02  0.31782462210E+02  0.94388599963E+02  0.11197842499E+03  0.00000000000E+00 0. -1.
        -13    1    4    4    0    0 -0.35376477182E+02 -0.46040129770E+02  0.14465504256E+03  0.15587260833E+03  0.00000000000E+00 0.  1.
         13    1    4    4    0    0 -0.11713312318E+02  0.25374671088E+02  0.96432333275E+01  0.29564633725E+02  0.00000000000E+00 0. -1.
          1    1    1    2  501    0  0.17821675230E+02  0.12986677695E+02  0.14979698402E+03  0.15141136790E+03  0.00000000000E+00 0. -1.
<scales pt_clust_5="13000.00000" pt_clust_6="13000.00000" pt_clust_7="13000.00000" pt_clust_8="13000.00000" pt_clust_9="22.05144"></scales>
<clustering>
<clus scale="   22.051">  1  9  2 -1</clus>
<clus scale="   89.076">  7  8 -1 -1</clus>
<clus scale="   91.629">  5  6 -1 -1</clus>
<clus scale="   97.434">  1  7  2 -1</clus>
<clus scale="   22.051">  1  5  2 -1</clus>
</clustering>
</event>
<event>
 9    1  0.1399746E-005  0.1012352E+03  0.7546771E-02  0.1279397E+00
          1   -1    0    0  502    0 -0.00000000000E+00  0.00000000000E+00  0.14543445055E+03  0.14543445055E+03  0.00000000000E+00 0. -1.
         21   -1    0    0  501  502  0.00000000000E+00 -0.00000000000E+00 -0.30614923586E+03  0.30614923586E+03  0.00000000000E+00 0.  1.
         23    2    1    2    0    0 -0.16580601765E+02  0.30326334233E+02  0.10978209747E+03  0.14757261601E+03  0.92363224102E+02 0.  0.
         23    2    1    2    0    0  0.31300244091E+02 -0.15102370824E+01 -0.16177574821E+03  0.19057685850E+03  0.95740065761E+02 0.  0.
        -11    1    3    3    0    0  0.20932660744E+02  0.39731123605E+01 -0.67474924837E+01  0.22349285503E+02  0.00000000000E+00 0.  1.
         11    1    3    3    0    0 -0.37513262509E+02  0.26353221872E+02  0.11652958995E+03  0.12522333050E+03  0.00000000000E+00 0. -1.
        -13    1    4    4    0    0  0.65312361162E+02  0.54887572111E+01 -0.96758412112E+02  0.11686753737E+03  0.00000000000E+00 0.  1.
         13    1    4    4    0    0 -0.34012117071E+02 -0.69989942935E+01 -0.65017336098E+02  0.73709321134E+02  0.00000000000E+00 0. -1.
          1    1    1    2  501    0 -0.14719642326E+02 -0.28816097150E+02 -0.10872113457E+03  0.11343421189E+03  0.00000000000E+00 0. -1.
<scales pt_clust_5="13000.00000" pt_clust_6="13000.00000" pt_clust_7="13000.00000" pt_clust_8="13000.00000" pt_clust_9="32.35793"></scales>
<clustering>
<clus scale="   32.358">  2  9  1 -1</clus>
<clus scale="   92.363">  5  6 -1 -1</clus>
<clus scale="   95.740">  7  8 -1 -1</clus>
<clus scale="   98.048">  1  5  2 -1</clus>
<clus scale="   32.358">  2  5  1 -1</clus>
</clustering>
</event>
<event>
 9    1  0.1399746E-005  0.9209966E+02  0.7546771E-02  0.1299182E+00
         -2   -1    0    0    0  501 -0.00000000000E+00  0.00000000000E+00  0.20040243001E+03  0.20040243001E+03  0.00000000000E+00 0.  1.
         21   -1    0    0  501  502  0.00000000000E+00 -0.00000000000E+00 -0.17567422495E+03  0.17567422495E+03  0.00000000000E+00 0.  1.
         23    2    1    2    0    0  0.82315504085E+01 -0.61582794924E+00  0.13831373673E+03  0.16579375544E+03  0.91042528019E+02 0.  0.
         23    2    1    2    0    0 -0.25094955668E+02  0.35442790368E+02 -0.95486452862E+01  0.99283055032E+02  0.88769365215E+02 0.  0.
        -11    1    3    3    0    0 -0.24631696997E+02  0.15110059950E+02  0.72943311152E+01  0.29803383618E+02  0.00000000000E+00 0. -1.
         11    1    3    3    0    0  0.32863247405E+02 -0.15725887899E+02  0.13101940562E+03  0.13599037182E+03  0.00000000000E+00 0.  1.
        -13    1    4    4    0    0 -0.18003648814E+02 -0.26804921538E+02  0.97464778440E+01  0.33728756568E+02  0.00000000000E+00 0.  1.
         13    1    4    4    0    0 -0.70913068542E+01  0.62247711906E+02 -0.19295123130E+02  0.65554298463E+02  0.00000000000E+00 0. -1.
         -2    1    1    2    0  502  0.16863405259E+02 -0.34826962418E+02 -0.10403688639E+03  0.11099984449E+03  0.00000000000E+00 0.  1.
<scales pt_clust_5="13000.00000" pt_clust_6="13000.00000" pt_clust_7="13000.00000" pt_clust_8="13000.00000" pt_clust_9="38.69485"></scales>
<clustering>
<clus scale="   38.695">  2  9  1 -1</clus>
<clus scale="   88.769">  7  8 -1 -1</clus>
<clus scale="   89.853">  2  7  1 -1</clus>
<clus scale="   91.043">  5  6 -1 -1</clus>
<clus scale="   38.695">  2  5  1 -1</clus>
</clustering>
</event>
<event>
 9    1  0.1399746E-005  0.1803753E+03  0.7546771E-02  0.1168412E+00
         21   -1    0    0  501  502  0.00000000000E+00  0.00000000000E+00  0.96503505480E+02  0.96503505480E+02  0.00000000000E+00 0. -1.
         -3   -1    0    0    0  501 -0.00000000000E+00 -0.00000000000E+00 -0.52963122521E+03  0.52963122521E+03  0.00000000000E+00 0.  1.
         23    2    1    2    0    0 -0.59491794596E+02 -0.12891795185E+03 -0.32271078322E+03  0.36719279894E+03  0.10261184170E+03 0.  0.
         23    2    1    2    0    0  0.48082131239E+02  0.15689931320E+03 -0.12300466097E+03  0.22620681592E+03  0.95446797332E+02 0.  0.
        -11    1    4    4    0    0  0.24776838629E+02  0.83110456099E+02 -0.12091001019E+03  0.14879674126E+03  0.00000000000E+00 0.  1.
         11    1    4    4    0    0  0.23305292611E+02  0.73788857106E+02 -0.20946507728E+01  0.77410074658E+02  0.00000000000E+00 0. -1.
        -13    1    3    3    0    0  0.19494964217E+02 -0.55754229788E+02 -0.64624398034E+02  0.87549417990E+02  0.00000000000E+00 0.  1.
         13    1    3    3    0    0 -0.78986758812E+02 -0.73163722060E+02 -0.25808638518E+03  0.27964338095E+03  0.00000000000E+00 0. -1.
         -3    1    1    2    0  502  0.11409663356E+02 -0.27981361357E+02  0.12587724454E+02  0.32735115827E+02  0.00000000000E+00 0.  1.
<scales pt_clust_5="13000.00000" pt_clust_6="13000.00000" pt_clust_7="13000.00000" pt_clust_8="13000.00000" pt_clust_9="30.21816"></scales>
<clustering>
<clus scale="   30.218">  1  9  2 -1</clus>
<clus scale="   95.447">  5  6 -1 -1</clus>
<clus scale="  102.612">  7  8 -1 -1</clus>
<clus scale="  176.398">  1  5  2 -1</clus>
<clus scale="   30.218">  1  5  2 -1</clus>
</clustering>
</event>
<event>
 9    1  0.1399746E-005  0.1022150E+03  0.7546771E-02  0.1276421E+00
         -1   -1    0    0    0  501 -0.00000000000E+00  0.00000000000E+00  0.51576006598E+03  0.51576006598E+03  0.00000000000E+00 0.  1.
         21   -1    0    0  501  502  0.00000000000E+00 -0.00000000000E+00 -0.59571858982E+02  0.59571858982E+02  0.00000000000E+00 0.  1.
         23    2    1    2    0    0  0.88568796215E+01 -0.39402503163E+02  0.41405388788E+03  0.42589316539E+03  0.91177654553E+02 0.  0.
         23    2    1    2    0    0 -0.34954575654E+02  0.54507944859E+02  0.35880354653E+02  0.11864304268E+03  0.92713716970E+02 0.  0.
        -11    1    3    3    0    0  0.25967564587E+02  0.23039138870E+02  0.13011036606E+03  0.13466188654E+03  0.00000000000E+00 0. -1.
         11    1    3    3    0    0 -0.17110684965E+02 -0.62441642033E+02  0.28394352181E+03  0.29123127885E+03  0.00000000000E+00 0.  1.
        -13    1    4    4    0    0  0.13456713427E+02 -0.17352616609E+02 -0.54781874659E+01  0.22631990132E+02  0.00000000000E+00 0. -1.
         13    1    4    4    0    0 -0.48411289081E+02  0.71860561468E+02  0.41358542119E+02  0.96011052547E+02  0.00000000000E+00 0.  1.
         -1    1    1    2    0  502  0.26097696033E+02 -0.15105441696E+02  0.62539644641E+01  0.30795716887E+02  0.00000000000E+00 0.  1.
<scales pt_clust_5="13000.00000" pt_clust_6="13000.00000" pt_clust_7="13000.00000" pt_clust_8="13000.00000" pt_clust_9="30.15401"></scales>
<clustering>
<clus scale="   30.154">  2  9  1 -1</clus>
<clus scale="   91.178">  5  6 -1 -1</clus>
<clus scale="   92.714">  7  8 -1 -1</clus>
<clus scale="  100.824">  1  5  2 -1</clus>
<clus scale="   30.154">  2  5  1 -1</clus>
</clustering>
</event>
<event>
 9    1  0.1399746E-005  0.1408413E+03  0.7546771E-02  0.1212448E+00
         21   -1    0    0  501  502  0.00000000000E+00  0.00000000000E+00  0.14386031754E+03  0.14386031754E+03  0.00000000000E+00 0.  1.
         -2   -1    0    0    0  501 -0.00000000000E+00 -0.00000000000E+00 -0.38411017296E+03  0.38411017296E+03  0.00000000000E+00 0.  1.
         23    2    1    2    0    0 -0.23576139815E+02 -0.10060015919E+03 -0.27374925508E+03  0.30661388343E+03  0.91636196202E+02 0.  0.
         23    2    1    2    0    0  0.13327961797E+02  0.12064285146E+03 -0.29682410458E+02  0.15428443850E+03  0.90500333143E+02 0.  0.
        -11    1    4    4    0    0 -0.38276121027E+02  0.61106412406E+02 -0.78701072046E+01  0.72532707556E+02  0.00000000000E+00 0. -1.
         11    1    4    4    0    0  0.51604082824E+02  0.59536439051E+02 -0.21812303253E+02  0.81751730943E+02  0.00000000000E+00 0.  1.
        -13    1    3    3    0    0  0.21993594253E+02 -0.55504699306E+02 -0.20084180977E+03  0.20952785587E+03  0.00000000000E+00 0.  1.
         13    1    3    3    0    0 -0.45569734068E+02 -0.45095459882E+02 -0.72907445313E+02  0.97086027558E+02  0.00000000000E+00 0. -1.
         -2    1    1    2    0  502  0.10248178017E+02 -0.20042692269E+02  0.63181810129E+02  0.67072168574E+02  0.00000000000E+00 0.  1.
<scales pt_clust_5="13000.00000" pt_clust_6="13000.00000" pt_clust_7="13000.00000" pt_clust_8="13000.00000" pt_clust_9="22.51077"></scales>
<clustering>
<clus scale="   22.511">  1  9  2 -1</clus>
<clus scale="   90.500">  5  6 -1 -1</clus>
<clus scale="   91.636">  7  8 -1 -1</clus>
<clus scale="  140.105">  1  5  2 -1</clus>
<clus scale="   22.511">  1  5  2 -1</clus>
</clustering>
</event>
<event>
 9    1  0.1399746E-005  0.1761085E+03  0.7546771E-02  0.1171676E+00
          1   -1    0    0  502    0 -0.00000000000E+00  0.00000000000E+00  0.45027886083E+03  0.45027886083E+03  0.00000000000E+00 0. -1.
         21   -1    0    0  501  502  0.00000000000E+00 -0.00000000000E+00 -0.19490610666E+03  0.19490610666E+03  0.00000000000E+00 0.  1.
         23    2    1    2    0    0  0.89570999712E+02  0.13389891398E+03  0.33240039026E+03  0.38089033178E+03  0.92927618316E+02 0.  0.
         23    2    1    2    0    0 -0.82309768162E+02 -0.87405767683E+02  0.23416062228E+02  0.15337450829E+03  0.92524384157E+02 0.  0.
        -13    1    4    4    0    0  0.10684719586E+02 -0.43894652979E+02 -0.82675643335E+01  0.45926641645E+02  0.00000000000E+00 0.  1.
         13    1    4    4    0    0 -0.92994487748E+02 -0.43511114704E+02  0.31683626562E+02  0.10744786664E+03  0.00000000000E+00 0. -1.
        -13    1    3    3    0    0  0.29178157336E+02  0.10529872538E+02  0.13818744635E+02  0.33958810116E+02  0.00000000000E+00 0.  1.
         13    1    3    3    0    0  0.60392842376E+02  0.12336904144E+03  0.31858164563E+03  0.34693152167E+03  0.00000000000E+00 0. -1.
          1    1    1    2  501    0 -0.72612315506E+01 -0.46493146296E+02 -0.10044369832E+03  0.11092012743E+03  0.00000000000E+00 0. -1.
<scales pt_clust_5="13000.00000" pt_clust_6="13000.00000" pt_clust_7="13000.00000" pt_clust_8="13000.00000" pt_clust_9="47.05675"></scales>
<clustering>
<clus scale="   47.057">  2  9  1 -1</clus>
<clus scale="   92.524">  5  6 -1 -1</clus>
<clus scale="   92.928">  7  8 -1 -1</clus>
<clus scale="  175.896">  2  5  1 -1</clus>
<clus scale="   47.057">  2  5  1 -1</clus>
</clustering>
</event>
<event>
 9    1  0.1399746E-005  0.1038561E+03  0.7546771E-02  0.1277226E+00
          1   -1    0    0  502    0 -0.00000000000E+00  0.00000000000E+00  0.23598474045E+03  0.23598474045E+03  0.00000000000E+00 0. -1.
         21   -1    0    0  501  502  0.00000000000E+00 -0.00000000000E+00 -0.11500890358E+03  0.11500890358E+03  0.00000000000E+00 0. -1.
         23    2    1    2    0    0  0.19325848319E+01 -0.25221714521E+02  0.18156101907E+03  0.20449596300E+03  0.90632916045E+02 0.  0.
         23    2    1    2    0    0 -0.18682582919E+02  0.40928373374E+02 -0.55102179935E+02  0.12288995174E+03  0.10020738174E+03 0.  0.
        -13    1    3    3    0    0  0.44106230330E+02 -0.17498316750E+02  0.66394971707E+02  0.81607860596E+02  0.00000000000E+00 0.  1.
         13    1    3    3    0    0 -0.42173645498E+02 -0.77233977708E+01  0.11516604736E+03  0.12288810241E+03  0.00000000000E+00 0. -1.
        -13    1    4    4    0    0 -0.23186247496E+02  0.72963264677E+02 -0.45869754246E+02  0.89248386091E+02  0.00000000000E+00 0. -1.
         13    1    4    4    0    0  0.45036645769E+01 -0.32034891303E+02 -0.92324256885E+01  0.33641565652E+02  0.00000000000E+00 0.  1.
          1    1    1    2  501    0  0.16749998087E+02 -0.15706658853E+02 -0.54830022697E+01  0.23607729288E+02  0.00000000000E+00 0. -1.
<scales pt_clust_5="13000.00000" pt_clust_6="13000.00000" pt_clust_7="13000.00000" pt_clust_8="13000.00000" pt_clust_9="22.96218"></scales>
<clustering>
<clus scale="   22.962">  2  9  1 -1</clus>
<clus scale="   90.633">  5  6 -1 -1</clus>
<clus scale="   94.651">  1  5  2 -1</clus>
<clus scale="  100.207">  7  8 -1 -1</clus>
<clus scale="   22.962">  2  5  1 -1</clus>
</clustering>
</event>
<event>
 9    1  0.1399746E-005  0.1144656E+03  0.7546771E-02  0.1253540E+00
          1   -1    0    0  502    0 -0.00000000000E+00  0.00000000000E+00  0.15299374723E+03  0.15299374723E+03  0.00000000000E+00 0. -1.
         21   -1    0    0  501  502  0.00000000000E+00 -0.00000000000E+00 -0.22624447966E+03  0.22624447966E+03  0.00000000000E+00 0. -1.
         23    2    1    2    0    0 -0.46943479414E+02 -0.42514916471E+02  0.51211275141E+02  0.12208395208E+03  0.90943324502E+02 0.  0.
         23    2    1    2    0    0  0.46953432196E+02  0.63800039031E+02 -0.16836564259E+03  0.20836302858E+03  0.93771489800E+02 0.  0.
        -11    1    3    3    0    0  0.21688842783E+02 -0.35174471837E+02  0.13759502505E+02  0.43554256732E+02  0.00000000000E+00 0.  1.
         11    1    3    3    0    0 -0.68632322197E+02 -0.73404446339E+01  0.37451772636E+02  0.78529695346E+02  0.00000000000E+00 0. -1.
        -13    1    4    4    0    0  0.22661369464E+02  0.17371073618E+02  0.34254884840E+01  0.28758056888E+02  0.00000000000E+00 0. -1.
         13    1    4    4    0    0  0.24292062732E+02  0.46428965412E+02 -0.17179113108E+03  0.17960497169E+03  0.00000000000E+00 0.  1.
          1    1    1    2  501    0 -0.99527821483E-02 -0.21285122559E+02  0.43903635019E+02  0.48791246236E+02  0.00000000000E+00 0. -1.
<scales pt_clust_5="13000.00000" pt_clust_6="13000.00000" pt_clust_7="13000.00000" pt_clust_8="13000.00000" pt_clust_9="21.28514"></scales>
<clustering>
<clus scale="   21.285">  2  9  1 -1</clus>
<clus scale="   90.943">  5  6 -1 -1</clus>
<clus scale="   93.771">  7  8 -1 -1</clus>
<clus scale="  112.160">  1  5  2 -1</clus>
<clus scale="   21.285">  2  5  1 -1</clus>
</clustering>
</event>
<event>
 9    1  0.1399746E-005  0.1627340E+03  0.7546771E-02  0.1185869E+00
         21   -1    0    0  501  502  0.00000000000E+00  0.00000000000E+00  0.19705087688E+03  0.19705087688E+03  0.00000000000E+00 0.  1.
          2   -1    0    0  502    0 -0.00000000000E+00 -0.00000000000E+00 -0.21382946799E+03  0.21382946799E+03  0.00000000000E+00 0. -1.
         23    2    1    2    0    0 -0.89192804451E+02  0.92058640142E+02 -0.10003084861E+03  0.18685519152E+03  0.92079000505E+02 0.  0.
         23    2    1    2    0    0  0.11042536613E+03 -0.10190106669E+03  0.48377098727E+02  0.18202548984E+03  0.90638548060E+02 0.  0.
        -13    1    3    3    0    0 -0.14072418894E+02  0.18294314463E+02 -0.75231081047E+02  0.78691997501E+02  0.00000000000E+00 0.  1.
         13    1    3    3    0    0 -0.75120385557E+02  0.73764325679E+02 -0.24799767558E+02  0.10816319402E+03  0.00000000000E+00 0. -1.
        -13    1    4    4    0    0 -0.21003470854E+00 -0.42380221483E+02  0.36326363623E+02  0.55818742207E+02  0.00000000000E+00 0. -1.
         13    1    4    4    0    0  0.11063540084E+03 -0.59520845209E+02  0.12050735103E+02  0.12620674764E+03  0.00000000000E+00 0.  1.
          2    1    1    2  501    0 -0.21232561675E+02  0.98424265501E+01  0.34875158772E+02  0.41999663511E+02  0.00000000000E+00 0. -1.
<scales pt_clust_5="13000.00000" pt_clust_6="13000.00000" pt_clust_7="13000.00000" pt_clust_8="13000.00000" pt_clust_9="23.40289"></scales>
<clustering>
<clus scale="   23.403">  1  9  2 -1</clus>
<clus scale="   90.639">  7  8 -1 -1</clus>
<clus scale="   92.079">  5  6 -1 -1</clus>
<clus scale="  161.923">  1  7  2 -1</clus>
<clus scale="   23.403">  1  5  2 -1</clus>
</clustering>
</event>
<event>
 9    1  0.1399746E-005  0.1645321E+03  0.7546771E-02  0.1183823E+00
         -3   -1    0    0    0  501 -0.00000000000E+00  0.00000000000E+00  0.62776948296E+02  0.62776948296E+02  0.00000000000E+00 0.  1.
         21   -1    0    0  501  502  0.00000000000E+00 -0.00000000000E+00 -0.77892372720E+03  0.77892372720E+03  0.00000000000E+00 0.  1.
         23    2    1    2    0    0  0.84202960124E+02 -0.11751791235E+03 -0.12963635745E+03  0.21442983844E+03  0.90961377645E+02 0.  0.
         23    2    1    2    0    0 -0.47107486529E+02  0.11475315753E+03 -0.29099762469E+03  0.32942602666E+03  0.91948284465E+02 0.  0.
        -11    1    4    4    0    0 -0.45208314614E+02  0.37728538501E+02 -0.52841494494E+02  0.79116735702E+02  0.00000000000E+00 0. -1.
         11    1    4    4    0    0 -0.18991719148E+01  0.77024619028E+02 -0.23815613020E+03  0.25030929096E+03  0.00000000000E+00 0.  1.
        -13    1    3    3    0    0  0.70256446484E+02 -0.27704832872E+02 -0.35070757381E+02  0.83267545060E+02  0.00000000000E+00 0. -1.
         13    1    3    3    0    0  0.13946513639E+02 -0.89813079473E+02 -0.94565600068E+02  0.13116229337E+03  0.00000000000E+00 0.  1.
         -3    1    1    2    0  502 -0.37095473594E+02  0.27647548159E+01 -0.29551279676E+03  0.29784481040E+03  0.00000000000E+00 0.  1.
<scales pt_clust_5="13000.00000" pt_clust_6="13000.00000" pt_clust_7="13000.00000" pt_clust_8="13000.00000" pt_clust_9="37.19836"></scales>
<clustering>
<clus scale="   37.198">  2  9  1 -1</clus>
<clus scale="   90.961">  7  8 -1 -1</clus>
<clus scale="   91.948">  5  6 -1 -1</clus>
<clus scale="  163.983">  1  7  2 -1</clus>
<clus scale="   37.198">  2  5  1 -1</clus>
</clustering>
</event>
<event>
 9    1  0.1399746E-005  0.1117779E+03  0.7546771E-02  0.1258475E+00
         21   -1    0    0  501  502  0.00000000000E+00  0.00000000000E+00  0.51070973219E+03  0.51070973219E+03  0.00000000000E+00 0.  1.
          1   -1    0    0  502    0 -0.00000000000E+00 -0.00000000000E+00 -0.52587158348E+02  0.52587158348E+02  0.00000000000E+00 0. -1.
         23    2    1    2    0    0  0.33505066742E+02  0.19048406826E+02  0.11601655399E+03  0.15394511954E+03  0.93561892509E+02 0.  0.
         23    2    1    2    0    0 -0.30651856785E+02 -0.89017121216E+02  0.12329648341E+03  0.17960979608E+03  0.90521112641E+02 0.  0.
        -13    1    3    3    0    0  0.35810540219E+02  0.54308742374E+02  0.65669219110E+02  0.92435278046E+02  0.00000000000E+00 0.  1.
         13    1    3    3    0    0 -0.23054734772E+01 -0.35260335547E+02  0.50347334877E+02  0.61509841490E+02  0.00000000000E+00 0. -1.
        -13    1    4    4    0    0 -0.36622068525E+02 -0.44304667427E+02  0.10908669896E+02  0.58507081091E+02  0.00000000000E+00 0. -1.
         13    1    4    4    0    0  0.59702117401E+01 -0.44712453788E+02  0.11238781351E+03  0.12110271499E+03  0.00000000000E+00 0.  1.
          1    1    1    2  501    0 -0.28532099571E+01  0.69968714389E+02  0.21880953644E+03  0.22974197492E+03  0.00000000000E+00 0. -1.
<scales pt_clust_5="13000.00000" pt_clust_6="13000.00000" pt_clust_7="13000.00000" pt_clust_8="13000.00000" pt_clust_9="70.02686"></scales>
<clustering>
<clus scale="   70.027">  1  9  2 -1</clus>
<clus scale="   90.521">  7  8 -1 -1</clus>
<clus scale="   93.562">  5  6 -1 -1</clus>
<clus scale="  109.245">  1  7  2 -1</clus>
<clus scale="   70.027">  1  5  2 -1</clus>
</clustering>
</event>
<event>
 9    1  0.1399746E-005  0.1041738E+03  0.7546771E-02  0.1272466E+00
          1   -1    0    0  502    0 -0.00000000000E+00  0.00000000000E+00  0.67282351213E+03  0.67282351213E+03  0.00000000000E+00 0. -1.
         21   -1    0    0  501  502  0.00000000000E+00 -0.00000000000E+00 -0.31907087589E+02  0.31907087589E+02  0.00000000000E+00 0. -1.
         23    2    1    2    0    0 -0.38881132968E+02 -0.12200023100E+02  0.31971238306E+03  0.33491028772E+03  0.91040155275E+02 0.  0.
         23    2    1    2    0    0  0.49959893974E+02  0.41165694534E+02  0.32030635532E+03  0.33879524299E+03  0.89417280199E+02 0.  0.
        -11    1    4    4    0    0 -0.18788538629E+02  0.20822185436E+02  0.16961151857E+03  0.17191462946E+03  0.00000000000E+00 0.  1.
         11    1    4    4    0    0  0.68748432602E+02  0.20343509098E+02  0.15069483675E+03  0.16688061352E+03  0.00000000000E+00 0. -1.
        -13    1    3    3    0    0  0.26648363489E+02 -0.16041573074E+01  0.15573165506E+03  0.15800334485E+03  0.00000000000E+00 0. -1.
         13    1    3    3    0    0 -0.65529496458E+02 -0.10595865793E+02  0.16398072800E+03  0.17690694287E+03  0.00000000000E+00 0.  1.
          1    1    1    2  501    0 -0.11078761006E+02 -0.28965671433E+02  0.89768616033E+00  0.31025069016E+02  0.00000000000E+00 0. -1.
<scales pt_clust_5="13000.00000" pt_clust_6="13000.00000" pt_clust_7="13000.00000" pt_clust_8="13000.00000" pt_clust_9="31.01208"></scales>
<clustering>
<clus scale="   31.012">  2  9  1 -1</clus>
<clus scale="   89.417">  5  6 -1 -1</clus>
<clus scale="   91.040">  7  8 -1 -1</clus>
<clus scale="  102.759">  2  5  1 -1</clus>
<clus scale="   31.012">  2  5  1 -1</clus>
</clustering>
</event>
<event>
 9    1  0.1399746E-005  0.1088997E+03  0.7546771E-02  0.1262758E+00
          1   -1    0    0  502    0 -0.00000000000E+00  0.00000000000E+00  0.68607135314E+03  0.68607135314E+03  0.00000000000E+00 0. -1.
         21   -1    0    0  501  502  0.00000000000E+00 -0.00000000000E+00 -0.63766867412E+02  0.63766867412E+02  0.00000000000E+00 0. -1.
         23    2    1    2    0    0  0.58711829914E+02  0.53075800375E+02  0.52948434387E+03  0.54296502194E+03  0.90516435477E+02 0.  0.
         23    2    1    2    0    0  0.10970942482E+02 -0.15730006215E+02  0.87564194133E+02  0.12763922801E+03  0.90865228547E+02 0.  0.
        -13    1    3    3    0    0  0.72695969062E+02  0.11998908753E+02  0.26976921919E+03  0.27964997649E+03  0.00000000000E+00 0.  1.
         13    1    3    3    0    0 -0.13984139149E+02  0.41076891622E+02  0.25971512468E+03  0.26331504545E+03  0.00000000000E+00 0. -1.
        -13    1    4    4    0    0 -0.13690967950E+02  0.32803497492E+02  0.19707355467E+02  0.40643473162E+02  0.00000000000E+00 0. -1.
         13    1    4    4    0    0  0.24661910433E+02 -0.48533503707E+02  0.67856838665E+02  0.86995754850E+02  0.00000000000E+00 0.  1.
          1    1    1    2  501    0 -0.69682772396E+02 -0.37345794160E+02  0.52559477243E+01  0.79233970598E+02  0.00000000000E+00 0. -1.
<scales pt_clust_5="13000.00000" pt_clust_6="13000.00000" pt_clust_7="13000.00000" pt_clust_8="13000.00000" pt_clust_9="79.05945"></scales>
<clustering>
<clus scale="   79.059">  2  9  1 -1</clus>
<clus scale="   90.516">  5  6 -1 -1</clus>
<clus scale="   90.865">  7  8 -1 -1</clus>
<clus scale="  108.609">  1  5  2 -1</clus>
<clus scale="   79.059">  2  5  1 -1</clus>
</clustering>
</event>
<event>
 9    1  0.1399746E-005  0.1375923E+03  0.7546771E-02  0.1231761E+00
          1   -1    0    0  502    0 -0.00000000000E+00  0.00000000000E+00  0.16599203354E+03  0.16599203354E+03  0.00000000000E+00 0. -1.
         21   -1    0    0  501  502  0.00000000000E+00 -0.00000000000E+00 -0.25305350927E+03  0.25305350927E+03  0.00000000000E+00 0. -1.
         23    2    1    2    0    0 -0.57830399381E+01 -0.48811023697E+02 -0.10943488079E+01  0.10031833398E+03  0.87444902361E+02 0.  0.
         23    2    1    2    0    0  0.32167082085E+02 -0.55982556232E+02  0.66864556521E+02  0.13154992511E+03  0.93089989287E+02 0.  0.
        -13    1    4    4    0    0  0.40699089364E+02 -0.78307714360E+02  0.59882599342E+02  0.10665101831E+03  0.00000000000E+00 0.  1.
         13    1    4    4    0    0 -0.85320072787E+01  0.22325158128E+02  0.69819571788E+01  0.24898906797E+02  0.00000000000E+00 0. -1.
        -13    1    3    3    0    0  0.86871971029E+01  0.23904063932E+02  0.50250525587E+01  0.25925331612E+02  0.00000000000E+00 0.  1.
         13    1    3    3    0    0 -0.14470237041E+02 -0.72715087629E+02 -0.61194013666E+01  0.74393002373E+02  0.00000000000E+00 0. -1.
          1    1    1    2  501    0 -0.26384042147E+02  0.10479357993E+03 -0.15283168344E+03  0.18717728371E+03  0.00000000000E+00 0. -1.
<scales pt_clust_5="13000.00000" pt_clust_6="13000.00000" pt_clust_7="13000.00000" pt_clust_8="13000.00000" pt_clust_9="101.32079"></scales>
<clustering>
<clus scale="   87.445">  7  8 -1 -1</clus>
<clus scale="   93.090">  5  6 -1 -1</clus>
<clus scale="  100.312">  1  7  2 -1</clus>
<clus scale="  101.321">  2  9  1 -1</clus>
<clus scale="  101.321">  2  5  1 -1</clus>
</clustering>
</event>
<event>
 9    1  0.1399746E-005  0.1071057E+03  0.7546771E-02  0.1266375E+00
         21   -1    0    0  501  502  0.00000000000E+00  0.00000000000E+00  0.33789388338E+03  0.33789388338E+03  0.00000000000E+00 0. -1.
         -1   -1    0    0    0  501 -0.00000000000E+00 -0.00000000000E+00 -0.52680725055E+02  0.52680725055E+02  0.00000000000E+00 0.  1.
         23    2    1    2    0    0 -0.28824048500E+02 -0.55091368047E+02  0.42240419312E+02  0.11849931454E+03  0.91607586566E+02 0.  0.
         23    2    1    2    0    0  0.17741256819E+02  0.33861050249E+02  0.19603896582E+03  0.21938436744E+03  0.90757377875E+02 0.  0.
        -11    1    4    4    0    0  0.47400381838E+02  0.34195708834E+01  0.58179590124E+02  0.75122262815E+02  0.00000000000E+00 0.  1.
         11    1    4    4    0    0 -0.29659125019E+02  0.30441479366E+02  0.13785937570E+03  0.14426210462E+03  0.00000000000E+00 0. -1.
        -13    1    3    3    0    0  0.24750708395E+02 -0.51285438976E+02  0.23683389985E+02  0.61674117572E+02  0.00000000000E+00 0.  1.
         13    1    3    3    0    0 -0.53574756896E+02 -0.38059290709E+01  0.18557029328E+02  0.56825196964E+02  0.00000000000E+00 0. -1.
         -1    1    1    2    0  502  0.11082791681E+02  0.21230317798E+02  0.46933773195E+02  0.52690926463E+02  0.00000000000E+00 0.  1.
<scales pt_clust_5="13000.00000" pt_clust_6="13000.00000" pt_clust_7="13000.00000" pt_clust_8="13000.00000" pt_clust_9="23.94900"></scales>
<clustering>
<clus scale="   23.949">  1  9  2 -1</clus>
<clus scale="   90.757">  5  6 -1 -1</clus>
<clus scale="   91.608">  7  8 -1 -1</clus>
<clus scale="  106.379">  1  5  2 -1</clus>
<clus scale="   23.949">  1  5  2 -1</clus>
</clustering>
</event>
<event>
 9    1  0.1399746E-005  0.1005612E+03  0.7546771E-02  0.1284361E+00
         -3   -1    0    0    0  501 -0.00000000000E+00  0.00000000000E+00  0.14466630597E+03  0.14466630597E+03  0.00000000000E+00 0.  1.
         21   -1    0    0  501  502  0.00000000000E+00 -0.00000000000E+00 -0.36743246933E+03  0.36743246933E+03  0.00000000000E+00 0.  1.
         23    2    1    2    0    0  0.35220979376E+02  0.40160755998E+02  0.50196392688E+02  0.11585512506E+03  0.89718049757E+02 0.  0.
         23    2    1    2    0    0  0.38229535204E+02  0.28523812942E+02  0.21135416328E-01  0.10532674818E+03  0.93907497932E+02 0.  0.
        -11    1    3    3    0    0  0.48357825710E+02  0.61642158732E+02  0.31275735329E+02  0.84358797176E+02  0.00000000000E+00 0.  1.
         11    1    3    3    0    0 -0.13136846334E+02 -0.21481402734E+02  0.18920657359E+02  0.31496327880E+02  0.00000000000E+00 0. -1.
        -13    1    4    4    0    0  0.11104248099E+02  0.47343582919E+02 -0.32892755887E+02  0.58708198399E+02  0.00000000000E+00 0.  1.
         13    1    4    4    0    0  0.27125287105E+02 -0.18819769977E+02  0.32913891303E+02  0.46618549776E+02  0.00000000000E+00 0. -1.
         -3    1    1    2    0  502 -0.73450514580E+02 -0.68684568941E+02 -0.27298369147E+03  0.29091690207E+03  0.00000000000E+00 0.  1.
<scales pt_clust_5="13000.00000" pt_clust_6="13000.00000" pt_clust_7="13000.00000" pt_clust_8="13000.00000" pt_clust_9="100.56117"></scales>
<clustering>
<clus scale="   89.718">  5  6 -1 -1</clus>
<clus scale="   93.907">  7  8 -1 -1</clus>
<clus scale="  100.561">  2  9  1 -1</clus>
<clus scale="   91.041">  1  5  2 -1</clus>
<clus scale="  100.561">  2  5  1 -1</clus>
</clustering>
</event>
<event>
 9    1  0.1399746E-005  0.1138834E+03  0.7546771E-02  0.1255620E+00
         21   -1    0    0  501  502  0.00000000000E+00  0.00000000000E+00  0.16963858418E+03  0.16963858418E+03  0.00000000000E+00 0.  1.
          1   -1    0    0  502    0 -0.00000000000E+00 -0.00000000000E+00 -0.18209233724E+03  0.18209233724E+03  0.00000000000E+00 0. -1.
         23    2    1    2    0    0  0.30787296411E+02 -0.18435785884E+02  0.19060588109E+02  0.11577147628E+03  0.10840660902E+03 0.  0.
         23    2    1    2    0    0  0.14834981225E+02 -0.80873727759E+02 -0.40297619915E+01  0.12326883413E+03  0.91751457630E+02 0.  0.
        -11    1    4    4    0    0 -0.38379099927E+01 -0.94149202022E+02  0.12450303934E+02  0.95046366909E+02  0.00000000000E+00 0.  1.
         11    1    4    4    0    0  0.18672891218E+02  0.13275474263E+02 -0.16480065926E+02  0.28222467225E+02  0.00000000000E+00 0. -1.
        -13    1    3    3    0    0  0.22713057673E+02 -0.55630490037E+02 -0.17919806933E+02  0.62703699182E+02  0.00000000000E+00 0.  1.
         13    1    3    3    0    0  0.80742387378E+01  0.37194704153E+02  0.36980395042E+02  0.53067777094E+02  0.00000000000E+00 0. -1.
          1    1    1    2  501    0 -0.45622277636E+02  0.99309513644E+02 -0.27484579177E+02  0.11269061101E+03  0.00000000000E+00 0. -1.
<scales pt_clust_5="13000.00000" pt_clust_6="13000.00000" pt_clust_7="13000.00000" pt_clust_8="13000.00000" pt_clust_9="109.28762"></scales>
<clustering>
<clus scale="   91.751">  5  6 -1 -1</clus>
<clus scale="  108.407">  7  8 -1 -1</clus>
<clus scale="  109.288">  1  9  2 -1</clus>
<clus scale="  109.288">  1  5  2 -1</clus>
<clus scale="  109.288">  1  5  2 -1</clus>
</clustering>
</event>
<event>
 9    1  0.1399746E-005  0.1610495E+03  0.7546771E-02  0.1188035E+00
         21   -1    0    0  501  502  0.00000000000E+00  0.00000000000E+00  0.27880265640E+03  0.27880265640E+03  0.00000000000E+00 0. -1.
          2   -1    0    0  502    0 -0.00000000000E+00 -0.00000000000E+00 -0.43194831637E+03  0.43194831637E+03  0.00000000000E+00 0. -1.
         23    2    1    2    0    0 -0.10884214392E+03 -0.42709703795E+01 -0.20941698871E+03  0.25353523043E+03  0.92519103054E+02 0.  0.
         23    2    1    2    0    0  0.20104329831E+03 -0.41527809345E+02 -0.11931604647E+03  0.25367334520E+03  0.89279787034E+02 0.  0.
        -11    1    4    4    0    0  0.15802290643E+03 -0.70952091330E+01 -0.51632695705E+02  0.16639566164E+03  0.00000000000E+00 0.  1.
         11    1    4    4    0    0  0.43020391886E+02 -0.34432600212E+02 -0.67683350770E+02  0.87277683555E+02  0.00000000000E+00 0. -1.
        -13    1    3    3    0    0 -0.32497635576E+02 -0.32529435446E+02 -0.13724488602E+03  0.14474259645E+03  0.00000000000E+00 0.  1.
         13    1    3    3    0    0 -0.76344508343E+02  0.28258465067E+02 -0.72172102683E+02  0.10879263398E+03  0.00000000000E+00 0. -1.
          2    1    1    2  501    0 -0.92201154394E+02  0.45798779725E+02  0.17558737521E+03  0.20354239713E+03  0.00000000000E+00 0. -1.
<scales pt_clust_5="13000.00000" pt_clust_6="13000.00000" pt_clust_7="13000.00000" pt_clust_8="13000.00000" pt_clust_9="102.94941"></scales>
<clustering>
<clus scale="   89.280">  5  6 -1 -1</clus>
<clus scale="   92.519">  7  8 -1 -1</clus>
<clus scale="  102.949">  1  9  2 -1</clus>
<clus scale="  159.211">  1  5  2 -1</clus>
<clus scale="  102.949">  1  5  2 -1</clus>
</clustering>
</event>
<event>
 9    1  0.1399746E-005  0.1006138E+03  0.7546771E-02  0.1284292E+00
          2   -1    0    0  502    0 -0.00000000000E+00  0.00000000000E+00  0.11530026212E+03  0.11530026212E+03  0.00000000000E+00 0. -1.
         21   -1    0    0  501  502  0.00000000000E+00 -0.00000000000E+00 -0.14930620007E+03  0.14930620007E+03  0.00000000000E+00 0. -1.
         23    2    1    2    0    0  0.12998816223E+02 -0.25454765601E+02  0.89323292598E+01  0.10409104650E+03  0.99690747518E+02 0.  0.
         23    2    1    2    0    0 -0.14216115198E+02 -0.27195729671E+02 -0.42685389368E+01  0.95178562739E+02  0.89994626155E+02 0.  0.
        -11    1    4    4    0    0 -0.36088561545E+02  0.20903594528E+01 -0.32797918624E+02  0.48810422484E+02  0.00000000000E+00 0.  1.
         11    1    4    4    0    0  0.21872446347E+02 -0.29286089124E+02  0.28529379687E+02  0.46368140255E+02  0.00000000000E+00 0. -1.
        -11    1    3    3    0    0  0.27701051677E+02  0.17235255518E+02 -0.30113700403E+02  0.44398617644E+02  0.00000000000E+00 0.  1.
         11    1    3    3    0    0 -0.14702235453E+02 -0.42690021118E+02  0.39046029662E+02  0.59692428857E+02  0.00000000000E+00 0. -1.
          2    1    1    2  501    0  0.12172989748E+01  0.52650495272E+02 -0.38669728272E+02  0.65336852953E+02  0.00000000000E+00 0. -1.
<scales pt_clust_5="13000.00000" pt_clust_6="13000.00000" pt_clust_7="13000.00000" pt_clust_8="13000.00000" pt_clust_9="52.66457"></scales>
<clustering>
<clus scale="   52.665">  2  9  1 -1</clus>
<clus scale="   89.995">  5  6 -1 -1</clus>
<clus scale="   91.016">  2  5  1 -1</clus>
<clus scale="   99.691">  7  8 -1 -1</clus>
<clus scale="   52.665">  2  5  1 -1</clus>
</clustering>
</event>
<event>
 9    1  0.1399746E-005  0.9503905E+02  0.7546771E-02  0.1292835E+00
         -2   -1    0    0    0  501 -0.00000000000E+00  0.00000000000E+00  0.11459303644E+03  0.11459303644E+03  0.00000000000E+00 0.  1.
         21   -1    0    0  501  502  0.00000000000E+00 -0.00000000000E+00 -0.14853926846E+03  0.14853926846E+03  0.00000000000E+00 0. -1.
         23    2    1    2    0    0  0.11919687467E+02 -0.65980055918E+01  0.57021804192E+02  0.11007078442E+03  0.93158353371E+02 0.  0.
         23    2    1    2    0    0 -0.35700773951E+02  0.14343586783E+02 -0.75580125356E+02  0.12369620245E+03  0.90045052115E+02 0.  0.
        -11    1    4    4    0    0 -0.26778804194E+02 -0.36897548641E+02 -0.30355429940E+02  0.54772124084E+02  0.00000000000E+00 0.  1.
         11    1    4    4    0    0 -0.89219697572E+01  0.51241135424E+02 -0.45224695415E+02  0.68924078371E+02  0.00000000000E+00 0. -1.
        -13    1    3    3    0    0  0.50036636544E+02  0.12153265979E+02  0.34604979955E+02  0.62039273918E+02  0.00000000000E+00 0.  1.
         13    1    3    3    0    0 -0.38116949076E+02 -0.18751271571E+02  0.22416824237E+02  0.48031510504E+02  0.00000000000E+00 0. -1.
         -2    1    1    2    0  502  0.23781086484E+02 -0.77455811908E+01 -0.15387910852E+02  0.29365318026E+02  0.00000000000E+00 0.  1.
<scales pt_clust_5="13000.00000" pt_clust_6="13000.00000" pt_clust_7="13000.00000" pt_clust_8="13000.00000" pt_clust_9="25.01068"></scales>
<clustering>
<clus scale="   25.011">  2  9  1 -1</clus>
<clus scale="   90.045">  5  6 -1 -1</clus>
<clus scale="   91.989">  2  5  1 -1</clus>
<clus scale="   93.158">  7  8 -1 -1</clus>
<clus scale="   25.011">  2  5  1 -1</clus>
</clustering>
</event>
<event>
 9    1  0.1399746E-005  0.3812285E+03  0.7546771E-02  0.1050529E+00
         21   -1    0    0  501  502  0.00000000000E+00  0.00000000000E+00  0.13615512652E+03  0.13615512652E+03  0.00000000000E+00 0.  1.
          1   -1    0    0  502    0 -0.00000000000E+00 -0.00000000000E+00 -0.17950871188E+04  0.17950871188E+04  0.00000000000E+00 0. -1.
         23    2    1    2    0    0 -0.28242572917E+03  0.77785428870E+02 -0.44747963378E+03  0.54250345322E+03  0.90868634153E+02 0.  0.
         23    2    1    2    0    0  0.43212703301E+03 -0.20037752006E+03 -0.85350702318E+03  0.98184302624E+03  0.93040670420E+02 0.  0.
        -11    1    3    3    0    0 -0.72149006090E+02  0.55696830178E+02 -0.17799286626E+03  0.19997268916E+03  0.00000000000E+00 0.  1.
         11    1    3    3    0    0 -0.21027672308E+03  0.22088598692E+02 -0.26948676752E+03  0.34253076406E+03  0.00000000000E+00 0. -1.
        -13    1    4    4    0    0  0.37111372442E+03 -0.13701112198E+03 -0.72861148758E+03  0.82907909384E+03  0.00000000000E+00 0.  1.
         13    1    4    4    0    0  0.61013308589E+02 -0.63366398081E+02 -0.12489553560E+03  0.15276393240E+03  0.00000000000E+00 0. -1.
          1    1    1    2  501    0 -0.14970130384E+03  0.12259209119E+03 -0.35794533527E+03  0.40689576581E+03  0.00000000000E+00 0. -1.
<scales pt_clust_5="13000.00000" pt_clust_6="13000.00000" pt_clust_7="13000.00000" pt_clust_8="13000.00000" pt_clust_9="193.49248"></scales>
<clustering>
<clus scale="   90.869">  5  6 -1 -1</clus>
<clus scale="   93.041">  7  8 -1 -1</clus>
<clus scale="  193.492">  1  9  2 -1</clus>
<clus scale="  380.704">  2  5  1 -1</clus>
<clus scale="  193.492">  1  5  2 -1</clus>
</clustering>
</event>
<event>
 9    1  0.1399746E-005  0.1249517E+03  0.7546771E-02  0.1235465E+00
          2   -1    0    0  502    0 -0.00000000000E+00  0.00000000000E+00  0.60341280129E+03  0.60341280129E+03  0.00000000000E+00 0. -1.
         21   -1    0    0  501  502  0.00000000000E+00 -0.00000000000E+00 -0.10437079973E+03  0.10437079973E+03  0.00000000000E+00 0.  1.
         23    2    1    2    0    0 -0.54602936939E+02 -0.72119456380E+02  0.40076684767E+03  0.42049404973E+03  0.89545982335E+02 0.  0.
         23    2    1    2    0    0  0.61071994889E+02  0.98553095829E+01 -0.54233224414E+02  0.12243361983E+03  0.90674323524E+02 0.  0.
        -11    1    4    4    0    0  0.64071848975E+02 -0.12525678270E+02 -0.69361784549E+02  0.95253092355E+02  0.00000000000E+00 0.  1.
         11    1    4    4    0    0 -0.29998540863E+01  0.22380987853E+02  0.15128560135E+02  0.27180527471E+02  0.00000000000E+00 0. -1.
        -11    1    3    3    0    0  0.85816763551E+01 -0.57201478990E+02  0.13418520334E+03  0.14612091966E+03  0.00000000000E+00 0.  1.
         11    1    3    3    0    0 -0.63184613295E+02 -0.14917977390E+02  0.26658164433E+03  0.27437313007E+03  0.00000000000E+00 0. -1.
          2    1    1    2  501    0 -0.64690579496E+01  0.62264146797E+02  0.15250837830E+03  0.16485593147E+03  0.00000000000E+00 0. -1.
<scales pt_clust_5="13000.00000" pt_clust_6="13000.00000" pt_clust_7="13000.00000" pt_clust_8="13000.00000" pt_clust_9="62.59933"></scales>
<clustering>
<clus scale="   62.599">  2  9  1 -1</clus>
<clus scale="   89.546">  7  8 -1 -1</clus>
<clus scale="   90.674">  5  6 -1 -1</clus>
<clus scale="  124.135">  1  7  2 -1</clus>
<clus scale="   62.599">  2  5  1 -1</clus>
</clustering>
</event>
<event>
 9    1  0.1399746E-005  0.1241360E+03  0.7546771E-02  0.1239795E+00
         -2   -1    0    0    0  501 -0.00000000000E+00  0.00000000000E+00  0.39264961796E+03  0.39264961796E+03  0.00000000000E+00 0.  1.
         21   -1    0    0  501  502  0.00000000000E+00 -0.00000000000E+00 -0.75997448004E+02  0.75997448004E+02  0.00000000000E+00 0. -1.
         23    2    1    2    0    0 -0.82716638285E+02 -0.74457991206E+01  0.28801389812E+03  0.31006385243E+03  0.79310181580E+02 0.  0.
         23    2    1    2    0    0  0.91921061897E+02 -0.11403508117E+02  0.38529461406E+02  0.13539154631E+03  0.90922108414E+02 0.  0.
        -11    1    4    4    0    0  0.87801357376E+02  0.23482051526E+02  0.12657526892E+02  0.91764361753E+02  0.00000000000E+00 0.  1.
         11    1    4    4    0    0  0.41197045209E+01 -0.34885559642E+02  0.25871934514E+02  0.43627184557E+02  0.00000000000E+00 0. -1.
        -13    1    3    3    0    0 -0.56071005111E+02  0.12429247317E+02  0.26095837969E+03  0.26720351744E+03  0.00000000000E+00 0.  1.
         13    1    3    3    0    0 -0.26645633174E+02 -0.19875046438E+02  0.27055518431E+02  0.42860334993E+02  0.00000000000E+00 0. -1.
         -2    1    1    2    0  502 -0.92044236119E+01  0.18849307237E+02 -0.98911895689E+01  0.23191667220E+02  0.00000000000E+00 0.  1.
<scales pt_clust_5="13000.00000" pt_clust_6="13000.00000" pt_clust_7="13000.00000" pt_clust_8="13000.00000" pt_clust_9="20.97660"></scales>
<clustering>
<clus scale="   20.977">  2  9  1 -1</clus>
<clus scale="   79.310">  7  8 -1 -1</clus>
<clus scale="   90.922">  5  6 -1 -1</clus>
<clus scale="  115.901">  1  7  2 -1</clus>
<clus scale="   20.977">  2  5  1 -1</clus>
</clustering>
</event>
<event>
 9    1  0.1399746E-005  0.9756892E+02  0.7546771E-02  0.1288284E+00
         21   -1    0    0  501  502  0.00000000000E+00  0.00000000000E+00  0.16388074410E+03  0.16388074410E+03  0.00000000000E+00 0. -1.
          2   -1    0    0  502    0 -0.00000000000E+00 -0.00000000000E+00 -0.10583316255E+03  0.10583316255E+03  0.00000000000E+00 0. -1.
         23    2    1    2    0    0 -0.39649006817E+01  0.10152249058E+02 -0.14068468223E+01  0.91223146679E+02  0.90558791256E+02 0.  0.
         23    2    1    2    0    0 -0.33024392662E+02 -0.16691476634E+02 -0.63061612955E+01  0.10275817469E+03  0.95656985591E+02 0.  0.
        -11    1    3    3    0    0  0.28939809219E+02 -0.14931160465E+02  0.25934854818E+02  0.41630142984E+02  0.00000000000E+00 0. -1.
         11    1    3    3    0    0 -0.32904709900E+02  0.25083409523E+02 -0.27341701640E+02  0.49593003695E+02  0.00000000000E+00 0.  1.
        -13    1    4    4    0    0  0.17636459965E+02  0.28609647946E+02  0.46180364432E+01  0.33924665603E+02  0.00000000000E+00 0.  1.
         13    1    4    4    0    0 -0.50660852626E+02 -0.45301124579E+02 -0.10924197739E+02  0.68833509087E+02  0.00000000000E+00 0. -1.
          2    1    1    2  501    0  0.36989293343E+02  0.65392275758E+01  0.65760589670E+02  0.75732585279E+02  0.00000000000E+00 0. -1.
<scales pt_clust_5="13000.00000" pt_clust_6="13000.00000" pt_clust_7="13000.00000" pt_clust_8="13000.00000" pt_clust_9="37.56287"></scales>
<clustering>
<clus scale="   37.563">  1  9  2 -1</clus>
<clus scale="   90.559">  5  6 -1 -1</clus>
<clus scale="   92.576">  2  5  1 -1</clus>
<clus scale="   95.657">  7  8 -1 -1</clus>
<clus scale="   37.563">  1  5  2 -1</clus>
</clustering>
</event>
<event>
 9    1  0.1399746E-005  0.1168036E+03  0.7546771E-02  0.1249258E+00
          2   -1    0    0  502    0 -0.00000000000E+00  0.00000000000E+00  0.11419261232E+03  0.11419261232E+03  0.00000000000E+00 0. -1.
         21   -1    0    0  501  502  0.00000000000E+00 -0.00000000000E+00 -0.17490393111E+03  0.17490393111E+03  0.00000000000E+00 0.  1.
         23    2    1    2    0    0 -0.25222050461E+02  0.82370804293E+02  0.15857915244E+01  0.12540609687E+03  0.91121200428E+02 0.  0.
         23    2    1    2    0    0 -0.42945062525E+01 -0.55646331236E+02 -0.65700634637E+02  0.12372785708E+03  0.88752759175E+02 0.  0.
        -13    1    3    3    0    0 -0.49719534675E+02  0.24561894392E+02 -0.20093012990E+02  0.58983454930E+02  0.00000000000E+00 0.  1.
         13    1    3    3    0    0  0.24497484215E+02  0.57808909901E+02  0.21678804515E+02  0.66422641937E+02  0.00000000000E+00 0. -1.
        -13    1    4    4    0    0  0.19107100262E+02 -0.16867769324E+02  0.16155778678E+02  0.30176350129E+02  0.00000000000E+00 0. -1.
         13    1    4    4    0    0 -0.23401606514E+02 -0.38778561912E+02 -0.81856413316E+02  0.93551506948E+02  0.00000000000E+00 0.  1.
          2    1    1    2  501    0  0.29516556713E+02 -0.26724473057E+02  0.34035243267E+01  0.39962589483E+02  0.00000000000E+00 0. -1.
<scales pt_clust_5="13000.00000" pt_clust_6="13000.00000" pt_clust_7="13000.00000" pt_clust_8="13000.00000" pt_clust_9="39.81741"></scales>
<clustering>
<clus scale="   39.817">  2  9  1 -1</clus>
<clus scale="   88.753">  7  8 -1 -1</clus>
<clus scale="   91.121">  5  6 -1 -1</clus>
<clus scale="  114.965">  2  7  1 -1</clus>
<clus scale="   39.817">  2  5  1 -1</clus>
</clustering>
</event>
<event>
 9    1  0.1399746E-005  0.1726090E+03  0.7546771E-02  0.1175445E+00
          1   -1    0    0  502    0 -0.00000000000E+00  0.00000000000E+00  0.92549109061E+02  0.92549109061E+02  0.00000000000E+00 0. -1.
         21   -1    0    0  501  502  0.00000000000E+00 -0.00000000000E+00 -0.63763930736E+03  0.63763930736E+03  0.00000000000E+00 0.  1.
         23    2    1    2    0    0  0.33885768883E+02  0.13199396242E+03 -0.44664729250E+02  0.16921366733E+03  0.89820241166E+02 0.  0.
         23    2    1    2    0    0 -0.45688258912E+02 -0.17622922835E+03 -0.36640316099E+03  0.41934835120E+03  0.91965239861E+02 0.  0.
        -11    1    4    4    0    0 -0.60198817149E+02 -0.80093307076E+02 -0.23847184691E+03  0.25866514492E+03  0.00000000000E+00 0.  1.
         11    1    4    4    0    0  0.14510558237E+02 -0.96135921278E+02 -0.12793131407E+03  0.16068320628E+03  0.00000000000E+00 0. -1.
        -11    1    3    3    0    0 -0.17719100831E+02  0.64969519625E+02 -0.50871005697E+02  0.84397062954E+02  0.00000000000E+00 0. -1.
         11    1    3    3    0    0  0.51604869713E+02  0.67024442793E+02  0.62062764466E+01  0.84816604372E+02  0.00000000000E+00 0.  1.
          1    1    1    2  501    0  0.11802490029E+02  0.44235265935E+02 -0.13402230806E+03  0.14162639790E+03  0.00000000000E+00 0. -1.
<scales pt_clust_5="13000.00000" pt_clust_6="13000.00000" pt_clust_7="13000.00000" pt_clust_8="13000.00000" pt_clust_9="45.78272"></scales>
<clustering>
<clus scale="   45.783">  2  9  1 -1</clus>
<clus scale="   89.820">  7  8 -1 -1</clus>
<clus scale="   91.965">  5  6 -1 -1</clus>
<clus scale="  171.476">  1  7  2 -1</clus>
<clus scale="   45.783">  2  5  1 -1</clus>
</clustering>
</event>
<event>
 9    1  0.1399746E-005  0.9836946E+02  0.7546771E-02  0.1283847E+00
         21   -1    0    0  501  502  0.00000000000E+00  0.00000000000E+00  0.57844799062E+02  0.57844799062E+02  0.00000000000E+00 0.  1.
          3   -1    0    0  502    0 -0.00000000000E+00 -0.00000000000E+00 -0.24170453160E+03  0.24170453160E+03  0.00000000000E+00 0. -1.
         23    2    1    2    0    0 -0.19846386042E+02 -0.13186318634E+02 -0.87865369665E+02  0.12863535198E+03  0.90878889482E+02 0.  0.
         23    2    1    2    0    0  0.49248584705E+02  0.22834771040E+02 -0.91170052739E+02  0.13959535981E+03  0.90708522757E+02 0.  0.
        -11    1    3    3    0    0 -0.35185232433E+01 -0.44132667486E+02 -0.13233072888E+02  0.46208078983E+02  0.00000000000E+00 0.  1.
         11    1    3    3    0    0 -0.16327862799E+02  0.30946348851E+02 -0.74632296777E+02  0.82427272993E+02  0.00000000000E+00 0. -1.
        -13    1    4    4    0    0  0.56612472631E+02 -0.82832531583E+01 -0.91148369902E+02  0.10761788734E+03  0.00000000000E+00 0.  1.
         13    1    4    4    0    0 -0.73638879260E+01  0.31118024198E+02 -0.21682837187E-01  0.31977472469E+02  0.00000000000E+00 0. -1.
          3    1    1    2  501    0 -0.29402198663E+02 -0.96484524055E+01 -0.48243101363E+01  0.31318618877E+02  0.00000000000E+00 0. -1.
<scales pt_clust_5="13000.00000" pt_clust_6="13000.00000" pt_clust_7="13000.00000" pt_clust_8="13000.00000" pt_clust_9="30.94482"></scales>
<clustering>
<clus scale="   30.945">  1  9  2 -1</clus>
<clus scale="   90.709">  7  8 -1 -1</clus>
<clus scale="   90.879">  5  6 -1 -1</clus>
<clus scale="   98.212">  1  7  2 -1</clus>
<clus scale="   30.945">  1  5  2 -1</clus>
</clustering>
</event>
<event>
 9    1  0.1399746E-005  0.1172663E+03  0.7546771E-02  0.1247715E+00
         -1   -1    0    0    0  501 -0.00000000000E+00  0.00000000000E+00  0.22823647075E+03  0.22823647075E+03  0.00000000000E+00 0.  1.
         21   -1    0    0  501  502  0.00000000000E+00 -0.00000000000E+00 -0.99401052501E+02  0.99401052501E+02  0.00000000000E+00 0. -1.
         23    2    1    2    0    0 -0.63917856709E+02  0.45312369994E+02  0.14038108362E+03  0.18516849421E+03  0.91879373805E+02 0.  0.
         23    2    1    2    0    0  0.57244164806E+02 -0.23048587605E+02  0.96641300781E+01  0.11100365772E+03  0.91762109945E+02 0.  0.
        -11    1    3    3    0    0 -0.18696121946E+02  0.44076659631E+02  0.12443943153E+02  0.49468663022E+02  0.00000000000E+00 0. -1.
         11    1    3    3    0    0 -0.45221734763E+02  0.12357103638E+01  0.12793714046E+03  0.13569983119E+03  0.00000000000E+00 0.  1.
        -11    1    4    4    0    0 -0.25351617703E+02 -0.57904967086E+01  0.51063969662E+01  0.26501125680E+02  0.00000000000E+00 0.  1.
         11    1    4    4    0    0  0.82595782509E+02 -0.17258090897E+02  0.45577331119E+01  0.84502532038E+02  0.00000000000E+00 0. -1.
         -1    1    1    2    0  502  0.66736919038E+01 -0.22263782389E+02 -0.21209795442E+02  0.31465371324E+02  0.00000000000E+00 0.  1.
<scales pt_clust_5="13000.00000" pt_clust_6="13000.00000" pt_clust_7="13000.00000" pt_clust_8="13000.00000" pt_clust_9="23.24251"></scales>
<clustering>
<clus scale="   23.243">  2  9  1 -1</clus>
<clus scale="   91.762">  7  8 -1 -1</clus>
<clus scale="   91.879">  5  6 -1 -1</clus>
<clus scale="  117.174">  2  7  1 -1</clus>
<clus scale="   23.243">  2  5  1 -1</clus>
</clustering>
</event>
<event>
 9    1  0.1399746E-005  0.1824294E+03  0.7546771E-02  0.1166620E+00
         21   -1    0    0  501  502  0.00000000000E+00  0.00000000000E+00  0.66680456791E+02  0.66680456791E+02  0.00000000000E+00 0.  1.
          2   -1    0    0  502    0 -0.00000000000E+00 -0.00000000000E+00 -0.92792587937E+03  0.92792587937E+03  0.00000000000E+00 0. -1.
         23    2    1    2    0    0 -0.15147781904E+03  0.51921527514E+02 -0.73721402683E+03  0.76009217812E+03  0.92812839655E+02 0.  0.
         23    2    1    2    0    0  0.12863739564E+03 -0.65966832200E+02 -0.84974367432E+02  0.18713898537E+03  0.83073185910E+02 0.  0.
        -11    1    4    4    0    0  0.10292407513E+02  0.17305413948E+02 -0.20451418049E+02  0.28699677777E+02  0.00000000000E+00 0. -1.
         11    1    4    4    0    0  0.11834498813E+03 -0.83272246148E+02 -0.64522949383E+02  0.15843930759E+03  0.00000000000E+00 0.  1.
        -13    1    3    3    0    0 -0.11048567876E+03  0.78084696206E+02 -0.57765117336E+03  0.59328339187E+03  0.00000000000E+00 0.  1.
         13    1    3    3    0    0 -0.40992140280E+02 -0.26163168691E+02 -0.15956285347E+03  0.16680878625E+03  0.00000000000E+00 0. -1.
          2    1    1    2  501    0  0.22840423397E+02  0.14045304686E+02 -0.39057028316E+02  0.47375172671E+02  0.00000000000E+00 0. -1.
<scales pt_clust_5="13000.00000" pt_clust_6="13000.00000" pt_clust_7="13000.00000" pt_clust_8="13000.00000" pt_clust_9="26.81335"></scales>
<clustering>
<clus scale="   26.813">  1  9  2 -1</clus>
<clus scale="   83.073">  5  6 -1 -1</clus>
<clus scale="   92.813">  7  8 -1 -1</clus>
<clus scale="  177.672">  1  5  2 -1</clus>
<clus scale="   26.813">  1  5  2 -1</clus>
</clustering>
</event>
<event>
 9    1  0.1399746E-005  0.1052828E+03  0.7546771E-02  0.1270829E+00
         21   -1    0    0  501  502  0.00000000000E+00  0.00000000000E+00  0.67734566239E+02  0.67734566239E+02  0.00000000000E+00 0. -1.
         -3   -1    0    0    0  501 -0.00000000000E+00 -0.00000000000E+00 -0.27307154829E+03  0.27307154829E+03  0.00000000000E+00 0.  1.
         23    2    1    2    0    0  0.69889678488E+01  0.57761362635E+02 -0.17636764971E+03  0.20621074544E+03  0.89622000570E+02 0.  0.
         23    2    1    2    0    0 -0.62733218801E+01 -0.32259968896E+02 -0.40978391015E+02  0.10639872528E+03  0.92527833918E+02 0.  0.
        -13    1    4    4    0    0  0.19478398578E+02 -0.26794774385E+02 -0.63586411460E+02  0.71697975340E+02  0.00000000000E+00 0.  1.
         13    1    4    4    0    0 -0.25751720458E+02 -0.54651945106E+01  0.22608020446E+02  0.34700749935E+02  0.00000000000E+00 0. -1.
        -13    1    3    3    0    0  0.35756986903E+02  0.22907169419E+02 -0.27397534512E+02  0.50536377200E+02  0.00000000000E+00 0.  1.
         13    1    3    3    0    0 -0.28768019055E+02  0.34854193216E+02 -0.14897011520E+03  0.15567436824E+03  0.00000000000E+00 0. -1.
         -3    1    1    2    0  502 -0.71564596870E+00 -0.25501393739E+02  0.12009058677E+02  0.28196643809E+02  0.00000000000E+00 0.  1.
<scales pt_clust_5="13000.00000" pt_clust_6="13000.00000" pt_clust_7="13000.00000" pt_clust_8="13000.00000" pt_clust_9="25.51143"></scales>
<clustering>
<clus scale="   25.511">  1  9  2 -1</clus>
<clus scale="   89.622">  7  8 -1 -1</clus>
<clus scale="   92.528">  5  6 -1 -1</clus>
<clus scale="  102.738">  2  7  1 -1</clus>
<clus scale="   25.511">  1  5  2 -1</clus>
</clustering>
</event>
<event>
 9    1  0.1399746E-005  0.1316880E+03  0.7546771E-02  0.1229906E+00
         21   -1    0    0  501  502  0.00000000000E+00  0.00000000000E+00  0.34575695996E+03  0.34575695996E+03  0.00000000000E+00 0. -1.
          1   -1    0    0  502    0 -0.00000000000E+00 -0.00000000000E+00 -0.85936315660E+02  0.85936315660E+02  0.00000000000E+00 0. -1.
         23    2    1    2    0    0  0.33096221359E+02 -0.10197835460E+03  0.73266276990E+02  0.15818171029E+03  0.90324755463E+02 0.  0.
         23    2    1    2    0    0 -0.45832914621E+01  0.32186978282E+02  0.15697713969E+03  0.19252616063E+03  0.10661844124E+03 0.  0.
        -13    1    4    4    0    0  0.37052985697E+01 -0.35245945085E+02  0.91692079658E+02  0.98302814581E+02  0.00000000000E+00 0. -1.
         13    1    4    4    0    0 -0.82885900318E+01  0.67432923367E+02  0.65285060030E+02  0.94223346054E+02  0.00000000000E+00 0.  1.
        -13    1    3    3    0    0  0.15474532598E+02  0.14999321816E+02  0.74151717283E+01  0.22790910158E+02  0.00000000000E+00 0.  1.
         13    1    3    3    0    0  0.17621688761E+02 -0.11697767642E+03  0.65851105262E+02  0.13539080013E+03  0.00000000000E+00 0. -1.
          1    1    1    2  501    0 -0.28512929897E+02  0.69791376321E+02  0.29577227619E+02  0.80985404696E+02  0.00000000000E+00 0. -1.
<scales pt_clust_5="13000.00000" pt_clust_6="13000.00000" pt_clust_7="13000.00000" pt_clust_8="13000.00000" pt_clust_9="75.39117"></scales>
<clustering>
<clus scale="   75.391">  1  9  2 -1</clus>
<clus scale="   90.325">  7  8 -1 -1</clus>
<clus scale="  106.618">  5  6 -1 -1</clus>
<clus scale="  118.881">  2  7  1 -1</clus>
<clus scale="   75.391">  1  5  2 -1</clus>
</clustering>
</event>
<event>
 9    1  0.1399746E-005  0.1217271E+03  0.7546771E-02  0.1240870E+00
          1   -1    0    0  502    0 -0.00000000000E+00  0.00000000000E+00  0.84984903135E+03  0.84984903135E+03  0.00000000000E+00 0. -1.
         21   -1    0    0  501  502  0.00000000000E+00 -0.00000000000E+00 -0.31976137347E+02  0.31976137347E+02  0.00000000000E+00 0. -1.
         23    2    1    2    0    0 -0.11325515409E+02  0.56185579576E+02  0.31839169469E+03  0.33595058032E+03  0.90578333588E+02 0.  0.
         23    2    1    2    0    0 -0.20876003424E+02 -0.11443147271E+03  0.39458270164E+03  0.42164409012E+03  0.92508706818E+02 0.  0.
        -13    1    3    3    0    0  0.35436928250E+02  0.39136106377E+02  0.21225369026E+03  0.21872137467E+03  0.00000000000E+00 0. -1.
         13    1    3    3    0    0 -0.46762443659E+02  0.17049473199E+02  0.10613800443E+03  0.11722920565E+03  0.00000000000E+00 0.  1.
        -13    1    4    4    0    0  0.30769333028E+02 -0.15143900328E+02  0.63671655090E+02  0.72319908974E+02  0.00000000000E+00 0.  1.
         13    1    4    4    0    0 -0.51645336452E+02 -0.99287572387E+02  0.33091104655E+03  0.34932418115E+03  0.00000000000E+00 0. -1.
          1    1    1    2  501    0  0.32201518833E+02  0.58245893139E+02  0.10489849767E+03  0.12423049825E+03  0.00000000000E+00 0. -1.
<scales pt_clust_5="13000.00000" pt_clust_6="13000.00000" pt_clust_7="13000.00000" pt_clust_8="13000.00000" pt_clust_9="66.55465"></scales>
<clustering>
<clus scale="   66.555">  2  9  1 -1</clus>
<clus scale="   90.578">  5  6 -1 -1</clus>
<clus scale="   92.509">  7  8 -1 -1</clus>
<clus scale="  120.267">  1  5  2 -1</clus>
<clus scale="   66.555">  2  5  1 -1</clus>
</clustering>
</event>
<event>
 9    1  0.1399746E-005  0.3806787E+03  0.7546771E-02  0.1050737E+00
          2   -1    0    0  502    0 -0.00000000000E+00  0.00000000000E+00  0.20235597595E+04  0.20235597595E+04  0.00000000000E+00 0. -1.
         21   -1    0    0  501  502  0.00000000000E+00 -0.00000000000E+00 -0.12176105786E+03  0.12176105786E+03  0.00000000000E+00 0. -1.
         23    2    1    2    0    0 -0.22300814895E+03  0.35834448535E+03  0.14188377702E+04  0.14830584580E+04  0.90655209205E+02 0.  0.
         23    2    1    2    0    0  0.16138345211E+03 -0.20767297631E+03  0.22473501480E+03  0.35700815232E+03  0.88183389834E+02 0.  0.
        -13    1    4    4    0    0  0.62219532740E+02 -0.12260472401E+03  0.16075578115E+03  0.21153158104E+03  0.00000000000E+00 0.  1.
         13    1    4    4    0    0  0.99163919369E+02 -0.85068252300E+02  0.63979233657E+02  0.14547657129E+03  0.00000000000E+00 0. -1.
        -13    1    3    3    0    0 -0.23100647361E+02  0.94327761965E+02  0.24957719975E+03  0.26780617099E+03  0.00000000000E+00 0.  1.
         13    1    3    3    0    0 -0.19990750159E+03  0.26401672339E+03  0.11692605705E+04  0.12152522870E+04  0.00000000000E+00 0. -1.
          2    1    1    2  501    0  0.61624696842E+02 -0.15067150904E+03  0.25822591662E+03  0.30525420703E+03  0.00000000000E+00 0. -1.
<scales pt_clust_5="13000.00000" pt_clust_6="13000.00000" pt_clust_7="13000.00000" pt_clust_8="13000.00000" pt_clust_9="162.78669"></scales>
<clustering>
<clus scale="   88.183">  5  6 -1 -1</clus>
<clus scale="   90.655">  7  8 -1 -1</clus>
<clus scale="  162.787">  2  9  1 -1</clus>
<clus scale="  380.098">  2  5  1 -1</clus>
<clus scale="  162.787">  2  5  1 -1</clus>
</clustering>
</event>
<event>
 9    1  0.1399746E-005  0.9570992E+02  0.7546771E-02  0.1290039E+00
         21   -1    0    0  501  502  0.00000000000E+00  0.00000000000E+00  0.40039382728E+03  0.40039382728E+03  0.00000000000E+00 0. -1.
          1   -1    0    0  502    0 -0.00000000000E+00 -0.00000000000E+00 -0.38876974786E+02  0.38876974786E+02  0.00000000000E+00 0. -1.
         23    2    1    2    0    0  0.42997254791E+01  0.13193100972E+02  0.76944745314E+02  0.12101230088E+03  0.92363074765E+02 0.  0.
         23    2    1    2    0    0 -0.29527940226E+02 -0.36932447080E+02  0.17213740646E+03  0.20060825130E+03  0.91523105744E+02 0.  0.
        -11    1    4    4    0    0 -0.52872676923E+02  0.61754611873E+01  0.77398530592E+02  0.93937153585E+02  0.00000000000E+00 0.  1.
         11    1    4    4    0    0  0.23344736697E+02 -0.43107908268E+02  0.94738875873E+02  0.10667109772E+03  0.00000000000E+00 0. -1.
        -13    1    3    3    0    0 -0.27130372824E+02  0.33116657273E+02  0.71592944217E+02  0.83416543804E+02  0.00000000000E+00 0.  1.
         13    1    3    3    0    0  0.31430098303E+02 -0.19923556301E+02  0.53518010963E+01  0.37595757075E+02  0.00000000000E+00 0. -1.
          1    1    1    2  501    0  0.25228214747E+02  0.23739346109E+02  0.11243470072E+03  0.11765024988E+03  0.00000000000E+00 0. -1.
<scales pt_clust_5="13000.00000" pt_clust_6="13000.00000" pt_clust_7="13000.00000" pt_clust_8="13000.00000" pt_clust_9="34.64130"></scales>
<clustering>
<clus scale="   34.641">  1  9  2 -1</clus>
<clus scale="   91.523">  5  6 -1 -1</clus>
<clus scale="   92.363">  7  8 -1 -1</clus>
<clus scale="   94.900">  1  5  2 -1</clus>
<clus scale="   34.641">  1  5  2 -1</clus>
</clustering>
</event>
<event>
 9    1  0.1399746E-005  0.1690035E+03  0.7546771E-02  0.1179866E+00
         -3   -1    0    0    0  501 -0.00000000000E+00  0.00000000000E+00  0.38868331148E+02  0.38868331148E+02  0.00000000000E+00 0.  1.
         21   -1    0    0  501  502  0.00000000000E+00 -0.00000000000E+00 -0.12165376269E+04  0.12165376269E+04  0.00000000000E+00 0.  1.
         23    2    1    2    0    0 -0.38911359808E+02  0.17807923878E+03 -0.43357325641E+03  0.47918697655E+03  0.91695586655E+02 0.  0.
         23    2    1    2    0    0 -0.40955860054E+01 -0.10102848083E+03 -0.47810095755E+03  0.49596944943E+03  0.84744565573E+02 0.  0.
        -13    1    3    3    0    0 -0.51613785267E+02  0.42257982776E+02 -0.16447745152E+03  0.17748958279E+03  0.00000000000E+00 0.  1.
         13    1    3    3    0    0  0.12702425459E+02  0.13582125600E+03 -0.26909580489E+03  0.30169739376E+03  0.00000000000E+00 0. -1.
        -13    1    4    4    0    0 -0.25016364019E+02 -0.10717261205E+03 -0.40490545271E+03  0.41959529654E+03  0.00000000000E+00 0.  1.
         13    1    4    4    0    0  0.20920778013E+02  0.61441312220E+01 -0.73195504843E+02  0.76374152895E+02  0.00000000000E+00 0. -1.
         -3    1    1    2    0  502  0.43006945813E+02 -0.77050757950E+02 -0.26599508176E+03  0.28024953204E+03  0.00000000000E+00 0.  1.
<scales pt_clust_5="13000.00000" pt_clust_6="13000.00000" pt_clust_7="13000.00000" pt_clust_8="13000.00000" pt_clust_9="88.24067"></scales>
<clustering>
<clus scale="   84.745">  7  8 -1 -1</clus>
<clus scale="   88.241">  2  9  1 -1</clus>
<clus scale="   91.696">  5  6 -1 -1</clus>
<clus scale="  165.335">  2  7  1 -1</clus>
<clus scale="   88.241">  2  5  1 -1</clus>
</clustering>
</event>
<event>
 9    1  0.1399746E-005  0.9948487E+02  0.7546771E-02  0.1281461E+00
         21   -1    0    0  501  502  0.00000000000E+00  0.00000000000E+00  0.15365757603E+03  0.15365757603E+03  0.00000000000E+00 0. -1.
          1   -1    0    0  502    0 -0.00000000000E+00 -0.00000000000E+00 -0.30759227851E+03  0.30759227851E+03  0.00000000000E+00 0. -1.
         23    2    1    2    0    0 -0.20882909354E+02 -0.32749875825E+02 -0.16359198183E+03  0.19097460965E+03  0.90555589256E+02 0.  0.
         23    2    1    2    0    0 -0.58432707461E+01  0.50823033079E+02 -0.10706952367E+03  0.14917167658E+03  0.90394588824E+02 0.  0.
        -11    1    4    4    0    0  0.13232316022E+02 -0.22281400356E+02 -0.42545093163E+02  0.49816061079E+02  0.00000000000E+00 0.  1.
         11    1    4    4    0    0 -0.19075586768E+02  0.73104433435E+02 -0.64524430509E+02  0.99355615498E+02  0.00000000000E+00 0. -1.
        -13    1    3    3    0    0  0.29362948154E+01  0.26885463219E+02 -0.86560101925E+02  0.90686830384E+02  0.00000000000E+00 0. -1.
         13    1    3    3    0    0 -0.23819204169E+02 -0.59635339044E+02 -0.77031879901E+02  0.10028777927E+03  0.00000000000E+00 0.  1.
          1    1    1    2  501    0  0.26726180100E+02 -0.18073157254E+02  0.11672680302E+03  0.12110356832E+03  0.00000000000E+00 0. -1.
<scales pt_clust_5="13000.00000" pt_clust_6="13000.00000" pt_clust_7="13000.00000" pt_clust_8="13000.00000" pt_clust_9="32.26341"></scales>
<clustering>
<clus scale="   32.263">  1  9  2 -1</clus>
<clus scale="   90.395">  5  6 -1 -1</clus>
<clus scale="   90.556">  7  8 -1 -1</clus>
<clus scale="   99.338">  1  5  2 -1</clus>
<clus scale="   32.263">  1  5  2 -1</clus>
</clustering>
</event>
<event>
 9    1  0.1399746E-005  0.1079818E+03  0.7546771E-02  0.1265920E+00
         21   -1    0    0  501  502  0.00000000000E+00  0.00000000000E+00  0.12299839632E+03  0.12299839632E+03  0.00000000000E+00 0.  1.
          3   -1    0    0  502    0 -0.00000000000E+00 -0.00000000000E+00 -0.16524933162E+03  0.16524933162E+03  0.00000000000E+00 0. -1.
         23    2    1    2    0    0 -0.15189184759E+02  0.51060817524E+02 -0.86000362110E+02  0.13551688111E+03  0.90171194747E+02 0.  0.
         23    2    1    2    0    0  0.12584846213E+02 -0.79162871659E+02  0.39444852594E+02  0.12418198722E+03  0.86256193698E+02 0.  0.
        -11    1    3    3    0    0 -0.32621688660E+02 -0.99917084849E+01 -0.81859386082E+01  0.35085871806E+02  0.00000000000E+00 0.  1.
         11    1    3    3    0    0  0.17432503901E+02  0.61052526008E+02 -0.77814423502E+02  0.10043100930E+03  0.00000000000E+00 0. -1.
        -11    1    4    4    0    0 -0.28680416154E+02 -0.49175048646E+02  0.45414366474E+02  0.72823185610E+02  0.00000000000E+00 0.  1.
         11    1    4    4    0    0  0.41265262367E+02 -0.29987823013E+02 -0.59695138801E+01  0.51358801614E+02  0.00000000000E+00 0. -1.
          3    1    1    2  501    0  0.26043385459E+01  0.28102054136E+02  0.43045742216E+01  0.28548859612E+02  0.00000000000E+00 0. -1.
<scales pt_clust_5="13000.00000" pt_clust_6="13000.00000" pt_clust_7="13000.00000" pt_clust_8="13000.00000" pt_clust_9="28.22247"></scales>
<clustering>
<clus scale="   28.222">  1  9  2 -1</clus>
<clus scale="   86.256">  7  8 -1 -1</clus>
<clus scale="   90.171">  5  6 -1 -1</clus>
<clus scale="  104.735">  1  7  2 -1</clus>
<clus scale="   28.222">  1  5  2 -1</clus>
</clustering>
</event>
<event>
 9    1  0.1399746E-005  0.9479590E+02  0.7546771E-02  0.1292239E+00
          2   -1    0    0  502    0 -0.00000000000E+00  0.00000000000E+00  0.14317900518E+03  0.14317900518E+03  0.00000000000E+00 0. -1.
         21   -1    0    0  501  502  0.00000000000E+00 -0.00000000000E+00 -0.15427083238E+03  0.15427083238E+03  0.00000000000E+00 0.  1.
         23    2    1    2    0    0  0.53197796962E+01  0.18486879287E+02  0.83342509080E+02  0.12523632505E+03  0.91477311562E+02 0.  0.
         23    2    1    2    0    0 -0.14732042634E+02 -0.52525706264E+02 -0.85338716591E+02  0.13574485839E+03  0.90376917024E+02 0.  0.
        -13    1    4    4    0    0  0.58911351506E+01 -0.73356328214E+02 -0.73860028716E+02  0.10426485604E+03  0.00000000000E+00 0.  1.
         13    1    4    4    0    0 -0.20623177785E+02  0.20830621949E+02 -0.11478687874E+02  0.31480002352E+02  0.00000000000E+00 0. -1.
        -13    1    3    3    0    0 -0.31216445972E+02  0.37490101308E+00 -0.13391162041E+01  0.31247404406E+02  0.00000000000E+00 0.  1.
         13    1    3    3    0    0  0.36536225669E+02  0.18111978274E+02  0.84681625284E+02  0.93988920644E+02  0.00000000000E+00 0. -1.
          2    1    1    2  501    0  0.94122629378E+01  0.34038826977E+02 -0.90956196867E+01  0.36468654117E+02  0.00000000000E+00 0. -1.
<scales pt_clust_5="13000.00000" pt_clust_6="13000.00000" pt_clust_7="13000.00000" pt_clust_8="13000.00000" pt_clust_9="35.31618"></scales>
<clustering>
<clus scale="   35.316">  2  9  1 -1</clus>
<clus scale="   90.377">  5  6 -1 -1</clus>
<clus scale="   91.477">  7  8 -1 -1</clus>
<clus scale="   93.734">  2  5  1 -1</clus>
<clus scale="   35.316">  2  5  1 -1</clus>
</clustering>
</event>
<event>
 9    1  0.1399746E-005  0.1086888E+03  0.7546771E-02  0.1265122E+00
         21   -1    0    0  501  502  0.00000000000E+00  0.00000000000E+00  0.25149257633E+03  0.25149257633E+03  0.00000000000E+00 0.  1.
         -3   -1    0    0    0  501 -0.00000000000E+00 -0.00000000000E+00 -0.17582804862E+03  0.17582804862E+03  0.00000000000E+00 0.  1.
         23    2    1    2    0    0 -0.68565197057E+02 -0.36966828631E+02 -0.75092660316E+02  0.14179595667E+03  0.91648529872E+02 0.  0.
         23    2    1    2    0    0  0.23633154695E+02 -0.64472930027E+02  0.23204701680E+02  0.11647275365E+03  0.91171045045E+02 0.  0.
        -11    1    3    3    0    0  0.20536495224E+02  0.28479881243E+00 -0.26956114168E+02  0.33888948603E+02  0.00000000000E+00 0.  1.
         11    1    3    3    0    0 -0.89101692281E+02 -0.37251627443E+02 -0.48136546148E+02  0.10790700807E+03  0.00000000000E+00 0. -1.
        -11    1    4    4    0    0  0.55576117663E+02 -0.31717817060E+02 -0.24156619151E+01  0.64035616621E+02  0.00000000000E+00 0. -1.
         11    1    4    4    0    0 -0.31942962967E+02 -0.32755112967E+02  0.25620363595E+02  0.52437137025E+02  0.00000000000E+00 0.  1.
         -3    1    1    2    0  502  0.44932042362E+02  0.10143975866E+03  0.12755248634E+03  0.16905191463E+03  0.00000000000E+00 0.  1.
<scales pt_clust_5="13000.00000" pt_clust_6="13000.00000" pt_clust_7="13000.00000" pt_clust_8="13000.00000" pt_clust_9="110.94554"></scales>
<clustering>
<clus scale="   91.171">  7  8 -1 -1</clus>
<clus scale="   91.649">  5  6 -1 -1</clus>
<clus scale="  110.946">  1  9  2 -1</clus>
<clus scale="  110.946">  1  7  2 -1</clus>
<clus scale="  108.689">  1  5  2 -1</clus>
</clustering>
</event>
<event>
 9    1  0.1399746E-005  0.2100746E+03  0.7546771E-02  0.1141726E+00
          1   -1    0    0  502    0 -0.00000000000E+00  0.00000000000E+00  0.47181490634E+03  0.47181490634E+03  0.00000000000E+00 0. -1.
         21   -1    0    0  501  502  0.00000000000E+00 -0.00000000000E+00 -0.14463072779E+03  0.14463072779E+03  0.00000000000E+00 0. -1.
         23    2    1    2    0    0  0.18672390757E+03 -0.86398900936E+02  0.16556934179E+03  0.28012720888E+03  0.93420867428E+02 0.  0.
         23    2    1    2    0    0 -0.11086846972E+03  0.13584016794E+03  0.82933842398E+02  0.21636349535E+03  0.95868509434E+02 0.  0.
        -11    1    3    3    0    0  0.44035078417E+02 -0.64467416678E+02  0.35318425633E+02  0.85688547271E+02  0.00000000000E+00 0.  1.
         11    1    3    3    0    0  0.14268882916E+03 -0.21931484259E+02  0.13025091616E+03  0.19443866161E+03  0.00000000000E+00 0. -1.
        -13    1    4    4    0    0 -0.68690027119E+02  0.13111195557E+02  0.25290061841E+02  0.74362695638E+02  0.00000000000E+00 0.  1.
         13    1    4    4    0    0 -0.42178442604E+02  0.12272897238E+03  0.57643780557E+02  0.14200079971E+03  0.00000000000E+00 0. -1.
          1    1    1    2  501    0 -0.75855437850E+02 -0.49441267000E+02  0.78680994353E+02  0.11995492990E+03  0.00000000000E+00 0. -1.
<scales pt_clust_5="13000.00000" pt_clust_6="13000.00000" pt_clust_7="13000.00000" pt_clust_8="13000.00000" pt_clust_9="90.54554"></scales>
<clustering>
<clus scale="   90.546">  2  9  1 -1</clus>
<clus scale="   93.421">  5  6 -1 -1</clus>
<clus scale="   95.869">  7  8 -1 -1</clus>
<clus scale="  208.969">  1  5  2 -1</clus>
<clus scale="   90.546">  2  5  1 -1</clus>
</clustering>
</event>
<event>
 9    1  0.1399746E-005  0.1115544E+03  0.7546771E-02  0.1263162E+00
          2   -1    0    0  502    0 -0.00000000000E+00  0.00000000000E+00  0.24583781009E+03  0.24583781009E+03  0.00000000000E+00 0. -1.
         21   -1    0    0  501  502  0.00000000000E+00 -0.00000000000E+00 -0.63799435579E+02  0.63799435579E+02  0.00000000000E+00 0. -1.
         23    2    1    2    0    0  0.73260943281E+02  0.64939953692E+01  0.12867137389E+03  0.17462318652E+03  0.92344989161E+02 0.  0.
         23    2    1    2    0    0 -0.49046567436E+02 -0.12457156733E+02  0.57783261506E+02  0.10968820968E+03  0.78306139616E+02 0.  0.
        -11    1    3    3    0    0  0.81261724642E+01  0.28229915410E+02  0.68958046423E+00  0.29384321060E+02  0.00000000000E+00 0.  1.
         11    1    3    3    0    0  0.65134770817E+02 -0.21735920041E+02  0.12798179343E+03  0.14523886546E+03  0.00000000000E+00 0. -1.
        -11    1    4    4    0    0 -0.25602992107E+02 -0.35406753516E+02  0.52458193646E+00  0.43696986001E+02  0.00000000000E+00 0. -1.
         11    1    4    4    0    0 -0.23443575329E+02  0.22949596783E+02  0.57258679570E+02  0.65991223680E+02  0.00000000000E+00 0.  1.
          2    1    1    2  501    0 -0.24214375845E+02  0.59631613636E+01 -0.44162608925E+01  0.25325849468E+02  0.00000000000E+00 0. -1.
<scales pt_clust_5="13000.00000" pt_clust_6="13000.00000" pt_clust_7="13000.00000" pt_clust_8="13000.00000" pt_clust_9="24.93783"></scales>
<clustering>
<clus scale="   24.938">  2  9  1 -1</clus>
<clus scale="   78.306">  7  8 -1 -1</clus>
<clus scale="   92.345">  5  6 -1 -1</clus>
<clus scale="  100.243">  2  7  1 -1</clus>
<clus scale="   24.938">  2  5  1 -1</clus>
</clustering>
</event>
<event>
 9    1  0.1399746E-005  0.9905199E+02  0.7546771E-02  0.1283022E+00
         -4   -1    0    0    0  501 -0.00000000000E+00  0.00000000000E+00  0.29544877297E+03  0.29544877297E+03  0.00000000000E+00 0.  1.
         21   -1    0    0  501  502  0.00000000000E+00 -0.00000000000E+00 -0.21788161318E+03  0.21788161318E+03  0.00000000000E+00 0. -1.
         23    2    1    2    0    0  0.34026788342E+02 -0.74063134961E+01  0.25863605758E+03  0.27643154927E+03  0.91154349034E+02 0.  0.
         23    2    1    2    0    0 -0.48166286662E+02 -0.33373816057E+02 -0.13165414803E+03  0.17128815275E+03  0.92590570837E+02 0.  0.
        -13    1    4    4    0    0 -0.48480102138E+02 -0.62244169946E+02 -0.10916479474E+03  0.13469079184E+03  0.00000000000E+00 0.  1.
         13    1    4    4    0    0  0.31381547569E+00  0.28870353889E+02 -0.22489353292E+02  0.36597360907E+02  0.00000000000E+00 0. -1.
        -13    1    3    3    0    0 -0.10671232100E+02 -0.36541177569E+02  0.62613597249E+02  0.73277523246E+02  0.00000000000E+00 0.  1.
         13    1    3    3    0    0  0.44698020442E+02  0.29134864073E+02  0.19602246033E+03  0.20315402603E+03  0.00000000000E+00 0. -1.
         -4    1    1    2    0  502  0.14139498320E+02  0.40780129553E+02 -0.49414749758E+02  0.65610684136E+02  0.00000000000E+00 0.  1.
<scales pt_clust_5="13000.00000" pt_clust_6="13000.00000" pt_clust_7="13000.00000" pt_clust_8="13000.00000" pt_clust_9="43.16184"></scales>
<clustering>
<clus scale="   43.162">  2  9  1 -1</clus>
<clus scale="   91.154">  7  8 -1 -1</clus>
<clus scale="   92.591">  5  6 -1 -1</clus>
<clus scale="   97.711">  1  7  2 -1</clus>
<clus scale="   43.162">  2  5  1 -1</clus>
</clustering>
</event>
<event>
 9    1  0.1399746E-005  0.2052271E+03  0.7546771E-02  0.1166260E+00
          3   -1    0    0  502    0 -0.00000000000E+00  0.00000000000E+00  0.30963858223E+03  0.30963858223E+03  0.00000000000E+00 0. -1.
         21   -1    0    0  501  502  0.00000000000E+00 -0.00000000000E+00 -0.38102575550E+03  0.38102575550E+03  0.00000000000E+00 0.  1.
         23    2    1    2    0    0 -0.77311557282E+02  0.39227581115E+02  0.17557913772E+03  0.21601406080E+03  0.91203951946E+02 0.  0.
         23    2    1    2    0    0  0.75977960276E+02 -0.19550961877E+03 -0.21712405648E+03  0.31553895136E+03  0.91789500696E+02 0.  0.
        -11    1    4    4    0    0  0.31074989616E+02 -0.11970462087E+02 -0.64717546580E+02  0.72782606284E+02  0.00000000000E+00 0. -1.
         11    1    4    4    0    0  0.44902970660E+02 -0.18353915669E+03 -0.15240650990E+03  0.24275634507E+03  0.00000000000E+00 0.  1.
        -13    1    3    3    0    0 -0.15206465075E+01  0.20266351367E+02 -0.35111528234E+01  0.20624392299E+02  0.00000000000E+00 0.  1.
         13    1    3    3    0    0 -0.75790910774E+02  0.18961229747E+02  0.17909029054E+03  0.19538966850E+03  0.00000000000E+00 0. -1.
          3    1    1    2  501    0  0.13335970058E+01  0.15628203766E+03 -0.29842254500E+02  0.15911132559E+03  0.00000000000E+00 0. -1.
<scales pt_clust_5="13000.00000" pt_clust_6="13000.00000" pt_clust_7="13000.00000" pt_clust_8="13000.00000" pt_clust_9="183.55620"></scales>
<clustering>
<clus scale="   91.204">  7  8 -1 -1</clus>
<clus scale="   91.790">  5  6 -1 -1</clus>
<clus scale="  125.833">  1  7  2 -1</clus>
<clus scale="  183.556">  2  9  1 -1</clus>
<clus scale="  183.556">  2  5  1 -1</clus>
</clustering>
</event>
<event>
 9    1  0.1399746E-005  0.9885143E+02  0.7546771E-02  0.1285949E+00
          2   -1    0    0  502    0 -0.00000000000E+00  0.00000000000E+00  0.33262936722E+03  0.33262936722E+03  0.00000000000E+00 0. -1.
         21   -1    0    0  501  502  0.00000000000E+00 -0.00000000000E+00 -0.51919977947E+02  0.51919977947E+02  0.00000000000E+00 0.  1.
         23    2    1    2    0    0  0.10865107602E+02  0.27555887686E+01  0.22175940053E+03  0.24269222422E+03  0.97962442501E+02 0.  0.
         23    2    1    2    0    0 -0.16587656240E+02  0.28058054228E+02  0.43652042807E+02  0.10698226887E+03  0.92072255673E+02 0.  0.
        -13    1    3    3    0    0 -0.25659277084E+01  0.48541386988E+02  0.13779024598E+03  0.14611297726E+03  0.00000000000E+00 0.  1.
         13    1    3    3    0    0  0.13431035310E+02 -0.45785798219E+02  0.83969154548E+02  0.96579246961E+02  0.00000000000E+00 0. -1.
        -13    1    4    4    0    0 -0.95062510291E+01  0.61629121395E+02  0.20702940363E+02  0.65704863992E+02  0.00000000000E+00 0.  1.
         13    1    4    4    0    0 -0.70814052111E+01 -0.33571067167E+02  0.22949102444E+02  0.41277404878E+02  0.00000000000E+00 0. -1.
          2    1    1    2  501    0  0.57225486382E+01 -0.30813642996E+02  0.15297945940E+02  0.34874852080E+02  0.00000000000E+00 0. -1.
<scales pt_clust_5="13000.00000" pt_clust_6="13000.00000" pt_clust_7="13000.00000" pt_clust_8="13000.00000" pt_clust_9="31.34052"></scales>
<clustering>
<clus scale="   31.341">  2  9  1 -1</clus>
<clus scale="   92.072">  7  8 -1 -1</clus>
<clus scale="   93.018">  2  7  1 -1</clus>
<clus scale="   97.962">  5  6 -1 -1</clus>
<clus scale="   31.341">  2  5  1 -1</clus>
</clustering>
</event>
<event>
 9    1  0.1399746E-005  0.2032885E+03  0.7546771E-02  0.1168674E+00
         21   -1    0    0  501  502  0.00000000000E+00  0.00000000000E+00  0.46103229343E+03  0.46103229343E+03  0.00000000000E+00 0. -1.
         -1   -1    0    0    0  501 -0.00000000000E+00 -0.00000000000E+00 -0.21524232887E+03  0.21524232887E+03  0.00000000000E+00 0. -1.
         23    2    1    2    0    0  0.74662352279E+02 -0.41725167252E+02  0.82315772916E+02  0.14757249768E+03  0.87671541388E+02 0.  0.
         23    2    1    2    0    0 -0.20553384664E+03  0.14424850528E+03 -0.34356398874E+02  0.27029290377E+03  0.93947316591E+02 0.  0.
        -13    1    4    4    0    0 -0.20569459703E+02 -0.44256034062E+01  0.17519826449E+02  0.27379425793E+02  0.00000000000E+00 0.  1.
         13    1    4    4    0    0 -0.18496438694E+03  0.14867410869E+03 -0.51876225322E+02  0.24291347798E+03  0.00000000000E+00 0. -1.
        -13    1    3    3    0    0 -0.19841435189E+02 -0.96709543605E+01  0.94569105951E+01  0.24013393484E+02  0.00000000000E+00 0. -1.
         13    1    3    3    0    0  0.94503787468E+02 -0.32054212892E+02  0.72858862321E+02  0.12355910419E+03  0.00000000000E+00 0.  1.
         -1    1    1    2    0  502  0.13087149436E+03 -0.10252333803E+03  0.19783059052E+03  0.25840922086E+03  0.00000000000E+00 0. -1.
<scales pt_clust_5="13000.00000" pt_clust_6="13000.00000" pt_clust_7="13000.00000" pt_clust_8="13000.00000" pt_clust_9="180.27788"></scales>
<clustering>
<clus scale="   87.672">  7  8 -1 -1</clus>
<clus scale="   93.947">  5  6 -1 -1</clus>
<clus scale="  122.482">  2  7  1 -1</clus>
<clus scale="  180.278">  1  9  2 -1</clus>
<clus scale="  180.278">  1  5  2 -1</clus>
</clustering>
</event>
<event>
 9    1  0.1399746E-005  0.2745903E+03  0.7546771E-02  0.1127892E+00
         21   -1    0    0  501  502  0.00000000000E+00  0.00000000000E+00  0.32802953071E+03  0.32802953071E+03  0.00000000000E+00 0. -1.
          1   -1    0    0  502    0 -0.00000000000E+00 -0.00000000000E+00 -0.68847656893E+03  0.68847656893E+03  0.00000000000E+00 0. -1.
         23    2    1    2    0    0 -0.23335928355E+00 -0.71020738958E+02 -0.26709261018E+03  0.29750970004E+03  0.11013427888E+03 0.  0.
         23    2    1    2    0    0  0.14860432265E+03  0.27070504072E+03 -0.26429717166E+03  0.41715341933E+03  0.93805738248E+02 0.  0.
        -11    1    4    4    0    0  0.92744228831E+02  0.78299642781E+02 -0.11596071178E+03  0.16786665160E+03  0.00000000000E+00 0. -1.
         11    1    4    4    0    0  0.55860093821E+02  0.19240539793E+03 -0.14833645988E+03  0.24928676773E+03  0.00000000000E+00 0.  1.
        -13    1    3    3    0    0 -0.84560255138E+01 -0.99639356098E+02 -0.22188049166E+03  0.24337308444E+03  0.00000000000E+00 0.  1.
         13    1    3    3    0    0  0.82226662302E+01  0.28618617140E+02 -0.45212118523E+02  0.54136615597E+02  0.00000000000E+00 0. -1.
          1    1    1    2  501    0 -0.14837096337E+03 -0.19968430176E+03  0.17094274363E+03  0.30184298027E+03  0.00000000000E+00 0. -1.
<scales pt_clust_5="13000.00000" pt_clust_6="13000.00000" pt_clust_7="13000.00000" pt_clust_8="13000.00000" pt_clust_9="258.07036"></scales>
<clustering>
<clus scale="   93.806">  5  6 -1 -1</clus>
<clus scale="  110.134">  7  8 -1 -1</clus>
<clus scale="  131.048">  2  7  1 -1</clus>
<clus scale="  258.070">  1  9  2 -1</clus>
<clus scale="  258.070">  1  5  2 -1</clus>
</clustering>
</event>
<event>
 9    1  0.1399746E-005  0.1106271E+03  0.7546771E-02  0.1267549E+00
          1   -1    0    0  502    0 -0.00000000000E+00  0.00000000000E+00  0.36115190044E+03  0.36115190044E+03  0.00000000000E+00 0. -1.
         21   -1    0    0  501  502  0.00000000000E+00 -0.00000000000E+00 -0.41028911359E+02  0.41028911359E+02  0.00000000000E+00 0.  1.
         23    2    1    2    0    0  0.14505571436E+02  0.17874973263E+02  0.13560582808E+03  0.16287464568E+03  0.87231206134E+02 0.  0.
         23    2    1    2    0    0 -0.40804475702E+02 -0.36465641780E+02  0.15993986533E+03  0.19879334366E+03  0.10461015578E+03 0.  0.
        -11    1    3    3    0    0 -0.33319899633E+02  0.25184500863E+02  0.66030904747E+02  0.78131652850E+02  0.00000000000E+00 0.  1.
         11    1    3    3    0    0  0.47825471069E+02 -0.73095276009E+01  0.69574923335E+02  0.84742992830E+02  0.00000000000E+00 0. -1.
        -13    1    4    4    0    0  0.16487569791E+02 -0.12395436267E+02 -0.60959689024E+01  0.21509245331E+02  0.00000000000E+00 0.  1.
         13    1    4    4    0    0 -0.57292045493E+02 -0.24070205512E+02  0.16603583423E+03  0.17728409833E+03  0.00000000000E+00 0. -1.
          1    1    1    2  501    0  0.26298904266E+02  0.18590668517E+02  0.24577295672E+02  0.40512822465E+02  0.00000000000E+00 0. -1.
<scales pt_clust_5="13000.00000" pt_clust_6="13000.00000" pt_clust_7="13000.00000" pt_clust_8="13000.00000" pt_clust_9="32.20629"></scales>
<clustering>
<clus scale="   32.206">  2  9  1 -1</clus>
<clus scale="   87.231">  5  6 -1 -1</clus>
<clus scale="   94.363">  1  5  2 -1</clus>
<clus scale="  104.610">  7  8 -1 -1</clus>
<clus scale="   32.206">  2  5  1 -1</clus>
</clustering>
</event>
<event>
 9    1  0.1399746E-005  0.1975800E+03  0.7546771E-02  0.1152067E+00
         21   -1    0    0  501  502  0.00000000000E+00  0.00000000000E+00  0.10525891031E+04  0.10525891031E+04  0.00000000000E+00 0. -1.
         -3   -1    0    0    0  501 -0.00000000000E+00 -0.00000000000E+00 -0.52650200725E+02  0.52650200725E+02  0.00000000000E+00 0.  1.
         23    2    1    2    0    0 -0.49018125322E+02  0.14516703439E+03  0.32347952313E+03  0.36922950188E+03  0.90637622932E+02 0.  0.
         23    2    1    2    0    0  0.51565259449E+02 -0.19987379602E+03  0.44740444184E+03  0.50049869390E+03  0.87861810284E+02 0.  0.
        -13    1    3    3    0    0  0.13792295248E+02  0.35656519152E+02  0.14925765995E+03  0.15407616240E+03  0.00000000000E+00 0. -1.
         13    1    3    3    0    0 -0.62810420570E+02  0.10951051523E+03  0.17422186319E+03  0.21515333948E+03  0.00000000000E+00 0.  1.
        -13    1    4    4    0    0  0.58817075763E-01 -0.13684988785E+03  0.33364098264E+03  0.36061641749E+03  0.00000000000E+00 0. -1.
         13    1    4    4    0    0  0.51506442373E+02 -0.63023908172E+02  0.11376345919E+03  0.13988227641E+03  0.00000000000E+00 0.  1.
         -3    1    1    2    0  502 -0.25471341270E+01  0.54706761635E+02  0.22905493742E+03  0.23551110805E+03  0.00000000000E+00 0.  1.
<scales pt_clust_5="13000.00000" pt_clust_6="13000.00000" pt_clust_7="13000.00000" pt_clust_8="13000.00000" pt_clust_9="54.76603"></scales>
<clustering>
<clus scale="   54.766">  1  9  2 -1</clus>
<clus scale="   87.862">  7  8 -1 -1</clus>
<clus scale="   90.638">  5  6 -1 -1</clus>
<clus scale="  196.322">  1  7  2 -1</clus>
<clus scale="   54.766">  1  5  2 -1</clus>
</clustering>
</event>
<event>
 9    1  0.1399746E-005  0.2310033E+03  0.7546771E-02  0.1126114E+00
          4   -1    0    0  502    0 -0.00000000000E+00  0.00000000000E+00  0.28378662605E+03  0.28378662605E+03  0.00000000000E+00 0. -1.
         21   -1    0    0  501  502  0.00000000000E+00 -0.00000000000E+00 -0.96843817944E+03  0.96843817944E+03  0.00000000000E+00 0.  1.
         23    2    1    2    0    0  0.11606805103E+03 -0.17563698305E+03  0.20978621568E+03  0.31113571135E+03  0.92059938629E+02 0.  0.
         23    2    1    2    0    0 -0.99679152880E+02  0.21310162969E+03 -0.77399263805E+03  0.81389151037E+03  0.89479320509E+02 0.  0.
        -11    1    3    3    0    0  0.59688295007E+02 -0.73613179406E+02  0.15652148970E+03  0.18297696434E+03  0.00000000000E+00 0.  1.
         11    1    3    3    0    0  0.56379756028E+02 -0.10202380365E+03  0.53264725986E+02  0.12815874701E+03  0.00000000000E+00 0. -1.
        -13    1    4    4    0    0 -0.41160599695E+02  0.16739890450E+02 -0.99657481191E+02  0.10911476736E+03  0.00000000000E+00 0. -1.
         13    1    4    4    0    0 -0.58518553185E+02  0.19636173924E+03 -0.67433515686E+03  0.70477674301E+03  0.00000000000E+00 0.  1.
          4    1    1    2  501    0 -0.16388898154E+02 -0.37464646636E+02 -0.12044513102E+03  0.12719758377E+03  0.00000000000E+00 0. -1.
<scales pt_clust_5="13000.00000" pt_clust_6="13000.00000" pt_clust_7="13000.00000" pt_clust_8="13000.00000" pt_clust_9="40.89249"></scales>
<clustering>
<clus scale="   40.892">  2  9  1 -1</clus>
<clus scale="   89.479">  7  8 -1 -1</clus>
<clus scale="   92.060">  5  6 -1 -1</clus>
<clus scale="  229.987">  2  7  1 -1</clus>
<clus scale="   40.892">  2  5  1 -1</clus>
</clustering>
</event>
<event>
 9    1  0.1399746E-005  0.1005260E+03  0.7546771E-02  0.1279533E+00
         21   -1    0    0  501  502  0.00000000000E+00  0.00000000000E+00  0.39431326562E+03  0.39431326562E+03  0.00000000000E+00 0.  1.
          4   -1    0    0  502    0 -0.00000000000E+00 -0.00000000000E+00 -0.17553899069E+03  0.17553899069E+03  0.00000000000E+00 0. -1.
         23    2    1    2    0    0 -0.26333768118E+02  0.33505169972E+02 -0.14975040615E+03  0.18055284294E+03  0.91422542046E+02 0.  0.
         23    2    1    2    0    0  0.39962745804E+01 -0.26816990407E+02  0.33726469356E+03  0.35030092386E+03  0.90709109529E+02 0.  0.
        -11    1    4    4    0    0 -0.28614799098E+02  0.21848889387E+02  0.13586793263E+03  0.14055701978E+03  0.00000000000E+00 0. -1.
         11    1    4    4    0    0  0.32611073679E+02 -0.48665879794E+02  0.20139676093E+03  0.20974390408E+03  0.00000000000E+00 0.  1.
        -11    1    3    3    0    0 -0.33589308044E+02  0.13306099017E+02 -0.15441827659E+03  0.15858845491E+03  0.00000000000E+00 0. -1.
         11    1    3    3    0    0  0.72555399256E+01  0.20199070955E+02  0.46678704418E+01  0.21964388029E+02  0.00000000000E+00 0.  1.
          4    1    1    2  501    0  0.22337493538E+02 -0.66881795650E+01  0.31259987521E+02  0.38998489499E+02  0.00000000000E+00 0. -1.
<scales pt_clust_5="13000.00000" pt_clust_6="13000.00000" pt_clust_7="13000.00000" pt_clust_8="13000.00000" pt_clust_9="23.31728"></scales>
<clustering>
<clus scale="   23.317">  1  9  2 -1</clus>
<clus scale="   90.709">  5  6 -1 -1</clus>
<clus scale="   91.423">  7  8 -1 -1</clus>
<clus scale="   99.878">  1  5  2 -1</clus>
<clus scale="   23.317">  1  5  2 -1</clus>
</clustering>
</event>
<event>
 9    1  0.1399746E-005  0.1742648E+03  0.7546771E-02  0.1173572E+00
         21   -1    0    0  501  502  0.00000000000E+00  0.00000000000E+00  0.26595105951E+02  0.26595105951E+02  0.00000000000E+00 0.  1.
          2   -1    0    0  502    0 -0.00000000000E+00 -0.00000000000E+00 -0.16746830428E+04  0.16746830428E+04  0.00000000000E+00 0. -1.
         23    2    1    2    0    0 -0.61216503531E+02 -0.14450572896E+03 -0.92639057763E+03  0.94415571933E+03  0.92742406704E+02 0.  0.
         23    2    1    2    0    0  0.85304944949E+02  0.11015115785E+03 -0.67027446353E+03  0.69075373373E+03  0.91992679031E+02 0.  0.
        -11    1    3    3    0    0 -0.75191225148E+02 -0.64615886256E+02 -0.57874122313E+03  0.58717147108E+03  0.00000000000E+00 0. -1.
         11    1    3    3    0    0  0.13974721617E+02 -0.79889842709E+02 -0.34764935450E+03  0.35698424825E+03  0.00000000000E+00 0.  1.
        -11    1    4    4    0    0  0.10529213379E+03  0.90872100849E+02 -0.54961814517E+03  0.56694292275E+03  0.00000000000E+00 0.  1.
         11    1    4    4    0    0 -0.19987188845E+02  0.19279057003E+02 -0.12065631835E+03  0.12381081098E+03  0.00000000000E+00 0. -1.
          2    1    1    2  501    0 -0.24088441418E+02  0.34354571113E+02 -0.51422895652E+02  0.66368695660E+02  0.00000000000E+00 0. -1.
<scales pt_clust_5="13000.00000" pt_clust_6="13000.00000" pt_clust_7="13000.00000" pt_clust_8="13000.00000" pt_clust_9="41.95819"></scales>
<clustering>
<clus scale="   41.958">  1  9  2 -1</clus>
<clus scale="   91.993">  7  8 -1 -1</clus>
<clus scale="   92.742">  5  6 -1 -1</clus>
<clus scale="  173.867">  1  7  2 -1</clus>
<clus scale="   41.958">  1  5  2 -1</clus>
</clustering>
</event>
<event>
 9    1  0.1399746E-005  0.9217760E+02  0.7546771E-02  0.1298362E+00
         21   -1    0    0  501  502  0.00000000000E+00  0.00000000000E+00  0.29474235665E+03  0.29474235665E+03  0.00000000000E+00 0.  1.
         -2   -1    0    0    0  501 -0.00000000000E+00 -0.00000000000E+00 -0.87317529625E+02  0.87317529625E+02  0.00000000000E+00 0.  1.
         23    2    1    2    0    0 -0.75943218234E+01  0.15942017597E+02 -0.38099565129E+02  0.10018913875E+03  0.90964086380E+02 0.  0.
         23    2    1    2    0    0  0.18630484401E+02  0.76614531917E+01  0.10786614840E+03  0.14176823938E+03  0.89762658775E+02 0.  0.
        -11    1    4    4    0    0  0.51575202861E+02  0.21440263798E+02  0.59000071226E+02  0.81244660542E+02  0.00000000000E+00 0.  1.
         11    1    4    4    0    0 -0.32944718460E+02 -0.13778810606E+02  0.48866077178E+02  0.60523578834E+02  0.00000000000E+00 0. -1.
        -13    1    3    3    0    0  0.79922503348E+01  0.45783262894E+02  0.35771973110E+01  0.46613083648E+02  0.00000000000E+00 0.  1.
         13    1    3    3    0    0 -0.15586572158E+02 -0.29841245296E+02 -0.41676762440E+02  0.53576055099E+02  0.00000000000E+00 0. -1.
         -2    1    1    2    0  502 -0.11036162578E+02 -0.23603470789E+02  0.13765824375E+03  0.14010250815E+03  0.00000000000E+00 0.  1.
<scales pt_clust_5="13000.00000" pt_clust_6="13000.00000" pt_clust_7="13000.00000" pt_clust_8="13000.00000" pt_clust_9="26.05611"></scales>
<clustering>
<clus scale="   26.056">  1  9  2 -1</clus>
<clus scale="   89.763">  5  6 -1 -1</clus>
<clus scale="   90.964">  7  8 -1 -1</clus>
<clus scale="   90.992">  1  5  2 -1</clus>
<clus scale="   26.056">  1  5  2 -1</clus>
</clustering>
</event>
<event>
 9    1  0.1399746E-005  0.1233665E+03  0.7546771E-02  0.1240033E+00
          2   -1    0    0  502    0 -0.00000000000E+00  0.00000000000E+00  0.77990463834E+02  0.77990463834E+02  0.00000000000E+00 0. -1.
         21   -1    0    0  501  502  0.00000000000E+00 -0.00000000000E+00 -0.51645180898E+03  0.51645180898E+03  0.00000000000E+00 0. -1.
         23    2    1    2    0    0 -0.44215893384E+02  0.18730581957E+02 -0.36930056945E+02  0.11846432706E+03  0.10180416373E+03 0.  0.
         23    2    1    2    0    0  0.11517337655E+03 -0.53929279174E+02 -0.17560294260E+03  0.23656714806E+03  0.94627418191E+02 0.  0.
        -11    1    4    4    0    0  0.12308951018E+02  0.18441273696E+02 -0.20969075903E+01  0.22270785171E+02  0.00000000000E+00 0.  1.
         11    1    4    4    0    0  0.10286442554E+03 -0.72370552871E+02 -0.17350603501E+03  0.21429636289E+03  0.00000000000E+00 0. -1.
        -13    1    3    3    0    0 -0.38409968571E+02 -0.16752263969E+02 -0.61856641185E+02  0.74714175980E+02  0.00000000000E+00 0.  1.
         13    1    3    3    0    0 -0.58059248126E+01  0.35482845926E+02  0.24926584240E+02  0.43750151083E+02  0.00000000000E+00 0. -1.
          2    1    1    2  501    0 -0.70957483170E+02  0.35198697217E+02 -0.22592834560E+03  0.23941079769E+03  0.00000000000E+00 0. -1.
<scales pt_clust_5="13000.00000" pt_clust_6="13000.00000" pt_clust_7="13000.00000" pt_clust_8="13000.00000" pt_clust_9="79.20803"></scales>
<clustering>
<clus scale="   79.208">  2  9  1 -1</clus>
<clus scale="   94.627">  5  6 -1 -1</clus>
<clus scale="  101.804">  7  8 -1 -1</clus>
<clus scale="  117.514">  2  5  1 -1</clus>
<clus scale="   79.208">  2  5  1 -1</clus>
</clustering>
</event>
<event>
 9    1  0.1399746E-005  0.1144059E+03  0.7546771E-02  0.1257908E+00
         -4   -1    0    0    0  501 -0.00000000000E+00  0.00000000000E+00  0.32862540370E+03  0.32862540370E+03  0.00000000000E+00 0.  1.
         21   -1    0    0  501  502  0.00000000000E+00 -0.00000000000E+00 -0.16274190414E+03  0.16274190414E+03  0.00000000000E+00 0. -1.
         23    2    1    2    0    0 -0.51008133722E+02 -0.46228251034E+02  0.28316727065E+03  0.30106158799E+03  0.75600897466E+02 0.  0.
         23    2    1    2    0    0  0.59054518183E+02  0.65916316909E+02 -0.11038480779E+03  0.16794593596E+03  0.90491075046E+02 0.  0.
        -11    1    4    4    0    0  0.67046770731E+02  0.43845990308E+02 -0.32245023441E+02  0.86356712931E+02  0.00000000000E+00 0.  1.
         11    1    4    4    0    0 -0.79922525483E+01  0.22070326601E+02 -0.78139784344E+02  0.81589223029E+02  0.00000000000E+00 0. -1.
        -13    1    3    3    0    0  0.19236053060E+02 -0.15121945331E+02  0.52133789224E+02  0.57590198357E+02  0.00000000000E+00 0. -1.
         13    1    3    3    0    0 -0.70244186782E+02 -0.31106305703E+02  0.23103348143E+03  0.24347138964E+03  0.00000000000E+00 0.  1.
         -4    1    1    2    0  502 -0.80463844606E+01 -0.19688065875E+02 -0.68989633113E+01  0.22359783889E+02  0.00000000000E+00 0.  1.
<scales pt_clust_5="13000.00000" pt_clust_6="13000.00000" pt_clust_7="13000.00000" pt_clust_8="13000.00000" pt_clust_9="21.26886"></scales>
<clustering>
<clus scale="   21.269">  2  9  1 -1</clus>
<clus scale="   75.601">  7  8 -1 -1</clus>
<clus scale="   90.491">  5  6 -1 -1</clus>
<clus scale="  103.032">  1  7  2 -1</clus>
<clus scale="   21.269">  2  5  1 -1</clus>
</clustering>
</event>
<event>
 9    1  0.1399746E-005  0.1029356E+03  0.7546771E-02  0.1274792E+00
          1   -1    0    0  502    0 -0.00000000000E+00  0.00000000000E+00  0.42724212410E+03  0.42724212410E+03  0.00000000000E+00 0. -1.
         21   -1    0    0  501  502  0.00000000000E+00 -0.00000000000E+00 -0.18622658815E+03  0.18622658815E+03  0.00000000000E+00 0.  1.
         23    2    1    2    0    0  0.43755946345E+02 -0.17175895751E+02  0.39905231990E+03  0.41198265259E+03  0.90979985612E+02 0.  0.
         23    2    1    2    0    0 -0.21605529025E+02 -0.29873761020E+01 -0.12578747327E+03  0.15747223730E+03  0.92191614522E+02 0.  0.
        -11    1    4    4    0    0 -0.21285949836E+02 -0.26289484908E+02 -0.12952585307E+03  0.13386999399E+03  0.00000000000E+00 0.  1.
         11    1    4    4    0    0 -0.31957918892E+00  0.23302108806E+02  0.37383798021E+01  0.23602243309E+02  0.00000000000E+00 0. -1.
        -13    1    3    3    0    0 -0.46008666402E+01  0.27201621217E+02  0.52885902411E+02  0.59649097600E+02  0.00000000000E+00 0.  1.
         13    1    3    3    0    0  0.48356812986E+02 -0.44377516968E+02  0.34616641749E+03  0.35233355499E+03  0.00000000000E+00 0. -1.
          1    1    1    2  501    0 -0.22150417321E+02  0.20163271853E+02 -0.32249310683E+02  0.44013822361E+02  0.00000000000E+00 0. -1.
<scales pt_clust_5="13000.00000" pt_clust_6="13000.00000" pt_clust_7="13000.00000" pt_clust_8="13000.00000" pt_clust_9="29.95327"></scales>
<clustering>
<clus scale="   29.953">  2  9  1 -1</clus>
<clus scale="   90.980">  7  8 -1 -1</clus>
<clus scale="   92.192">  5  6 -1 -1</clus>
<clus scale="  101.852">  1  7  2 -1</clus>
<clus scale="   29.953">  2  5  1 -1</clus>
</clustering>
</event>
<event>
 9    1  0.1399746E-005  0.1154733E+03  0.7546771E-02  0.1269566E+00
         -1   -1    0    0    0  501 -0.00000000000E+00  0.00000000000E+00  0.15727207540E+03  0.15727207540E+03  0.00000000000E+00 0.  1.
         21   -1    0    0  501  502  0.00000000000E+00 -0.00000000000E+00 -0.11420044311E+03  0.11420044311E+03  0.00000000000E+00 0.  1.
         23    2    1    2    0    0 -0.28144373262E+02 -0.31279059861E+02  0.95362148100E+02  0.14823383035E+03  0.10539850017E+03 0.  0.
         23    2    1    2    0    0  0.39318120528E+02  0.48050648680E+02 -0.51230805607E+02  0.10305795961E+03  0.64355016549E+02 0.  0.
        -13    1    4    4    0    0  0.10734750795E+02  0.19263934075E+02  0.14086657453E+02  0.26168071173E+02  0.00000000000E+00 0. -1.
         13    1    4    4    0    0  0.28583369732E+02  0.28786714605E+02 -0.65317463061E+02  0.76889888436E+02  0.00000000000E+00 0.  1.
        -13    1    3    3    0    0 -0.65330534436E+02 -0.36825684920E+02  0.72039759378E+02  0.10399007996E+03  0.00000000000E+00 0.  1.
         13    1    3    3    0    0  0.37186161174E+02  0.55466250595E+01  0.23322388722E+02  0.44243750384E+02  0.00000000000E+00 0. -1.
         -1    1    1    2    0  502 -0.11173747265E+02 -0.16771588819E+02 -0.10597102064E+01  0.20180728559E+02  0.00000000000E+00 0.  1.
<scales pt_clust_5="13000.00000" pt_clust_6="13000.00000" pt_clust_7="13000.00000" pt_clust_8="13000.00000" pt_clust_9="20.15289"></scales>
<clustering>
<clus scale="   20.153">  2  9  1 -1</clus>
<clus scale="   64.355">  5  6 -1 -1</clus>
<clus scale="   79.792">  2  5  1 -1</clus>
<clus scale="  105.399">  7  8 -1 -1</clus>
<clus scale="   20.153">  2  5  1 -1</clus>
</clustering>
</event>
<event>
 9    1  0.1399746E-005  0.1106679E+03  0.7546771E-02  0.1259898E+00
         21   -1    0    0  501  502  0.00000000000E+00  0.00000000000E+00  0.13458322764E+03  0.13458322764E+03  0.00000000000E+00 0. -1.
          2   -1    0    0  502    0 -0.00000000000E+00 -0.00000000000E+00 -0.71114134419E+03  0.71114134419E+03  0.00000000000E+00 0. -1.
         23    2    1    2    0    0  0.97040079006E+01  0.68827358289E+02 -0.54668255281E+03  0.55837117452E+03  0.89917639873E+02 0.  0.
         23    2    1    2    0    0 -0.39525791346E+01 -0.42591377698E+02 -0.14080028517E+03  0.17322321096E+03  0.91388796773E+02 0.  0.
        -13    1    3    3    0    0  0.21803972636E+02 -0.16340500733E+02 -0.15198899459E+03  0.15441204507E+03  0.00000000000E+00 0.  1.
         13    1    3    3    0    0 -0.12099964736E+02  0.85167859023E+02 -0.39469355822E+03  0.40395912944E+03  0.00000000000E+00 0. -1.
        -13    1    4    4    0    0  0.23223653897E+02  0.16076625576E+02 -0.15485890339E+02  0.32211935518E+02  0.00000000000E+00 0. -1.
         13    1    4    4    0    0 -0.27176233032E+02 -0.58668003274E+02 -0.12531439483E+03  0.14101127544E+03  0.00000000000E+00 0.  1.
          2    1    1    2  501    0 -0.57514287659E+01 -0.26235980591E+02  0.11092472144E+03  0.11413018635E+03  0.00000000000E+00 0. -1.
<scales pt_clust_5="13000.00000" pt_clust_6="13000.00000" pt_clust_7="13000.00000" pt_clust_8="13000.00000" pt_clust_9="26.85899"></scales>
<clustering>
<clus scale="   26.859">  1  9  2 -1</clus>
<clus scale="   89.918">  5  6 -1 -1</clus>
<clus scale="   91.389">  7  8 -1 -1</clus>
<clus scale="  109.456">  2  5  1 -1</clus>
<clus scale="   26.859">  1  5  2 -1</clus>
</clustering>
</event>
<event>
 9    1  0.1399746E-005  0.1142458E+03  0.7546771E-02  0.1255804E+00
         -1   -1    0    0    0  501 -0.00000000000E+00  0.00000000000E+00  0.12299241983E+03  0.12299241983E+03  0.00000000000E+00 0.  1.
         21   -1    0    0  501  502  0.00000000000E+00 -0.00000000000E+00 -0.34249047809E+03  0.34249047809E+03  0.00000000000E+00 0. -1.
         23    2    1    2    0    0  0.17082924491E+02 -0.58684381810E+02  0.61364150176E+02  0.12654361597E+03  0.92260743755E+02 0.  0.
         23    2    1    2    0    0 -0.44640175347E+02  0.89524581937E+02 -0.13760155014E+03  0.18982812800E+03  0.84220754879E+02 0.  0.
        -11    1    4    4    0    0 -0.46456035627E+02  0.56942380590E+02 -0.33560188141E+02  0.80789134056E+02  0.00000000000E+00 0.  1.
         11    1    4    4    0    0  0.18158602803E+01  0.32582201347E+02 -0.10404136200E+03  0.10903899395E+03  0.00000000000E+00 0. -1.
        -11    1    3    3    0    0 -0.31925410995E+02 -0.48510742776E+02  0.46304420832E+02  0.74273975391E+02  0.00000000000E+00 0.  1.
         11    1    3    3    0    0  0.49008335486E+02 -0.10173639034E+02  0.15059729344E+02  0.52269640579E+02  0.00000000000E+00 0. -1.
         -1    1    1    2    0  502  0.27557250855E+02 -0.30840200126E+02 -0.14326065829E+03  0.14911115395E+03  0.00000000000E+00 0.  1.
<scales pt_clust_5="13000.00000" pt_clust_6="13000.00000" pt_clust_7="13000.00000" pt_clust_8="13000.00000" pt_clust_9="41.35843"></scales>
<clustering>
<clus scale="   41.358">  2  9  1 -1</clus>
<clus scale="   84.221">  5  6 -1 -1</clus>
<clus scale="   92.261">  7  8 -1 -1</clus>
<clus scale="  107.857">  2  5  1 -1</clus>
<clus scale="   41.358">  2  5  1 -1</clus>
</clustering>
</event>
<event>
 9    1  0.1399746E-005  0.2605492E+03  0.7546771E-02  0.1106862E+00
         -1   -1    0    0    0  501 -0.00000000000E+00  0.00000000000E+00  0.36259371101E+03  0.36259371101E+03  0.00000000000E+00 0.  1.
         21   -1    0    0  501  502  0.00000000000E+00 -0.00000000000E+00 -0.26476633893E+03  0.26476633893E+03  0.00000000000E+00 0.  1.
         23    2    1    2    0    0  0.21763012927E+03  0.12489408613E+03  0.16845658769E+03  0.31569960126E+03  0.91253549952E+02 0.  0.
         23    2    1    2    0    0 -0.20964261396E+03 -0.97655795827E+02 -0.15250087138E+02  0.24943045005E+03  0.92175399138E+02 0.  0.
        -11    1    3    3    0    0  0.76704402588E+02  0.21232499960E+02  0.11027021195E+02  0.80349110931E+02  0.00000000000E+00 0. -1.
         11    1    3    3    0    0  0.14092572669E+03  0.10366158617E+03  0.15742956650E+03  0.23535049033E+03  0.00000000000E+00 0.  1.
        -11    1    4    4    0    0 -0.11415940072E+03 -0.46179779467E+01 -0.20191282973E+02  0.11602319768E+03  0.00000000000E+00 0. -1.
         11    1    4    4    0    0 -0.95483213242E+02 -0.93037817880E+02  0.49411958354E+01  0.13340725236E+03  0.00000000000E+00 0.  1.
         -1    1    1    2    0  502 -0.79875153169E+01 -0.27238290302E+02 -0.55379128481E+02  0.62229998641E+02  0.00000000000E+00 0.  1.
<scales pt_clust_5="13000.00000" pt_clust_6="13000.00000" pt_clust_7="13000.00000" pt_clust_8="13000.00000" pt_clust_9="28.38529"></scales>
<clustering>
<clus scale="   28.385">  2  9  1 -1</clus>
<clus scale="   91.254">  5  6 -1 -1</clus>
<clus scale="   92.175">  7  8 -1 -1</clus>
<clus scale="  260.225">  1  5  2 -1</clus>
<clus scale="   28.385">  2  5  1 -1</clus>
</clustering>
</event>
<event>
 9    1  0.1399746E-005  0.2198499E+03  0.7546771E-02  0.1135518E+00
         21   -1    0    0  501  502  0.00000000000E+00  0.00000000000E+00  0.11712961083E+03  0.11712961083E+03  0.00000000000E+00 0. -1.
          2   -1    0    0  502    0 -0.00000000000E+00 -0.00000000000E+00 -0.13743250996E+04  0.13743250996E+04  0.00000000000E+00 0. -1.
         23    2    1    2    0    0  0.69353397716E+02 -0.18669655126E+03 -0.87592648248E+03  0.90128588517E+03  0.73508829883E+02 0.  0.
         23    2    1    2    0    0 -0.11281238615E+02  0.20352139163E+03 -0.44739451636E+03  0.50056952847E+03  0.94126385109E+02 0.  0.
        -11    1    3    3    0    0  0.47661395404E+02 -0.18402137891E+03 -0.80013542996E+03  0.82240633679E+03  0.00000000000E+00 0.  1.
         11    1    3    3    0    0  0.21692002312E+02 -0.26751723521E+01 -0.75791052523E+02  0.78879548389E+02  0.00000000000E+00 0. -1.
        -11    1    4    4    0    0 -0.44673707437E+02  0.80557995857E+02 -0.13751222119E+03  0.16551417404E+03  0.00000000000E+00 0.  1.
         11    1    4    4    0    0  0.33392468822E+02  0.12296339577E+03 -0.30988229516E+03  0.33505535443E+03  0.00000000000E+00 0. -1.
          2    1    1    2  501    0 -0.58072159101E+02 -0.16824840371E+02  0.66125510030E+02  0.89599296832E+02  0.00000000000E+00 0. -1.
<scales pt_clust_5="13000.00000" pt_clust_6="13000.00000" pt_clust_7="13000.00000" pt_clust_8="13000.00000" pt_clust_9="60.46033"></scales>
<clustering>
<clus scale="   60.460">  1  9  2 -1</clus>
<clus scale="   73.509">  5  6 -1 -1</clus>
<clus scale="   94.126">  7  8 -1 -1</clus>
<clus scale="  211.844">  2  5  1 -1</clus>
<clus scale="   60.460">  1  5  2 -1</clus>
</clustering>
</event>
<event>
 9    1  0.1431599E-005  0.1099273E+03  0.7546771E-02  0.1262283E+00
         21   -1    0    0  501  502  0.00000000000E+00  0.00000000000E+00  0.31006795877E+03  0.31006795877E+03  0.00000000000E+00 0.  1.
         -2   -1    0    0    0  501 -0.00000000000E+00 -0.00000000000E+00 -0.21811224017E+03  0.21811224017E+03  0.00000000000E+00 0.  1.
         23    2    1    2    0    0  0.40692876963E+01 -0.76941714589E+02 -0.15449670371E+03  0.19314070402E+03  0.86588183648E+02 0.  0.
         23    2    1    2    0    0  0.31314353442E+01  0.21398664382E+02  0.12002110712E+02  0.93992135575E+02  0.90679447306E+02 0.  0.
        -11    1    4    4    0    0  0.94956235868E+00  0.54484777420E+02  0.22871318133E+02  0.59098137300E+02  0.00000000000E+00 0. -1.
         11    1    4    4    0    0  0.21818729855E+01 -0.33086113038E+02 -0.10869207420E+02  0.34893998275E+02  0.00000000000E+00 0.  1.
        -13    1    3    3    0    0  0.20648644014E+02 -0.91187821945E+02 -0.11738026668E+03  0.15006569354E+03  0.00000000000E+00 0.  1.
         13    1    3    3    0    0 -0.16579356318E+02  0.14246107356E+02 -0.37116437031E+02  0.43075010488E+02  0.00000000000E+00 0. -1.
         -2    1    1    2    0  502 -0.72007230405E+01  0.55543050208E+02  0.23445031160E+03  0.24104735934E+03  0.00000000000E+00 0.  1.
<scales pt_clust_5="13000.00000" pt_clust_6="13000.00000" pt_clust_7="13000.00000" pt_clust_8="13000.00000" pt_clust_9="56.00786"></scales>
<clustering>
<clus scale="   56.008">  1  9  2 -1</clus>
<clus scale="   86.588">  7  8 -1 -1</clus>
<clus scale="   90.679">  5  6 -1 -1</clus>
<clus scale="  106.577">  2  7  1 -1</clus>
<clus scale="   56.008">  1  5  2 -1</clus>
</clustering>
</event>
<event>
 9    1  0.1399746E-005  0.1039505E+03  0.7546771E-02  0.1272827E+00
          2   -1    0    0  502    0 -0.00000000000E+00  0.00000000000E+00  0.68534615257E+03  0.68534615257E+03  0.00000000000E+00 0. -1.
         21   -1    0    0  501  502  0.00000000000E+00 -0.00000000000E+00 -0.20602366803E+02  0.20602366803E+02  0.00000000000E+00 0.  1.
         23    2    1    2    0    0  0.15401323161E+01 -0.43109280962E+02  0.35532549022E+03  0.36949504268E+03  0.91703873690E+02 0.  0.
         23    2    1    2    0    0 -0.21836091795E+02  0.55440994377E+02  0.26074888495E+03  0.28229898792E+03  0.90289638468E+02 0.  0.
        -13    1    4    4    0    0 -0.55107945010E+02  0.49838083991E+02  0.18578684617E+03  0.20009365914E+03  0.00000000000E+00 0.  1.
         13    1    4    4    0    0  0.33271853215E+02  0.56029103861E+01  0.74962038785E+02  0.82205328781E+02  0.00000000000E+00 0. -1.
        -13    1    3    3    0    0 -0.20390139366E+02 -0.62728957986E+02  0.29615831454E+03  0.30341461274E+03  0.00000000000E+00 0.  1.
         13    1    3    3    0    0  0.21930271682E+02  0.19619677024E+02  0.59167175684E+02  0.66080429939E+02  0.00000000000E+00 0. -1.
          2    1    1    2  501    0  0.20295959479E+02 -0.12331713415E+02  0.48669410594E+02  0.54154488775E+02  0.00000000000E+00 0. -1.
<scales pt_clust_5="13000.00000" pt_clust_6="13000.00000" pt_clust_7="13000.00000" pt_clust_8="13000.00000" pt_clust_9="23.74862"></scales>
<clustering>
<clus scale="   23.749">  2  9  1 -1</clus>
<clus scale="   90.290">  5  6 -1 -1</clus>
<clus scale="   91.704">  7  8 -1 -1</clus>
<clus scale="  102.705">  2  5  1 -1</clus>
<clus scale="   23.749">  2  5  1 -1</clus>
</clustering>
</event>
<event>
 9    1  0.1399746E-005  0.9987831E+02  0.7546771E-02  0.1281941E+00
         21   -1    0    0  501  502  0.00000000000E+00  0.00000000000E+00  0.38450648359E+02  0.38450648359E+02  0.00000000000E+00 0. -1.
         -3   -1    0    0    0  501 -0.00000000000E+00 -0.00000000000E+00 -0.45001056326E+03  0.45001056326E+03  0.00000000000E+00 0.  1.
         23    2    1    2    0    0  0.37826824440E+02  0.31537775097E+01 -0.26435960579E+03  0.28294976034E+03  0.93454538385E+02 0.  0.
         23    2    1    2    0    0 -0.24035634086E+02 -0.21721260006E+02 -0.55917331196E+02  0.11134388576E+03  0.90670767762E+02 0.  0.
        -11    1    4    4    0    0 -0.50925646021E+02  0.30282230619E+01 -0.88879173762E+01  0.51784038398E+02  0.00000000000E+00 0. -1.
         11    1    4    4    0    0  0.26890011934E+02 -0.24749483068E+02 -0.47029413819E+02  0.59559847365E+02  0.00000000000E+00 0.  1.
        -13    1    3    3    0    0  0.34453547486E+02 -0.37125456432E+02 -0.20479651141E+03  0.21096672139E+03  0.00000000000E+00 0.  1.
         13    1    3    3    0    0  0.33732769538E+01  0.40279233942E+02 -0.59563094383E+02  0.71983038952E+02  0.00000000000E+00 0. -1.
         -3    1    1    2    0  502 -0.13791190354E+02  0.18567482497E+02 -0.91282977920E+02  0.94167565518E+02  0.00000000000E+00 0.  1.
<scales pt_clust_5="13000.00000" pt_clust_6="13000.00000" pt_clust_7="13000.00000" pt_clust_8="13000.00000" pt_clust_9="23.12896"></scales>
<clustering>
<clus scale="   23.129">  1  9  2 -1</clus>
<clus scale="   90.671">  5  6 -1 -1</clus>
<clus scale="   93.455">  7  8 -1 -1</clus>
<clus scale="   97.279">  1  5  2 -1</clus>
<clus scale="   23.129">  1  5  2 -1</clus>
</clustering>
</event>
<event>
 9    1  0.1399746E-005  0.9358627E+02  0.7546771E-02  0.1295328E+00
         21   -1    0    0  501  502  0.00000000000E+00  0.00000000000E+00  0.74432984662E+02  0.74432984662E+02  0.00000000000E+00 0.  1.
         -1   -1    0    0    0  501 -0.00000000000E+00 -0.00000000000E+00 -0.51421002233E+03  0.51421002233E+03  0.00000000000E+00 0.  1.
         23    2    1    2    0    0  0.22268430409E+01 -0.34569815933E+02 -0.28159028427E+03  0.29832468350E+03  0.92219832930E+02 0.  0.
         23    2    1    2    0    0 -0.36563097231E+02 -0.43690119606E+02 -0.17315954591E+03  0.20355554128E+03  0.90581142721E+02 0.  0.
        -13    1    4    4    0    0 -0.46394333562E+01 -0.56025602739E+02 -0.48383729763E+02  0.74171273481E+02  0.00000000000E+00 0.  1.
         13    1    4    4    0    0 -0.31923663875E+02  0.12335483132E+02 -0.12477581614E+03  0.12938426780E+03  0.00000000000E+00 0. -1.
        -13    1    3    3    0    0  0.46913193100E+02 -0.15046104504E+02 -0.12681113896E+03  0.13604520540E+03  0.00000000000E+00 0. -1.
         13    1    3    3    0    0 -0.44686350059E+02 -0.19523711429E+02 -0.15477914531E+03  0.16227947810E+03  0.00000000000E+00 0.  1.
         -1    1    1    2    0  502  0.34336254191E+02  0.78259935539E+02  0.14972792507E+02  0.86762782216E+02  0.00000000000E+00 0.  1.
<scales pt_clust_5="13000.00000" pt_clust_6="13000.00000" pt_clust_7="13000.00000" pt_clust_8="13000.00000" pt_clust_9="85.46108"></scales>
<clustering>
<clus scale="   85.461">  1  9  2 -1</clus>
<clus scale="   90.581">  5  6 -1 -1</clus>
<clus scale="   91.972">  1  5  2 -1</clus>
<clus scale="   92.220">  7  8 -1 -1</clus>
<clus scale="   85.461">  1  5  2 -1</clus>
</clustering>
</event>
<event>
 9    1  0.1399746E-005  0.9699326E+02  0.7546771E-02  0.1288799E+00
          2   -1    0    0  502    0 -0.00000000000E+00  0.00000000000E+00  0.23094172955E+03  0.23094172955E+03  0.00000000000E+00 0. -1.
         21   -1    0    0  501  502  0.00000000000E+00 -0.00000000000E+00 -0.74741271398E+02  0.74741271398E+02  0.00000000000E+00 0.  1.
         23    2    1    2    0    0 -0.15294315341E+02 -0.15037718401E+02  0.15680831644E+03  0.18497007645E+03  0.95734173734E+02 0.  0.
         23    2    1    2    0    0  0.48314676514E+01 -0.10419152072E+02  0.39473773861E+01  0.92815368906E+02  0.92017439148E+02 0.  0.
        -11    1    4    4    0    0 -0.23278185899E+02 -0.39896590220E+02 -0.14055973315E+02  0.48282318045E+02  0.00000000000E+00 0.  1.
         11    1    4    4    0    0  0.28109653551E+02  0.29477438148E+02  0.18003350701E+02  0.44533050861E+02  0.00000000000E+00 0. -1.
        -13    1    3    3    0    0  0.40189612797E+02 -0.23573704628E+01  0.77768891832E+02  0.87571472004E+02  0.00000000000E+00 0. -1.
         13    1    3    3    0    0 -0.55483928138E+02 -0.12680347938E+02  0.79039424605E+02  0.97398604442E+02  0.00000000000E+00 0.  1.
          2    1    1    2  501    0  0.10462847690E+02  0.25456870473E+02 -0.45552356734E+01  0.27897555593E+02  0.00000000000E+00 0. -1.
<scales pt_clust_5="13000.00000" pt_clust_6="13000.00000" pt_clust_7="13000.00000" pt_clust_8="13000.00000" pt_clust_9="27.52314"></scales>
<clustering>
<clus scale="   27.523">  2  9  1 -1</clus>
<clus scale="   92.017">  5  6 -1 -1</clus>
<clus scale="   93.327">  2  5  1 -1</clus>
<clus scale="   95.734">  7  8 -1 -1</clus>
<clus scale="   27.523">  2  5  1 -1</clus>
</clustering>
</event>
<event>
 9    1  0.1399746E-005  0.1063718E+03  0.7546771E-02  0.1268253E+00
         21   -1    0    0  501  502  0.00000000000E+00  0.00000000000E+00  0.59537966243E+02  0.59537966243E+02  0.00000000000E+00 0. -1.
          1   -1    0    0  502    0 -0.00000000000E+00 -0.00000000000E+00 -0.72429511156E+03  0.72429511156E+03  0.00000000000E+00 0. -1.
         23    2    1    2    0    0  0.53578336700E+01 -0.58766980622E+02 -0.43023784241E+03  0.44352486133E+03  0.90152299970E+02 0.  0.
         23    2    1    2    0    0  0.21581779485E+02  0.44492854426E+02 -0.27235268145E+03  0.29171955557E+03  0.92081098546E+02 0.  0.
        -13    1    3    3    0    0 -0.37862212386E+02 -0.42693602989E+01 -0.16107637019E+03  0.16552151400E+03  0.00000000000E+00 0.  1.
         13    1    3    3    0    0  0.43220046056E+02 -0.54497620323E+02 -0.26916147222E+03  0.27800334733E+03  0.00000000000E+00 0. -1.
        -13    1    4    4    0    0 -0.76007591967E+01 -0.25189256862E+02 -0.44808253510E+02  0.51962003274E+02  0.00000000000E+00 0. -1.
         13    1    4    4    0    0  0.29182538682E+02  0.69682111288E+02 -0.22754442794E+03  0.23975755230E+03  0.00000000000E+00 0.  1.
          1    1    1    2  501    0 -0.26939613155E+02  0.14274126196E+02  0.37833378542E+02  0.48588660894E+02  0.00000000000E+00 0. -1.
<scales pt_clust_5="13000.00000" pt_clust_6="13000.00000" pt_clust_7="13000.00000" pt_clust_8="13000.00000" pt_clust_9="30.48759"></scales>
<clustering>
<clus scale="   30.488">  1  9  2 -1</clus>
<clus scale="   90.152">  5  6 -1 -1</clus>
<clus scale="   92.081">  7  8 -1 -1</clus>
<clus scale="  104.707">  2  5  1 -1</clus>
<clus scale="   30.488">  1  5  2 -1</clus>
</clustering>
</event>
<event>
 9    1  0.1399746E-005  0.1047488E+03  0.7546771E-02  0.1271315E+00
         21   -1    0    0  501  502  0.00000000000E+00  0.00000000000E+00  0.24044332317E+03  0.24044332317E+03  0.00000000000E+00 0.  1.
         -3   -1    0    0    0  501 -0.00000000000E+00 -0.00000000000E+00 -0.87429783736E+02  0.87429783736E+02  0.00000000000E+00 0.  1.
         23    2    1    2    0    0  0.17014098088E+02 -0.44053547592E+02  0.34738180127E+02  0.10893044894E+03  0.91809078841E+02 0.  0.
         23    2    1    2    0    0 -0.66902010533E+02  0.13681363291E+02  0.37349192628E+02  0.11914126599E+03  0.90203217001E+02 0.  0.
        -13    1    3    3    0    0  0.80104449504E+01  0.25552129277E+02 -0.64603290092E+01  0.27546585810E+02  0.00000000000E+00 0. -1.
         13    1    3    3    0    0  0.90036531377E+01 -0.69605676869E+02  0.41198509136E+02  0.81383863126E+02  0.00000000000E+00 0.  1.
        -13    1    4    4    0    0 -0.40973642402E+02 -0.22909763134E+02 -0.15863232063E+02  0.49551374855E+02  0.00000000000E+00 0.  1.
         13    1    4    4    0    0 -0.25928368131E+02  0.36591126425E+02  0.53212424691E+02  0.69589891137E+02  0.00000000000E+00 0. -1.
         -3    1    1    2    0  502  0.49887912445E+02  0.30372184301E+02  0.80926166676E+02  0.99801391975E+02  0.00000000000E+00 0.  1.
<scales pt_clust_5="13000.00000" pt_clust_6="13000.00000" pt_clust_7="13000.00000" pt_clust_8="13000.00000" pt_clust_9="58.40611"></scales>
<clustering>
<clus scale="   58.406">  1  9  2 -1</clus>
<clus scale="   90.203">  7  8 -1 -1</clus>
<clus scale="   91.809">  5  6 -1 -1</clus>
<clus scale="  103.344">  1  7  2 -1</clus>
<clus scale="   58.406">  1  5  2 -1</clus>
</clustering>
</event>
<event>
 9    1  0.1399746E-005  0.1213255E+03  0.7546771E-02  0.1241219E+00
         21   -1    0    0  501  502  0.00000000000E+00  0.00000000000E+00  0.68976825599E+02  0.68976825599E+02  0.00000000000E+00 0.  1.
          1   -1    0    0  502    0 -0.00000000000E+00 -0.00000000000E+00 -0.40991852770E+03  0.40991852770E+03  0.00000000000E+00 0. -1.
         23    2    1    2    0    0 -0.36134875066E+02  0.22188795537E+02 -0.87486328177E+02  0.13569690054E+03  0.94666358090E+02 0.  0.
         23    2    1    2    0    0  0.11550182609E+03 -0.29357686122E+02 -0.16177069456E+03  0.22172176225E+03  0.93745595481E+02 0.  0.
        -13    1    3    3    0    0 -0.99911539117E+01  0.58290373198E+02 -0.48733496649E+02  0.76632528731E+02  0.00000000000E+00 0.  1.
         13    1    3    3    0    0 -0.26143721154E+02 -0.36101577661E+02 -0.38752831528E+02  0.59064371806E+02  0.00000000000E+00 0. -1.
        -13    1    4    4    0    0  0.76875480904E+02  0.25687816791E+02 -0.11109145147E+03  0.13751732286E+03  0.00000000000E+00 0.  1.
         13    1    4    4    0    0  0.38626345188E+02 -0.55045502913E+02 -0.50679243085E+02  0.84204439392E+02  0.00000000000E+00 0. -1.
          1    1    1    2  501    0 -0.79366951027E+02  0.71688905844E+01 -0.91684679371E+02  0.12147669052E+03  0.00000000000E+00 0. -1.
<scales pt_clust_5="13000.00000" pt_clust_6="13000.00000" pt_clust_7="13000.00000" pt_clust_8="13000.00000" pt_clust_9="79.69010"></scales>
<clustering>
<clus scale="   79.690">  1  9  2 -1</clus>
<clus scale="   93.746">  7  8 -1 -1</clus>
<clus scale="   94.666">  5  6 -1 -1</clus>
<clus scale="  120.608">  1  7  2 -1</clus>
<clus scale="   79.690">  1  5  2 -1</clus>
</clustering>
</event>
<event>
 9    1  0.1399746E-005  0.1420542E+03  0.7546771E-02  0.1230243E+00
         21   -1    0    0  501  502  0.00000000000E+00  0.00000000000E+00  0.95202438874E+03  0.95202438874E+03  0.00000000000E+00 0. -1.
          1   -1    0    0  502    0 -0.00000000000E+00 -0.00000000000E+00 -0.36930092974E+02  0.36930092974E+02  0.00000000000E+00 0. -1.
         23    2    1    2    0    0 -0.20683702144E+02 -0.81399605108E+00  0.27801718965E+03  0.29349526379E+03  0.91746574870E+02 0.  0.
         23    2    1    2    0    0 -0.30408902895E+00  0.10828583034E+03  0.20118933369E+03  0.24602754048E+03  0.91249598146E+02 0.  0.
        -13    1    3    3    0    0  0.10305403043E+01 -0.42841904256E+02  0.90967906366E+02  0.10055670421E+03  0.00000000000E+00 0.  1.
         13    1    3    3    0    0 -0.21714242449E+02  0.42027908205E+02  0.18704928329E+03  0.19293855958E+03  0.00000000000E+00 0. -1.
        -13    1    4    4    0    0  0.44754607746E+00  0.69513227113E+02  0.19466261845E+03  0.20670225945E+03  0.00000000000E+00 0.  1.
         13    1    4    4    0    0 -0.75163510640E+00  0.38772603224E+02  0.65267152419E+01  0.39325281029E+02  0.00000000000E+00 0. -1.
          1    1    1    2  501    0  0.20987791173E+02 -0.10747183429E+03  0.43588777243E+03  0.44943167745E+03  0.00000000000E+00 0. -1.
<scales pt_clust_5="13000.00000" pt_clust_6="13000.00000" pt_clust_7="13000.00000" pt_clust_8="13000.00000" pt_clust_9="108.87111"></scales>
<clustering>
<clus scale="   91.250">  7  8 -1 -1</clus>
<clus scale="   91.747">  5  6 -1 -1</clus>
<clus scale="   94.053">  2  5  1 -1</clus>
<clus scale="  108.871">  1  9  2 -1</clus>
<clus scale="  108.871">  1  5  2 -1</clus>
</clustering>
</event>
<event>
 9    1  0.1399746E-005  0.9777292E+02  0.7546771E-02  0.1286076E+00
         21   -1    0    0  501  502  0.00000000000E+00  0.00000000000E+00  0.13865872859E+03  0.13865872859E+03  0.00000000000E+00 0. -1.
         -1   -1    0    0    0  501 -0.00000000000E+00 -0.00000000000E+00 -0.14857751132E+03  0.14857751132E+03  0.00000000000E+00 0.  1.
         23    2    1    2    0    0 -0.12128925227E+02 -0.24823250057E+02 -0.81173761188E+02  0.12556672566E+03  0.91730684708E+02 0.  0.
         23    2    1    2    0    0  0.15784410236E+02  0.49513527010E+02  0.21347555078E+02  0.10586876824E+03  0.89731494007E+02 0.  0.
        -11    1    3    3    0    0  0.14044273060E+00 -0.56472266317E+02 -0.69764691513E+02  0.89756608498E+02  0.00000000000E+00 0.  1.
         11    1    3    3    0    0 -0.12269367957E+02  0.31649016260E+02 -0.11409069675E+02  0.35810117162E+02  0.00000000000E+00 0. -1.
        -13    1    4    4    0    0 -0.30705587754E+02  0.45782098083E+02  0.21659826963E+02  0.59228217332E+02  0.00000000000E+00 0. -1.
         13    1    4    4    0    0  0.46489997991E+02  0.37314289276E+01 -0.31227188516E+00  0.46640550905E+02  0.00000000000E+00 0.  1.
         -1    1    1    2    0  502 -0.36554850098E+01 -0.24690276953E+02  0.49907423377E+02  0.55800746006E+02  0.00000000000E+00 0.  1.
<scales pt_clust_5="13000.00000" pt_clust_6="13000.00000" pt_clust_7="13000.00000" pt_clust_8="13000.00000" pt_clust_9="24.95941"></scales>
<clustering>
<clus scale="   24.959">  1  9  2 -1</clus>
<clus scale="   89.731">  7  8 -1 -1</clus>
<clus scale="   91.731">  5  6 -1 -1</clus>
<clus scale="   95.900">  1  7  2 -1</clus>
<clus scale="   24.959">  1  5  2 -1</clus>
</clustering>
</event>
<event>
 9    1  0.1399746E-005  0.1255031E+03  0.7546771E-02  0.1247372E+00
         21   -1    0    0  501  502  0.00000000000E+00  0.00000000000E+00  0.17801453183E+03  0.17801453183E+03  0.00000000000E+00 0.  1.
          1   -1    0    0  502    0 -0.00000000000E+00 -0.00000000000E+00 -0.10971072148E+03  0.10971072148E+03  0.00000000000E+00 0. -1.
         23    2    1    2    0    0 -0.20453548925E+01 -0.20206242143E+02 -0.50597182332E+00  0.96683831681E+02  0.94525296101E+02 0.  0.
         23    2    1    2    0    0  0.18901234269E+02  0.93444368033E+01  0.71124247608E+01  0.12616720953E+03  0.12418938368E+03 0.  0.
        -11    1    4    4    0    0 -0.11205132701E+02 -0.51353348616E+02 -0.15399650693E+02  0.54771074980E+02  0.00000000000E+00 0.  1.
         11    1    4    4    0    0  0.30106366970E+02  0.60697785420E+02  0.22512075454E+02  0.71396134547E+02  0.00000000000E+00 0. -1.
        -11    1    3    3    0    0  0.31384997197E+02 -0.45127171606E+02 -0.11988370517E+01  0.54981059252E+02  0.00000000000E+00 0.  1.
         11    1    3    3    0    0 -0.33430352089E+02  0.24920929463E+02  0.69286522837E+00  0.41702772430E+02  0.00000000000E+00 0. -1.
          1    1    1    2  501    0 -0.16855879377E+02  0.10861805340E+02  0.61697357413E+02  0.64874212107E+02  0.00000000000E+00 0. -1.
<scales pt_clust_5="13000.00000" pt_clust_6="13000.00000" pt_clust_7="13000.00000" pt_clust_8="13000.00000" pt_clust_9="20.05242"></scales>
<clustering>
<clus scale="   20.052">  1  9  2 -1</clus>
<clus scale="   94.525">  7  8 -1 -1</clus>
<clus scale="   96.245">  2  7  1 -1</clus>
<clus scale="  124.189">  5  6 -1 -1</clus>
<clus scale="   20.052">  1  5  2 -1</clus>
</clustering>
</event>
<event>
 9    1  0.1399746E-005  0.1133279E+03  0.7546771E-02  0.1254750E+00
          3   -1    0    0  502    0 -0.00000000000E+00  0.00000000000E+00  0.41992403535E+03  0.41992403535E+03  0.00000000000E+00 0. -1.
         21   -1    0    0  501  502  0.00000000000E+00 -0.00000000000E+00 -0.14008708570E+03  0.14008708570E+03  0.00000000000E+00 0. -1.
         23    2    1    2    0    0 -0.59071381514E+02  0.24857538094E+02  0.27506353815E+03  0.29638887178E+03  0.89883747061E+02 0.  0.
         23    2    1    2    0    0  0.78428678736E+02 -0.15326802770E+02  0.10566814369E+03  0.16044624985E+03  0.90505657116E+02 0.  0.
        -11    1    4    4    0    0  0.44319627861E+02  0.37359302512E+02  0.49827136527E+02  0.76437493630E+02  0.00000000000E+00 0.  1.
         11    1    4    4    0    0  0.34109050876E+02 -0.52686105282E+02  0.55841007163E+02  0.84008756225E+02  0.00000000000E+00 0. -1.
        -11    1    3    3    0    0 -0.62539231373E+02 -0.19484522435E+02  0.15109733090E+03  0.16468517080E+03  0.00000000000E+00 0. -1.
         11    1    3    3    0    0  0.34678498590E+01  0.44342060530E+02  0.12396620724E+03  0.13170370099E+03  0.00000000000E+00 0.  1.
          3    1    1    2  501    0 -0.19357297222E+02 -0.95307353244E+01 -0.10089473218E+03  0.10317599941E+03  0.00000000000E+00 0. -1.
<scales pt_clust_5="13000.00000" pt_clust_6="13000.00000" pt_clust_7="13000.00000" pt_clust_8="13000.00000" pt_clust_9="21.57637"></scales>
<clustering>
<clus scale="   21.576">  2  9  1 -1</clus>
<clus scale="   89.884">  7  8 -1 -1</clus>
<clus scale="   90.506">  5  6 -1 -1</clus>
<clus scale="  112.832">  1  7  2 -1</clus>
<clus scale="   21.576">  2  5  1 -1</clus>
</clustering>
</event>
<event>
 9    1  0.1399746E-005  0.1054694E+03  0.7546771E-02  0.1272958E+00
         21   -1    0    0  501  502  0.00000000000E+00  0.00000000000E+00  0.46341831262E+02  0.46341831262E+02  0.00000000000E+00 0. -1.
         -1   -1    0    0    0  501 -0.00000000000E+00 -0.00000000000E+00 -0.30143189192E+03  0.30143189192E+03  0.00000000000E+00 0.  1.
         23    2    1    2    0    0 -0.93403422049E+01  0.50548866775E+02 -0.14865458253E+03  0.18236973114E+03  0.92293575089E+02 0.  0.
         23    2    1    2    0    0  0.31918001677E+02 -0.43264414716E+02 -0.69072491854E+02  0.12114558389E+03  0.83753656362E+02 0.  0.
        -11    1    4    4    0    0  0.51829271846E+02 -0.55531065545E+02 -0.49670589690E+02  0.90758691820E+02  0.00000000000E+00 0. -1.
         11    1    4    4    0    0 -0.19911270168E+02  0.12266650830E+02 -0.19401902164E+02  0.30386892073E+02  0.00000000000E+00 0.  1.
        -11    1    3    3    0    0 -0.43804813864E+02  0.55544457284E+02 -0.10290259018E+03  0.12487190043E+03  0.00000000000E+00 0.  1.
         11    1    3    3    0    0  0.34464471659E+02 -0.49955905096E+01 -0.45751992356E+02  0.57497830706E+02  0.00000000000E+00 0. -1.
         -1    1    1    2    0  502 -0.22577659473E+02 -0.72844520587E+01 -0.37362986274E+02  0.44258408154E+02  0.00000000000E+00 0.  1.
<scales pt_clust_5="13000.00000" pt_clust_6="13000.00000" pt_clust_7="13000.00000" pt_clust_8="13000.00000" pt_clust_9="23.72371"></scales>
<clustering>
<clus scale="   23.724">  1  9  2 -1</clus>
<clus scale="   83.754">  5  6 -1 -1</clus>
<clus scale="   92.294">  7  8 -1 -1</clus>
<clus scale="   98.083">  1  5  2 -1</clus>
<clus scale="   23.724">  1  5  2 -1</clus>
</clustering>
</event>
<event>
 9    1  0.1399746E-005  0.1356757E+03  0.7546771E-02  0.1219535E+00
          1   -1    0    0  502    0 -0.00000000000E+00  0.00000000000E+00  0.85463335076E+03  0.85463335076E+03  0.00000000000E+00 0. -1.
         21   -1    0    0  501  502  0.00000000000E+00 -0.00000000000E+00 -0.59741979585E+02  0.59741979585E+02  0.00000000000E+00 0. -1.
         23    2    1    2    0    0  0.71438044311E+02 -0.59554316501E+02  0.50299157656E+03  0.51963066851E+03  0.91462532091E+02 0.  0.
         23    2    1    2    0    0 -0.44523216435E+02  0.12077515835E+03  0.28753248544E+03  0.32772621045E+03  0.90335946100E+02 0.  0.
        -13    1    3    3    0    0  0.44491098977E+02 -0.73022704368E+02  0.45501616733E+03  0.46298108577E+03  0.00000000000E+00 0. -1.
         13    1    3    3    0    0  0.26946945334E+02  0.13468387867E+02  0.47975409221E+02  0.56649582739E+02  0.00000000000E+00 0.  1.
        -13    1    4    4    0    0  0.20335618247E+02  0.66713151809E+02  0.16271320333E+03  0.17703041697E+03  0.00000000000E+00 0.  1.
         13    1    4    4    0    0 -0.64858834682E+02  0.54062006541E+02  0.12481928211E+03  0.15069579349E+03  0.00000000000E+00 0. -1.
          1    1    1    2  501    0 -0.26914827876E+02 -0.61220841849E+02  0.43673091750E+01  0.67018451383E+02  0.00000000000E+00 0. -1.
<scales pt_clust_5="13000.00000" pt_clust_6="13000.00000" pt_clust_7="13000.00000" pt_clust_8="13000.00000" pt_clust_9="66.87600"></scales>
<clustering>
<clus scale="   66.876">  2  9  1 -1</clus>
<clus scale="   90.336">  7  8 -1 -1</clus>
<clus scale="   91.463">  5  6 -1 -1</clus>
<clus scale="  134.919">  2  7  1 -1</clus>
<clus scale="   66.876">  2  5  1 -1</clus>
</clustering>
</event>
<event>
 9    1  0.1399746E-005  0.1023078E+03  0.7546771E-02  0.1278300E+00
         21   -1    0    0  501  502  0.00000000000E+00  0.00000000000E+00  0.17927401461E+03  0.17927401461E+03  0.00000000000E+00 0. -1.
          1   -1    0    0  502    0 -0.00000000000E+00 -0.00000000000E+00 -0.23585176072E+03  0.23585176072E+03  0.00000000000E+00 0. -1.
         23    2    1    2    0    0  0.29021961848E+02 -0.34659501689E+02 -0.18185625968E+03  0.20931742298E+03  0.93265905087E+02 0.  0.
         23    2    1    2    0    0 -0.34503773726E+02 -0.17042176192E+02  0.12026294563E+03  0.15357551134E+03  0.87414617898E+02 0.  0.
        -13    1    3    3    0    0  0.62429594127E+02 -0.14840219402E+02 -0.12418890051E+03  0.13978758651E+03  0.00000000000E+00 0. -1.
         13    1    3    3    0    0 -0.33407632279E+02 -0.19819282287E+02 -0.57667359179E+02  0.69529836470E+02  0.00000000000E+00 0.  1.
        -13    1    4    4    0    0 -0.40404258557E+02  0.28568871854E+02  0.64413663778E+02  0.81226871353E+02  0.00000000000E+00 0.  1.
         13    1    4    4    0    0  0.59004848308E+01 -0.45611048046E+02  0.55849281853E+02  0.72348639991E+02  0.00000000000E+00 0. -1.
          1    1    1    2  501    0  0.54818118783E+01  0.51701677881E+02  0.50155679427E+01  0.52232841000E+02  0.00000000000E+00 0. -1.
<scales pt_clust_5="13000.00000" pt_clust_6="13000.00000" pt_clust_7="13000.00000" pt_clust_8="13000.00000" pt_clust_9="51.99148"></scales>
<clustering>
<clus scale="   51.991">  1  9  2 -1</clus>
<clus scale="   87.415">  7  8 -1 -1</clus>
<clus scale="   93.266">  5  6 -1 -1</clus>
<clus scale="   97.004">  1  7  2 -1</clus>
<clus scale="   51.991">  1  5  2 -1</clus>
</clustering>
</event>
<event>
 9    1  0.1399746E-005  0.1682434E+03  0.7546771E-02  0.1180227E+00
         -1   -1    0    0    0  501 -0.00000000000E+00  0.00000000000E+00  0.15616100223E+03  0.15616100223E+03  0.00000000000E+00 0.  1.
         21   -1    0    0  501  502  0.00000000000E+00 -0.00000000000E+00 -0.37006179038E+03  0.37006179038E+03  0.00000000000E+00 0. -1.
         23    2    1    2    0    0  0.11063662881E+03 -0.91229808719E+02  0.68605456808E+02  0.18437062660E+03  0.93394205475E+02 0.  0.
         23    2    1    2    0    0 -0.76499505501E+02  0.10114800779E+03 -0.24562987072E+03  0.29063126367E+03  0.89718471952E+02 0.  0.
        -13    1    4    4    0    0 -0.12942539822E+02  0.59637432138E+02 -0.44140279469E+02  0.75315980513E+02  0.00000000000E+00 0.  1.
         13    1    4    4    0    0 -0.63556965679E+02  0.41510575648E+02 -0.20148959125E+03  0.21531528315E+03  0.00000000000E+00 0. -1.
        -13    1    3    3    0    0  0.61892650579E+02  0.13140196028E+00  0.49088649128E+02  0.78996284314E+02  0.00000000000E+00 0.  1.
         13    1    3    3    0    0  0.48743978227E+02 -0.91361210679E+02  0.19516807680E+02  0.10537434229E+03  0.00000000000E+00 0. -1.
         -1    1    1    2    0  502 -0.34137123305E+02 -0.99181990673E+01 -0.36876374233E+02  0.51220902343E+02  0.00000000000E+00 0.  1.
<scales pt_clust_5="13000.00000" pt_clust_6="13000.00000" pt_clust_7="13000.00000" pt_clust_8="13000.00000" pt_clust_9="35.54875"></scales>
<clustering>
<clus scale="   35.549">  2  9  1 -1</clus>
<clus scale="   89.718">  5  6 -1 -1</clus>
<clus scale="   93.394">  7  8 -1 -1</clus>
<clus scale="  166.231">  2  5  1 -1</clus>
<clus scale="   35.549">  2  5  1 -1</clus>
</clustering>
</event>
<event>
 9    1  0.1399746E-005  0.1216226E+03  0.7546771E-02  0.1241709E+00
         21   -1    0    0  501  502  0.00000000000E+00  0.00000000000E+00  0.54147699716E+03  0.54147699716E+03  0.00000000000E+00 0.  1.
          3   -1    0    0  502    0 -0.00000000000E+00 -0.00000000000E+00 -0.62692155194E+02  0.62692155194E+02  0.00000000000E+00 0. -1.
         23    2    1    2    0    0  0.62051986055E+01  0.75868610393E+02  0.22509663936E+02  0.12298921939E+03  0.93942070354E+02 0.  0.
         23    2    1    2    0    0 -0.27387113299E+02 -0.79818167490E+02  0.31510258105E+03  0.33837245890E+03  0.89918243539E+02 0.  0.
        -11    1    4    4    0    0  0.30244684149E+02 -0.26908756544E+02  0.15467393872E+03  0.15988386228E+03  0.00000000000E+00 0.  1.
         11    1    4    4    0    0 -0.57631797448E+02 -0.52909410945E+02  0.16042864232E+03  0.17848859661E+03  0.00000000000E+00 0. -1.
        -13    1    3    3    0    0  0.49957753017E+02  0.41879069302E+02  0.16611562546E+02  0.67272412937E+02  0.00000000000E+00 0.  1.
         13    1    3    3    0    0 -0.43752554412E+02  0.33989541091E+02  0.58981013900E+01  0.55716806452E+02  0.00000000000E+00 0. -1.
          3    1    1    2  501    0  0.21181914693E+02  0.39495570967E+01  0.14117259698E+03  0.14280747406E+03  0.00000000000E+00 0. -1.
<scales pt_clust_5="13000.00000" pt_clust_6="13000.00000" pt_clust_7="13000.00000" pt_clust_8="13000.00000" pt_clust_9="21.54698"></scales>
<clustering>
<clus scale="   21.547">  1  9  2 -1</clus>
<clus scale="   89.918">  5  6 -1 -1</clus>
<clus scale="   93.942">  7  8 -1 -1</clus>
<clus scale="  118.542">  1  5  2 -1</clus>
<clus scale="   21.547">  1  5  2 -1</clus>
</clustering>
</event>
<event>
 9    1  0.1399746E-005  0.1064354E+03  0.7546771E-02  0.1267971E+00
         21   -1    0    0  501  502  0.00000000000E+00  0.00000000000E+00  0.38053905778E+03  0.38053905778E+03  0.00000000000E+00 0. -1.
          4   -1    0    0  502    0 -0.00000000000E+00 -0.00000000000E+00 -0.13169814629E+03  0.13169814629E+03  0.00000000000E+00 0. -1.
         23    2    1    2    0    0  0.78678555264E+01  0.54241294744E+02 -0.95184511579E+02  0.14361191598E+03  0.92521726963E+02 0.  0.
         23    2    1    2    0    0 -0.12003415502E+02 -0.32473133230E+02  0.19481622025E+03  0.21777986417E+03  0.90973200460E+02 0.  0.
        -13    1    3    3    0    0  0.13364365180E+02  0.19370926318E+02 -0.10448812985E+03  0.10710559426E+03  0.00000000000E+00 0. -1.
         13    1    3    3    0    0 -0.54965096541E+01  0.34870368426E+02  0.93036182667E+01  0.36506321718E+02  0.00000000000E+00 0.  1.
        -13    1    4    4    0    0  0.23862819691E+02 -0.50444107246E+02  0.94601640476E+02  0.10983402251E+03  0.00000000000E+00 0.  1.
         13    1    4    4    0    0 -0.35866235193E+02  0.17970974016E+02  0.10021457977E+03  0.10794584166E+03  0.00000000000E+00 0. -1.
          4    1    1    2  501    0  0.41355599756E+01 -0.21768161514E+02  0.14920920282E+03  0.15084542392E+03  0.00000000000E+00 0. -1.
<scales pt_clust_5="13000.00000" pt_clust_6="13000.00000" pt_clust_7="13000.00000" pt_clust_8="13000.00000" pt_clust_9="22.15752"></scales>
<clustering>
<clus scale="   22.158">  1  9  2 -1</clus>
<clus scale="   90.973">  7  8 -1 -1</clus>
<clus scale="   92.522">  5  6 -1 -1</clus>
<clus scale="  105.092">  1  7  2 -1</clus>
<clus scale="   22.158">  1  5  2 -1</clus>
</clustering>
</event>
<event>
 9    1  0.1399746E-005  0.1167207E+03  0.7546771E-02  0.1250617E+00
          2   -1    0    0  502    0 -0.00000000000E+00  0.00000000000E+00  0.75197967109E+03  0.75197967109E+03  0.00000000000E+00 0. -1.
         21   -1    0    0  501  502  0.00000000000E+00 -0.00000000000E+00 -0.31310715605E+02  0.31310715605E+02  0.00000000000E+00 0.  1.
         23    2    1    2    0    0  0.62869562668E+02  0.41356470242E+02  0.54007189834E+03  0.55284449511E+03  0.91084800397E+02 0.  0.
         23    2    1    2    0    0 -0.44165072588E+02 -0.53929937687E+02  0.17582713315E+03  0.20740891679E+03  0.85113372603E+02 0.  0.
        -11    1    3    3    0    0 -0.15025303527E+02 -0.15150432558E+02  0.78545050896E+02  0.81391770917E+02  0.00000000000E+00 0.  1.
         11    1    3    3    0    0  0.77894866196E+02  0.56506902800E+02  0.46152684744E+03  0.47145272420E+03  0.00000000000E+00 0. -1.
        -13    1    4    4    0    0  0.16905950210E+02 -0.44936877374E+02  0.69728256059E+02  0.84659103430E+02  0.00000000000E+00 0. -1.
         13    1    4    4    0    0 -0.61071022798E+02 -0.89930603130E+01  0.10609887709E+03  0.12274981336E+03  0.00000000000E+00 0.  1.
          2    1    1    2  501    0 -0.18704490080E+02  0.12573467445E+02  0.47699240017E+01  0.23036974796E+02  0.00000000000E+00 0. -1.
<scales pt_clust_5="13000.00000" pt_clust_6="13000.00000" pt_clust_7="13000.00000" pt_clust_8="13000.00000" pt_clust_9="22.53775"></scales>
<clustering>
<clus scale="   22.538">  2  9  1 -1</clus>
<clus scale="   85.113">  7  8 -1 -1</clus>
<clus scale="   91.085">  5  6 -1 -1</clus>
<clus scale="  112.123">  2  7  1 -1</clus>
<clus scale="   22.538">  2  5  1 -1</clus>
</clustering>
</event>
<event>
 9    1  0.1399746E-005  0.1499221E+03  0.7546771E-02  0.1200727E+00
         -4   -1    0    0    0  501 -0.00000000000E+00  0.00000000000E+00  0.30162449033E+03  0.30162449033E+03  0.00000000000E+00 0.  1.
         21   -1    0    0  501  502  0.00000000000E+00 -0.00000000000E+00 -0.19079316284E+03  0.19079316284E+03  0.00000000000E+00 0. -1.
         23    2    1    2    0    0 -0.64166626603E+02 -0.91058778974E+02  0.15406967093E+03  0.21172521217E+03  0.93172124421E+02 0.  0.
         23    2    1    2    0    0  0.64597895808E+02  0.13721759232E+03 -0.10292531707E+03  0.20523810472E+03  0.92344479800E+02 0.  0.
        -11    1    3    3    0    0 -0.58513594280E+02 -0.64161986562E+02  0.42235268764E+02  0.96563032071E+02  0.00000000000E+00 0. -1.
         11    1    3    3    0    0 -0.56530323228E+01 -0.26896792412E+02  0.11183440217E+03  0.11516218010E+03  0.00000000000E+00 0.  1.
        -11    1    4    4    0    0  0.25766248597E+02  0.42161937938E+02  0.12279712561E+02  0.50914830041E+02  0.00000000000E+00 0.  1.
         11    1    4    4    0    0  0.38831647211E+02  0.95055654386E+02 -0.11520502963E+03  0.15432327468E+03  0.00000000000E+00 0. -1.
         -4    1    1    2    0  502 -0.43126920517E+00 -0.46158813351E+02  0.59686973630E+02  0.75454336284E+02  0.00000000000E+00 0.  1.
<scales pt_clust_5="13000.00000" pt_clust_6="13000.00000" pt_clust_7="13000.00000" pt_clust_8="13000.00000" pt_clust_9="46.16085"></scales>
<clustering>
<clus scale="   46.161">  2  9  1 -1</clus>
<clus scale="   92.344">  7  8 -1 -1</clus>
<clus scale="   93.172">  5  6 -1 -1</clus>
<clus scale="  149.409">  2  7  1 -1</clus>
<clus scale="   46.161">  2  5  1 -1</clus>
</clustering>
</event>
<event>
 9    1  0.1399746E-005  0.9338397E+02  0.7546771E-02  0.1295617E+00
         21   -1    0    0  501  502  0.00000000000E+00  0.00000000000E+00  0.34450244721E+03  0.34450244721E+03  0.00000000000E+00 0. -1.
         -2   -1    0    0    0  501 -0.00000000000E+00 -0.00000000000E+00 -0.51484071695E+02  0.51484071695E+02  0.00000000000E+00 0.  1.
         23    2    1    2    0    0  0.18515719761E+02 -0.12862628429E+02  0.18525293440E+02  0.92444686468E+02  0.87718609604E+02 0.  0.
         23    2    1    2    0    0 -0.36877804309E+02  0.30797654017E+02  0.19060199760E+03  0.21581187549E+03  0.89090831002E+02 0.  0.
        -11    1    3    3    0    0 -0.25186659804E+02 -0.28784912172E+02 -0.77470867513E+01  0.39025073402E+02  0.00000000000E+00 0.  1.
         11    1    3    3    0    0  0.43702379565E+02  0.15922283744E+02  0.26272380191E+02  0.53419613066E+02  0.00000000000E+00 0. -1.
        -13    1    4    4    0    0 -0.51943026436E+01 -0.31035273772E+02  0.52229360215E+02  0.60976020422E+02  0.00000000000E+00 0.  1.
         13    1    4    4    0    0 -0.31683501665E+02  0.61832927790E+02  0.13837263739E+03  0.15483585507E+03  0.00000000000E+00 0. -1.
         -2    1    1    2    0  502  0.18362084548E+02 -0.17935025589E+02  0.83891084474E+02  0.87729956947E+02  0.00000000000E+00 0.  1.
<scales pt_clust_5="13000.00000" pt_clust_6="13000.00000" pt_clust_7="13000.00000" pt_clust_8="13000.00000" pt_clust_9="25.66771"></scales>
<clustering>
<clus scale="   25.668">  1  9  2 -1</clus>
<clus scale="   87.719">  5  6 -1 -1</clus>
<clus scale="   89.091">  7  8 -1 -1</clus>
<clus scale="   92.076">  2  5  1 -1</clus>
<clus scale="   25.668">  1  5  2 -1</clus>
</clustering>
</event>
<event>
 9    1  0.1399746E-005  0.9573363E+02  0.7546771E-02  0.1290670E+00
          1   -1    0    0  502    0 -0.00000000000E+00  0.00000000000E+00  0.52173027988E+03  0.52173027988E+03  0.00000000000E+00 0. -1.
         21   -1    0    0  501  502  0.00000000000E+00 -0.00000000000E+00 -0.66485445276E+02  0.66485445276E+02  0.00000000000E+00 0. -1.
         23    2    1    2    0    0 -0.20993164515E+01 -0.17910638417E+02  0.30399387503E+03  0.31825364156E+03  0.92454887469E+02 0.  0.
         23    2    1    2    0    0  0.28012442632E+02  0.28313591085E+02  0.19470121793E+03  0.21831291628E+03  0.90363758053E+02 0.  0.
        -13    1    3    3    0    0  0.26275266132E+02  0.27301764444E+02  0.16660681570E+03  0.17086136775E+03  0.00000000000E+00 0.  1.
         13    1    3    3    0    0 -0.28374582584E+02 -0.45212402861E+02  0.13738705933E+03  0.14739227381E+03  0.00000000000E+00 0. -1.
        -13    1    4    4    0    0  0.35943877715E+02 -0.24887381321E+01  0.17946295965E+03  0.18304401124E+03  0.00000000000E+00 0. -1.
         13    1    4    4    0    0 -0.79314350829E+01  0.30802329217E+02  0.15238258278E+02  0.35268905044E+02  0.00000000000E+00 0.  1.
          1    1    1    2  501    0 -0.25913126180E+02 -0.10402952668E+02 -0.43450258354E+02  0.51649167309E+02  0.00000000000E+00 0. -1.
<scales pt_clust_5="13000.00000" pt_clust_6="13000.00000" pt_clust_7="13000.00000" pt_clust_8="13000.00000" pt_clust_9="27.92332"></scales>
<clustering>
<clus scale="   27.923">  2  9  1 -1</clus>
<clus scale="   90.364">  7  8 -1 -1</clus>
<clus scale="   92.455">  5  6 -1 -1</clus>
<clus scale="   93.716">  2  7  1 -1</clus>
<clus scale="   27.923">  2  5  1 -1</clus>
</clustering>
</event>
<event>
 9    1  0.1399746E-005  0.1208258E+03  0.7546771E-02  0.1242992E+00
         21   -1    0    0  501  502  0.00000000000E+00  0.00000000000E+00  0.86723998318E+02  0.86723998318E+02  0.00000000000E+00 0.  1.
         -1   -1    0    0    0  501 -0.00000000000E+00 -0.00000000000E+00 -0.39900586338E+03  0.39900586338E+03  0.00000000000E+00 0.  1.
         23    2    1    2    0    0  0.35537098643E+02  0.78189302295E+02 -0.21323612277E+03  0.24895568211E+03  0.95565868545E+02 0.  0.
         23    2    1    2    0    0 -0.89428400311E+00 -0.64123834898E+02 -0.14136619338E+03  0.18030310239E+03  0.91717730851E+02 0.  0.
        -11    1    3    3    0    0  0.25844152965E+02  0.29538501275E+02 -0.19029590503E+03  0.19430124747E+03  0.00000000000E+00 0.  1.
         11    1    3    3    0    0  0.96929456783E+01  0.48650801020E+02 -0.22940217740E+02  0.54654434639E+02  0.00000000000E+00 0. -1.
        -13    1    4    4    0    0 -0.39035482761E+02 -0.21255199176E+02 -0.26098063482E+02  0.51542810594E+02  0.00000000000E+00 0. -1.
         13    1    4    4    0    0  0.38141198758E+02 -0.42868635722E+02 -0.11526812990E+03  0.12876029179E+03  0.00000000000E+00 0.  1.
         -1    1    1    2    0  502 -0.34642814640E+02 -0.14065467397E+02  0.42320451090E+02  0.56471077196E+02  0.00000000000E+00 0.  1.
<scales pt_clust_5="13000.00000" pt_clust_6="13000.00000" pt_clust_7="13000.00000" pt_clust_8="13000.00000" pt_clust_9="37.38933"></scales>
<clustering>
<clus scale="   37.389">  1  9  2 -1</clus>
<clus scale="   91.718">  7  8 -1 -1</clus>
<clus scale="   95.566">  5  6 -1 -1</clus>
<clus scale="  117.806">  1  7  2 -1</clus>
<clus scale="   37.389">  1  5  2 -1</clus>
</clustering>
</event>
<event>
 9    1  0.1399746E-005  0.1558317E+03  0.7546771E-02  0.1213993E+00
         -2   -1    0    0    0  501 -0.00000000000E+00  0.00000000000E+00  0.35386605608E+03  0.35386605608E+03  0.00000000000E+00 0. -1.
         21   -1    0    0  501  502  0.00000000000E+00 -0.00000000000E+00 -0.18023537806E+03  0.18023537806E+03  0.00000000000E+00 0. -1.
         23    2    1    2    0    0  0.29453515454E+02 -0.36097076164E+02  0.20824982578E+03  0.23105792145E+03  0.88596075812E+02 0.  0.
         23    2    1    2    0    0  0.29396365761E+02 -0.90578945632E+02  0.48525701707E+02  0.14049140101E+03  0.91183322590E+02 0.  0.
        -13    1    4    4    0    0  0.24585709340E+02  0.10778697503E+02  0.24204911914E+02  0.36145749188E+02  0.00000000000E+00 0.  1.
         13    1    4    4    0    0  0.48106564206E+01 -0.10135764314E+03  0.24320789794E+02  0.10434565182E+03  0.00000000000E+00 0. -1.
        -13    1    3    3    0    0  0.12478135972E+02 -0.65015701396E+02  0.12868451765E+03  0.14471506621E+03  0.00000000000E+00 0. -1.
         13    1    3    3    0    0  0.16975379482E+02  0.28918625232E+02  0.79565308134E+02  0.86342855248E+02  0.00000000000E+00 0.  1.
         -2    1    1    2    0  502 -0.58849881215E+02  0.12667602180E+03 -0.83144849473E+02  0.16255211168E+03  0.00000000000E+00 0. -1.
<scales pt_clust_5="13000.00000" pt_clust_6="13000.00000" pt_clust_7="13000.00000" pt_clust_8="13000.00000" pt_clust_9="126.36897"></scales>
<clustering>
<clus scale="   88.596">  7  8 -1 -1</clus>
<clus scale="   91.183">  5  6 -1 -1</clus>
<clus scale="  100.099">  1  7  2 -1</clus>
<clus scale="  126.369">  2  9  1 -1</clus>
<clus scale="  126.369">  2  5  1 -1</clus>
</clustering>
</event>
<event>
 9    1  0.1399746E-005  0.1048614E+03  0.7546771E-02  0.1273911E+00
         21   -1    0    0  501  502  0.00000000000E+00  0.00000000000E+00  0.14459312610E+03  0.14459312610E+03  0.00000000000E+00 0. -1.
         -2   -1    0    0    0  501 -0.00000000000E+00 -0.00000000000E+00 -0.22966594479E+03  0.22966594479E+03  0.00000000000E+00 0.  1.
         23    2    1    2    0    0  0.29482304659E+02  0.43757933848E+02 -0.12614327079E+03  0.17059269841E+03  0.10200872965E+03 0.  0.
         23    2    1    2    0    0  0.90218677526E+01  0.23883329739E+02 -0.25157116710E+02  0.10147046892E+03  0.94929278959E+02 0.  0.
        -13    1    3    3    0    0 -0.38338390675E+02  0.15268828154E+02 -0.43882315225E+02  0.60238085148E+02  0.00000000000E+00 0.  1.
         13    1    3    3    0    0  0.67820695334E+02  0.28489105694E+02 -0.82260955564E+02  0.11035461327E+03  0.00000000000E+00 0. -1.
        -13    1    4    4    0    0 -0.28303706413E+02  0.44257232306E+02 -0.26677273899E+02  0.58919261289E+02  0.00000000000E+00 0. -1.
         13    1    4    4    0    0  0.37325574165E+02 -0.20373902568E+02  0.15201571893E+01  0.42551207627E+02  0.00000000000E+00 0.  1.
         -2    1    1    2    0  502 -0.38504172411E+02 -0.67641263586E+02  0.66227568810E+02  0.10219590355E+03  0.00000000000E+00 0.  1.
<scales pt_clust_5="13000.00000" pt_clust_6="13000.00000" pt_clust_7="13000.00000" pt_clust_8="13000.00000" pt_clust_9="77.83259"></scales>
<clustering>
<clus scale="   77.833">  1  9  2 -1</clus>
<clus scale="   94.929">  7  8 -1 -1</clus>
<clus scale="   97.988">  1  7  2 -1</clus>
<clus scale="  102.009">  5  6 -1 -1</clus>
<clus scale="   77.833">  1  5  2 -1</clus>
</clustering>
</event>
<event>
 9    1  0.1399746E-005  0.1147974E+03  0.7546771E-02  0.1253527E+00
          1   -1    0    0  502    0 -0.00000000000E+00  0.00000000000E+00  0.32293508037E+03  0.32293508037E+03  0.00000000000E+00 0. -1.
         21   -1    0    0  501  502  0.00000000000E+00 -0.00000000000E+00 -0.97865423256E+02  0.97865423256E+02  0.00000000000E+00 0.  1.
         23    2    1    2    0    0 -0.57400714407E+01 -0.76182952112E+02  0.24401250943E+03  0.27094097754E+03  0.89610925336E+02 0.  0.
         23    2    1    2    0    0  0.20533904546E+02  0.54933987596E+02  0.17937592856E+02  0.10479797677E+03  0.84979259046E+02 0.  0.
        -13    1    3    3    0    0  0.34033480617E+02 -0.58911601043E+02  0.18913491410E+03  0.20099967730E+03  0.00000000000E+00 0.  1.
         13    1    3    3    0    0 -0.39773552058E+02 -0.17271351069E+02  0.54877595330E+02  0.69941300247E+02  0.00000000000E+00 0. -1.
        -13    1    4    4    0    0  0.20958275938E+02 -0.53609935546E+01  0.35872549464E+02  0.41890683776E+02  0.00000000000E+00 0. -1.
         13    1    4    4    0    0 -0.42437139218E+00  0.60294981150E+02 -0.17934956608E+02  0.62907292992E+02  0.00000000000E+00 0.  1.
          1    1    1    2  501    0 -0.14793833105E+02  0.21248964516E+02 -0.36880445172E+02  0.45061549319E+02  0.00000000000E+00 0. -1.
<scales pt_clust_5="13000.00000" pt_clust_6="13000.00000" pt_clust_7="13000.00000" pt_clust_8="13000.00000" pt_clust_9="25.89162"></scales>
<clustering>
<clus scale="   25.892">  2  9  1 -1</clus>
<clus scale="   84.979">  7  8 -1 -1</clus>
<clus scale="   89.611">  5  6 -1 -1</clus>
<clus scale="  111.220">  2  7  1 -1</clus>
<clus scale="   25.892">  2  5  1 -1</clus>
</clustering>
</event>
<event>
 9    1  0.1399746E-005  0.1550320E+03  0.7546771E-02  0.1219466E+00
         21   -1    0    0  501  502  0.00000000000E+00  0.00000000000E+00  0.90576985198E+02  0.90576985198E+02  0.00000000000E+00 0. -1.
          1   -1    0    0  502    0 -0.00000000000E+00 -0.00000000000E+00 -0.46858348807E+03  0.46858348807E+03  0.00000000000E+00 0. -1.
         23    2    1    2    0    0  0.94609638706E+01 -0.29899414433E+01 -0.15588393308E+03  0.18028091642E+03  0.90016435420E+02 0.  0.
         23    2    1    2    0    0  0.10452264287E+03  0.60380173852E+02 -0.19806900662E+03  0.24901626226E+03  0.90592600242E+02 0.  0.
        -11    1    4    4    0    0  0.73687844674E+02 -0.20328845513E+01 -0.62610534037E+02  0.96716648229E+02  0.00000000000E+00 0.  1.
         11    1    4    4    0    0  0.30834798198E+02  0.62413058403E+02 -0.13545847258E+03  0.15229961403E+03  0.00000000000E+00 0. -1.
        -13    1    3    3    0    0  0.27157072443E+02 -0.26616215526E+02 -0.14318224423E+03  0.14814548449E+03  0.00000000000E+00 0.  1.
         13    1    3    3    0    0 -0.17696108572E+02  0.23626274083E+02 -0.12701688851E+02  0.32135431930E+02  0.00000000000E+00 0. -1.
          1    1    1    2  501    0 -0.11398360674E+03 -0.57390232408E+02 -0.24053563180E+02  0.12986329460E+03  0.00000000000E+00 0. -1.
<scales pt_clust_5="13000.00000" pt_clust_6="13000.00000" pt_clust_7="13000.00000" pt_clust_8="13000.00000" pt_clust_9="125.80896"></scales>
<clustering>
<clus scale="   90.016">  7  8 -1 -1</clus>
<clus scale="   90.562">  2  7  1 -1</clus>
<clus scale="   90.593">  5  6 -1 -1</clus>
<clus scale="  125.809">  1  9  2 -1</clus>
<clus scale="  125.809">  1  5  2 -1</clus>
</clustering>
</event>
<event>
 9    1  0.1399746E-005  0.2023666E+03  0.7546771E-02  0.1147928E+00
         21   -1    0    0  501  502  0.00000000000E+00  0.00000000000E+00  0.87731542867E+02  0.87731542867E+02  0.00000000000E+00 0. -1.
          1   -1    0    0  502    0 -0.00000000000E+00 -0.00000000000E+00 -0.11584458648E+04  0.11584458648E+04  0.00000000000E+00 0. -1.
         23    2    1    2    0    0 -0.54184540971E+01  0.17412390607E+03 -0.42698803975E+03  0.46971177105E+03  0.89229297093E+02 0.  0.
         23    2    1    2    0    0 -0.15670722264E+03 -0.16070109952E+03 -0.51462512152E+03  0.56878314705E+03  0.91067313871E+02 0.  0.
        -11    1    4    4    0    0 -0.22320728872E+02  0.86589828135E+01 -0.77508446152E+02  0.81121835196E+02  0.00000000000E+00 0.  1.
         11    1    4    4    0    0 -0.13438649377E+03 -0.16936008233E+03 -0.43711667536E+03  0.48766131185E+03  0.00000000000E+00 0. -1.
        -13    1    3    3    0    0 -0.35207105688E+02  0.11273830239E+03 -0.33478716444E+03  0.35500973309E+03  0.00000000000E+00 0.  1.
         13    1    3    3    0    0  0.29788651591E+02  0.61385603678E+02 -0.92200875309E+02  0.11470203795E+03  0.00000000000E+00 0. -1.
          1    1    1    2  501    0  0.16212567674E+03 -0.13422806554E+02 -0.12910116070E+03  0.20768248960E+03  0.00000000000E+00 0. -1.
<scales pt_clust_5="13000.00000" pt_clust_6="13000.00000" pt_clust_7="13000.00000" pt_clust_8="13000.00000" pt_clust_9="162.68038"></scales>
<clustering>
<clus scale="   89.229">  7  8 -1 -1</clus>
<clus scale="   91.067">  5  6 -1 -1</clus>
<clus scale="  162.680">  1  9  2 -1</clus>
<clus scale="  201.546">  2  7  1 -1</clus>
<clus scale="  162.680">  1  5  2 -1</clus>
</clustering>
</event>
<event>
 9    1  0.1399746E-005  0.1583817E+03  0.7546771E-02  0.1203609E+00
         21   -1    0    0  501  502  0.00000000000E+00  0.00000000000E+00  0.45648876590E+02  0.45648876590E+02  0.00000000000E+00 0. -1.
         -3   -1    0    0    0  501 -0.00000000000E+00 -0.00000000000E+00 -0.10141323855E+04  0.10141323855E+04  0.00000000000E+00 0.  1.
         23    2    1    2    0    0  0.87134101464E+01 -0.72059143136E+02 -0.27887323575E+03  0.30322610548E+03  0.94378735966E+02 0.  0.
         23    2    1    2    0    0  0.78502852702E+02 -0.76148136841E+02 -0.28019863123E+03  0.31249438724E+03  0.84736252481E+02 0.  0.
        -13    1    4    4    0    0  0.65506957643E+02 -0.43946608255E+02 -0.92307469314E+02  0.12142131101E+03  0.00000000000E+00 0. -1.
         13    1    4    4    0    0  0.12995895060E+02 -0.32201528586E+02 -0.18789116192E+03  0.19107307623E+03  0.00000000000E+00 0.  1.
        -13    1    3    3    0    0 -0.40776580577E+02 -0.15020907394E+02 -0.10763254869E+03  0.11607378136E+03  0.00000000000E+00 0.  1.
         13    1    3    3    0    0  0.49489990724E+02 -0.57038235742E+02 -0.17124068706E+03  0.18715232412E+03  0.00000000000E+00 0. -1.
         -3    1    1    2    0  502 -0.87216262849E+02  0.14820727998E+03 -0.40941164188E+03  0.44406076933E+03  0.00000000000E+00 0.  1.
<scales pt_clust_5="13000.00000" pt_clust_6="13000.00000" pt_clust_7="13000.00000" pt_clust_8="13000.00000" pt_clust_9="133.80791"></scales>
<clustering>
<clus scale="   84.736">  5  6 -1 -1</clus>
<clus scale="   94.379">  7  8 -1 -1</clus>
<clus scale="  119.062">  2  7  1 -1</clus>
<clus scale="  133.808">  1  9  2 -1</clus>
<clus scale="  133.808">  1  5  2 -1</clus>
</clustering>
</event>
<event>
 9    1  0.1429855E-005  0.9477395E+02  0.7546771E-02  0.1293567E+00
         21   -1    0    0  501  502  0.00000000000E+00  0.00000000000E+00  0.22268325367E+03  0.22268325367E+03  0.00000000000E+00 0. -1.
          2   -1    0    0  502    0 -0.00000000000E+00 -0.00000000000E+00 -0.15312448140E+03  0.15312448140E+03  0.00000000000E+00 0. -1.
         23    2    1    2    0    0  0.26826469814E+02  0.69585916883E+01 -0.11466470464E+03  0.14854482293E+03  0.90274517170E+02 0.  0.
         23    2    1    2    0    0 -0.27821486815E+02 -0.35337607708E+02  0.10686570892E+03  0.14485791910E+03  0.86837522626E+02 0.  0.
        -11    1    3    3    0    0  0.52237277306E+02  0.29570158114E+02 -0.79559810918E+02  0.99663889672E+02  0.00000000000E+00 0. -1.
         11    1    3    3    0    0 -0.25410807492E+02 -0.22611566426E+02 -0.35104893719E+02  0.48880933263E+02  0.00000000000E+00 0.  1.
        -13    1    4    4    0    0  0.21668842286E+02  0.15511679334E+02  0.25274792718E+02  0.36728273424E+02  0.00000000000E+00 0.  1.
         13    1    4    4    0    0 -0.49490329101E+02 -0.50849287042E+02  0.81590916202E+02  0.10812964568E+03  0.00000000000E+00 0. -1.
          2    1    1    2  501    0  0.99501700141E+00  0.28379016019E+02  0.77357767986E+02  0.82404993033E+02  0.00000000000E+00 0. -1.
<scales pt_clust_5="13000.00000" pt_clust_6="13000.00000" pt_clust_7="13000.00000" pt_clust_8="13000.00000" pt_clust_9="28.39645"></scales>
<clustering>
<clus scale="   28.396">  1  9  2 -1</clus>
<clus scale="   86.838">  7  8 -1 -1</clus>
<clus scale="   90.275">  5  6 -1 -1</clus>
<clus scale="   91.506">  1  7  2 -1</clus>
<clus scale="   28.396">  1  5  2 -1</clus>
</clustering>
</event>
<event>
 9    1  0.1399746E-005  0.9762109E+02  0.7546771E-02  0.1285614E+00
          1   -1    0    0  502    0 -0.00000000000E+00  0.00000000000E+00  0.55381921584E+03  0.55381921584E+03  0.00000000000E+00 0. -1.
         21   -1    0    0  501  502  0.00000000000E+00 -0.00000000000E+00 -0.34655580792E+02  0.34655580792E+02  0.00000000000E+00 0. -1.
         23    2    1    2    0    0 -0.26426342756E+02 -0.38191311020E+02  0.34088429850E+03  0.35551734740E+03  0.89630081474E+02 0.  0.
         23    2    1    2    0    0  0.29798313368E+02  0.91583542629E+01  0.18042278422E+03  0.20365084363E+03  0.89159800995E+02 0.  0.
        -11    1    4    4    0    0  0.28220490634E+02  0.37034258511E+02  0.16563724192E+03  0.17205704957E+03  0.00000000000E+00 0.  1.
         11    1    4    4    0    0  0.15778227342E+01 -0.27875904248E+02  0.14785542302E+02  0.31593794065E+02  0.00000000000E+00 0. -1.
        -11    1    3    3    0    0  0.32993469916E+02 -0.11288531655E+02  0.97662963801E+02  0.10370175747E+03  0.00000000000E+00 0.  1.
         11    1    3    3    0    0 -0.59419812673E+02 -0.26902779365E+02  0.24322133470E+03  0.25181558993E+03  0.00000000000E+00 0. -1.
          1    1    1    2  501    0 -0.33719706121E+01  0.29032956757E+02 -0.21434476803E+01  0.29306605600E+02  0.00000000000E+00 0. -1.
<scales pt_clust_5="13000.00000" pt_clust_6="13000.00000" pt_clust_7="13000.00000" pt_clust_8="13000.00000" pt_clust_9="29.22812"></scales>
<clustering>
<clus scale="   29.228">  2  9  1 -1</clus>
<clus scale="   89.160">  5  6 -1 -1</clus>
<clus scale="   89.630">  7  8 -1 -1</clus>
<clus scale="   97.189">  2  5  1 -1</clus>
<clus scale="   29.228">  2  5  1 -1</clus>
</clustering>
</event>
<event>
 9    1  0.1399746E-005  0.1014006E+03  0.7546771E-02  0.1281420E+00
         21   -1    0    0  501  502  0.00000000000E+00  0.00000000000E+00  0.23115554905E+02  0.23115554905E+02  0.00000000000E+00 0.  1.
          2   -1    0    0  502    0 -0.00000000000E+00 -0.00000000000E+00 -0.65023632690E+03  0.65023632690E+03  0.00000000000E+00 0. -1.
         23    2    1    2    0    0  0.33068904037E+02  0.19558005944E+01 -0.35499910101E+03  0.36801323367E+03  0.91170175339E+02 0.  0.
         23    2    1    2    0    0 -0.72511887380E+01  0.14912261115E+01 -0.25641236240E+03  0.27492123877E+03  0.98891781452E+02 0.  0.
        -11    1    4    4    0    0 -0.40657995241E+02  0.12174374031E+02 -0.22115157637E+03  0.22518727249E+03  0.00000000000E+00 0. -1.
         11    1    4    4    0    0  0.33406806503E+02 -0.10683147920E+02 -0.35260786035E+02  0.49733966281E+02  0.00000000000E+00 0.  1.
        -13    1    3    3    0    0 -0.16752388271E+02  0.33208094462E+02 -0.16398062671E+03  0.16814596631E+03  0.00000000000E+00 0. -1.
         13    1    3    3    0    0  0.49821292308E+02 -0.31252293868E+02 -0.19101847430E+03  0.19986726737E+03  0.00000000000E+00 0.  1.
          2    1    1    2  501    0 -0.25817715299E+02 -0.34470267058E+01 -0.15709308585E+02  0.30417409367E+02  0.00000000000E+00 0. -1.
<scales pt_clust_5="13000.00000" pt_clust_6="13000.00000" pt_clust_7="13000.00000" pt_clust_8="13000.00000" pt_clust_9="26.04681"></scales>
<clustering>
<clus scale="   26.047">  1  9  2 -1</clus>
<clus scale="   91.170">  7  8 -1 -1</clus>
<clus scale="   93.886">  2  7  1 -1</clus>
<clus scale="   98.892">  5  6 -1 -1</clus>
<clus scale="   26.047">  1  5  2 -1</clus>
</clustering>
</event>
<event>
 9    1  0.1399746E-005  0.1069589E+03  0.7546771E-02  0.1266871E+00
         -2   -1    0    0    0  501 -0.00000000000E+00  0.00000000000E+00  0.18601150321E+03  0.18601150321E+03  0.00000000000E+00 0.  1.
         21   -1    0    0  501  502  0.00000000000E+00 -0.00000000000E+00 -0.37852388783E+03  0.37852388783E+03  0.00000000000E+00 0.  1.
         23    2    1    2    0    0  0.32996260611E+02  0.43560118532E+02  0.15195827967E+03  0.18528302437E+03  0.90841858309E+02 0.  0.
         23    2    1    2    0    0 -0.53571671908E+02 -0.20692007519E+02 -0.16755463589E+03  0.19968182578E+03  0.92196487645E+02 0.  0.
        -13    1    3    3    0    0  0.30717052775E+02  0.69826338701E+02  0.13104286460E+03  0.15162944065E+03  0.00000000000E+00 0.  1.
         13    1    3    3    0    0  0.22792078357E+01 -0.26266220170E+02  0.20915415066E+02  0.33653583728E+02  0.00000000000E+00 0. -1.
        -13    1    4    4    0    0 -0.52339235992E+02  0.28268107798E+02 -0.86494688012E+02  0.10497529517E+03  0.00000000000E+00 0.  1.
         13    1    4    4    0    0 -0.12324359160E+01 -0.48960115317E+02 -0.81059947878E+02  0.94706530610E+02  0.00000000000E+00 0. -1.
         -2    1    1    2    0  502  0.20575411297E+02 -0.22868111013E+02 -0.17691602839E+03  0.17957054088E+03  0.00000000000E+00 0.  1.
<scales pt_clust_5="13000.00000" pt_clust_6="13000.00000" pt_clust_7="13000.00000" pt_clust_8="13000.00000" pt_clust_9="30.76196"></scales>
<clustering>
<clus scale="   30.762">  2  9  1 -1</clus>
<clus scale="   90.842">  5  6 -1 -1</clus>
<clus scale="   92.196">  7  8 -1 -1</clus>
<clus scale="  105.793">  1  5  2 -1</clus>
<clus scale="   30.762">  2  5  1 -1</clus>
</clustering>
</event>
<event>
 9    1  0.1399746E-005  0.9426962E+02  0.7546771E-02  0.1293858E+00
         21   -1    0    0  501  502  0.00000000000E+00  0.00000000000E+00  0.34830508800E+02  0.34830508800E+02  0.00000000000E+00 0.  1.
          3   -1    0    0  502    0 -0.00000000000E+00 -0.00000000000E+00 -0.46980591910E+03  0.46980591910E+03  0.00000000000E+00 0. -1.
         23    2    1    2    0    0 -0.11841696361E+02 -0.10319170090E+01 -0.21831022042E+03  0.23663942416E+03  0.90540455621E+02 0.  0.
         23    2    1    2    0    0  0.19833152442E+02  0.20701982363E+02 -0.22521977056E+03  0.24510692529E+03  0.92366302099E+02 0.  0.
        -11    1    4    4    0    0  0.78572694906E+01  0.56098075202E+02 -0.10624920551E+03  0.12040608122E+03  0.00000000000E+00 0.  1.
         11    1    4    4    0    0  0.11975882951E+02 -0.35396092840E+02 -0.11897056505E+03  0.12470084406E+03  0.00000000000E+00 0. -1.
        -11    1    3    3    0    0  0.64107254042E+01  0.39873818029E+02 -0.14683907729E+03  0.15229160641E+03  0.00000000000E+00 0.  1.
         11    1    3    3    0    0 -0.18252421765E+02 -0.40905735038E+02 -0.71471143128E+02  0.84347817751E+02  0.00000000000E+00 0. -1.
          3    1    1    2  501    0 -0.79914560806E+01 -0.19670065354E+02  0.85545806696E+01  0.22890078456E+02  0.00000000000E+00 0. -1.
<scales pt_clust_5="13000.00000" pt_clust_6="13000.00000" pt_clust_7="13000.00000" pt_clust_8="13000.00000" pt_clust_9="21.23146"></scales>
<clustering>
<clus scale="   21.231">  1  9  2 -1</clus>
<clus scale="   90.540">  7  8 -1 -1</clus>
<clus scale="   92.366">  5  6 -1 -1</clus>
<clus scale="   92.481">  2  7  1 -1</clus>
<clus scale="   21.231">  1  5  2 -1</clus>
</clustering>
</event>
<event>
 9    1  0.1399746E-005  0.1160919E+03  0.7546771E-02  0.1250448E+00
         21   -1    0    0  501  502  0.00000000000E+00  0.00000000000E+00  0.18869202847E+03  0.18869202847E+03  0.00000000000E+00 0.  1.
         -1   -1    0    0    0  501 -0.00000000000E+00 -0.00000000000E+00 -0.17719338569E+03  0.17719338569E+03  0.00000000000E+00 0.  1.
         23    2    1    2    0    0  0.98986628344E+01  0.59293163157E+02 -0.88874218890E+02  0.14233455130E+03  0.93524515437E+02 0.  0.
         23    2    1    2    0    0 -0.28391912093E+02 -0.88641251655E+02  0.14838977588E+02  0.13125050592E+03  0.91340724106E+02 0.  0.
        -11    1    3    3    0    0  0.47830908559E+02  0.25519989077E+02 -0.69108406542E+02  0.87835286252E+02  0.00000000000E+00 0.  1.
         11    1    3    3    0    0 -0.37932245725E+02  0.33773174080E+02 -0.19765812348E+02  0.54499265049E+02  0.00000000000E+00 0. -1.
        -13    1    4    4    0    0 -0.29655001299E+02 -0.39977377115E+02  0.50498814071E+02  0.70906558270E+02  0.00000000000E+00 0. -1.
         13    1    4    4    0    0  0.12630892055E+01 -0.48663874540E+02 -0.35659836483E+02  0.60343947647E+02  0.00000000000E+00 0.  1.
         -1    1    1    2    0  502  0.18493249259E+02  0.29348088498E+02  0.85533884078E+02  0.92300356944E+02  0.00000000000E+00 0.  1.
<scales pt_clust_5="13000.00000" pt_clust_6="13000.00000" pt_clust_7="13000.00000" pt_clust_8="13000.00000" pt_clust_9="34.68877"></scales>
<clustering>
<clus scale="   34.689">  1  9  2 -1</clus>
<clus scale="   91.341">  7  8 -1 -1</clus>
<clus scale="   93.525">  5  6 -1 -1</clus>
<clus scale="  114.340">  1  7  2 -1</clus>
<clus scale="   34.689">  1  5  2 -1</clus>
</clustering>
</event>
<event>
 9    1  0.1399746E-005  0.9357522E+02  0.7546771E-02  0.1295903E+00
         21   -1    0    0  501  502  0.00000000000E+00  0.00000000000E+00  0.31740364414E+03  0.31740364414E+03  0.00000000000E+00 0.  1.
         -1   -1    0    0    0  501 -0.00000000000E+00 -0.00000000000E+00 -0.83709658397E+02  0.83709658397E+02  0.00000000000E+00 0.  1.
         23    2    1    2    0    0  0.33972410380E+01  0.24677602303E+02  0.19693860844E+02  0.94325583467E+02  0.88819717627E+02 0.  0.
         23    2    1    2    0    0  0.73489725061E+02  0.23069161228E+02  0.16533157674E+03  0.20402592382E+03  0.91428231049E+02 0.  0.
        -11    1    3    3    0    0 -0.34627449853E+02  0.10737904198E+02 -0.16664006938E+02  0.39900526276E+02  0.00000000000E+00 0.  1.
         11    1    3    3    0    0  0.38024690891E+02  0.13939698105E+02  0.36357867782E+02  0.54425057191E+02  0.00000000000E+00 0. -1.
        -11    1    4    4    0    0 -0.13001785097E+02  0.28032329385E+02  0.28277974698E+02  0.41886773084E+02  0.00000000000E+00 0. -1.
         11    1    4    4    0    0  0.86491510158E+02 -0.49631681570E+01  0.13705360205E+03  0.16213915074E+03  0.00000000000E+00 0.  1.
         -1    1    1    2    0  502 -0.76886966099E+02 -0.47746763531E+02  0.48668548156E+02  0.10276179525E+03  0.00000000000E+00 0.  1.
<scales pt_clust_5="13000.00000" pt_clust_6="13000.00000" pt_clust_7="13000.00000" pt_clust_8="13000.00000" pt_clust_9="90.50617"></scales>
<clustering>
<clus scale="   88.820">  5  6 -1 -1</clus>
<clus scale="   90.506">  1  9  2 -1</clus>
<clus scale="   91.028">  2  5  1 -1</clus>
<clus scale="   91.428">  7  8 -1 -1</clus>
<clus scale="   90.506">  1  5  2 -1</clus>
</clustering>
</event>
<event>
 9    1  0.1399746E-005  0.1057668E+03  0.7546771E-02  0.1268791E+00
         21   -1    0    0  501  502  0.00000000000E+00  0.00000000000E+00  0.94592212099E+02  0.94592212099E+02  0.00000000000E+00 0. -1.
         -1   -1    0    0    0  501 -0.00000000000E+00 -0.00000000000E+00 -0.30399140035E+03  0.30399140035E+03  0.00000000000E+00 0.  1.
         23    2    1    2    0    0 -0.65076484075E+01 -0.35247952320E+02 -0.14561979163E+03  0.17568855017E+03  0.91523632559E+02 0.  0.
         23    2    1    2    0    0  0.23755299855E+02  0.10402296185E+03 -0.57774139781E+02  0.15173646107E+03  0.91109887110E+02 0.  0.
        -11    1    4    4    0    0  0.39859759347E+02  0.52199512328E+01 -0.16442475364E+02  0.43432744585E+02  0.00000000000E+00 0.  1.
         11    1    4    4    0    0 -0.16104459492E+02  0.98803010613E+02 -0.41331664417E+02  0.10830371649E+03  0.00000000000E+00 0. -1.
        -13    1    3    3    0    0 -0.25449940172E+02 -0.40480258289E+01 -0.21311376241E+00  0.25770746697E+02  0.00000000000E+00 0. -1.
         13    1    3    3    0    0  0.18942291764E+02 -0.31199926491E+02 -0.14540667787E+03  0.14991780348E+03  0.00000000000E+00 0.  1.
         -1    1    1    2    0  502 -0.17247651448E+02 -0.68775009526E+02 -0.60052568412E+01  0.71158601205E+02  0.00000000000E+00 0.  1.
<scales pt_clust_5="13000.00000" pt_clust_6="13000.00000" pt_clust_7="13000.00000" pt_clust_8="13000.00000" pt_clust_9="70.90475"></scales>
<clustering>
<clus scale="   70.905">  1  9  2 -1</clus>
<clus scale="   91.110">  5  6 -1 -1</clus>
<clus scale="   91.524">  7  8 -1 -1</clus>
<clus scale="  105.409">  1  5  2 -1</clus>
<clus scale="   70.905">  1  5  2 -1</clus>
</clustering>
</event>
<event>
 9    1  0.1399746E-005  0.1811980E+03  0.7546771E-02  0.1167338E+00
         21   -1    0    0  501  502  0.00000000000E+00  0.00000000000E+00  0.69046577956E+03  0.69046577956E+03  0.00000000000E+00 0.  1.
          1   -1    0    0  502    0 -0.00000000000E+00 -0.00000000000E+00 -0.11685531489E+03  0.11685531489E+03  0.00000000000E+00 0. -1.
         23    2    1    2    0    0  0.12501115317E+03  0.10757932835E+03  0.18125590823E+02  0.18128654055E+03  0.73042264727E+02 0.  0.
         23    2    1    2    0    0 -0.51258993583E+02 -0.16758990957E+03  0.39667308721E+03  0.44093502803E+03  0.79751480353E+02 0.  0.
        -13    1    4    4    0    0 -0.17292543857E+02 -0.12454543800E+03  0.33799054394E+03  0.36062197104E+03  0.00000000000E+00 0.  1.
         13    1    4    4    0    0 -0.33966449726E+02 -0.43044471576E+02  0.58682543262E+02  0.80313056995E+02  0.00000000000E+00 0. -1.
        -13    1    3    3    0    0  0.35811051691E+02  0.62128169270E+02 -0.19537605758E+02  0.74324012801E+02  0.00000000000E+00 0. -1.
         13    1    3    3    0    0  0.89200101479E+02  0.45451159078E+02  0.37663196580E+02  0.10696252775E+03  0.00000000000E+00 0.  1.
          1    1    1    2  501    0 -0.73752159586E+02  0.60010581224E+02  0.15881178664E+03  0.18509952587E+03  0.00000000000E+00 0. -1.
<scales pt_clust_5="13000.00000" pt_clust_6="13000.00000" pt_clust_7="13000.00000" pt_clust_8="13000.00000" pt_clust_9="95.08234"></scales>
<clustering>
<clus scale="   73.042">  7  8 -1 -1</clus>
<clus scale="   79.751">  5  6 -1 -1</clus>
<clus scale="   95.082">  1  9  2 -1</clus>
<clus scale="  178.347">  2  7  1 -1</clus>
<clus scale="   95.082">  1  5  2 -1</clus>
</clustering>
</event>
<event>
 9    1  0.1399746E-005  0.1119091E+03  0.7546771E-02  0.1257158E+00
         21   -1    0    0  501  502  0.00000000000E+00  0.00000000000E+00  0.23461770650E+03  0.23461770650E+03  0.00000000000E+00 0. -1.
         -3   -1    0    0    0  501 -0.00000000000E+00 -0.00000000000E+00 -0.77844913173E+02  0.77844913173E+02  0.00000000000E+00 0.  1.
         23    2    1    2    0    0  0.56377729486E+02  0.35277472960E+02  0.13214795680E+02  0.11261623557E+03  0.89915722811E+02 0.  0.
         23    2    1    2    0    0 -0.68728707077E+02 -0.13611231302E+02  0.12246592869E+03  0.16718374416E+03  0.89686118366E+02 0.  0.
        -11    1    3    3    0    0  0.38638656785E+02  0.47111279236E+02  0.44007869063E+02  0.75160567912E+02  0.00000000000E+00 0.  1.
         11    1    3    3    0    0  0.17739072701E+02 -0.11833806276E+02 -0.30793073384E+02  0.37455667658E+02  0.00000000000E+00 0. -1.
        -13    1    4    4    0    0 -0.33886713215E+02 -0.91375355463E+01  0.12700357806E+03  0.13176385213E+03  0.00000000000E+00 0. -1.
         13    1    4    4    0    0 -0.34841993862E+02 -0.44736957552E+01 -0.45376493638E+01  0.35419892035E+02  0.00000000000E+00 0.  1.
         -3    1    1    2    0  502  0.12350977592E+02 -0.21666241659E+02  0.21092068955E+02  0.32662639940E+02  0.00000000000E+00 0.  1.
<scales pt_clust_5="13000.00000" pt_clust_6="13000.00000" pt_clust_7="13000.00000" pt_clust_8="13000.00000" pt_clust_9="24.93938"></scales>
<clustering>
<clus scale="   24.939">  1  9  2 -1</clus>
<clus scale="   89.686">  7  8 -1 -1</clus>
<clus scale="   89.916">  5  6 -1 -1</clus>
<clus scale="  111.725">  1  7  2 -1</clus>
<clus scale="   24.939">  1  5  2 -1</clus>
</clustering>
</event>
<event>
 9    1  0.1399746E-005  0.2166891E+03  0.7546771E-02  0.1136427E+00
         21   -1    0    0  501  502  0.00000000000E+00  0.00000000000E+00  0.20166393883E+03  0.20166393883E+03  0.00000000000E+00 0. -1.
          3   -1    0    0  502    0 -0.00000000000E+00 -0.00000000000E+00 -0.37366731164E+03  0.37366731164E+03  0.00000000000E+00 0. -1.
         23    2    1    2    0    0 -0.73682942610E+02 -0.17111245550E+03 -0.19647630581E+03  0.28573056596E+03  0.91270855813E+02 0.  0.
         23    2    1    2    0    0  0.75858858923E+02  0.21460272582E+03  0.22157042973E+02  0.24599447428E+03  0.90628088457E+02 0.  0.
        -11    1    4    4    0    0  0.42148530436E+02  0.11384584605E+03  0.57091144904E+02  0.13415205592E+03  0.00000000000E+00 0.  1.
         11    1    4    4    0    0  0.33710328487E+02  0.10075687977E+03 -0.34934101931E+02  0.11184241836E+03  0.00000000000E+00 0. -1.
        -13    1    3    3    0    0 -0.76055866207E+02 -0.64508296773E+02 -0.80308176628E+02  0.12804381426E+03  0.00000000000E+00 0. -1.
         13    1    3    3    0    0  0.23729235971E+01 -0.10660415873E+03 -0.11616812918E+03  0.15768675170E+03  0.00000000000E+00 0.  1.
          3    1    1    2  501    0 -0.21759163125E+01 -0.43490270317E+02  0.23158900207E+01  0.43606210230E+02  0.00000000000E+00 0. -1.
<scales pt_clust_5="13000.00000" pt_clust_6="13000.00000" pt_clust_7="13000.00000" pt_clust_8="13000.00000" pt_clust_9="43.54467"></scales>
<clustering>
<clus scale="   43.545">  1  9  2 -1</clus>
<clus scale="   90.628">  5  6 -1 -1</clus>
<clus scale="   91.271">  7  8 -1 -1</clus>
<clus scale="  216.419">  1  5  2 -1</clus>
<clus scale="   43.545">  1  5  2 -1</clus>
</clustering>
</event>
<event>
 9    1  0.1399746E-005  0.1083622E+03  0.7546771E-02  0.1269123E+00
          2   -1    0    0  502    0 -0.00000000000E+00  0.00000000000E+00  0.59484467949E+03  0.59484467949E+03  0.00000000000E+00 0. -1.
         21   -1    0    0  501  502  0.00000000000E+00 -0.00000000000E+00 -0.28585954870E+02  0.28585954870E+02  0.00000000000E+00 0.  1.
         23    2    1    2    0    0 -0.12742967956E+02  0.37827454956E+02  0.42384326577E+03  0.43765663799E+03  0.10152299866E+03 0.  0.
         23    2    1    2    0    0 -0.85100890946E+01 -0.36107463317E+02  0.12481430400E+03  0.15812528108E+03  0.89715235662E+02 0.  0.
        -11    1    3    3    0    0 -0.46556196265E+02  0.53041220052E+02  0.24247356699E+03  0.25253570267E+03  0.00000000000E+00 0.  1.
         11    1    3    3    0    0  0.33813228308E+02 -0.15213765096E+02  0.18136969878E+03  0.18512093532E+03  0.00000000000E+00 0. -1.
        -13    1    4    4    0    0 -0.15356856030E+02 -0.61047189788E+02  0.11372733527E+03  0.12998653467E+03  0.00000000000E+00 0.  1.
         13    1    4    4    0    0  0.68467669357E+01  0.24939726471E+02  0.11086968733E+02  0.28138746411E+02  0.00000000000E+00 0. -1.
          2    1    1    2  501    0  0.21253057051E+02 -0.17199916393E+01  0.17601154853E+02  0.27648715294E+02  0.00000000000E+00 0. -1.
<scales pt_clust_5="13000.00000" pt_clust_6="13000.00000" pt_clust_7="13000.00000" pt_clust_8="13000.00000" pt_clust_9="21.32254"></scales>
<clustering>
<clus scale="   21.323">  2  9  1 -1</clus>
<clus scale="   89.715">  7  8 -1 -1</clus>
<clus scale="   97.387">  2  7  1 -1</clus>
<clus scale="  101.523">  5  6 -1 -1</clus>
<clus scale="   21.323">  2  5  1 -1</clus>
</clustering>
</event>
<event>
 9    1  0.1399746E-005  0.1375358E+03  0.7546771E-02  0.1217075E+00
          1   -1    0    0  502    0 -0.00000000000E+00  0.00000000000E+00  0.32541491992E+03  0.32541491992E+03  0.00000000000E+00 0. -1.
         21   -1    0    0  501  502  0.00000000000E+00 -0.00000000000E+00 -0.29980285366E+03  0.29980285366E+03  0.00000000000E+00 0.  1.
         23    2    1    2    0    0  0.99645584727E+02 -0.17794899647E+02  0.28658463489E+03  0.31802255918E+03  0.93603921830E+02 0.  0.
         23    2    1    2    0    0 -0.97198382186E+02 -0.94507076836E+01 -0.20638899981E+03  0.24614050203E+03  0.91934140125E+02 0.  0.
        -11    1    3    3    0    0 -0.13497510041E+02 -0.16214752340E+02  0.23189350149E+02  0.31350389648E+02  0.00000000000E+00 0.  1.
         11    1    3    3    0    0  0.11314309477E+03 -0.15801473074E+01  0.26339528474E+03  0.28667216953E+03  0.00000000000E+00 0. -1.
        -11    1    4    4    0    0  0.39246520819E+01  0.23130066327E+02 -0.16948518297E+02  0.28942272452E+02  0.00000000000E+00 0. -1.
         11    1    4    4    0    0 -0.10112303427E+03 -0.32580774011E+02 -0.18944048151E+03  0.21719822957E+03  0.00000000000E+00 0.  1.
          1    1    1    2  501    0 -0.24472025411E+01  0.27245607331E+02 -0.54583568823E+02  0.61054712386E+02  0.00000000000E+00 0. -1.
<scales pt_clust_5="13000.00000" pt_clust_6="13000.00000" pt_clust_7="13000.00000" pt_clust_8="13000.00000" pt_clust_9="27.35529"></scales>
<clustering>
<clus scale="   27.355">  2  9  1 -1</clus>
<clus scale="   91.934">  7  8 -1 -1</clus>
<clus scale="   93.604">  5  6 -1 -1</clus>
<clus scale="  136.405">  2  7  1 -1</clus>
<clus scale="   27.355">  2  5  1 -1</clus>
</clustering>
</event>
<event>
 9    1  0.1399746E-005  0.1746706E+03  0.7546771E-02  0.1173503E+00
         -2   -1    0    0    0  501 -0.00000000000E+00  0.00000000000E+00  0.49025155491E+03  0.49025155491E+03  0.00000000000E+00 0.  1.
         21   -1    0    0  501  502  0.00000000000E+00 -0.00000000000E+00 -0.45527064885E+03  0.45527064885E+03  0.00000000000E+00 0. -1.
         23    2    1    2    0    0  0.14730038227E+03  0.54978889893E+01  0.44007280975E+03  0.47341507275E+03  0.93435131627E+02 0.  0.
         23    2    1    2    0    0 -0.15237122583E+03  0.51124268226E+02 -0.28734088927E+03  0.34135131454E+03  0.90140179897E+02 0.  0.
        -11    1    3    3    0    0  0.51231269845E+02  0.17141458824E+02  0.57935321577E+02  0.79214734152E+02  0.00000000000E+00 0. -1.
         11    1    3    3    0    0  0.96069112422E+02 -0.11643569835E+02  0.38213748818E+03  0.39420033860E+03  0.00000000000E+00 0.  1.
        -13    1    4    4    0    0 -0.30783049274E+02  0.11706211856E+02 -0.15065886241E+03  0.15421648531E+03  0.00000000000E+00 0.  1.
         13    1    4    4    0    0 -0.12158817655E+03  0.39418056370E+02 -0.13668202686E+03  0.18713482923E+03  0.00000000000E+00 0. -1.
         -2    1    1    2    0  502  0.50708435591E+01 -0.56622157215E+02 -0.11775101443E+03  0.13075581647E+03  0.00000000000E+00 0.  1.
<scales pt_clust_5="13000.00000" pt_clust_6="13000.00000" pt_clust_7="13000.00000" pt_clust_8="13000.00000" pt_clust_9="56.84877"></scales>
<clustering>
<clus scale="   56.849">  2  9  1 -1</clus>
<clus scale="   90.140">  7  8 -1 -1</clus>
<clus scale="   93.435">  5  6 -1 -1</clus>
<clus scale="  172.931">  2  7  1 -1</clus>
<clus scale="   56.849">  2  5  1 -1</clus>
</clustering>
</event>
<event>
 9    1  0.1399746E-005  0.1118138E+03  0.7546771E-02  0.1258618E+00
         21   -1    0    0  501  502  0.00000000000E+00  0.00000000000E+00  0.13918241491E+03  0.13918241491E+03  0.00000000000E+00 0. -1.
          3   -1    0    0  502    0 -0.00000000000E+00 -0.00000000000E+00 -0.21381463109E+03  0.21381463109E+03  0.00000000000E+00 0. -1.
         23    2    1    2    0    0 -0.12526995442E+01  0.35673988647E+02 -0.40435435812E+02  0.10240945779E+03  0.87054407430E+02 0.  0.
         23    2    1    2    0    0  0.33838565979E+01 -0.98551319532E+02 -0.94071861157E+02  0.16373641741E+03  0.90753987551E+02 0.  0.
        -13    1    4    4    0    0  0.30038328427E+02 -0.87196503784E+02 -0.36310071286E+02  0.99115855056E+02  0.00000000000E+00 0. -1.
         13    1    4    4    0    0 -0.26654471829E+02 -0.11354815748E+02 -0.57761789871E+02  0.64620562349E+02  0.00000000000E+00 0.  1.
        -13    1    3    3    0    0  0.21227933730E+02  0.26299034787E+02  0.18578093418E+02  0.38566954200E+02  0.00000000000E+00 0.  1.
         13    1    3    3    0    0 -0.22480633275E+02  0.93749538600E+01 -0.59013529230E+02  0.63842503588E+02  0.00000000000E+00 0. -1.
          3    1    1    2  501    0 -0.21311570537E+01  0.62877330885E+02  0.59875080788E+02  0.86851170798E+02  0.00000000000E+00 0. -1.
<scales pt_clust_5="13000.00000" pt_clust_6="13000.00000" pt_clust_7="13000.00000" pt_clust_8="13000.00000" pt_clust_9="62.91344"></scales>
<clustering>
<clus scale="   62.913">  1  9  2 -1</clus>
<clus scale="   87.054">  7  8 -1 -1</clus>
<clus scale="   90.754">  5  6 -1 -1</clus>
<clus scale="  108.832">  2  7  1 -1</clus>
<clus scale="   62.913">  1  5  2 -1</clus>
</clustering>
</event>
<event>
 9    1  0.1399746E-005  0.2424689E+03  0.7546771E-02  0.1118165E+00
         21   -1    0    0  501  502  0.00000000000E+00  0.00000000000E+00  0.67711214472E+02  0.67711214472E+02  0.00000000000E+00 0. -1.
          1   -1    0    0  502    0 -0.00000000000E+00 -0.00000000000E+00 -0.10370130780E+04  0.10370130780E+04  0.00000000000E+00 0. -1.
         23    2    1    2    0    0  0.18853226654E+03 -0.12615764156E+03 -0.55960362020E+03  0.61081525892E+03  0.92080957521E+02 0.  0.
         23    2    1    2    0    0 -0.16491268205E+03  0.14890619944E+03 -0.37980485231E+03  0.44953565769E+03  0.91985503043E+02 0.  0.
        -11    1    3    3    0    0  0.99948239555E+02 -0.22223516855E+02 -0.17584306291E+03  0.20348051028E+03  0.00000000000E+00 0. -1.
         11    1    3    3    0    0  0.88584026981E+02 -0.10393412471E+03 -0.38376055729E+03  0.40733474864E+03  0.00000000000E+00 0.  1.
        -13    1    4    4    0    0 -0.70012062113E+02  0.96224063876E+02 -0.27037823260E+03  0.29540675004E+03  0.00000000000E+00 0.  1.
         13    1    4    4    0    0 -0.94900619936E+02  0.52682135566E+02 -0.10942661971E+03  0.15412890765E+03  0.00000000000E+00 0. -1.
          1    1    1    2  501    0 -0.23619584487E+02 -0.22748557879E+02 -0.29893390975E+02  0.44373375812E+02  0.00000000000E+00 0. -1.
<scales pt_clust_5="13000.00000" pt_clust_6="13000.00000" pt_clust_7="13000.00000" pt_clust_8="13000.00000" pt_clust_9="32.79301"></scales>
<clustering>
<clus scale="   32.793">  1  9  2 -1</clus>
<clus scale="   91.986">  7  8 -1 -1</clus>
<clus scale="   92.081">  5  6 -1 -1</clus>
<clus scale="  242.433">  1  7  2 -1</clus>
<clus scale="   32.793">  1  5  2 -1</clus>
</clustering>
</event>
<event>
 9    1  0.1399746E-005  0.1552905E+03  0.7546771E-02  0.1194318E+00
          2   -1    0    0  502    0 -0.00000000000E+00  0.00000000000E+00  0.13311509172E+04  0.13311509172E+04  0.00000000000E+00 0. -1.
         21   -1    0    0  501  502  0.00000000000E+00 -0.00000000000E+00 -0.61431443920E+02  0.61431443920E+02  0.00000000000E+00 0. -1.
         23    2    1    2    0    0 -0.92799979615E+02 -0.15431490168E+02  0.46037708258E+03  0.47832553225E+03  0.89433156800E+02 0.  0.
         23    2    1    2    0    0  0.14933753184E+03  0.10208506877E+03  0.78165074945E+03  0.80714863829E+03  0.88249478771E+02 0.  0.
        -11    1    4    4    0    0  0.35678976664E+02  0.60883078641E+02  0.41836689452E+03  0.42427655730E+03  0.00000000000E+00 0. -1.
         11    1    4    4    0    0  0.11365855518E+03  0.41201990127E+02  0.36328385492E+03  0.38287208099E+03  0.00000000000E+00 0.  1.
        -13    1    3    3    0    0 -0.18799588513E+02 -0.13505053905E+02  0.16768745169E+02  0.28583243759E+02  0.00000000000E+00 0.  1.
         13    1    3    3    0    0 -0.74000391103E+02 -0.19264362626E+01  0.44360833741E+03  0.44974228850E+03  0.00000000000E+00 0. -1.
          2    1    1    2  501    0 -0.56537552225E+02 -0.86653578600E+02  0.27691641272E+02  0.10710819059E+03  0.00000000000E+00 0. -1.
<scales pt_clust_5="13000.00000" pt_clust_6="13000.00000" pt_clust_7="13000.00000" pt_clust_8="13000.00000" pt_clust_9="103.46660"></scales>
<clustering>
<clus scale="   88.249">  5  6 -1 -1</clus>
<clus scale="   89.433">  7  8 -1 -1</clus>
<clus scale="  103.467">  2  9  1 -1</clus>
<clus scale="  154.612">  2  5  1 -1</clus>
<clus scale="  103.467">  2  5  1 -1</clus>
</clustering>
</event>
<event>
 9    1  0.1399746E-005  0.1680189E+03  0.7546771E-02  0.1204531E+00
         -1   -1    0    0    0  501 -0.00000000000E+00  0.00000000000E+00  0.22125320899E+03  0.22125320899E+03  0.00000000000E+00 0.  1.
         21   -1    0    0  501  502  0.00000000000E+00 -0.00000000000E+00 -0.36100731525E+03  0.36100731525E+03  0.00000000000E+00 0.  1.
         23    2    1    2    0    0 -0.15507239203E+02  0.32956982936E+02 -0.99222254160E+02  0.13929300723E+03  0.90724026313E+02 0.  0.
         23    2    1    2    0    0  0.15009738733E+03  0.68616380877E+01  0.13253714760E+03  0.22013818949E+03  0.91205368358E+02 0.  0.
        -13    1    3    3    0    0  0.12091180739E+02  0.58104791069E+02 -0.50621075636E+02  0.78005491444E+02  0.00000000000E+00 0.  1.
         13    1    3    3    0    0 -0.27598419943E+02 -0.25147808133E+02 -0.48601178524E+02  0.61287515786E+02  0.00000000000E+00 0. -1.
        -13    1    4    4    0    0  0.55501391988E+02  0.30244242619E+02  0.98276319622E+02  0.11684756618E+03  0.00000000000E+00 0.  1.
         13    1    4    4    0    0  0.94595995340E+02 -0.23382604532E+02  0.34260827974E+02  0.10329062330E+03  0.00000000000E+00 0. -1.
         -1    1    1    2    0  502 -0.13459014813E+03 -0.39818621023E+02 -0.17306899969E+03  0.22282932753E+03  0.00000000000E+00 0.  1.
<scales pt_clust_5="13000.00000" pt_clust_6="13000.00000" pt_clust_7="13000.00000" pt_clust_8="13000.00000" pt_clust_9="141.10961"></scales>
<clustering>
<clus scale="   90.724">  5  6 -1 -1</clus>
<clus scale="   91.205">  7  8 -1 -1</clus>
<clus scale="   97.762">  1  5  2 -1</clus>
<clus scale="  141.110">  2  9  1 -1</clus>
<clus scale="  141.110">  2  5  1 -1</clus>
</clustering>
</event>
<event>
 9    1  0.1399746E-005  0.1925902E+03  0.7546771E-02  0.1156596E+00
         -4   -1    0    0    0  501 -0.00000000000E+00  0.00000000000E+00  0.11152967199E+03  0.11152967199E+03  0.00000000000E+00 0.  1.
         21   -1    0    0  501  502  0.00000000000E+00 -0.00000000000E+00 -0.84278570243E+03  0.84278570243E+03  0.00000000000E+00 0.  1.
         23    2    1    2    0    0 -0.73749957047E+02  0.13775276613E+03 -0.83570973778E+02  0.20046856858E+03  0.93747845787E+02 0.  0.
         23    2    1    2    0    0  0.11250060231E+03 -0.19402376318E+03 -0.64125919491E+03  0.68522225254E+03  0.89524153791E+02 0.  0.
        -13    1    3    3    0    0 -0.31865527750E+02  0.52731768545E+02 -0.85841091079E+02  0.10566335311E+03  0.00000000000E+00 0.  1.
         13    1    3    3    0    0 -0.41884429297E+02  0.85020997589E+02  0.22701173005E+01  0.94805215474E+02  0.00000000000E+00 0. -1.
        -13    1    4    4    0    0  0.67453391653E+02 -0.60065472929E+02 -0.35026933774E+03  0.36172701038E+03  0.00000000000E+00 0.  1.
         13    1    4    4    0    0  0.45047210656E+02 -0.13395829025E+03 -0.29098985718E+03  0.32349524215E+03  0.00000000000E+00 0. -1.
         -4    1    1    2    0  502 -0.38750645262E+02  0.56270997048E+02 -0.64258617485E+01  0.68624553304E+02  0.00000000000E+00 0.  1.
<scales pt_clust_5="13000.00000" pt_clust_6="13000.00000" pt_clust_7="13000.00000" pt_clust_8="13000.00000" pt_clust_9="68.32307"></scales>
<clustering>
<clus scale="   68.323">  2  9  1 -1</clus>
<clus scale="   89.524">  7  8 -1 -1</clus>
<clus scale="   93.748">  5  6 -1 -1</clus>
<clus scale="  190.570">  2  7  1 -1</clus>
<clus scale="   68.323">  2  5  1 -1</clus>
</clustering>
</event>
<event>
 9    1  0.1399746E-005  0.9434789E+02  0.7546771E-02  0.1293260E+00
         21   -1    0    0  501  502  0.00000000000E+00  0.00000000000E+00  0.29862544467E+03  0.29862544467E+03  0.00000000000E+00 0. -1.
         -4   -1    0    0    0  501 -0.00000000000E+00 -0.00000000000E+00 -0.50868386425E+02  0.50868386425E+02  0.00000000000E+00 0.  1.
         23    2    1    2    0    0  0.66643065683E+01 -0.14940468880E+02  0.40410715773E+02  0.10095987916E+03  0.91061740914E+02 0.  0.
         23    2    1    2    0    0  0.10865215055E+02  0.35290322379E+02  0.19532885058E+03  0.21910911928E+03  0.92151975170E+02 0.  0.
        -11    1    4    4    0    0  0.28382212666E+01 -0.31434659222E+02  0.73088223858E+02  0.79612070486E+02  0.00000000000E+00 0.  1.
         11    1    4    4    0    0  0.80269937881E+01  0.66724981601E+02  0.12224062673E+03  0.13949704879E+03  0.00000000000E+00 0. -1.
        -13    1    3    3    0    0 -0.57697455081E+01 -0.40896495077E+02  0.54929508094E+02  0.68724552616E+02  0.00000000000E+00 0.  1.
         13    1    3    3    0    0  0.12434052076E+02  0.25956026196E+02 -0.14518792321E+02  0.32235326544E+02  0.00000000000E+00 0. -1.
         -4    1    1    2    0  502 -0.17529521623E+02 -0.20349853499E+02  0.12017491890E+02  0.29424832660E+02  0.00000000000E+00 0.  1.
<scales pt_clust_5="13000.00000" pt_clust_6="13000.00000" pt_clust_7="13000.00000" pt_clust_8="13000.00000" pt_clust_9="26.85892"></scales>
<clustering>
<clus scale="   26.859">  1  9  2 -1</clus>
<clus scale="   91.062">  7  8 -1 -1</clus>
<clus scale="   92.152">  5  6 -1 -1</clus>
<clus scale="   93.283">  2  7  1 -1</clus>
<clus scale="   26.859">  1  5  2 -1</clus>
</clustering>
</event>
<event>
 9    1  0.1399746E-005  0.9620450E+02  0.7546771E-02  0.1289594E+00
          1   -1    0    0  502    0 -0.00000000000E+00  0.00000000000E+00  0.63435690644E+03  0.63435690644E+03  0.00000000000E+00 0. -1.
         21   -1    0    0  501  502  0.00000000000E+00 -0.00000000000E+00 -0.27002528788E+02  0.27002528788E+02  0.00000000000E+00 0.  1.
         23    2    1    2    0    0 -0.22736645120E+02 -0.42660018291E+02  0.41952850543E+03  0.43132770465E+03  0.87764399053E+02 0.  0.
         23    2    1    2    0    0  0.12414028807E+02  0.72635534780E+01  0.87930362624E+02  0.12354896687E+03  0.85590485585E+02 0.  0.
        -11    1    3    3    0    0 -0.47637441218E+02  0.25701050015E+01  0.17346572034E+03  0.17990632946E+03  0.00000000000E+00 0. -1.
         11    1    3    3    0    0  0.24900796098E+02 -0.45230123293E+02  0.24606278509E+03  0.25142137520E+03  0.00000000000E+00 0.  1.
        -11    1    4    4    0    0  0.21914036969E+02 -0.35495613075E+02  0.32383230950E+02  0.52809442438E+02  0.00000000000E+00 0.  1.
         11    1    4    4    0    0 -0.95000081627E+01  0.42759166553E+02  0.55547131674E+02  0.70739524430E+02  0.00000000000E+00 0. -1.
          1    1    1    2  501    0  0.10322616313E+02  0.35396464813E+02  0.99895509596E+02  0.10648276370E+03  0.00000000000E+00 0. -1.
<scales pt_clust_5="13000.00000" pt_clust_6="13000.00000" pt_clust_7="13000.00000" pt_clust_8="13000.00000" pt_clust_9="36.87096"></scales>
<clustering>
<clus scale="   36.871">  2  9  1 -1</clus>
<clus scale="   85.590">  7  8 -1 -1</clus>
<clus scale="   87.764">  5  6 -1 -1</clus>
<clus scale="   94.226">  2  7  1 -1</clus>
<clus scale="   36.871">  2  5  1 -1</clus>
</clustering>
</event>
<event>
 9    1  0.1399746E-005  0.9565261E+02  0.7546771E-02  0.1292691E+00
         21   -1    0    0  501  502  0.00000000000E+00  0.00000000000E+00  0.87359614113E+02  0.87359614113E+02  0.00000000000E+00 0.  1.
          1   -1    0    0  502    0 -0.00000000000E+00 -0.00000000000E+00 -0.18945912539E+03  0.18945912539E+03  0.00000000000E+00 0. -1.
         23    2    1    2    0    0 -0.31750347232E+02 -0.94733844688E+01 -0.10813167189E+03  0.14565762205E+03  0.91792455211E+02 0.  0.
         23    2    1    2    0    0  0.17793614329E+02 -0.79870738381E+01 -0.25824483230E+02  0.92244491773E+02  0.86381342135E+02 0.  0.
        -13    1    3    3    0    0 -0.43411258018E+02  0.32067825362E+02 -0.67139296356E+02  0.86142717982E+02  0.00000000000E+00 0.  1.
         13    1    3    3    0    0  0.11660910786E+02 -0.41541209831E+02 -0.40992375531E+02  0.59514904068E+02  0.00000000000E+00 0. -1.
        -13    1    4    4    0    0 -0.14138277368E+02 -0.34396084892E+02 -0.33558241701E+02  0.50091287954E+02  0.00000000000E+00 0.  1.
         13    1    4    4    0    0  0.31931891697E+02  0.26409011054E+02  0.77337584712E+01  0.42153203819E+02  0.00000000000E+00 0. -1.
          1    1    1    2  501    0  0.13956732904E+02  0.17460458307E+02  0.31856643839E+02  0.38916625680E+02  0.00000000000E+00 0. -1.
<scales pt_clust_5="13000.00000" pt_clust_6="13000.00000" pt_clust_7="13000.00000" pt_clust_8="13000.00000" pt_clust_9="22.35303"></scales>
<clustering>
<clus scale="   22.353">  1  9  2 -1</clus>
<clus scale="   86.381">  7  8 -1 -1</clus>
<clus scale="   90.473">  1  7  2 -1</clus>
<clus scale="   91.792">  5  6 -1 -1</clus>
<clus scale="   22.353">  1  5  2 -1</clus>
</clustering>
</event>
<event>
 9    1  0.1399746E-005  0.1006452E+03  0.7546771E-02  0.1286998E+00
         -1   -1    0    0    0  501 -0.00000000000E+00  0.00000000000E+00  0.16623639898E+03  0.16623639898E+03  0.00000000000E+00 0.  1.
         21   -1    0    0  501  502  0.00000000000E+00 -0.00000000000E+00 -0.90301431952E+02  0.90301431952E+02  0.00000000000E+00 0. -1.
         23    2    1    2    0    0 -0.17805918891E+01  0.31101169495E+02  0.37807554429E+02  0.10478159311E+03  0.92624607055E+02 0.  0.
         23    2    1    2    0    0  0.36485430616E+02 -0.43544648736E+02 -0.40870568359E+01  0.95708691607E+02  0.76916360645E+02 0.  0.
        -11    1    4    4    0    0  0.38156444554E+02 -0.64315958542E+02 -0.31078679182E+01  0.74847282029E+02  0.00000000000E+00 0. -1.
         11    1    4    4    0    0 -0.16710139375E+01  0.20771309806E+02 -0.97918891772E+00  0.20861409578E+02  0.00000000000E+00 0.  1.
        -11    1    3    3    0    0 -0.57126795373E+01  0.53182641021E+02  0.54849629804E+02  0.76612726770E+02  0.00000000000E+00 0.  1.
         11    1    3    3    0    0  0.39320876482E+01 -0.22081471526E+02 -0.17042075375E+02  0.28168866344E+02  0.00000000000E+00 0. -1.
         -1    1    1    2    0  502 -0.34704838727E+02  0.12443479241E+02  0.42214469437E+02  0.56047546214E+02  0.00000000000E+00 0.  1.
<scales pt_clust_5="13000.00000" pt_clust_6="13000.00000" pt_clust_7="13000.00000" pt_clust_8="13000.00000" pt_clust_9="36.86824"></scales>
<clustering>
<clus scale="   36.868">  2  9  1 -1</clus>
<clus scale="   76.916">  5  6 -1 -1</clus>
<clus scale="   86.408">  2  5  1 -1</clus>
<clus scale="   92.625">  7  8 -1 -1</clus>
<clus scale="   36.868">  2  5  1 -1</clus>
</clustering>
</event>
<event>
 9    1  0.1399746E-005  0.1037848E+03  0.7546771E-02  0.1272995E+00
          2   -1    0    0  502    0 -0.00000000000E+00  0.00000000000E+00  0.70714633332E+03  0.70714633332E+03  0.00000000000E+00 0. -1.
         21   -1    0    0  501  502  0.00000000000E+00 -0.00000000000E+00 -0.29920198261E+02  0.29920198261E+02  0.00000000000E+00 0. -1.
         23    2    1    2    0    0 -0.11764644128E+02  0.62573794768E+02  0.35251737833E+03  0.36986716013E+03  0.92083263828E+02 0.  0.
         23    2    1    2    0    0  0.48274210717E+02 -0.89670545121E+01  0.23242101265E+03  0.25440017482E+03  0.91044573362E+02 0.  0.
        -11    1    3    3    0    0  0.16385697950E+02  0.70300926488E+02  0.30999813571E+03  0.31829162022E+03  0.00000000000E+00 0. -1.
         11    1    3    3    0    0 -0.28150342079E+02 -0.77271317207E+01  0.42519242622E+02  0.51575539909E+02  0.00000000000E+00 0.  1.
        -11    1    4    4    0    0 -0.38112302748E+01 -0.41077187715E+02  0.11133616446E+03  0.11873332449E+03  0.00000000000E+00 0.  1.
         11    1    4    4    0    0  0.52085440992E+02  0.32110133203E+02  0.12108484819E+03  0.13566685033E+03  0.00000000000E+00 0. -1.
          2    1    1    2  501    0 -0.36509566589E+02 -0.53606740255E+02  0.92287744081E+02  0.11279919663E+03  0.00000000000E+00 0. -1.
<scales pt_clust_5="13000.00000" pt_clust_6="13000.00000" pt_clust_7="13000.00000" pt_clust_8="13000.00000" pt_clust_9="64.85855"></scales>
<clustering>
<clus scale="   64.859">  2  9  1 -1</clus>
<clus scale="   91.045">  7  8 -1 -1</clus>
<clus scale="   92.083">  5  6 -1 -1</clus>
<clus scale="  102.864">  2  7  1 -1</clus>
<clus scale="   64.859">  2  5  1 -1</clus>
</clustering>
</event>
<event>
 9    1  0.1399746E-005  0.1177202E+03  0.7546771E-02  0.1249131E+00
         -1   -1    0    0    0  501 -0.00000000000E+00  0.00000000000E+00  0.69850377087E+03  0.69850377087E+03  0.00000000000E+00 0.  1.
         21   -1    0    0  501  502  0.00000000000E+00 -0.00000000000E+00 -0.25441186810E+02  0.25441186810E+02  0.00000000000E+00 0. -1.
         23    2    1    2    0    0  0.12673802954E+02  0.53220088003E+02  0.32467261815E+03  0.34202317351E+03  0.92598807709E+02 0.  0.
         23    2    1    2    0    0 -0.23261226343E+02 -0.72776841456E+02  0.33074110914E+03  0.35353090034E+03  0.98776833907E+02 0.  0.
        -11    1    3    3    0    0 -0.36299189750E+02  0.10927569736E+02  0.74141394554E+02  0.83270579097E+02  0.00000000000E+00 0. -1.
         11    1    3    3    0    0  0.48972992704E+02  0.42292518266E+02  0.25053122360E+03  0.25875259441E+03  0.00000000000E+00 0.  1.
        -13    1    4    4    0    0  0.32973598958E+02 -0.53343094088E+02  0.13320402917E+03  0.14722790939E+03  0.00000000000E+00 0.  1.
         13    1    4    4    0    0 -0.56234825301E+02 -0.19433747368E+02  0.19753707997E+03  0.20630299095E+03  0.00000000000E+00 0. -1.
         -1    1    1    2    0  502  0.10587423389E+02  0.19556753453E+02  0.17648856766E+02  0.28390883833E+02  0.00000000000E+00 0.  1.
<scales pt_clust_5="13000.00000" pt_clust_6="13000.00000" pt_clust_7="13000.00000" pt_clust_8="13000.00000" pt_clust_9="22.23871"></scales>
<clustering>
<clus scale="   22.239">  2  9  1 -1</clus>
<clus scale="   92.599">  5  6 -1 -1</clus>
<clus scale="   98.777">  7  8 -1 -1</clus>
<clus scale="  112.587">  1  5  2 -1</clus>
<clus scale="   22.239">  2  5  1 -1</clus>
</clustering>
</event>
<event>
 9    1  0.1399746E-005  0.1133150E+03  0.7546771E-02  0.1261304E+00
         21   -1    0    0  501  502  0.00000000000E+00  0.00000000000E+00  0.79453533940E+02  0.79453533940E+02  0.00000000000E+00 0.  1.
         -4   -1    0    0    0  501 -0.00000000000E+00 -0.00000000000E+00 -0.26628069058E+03  0.26628069058E+03  0.00000000000E+00 0.  1.
         23    2    1    2    0    0 -0.31978957401E+02  0.25601926380E+02 -0.17604826740E+03  0.20949257026E+03  0.10590577033E+03 0.  0.
         23    2    1    2    0    0  0.14340514693E+02 -0.40582955191E+02  0.15172217830E+02  0.10147089293E+03  0.90628468508E+02 0.  0.
        -13    1    3    3    0    0 -0.97786195804E+01 -0.41610409506E+02 -0.64181675975E+02  0.77112483497E+02  0.00000000000E+00 0.  1.
         13    1    3    3    0    0 -0.22200337821E+02  0.67212335885E+02 -0.11186659142E+03  0.13238008676E+03  0.00000000000E+00 0. -1.
        -13    1    4    4    0    0  0.31722086688E+02  0.19464900396E+02  0.11043454021E+02  0.38821785224E+02  0.00000000000E+00 0. -1.
         13    1    4    4    0    0 -0.17381571995E+02 -0.60047855587E+02  0.41287638089E+01  0.62649107705E+02  0.00000000000E+00 0.  1.
         -4    1    1    2    0  502  0.17638442708E+02  0.14981028812E+02 -0.25951107073E+02  0.34770761334E+02  0.00000000000E+00 0.  1.
<scales pt_clust_5="13000.00000" pt_clust_6="13000.00000" pt_clust_7="13000.00000" pt_clust_8="13000.00000" pt_clust_9="23.14188"></scales>
<clustering>
<clus scale="   23.142">  1  9  2 -1</clus>
<clus scale="   90.628">  7  8 -1 -1</clus>
<clus scale="   99.186">  1  7  2 -1</clus>
<clus scale="  105.906">  5  6 -1 -1</clus>
<clus scale="   23.142">  1  5  2 -1</clus>
</clustering>
</event>
<event>
 9    1  0.1399746E-005  0.9889347E+02  0.7546771E-02  0.1283098E+00
         21   -1    0    0  501  502  0.00000000000E+00  0.00000000000E+00  0.17660270449E+03  0.17660270449E+03  0.00000000000E+00 0. -1.
          2   -1    0    0  502    0 -0.00000000000E+00 -0.00000000000E+00 -0.14147098162E+03  0.14147098162E+03  0.00000000000E+00 0. -1.
         23    2    1    2    0    0 -0.15338333748E+02  0.41737635194E+02 -0.52776017366E+02  0.11608665563E+03  0.93346177926E+02 0.  0.
         23    2    1    2    0    0 -0.73615844413E+00 -0.18669264376E+02 -0.14832037794E+02  0.95469421512E+02  0.92440995977E+02 0.  0.
        -11    1    3    3    0    0 -0.51333728351E+02  0.43872228809E+01 -0.26762889435E+02  0.58057313423E+02  0.00000000000E+00 0. -1.
         11    1    3    3    0    0  0.35995394603E+02  0.37350412313E+02 -0.26013127931E+02  0.58029342210E+02  0.00000000000E+00 0.  1.
        -13    1    4    4    0    0  0.31829256769E+02 -0.39553809049E+02  0.66738121723E+01  0.51206885920E+02  0.00000000000E+00 0.  1.
         13    1    4    4    0    0 -0.32565415213E+02  0.20884544673E+02 -0.21505849966E+02  0.44262535592E+02  0.00000000000E+00 0. -1.
          2    1    1    2  501    0  0.16074492192E+02 -0.23068370818E+02  0.10273977803E+03  0.10651760897E+03  0.00000000000E+00 0. -1.
<scales pt_clust_5="13000.00000" pt_clust_6="13000.00000" pt_clust_7="13000.00000" pt_clust_8="13000.00000" pt_clust_9="28.11653"></scales>
<clustering>
<clus scale="   28.117">  1  9  2 -1</clus>
<clus scale="   92.441">  7  8 -1 -1</clus>
<clus scale="   93.346">  5  6 -1 -1</clus>
<clus scale="   98.040">  1  7  2 -1</clus>
<clus scale="   28.117">  1  5  2 -1</clus>
</clustering>
</event>
<event>
 9    1  0.1399746E-005  0.1756990E+03  0.7546771E-02  0.1172445E+00
          1   -1    0    0  502    0 -0.00000000000E+00  0.00000000000E+00  0.80766084630E+03  0.80766084630E+03  0.00000000000E+00 0. -1.
         21   -1    0    0  501  502  0.00000000000E+00 -0.00000000000E+00 -0.65611838168E+02  0.65611838168E+02  0.00000000000E+00 0.  1.
         23    2    1    2    0    0 -0.15547344973E+03  0.38915668587E+01  0.54282527592E+03  0.57242403591E+03  0.93930074263E+02 0.  0.
         23    2    1    2    0    0  0.13510787448E+03 -0.13361601214E+02  0.21742219855E+03  0.27194151479E+03  0.90813572264E+02 0.  0.
        -11    1    4    4    0    0  0.13471724413E+03  0.13048773643E+02  0.16646101953E+03  0.21454201776E+03  0.00000000000E+00 0.  1.
         11    1    4    4    0    0  0.39063035115E+00 -0.26410374857E+02  0.50961179020E+02  0.57399497030E+02  0.00000000000E+00 0. -1.
        -13    1    3    3    0    0 -0.65709635220E+02  0.38654724763E+02  0.15368447043E+03  0.17155424903E+03  0.00000000000E+00 0.  1.
         13    1    3    3    0    0 -0.89763814507E+02 -0.34763157905E+02  0.38914080549E+03  0.40086978688E+03  0.00000000000E+00 0. -1.
          1    1    1    2  501    0  0.20365575248E+02  0.94700343553E+01 -0.18198466338E+02  0.28907133772E+02  0.00000000000E+00 0. -1.
<scales pt_clust_5="13000.00000" pt_clust_6="13000.00000" pt_clust_7="13000.00000" pt_clust_8="13000.00000" pt_clust_9="22.45970"></scales>
<clustering>
<clus scale="   22.460">  2  9  1 -1</clus>
<clus scale="   90.814">  5  6 -1 -1</clus>
<clus scale="   93.930">  7  8 -1 -1</clus>
<clus scale="  174.053">  2  5  1 -1</clus>
<clus scale="   22.460">  2  5  1 -1</clus>
</clustering>
</event>
<event>
 9    1  0.1399746E-005  0.1350816E+03  0.7546771E-02  0.1220206E+00
          1   -1    0    0  502    0 -0.00000000000E+00  0.00000000000E+00  0.40506622646E+03  0.40506622646E+03  0.00000000000E+00 0. -1.
         21   -1    0    0  501  502  0.00000000000E+00 -0.00000000000E+00 -0.13357778287E+03  0.13357778287E+03  0.00000000000E+00 0.  1.
         23    2    1    2    0    0 -0.57028530879E+02 -0.83624411068E+02  0.33296480710E+03  0.35940438530E+03  0.89781144687E+02 0.  0.
         23    2    1    2    0    0  0.33303458234E+02  0.91657536215E+02 -0.73094023628E+02  0.15162839084E+03  0.90212018848E+02 0.  0.
        -13    1    4    4    0    0 -0.10688488767E+02  0.50162261580E+02  0.64652759520E+01  0.51694255697E+02  0.00000000000E+00 0. -1.
         13    1    4    4    0    0  0.43991947001E+02  0.41495274635E+02 -0.79559299580E+02  0.99934135148E+02  0.00000000000E+00 0.  1.
        -13    1    3    3    0    0  0.47970061526E+01 -0.36193973558E+02  0.32108766695E+02  0.48620858576E+02  0.00000000000E+00 0.  1.
         13    1    3    3    0    0 -0.61825537032E+02 -0.47430437509E+02  0.30085604041E+03  0.31078352672E+03  0.00000000000E+00 0. -1.
          1    1    1    2  501    0  0.23725072645E+02 -0.80331251479E+01  0.11617660119E+02  0.27611233191E+02  0.00000000000E+00 0. -1.
<scales pt_clust_5="13000.00000" pt_clust_6="13000.00000" pt_clust_7="13000.00000" pt_clust_8="13000.00000" pt_clust_9="25.04816"></scales>
<clustering>
<clus scale="   25.048">  2  9  1 -1</clus>
<clus scale="   89.781">  7  8 -1 -1</clus>
<clus scale="   90.212">  5  6 -1 -1</clus>
<clus scale="  134.794">  1  7  2 -1</clus>
<clus scale="   25.048">  2  5  1 -1</clus>
</clustering>
</event>
<event>
 9    1  0.1399746E-005  0.1087410E+03  0.7546771E-02  0.1264942E+00
         21   -1    0    0  501  502  0.00000000000E+00  0.00000000000E+00  0.18075541188E+03  0.18075541188E+03  0.00000000000E+00 0. -1.
          3   -1    0    0  502    0 -0.00000000000E+00 -0.00000000000E+00 -0.60976073802E+03  0.60976073802E+03  0.00000000000E+00 0. -1.
         23    2    1    2    0    0 -0.37469224167E+02 -0.51378397702E+02 -0.48123726019E+03  0.49451391035E+03  0.94398222546E+02 0.  0.
         23    2    1    2    0    0  0.49822318797E+01  0.29271718283E+02 -0.10078022596E+03  0.13802492771E+03  0.89512963298E+02 0.  0.
        -11    1    4    4    0    0  0.27887717138E+02 -0.15944298673E+01 -0.95165447524E+02  0.99180287236E+02  0.00000000000E+00 0.  1.
         11    1    4    4    0    0 -0.22905485258E+02  0.30866148151E+02 -0.56147784377E+01  0.38844640473E+02  0.00000000000E+00 0. -1.
        -13    1    3    3    0    0 -0.65239137532E+02 -0.18312550680E+02 -0.34521710864E+03  0.35180441537E+03  0.00000000000E+00 0. -1.
         13    1    3    3    0    0  0.27769913365E+02 -0.33065847021E+02 -0.13602015156E+03  0.14270949498E+03  0.00000000000E+00 0.  1.
          3    1    1    2  501    0  0.32486992288E+02  0.22106679418E+02  0.15301216002E+03  0.15797731184E+03  0.00000000000E+00 0. -1.
<scales pt_clust_5="13000.00000" pt_clust_6="13000.00000" pt_clust_7="13000.00000" pt_clust_8="13000.00000" pt_clust_9="39.29516"></scales>
<clustering>
<clus scale="   39.295">  1  9  2 -1</clus>
<clus scale="   89.513">  5  6 -1 -1</clus>
<clus scale="   94.398">  7  8 -1 -1</clus>
<clus scale="  104.528">  1  5  2 -1</clus>
<clus scale="   39.295">  1  5  2 -1</clus>
</clustering>
</event>
<event>
 9    1  0.1399746E-005  0.2892741E+03  0.7546771E-02  0.1090839E+00
         21   -1    0    0  501  502  0.00000000000E+00  0.00000000000E+00  0.11213758843E+04  0.11213758843E+04  0.00000000000E+00 0. -1.
          3   -1    0    0  502    0 -0.00000000000E+00 -0.00000000000E+00 -0.13831956944E+03  0.13831956944E+03  0.00000000000E+00 0. -1.
         23    2    1    2    0    0 -0.17935050842E+03  0.20428325899E+03  0.92757076131E+02  0.30072041757E+03  0.89054138590E+02 0.  0.
         23    2    1    2    0    0  0.21261144106E+03 -0.18921518655E+03  0.64468264169E+03  0.71065900932E+03  0.91730623759E+02 0.  0.
        -11    1    3    3    0    0 -0.37920808562E+02  0.98972696415E+00  0.18315223605E+02  0.42123802026E+02  0.00000000000E+00 0.  1.
         11    1    3    3    0    0 -0.14142969985E+03  0.20329353203E+03  0.74441852526E+02  0.25859661555E+03  0.00000000000E+00 0. -1.
        -13    1    4    4    0    0 -0.14645574776E+01 -0.28081672951E+02  0.96243140871E+02  0.10026698085E+03  0.00000000000E+00 0.  1.
         13    1    4    4    0    0  0.21407599854E+03 -0.16113351360E+03  0.54843950082E+03  0.61039202847E+03  0.00000000000E+00 0. -1.
          3    1    1    2  501    0 -0.33260932649E+02 -0.15068072438E+02  0.24561659706E+03  0.24831602687E+03  0.00000000000E+00 0. -1.
<scales pt_clust_5="13000.00000" pt_clust_6="13000.00000" pt_clust_7="13000.00000" pt_clust_8="13000.00000" pt_clust_9="36.51488"></scales>
<clustering>
<clus scale="   36.515">  1  9  2 -1</clus>
<clus scale="   89.054">  5  6 -1 -1</clus>
<clus scale="   91.731">  7  8 -1 -1</clus>
<clus scale="  288.436">  2  5  1 -1</clus>
<clus scale="   36.515">  1  5  2 -1</clus>
</clustering>
</event>
<event>
 9    1  0.1399746E-005  0.9216871E+02  0.7546771E-02  0.1298484E+00
          2   -1    0    0  502    0 -0.00000000000E+00  0.00000000000E+00  0.12128508931E+03  0.12128508931E+03  0.00000000000E+00 0. -1.
         21   -1    0    0  501  502  0.00000000000E+00 -0.00000000000E+00 -0.12906246008E+03  0.12906246008E+03  0.00000000000E+00 0. -1.
         23    2    1    2    0    0  0.13094641351E+02 -0.30370021983E+00  0.39885517063E+02  0.98665663480E+02  0.89288839239E+02 0.  0.
         23    2    1    2    0    0 -0.38723598030E+02  0.33756004827E+02 -0.35607693848E+02  0.10785007320E+03  0.87890531464E+02 0.  0.
        -11    1    3    3    0    0 -0.22557836641E+02  0.10625251954E+02  0.53454098927E+02  0.58983833931E+02  0.00000000000E+00 0. -1.
         11    1    3    3    0    0  0.35652477992E+02 -0.10928952174E+02 -0.13568581865E+02  0.39681829550E+02  0.00000000000E+00 0.  1.
        -13    1    4    4    0    0 -0.25232480564E+02  0.52088555169E+02  0.82250297304E+01  0.58459787625E+02  0.00000000000E+00 0. -1.
         13    1    4    4    0    0 -0.13491117465E+02 -0.18332550342E+02 -0.43832723579E+02  0.49390285572E+02  0.00000000000E+00 0.  1.
          2    1    1    2  501    0  0.25628956679E+02 -0.33452304608E+02 -0.12055193989E+02  0.43831812718E+02  0.00000000000E+00 0. -1.
<scales pt_clust_5="13000.00000" pt_clust_6="13000.00000" pt_clust_7="13000.00000" pt_clust_8="13000.00000" pt_clust_9="42.14143"></scales>
<clustering>
<clus scale="   42.141">  2  9  1 -1</clus>
<clus scale="   87.891">  7  8 -1 -1</clus>
<clus scale="   89.289">  5  6 -1 -1</clus>
<clus scale="   90.815">  2  7  1 -1</clus>
<clus scale="   42.141">  2  5  1 -1</clus>
</clustering>
</event>
<event>
 9    1  0.1399746E-005  0.1307141E+03  0.7546771E-02  0.1226474E+00
         -1   -1    0    0    0  501 -0.00000000000E+00  0.00000000000E+00  0.20685847981E+03  0.20685847981E+03  0.00000000000E+00 0.  1.
         21   -1    0    0  501  502  0.00000000000E+00 -0.00000000000E+00 -0.29300669155E+03  0.29300669155E+03  0.00000000000E+00 0.  1.
         23    2    1    2    0    0 -0.62792194052E+02  0.58241637399E+02  0.87539645625E+02  0.15260592090E+03  0.91051796120E+02 0.  0.
         23    2    1    2    0    0  0.15708687546E+03  0.15001061480E+01 -0.68648790192E+02  0.19398247957E+03  0.90763479579E+02 0.  0.
        -11    1    3    3    0    0  0.23887448813E+02  0.11724293493E+02  0.19736329786E+02  0.33129925779E+02  0.00000000000E+00 0.  1.
         11    1    3    3    0    0 -0.86679642865E+02  0.46517343906E+02  0.67803315840E+02  0.11947599512E+03  0.00000000000E+00 0. -1.
        -13    1    4    4    0    0  0.99448562338E+02  0.40423045343E+02 -0.20232985178E+02  0.10924016127E+03  0.00000000000E+00 0.  1.
         13    1    4    4    0    0  0.57638313123E+02 -0.38922939195E+02 -0.48415805014E+02  0.84742318298E+02  0.00000000000E+00 0. -1.
         -1    1    1    2    0  502 -0.94294681409E+02 -0.59741743547E+02 -0.10503906717E+03  0.15327677090E+03  0.00000000000E+00 0.  1.
<scales pt_clust_5="13000.00000" pt_clust_6="13000.00000" pt_clust_7="13000.00000" pt_clust_8="13000.00000" pt_clust_9="111.62689"></scales>
<clustering>
<clus scale="   90.763">  7  8 -1 -1</clus>
<clus scale="   91.052">  5  6 -1 -1</clus>
<clus scale="  111.627">  2  9  1 -1</clus>
<clus scale="  130.513">  2  7  1 -1</clus>
<clus scale="  111.627">  2  5  1 -1</clus>
</clustering>
</event>
<event>
 9    1  0.1399746E-005  0.1091745E+03  0.7546771E-02  0.1263242E+00
         21   -1    0    0  501  502  0.00000000000E+00  0.00000000000E+00  0.12873664215E+03  0.12873664215E+03  0.00000000000E+00 0.  1.
          2   -1    0    0  502    0 -0.00000000000E+00 -0.00000000000E+00 -0.13192566581E+03  0.13192566581E+03  0.00000000000E+00 0. -1.
         23    2    1    2    0    0  0.65923713638E+02 -0.33870528146E+02 -0.22652316757E+02  0.11862066302E+03  0.89803037502E+02 0.  0.
         23    2    1    2    0    0 -0.52439732635E+02  0.23521416246E+01 -0.21419671014E+01  0.10151987670E+03  0.86869092390E+02 0.  0.
        -13    1    3    3    0    0  0.48144698289E+02 -0.54148011425E+02 -0.43520165142E+02  0.84521736190E+02  0.00000000000E+00 0.  1.
         13    1    3    3    0    0  0.17779015348E+02  0.20277483279E+02  0.20867848385E+02  0.34098926832E+02  0.00000000000E+00 0. -1.
        -13    1    4    4    0    0 -0.22069276112E+02 -0.39554414283E+02  0.13826449732E+02  0.47357949170E+02  0.00000000000E+00 0.  1.
         13    1    4    4    0    0 -0.30370456523E+02  0.41906555908E+02 -0.15968416833E+02  0.54161927529E+02  0.00000000000E+00 0. -1.
          2    1    1    2  501    0 -0.13483981003E+02  0.31518386521E+02  0.21605260197E+02  0.40521768234E+02  0.00000000000E+00 0. -1.
<scales pt_clust_5="13000.00000" pt_clust_6="13000.00000" pt_clust_7="13000.00000" pt_clust_8="13000.00000" pt_clust_9="34.28158"></scales>
<clustering>
<clus scale="   34.282">  1  9  2 -1</clus>
<clus scale="   86.869">  7  8 -1 -1</clus>
<clus scale="   89.803">  5  6 -1 -1</clus>
<clus scale="  106.774">  1  7  2 -1</clus>
<clus scale="   34.282">  1  5  2 -1</clus>
</clustering>
</event>
<event>
 9    1  0.1399746E-005  0.1209648E+03  0.7546771E-02  0.1242296E+00
         -1   -1    0    0    0  501 -0.00000000000E+00  0.00000000000E+00  0.29745616911E+03  0.29745616911E+03  0.00000000000E+00 0.  1.
         21   -1    0    0  501  502  0.00000000000E+00 -0.00000000000E+00 -0.86536940695E+02  0.86536940695E+02  0.00000000000E+00 0.  1.
         23    2    1    2    0    0  0.64639904968E+02  0.61294790603E+02  0.20834298842E+03  0.24410455190E+03  0.90801226664E+02 0.  0.
         23    2    1    2    0    0 -0.45338707269E+02 -0.31611253820E+02  0.60695421776E+01  0.10430974752E+03  0.88254259614E+02 0.  0.
        -11    1    3    3    0    0  0.27406098383E+02  0.71400052952E+02  0.18192208394E+03  0.19734413195E+03  0.00000000000E+00 0.  1.
         11    1    3    3    0    0  0.37233806585E+02 -0.10105262349E+02  0.26420904476E+02  0.46760419944E+02  0.00000000000E+00 0. -1.
        -13    1    4    4    0    0 -0.65937844585E+02 -0.25159857093E+02  0.25723701066E+02  0.75116752818E+02  0.00000000000E+00 0.  1.
         13    1    4    4    0    0  0.20599137316E+02 -0.64513967265E+01 -0.19654158888E+02  0.29192994699E+02  0.00000000000E+00 0. -1.
         -1    1    1    2    0  502 -0.19301197699E+02 -0.29683536783E+02 -0.34933021838E+01  0.35578810389E+02  0.00000000000E+00 0.  1.
<scales pt_clust_5="13000.00000" pt_clust_6="13000.00000" pt_clust_7="13000.00000" pt_clust_8="13000.00000" pt_clust_9="35.40690"></scales>
<clustering>
<clus scale="   35.407">  2  9  1 -1</clus>
<clus scale="   88.254">  7  8 -1 -1</clus>
<clus scale="   90.801">  5  6 -1 -1</clus>
<clus scale="  119.065">  2  7  1 -1</clus>
<clus scale="   35.407">  2  5  1 -1</clus>
</clustering>
</event>
<event>
 9    1  0.1399746E-005  0.1095557E+03  0.7546771E-02  0.1262547E+00
         21   -1    0    0  501  502  0.00000000000E+00  0.00000000000E+00  0.50672064622E+02  0.50672064622E+02  0.00000000000E+00 0.  1.
         -1   -1    0    0    0  501 -0.00000000000E+00 -0.00000000000E+00 -0.51686227307E+03  0.51686227307E+03  0.00000000000E+00 0.  1.
         23    2    1    2    0    0  0.37700146255E+02  0.19321404742E+02 -0.19298804792E+03  0.21794576615E+03  0.91985611029E+02 0.  0.
         23    2    1    2    0    0 -0.96609334313E+02 -0.39093033528E+02 -0.11266408478E+03  0.17744420333E+03  0.89059646007E+02 0.  0.
        -11    1    3    3    0    0 -0.17254895458E+02  0.14978463710E+02 -0.69062206859E+01  0.23870100053E+02  0.00000000000E+00 0.  1.
         11    1    3    3    0    0  0.54955041713E+02  0.43429410315E+01 -0.18608182723E+03  0.19407566610E+03  0.00000000000E+00 0. -1.
        -13    1    4    4    0    0 -0.73135089863E+02  0.17952895555E+02 -0.65213740759E+02  0.99618672004E+02  0.00000000000E+00 0.  1.
         13    1    4    4    0    0 -0.23474244450E+02 -0.57045929083E+02 -0.47450344024E+02  0.77825531322E+02  0.00000000000E+00 0. -1.
         -1    1    1    2    0  502  0.58909188058E+02  0.19771628786E+02 -0.16053807575E+03  0.17214436822E+03  0.00000000000E+00 0.  1.
<scales pt_clust_5="13000.00000" pt_clust_6="13000.00000" pt_clust_7="13000.00000" pt_clust_8="13000.00000" pt_clust_9="62.13866"></scales>
<clustering>
<clus scale="   62.139">  1  9  2 -1</clus>
<clus scale="   89.060">  7  8 -1 -1</clus>
<clus scale="   91.986">  5  6 -1 -1</clus>
<clus scale="  107.111">  1  7  2 -1</clus>
<clus scale="   62.139">  1  5  2 -1</clus>
</clustering>
</event>
<event>
 9    1  0.1399746E-005  0.1032986E+03  0.7546771E-02  0.1273899E+00
          2   -1    0    0  502    0 -0.00000000000E+00  0.00000000000E+00  0.16607459725E+03  0.16607459725E+03  0.00000000000E+00 0. -1.
         21   -1    0    0  501  502  0.00000000000E+00 -0.00000000000E+00 -0.98203317510E+02  0.98203317510E+02  0.00000000000E+00 0.  1.
         23    2    1    2    0    0  0.46826755689E+02 -0.45196665753E+01  0.87435859492E+02  0.13513749119E+03  0.91673003466E+02 0.  0.
         23    2    1    2    0    0 -0.49524435013E+02 -0.17955652016E+02 -0.17262771582E+02  0.10638705590E+03  0.90802683212E+02 0.  0.
        -11    1    3    3    0    0  0.43720397658E+02 -0.41316501921E+02  0.75062302049E+02  0.96191869154E+02  0.00000000000E+00 0.  1.
         11    1    3    3    0    0  0.31063580314E+01  0.36796835345E+02  0.12373557443E+02  0.38945622032E+02  0.00000000000E+00 0. -1.
        -13    1    4    4    0    0 -0.37765099783E+02 -0.37410863935E+02 -0.45615041212E+02  0.70046466626E+02  0.00000000000E+00 0.  1.
         13    1    4    4    0    0 -0.11759335231E+02  0.19455211919E+02  0.28352269630E+02  0.36340589278E+02  0.00000000000E+00 0. -1.
          2    1    1    2  501    0  0.26976793241E+01  0.22475318591E+02 -0.23018081702E+01  0.22753367671E+02  0.00000000000E+00 0. -1.
<scales pt_clust_5="13000.00000" pt_clust_6="13000.00000" pt_clust_7="13000.00000" pt_clust_8="13000.00000" pt_clust_9="22.63664"></scales>
<clustering>
<clus scale="   22.637">  2  9  1 -1</clus>
<clus scale="   90.803">  7  8 -1 -1</clus>
<clus scale="   91.673">  5  6 -1 -1</clus>
<clus scale="  102.527">  2  7  1 -1</clus>
<clus scale="   22.637">  2  5  1 -1</clus>
</clustering>
</event>
<event>
 9    1  0.1399746E-005  0.1383966E+03  0.7546771E-02  0.1234091E+00
          2   -1    0    0  502    0 -0.00000000000E+00  0.00000000000E+00  0.91605648529E+02  0.91605648529E+02  0.00000000000E+00 0. -1.
         21   -1    0    0  501  502  0.00000000000E+00 -0.00000000000E+00 -0.39870917639E+03  0.39870917639E+03  0.00000000000E+00 0. -1.
         23    2    1    2    0    0 -0.66387928517E+01  0.65677312974E+01  0.40938876009E+01  0.94055887669E+02  0.93501558407E+02 0.  0.
         23    2    1    2    0    0  0.86720189846E+02 -0.69834779257E+02 -0.16939908035E+03  0.22155199021E+03  0.89397696967E+02 0.  0.
        -11    1    3    3    0    0  0.36764590686E+02 -0.20211004568E+02 -0.50041534861E+01  0.42251170233E+02  0.00000000000E+00 0. -1.
         11    1    3    3    0    0 -0.43403383537E+02  0.26778735865E+02  0.90980410870E+01  0.51804717436E+02  0.00000000000E+00 0.  1.
        -13    1    4    4    0    0  0.18615368692E+01 -0.23644707039E+02  0.30193742755E+01  0.23909289230E+02  0.00000000000E+00 0.  1.
         13    1    4    4    0    0  0.84858652977E+02 -0.46190072218E+02 -0.17241845462E+03  0.19764270098E+03  0.00000000000E+00 0. -1.
          2    1    1    2  501    0 -0.80081396994E+02  0.63267047960E+02 -0.14179833511E+03  0.17470694704E+03  0.00000000000E+00 0. -1.
<scales pt_clust_5="13000.00000" pt_clust_6="13000.00000" pt_clust_7="13000.00000" pt_clust_8="13000.00000" pt_clust_9="105.64886"></scales>
<clustering>
<clus scale="   89.398">  7  8 -1 -1</clus>
<clus scale="   93.502">  5  6 -1 -1</clus>
<clus scale="   93.967">  1  5  2 -1</clus>
<clus scale="  105.649">  2  9  1 -1</clus>
<clus scale="  105.649">  2  5  1 -1</clus>
</clustering>
</event>
<event>
 9    1  0.1399746E-005  0.1241134E+03  0.7546771E-02  0.1237646E+00
         21   -1    0    0  501  502  0.00000000000E+00  0.00000000000E+00  0.20254098362E+03  0.20254098362E+03  0.00000000000E+00 0.  1.
         -1   -1    0    0    0  501 -0.00000000000E+00 -0.00000000000E+00 -0.25643751022E+03  0.25643751022E+03  0.00000000000E+00 0.  1.
         23    2    1    2    0    0 -0.59619834493E+02  0.29825200279E+02 -0.71835793257E+02  0.13345721405E+03  0.90589069714E+02 0.  0.
         23    2    1    2    0    0  0.17047103546E+02 -0.12915448371E+03 -0.79946716219E+02  0.17971178213E+03  0.94516468398E+02 0.  0.
        -13    1    3    3    0    0  0.11192696947E+02  0.37110920611E+02 -0.12330901436E+02  0.40676135801E+02  0.00000000000E+00 0.  1.
         13    1    3    3    0    0 -0.70812531440E+02 -0.72857203318E+01 -0.59504891821E+02  0.92781078245E+02  0.00000000000E+00 0. -1.
        -13    1    4    4    0    0  0.46316181082E+02 -0.24917196850E+02 -0.28939761250E+02  0.60029701899E+02  0.00000000000E+00 0. -1.
         13    1    4    4    0    0 -0.29269077536E+02 -0.10423728686E+03 -0.51006954969E+02  0.11968208023E+03  0.00000000000E+00 0.  1.
         -1    1    1    2    0  502  0.42572730947E+02  0.99329283434E+02  0.97885982871E+02  0.14580949767E+03  0.00000000000E+00 0.  1.
<scales pt_clust_5="13000.00000" pt_clust_6="13000.00000" pt_clust_7="13000.00000" pt_clust_8="13000.00000" pt_clust_9="108.06824"></scales>
<clustering>
<clus scale="   90.589">  5  6 -1 -1</clus>
<clus scale="   94.516">  7  8 -1 -1</clus>
<clus scale="  108.068">  1  9  2 -1</clus>
<clus scale="  121.149">  2  5  1 -1</clus>
<clus scale="  108.068">  1  5  2 -1</clus>
</clustering>
</event>
<event>
 9    1  0.1399746E-005  0.8987169E+02  0.7546771E-02  0.1303196E+00
         -1   -1    0    0    0  501 -0.00000000000E+00  0.00000000000E+00  0.54840314581E+02  0.54840314581E+02  0.00000000000E+00 0.  1.
         21   -1    0    0  501  502  0.00000000000E+00 -0.00000000000E+00 -0.23970746105E+03  0.23970746105E+03  0.00000000000E+00 0. -1.
         23    2    1    2    0    0 -0.10040688457E+02  0.98645597432E+01 -0.65944290960E+02  0.11002477785E+03  0.86940653711E+02 0.  0.
         23    2    1    2    0    0 -0.52401241665E+01 -0.41225054023E+02 -0.11408724097E+03  0.14930415334E+03  0.86884219919E+02 0.  0.
        -11    1    4    4    0    0  0.30872014679E+02 -0.10960374806E+02 -0.87484877536E+01  0.33907921555E+02  0.00000000000E+00 0.  1.
         11    1    4    4    0    0 -0.36112138845E+02 -0.30264679217E+02 -0.10533875322E+03  0.11539623178E+03  0.00000000000E+00 0. -1.
        -13    1    3    3    0    0 -0.19224588144E+02  0.45936505216E+02 -0.46017687277E+02  0.67803944156E+02  0.00000000000E+00 0.  1.
         13    1    3    3    0    0  0.91838996870E+01 -0.36071945473E+02 -0.19926603683E+02  0.42220833697E+02  0.00000000000E+00 0. -1.
         -1    1    1    2    0  502  0.15280812624E+02  0.31360494280E+02 -0.48356145411E+01  0.35218844443E+02  0.00000000000E+00 0.  1.
<scales pt_clust_5="13000.00000" pt_clust_6="13000.00000" pt_clust_7="13000.00000" pt_clust_8="13000.00000" pt_clust_9="34.88531"></scales>
<clustering>
<clus scale="   34.885">  2  9  1 -1</clus>
<clus scale="   86.884">  5  6 -1 -1</clus>
<clus scale="   86.941">  7  8 -1 -1</clus>
<clus scale="   89.817">  2  5  1 -1</clus>
<clus scale="   34.885">  2  5  1 -1</clus>
</clustering>
</event>
<event>
 9    1  0.1399746E-005  0.1033221E+03  0.7546771E-02  0.1274410E+00
         21   -1    0    0  501  502  0.00000000000E+00  0.00000000000E+00  0.19467629261E+03  0.19467629261E+03  0.00000000000E+00 0.  1.
         -1   -1    0    0    0  501 -0.00000000000E+00 -0.00000000000E+00 -0.74965511457E+02  0.74965511457E+02  0.00000000000E+00 0.  1.
         23    2    1    2    0    0  0.33643893563E+02  0.19460602653E+02  0.29420115489E+02  0.10372850713E+03  0.91561090899E+02 0.  0.
         23    2    1    2    0    0 -0.44185284244E+02 -0.40188279030E+02  0.48279463059E+02  0.11789560614E+03  0.89448478342E+02 0.  0.
        -11    1    3    3    0    0  0.29651286646E+02 -0.33136134302E+02  0.25700210971E+01  0.44539950659E+02  0.00000000000E+00 0.  1.
         11    1    3    3    0    0  0.39926069171E+01  0.52596736956E+02  0.26850094392E+02  0.59188556472E+02  0.00000000000E+00 0. -1.
        -13    1    4    4    0    0 -0.68950885864E+02 -0.44989085653E+02  0.36887938524E+02  0.90216198645E+02  0.00000000000E+00 0.  1.
         13    1    4    4    0    0  0.24765601620E+02  0.48008066224E+01  0.11391524535E+02  0.27679407492E+02  0.00000000000E+00 0. -1.
         -1    1    1    2    0  502  0.10541390681E+02  0.20727676377E+02  0.42011202608E+02  0.48017690802E+02  0.00000000000E+00 0.  1.
<scales pt_clust_5="13000.00000" pt_clust_6="13000.00000" pt_clust_7="13000.00000" pt_clust_8="13000.00000" pt_clust_9="23.25419"></scales>
<clustering>
<clus scale="   23.254">  1  9  2 -1</clus>
<clus scale="   89.448">  7  8 -1 -1</clus>
<clus scale="   91.561">  5  6 -1 -1</clus>
<clus scale="  101.455">  1  7  2 -1</clus>
<clus scale="   23.254">  1  5  2 -1</clus>
</clustering>
</event>
<event>
 9    1  0.1399746E-005  0.1517986E+03  0.7546771E-02  0.1202435E+00
         21   -1    0    0  501  502  0.00000000000E+00  0.00000000000E+00  0.68925004408E+02  0.68925004408E+02  0.00000000000E+00 0.  1.
          1   -1    0    0  502    0 -0.00000000000E+00 -0.00000000000E+00 -0.53717812015E+03  0.53717812015E+03  0.00000000000E+00 0. -1.
         23    2    1    2    0    0 -0.58819378107E+02 -0.83800311939E+02 -0.32866948830E+03  0.36160241103E+03  0.11068179437E+03 0.  0.
         23    2    1    2    0    0  0.79315113119E+02  0.73070913884E+02 -0.15994484896E+03  0.21368230218E+03  0.91910423403E+02 0.  0.
        -13    1    3    3    0    0  0.65445464337E+01 -0.85049005253E+02 -0.19247450304E+03  0.21052932979E+03  0.00000000000E+00 0.  1.
         13    1    3    3    0    0 -0.65363924541E+02  0.12486933146E+01 -0.13619498526E+03  0.15107308124E+03  0.00000000000E+00 0. -1.
        -13    1    4    4    0    0  0.28097585545E+02 -0.95112877897E+01 -0.39914975285E+01  0.29931103578E+02  0.00000000000E+00 0.  1.
         13    1    4    4    0    0  0.51217527574E+02  0.82582201673E+02 -0.15595335143E+03  0.18375119860E+03  0.00000000000E+00 0. -1.
          1    1    1    2  501    0 -0.20495735012E+02  0.10729398055E+02  0.20361221516E+02  0.30818411346E+02  0.00000000000E+00 0. -1.
<scales pt_clust_5="13000.00000" pt_clust_6="13000.00000" pt_clust_7="13000.00000" pt_clust_8="13000.00000" pt_clust_9="23.13428"></scales>
<clustering>
<clus scale="   23.134">  1  9  2 -1</clus>
<clus scale="   91.910">  7  8 -1 -1</clus>
<clus scale="  110.682">  5  6 -1 -1</clus>
<clus scale="  138.708">  1  7  2 -1</clus>
<clus scale="   23.134">  1  5  2 -1</clus>
</clustering>
</event>
<event>
 9    1  0.1399746E-005  0.1159599E+03  0.7546771E-02  0.1250530E+00
         -1   -1    0    0    0  501 -0.00000000000E+00  0.00000000000E+00  0.10151332256E+03  0.10151332256E+03  0.00000000000E+00 0.  1.
         21   -1    0    0  501  502  0.00000000000E+00 -0.00000000000E+00 -0.23949267960E+03  0.23949267960E+03  0.00000000000E+00 0.  1.
         23    2    1    2    0    0  0.55371159382E+02  0.46089588326E+02  0.19912993035E+02  0.11728125864E+03  0.90377823015E+02 0.  0.
         23    2    1    2    0    0 -0.69064161788E+02 -0.17795382765E+02 -0.84693270108E+02  0.14406191849E+03  0.92164810350E+02 0.  0.
        -11    1    3    3    0    0  0.51118372316E+02 -0.14753475030E+02  0.27284005542E+00  0.53205520911E+02  0.00000000000E+00 0. -1.
         11    1    3    3    0    0  0.42527870660E+01  0.60843063356E+02  0.19640152979E+02  0.64075737729E+02  0.00000000000E+00 0.  1.
        -13    1    4    4    0    0 -0.24832609396E+02 -0.34394208306E+02 -0.86968829753E+02  0.96763616112E+02  0.00000000000E+00 0.  1.
         13    1    4    4    0    0 -0.44231552393E+02  0.16598825541E+02  0.22755596452E+01  0.47298302381E+02  0.00000000000E+00 0. -1.
         -1    1    1    2    0  502  0.13693002406E+02 -0.28294205561E+02 -0.73199079965E+02  0.79662825025E+02  0.00000000000E+00 0.  1.
<scales pt_clust_5="13000.00000" pt_clust_6="13000.00000" pt_clust_7="13000.00000" pt_clust_8="13000.00000" pt_clust_9="31.43343"></scales>
<clustering>
<clus scale="   31.433">  2  9  1 -1</clus>
<clus scale="   90.378">  5  6 -1 -1</clus>
<clus scale="   92.165">  7  8 -1 -1</clus>
<clus scale="  114.545">  1  5  2 -1</clus>
<clus scale="   31.433">  2  5  1 -1</clus>
</clustering>
</event>
<event>
 9    1  0.1399746E-005  0.9576287E+02  0.7546771E-02  0.1292074E+00
          1   -1    0    0  502    0 -0.00000000000E+00  0.00000000000E+00  0.65835838511E+03  0.65835838511E+03  0.00000000000E+00 0. -1.
         21   -1    0    0  501  502  0.00000000000E+00 -0.00000000000E+00 -0.12316684062E+03  0.12316684062E+03  0.00000000000E+00 0. -1.
         23    2    1    2    0    0  0.18716075000E+02  0.22712311886E+02  0.35839992978E+03  0.37098762897E+03  0.91187557281E+02 0.  0.
         23    2    1    2    0    0  0.37683486445E+02  0.44336322327E+02  0.26407822136E+03  0.28686309824E+03  0.95746412508E+02 0.  0.
        -13    1    3    3    0    0  0.31179847748E+02  0.52244539224E+02  0.18802664159E+03  0.19762513184E+03  0.00000000000E+00 0. -1.
         13    1    3    3    0    0 -0.12463772748E+02 -0.29532227338E+02  0.17037328819E+03  0.17336249713E+03  0.00000000000E+00 0.  1.
        -13    1    4    4    0    0  0.29442245077E+01 -0.26263165237E+02  0.11819217946E+03  0.12111074928E+03  0.00000000000E+00 0.  1.
         13    1    4    4    0    0  0.34739261937E+02  0.70599487565E+02  0.14588604190E+03  0.16575234896E+03  0.00000000000E+00 0. -1.
          1    1    1    2  501    0 -0.56399561445E+02 -0.67048634213E+02 -0.87286606660E+02  0.12367449852E+03  0.00000000000E+00 0. -1.
<scales pt_clust_5="13000.00000" pt_clust_6="13000.00000" pt_clust_7="13000.00000" pt_clust_8="13000.00000" pt_clust_9="87.61524"></scales>
<clustering>
<clus scale="   87.615">  2  9  1 -1</clus>
<clus scale="   91.188">  5  6 -1 -1</clus>
<clus scale="   91.205">  1  5  2 -1</clus>
<clus scale="   95.746">  7  8 -1 -1</clus>
<clus scale="   87.615">  2  5  1 -1</clus>
</clustering>
</event>
<event>
 9    1  0.1399746E-005  0.1838448E+03  0.7546771E-02  0.1164153E+00
          3   -1    0    0  502    0 -0.00000000000E+00  0.00000000000E+00  0.33532463565E+03  0.33532463565E+03  0.00000000000E+00 0. -1.
         21   -1    0    0  501  502  0.00000000000E+00 -0.00000000000E+00 -0.35570818477E+03  0.35570818477E+03  0.00000000000E+00 0.  1.
         23    2    1    2    0    0  0.29849329086E+02 -0.13667632827E+03  0.10063724238E+03  0.19495335845E+03  0.91145796733E+02 0.  0.
         23    2    1    2    0    0 -0.16904372860E+03  0.22226164199E+03 -0.15055703788E+03  0.33003032277E+03  0.90975670474E+02 0.  0.
        -11    1    4    4    0    0 -0.14908913133E+03  0.12556985130E+03 -0.97540176397E+02  0.21796660902E+03  0.00000000000E+00 0.  1.
         11    1    4    4    0    0 -0.19954597266E+02  0.96691790690E+02 -0.53016861480E+02  0.11206371375E+03  0.00000000000E+00 0. -1.
        -13    1    3    3    0    0  0.23093617246E+02 -0.29553788492E+01  0.43584561887E+02  0.49413191119E+02  0.00000000000E+00 0. -1.
         13    1    3    3    0    0  0.67557118397E+01 -0.13372094942E+03  0.57052680488E+02  0.14554016733E+03  0.00000000000E+00 0.  1.
          3    1    1    2  501    0  0.13919439951E+03 -0.85585313720E+02  0.29536246379E+02  0.16604913920E+03  0.00000000000E+00 0. -1.
<scales pt_clust_5="13000.00000" pt_clust_6="13000.00000" pt_clust_7="13000.00000" pt_clust_8="13000.00000" pt_clust_9="163.40120"></scales>
<clustering>
<clus scale="   90.976">  5  6 -1 -1</clus>
<clus scale="   91.146">  7  8 -1 -1</clus>
<clus scale="  163.401">  2  9  1 -1</clus>
<clus scale="  183.760">  2  5  1 -1</clus>
<clus scale="  163.401">  2  5  1 -1</clus>
</clustering>
</event>
<event>
 9    1  0.1399746E-005  0.1732405E+03  0.7546771E-02  0.1174741E+00
         21   -1    0    0  501  502  0.00000000000E+00  0.00000000000E+00  0.13572846021E+03  0.13572846021E+03  0.00000000000E+00 0. -1.
          1   -1    0    0  502    0 -0.00000000000E+00 -0.00000000000E+00 -0.62947073031E+03  0.62947073031E+03  0.00000000000E+00 0. -1.
         23    2    1    2    0    0  0.24477157813E+02 -0.15796244517E+03 -0.51228692741E+03  0.54458221170E+03  0.92631657447E+02 0.  0.
         23    2    1    2    0    0  0.13295445913E+02  0.10172136097E+03 -0.26009938768E+02  0.13953096785E+03  0.90930577444E+02 0.  0.
        -11    1    4    4    0    0  0.37019567222E+02  0.10624215730E+03 -0.17153263600E+02  0.11380720011E+03  0.00000000000E+00 0. -1.
         11    1    4    4    0    0 -0.23724121309E+02 -0.45207963337E+01 -0.88566751684E+01  0.25723767734E+02  0.00000000000E+00 0.  1.
        -13    1    3    3    0    0  0.22794585995E+02  0.33467337684E+01 -0.53087221143E+02  0.57870949761E+02  0.00000000000E+00 0. -1.
         13    1    3    3    0    0  0.16825718176E+01 -0.16130917894E+03 -0.45919970627E+03  0.48671126194E+03  0.00000000000E+00 0.  1.
          1    1    1    2  501    0 -0.37772603726E+02  0.56241084206E+02  0.44554596078E+02  0.81086010980E+02  0.00000000000E+00 0. -1.
<scales pt_clust_5="13000.00000" pt_clust_6="13000.00000" pt_clust_7="13000.00000" pt_clust_8="13000.00000" pt_clust_9="67.74828"></scales>
<clustering>
<clus scale="   67.748">  1  9  2 -1</clus>
<clus scale="   90.931">  5  6 -1 -1</clus>
<clus scale="   92.632">  7  8 -1 -1</clus>
<clus scale="  172.337">  1  5  2 -1</clus>
<clus scale="   67.748">  1  5  2 -1</clus>
</clustering>
</event>
<event>
 9    1  0.1399746E-005  0.1452915E+03  0.7546771E-02  0.1206421E+00
         21   -1    0    0  501  502  0.00000000000E+00  0.00000000000E+00  0.10088789197E+03  0.10088789197E+03  0.00000000000E+00 0. -1.
          2   -1    0    0  502    0 -0.00000000000E+00 -0.00000000000E+00 -0.35183214122E+03  0.35183214122E+03  0.00000000000E+00 0. -1.
         23    2    1    2    0    0  0.76921209998E+02 -0.70962554406E+02 -0.18044060293E+03  0.22774559239E+03  0.91414916681E+02 0.  0.
         23    2    1    2    0    0 -0.92957088078E+02  0.87183324242E+02 -0.10118427149E+03  0.18674404032E+03  0.91614013938E+02 0.  0.
        -11    1    3    3    0    0 -0.48940221880E+01 -0.54216772497E+02 -0.58085328472E+02  0.79607256307E+02  0.00000000000E+00 0. -1.
         11    1    3    3    0    0  0.81815232186E+02 -0.16745781909E+02 -0.12235527446E+03  0.14813833608E+03  0.00000000000E+00 0.  1.
        -13    1    4    4    0    0 -0.97617208291E+02  0.51430997502E+02 -0.43258502483E+02  0.11851398608E+03  0.00000000000E+00 0. -1.
         13    1    4    4    0    0  0.46601202134E+01  0.35752326740E+02 -0.57925769005E+02  0.68230054247E+02  0.00000000000E+00 0.  1.
          2    1    1    2  501    0  0.16035878080E+02 -0.16220769837E+02  0.30680625174E+02  0.38230400481E+02  0.00000000000E+00 0. -1.
<scales pt_clust_5="13000.00000" pt_clust_6="13000.00000" pt_clust_7="13000.00000" pt_clust_8="13000.00000" pt_clust_9="22.80927"></scales>
<clustering>
<clus scale="   22.809">  1  9  2 -1</clus>
<clus scale="   91.415">  5  6 -1 -1</clus>
<clus scale="   91.614">  7  8 -1 -1</clus>
<clus scale="  145.166">  2  5  1 -1</clus>
<clus scale="   22.809">  1  5  2 -1</clus>
</clustering>
</event>
<event>
 9    1  0.1399746E-005  0.1085119E+03  0.7546771E-02  0.1265544E+00
         21   -1    0    0  501  502  0.00000000000E+00  0.00000000000E+00  0.11912488264E+03  0.11912488264E+03  0.00000000000E+00 0. -1.
         -3   -1    0    0    0  501 -0.00000000000E+00 -0.00000000000E+00 -0.19020016059E+03  0.19020016059E+03  0.00000000000E+00 0.  1.
         23    2    1    2    0    0 -0.23360000341E+02  0.38975131724E+02 -0.11525801319E+03  0.15716584625E+03  0.96705445109E+02 0.  0.
         23    2    1    2    0    0  0.55027866546E+02 -0.39124656236E+02  0.37483377411E+02  0.11979011446E+03  0.91574358410E+02 0.  0.
        -11    1    4    4    0    0  0.48403912775E+02 -0.60258500331E+02  0.12236806390E+01  0.77301507284E+02  0.00000000000E+00 0.  1.
         11    1    4    4    0    0  0.66239537709E+01  0.21133844096E+02  0.36259696772E+02  0.42488607177E+02  0.00000000000E+00 0. -1.
        -11    1    3    3    0    0 -0.15136819489E+02 -0.29228628419E+02 -0.62169856480E+02  0.70345768019E+02  0.00000000000E+00 0.  1.
         11    1    3    3    0    0 -0.82231808514E+01  0.68203760142E+02 -0.53088156709E+02  0.86820078229E+02  0.00000000000E+00 0. -1.
         -3    1    1    2    0  502 -0.31667866206E+02  0.14952451211E+00  0.66993578268E+01  0.32369082515E+02  0.00000000000E+00 0.  1.
<scales pt_clust_5="13000.00000" pt_clust_6="13000.00000" pt_clust_7="13000.00000" pt_clust_8="13000.00000" pt_clust_9="31.66822"></scales>
<clustering>
<clus scale="   31.668">  1  9  2 -1</clus>
<clus scale="   91.574">  5  6 -1 -1</clus>
<clus scale="   96.705">  7  8 -1 -1</clus>
<clus scale="  103.965">  1  5  2 -1</clus>
<clus scale="   31.668">  1  5  2 -1</clus>
</clustering>
</event>
<event>
 9    1  0.1399746E-005  0.1608225E+03  0.7546771E-02  0.1191634E+00
         -3   -1    0    0    0  501 -0.00000000000E+00  0.00000000000E+00  0.30925911090E+03  0.30925911090E+03  0.00000000000E+00 0.  1.
         21   -1    0    0  501  502  0.00000000000E+00 -0.00000000000E+00 -0.21663617256E+03  0.21663617256E+03  0.00000000000E+00 0.  1.
         23    2    1    2    0    0  0.40107393843E+01 -0.11617305194E+03  0.90467499345E+02  0.17317037102E+03  0.91056822563E+02 0.  0.
         23    2    1    2    0    0  0.12359237153E+03  0.77645720719E+00 -0.63313652152E+02  0.16864577215E+03  0.95692741259E+02 0.  0.
        -13    1    3    3    0    0  0.20656849981E+02 -0.24489611123E+02  0.71116413036E+02  0.77999940431E+02  0.00000000000E+00 0. -1.
         13    1    3    3    0    0 -0.16646110597E+02 -0.91683440814E+02  0.19351086310E+02  0.95170430591E+02  0.00000000000E+00 0.  1.
        -13    1    4    4    0    0  0.56521747852E+02 -0.29290982943E+02 -0.70266432606E+02  0.94815827862E+02  0.00000000000E+00 0.  1.
         13    1    4    4    0    0  0.67070623679E+02  0.30067440150E+02  0.69527804539E+01  0.73829944291E+02  0.00000000000E+00 0. -1.
         -3    1    1    2    0  502 -0.12760311092E+03  0.11539659473E+03  0.65469091149E+02  0.18407914028E+03  0.00000000000E+00 0.  1.
<scales pt_clust_5="13000.00000" pt_clust_6="13000.00000" pt_clust_7="13000.00000" pt_clust_8="13000.00000" pt_clust_9="129.25472"></scales>
<clustering>
<clus scale="   91.057">  5  6 -1 -1</clus>
<clus scale="   95.693">  7  8 -1 -1</clus>
<clus scale="  147.660">  1  5  2 -1</clus>
<clus scale="  129.255">  2  9  1 -1</clus>
<clus scale="  129.255">  2  5  1 -1</clus>
</clustering>
</event>
<event>
 9    1  0.1399746E-005  0.9644049E+02  0.7546771E-02  0.1288760E+00
         -4   -1    0    0    0  501 -0.00000000000E+00  0.00000000000E+00  0.55070167709E+03  0.55070167709E+03  0.00000000000E+00 0.  1.
         21   -1    0    0  501  502  0.00000000000E+00 -0.00000000000E+00 -0.47764473620E+02  0.47764473620E+02  0.00000000000E+00 0. -1.
         23    2    1    2    0    0  0.39909183666E+02  0.12599712662E+02  0.28321963191E+03  0.30078399481E+03  0.92228823779E+02 0.  0.
         23    2    1    2    0    0 -0.28488456528E+01 -0.23849634922E+02  0.23727072736E+03  0.25515989487E+03  0.90731763345E+02 0.  0.
        -13    1    3    3    0    0  0.66396812775E+02  0.16232141732E+02  0.24344736627E+03  0.25286090903E+03  0.00000000000E+00 0.  1.
         13    1    3    3    0    0 -0.26487629109E+02 -0.36324290702E+01  0.39772265648E+02  0.47923085789E+02  0.00000000000E+00 0. -1.
        -13    1    4    4    0    0  0.30708827377E+02 -0.42465925608E+02  0.10376006606E+03  0.11624344380E+03  0.00000000000E+00 0.  1.
         13    1    4    4    0    0 -0.33557673029E+02  0.18616290686E+02  0.13351066129E+03  0.13891645107E+03  0.00000000000E+00 0. -1.
         -4    1    1    2    0  502 -0.37060338013E+02  0.11249922260E+02 -0.17553155801E+02  0.42522261030E+02  0.00000000000E+00 0.  1.
<scales pt_clust_5="13000.00000" pt_clust_6="13000.00000" pt_clust_7="13000.00000" pt_clust_8="13000.00000" pt_clust_9="38.73021"></scales>
<clustering>
<clus scale="   38.730">  2  9  1 -1</clus>
<clus scale="   90.732">  7  8 -1 -1</clus>
<clus scale="   92.229">  5  6 -1 -1</clus>
<clus scale="   95.010">  2  7  1 -1</clus>
<clus scale="   38.730">  2  5  1 -1</clus>
</clustering>
</event>
<event>
 9    1  0.1399746E-005  0.2657258E+03  0.7546771E-02  0.1142041E+00
         21   -1    0    0  501  502  0.00000000000E+00  0.00000000000E+00  0.12665257507E+03  0.12665257507E+03  0.00000000000E+00 0.  1.
          2   -1    0    0  502    0 -0.00000000000E+00 -0.00000000000E+00 -0.11416518490E+04  0.11416518490E+04  0.00000000000E+00 0. -1.
         23    2    1    2    0    0  0.56780702266E+02  0.58540038986E+01 -0.24009700613E+03  0.26105107515E+03  0.85104488546E+02 0.  0.
         23    2    1    2    0    0 -0.14006617432E+03  0.21277163557E+03 -0.92940667811E+02  0.28627813163E+03  0.91798141735E+02 0.  0.
        -11    1    4    4    0    0 -0.70476065864E+02  0.91119306659E+02  0.49919915676E+01  0.11530188153E+03  0.00000000000E+00 0.  1.
         11    1    4    4    0    0 -0.69590108456E+02  0.12165232891E+03 -0.97932659379E+02  0.17097625010E+03  0.00000000000E+00 0. -1.
        -13    1    3    3    0    0  0.78277193100E+02  0.13898656122E+02 -0.18408605137E+03  0.20051973945E+03  0.00000000000E+00 0. -1.
         13    1    3    3    0    0 -0.21496490833E+02 -0.80446522235E+01 -0.56010954767E+02  0.60531335699E+02  0.00000000000E+00 0.  1.
          2    1    1    2  501    0  0.83285472054E+02 -0.21862563947E+03 -0.68196160004E+03  0.72097521733E+03  0.00000000000E+00 0. -1.
<scales pt_clust_5="13000.00000" pt_clust_6="13000.00000" pt_clust_7="13000.00000" pt_clust_8="13000.00000" pt_clust_9="249.36593"></scales>
<clustering>
<clus scale="   85.104">  7  8 -1 -1</clus>
<clus scale="   91.798">  5  6 -1 -1</clus>
<clus scale="  102.475">  2  7  1 -1</clus>
<clus scale="  249.366">  1  9  2 -1</clus>
<clus scale="  249.366">  1  5  2 -1</clus>
</clustering>
</event>
<event>
 9    1  0.1399746E-005  0.9556586E+02  0.7546771E-02  0.1293249E+00
          2   -1    0    0  502    0 -0.00000000000E+00  0.00000000000E+00  0.78488237331E+03  0.78488237331E+03  0.00000000000E+00 0. -1.
         21   -1    0    0  501  502  0.00000000000E+00 -0.00000000000E+00 -0.23951949034E+02  0.23951949034E+02  0.00000000000E+00 0. -1.
         23    2    1    2    0    0  0.68243811198E+01 -0.27533182399E+02  0.46943975543E+03  0.47974979651E+03  0.94770960559E+02 0.  0.
         23    2    1    2    0    0  0.19791563254E+01 -0.99467004710E+01  0.27114866350E+03  0.28554097209E+03  0.88933655681E+02 0.  0.
        -13    1    3    3    0    0  0.44304473166E+02  0.84642593425E+01  0.26483600878E+03  0.26864966327E+03  0.00000000000E+00 0.  1.
         13    1    3    3    0    0 -0.37480092046E+02 -0.35997441742E+02  0.20460374664E+03  0.21110013324E+03  0.00000000000E+00 0. -1.
        -13    1    4    4    0    0  0.41607907149E+02 -0.22391062051E+02  0.16223274196E+03  0.16897348952E+03  0.00000000000E+00 0.  1.
         13    1    4    4    0    0 -0.39628750823E+02  0.12444361580E+02  0.10891592154E+03  0.11656748257E+03  0.00000000000E+00 0. -1.
          2    1    1    2  501    0 -0.88035374452E+01  0.37479882870E+02  0.20342005355E+02  0.43543553752E+02  0.00000000000E+00 0. -1.
<scales pt_clust_5="13000.00000" pt_clust_6="13000.00000" pt_clust_7="13000.00000" pt_clust_8="13000.00000" pt_clust_9="38.49992"></scales>
<clustering>
<clus scale="   38.500">  2  9  1 -1</clus>
<clus scale="   88.934">  7  8 -1 -1</clus>
<clus scale="   89.780">  2  7  1 -1</clus>
<clus scale="   94.771">  5  6 -1 -1</clus>
<clus scale="   38.500">  2  5  1 -1</clus>
</clustering>
</event>
<event>
 9    1  0.1399746E-005  0.9248712E+02  0.7546771E-02  0.1297649E+00
          1   -1    0    0  502    0 -0.00000000000E+00  0.00000000000E+00  0.21616704929E+03  0.21616704929E+03  0.00000000000E+00 0. -1.
         21   -1    0    0  501  502  0.00000000000E+00 -0.00000000000E+00 -0.73233188119E+02  0.73233188119E+02  0.00000000000E+00 0.  1.
         23    2    1    2    0    0  0.11268660365E+02  0.13205886506E+02  0.10989014218E+03  0.14305026781E+03  0.89923065048E+02 0.  0.
         23    2    1    2    0    0 -0.25196998681E+02  0.27403248024E+02  0.31560054659E+02  0.10339299489E+03  0.91149589128E+02 0.  0.
        -11    1    4    4    0    0 -0.47932442422E+02  0.45522402802E+02  0.92537244939E+01  0.66749079473E+02  0.00000000000E+00 0. -1.
         11    1    4    4    0    0  0.22735443741E+02 -0.18119154778E+02  0.22306330165E+02  0.36643915421E+02  0.00000000000E+00 0.  1.
        -13    1    3    3    0    0 -0.10412114521E+02 -0.27672647516E+02  0.72211123944E+01  0.30435702942E+02  0.00000000000E+00 0.  1.
         13    1    3    3    0    0  0.21680774886E+02  0.40878534022E+02  0.10266902979E+03  0.11261456487E+03  0.00000000000E+00 0. -1.
          1    1    1    2  501    0  0.13928338316E+02 -0.40609134531E+02  0.14836643279E+01  0.42956974700E+02  0.00000000000E+00 0. -1.
<scales pt_clust_5="13000.00000" pt_clust_6="13000.00000" pt_clust_7="13000.00000" pt_clust_8="13000.00000" pt_clust_9="42.93135"></scales>
<clustering>
<clus scale="   42.931">  2  9  1 -1</clus>
<clus scale="   89.923">  7  8 -1 -1</clus>
<clus scale="   91.150">  5  6 -1 -1</clus>
<clus scale="   91.279">  1  7  2 -1</clus>
<clus scale="   42.931">  2  5  1 -1</clus>
</clustering>
</event>
<event>
 9    1  0.1399746E-005  0.1105549E+03  0.7546771E-02  0.1269334E+00
         21   -1    0    0  501  502  0.00000000000E+00  0.00000000000E+00  0.43554102131E+03  0.43554102131E+03  0.00000000000E+00 0.  1.
         -2   -1    0    0    0  501 -0.00000000000E+00 -0.00000000000E+00 -0.11899499564E+03  0.11899499564E+03  0.00000000000E+00 0.  1.
         23    2    1    2    0    0  0.23698778553E+01  0.21127207453E+02 -0.75470279756E+02  0.13461232769E+03  0.10942001838E+03 0.  0.
         23    2    1    2    0    0 -0.15034479170E+02  0.30216063070E+02  0.22270699268E+03  0.24254791037E+03  0.89955756921E+02 0.  0.
        -11    1    3    3    0    0 -0.27384606125E+02 -0.33046467158E+02 -0.90099519856E+01  0.43853903806E+02  0.00000000000E+00 0. -1.
         11    1    3    3    0    0  0.29754483980E+02  0.54173674611E+02 -0.66460327771E+02  0.90758423880E+02  0.00000000000E+00 0.  1.
        -13    1    4    4    0    0 -0.26781511339E+02 -0.24640343072E+02  0.12149140379E+03  0.12682490706E+03  0.00000000000E+00 0. -1.
         13    1    4    4    0    0  0.11747032169E+02  0.54856406141E+02  0.10121558889E+03  0.11572300330E+03  0.00000000000E+00 0.  1.
         -2    1    1    2    0  502  0.12664601314E+02 -0.51343270523E+02  0.16930931275E+03  0.17737577889E+03  0.00000000000E+00 0.  1.
<scales pt_clust_5="13000.00000" pt_clust_6="13000.00000" pt_clust_7="13000.00000" pt_clust_8="13000.00000" pt_clust_9="52.88217"></scales>
<clustering>
<clus scale="   52.882">  1  9  2 -1</clus>
<clus scale="   89.956">  7  8 -1 -1</clus>
<clus scale="   91.333">  1  7  2 -1</clus>
<clus scale="  109.420">  5  6 -1 -1</clus>
<clus scale="   52.882">  1  5  2 -1</clus>
</clustering>
</event>
<event>
 9    1  0.1399746E-005  0.1387830E+03  0.7546771E-02  0.1215887E+00
         21   -1    0    0  501  502  0.00000000000E+00  0.00000000000E+00  0.70358707203E+02  0.70358707203E+02  0.00000000000E+00 0. -1.
         -3   -1    0    0    0  501 -0.00000000000E+00 -0.00000000000E+00 -0.56447065005E+03  0.56447065005E+03  0.00000000000E+00 0.  1.
         23    2    1    2    0    0 -0.10455805398E+03  0.20498394423E+02 -0.43910311524E+03  0.46103830840E+03  0.91608979750E+02 0.  0.
         23    2    1    2    0    0  0.97467989935E+02  0.39858314119E+00 -0.68589654412E+02  0.14787982472E+03  0.87542754898E+02 0.  0.
        -11    1    3    3    0    0  0.12818848494E+02  0.19142564035E+02 -0.78454706001E+02  0.81767362244E+02  0.00000000000E+00 0.  1.
         11    1    3    3    0    0 -0.11737690247E+03  0.13558303886E+01 -0.36064840924E+03  0.37927094616E+03  0.00000000000E+00 0. -1.
        -13    1    4    4    0    0  0.42366566011E+02 -0.42582406127E+02 -0.22383576539E+02  0.64103133510E+02  0.00000000000E+00 0. -1.
         13    1    4    4    0    0  0.55101423924E+02  0.42980989268E+02 -0.46206077873E+02  0.83776691205E+02  0.00000000000E+00 0.  1.
         -3    1    1    2    0  502  0.70900640440E+01 -0.20896977565E+02  0.13580826809E+02  0.25911224137E+02  0.00000000000E+00 0.  1.
<scales pt_clust_5="13000.00000" pt_clust_6="13000.00000" pt_clust_7="13000.00000" pt_clust_8="13000.00000" pt_clust_9="22.06700"></scales>
<clustering>
<clus scale="   22.067">  1  9  2 -1</clus>
<clus scale="   87.543">  7  8 -1 -1</clus>
<clus scale="   91.609">  5  6 -1 -1</clus>
<clus scale="  136.133">  1  7  2 -1</clus>
<clus scale="   22.067">  1  5  2 -1</clus>
</clustering>
</event>
<event>
 9    1  0.5145216E-005  0.9262896E+02  0.7546771E-02  0.1297648E+00
         21   -1    0    0  501  502  0.00000000000E+00  0.00000000000E+00  0.19998731564E+03  0.19998731564E+03  0.00000000000E+00 0. -1.
          1   -1    0    0  502    0 -0.00000000000E+00 -0.00000000000E+00 -0.40061126078E+03  0.40061126078E+03  0.00000000000E+00 0. -1.
         23    2    1    2    0    0 -0.87900711967E+01  0.33772054429E+01 -0.31315844784E+03  0.32656397743E+03  0.92125713217E+02 0.  0.
         23    2    1    2    0    0 -0.26445103546E+02 -0.74994686705E+02  0.14449626316E+03  0.18805707114E+03  0.90347913111E+02 0.  0.
        -11    1    4    4    0    0  0.92466853572E+01 -0.69018090070E+02  0.46869829760E+02  0.83939138003E+02  0.00000000000E+00 0.  1.
         11    1    4    4    0    0 -0.35691788903E+02 -0.59765966348E+01  0.97626433404E+02  0.10411793314E+03  0.00000000000E+00 0. -1.
        -11    1    3    3    0    0  0.24249507466E+02 -0.33837676051E+02 -0.11678547127E+03  0.12398335869E+03  0.00000000000E+00 0.  1.
         11    1    3    3    0    0 -0.33039578663E+02  0.37214881494E+02 -0.19637297657E+03  0.20258061874E+03  0.00000000000E+00 0. -1.
          1    1    1    2  501    0  0.35235174743E+02  0.71617481262E+02 -0.31961760464E+02  0.85977527839E+02  0.00000000000E+00 0. -1.
<scales pt_clust_5="13000.00000" pt_clust_6="13000.00000" pt_clust_7="13000.00000" pt_clust_8="13000.00000" pt_clust_9="79.81596"></scales>
<clustering>
<clus scale="   79.816">  1  9  2 -1</clus>
<clus scale="   90.348">  5  6 -1 -1</clus>
<clus scale="   90.861">  1  5  2 -1</clus>
<clus scale="   92.126">  7  8 -1 -1</clus>
<clus scale="   79.816">  1  5  2 -1</clus>
</clustering>
</event>
<event>
 9    1  0.1399746E-005  0.1038658E+03  0.7546771E-02  0.1273012E+00
          2   -1    0    0  502    0 -0.00000000000E+00  0.00000000000E+00  0.19976592721E+03  0.19976592721E+03  0.00000000000E+00 0. -1.
         21   -1    0    0  501  502  0.00000000000E+00 -0.00000000000E+00 -0.14634324630E+03  0.14634324630E+03  0.00000000000E+00 0. -1.
         23    2    1    2    0    0 -0.40449323084E+02 -0.12237465078E+02  0.14136159973E+03  0.17488196384E+03  0.93886613057E+02 0.  0.
         23    2    1    2    0    0  0.62743365824E+02 -0.46291308162E+01 -0.89470623496E+02  0.14322984340E+03  0.92475060236E+02 0.  0.
        -11    1    3    3    0    0  0.24663641587E+02 -0.31691485781E+01  0.84100226470E+02  0.87699411693E+02  0.00000000000E+00 0.  1.
         11    1    3    3    0    0 -0.65112964671E+02 -0.90683165002E+01  0.57261373257E+02  0.87182552152E+02  0.00000000000E+00 0. -1.
        -13    1    4    4    0    0 -0.11103192797E+01  0.24577730473E+02  0.54124915553E+01  0.25191123614E+02  0.00000000000E+00 0.  1.
         13    1    4    4    0    0  0.63853685103E+02 -0.29206861289E+02 -0.94883115052E+02  0.11803871979E+03  0.00000000000E+00 0. -1.
          2    1    1    2  501    0 -0.22294042739E+02  0.16866595895E+02  0.15317046765E+01  0.27997366268E+02  0.00000000000E+00 0. -1.
<scales pt_clust_5="13000.00000" pt_clust_6="13000.00000" pt_clust_7="13000.00000" pt_clust_8="13000.00000" pt_clust_9="27.95544"></scales>
<clustering>
<clus scale="   27.955">  2  9  1 -1</clus>
<clus scale="   92.475">  7  8 -1 -1</clus>
<clus scale="   93.887">  5  6 -1 -1</clus>
<clus scale="  102.592">  2  7  1 -1</clus>
<clus scale="   27.955">  2  5  1 -1</clus>
</clustering>
</event>
<event>
 9    1  0.1399746E-005  0.1046360E+03  0.7546771E-02  0.1270867E+00
         21   -1    0    0  501  502  0.00000000000E+00  0.00000000000E+00  0.42366468190E+02  0.42366468190E+02  0.00000000000E+00 0.  1.
         -1   -1    0    0    0  501 -0.00000000000E+00 -0.00000000000E+00 -0.84353971041E+03  0.84353971041E+03  0.00000000000E+00 0.  1.
         23    2    1    2    0    0  0.62369497055E+02  0.79117770887E+01 -0.51627266271E+03  0.52765637510E+03  0.89057495728E+02 0.  0.
         23    2    1    2    0    0 -0.43602705110E+02  0.20378351846E+02 -0.30320798577E+03  0.31967928368E+03  0.89125129255E+02 0.  0.
        -11    1    4    4    0    0  0.26322513906E+01 -0.30485902692E+02 -0.66680082486E+02  0.73365880426E+02  0.00000000000E+00 0. -1.
         11    1    4    4    0    0 -0.46234956501E+02  0.50864254538E+02 -0.23652790328E+03  0.24631340326E+03  0.00000000000E+00 0.  1.
        -13    1    3    3    0    0  0.52895476054E+02  0.45603826610E+02 -0.31226989685E+03  0.31998457598E+03  0.00000000000E+00 0.  1.
         13    1    3    3    0    0  0.94740210013E+01 -0.37692049521E+02 -0.20400276586E+03  0.20767179912E+03  0.00000000000E+00 0. -1.
         -1    1    1    2    0  502 -0.18766791945E+02 -0.28290128935E+02  0.18307406257E+02  0.38570519817E+02  0.00000000000E+00 0.  1.
<scales pt_clust_5="13000.00000" pt_clust_6="13000.00000" pt_clust_7="13000.00000" pt_clust_8="13000.00000" pt_clust_9="33.94884"></scales>
<clustering>
<clus scale="   33.949">  1  9  2 -1</clus>
<clus scale="   89.057">  7  8 -1 -1</clus>
<clus scale="   89.125">  5  6 -1 -1</clus>
<clus scale="  104.578">  2  7  1 -1</clus>
<clus scale="   33.949">  1  5  2 -1</clus>
</clustering>
</event>
<event>
 9    1  0.1399746E-005  0.1200777E+03  0.7546771E-02  0.1253504E+00
          1   -1    0    0  502    0 -0.00000000000E+00  0.00000000000E+00  0.16135879945E+03  0.16135879945E+03  0.00000000000E+00 0. -1.
         21   -1    0    0  501  502  0.00000000000E+00 -0.00000000000E+00 -0.10519962319E+03  0.10519962319E+03  0.00000000000E+00 0.  1.
         23    2    1    2    0    0  0.41114734925E+01 -0.30000412730E+02  0.64675843437E+02  0.13503719513E+03  0.11460868364E+03 0.  0.
         23    2    1    2    0    0  0.12006050433E+02  0.42859831130E+02  0.13156284640E+02  0.10160708270E+03  0.90386951812E+02 0.  0.
        -13    1    3    3    0    0  0.30124563865E+02 -0.12221459509E+02 -0.24338732514E+02  0.40610679887E+02  0.00000000000E+00 0. -1.
         13    1    3    3    0    0 -0.26013090372E+02 -0.17778953222E+02  0.89014575950E+02  0.94426515238E+02  0.00000000000E+00 0.  1.
        -13    1    4    4    0    0  0.50579146010E+02  0.13886053061E+02  0.51260622060E+01  0.52700559717E+02  0.00000000000E+00 0. -1.
         13    1    4    4    0    0 -0.38573095577E+02  0.28973778069E+02  0.80302224344E+01  0.48906522983E+02  0.00000000000E+00 0.  1.
          1    1    1    2  501    0 -0.16117523926E+02 -0.12859418400E+02 -0.21672951816E+02  0.29914144806E+02  0.00000000000E+00 0. -1.
<scales pt_clust_5="13000.00000" pt_clust_6="13000.00000" pt_clust_7="13000.00000" pt_clust_8="13000.00000" pt_clust_9="20.61890"></scales>
<clustering>
<clus scale="   20.619">  2  9  1 -1</clus>
<clus scale="   90.387">  7  8 -1 -1</clus>
<clus scale="   97.228">  2  7  1 -1</clus>
<clus scale="  114.609">  5  6 -1 -1</clus>
<clus scale="   20.619">  2  5  1 -1</clus>
</clustering>
</event>
<event>
 9    1  0.1399746E-005  0.9754543E+02  0.7546771E-02  0.1287183E+00
         -1   -1    0    0    0  501 -0.00000000000E+00  0.00000000000E+00  0.20515106587E+03  0.20515106587E+03  0.00000000000E+00 0.  1.
         21   -1    0    0  501  502  0.00000000000E+00 -0.00000000000E+00 -0.90617763595E+02  0.90617763595E+02  0.00000000000E+00 0. -1.
         23    2    1    2    0    0 -0.30621927066E+02 -0.21511458619E+02  0.11146219778E+03  0.14719567076E+03  0.88556754039E+02 0.  0.
         23    2    1    2    0    0 -0.20941942990E+01  0.37003602102E+02  0.30094971693E+02  0.10339970958E+03  0.91717721310E+02 0.  0.
        -11    1    3    3    0    0  0.29866485894E+02 -0.14654042319E+02  0.54348091585E+02  0.63721762333E+02  0.00000000000E+00 0.  1.
         11    1    3    3    0    0 -0.60488412960E+02 -0.68574162998E+01  0.57114106198E+02  0.83473908424E+02  0.00000000000E+00 0. -1.
        -11    1    4    4    0    0 -0.27809048880E+02 -0.20238569555E+02  0.14669793240E+01  0.34425207706E+02  0.00000000000E+00 0. -1.
         11    1    4    4    0    0  0.25714854581E+02  0.57242171657E+02  0.28627992369E+02  0.68974501877E+02  0.00000000000E+00 0.  1.
         -1    1    1    2    0  502  0.32716121365E+02 -0.15492143483E+02 -0.27023867204E+02  0.45173449121E+02  0.00000000000E+00 0.  1.
<scales pt_clust_5="13000.00000" pt_clust_6="13000.00000" pt_clust_7="13000.00000" pt_clust_8="13000.00000" pt_clust_9="36.19877"></scales>
<clustering>
<clus scale="   36.199">  2  9  1 -1</clus>
<clus scale="   88.557">  5  6 -1 -1</clus>
<clus scale="   91.718">  7  8 -1 -1</clus>
<clus scale="   94.579">  1  5  2 -1</clus>
<clus scale="   36.199">  2  5  1 -1</clus>
</clustering>
</event>
<event>
 9    1  0.1399746E-005  0.9880613E+02  0.7546771E-02  0.1285016E+00
         21   -1    0    0  501  502  0.00000000000E+00  0.00000000000E+00  0.97134338882E+02  0.97134338882E+02  0.00000000000E+00 0. -1.
          1   -1    0    0  502    0 -0.00000000000E+00 -0.00000000000E+00 -0.57735715576E+03  0.57735715576E+03  0.00000000000E+00 0. -1.
         23    2    1    2    0    0  0.15135575973E+02  0.34611213429E+02 -0.39219886174E+03  0.40524622026E+03  0.94749829156E+02 0.  0.
         23    2    1    2    0    0 -0.16035529271E+02 -0.25880694291E+01 -0.16329963192E+03  0.18743623342E+03  0.90563433624E+02 0.  0.
        -11    1    4    4    0    0 -0.35499935871E+02 -0.30728700832E+02 -0.13532771155E+03  0.14324136280E+03  0.00000000000E+00 0.  1.
         11    1    4    4    0    0  0.19464406600E+02  0.28140631403E+02 -0.27971920366E+02  0.44194870619E+02  0.00000000000E+00 0. -1.
        -11    1    3    3    0    0  0.39996456606E+01  0.66666973211E+02 -0.28876855729E+03  0.29639123158E+03  0.00000000000E+00 0.  1.
         11    1    3    3    0    0  0.11135930313E+02 -0.32055759781E+02 -0.10343030446E+03  0.10885498867E+03  0.00000000000E+00 0. -1.
          1    1    1    2  501    0  0.89995329745E+00 -0.32023144000E+02  0.75275676788E+02  0.81809040964E+02  0.00000000000E+00 0. -1.
<scales pt_clust_5="13000.00000" pt_clust_6="13000.00000" pt_clust_7="13000.00000" pt_clust_8="13000.00000" pt_clust_9="32.03579"></scales>
<clustering>
<clus scale="   32.036">  1  9  2 -1</clus>
<clus scale="   90.563">  5  6 -1 -1</clus>
<clus scale="   94.750">  7  8 -1 -1</clus>
<clus scale="   94.799">  1  5  2 -1</clus>
<clus scale="   32.036">  1  5  2 -1</clus>
</clustering>
</event>
<event>
 9    1  0.1399746E-005  0.1575841E+03  0.7546771E-02  0.1192218E+00
          2   -1    0    0  502    0 -0.00000000000E+00  0.00000000000E+00  0.44179000974E+03  0.44179000974E+03  0.00000000000E+00 0. -1.
         21   -1    0    0  501  502  0.00000000000E+00 -0.00000000000E+00 -0.11360735253E+03  0.11360735253E+03  0.00000000000E+00 0.  1.
         23    2    1    2    0    0 -0.98828604914E+02 -0.81174030510E+02  0.32353743841E+03  0.35852591504E+03  0.86648954545E+02 0.  0.
         23    2    1    2    0    0  0.11462437039E+03  0.65588558167E+02  0.29849519467E+02  0.16329065023E+03  0.91281090000E+02 0.  0.
        -11    1    4    4    0    0  0.94899273698E+02  0.43699492486E+02 -0.19049824979E+02  0.10619987582E+03  0.00000000000E+00 0.  1.
         11    1    4    4    0    0  0.19725096687E+02  0.21889065681E+02  0.48899344447E+02  0.57090774412E+02  0.00000000000E+00 0. -1.
        -13    1    3    3    0    0 -0.19959534507E+02 -0.70366333811E+02  0.12832762936E+03  0.14770844393E+03  0.00000000000E+00 0.  1.
         13    1    3    3    0    0 -0.78869070407E+02 -0.10807696699E+02  0.19520980906E+03  0.21081747111E+03  0.00000000000E+00 0. -1.
          2    1    1    2  501    0 -0.15795765472E+02  0.15585472344E+02 -0.25204300670E+02  0.33580797002E+02  0.00000000000E+00 0. -1.
<scales pt_clust_5="13000.00000" pt_clust_6="13000.00000" pt_clust_7="13000.00000" pt_clust_8="13000.00000" pt_clust_9="22.19038"></scales>
<clustering>
<clus scale="   22.190">  2  9  1 -1</clus>
<clus scale="   86.649">  7  8 -1 -1</clus>
<clus scale="   91.281">  5  6 -1 -1</clus>
<clus scale="  154.947">  1  7  2 -1</clus>
<clus scale="   22.190">  2  5  1 -1</clus>
</clustering>
</event>
<event>
 9    1  0.1399746E-005  0.4082499E+03  0.7546771E-02  0.1040982E+00
         21   -1    0    0  501  502  0.00000000000E+00  0.00000000000E+00  0.84835982956E+03  0.84835982956E+03  0.00000000000E+00 0. -1.
          3   -1    0    0  502    0 -0.00000000000E+00 -0.00000000000E+00 -0.28388409492E+03  0.28388409492E+03  0.00000000000E+00 0. -1.
         23    2    1    2    0    0 -0.94396027895E+02 -0.36562297420E+03  0.83111846669E+02  0.39741117118E+03  0.91854725424E+02 0.  0.
         23    2    1    2    0    0  0.74552517067E+02  0.42483872290E+03  0.27664247600E+03  0.52079741430E+03  0.93020798417E+02 0.  0.
        -11    1    3    3    0    0 -0.22855262564E+02 -0.25238524022E+02 -0.13173611366E+02  0.36508768236E+02  0.00000000000E+00 0.  1.
         11    1    3    3    0    0 -0.71540765331E+02 -0.34038445017E+03  0.96285458036E+02  0.36090240295E+03  0.00000000000E+00 0. -1.
        -11    1    4    4    0    0  0.17183954167E+02  0.25451329777E+03  0.11797121835E+03  0.28105073453E+03  0.00000000000E+00 0. -1.
         11    1    4    4    0    0  0.57368562900E+02  0.17032542513E+03  0.15867125765E+03  0.23974667977E+03  0.00000000000E+00 0.  1.
          3    1    1    2  501    0  0.19843510828E+02 -0.59215748704E+02  0.20472141197E+03  0.21403533899E+03  0.00000000000E+00 0. -1.
<scales pt_clust_5="13000.00000" pt_clust_6="13000.00000" pt_clust_7="13000.00000" pt_clust_8="13000.00000" pt_clust_9="62.45214"></scales>
<clustering>
<clus scale="   62.452">  1  9  2 -1</clus>
<clus scale="   91.855">  5  6 -1 -1</clus>
<clus scale="   93.021">  7  8 -1 -1</clus>
<clus scale="  407.986">  2  5  1 -1</clus>
<clus scale="   62.452">  1  5  2 -1</clus>
</clustering>
</event>
<event>
 9    1  0.1399746E-005  0.1004526E+03  0.7546771E-02  0.1282224E+00
          2   -1    0    0  502    0 -0.00000000000E+00  0.00000000000E+00  0.48911919752E+03  0.48911919752E+03  0.00000000000E+00 0. -1.
         21   -1    0    0  501  502  0.00000000000E+00 -0.00000000000E+00 -0.53720013133E+02  0.53720013133E+02  0.00000000000E+00 0. -1.
         23    2    1    2    0    0 -0.37095829017E+02 -0.21400685366E+02  0.31442023968E+03  0.33144498669E+03  0.95716258884E+02 0.  0.
         23    2    1    2    0    0  0.10529135309E+02  0.49904240021E+01  0.14561003643E+03  0.17162266915E+03  0.90090459178E+02 0.  0.
        -11    1    3    3    0    0  0.27507290418E+01 -0.53561873962E+02  0.16420425986E+03  0.17274107737E+03  0.00000000000E+00 0.  1.
         11    1    3    3    0    0 -0.39846558059E+02  0.32161188596E+02  0.15021597982E+03  0.15870390932E+03  0.00000000000E+00 0. -1.
        -13    1    4    4    0    0  0.44096644902E+02  0.33157331552E+01  0.36143126920E+02  0.57112466253E+02  0.00000000000E+00 0.  1.
         13    1    4    4    0    0 -0.33567509593E+02  0.16746908468E+01  0.10946690951E+03  0.11451020290E+03  0.00000000000E+00 0. -1.
          2    1    1    2  501    0  0.26566693708E+02  0.16410261364E+02 -0.24631091727E+02  0.39771554814E+02  0.00000000000E+00 0. -1.
<scales pt_clust_5="13000.00000" pt_clust_6="13000.00000" pt_clust_7="13000.00000" pt_clust_8="13000.00000" pt_clust_9="31.22637"></scales>
<clustering>
<clus scale="   31.226">  2  9  1 -1</clus>
<clus scale="   90.090">  7  8 -1 -1</clus>
<clus scale="   95.107">  2  7  1 -1</clus>
<clus scale="   95.716">  5  6 -1 -1</clus>
<clus scale="   31.226">  2  5  1 -1</clus>
</clustering>
</event>
<event>
 9    1  0.1399746E-005  0.9457847E+02  0.7546771E-02  0.1293696E+00
          2   -1    0    0  502    0 -0.00000000000E+00  0.00000000000E+00  0.44708688851E+03  0.44708688851E+03  0.00000000000E+00 0. -1.
         21   -1    0    0  501  502  0.00000000000E+00 -0.00000000000E+00 -0.87969121430E+02  0.87969121430E+02  0.00000000000E+00 0.  1.
         23    2    1    2    0    0  0.63310475160E+01 -0.15383103937E+02  0.38155057139E+03  0.39249378749E+03  0.90519680987E+02 0.  0.
         23    2    1    2    0    0 -0.24651200305E+02 -0.42450821350E+01  0.13700584902E+02  0.97545386681E+02  0.93282871082E+02 0.  0.
        -11    1    3    3    0    0 -0.15121839914E+02  0.33552444020E+02  0.11897910055E+03  0.12454100895E+03  0.00000000000E+00 0.  1.
         11    1    3    3    0    0  0.21452887430E+02 -0.48935547957E+02  0.26257147083E+03  0.26795277854E+03  0.00000000000E+00 0. -1.
        -13    1    4    4    0    0 -0.29767508341E+02 -0.41735911532E+02 -0.10904143524E+02  0.52410792879E+02  0.00000000000E+00 0.  1.
         13    1    4    4    0    0  0.51163080363E+01  0.37490829397E+02  0.24604728426E+02  0.45134593802E+02  0.00000000000E+00 0. -1.
          2    1    1    2  501    0  0.18320152789E+02  0.19628186072E+02 -0.36133389208E+02  0.45016835765E+02  0.00000000000E+00 0. -1.
<scales pt_clust_5="13000.00000" pt_clust_6="13000.00000" pt_clust_7="13000.00000" pt_clust_8="13000.00000" pt_clust_9="26.84946"></scales>
<clustering>
<clus scale="   26.849">  2  9  1 -1</clus>
<clus scale="   90.520">  5  6 -1 -1</clus>
<clus scale="   91.854">  1  5  2 -1</clus>
<clus scale="   93.283">  7  8 -1 -1</clus>
<clus scale="   26.849">  2  5  1 -1</clus>
</clustering>
</event>
<event>
 9    1  0.1399746E-005  0.1726074E+03  0.7546771E-02  0.1177549E+00
          2   -1    0    0  502    0 -0.00000000000E+00  0.00000000000E+00  0.20607563023E+03  0.20607563023E+03  0.00000000000E+00 0. -1.
         21   -1    0    0  501  502  0.00000000000E+00 -0.00000000000E+00 -0.46587231597E+03  0.46587231597E+03  0.00000000000E+00 0.  1.
         23    2    1    2    0    0  0.13442579036E+03 -0.22252576168E+02  0.10188334773E+03  0.20079426909E+03  0.10664263544E+03 0.  0.
         23    2    1    2    0    0 -0.14140875627E+03 -0.70009655267E+02 -0.32300394327E+03  0.37086947539E+03  0.91185701895E+02 0.  0.
        -11    1    4    4    0    0 -0.68151267022E+02 -0.36930015717E+02 -0.25189015662E+03  0.26354709685E+03  0.00000000000E+00 0.  1.
         11    1    4    4    0    0 -0.73257489247E+02 -0.33079639551E+02 -0.71113786646E+02  0.10732237854E+03  0.00000000000E+00 0. -1.
        -13    1    3    3    0    0  0.12208514387E+03  0.42110778563E+01  0.11591277264E+03  0.16839918762E+03  0.00000000000E+00 0. -1.
         13    1    3    3    0    0  0.12340646480E+02 -0.26463654024E+02 -0.14029424905E+02  0.32395081463E+02  0.00000000000E+00 0.  1.
          2    1    1    2  501    0  0.69829659136E+01  0.92262231435E+02 -0.38676090203E+02  0.10028420173E+03  0.00000000000E+00 0. -1.
<scales pt_clust_5="13000.00000" pt_clust_6="13000.00000" pt_clust_7="13000.00000" pt_clust_8="13000.00000" pt_clust_9="92.52616"></scales>
<clustering>
<clus scale="   91.186">  5  6 -1 -1</clus>
<clus scale="   92.526">  2  9  1 -1</clus>
<clus scale="  106.643">  7  8 -1 -1</clus>
<clus scale="  163.510">  2  5  1 -1</clus>
<clus scale="   92.526">  2  5  1 -1</clus>
</clustering>
</event>
<event>
 9    1  0.1399746E-005  0.2161850E+03  0.7546771E-02  0.1137152E+00
          1   -1    0    0  502    0 -0.00000000000E+00  0.00000000000E+00  0.14111991502E+04  0.14111991502E+04  0.00000000000E+00 0. -1.
         21   -1    0    0  501  502  0.00000000000E+00 -0.00000000000E+00 -0.50988551254E+02  0.50988551254E+02  0.00000000000E+00 0. -1.
         23    2    1    2    0    0 -0.13006943895E+03 -0.98080047319E+02  0.54948572423E+03  0.58027701309E+03  0.90824535004E+02 0.  0.
         23    2    1    2    0    0  0.20145815653E+03  0.13669393819E+03  0.67325780993E+03  0.72227179753E+03  0.95550244967E+02 0.  0.
        -11    1    4    4    0    0  0.84457112203E+02  0.43218214323E+02  0.14566348592E+03  0.17383517763E+03  0.00000000000E+00 0.  1.
         11    1    4    4    0    0  0.11700104432E+03  0.93475723864E+02  0.52759432401E+03  0.54843661991E+03  0.00000000000E+00 0. -1.
        -13    1    3    3    0    0 -0.13242005697E+02 -0.62610516891E+02  0.17078402338E+03  0.18238039967E+03  0.00000000000E+00 0.  1.
         13    1    3    3    0    0 -0.11682743325E+03 -0.35469530428E+02  0.37870170085E+03  0.39789661342E+03  0.00000000000E+00 0. -1.
          1    1    1    2  501    0 -0.71388717578E+02 -0.38613890868E+02  0.13746706481E+03  0.15963889086E+03  0.00000000000E+00 0. -1.
<scales pt_clust_5="13000.00000" pt_clust_6="13000.00000" pt_clust_7="13000.00000" pt_clust_8="13000.00000" pt_clust_9="81.16269"></scales>
<clustering>
<clus scale="   81.163">  2  9  1 -1</clus>
<clus scale="   90.825">  7  8 -1 -1</clus>
<clus scale="   95.550">  5  6 -1 -1</clus>
<clus scale="  214.138">  1  7  2 -1</clus>
<clus scale="   81.163">  2  5  1 -1</clus>
</clustering>
</event>
<event>
 9    1  0.1399746E-005  0.1329462E+03  0.7546771E-02  0.1223483E+00
         21   -1    0    0  501  502  0.00000000000E+00  0.00000000000E+00  0.72903957450E+03  0.72903957450E+03  0.00000000000E+00 0.  1.
         -2   -1    0    0    0  501 -0.00000000000E+00 -0.00000000000E+00 -0.43851676344E+02  0.43851676344E+02  0.00000000000E+00 0.  1.
         23    2    1    2    0    0 -0.77979979666E+02  0.38771971180E+02  0.16270186657E+03  0.20552454493E+03  0.90467111174E+02 0.  0.
         23    2    1    2    0    0  0.75256406244E+02 -0.84345747464E+02  0.23635910967E+03  0.27762026093E+03  0.91813118663E+02 0.  0.
        -11    1    4    4    0    0  0.40023879183E+02 -0.71882867170E+02  0.72840486192E+02  0.10988536721E+03  0.00000000000E+00 0.  1.
         11    1    4    4    0    0  0.35232527061E+02 -0.12462880294E+02  0.16351862347E+03  0.16773489372E+03  0.00000000000E+00 0. -1.
        -13    1    3    3    0    0 -0.60420479543E+02 -0.18779386221E+02  0.10216828810E+03  0.12017345293E+03  0.00000000000E+00 0.  1.
         13    1    3    3    0    0 -0.17559500123E+02  0.57551357401E+02  0.60533578470E+02  0.85351092001E+02  0.00000000000E+00 0. -1.
         -2    1    1    2    0  502  0.27235734217E+01  0.45573776284E+02  0.28612692192E+03  0.28974644499E+03  0.00000000000E+00 0.  1.
<scales pt_clust_5="13000.00000" pt_clust_6="13000.00000" pt_clust_7="13000.00000" pt_clust_8="13000.00000" pt_clust_9="45.65509"></scales>
<clustering>
<clus scale="   45.655">  1  9  2 -1</clus>
<clus scale="   90.467">  7  8 -1 -1</clus>
<clus scale="   91.813">  5  6 -1 -1</clus>
<clus scale="  132.020">  2  7  1 -1</clus>
<clus scale="   45.655">  1  5  2 -1</clus>
</clustering>
</event>
<event>
 9    1  0.1399746E-005  0.1807145E+03  0.7546771E-02  0.1167689E+00
         21   -1    0    0  501  502  0.00000000000E+00  0.00000000000E+00  0.50453175389E+02  0.50453175389E+02  0.00000000000E+00 0. -1.
          2   -1    0    0  502    0 -0.00000000000E+00 -0.00000000000E+00 -0.11058299936E+04  0.11058299936E+04  0.00000000000E+00 0. -1.
         23    2    1    2    0    0  0.17377414028E+03 -0.14750603582E+02 -0.65277292824E+03  0.68183124943E+03  0.91467615694E+02 0.  0.
         23    2    1    2    0    0 -0.12890356946E+03  0.48391278332E+02 -0.38112058856E+03  0.41439698338E+03  0.86683970685E+02 0.  0.
        -11    1    4    4    0    0 -0.75524957746E+02 -0.16354343320E+02 -0.15467883156E+03  0.17290756120E+03  0.00000000000E+00 0.  1.
         11    1    4    4    0    0 -0.53378611712E+02  0.64745621652E+02 -0.22644175700E+03  0.24148942218E+03  0.00000000000E+00 0. -1.
        -13    1    3    3    0    0  0.22113261052E+02  0.27652250944E+02 -0.18217573120E+03  0.18558459078E+03  0.00000000000E+00 0.  1.
         13    1    3    3    0    0  0.15166087923E+03 -0.42402854525E+02 -0.47059719704E+03  0.49624665865E+03  0.00000000000E+00 0. -1.
          2    1    1    2  501    0 -0.44870570823E+02 -0.33640674750E+02 -0.21483301464E+02  0.60054936229E+02  0.00000000000E+00 0. -1.
<scales pt_clust_5="13000.00000" pt_clust_6="13000.00000" pt_clust_7="13000.00000" pt_clust_8="13000.00000" pt_clust_9="56.08086"></scales>
<clustering>
<clus scale="   56.081">  1  9  2 -1</clus>
<clus scale="   86.684">  5  6 -1 -1</clus>
<clus scale="   91.468">  7  8 -1 -1</clus>
<clus scale="  178.341">  1  5  2 -1</clus>
<clus scale="   56.081">  1  5  2 -1</clus>
</clustering>
</event>
<event>
 9    1  0.1399746E-005  0.1056276E+03  0.7546771E-02  0.1269180E+00
          3   -1    0    0  502    0 -0.00000000000E+00  0.00000000000E+00  0.34721270013E+03  0.34721270013E+03  0.00000000000E+00 0. -1.
         21   -1    0    0  501  502  0.00000000000E+00 -0.00000000000E+00 -0.49289435756E+03  0.49289435756E+03  0.00000000000E+00 0.  1.
         23    2    1    2    0    0  0.39509593164E+02 -0.34910064235E+02  0.31429641550E+03  0.33135496181E+03  0.90742235934E+02 0.  0.
         23    2    1    2    0    0 -0.73277028255E+02 -0.27805559438E+00 -0.12928118319E+03  0.17447844102E+03  0.91430311543E+02 0.  0.
        -11    1    4    4    0    0 -0.29124861890E+02  0.13878417639E+02 -0.12362869410E+03  0.12776901839E+03  0.00000000000E+00 0.  1.
         11    1    4    4    0    0 -0.44152166365E+02 -0.14156473234E+02 -0.56524890880E+01  0.46709422625E+02  0.00000000000E+00 0. -1.
        -11    1    3    3    0    0  0.60966035817E+02 -0.71659042830E+01  0.13017340316E+03  0.14392123748E+03  0.00000000000E+00 0. -1.
         11    1    3    3    0    0 -0.21456442653E+02 -0.27744159952E+02  0.18412301234E+03  0.18743372433E+03  0.00000000000E+00 0.  1.
          3    1    1    2  501    0  0.33767435091E+02  0.35188119830E+02 -0.33069688974E+03  0.33427365486E+03  0.00000000000E+00 0. -1.
<scales pt_clust_5="13000.00000" pt_clust_6="13000.00000" pt_clust_7="13000.00000" pt_clust_8="13000.00000" pt_clust_9="48.76929"></scales>
<clustering>
<clus scale="   48.769">  2  9  1 -1</clus>
<clus scale="   90.742">  7  8 -1 -1</clus>
<clus scale="   91.430">  5  6 -1 -1</clus>
<clus scale="  105.033">  1  7  2 -1</clus>
<clus scale="   48.769">  2  5  1 -1</clus>
</clustering>
</event>
<event>
 9    1  0.1399746E-005  0.9309690E+02  0.7546771E-02  0.1295914E+00
         21   -1    0    0  501  502  0.00000000000E+00  0.00000000000E+00  0.20347121509E+02  0.20347121509E+02  0.00000000000E+00 0.  1.
          2   -1    0    0  502    0 -0.00000000000E+00 -0.00000000000E+00 -0.57179867845E+03  0.57179867845E+03  0.00000000000E+00 0. -1.
         23    2    1    2    0    0  0.23757548242E+02 -0.10981949345E+02 -0.30108904476E+03  0.31575819175E+03  0.91452711700E+02 0.  0.
         23    2    1    2    0    0 -0.87974288887E+01 -0.47979109721E+01 -0.22589991100E+03  0.24365798830E+03  0.90763598244E+02 0.  0.
        -11    1    4    4    0    0  0.34061772392E+02 -0.26253304299E+02 -0.95791851704E+02  0.10500247225E+03  0.00000000000E+00 0.  1.
         11    1    4    4    0    0 -0.42859201281E+02  0.21455393327E+02 -0.13010805929E+03  0.13865551605E+03  0.00000000000E+00 0. -1.
        -11    1    3    3    0    0  0.24561769840E+02  0.35140658609E+02 -0.90036599701E+02  0.99723295728E+02  0.00000000000E+00 0.  1.
         11    1    3    3    0    0 -0.80422159793E+00 -0.46122607954E+02 -0.21105244506E+03  0.21603489603E+03  0.00000000000E+00 0. -1.
          2    1    1    2  501    0 -0.14960119353E+02  0.15779860317E+02 -0.24462601190E+02  0.32729619913E+02  0.00000000000E+00 0. -1.
<scales pt_clust_5="13000.00000" pt_clust_6="13000.00000" pt_clust_7="13000.00000" pt_clust_8="13000.00000" pt_clust_9="21.74418"></scales>
<clustering>
<clus scale="   21.744">  1  9  2 -1</clus>
<clus scale="   90.764">  5  6 -1 -1</clus>
<clus scale="   91.453">  7  8 -1 -1</clus>
<clus scale="   92.420">  1  5  2 -1</clus>
<clus scale="   21.744">  1  5  2 -1</clus>
</clustering>
</event>
<event>
 9    1  0.1399746E-005  0.9961296E+02  0.7546771E-02  0.1281146E+00
         21   -1    0    0  501  502  0.00000000000E+00  0.00000000000E+00  0.53753487480E+03  0.53753487480E+03  0.00000000000E+00 0. -1.
          2   -1    0    0  502    0 -0.00000000000E+00 -0.00000000000E+00 -0.77955278855E+02  0.77955278855E+02  0.00000000000E+00 0. -1.
         23    2    1    2    0    0  0.31427792140E+02 -0.38223591387E+02 -0.23211150711E+02  0.10629902425E+03  0.91170038840E+02 0.  0.
         23    2    1    2    0    0 -0.27663966815E+01 -0.61080344603E+01  0.18019879728E+03  0.20202886533E+03  0.91099368014E+02 0.  0.
        -11    1    4    4    0    0 -0.37687232446E+02 -0.19176969995E+02  0.14392827305E+03  0.15001143773E+03  0.00000000000E+00 0. -1.
         11    1    4    4    0    0  0.34920835764E+02  0.13068935535E+02  0.36270524224E+02  0.52017427599E+02  0.00000000000E+00 0.  1.
        -11    1    3    3    0    0 -0.33810879037E+01  0.27785381239E+02  0.50973652869E+00  0.27994981645E+02  0.00000000000E+00 0.  1.
         11    1    3    3    0    0  0.34808880044E+02 -0.66008972626E+02 -0.23720887239E+02  0.78304042606E+02  0.00000000000E+00 0. -1.
          2    1    1    2  501    0 -0.28661395459E+02  0.44331625847E+02  0.30259194938E+03  0.30716226407E+03  0.00000000000E+00 0. -1.
<scales pt_clust_5="13000.00000" pt_clust_6="13000.00000" pt_clust_7="13000.00000" pt_clust_8="13000.00000" pt_clust_9="52.78985"></scales>
<clustering>
<clus scale="   52.790">  1  9  2 -1</clus>
<clus scale="   91.099">  5  6 -1 -1</clus>
<clus scale="   91.170">  7  8 -1 -1</clus>
<clus scale="   99.548">  1  5  2 -1</clus>
<clus scale="   52.790">  1  5  2 -1</clus>
</clustering>
</event>
<event>
 9    1  0.1399746E-005  0.1443142E+03  0.7546771E-02  0.1207663E+00
         21   -1    0    0  501  502  0.00000000000E+00  0.00000000000E+00  0.93228789661E+02  0.93228789661E+02  0.00000000000E+00 0. -1.
         -3   -1    0    0    0  501 -0.00000000000E+00 -0.00000000000E+00 -0.32917063583E+03  0.32917063583E+03  0.00000000000E+00 0.  1.
         23    2    1    2    0    0  0.20328995517E+02  0.96649769640E+02 -0.14406203911E+03  0.19728719323E+03  0.91727419398E+02 0.  0.
         23    2    1    2    0    0 -0.15883721806E+02 -0.13261573007E+03 -0.96573875961E+02  0.18856985891E+03  0.91612519289E+02 0.  0.
        -13    1    4    4    0    0 -0.43584641206E+02 -0.87952039780E+02 -0.27812226654E+02  0.10202304741E+03  0.00000000000E+00 0. -1.
         13    1    4    4    0    0  0.27700919400E+02 -0.44663690289E+02 -0.68761649307E+02  0.86546811503E+02  0.00000000000E+00 0.  1.
        -13    1    3    3    0    0 -0.35604843944E+01  0.95614790614E+02 -0.67543742231E+02  0.11711969240E+03  0.00000000000E+00 0. -1.
         13    1    3    3    0    0  0.23889479911E+02  0.10349790260E+01 -0.76518296876E+02  0.80167500827E+02  0.00000000000E+00 0.  1.
         -3    1    1    2    0  502 -0.44452737106E+01  0.35965960429E+02  0.46940688945E+01  0.36542373360E+02  0.00000000000E+00 0.  1.
<scales pt_clust_5="13000.00000" pt_clust_6="13000.00000" pt_clust_7="13000.00000" pt_clust_8="13000.00000" pt_clust_9="36.23963"></scales>
<clustering>
<clus scale="   36.240">  1  9  2 -1</clus>
<clus scale="   91.613">  5  6 -1 -1</clus>
<clus scale="   91.727">  7  8 -1 -1</clus>
<clus scale="  144.241">  1  5  2 -1</clus>
<clus scale="   36.240">  1  5  2 -1</clus>
</clustering>
</event>
<event>
 9    1  0.1399746E-005  0.1127594E+03  0.7546771E-02  0.1256180E+00
          3   -1    0    0  502    0 -0.00000000000E+00  0.00000000000E+00  0.44492146545E+03  0.44492146545E+03  0.00000000000E+00 0. -1.
         21   -1    0    0  501  502  0.00000000000E+00 -0.00000000000E+00 -0.49550015915E+02  0.49550015915E+02  0.00000000000E+00 0.  1.
         23    2    1    2    0    0  0.25936373252E+02 -0.71651299551E+02  0.28158627291E+03  0.30559129469E+03  0.91041782252E+02 0.  0.
         23    2    1    2    0    0 -0.15556090925E+02  0.49204562431E+02  0.12472448778E+03  0.16183809362E+03  0.89287679807E+02 0.  0.
        -11    1    3    3    0    0  0.49545738540E+02 -0.77490252693E+02  0.19412700016E+03  0.21481343455E+03  0.00000000000E+00 0.  1.
         11    1    3    3    0    0 -0.23609365288E+02  0.58389531420E+01  0.87459272744E+02  0.90777860142E+02  0.00000000000E+00 0. -1.
        -13    1    4    4    0    0 -0.27276644527E+02 -0.11837088705E+02  0.79761263348E+02  0.85123387717E+02  0.00000000000E+00 0. -1.
         13    1    4    4    0    0  0.11720553603E+02  0.61041651136E+02  0.44963224429E+02  0.76714705899E+02  0.00000000000E+00 0.  1.
          3    1    1    2  501    0 -0.10380282327E+02  0.22446737120E+02 -0.10939311149E+02  0.27042093058E+02  0.00000000000E+00 0. -1.
<scales pt_clust_5="13000.00000" pt_clust_6="13000.00000" pt_clust_7="13000.00000" pt_clust_8="13000.00000" pt_clust_9="24.73067"></scales>
<clustering>
<clus scale="   24.731">  2  9  1 -1</clus>
<clus scale="   89.288">  7  8 -1 -1</clus>
<clus scale="   91.042">  5  6 -1 -1</clus>
<clus scale="  111.348">  2  7  1 -1</clus>
<clus scale="   24.731">  2  5  1 -1</clus>
</clustering>
</event>
<event>
 9    1  0.1399746E-005  0.2057563E+03  0.7546771E-02  0.1145271E+00
         21   -1    0    0  501  502  0.00000000000E+00  0.00000000000E+00  0.26750906011E+03  0.26750906011E+03  0.00000000000E+00 0.  1.
          2   -1    0    0  502    0 -0.00000000000E+00 -0.00000000000E+00 -0.31759000185E+03  0.31759000185E+03  0.00000000000E+00 0. -1.
         23    2    1    2    0    0  0.17720154151E+03 -0.22421871422E+02 -0.15170720911E+03  0.24986793319E+03  0.86693599009E+02 0.  0.
         23    2    1    2    0    0 -0.21342765603E+03  0.12339096899E+01  0.14625167085E+03  0.27397194390E+03  0.90100987376E+02 0.  0.
        -11    1    4    4    0    0 -0.24392152091E+02  0.26988585954E+02  0.45391344404E+02  0.58169880542E+02  0.00000000000E+00 0. -1.
         11    1    4    4    0    0 -0.18903550394E+03 -0.25754676264E+02  0.10086032645E+03  0.21580206336E+03  0.00000000000E+00 0.  1.
        -13    1    3    3    0    0  0.14145299875E+03 -0.12172342719E+01 -0.69187943276E+02  0.15747191499E+03  0.00000000000E+00 0.  1.
         13    1    3    3    0    0  0.35748542760E+02 -0.21204637150E+02 -0.82519265831E+02  0.92396018201E+02  0.00000000000E+00 0. -1.
          2    1    1    2  501    0  0.36226114514E+02  0.21187961732E+02 -0.44625403482E+02  0.61259184872E+02  0.00000000000E+00 0. -1.
<scales pt_clust_5="13000.00000" pt_clust_6="13000.00000" pt_clust_7="13000.00000" pt_clust_8="13000.00000" pt_clust_9="41.96740"></scales>
<clustering>
<clus scale="   41.967">  1  9  2 -1</clus>
<clus scale="   86.694">  7  8 -1 -1</clus>
<clus scale="   90.101">  5  6 -1 -1</clus>
<clus scale="  204.287">  2  7  1 -1</clus>
<clus scale="   41.967">  1  5  2 -1</clus>
</clustering>
</event>
<event>
 9    1  0.1399746E-005  0.9327851E+02  0.7546771E-02  0.1295978E+00
         21   -1    0    0  501  502  0.00000000000E+00  0.00000000000E+00  0.43269499355E+02  0.43269499355E+02  0.00000000000E+00 0. -1.
         -3   -1    0    0    0  501 -0.00000000000E+00 -0.00000000000E+00 -0.58473067555E+03  0.58473067555E+03  0.00000000000E+00 0.  1.
         23    2    1    2    0    0  0.15442401967E+02 -0.28095056824E+02 -0.27925502687E+03  0.29603765886E+03  0.92882320353E+02 0.  0.
         23    2    1    2    0    0  0.41850160850E+01 -0.52098810605E+02 -0.20822856562E+03  0.23332240526E+03  0.91369627507E+02 0.  0.
        -11    1    4    4    0    0  0.44450533501E+02 -0.46501602267E+02 -0.11917471268E+03  0.13542843528E+03  0.00000000000E+00 0. -1.
         11    1    4    4    0    0 -0.40265517416E+02 -0.55972083378E+01 -0.89053852941E+02  0.97893969975E+02  0.00000000000E+00 0.  1.
        -11    1    3    3    0    0  0.13508460696E+02  0.33761642767E+02 -0.10526871866E+03  0.11137248386E+03  0.00000000000E+00 0.  1.
         11    1    3    3    0    0  0.19339412709E+01 -0.61856699591E+02 -0.17398630822E+03  0.18466517501E+03  0.00000000000E+00 0. -1.
         -3    1    1    2    0  502 -0.19627418052E+02  0.80193867429E+02 -0.53977583699E+02  0.98640110779E+02  0.00000000000E+00 0.  1.
<scales pt_clust_5="13000.00000" pt_clust_6="13000.00000" pt_clust_7="13000.00000" pt_clust_8="13000.00000" pt_clust_9="82.56084"></scales>
<clustering>
<clus scale="   82.561">  1  9  2 -1</clus>
<clus scale="   91.370">  5  6 -1 -1</clus>
<clus scale="   91.772">  1  5  2 -1</clus>
<clus scale="   92.882">  7  8 -1 -1</clus>
<clus scale="   82.561">  1  5  2 -1</clus>
</clustering>
</event>
<event>
 9    1  0.1399746E-005  0.1077844E+03  0.7546771E-02  0.1265170E+00
         21   -1    0    0  501  502  0.00000000000E+00  0.00000000000E+00  0.33359439870E+02  0.33359439870E+02  0.00000000000E+00 0.  1.
          2   -1    0    0  502    0 -0.00000000000E+00 -0.00000000000E+00 -0.57102920636E+03  0.57102920636E+03  0.00000000000E+00 0. -1.
         23    2    1    2    0    0 -0.47266050893E+02 -0.31407873574E+02 -0.34055601108E+03  0.35759555974E+03  0.93143188561E+02 0.  0.
         23    2    1    2    0    0  0.16606361881E+02  0.55934807236E+02 -0.15089833430E+03  0.18615108657E+03  0.92073046129E+02 0.  0.
        -11    1    4    4    0    0  0.26859973377E+02 -0.18515890525E+01 -0.11329172262E+03  0.11644698780E+03  0.00000000000E+00 0. -1.
         11    1    4    4    0    0 -0.10253611496E+02  0.57786396289E+02 -0.37606611672E+02  0.69704098776E+02  0.00000000000E+00 0.  1.
        -13    1    3    3    0    0  0.43177159919E+01  0.29088210539E+02 -0.10078762105E+03  0.10499005296E+03  0.00000000000E+00 0.  1.
         13    1    3    3    0    0 -0.51583766885E+02 -0.60496084113E+02 -0.23976839003E+03  0.25260550678E+03  0.00000000000E+00 0. -1.
          2    1    1    2  501    0  0.30659689012E+02 -0.24526933662E+02 -0.46215421120E+02  0.60641999922E+02  0.00000000000E+00 0. -1.
<scales pt_clust_5="13000.00000" pt_clust_6="13000.00000" pt_clust_7="13000.00000" pt_clust_8="13000.00000" pt_clust_9="39.26305"></scales>
<clustering>
<clus scale="   39.263">  1  9  2 -1</clus>
<clus scale="   92.073">  5  6 -1 -1</clus>
<clus scale="   93.143">  7  8 -1 -1</clus>
<clus scale="  106.861">  1  5  2 -1</clus>
<clus scale="   39.263">  1  5  2 -1</clus>
</clustering>
</event>
<event>
 9    1  0.1399746E-005  0.9849637E+02  0.7546771E-02  0.1285577E+00
         21   -1    0    0  501  502  0.00000000000E+00  0.00000000000E+00  0.15567285896E+03  0.15567285896E+03  0.00000000000E+00 0. -1.
         -3   -1    0    0    0  501 -0.00000000000E+00 -0.00000000000E+00 -0.20781773473E+03  0.20781773473E+03  0.00000000000E+00 0.  1.
         23    2    1    2    0    0  0.84535784021E+00  0.30149782307E+02 -0.15741345493E+03  0.18353748721E+03  0.89427565186E+02 0.  0.
         23    2    1    2    0    0 -0.38957404938E+02 -0.35496919731E+02  0.81337965650E+02  0.13463429939E+03  0.93449554346E+02 0.  0.
        -13    1    3    3    0    0  0.23516982355E+02  0.34642909698E+02 -0.15469992586E+03  0.16026617458E+03  0.00000000000E+00 0.  1.
         13    1    3    3    0    0 -0.22671624514E+02 -0.44931273906E+01 -0.27135290730E+01  0.23271312638E+02  0.00000000000E+00 0. -1.
        -13    1    4    4    0    0 -0.64634112447E+02 -0.35769448138E+02  0.80045870077E+02  0.10892365780E+03  0.00000000000E+00 0. -1.
         13    1    4    4    0    0  0.25676707509E+02  0.27252840675E+00  0.12920955728E+01  0.25710641595E+02  0.00000000000E+00 0.  1.
         -3    1    1    2    0  502  0.38112047098E+02  0.53471374240E+01  0.23930613517E+02  0.45318807089E+02  0.00000000000E+00 0.  1.
<scales pt_clust_5="13000.00000" pt_clust_6="13000.00000" pt_clust_7="13000.00000" pt_clust_8="13000.00000" pt_clust_9="38.48532"></scales>
<clustering>
<clus scale="   38.485">  1  9  2 -1</clus>
<clus scale="   89.428">  5  6 -1 -1</clus>
<clus scale="   93.450">  7  8 -1 -1</clus>
<clus scale="   94.689">  2  5  1 -1</clus>
<clus scale="   38.485">  1  5  2 -1</clus>
</clustering>
</event>
<event>
 9    1  0.1399746E-005  0.1149846E+03  0.7546771E-02  0.1251872E+00
         21   -1    0    0  501  502  0.00000000000E+00  0.00000000000E+00  0.48815267494E+02  0.48815267494E+02  0.00000000000E+00 0.  1.
         -1   -1    0    0    0  501 -0.00000000000E+00 -0.00000000000E+00 -0.57249758719E+03  0.57249758719E+03  0.00000000000E+00 0.  1.
         23    2    1    2    0    0 -0.19296516751E+02  0.75545453536E+02 -0.34513981626E+03  0.36497735831E+03  0.89484681401E+02 0.  0.
         23    2    1    2    0    0 -0.42694070707E+02 -0.62188340981E+02 -0.88755750658E+02  0.14641322218E+03  0.88707806453E+02 0.  0.
        -11    1    4    4    0    0 -0.54548375235E+02 -0.73992145453E+01 -0.65923871884E+02  0.85884984140E+02  0.00000000000E+00 0.  1.
         11    1    4    4    0    0  0.11854304528E+02 -0.54789126435E+02 -0.22831878774E+02  0.60528238036E+02  0.00000000000E+00 0. -1.
        -11    1    3    3    0    0 -0.51490070756E+02  0.38913376289E+02 -0.24830068998E+03  0.25655157549E+03  0.00000000000E+00 0.  1.
         11    1    3    3    0    0  0.32193554005E+02  0.36632077247E+02 -0.96839126277E+02  0.10842578282E+03  0.00000000000E+00 0. -1.
         -1    1    1    2    0  502  0.61990587459E+02 -0.13357112555E+02 -0.89786752775E+02  0.10992227419E+03  0.00000000000E+00 0.  1.
<scales pt_clust_5="13000.00000" pt_clust_6="13000.00000" pt_clust_7="13000.00000" pt_clust_8="13000.00000" pt_clust_9="63.41329"></scales>
<clustering>
<clus scale="   63.413">  1  9  2 -1</clus>
<clus scale="   88.708">  5  6 -1 -1</clus>
<clus scale="   89.485">  7  8 -1 -1</clus>
<clus scale="  114.381">  1  5  2 -1</clus>
<clus scale="   63.413">  1  5  2 -1</clus>
</clustering>
</event>
<event>
 9    1  0.1399746E-005  0.1189442E+03  0.7546771E-02  0.1246857E+00
         21   -1    0    0  501  502  0.00000000000E+00  0.00000000000E+00  0.19852363055E+03  0.19852363055E+03  0.00000000000E+00 0.  1.
         -2   -1    0    0    0  501 -0.00000000000E+00 -0.00000000000E+00 -0.14518018160E+03  0.14518018160E+03  0.00000000000E+00 0.  1.
         23    2    1    2    0    0  0.92549774820E+02 -0.16987012854E+02 -0.64552470503E+02  0.14226805418E+03  0.84965630499E+02 0.  0.
         23    2    1    2    0    0 -0.42403040764E+02 -0.55255954313E+00  0.42458966836E+02  0.10916948376E+03  0.91196979843E+02 0.  0.
        -11    1    3    3    0    0  0.27010936365E+02  0.69572779617E+01 -0.66869655132E+02  0.72453745089E+02  0.00000000000E+00 0. -1.
         11    1    3    3    0    0  0.65538838455E+02 -0.23944290816E+02  0.23171846290E+01  0.69814309087E+02  0.00000000000E+00 0.  1.
        -13    1    4    4    0    0 -0.70714153362E+02 -0.68578082948E+01  0.35111463568E+02  0.79248570298E+02  0.00000000000E+00 0.  1.
         13    1    4    4    0    0  0.28311112598E+02  0.63052487517E+01  0.73475032680E+01  0.29920913466E+02  0.00000000000E+00 0. -1.
         -2    1    1    2    0  502 -0.50146734056E+02  0.17539572398E+02  0.75436952616E+02  0.92266274209E+02  0.00000000000E+00 0.  1.
<scales pt_clust_5="13000.00000" pt_clust_6="13000.00000" pt_clust_7="13000.00000" pt_clust_8="13000.00000" pt_clust_9="53.12562"></scales>
<clustering>
<clus scale="   53.126">  1  9  2 -1</clus>
<clus scale="   84.966">  5  6 -1 -1</clus>
<clus scale="   91.197">  7  8 -1 -1</clus>
<clus scale="  114.237">  2  5  1 -1</clus>
<clus scale="   53.126">  1  5  2 -1</clus>
</clustering>
</event>
<event>
 9    1  0.1399746E-005  0.9056086E+02  0.7546771E-02  0.1302680E+00
          1   -1    0    0  502    0 -0.00000000000E+00  0.00000000000E+00  0.49748049588E+02  0.49748049588E+02  0.00000000000E+00 0. -1.
         21   -1    0    0  501  502  0.00000000000E+00 -0.00000000000E+00 -0.24870714867E+03  0.24870714867E+03  0.00000000000E+00 0. -1.
         23    2    1    2    0    0 -0.16009616518E+00  0.99509740251E+01 -0.47350233447E+02  0.10210915619E+03  0.89917671542E+02 0.  0.
         23    2    1    2    0    0 -0.21990712784E+02  0.46777027152E+00 -0.80875996690E+02  0.12149721229E+03  0.87959283171E+02 0.  0.
        -13    1    3    3    0    0  0.26059327737E+02 -0.13485350919E+02 -0.58307959860E+02  0.65274508305E+02  0.00000000000E+00 0.  1.
         13    1    3    3    0    0 -0.26219423902E+02  0.23436324944E+02  0.10957726413E+02  0.36834647885E+02  0.00000000000E+00 0. -1.
        -13    1    4    4    0    0 -0.25881662105E+02 -0.33218501029E+02 -0.76474884686E+02  0.87302561427E+02  0.00000000000E+00 0.  1.
         13    1    4    4    0    0  0.38909493211E+01  0.33686271301E+02 -0.44011120038E+01  0.34194650863E+02  0.00000000000E+00 0. -1.
          1    1    1    2  501    0  0.22150808949E+02 -0.10418744297E+02 -0.70732868948E+02  0.74848829780E+02  0.00000000000E+00 0. -1.
<scales pt_clust_5="13000.00000" pt_clust_6="13000.00000" pt_clust_7="13000.00000" pt_clust_8="13000.00000" pt_clust_9="24.47874"></scales>
<clustering>
<clus scale="   24.479">  2  9  1 -1</clus>
<clus scale="   87.959">  7  8 -1 -1</clus>
<clus scale="   88.617">  2  7  1 -1</clus>
<clus scale="   89.918">  5  6 -1 -1</clus>
<clus scale="   24.479">  2  5  1 -1</clus>
</clustering>
</event>
<event>
 9    1  0.1399746E-005  0.9478338E+02  0.7546771E-02  0.1294302E+00
          1   -1    0    0  502    0 -0.00000000000E+00  0.00000000000E+00  0.29719366807E+03  0.29719366807E+03  0.00000000000E+00 0. -1.
         21   -1    0    0  501  502  0.00000000000E+00 -0.00000000000E+00 -0.68531528209E+02  0.68531528209E+02  0.00000000000E+00 0.  1.
         23    2    1    2    0    0  0.10606514428E+02 -0.26464148296E+01  0.13301197531E+03  0.15862811643E+03  0.85739093095E+02 0.  0.
         23    2    1    2    0    0 -0.58344362863E+02 -0.23558777788E+02  0.10453653471E+03  0.15191935004E+03  0.90512546854E+02 0.  0.
        -11    1    3    3    0    0 -0.31409509189E+02  0.34984294030E+01  0.99903648921E+02  0.10478327798E+03  0.00000000000E+00 0.  1.
         11    1    3    3    0    0  0.42016023617E+02 -0.61448442326E+01  0.33108326390E+02  0.53844838449E+02  0.00000000000E+00 0. -1.
        -13    1    4    4    0    0 -0.25613897435E+02 -0.37212952451E+02  0.10722500796E+03  0.11635324621E+03  0.00000000000E+00 0.  1.
         13    1    4    4    0    0 -0.32730465427E+02  0.13654174663E+02 -0.26884732519E+01  0.35566103824E+02  0.00000000000E+00 0. -1.
          1    1    1    2  501    0  0.47737848435E+02  0.26205192618E+02 -0.88863701577E+01  0.55177729819E+02  0.00000000000E+00 0. -1.
<scales pt_clust_5="13000.00000" pt_clust_6="13000.00000" pt_clust_7="13000.00000" pt_clust_8="13000.00000" pt_clust_9="54.45745"></scales>
<clustering>
<clus scale="   54.457">  2  9  1 -1</clus>
<clus scale="   85.739">  5  6 -1 -1</clus>
<clus scale="   90.236">  1  5  2 -1</clus>
<clus scale="   90.513">  7  8 -1 -1</clus>
<clus scale="   54.457">  2  5  1 -1</clus>
</clustering>
</event>
<event>
 9    1  0.1399746E-005  0.1258327E+03  0.7546771E-02  0.1236149E+00
         21   -1    0    0  501  502  0.00000000000E+00  0.00000000000E+00  0.58882639621E+02  0.58882639621E+02  0.00000000000E+00 0.  1.
          1   -1    0    0  502    0 -0.00000000000E+00 -0.00000000000E+00 -0.49672134066E+03  0.49672134066E+03  0.00000000000E+00 0. -1.
         23    2    1    2    0    0 -0.76291987127E+02  0.30208759222E+02 -0.35175068202E+03  0.37157473895E+03  0.87213576324E+02 0.  0.
         23    2    1    2    0    0  0.68544291565E+02 -0.49863619926E+02 -0.97036692386E+02  0.16023399424E+03  0.95258137414E+02 0.  0.
        -11    1    3    3    0    0 -0.41391120988E+02 -0.24790189551E+02 -0.93232832523E+02  0.10497685200E+03  0.00000000000E+00 0.  1.
         11    1    3    3    0    0 -0.34900866140E+02  0.54998948773E+02 -0.25851784949E+03  0.26659788696E+03  0.00000000000E+00 0. -1.
        -13    1    4    4    0    0  0.22675138304E+02 -0.27691206815E+02 -0.10290384042E+03  0.10895028777E+03  0.00000000000E+00 0. -1.
         13    1    4    4    0    0  0.45869153261E+02 -0.22172413111E+02  0.58671480295E+01  0.51283706477E+02  0.00000000000E+00 0.  1.
          1    1    1    2  501    0  0.77476955620E+01  0.19654860704E+02  0.10948673359E+02  0.23795247091E+02  0.00000000000E+00 0. -1.
<scales pt_clust_5="13000.00000" pt_clust_6="13000.00000" pt_clust_7="13000.00000" pt_clust_8="13000.00000" pt_clust_9="21.12677"></scales>
<clustering>
<clus scale="   21.127">  1  9  2 -1</clus>
<clus scale="   87.214">  5  6 -1 -1</clus>
<clus scale="   95.258">  7  8 -1 -1</clus>
<clus scale="  119.858">  2  5  1 -1</clus>
<clus scale="   21.127">  1  5  2 -1</clus>
</clustering>
</event>
<event>
 9    1  0.1399746E-005  0.1206776E+03  0.7546771E-02  0.1244627E+00
          3   -1    0    0  502    0 -0.00000000000E+00  0.00000000000E+00  0.18412591603E+03  0.18412591603E+03  0.00000000000E+00 0. -1.
         21   -1    0    0  501  502  0.00000000000E+00 -0.00000000000E+00 -0.24127753892E+03  0.24127753892E+03  0.00000000000E+00 0.  1.
         23    2    1    2    0    0  0.56190627984E+02  0.53090016686E+02  0.13446221393E+03  0.17768294992E+03  0.86690294574E+02 0.  0.
         23    2    1    2    0    0 -0.63531361999E+02 -0.11438348811E+02 -0.13928954833E+03  0.18044064934E+03  0.94816559111E+02 0.  0.
        -13    1    4    4    0    0 -0.37968508617E+02  0.49362071980E+00 -0.14648540121E+03  0.15132687823E+03  0.00000000000E+00 0.  1.
         13    1    4    4    0    0 -0.25562853382E+02 -0.11931969530E+02  0.71958528786E+01  0.29113771115E+02  0.00000000000E+00 0. -1.
        -13    1    3    3    0    0  0.32408359625E+02  0.73266111043E+02  0.71327892811E+02  0.10726552612E+03  0.00000000000E+00 0. -1.
         13    1    3    3    0    0  0.23782268359E+02 -0.20176094357E+02  0.63134321121E+02  0.70417423804E+02  0.00000000000E+00 0.  1.
          3    1    1    2  501    0  0.73407340151E+01 -0.41651667876E+02 -0.52324288496E+02  0.67279855673E+02  0.00000000000E+00 0. -1.
<scales pt_clust_5="13000.00000" pt_clust_6="13000.00000" pt_clust_7="13000.00000" pt_clust_8="13000.00000" pt_clust_9="42.29359"></scales>
<clustering>
<clus scale="   42.294">  2  9  1 -1</clus>
<clus scale="   86.690">  7  8 -1 -1</clus>
<clus scale="   94.817">  5  6 -1 -1</clus>
<clus scale="  114.403">  1  7  2 -1</clus>
<clus scale="   42.294">  2  5  1 -1</clus>
</clustering>
</event>
<event>
 9    1  0.1399746E-005  0.1585322E+03  0.7546771E-02  0.1192665E+00
         -2   -1    0    0    0  501 -0.00000000000E+00  0.00000000000E+00  0.67927628710E+03  0.67927628710E+03  0.00000000000E+00 0.  1.
         21   -1    0    0  501  502  0.00000000000E+00 -0.00000000000E+00 -0.46255208155E+02  0.46255208155E+02  0.00000000000E+00 0. -1.
         23    2    1    2    0    0  0.58674394978E+02 -0.11932120444E+03  0.34576538907E+03  0.38551325321E+03  0.10670768325E+03 0.  0.
         23    2    1    2    0    0 -0.67110609713E+02  0.78612121630E+02  0.22785723427E+03  0.26751599607E+03  0.94668840408E+02 0.  0.
        -11    1    3    3    0    0 -0.20132241443E+02  0.11688847336E+01  0.16182898893E+02  0.25856520524E+02  0.00000000000E+00 0. -1.
         11    1    3    3    0    0  0.78806636421E+02 -0.12049008918E+03  0.32958249018E+03  0.35965673268E+03  0.00000000000E+00 0.  1.
        -11    1    4    4    0    0 -0.50570061247E+02  0.66115486204E+02  0.23190763325E+03  0.24639346373E+03  0.00000000000E+00 0.  1.
         11    1    4    4    0    0 -0.16540548466E+02  0.12496635426E+02 -0.40503989839E+01  0.21122532340E+02  0.00000000000E+00 0. -1.
         -2    1    1    2    0  502  0.84362147348E+01  0.40709082813E+02  0.59398455610E+02  0.72502245975E+02  0.00000000000E+00 0.  1.
<scales pt_clust_5="13000.00000" pt_clust_6="13000.00000" pt_clust_7="13000.00000" pt_clust_8="13000.00000" pt_clust_9="41.57402"></scales>
<clustering>
<clus scale="   41.574">  2  9  1 -1</clus>
<clus scale="   94.669">  7  8 -1 -1</clus>
<clus scale="  106.708">  5  6 -1 -1</clus>
<clus scale="  150.692">  2  7  1 -1</clus>
<clus scale="   41.574">  2  5  1 -1</clus>
</clustering>
</event>
<event>
 9    1  0.1399746E-005  0.1050309E+03  0.7546771E-02  0.1270323E+00
         -1   -1    0    0    0  501 -0.00000000000E+00  0.00000000000E+00  0.17994144296E+03  0.17994144296E+03  0.00000000000E+00 0.  1.
         21   -1    0    0  501  502  0.00000000000E+00 -0.00000000000E+00 -0.93443354041E+02  0.93443354041E+02  0.00000000000E+00 0. -1.
         23    2    1    2    0    0  0.36839490773E+02 -0.46681261013E+02  0.10218344548E+03  0.14911776482E+03  0.90875536010E+02 0.  0.
         23    2    1    2    0    0 -0.30823073575E+02  0.22050894971E+02 -0.11373512439E+02  0.98548474549E+02  0.90255976074E+02 0.  0.
        -11    1    4    4    0    0 -0.17700150770E+02 -0.27908960256E+02  0.19498091887E+02  0.38371616946E+02  0.00000000000E+00 0. -1.
         11    1    4    4    0    0 -0.13122922805E+02  0.49959855227E+02 -0.30871604326E+02  0.60176857602E+02  0.00000000000E+00 0.  1.
        -13    1    3    3    0    0 -0.70608016116E+01 -0.26835776946E+02  0.96731155055E+02  0.10063264978E+03  0.00000000000E+00 0. -1.
         13    1    3    3    0    0  0.43900292385E+02 -0.19845484067E+02  0.54522904198E+01  0.48485115037E+02  0.00000000000E+00 0.  1.
         -1    1    1    2    0  502 -0.60164171977E+01  0.24630366042E+02 -0.43118441144E+01  0.25718557637E+02  0.00000000000E+00 0.  1.
<scales pt_clust_5="13000.00000" pt_clust_6="13000.00000" pt_clust_7="13000.00000" pt_clust_8="13000.00000" pt_clust_9="25.35453"></scales>
<clustering>
<clus scale="   25.355">  2  9  1 -1</clus>
<clus scale="   90.256">  5  6 -1 -1</clus>
<clus scale="   90.876">  7  8 -1 -1</clus>
<clus scale="  104.495">  2  5  1 -1</clus>
<clus scale="   25.355">  2  5  1 -1</clus>
</clustering>
</event>
<event>
 9    1  0.1399746E-005  0.1006687E+03  0.7546771E-02  0.1280500E+00
         21   -1    0    0  501  502  0.00000000000E+00  0.00000000000E+00  0.19111554619E+03  0.19111554619E+03  0.00000000000E+00 0.  1.
         -1   -1    0    0    0  501 -0.00000000000E+00 -0.00000000000E+00 -0.19472961483E+03  0.19472961483E+03  0.00000000000E+00 0.  1.
         23    2    1    2    0    0 -0.38340863615E+02  0.17425109692E+02 -0.15003992166E+03  0.17898178779E+03  0.88027529764E+02 0.  0.
         23    2    1    2    0    0  0.27175911019E+02 -0.41776591340E+02  0.68853921068E+02  0.12479598964E+03  0.91374848066E+02 0.  0.
        -11    1    4    4    0    0 -0.26017938724E+02 -0.42250065638E+01  0.50792050266E+02  0.57224262216E+02  0.00000000000E+00 0.  1.
         11    1    4    4    0    0  0.53193849744E+02 -0.37551584776E+02  0.18061870803E+02  0.67571727421E+02  0.00000000000E+00 0. -1.
        -13    1    3    3    0    0  0.13879555903E+01 -0.31885986218E+02 -0.32999013510E+02  0.45908359047E+02  0.00000000000E+00 0.  1.
         13    1    3    3    0    0 -0.39728819205E+02  0.49311095910E+02 -0.11704090815E+03  0.13307342874E+03  0.00000000000E+00 0. -1.
         -1    1    1    2    0  502  0.11164952595E+02  0.24351481648E+02  0.77571931948E+02  0.82067383600E+02  0.00000000000E+00 0.  1.
<scales pt_clust_5="13000.00000" pt_clust_6="13000.00000" pt_clust_7="13000.00000" pt_clust_8="13000.00000" pt_clust_9="26.78901"></scales>
<clustering>
<clus scale="   26.789">  1  9  2 -1</clus>
<clus scale="   88.028">  7  8 -1 -1</clus>
<clus scale="   91.375">  5  6 -1 -1</clus>
<clus scale="   97.640">  2  7  1 -1</clus>
<clus scale="   26.789">  1  5  2 -1</clus>
</clustering>
</event>
<event>
 9    1  0.1399746E-005  0.1981727E+03  0.7546771E-02  0.1168310E+00
          2   -1    0    0  502    0 -0.00000000000E+00  0.00000000000E+00  0.86990282346E+03  0.86990282346E+03  0.00000000000E+00 0. -1.
         21   -1    0    0  501  502  0.00000000000E+00 -0.00000000000E+00 -0.11095427307E+03  0.11095427307E+03  0.00000000000E+00 0. -1.
         23    2    1    2    0    0 -0.57069007873E+02  0.79963065073E+02  0.20907977891E+03  0.24797005361E+03  0.90132292221E+02 0.  0.
         23    2    1    2    0    0  0.12768187312E+03 -0.22127115696E+03  0.49645901970E+03  0.56613346678E+03  0.93658733372E+02 0.  0.
        -11    1    3    3    0    0 -0.41166709937E+01  0.78909085400E+02  0.10754810801E+03  0.13345480986E+03  0.00000000000E+00 0.  1.
         11    1    3    3    0    0 -0.52952336880E+02  0.10539796732E+01  0.10153167090E+03  0.11451524375E+03  0.00000000000E+00 0. -1.
        -13    1    4    4    0    0  0.24604982991E+02 -0.54145509737E+02  0.21413029669E+03  0.22223619276E+03  0.00000000000E+00 0.  1.
         13    1    4    4    0    0  0.10307689013E+03 -0.16712564723E+03  0.28232872302E+03  0.34389727402E+03  0.00000000000E+00 0. -1.
          2    1    1    2  501    0 -0.70612865244E+02  0.14130809189E+03  0.53409751775E+02  0.16675357614E+03  0.00000000000E+00 0. -1.
<scales pt_clust_5="13000.00000" pt_clust_6="13000.00000" pt_clust_7="13000.00000" pt_clust_8="13000.00000" pt_clust_9="174.64380"></scales>
<clustering>
<clus scale="   90.132">  5  6 -1 -1</clus>
<clus scale="   93.659">  7  8 -1 -1</clus>
<clus scale="  133.322">  1  5  2 -1</clus>
<clus scale="  174.644">  2  9  1 -1</clus>
<clus scale="  174.644">  2  5  1 -1</clus>
</clustering>
</event>
<event>
 9    1  0.1925423E-005  0.9929614E+02  0.7546771E-02  0.1281965E+00
          1   -1    0    0  502    0 -0.00000000000E+00  0.00000000000E+00  0.69585790099E+03  0.69585790099E+03  0.00000000000E+00 0. -1.
         21   -1    0    0  501  502  0.00000000000E+00 -0.00000000000E+00 -0.38369241445E+02  0.38369241445E+02  0.00000000000E+00 0.  1.
         23    2    1    2    0    0  0.32509998814E+02  0.16131399342E+02  0.51380275187E+03  0.52304095214E+03  0.90892506433E+02 0.  0.
         23    2    1    2    0    0 -0.42440893638E+02 -0.52266979349E+02  0.83764022180E+02  0.14051062750E+03  0.90519381602E+02 0.  0.
        -11    1    4    4    0    0 -0.11843416633E+02 -0.60714794707E+02  0.13365198604E+02  0.63286502096E+02  0.00000000000E+00 0.  1.
         11    1    4    4    0    0 -0.30597477005E+02  0.84478153585E+01  0.70398823576E+02  0.77224125403E+02  0.00000000000E+00 0. -1.
        -13    1    3    3    0    0  0.87688861530E+01 -0.37873264488E+02  0.20235299791E+03  0.20605342339E+03  0.00000000000E+00 0.  1.
         13    1    3    3    0    0  0.23741112661E+02  0.54004663830E+02  0.31144975396E+03  0.31698752876E+03  0.00000000000E+00 0. -1.
          1    1    1    2  501    0  0.99308948236E+01  0.36135580007E+02  0.59921885498E+02  0.70675562793E+02  0.00000000000E+00 0. -1.
<scales pt_clust_5="13000.00000" pt_clust_6="13000.00000" pt_clust_7="13000.00000" pt_clust_8="13000.00000" pt_clust_9="37.47536"></scales>
<clustering>
<clus scale="   37.475">  2  9  1 -1</clus>
<clus scale="   90.519">  5  6 -1 -1</clus>
<clus scale="   90.893">  7  8 -1 -1</clus>
<clus scale="   98.955">  2  5  1 -1</clus>
<clus scale="   37.475">  2  5  1 -1</clus>
</clustering>
</event>
<event>
 9    1  0.1399746E-005  0.1940218E+03  0.7546771E-02  0.1155067E+00
         21   -1    0    0  501  502  0.00000000000E+00  0.00000000000E+00  0.21427794307E+03  0.21427794307E+03  0.00000000000E+00 0. -1.
          2   -1    0    0  502    0 -0.00000000000E+00 -0.00000000000E+00 -0.61575532063E+03  0.61575532063E+03  0.00000000000E+00 0. -1.
         23    2    1    2    0    0 -0.14983004849E+03  0.58586369458E+02 -0.40199189598E+03  0.44244277704E+03  0.90976482702E+02 0.  0.
         23    2    1    2    0    0  0.17774981829E+03 -0.97150112343E+02 -0.12351617262E+03  0.25473609972E+03  0.92742079833E+02 0.  0.
        -11    1    3    3    0    0 -0.22171057442E+02  0.47415902176E+02 -0.77076428326E+02  0.93169734199E+02  0.00000000000E+00 0.  1.
         11    1    3    3    0    0 -0.12765899105E+03  0.11170467282E+02 -0.32491546765E+03  0.34927304284E+03  0.00000000000E+00 0. -1.
        -13    1    4    4    0    0  0.14658521897E+03 -0.10256304447E+03 -0.69079868221E+02  0.19177703905E+03  0.00000000000E+00 0. -1.
         13    1    4    4    0    0  0.31164599317E+02  0.54129321224E+01 -0.54436304394E+02  0.62959060673E+02  0.00000000000E+00 0.  1.
          2    1    1    2  501    0 -0.27919769797E+02  0.38563742885E+02  0.12403069104E+03  0.13285438694E+03  0.00000000000E+00 0. -1.
<scales pt_clust_5="13000.00000" pt_clust_6="13000.00000" pt_clust_7="13000.00000" pt_clust_8="13000.00000" pt_clust_9="47.60962"></scales>
<clustering>
<clus scale="   47.610">  1  9  2 -1</clus>
<clus scale="   90.976">  5  6 -1 -1</clus>
<clus scale="   92.742">  7  8 -1 -1</clus>
<clus scale="  193.184">  2  5  1 -1</clus>
<clus scale="   47.610">  1  5  2 -1</clus>
</clustering>
</event>
<event>
 9    1  0.2316377E-005  0.1154491E+03  0.7546771E-02  0.1251407E+00
         21   -1    0    0  501  502  0.00000000000E+00  0.00000000000E+00  0.88042175601E+02  0.88042175601E+02  0.00000000000E+00 0.  1.
          2   -1    0    0  502    0 -0.00000000000E+00 -0.00000000000E+00 -0.63421663305E+03  0.63421663305E+03  0.00000000000E+00 0. -1.
         23    2    1    2    0    0 -0.70430355123E+02 -0.77533792502E+01 -0.57287190392E+03  0.58466833900E+03  0.92920926138E+02 0.  0.
         23    2    1    2    0    0  0.40367455901E+02  0.20215527222E+02  0.26088979503E+02  0.10504122582E+03  0.91185663526E+02 0.  0.
        -11    1    3    3    0    0  0.19441079021E+02  0.13292816420E+02 -0.88493137890E+02  0.91573413038E+02  0.00000000000E+00 0.  1.
         11    1    3    3    0    0 -0.89871434145E+02 -0.21046195670E+02 -0.48437876603E+03  0.49309492596E+03  0.00000000000E+00 0. -1.
        -11    1    4    4    0    0  0.25948333201E+01  0.32431046662E+02  0.49290431239E+02  0.59059737209E+02  0.00000000000E+00 0.  1.
         11    1    4    4    0    0  0.37772622581E+02 -0.12215519440E+02 -0.23201451736E+02  0.45981488607E+02  0.00000000000E+00 0. -1.
          2    1    1    2  501    0  0.30062899222E+02 -0.12462147972E+02  0.60846697643E+00  0.32549243828E+02  0.00000000000E+00 0. -1.
<scales pt_clust_5="13000.00000" pt_clust_6="13000.00000" pt_clust_7="13000.00000" pt_clust_8="13000.00000" pt_clust_9="32.54356"></scales>
<clustering>
<clus scale="   32.544">  1  9  2 -1</clus>
<clus scale="   91.186">  7  8 -1 -1</clus>
<clus scale="   92.921">  5  6 -1 -1</clus>
<clus scale="  114.057">  1  7  2 -1</clus>
<clus scale="   32.544">  1  5  2 -1</clus>
</clustering>
</event>
<event>
 9    1  0.1399746E-005  0.9866837E+02  0.7546771E-02  0.1283952E+00
         21   -1    0    0  501  502  0.00000000000E+00  0.00000000000E+00  0.61923614728E+02  0.61923614728E+02  0.00000000000E+00 0. -1.
          1   -1    0    0  502    0 -0.00000000000E+00 -0.00000000000E+00 -0.27834448165E+03  0.27834448165E+03  0.00000000000E+00 0. -1.
         23    2    1    2    0    0 -0.95710087142E+00 -0.31581179389E+02 -0.15443082532E+03  0.18267165076E+03  0.92313407736E+02 0.  0.
         23    2    1    2    0    0  0.23881300747E+02  0.36987699209E+02 -0.79398488889E+02  0.12830816412E+03  0.90666744313E+02 0.  0.
        -11    1    4    4    0    0 -0.30636110053E+02 -0.27297612876E+01 -0.12176929394E+02  0.33080212293E+02  0.00000000000E+00 0.  1.
         11    1    4    4    0    0  0.54517410800E+02  0.39717460497E+02 -0.67221559495E+02  0.95227951829E+02  0.00000000000E+00 0. -1.
        -13    1    3    3    0    0 -0.25975147992E+02  0.14229357020E+02 -0.13815480476E+02  0.32681040608E+02  0.00000000000E+00 0.  1.
         13    1    3    3    0    0  0.25018047121E+02 -0.45810536408E+02 -0.14061534484E+03  0.14999061015E+03  0.00000000000E+00 0. -1.
          1    1    1    2  501    0 -0.22924199875E+02 -0.54065198201E+01  0.17408447283E+02  0.29288281501E+02  0.00000000000E+00 0. -1.
<scales pt_clust_5="13000.00000" pt_clust_6="13000.00000" pt_clust_7="13000.00000" pt_clust_8="13000.00000" pt_clust_9="23.55312"></scales>
<clustering>
<clus scale="   23.553">  1  9  2 -1</clus>
<clus scale="   90.667">  5  6 -1 -1</clus>
<clus scale="   92.313">  7  8 -1 -1</clus>
<clus scale="   97.130">  1  5  2 -1</clus>
<clus scale="   23.553">  1  5  2 -1</clus>
</clustering>
</event>
<event>
 9    1  0.1399746E-005  0.3502854E+03  0.7546771E-02  0.1062515E+00
         21   -1    0    0  501  502  0.00000000000E+00  0.00000000000E+00  0.56154870606E+03  0.56154870606E+03  0.00000000000E+00 0. -1.
          2   -1    0    0  502    0 -0.00000000000E+00 -0.00000000000E+00 -0.10300948895E+04  0.10300948895E+04  0.00000000000E+00 0. -1.
         23    2    1    2    0    0  0.81428260891E+02  0.34373857925E+03 -0.58905967875E+03  0.69284774612E+03  0.90884111016E+02 0.  0.
         23    2    1    2    0    0  0.21466755772E+02 -0.32490918898E+03 -0.30830189343E+03  0.45740648840E+03  0.90243201715E+02 0.  0.
        -11    1    3    3    0    0  0.12168858941E+02  0.64122032836E+02 -0.18836401694E+03  0.19935074392E+03  0.00000000000E+00 0.  1.
         11    1    3    3    0    0  0.69259401950E+02  0.27961654641E+03 -0.40069566181E+03  0.49349700220E+03  0.00000000000E+00 0. -1.
        -13    1    4    4    0    0 -0.13110891087E+02 -0.21626868189E+02 -0.55781623487E+02  0.61247093087E+02  0.00000000000E+00 0. -1.
         13    1    4    4    0    0  0.34577646860E+02 -0.30328232079E+03 -0.25252026994E+03  0.39615939532E+03  0.00000000000E+00 0.  1.
          2    1    1    2  501    0 -0.10289501666E+03 -0.18829390265E+02  0.42881538875E+03  0.44138936102E+03  0.00000000000E+00 0. -1.
<scales pt_clust_5="13000.00000" pt_clust_6="13000.00000" pt_clust_7="13000.00000" pt_clust_8="13000.00000" pt_clust_9="104.60368"></scales>
<clustering>
<clus scale="   90.243">  7  8 -1 -1</clus>
<clus scale="   90.884">  5  6 -1 -1</clus>
<clus scale="  104.604">  1  9  2 -1</clus>
<clus scale="  350.120">  1  7  2 -1</clus>
<clus scale="  104.604">  1  5  2 -1</clus>
</clustering>
</event>
<event>
 9    1  0.1399746E-005  0.1053812E+03  0.7546771E-02  0.1270127E+00
         21   -1    0    0  501  502  0.00000000000E+00  0.00000000000E+00  0.11668992438E+03  0.11668992438E+03  0.00000000000E+00 0. -1.
          2   -1    0    0  502    0 -0.00000000000E+00 -0.00000000000E+00 -0.25847022654E+03  0.25847022654E+03  0.00000000000E+00 0. -1.
         23    2    1    2    0    0 -0.44316116401E+02 -0.18632410485E+02 -0.16935666915E+03  0.19848051519E+03  0.91661052960E+02 0.  0.
         23    2    1    2    0    0  0.46562413899E+02  0.50221926485E+02 -0.24586871217E+02  0.11565548646E+03  0.89896479491E+02 0.  0.
        -11    1    4    4    0    0  0.52184472760E+02  0.10884282312E+02  0.19075518368E+02  0.56617684513E+02  0.00000000000E+00 0.  1.
         11    1    4    4    0    0 -0.56220588606E+01  0.39337644173E+02 -0.43662389584E+02  0.59037801950E+02  0.00000000000E+00 0. -1.
        -11    1    3    3    0    0 -0.51111115050E+02  0.63269485211E+01 -0.16422177963E+03  0.17210801627E+03  0.00000000000E+00 0. -1.
         11    1    3    3    0    0  0.67949986486E+01 -0.24959359006E+02 -0.51348895172E+01  0.26372498915E+02  0.00000000000E+00 0.  1.
          2    1    1    2  501    0 -0.22462974979E+01 -0.31589516000E+02  0.52163238213E+02  0.61024149272E+02  0.00000000000E+00 0. -1.
<scales pt_clust_5="13000.00000" pt_clust_6="13000.00000" pt_clust_7="13000.00000" pt_clust_8="13000.00000" pt_clust_9="31.66928"></scales>
<clustering>
<clus scale="   31.669">  1  9  2 -1</clus>
<clus scale="   89.896">  5  6 -1 -1</clus>
<clus scale="   91.661">  7  8 -1 -1</clus>
<clus scale="  103.850">  1  5  2 -1</clus>
<clus scale="   31.669">  1  5  2 -1</clus>
</clustering>
</event>
<event>
 9    1  0.1399746E-005  0.1550092E+03  0.7546771E-02  0.1195327E+00
         21   -1    0    0  501  502  0.00000000000E+00  0.00000000000E+00  0.13710434311E+03  0.13710434311E+03  0.00000000000E+00 0.  1.
          3   -1    0    0  502    0 -0.00000000000E+00 -0.00000000000E+00 -0.23572837168E+03  0.23572837168E+03  0.00000000000E+00 0. -1.
         23    2    1    2    0    0  0.12984230276E+03  0.22032035512E+02 -0.97019687633E+02  0.18993712428E+03  0.96534228215E+02 0.  0.
         23    2    1    2    0    0 -0.10506983923E+03  0.56870973035E+01  0.18210836725E+02  0.14076879928E+03  0.91718079378E+02 0.  0.
        -11    1    3    3    0    0  0.10661618838E+03  0.57247882315E+02 -0.69157197119E+02  0.13938095124E+03  0.00000000000E+00 0.  1.
         11    1    3    3    0    0  0.23226114376E+02 -0.35215846802E+02 -0.27862490515E+02  0.50556173043E+02  0.00000000000E+00 0. -1.
        -13    1    4    4    0    0 -0.37230775329E+02  0.37408995291E+02 -0.20312180017E+02  0.56552172525E+02  0.00000000000E+00 0. -1.
         13    1    4    4    0    0 -0.67839063898E+02 -0.31721897988E+02  0.38523016741E+02  0.84216626752E+02  0.00000000000E+00 0.  1.
          3    1    1    2  501    0 -0.24772463532E+02 -0.27719132816E+02 -0.19815177667E+02  0.42126791232E+02  0.00000000000E+00 0. -1.
<scales pt_clust_5="13000.00000" pt_clust_6="13000.00000" pt_clust_7="13000.00000" pt_clust_8="13000.00000" pt_clust_9="37.17562"></scales>
<clustering>
<clus scale="   37.176">  1  9  2 -1</clus>
<clus scale="   91.718">  7  8 -1 -1</clus>
<clus scale="   96.534">  5  6 -1 -1</clus>
<clus scale="  152.057">  1  7  2 -1</clus>
<clus scale="   37.176">  1  5  2 -1</clus>
</clustering>
</event>
<event>
 9    1  0.1399746E-005  0.1010017E+03  0.7546771E-02  0.1279715E+00
         21   -1    0    0  501  502  0.00000000000E+00  0.00000000000E+00  0.12139974409E+03  0.12139974409E+03  0.00000000000E+00 0. -1.
          2   -1    0    0  502    0 -0.00000000000E+00 -0.00000000000E+00 -0.19244016079E+03  0.19244016079E+03  0.00000000000E+00 0. -1.
         23    2    1    2    0    0 -0.30342909191E+02  0.14623973732E+02 -0.77742540569E+02  0.12787091371E+03  0.95773248941E+02 0.  0.
         23    2    1    2    0    0  0.35037733710E+02  0.21808421113E+02  0.62467238349E+02  0.11919243268E+03  0.92743895360E+02 0.  0.
        -11    1    3    3    0    0 -0.27016245809E+02 -0.30965886839E+02 -0.42384958039E+01  0.41312571113E+02  0.00000000000E+00 0.  1.
         11    1    3    3    0    0 -0.33266633827E+01  0.45589860571E+02 -0.73504044765E+02  0.86558342596E+02  0.00000000000E+00 0. -1.
        -11    1    4    4    0    0  0.60630107579E+02  0.36845766961E+02  0.50977188429E+02  0.87363002627E+02  0.00000000000E+00 0. -1.
         11    1    4    4    0    0 -0.25592373869E+02 -0.15037345848E+02  0.11490049920E+02  0.31829430054E+02  0.00000000000E+00 0.  1.
          2    1    1    2  501    0 -0.46948245189E+01 -0.36432394845E+02 -0.55765114483E+02  0.66776558497E+02  0.00000000000E+00 0. -1.
<scales pt_clust_5="13000.00000" pt_clust_6="13000.00000" pt_clust_7="13000.00000" pt_clust_8="13000.00000" pt_clust_9="36.73366"></scales>
<clustering>
<clus scale="   36.734">  1  9  2 -1</clus>
<clus scale="   92.744">  7  8 -1 -1</clus>
<clus scale="   95.773">  5  6 -1 -1</clus>
<clus scale="   98.134">  1  7  2 -1</clus>
<clus scale="   36.734">  1  5  2 -1</clus>
</clustering>
</event>
<event>
 9    1  0.1399746E-005  0.1177755E+03  0.7546771E-02  0.1247326E+00
         21   -1    0    0  501  502  0.00000000000E+00  0.00000000000E+00  0.23081719836E+03  0.23081719836E+03  0.00000000000E+00 0.  1.
          1   -1    0    0  502    0 -0.00000000000E+00 -0.00000000000E+00 -0.95090052471E+02  0.95090052471E+02  0.00000000000E+00 0. -1.
         23    2    1    2    0    0  0.47023382573E+01 -0.93766919630E+02  0.99673028719E+01  0.13020367400E+03  0.89662156984E+02 0.  0.
         23    2    1    2    0    0  0.77258428112E+00  0.53560653491E+02  0.62498821352E+02  0.12054723661E+03  0.88069251696E+02 0.  0.
        -11    1    3    3    0    0  0.18745607336E+02 -0.36396324005E+02  0.45553662205E+02  0.61247255741E+02  0.00000000000E+00 0.  1.
         11    1    3    3    0    0 -0.14043269079E+02 -0.57370595624E+02 -0.35586359333E+02  0.68956418260E+02  0.00000000000E+00 0. -1.
        -13    1    4    4    0    0 -0.39427138268E+02  0.46281781898E+01  0.25999327009E+02  0.47454022699E+02  0.00000000000E+00 0. -1.
         13    1    4    4    0    0  0.40199722549E+02  0.48932475302E+02  0.36499494343E+02  0.73093213909E+02  0.00000000000E+00 0.  1.
          1    1    1    2  501    0 -0.54749225384E+01  0.40206266138E+02  0.63261021665E+02  0.75156340223E+02  0.00000000000E+00 0. -1.
<scales pt_clust_5="13000.00000" pt_clust_6="13000.00000" pt_clust_7="13000.00000" pt_clust_8="13000.00000" pt_clust_9="40.57732"></scales>
<clustering>
<clus scale="   40.577">  1  9  2 -1</clus>
<clus scale="   88.069">  7  8 -1 -1</clus>
<clus scale="   89.662">  5  6 -1 -1</clus>
<clus scale="  116.567">  1  7  2 -1</clus>
<clus scale="   40.577">  1  5  2 -1</clus>
</clustering>
</event>
<event>
 9    1  0.1399746E-005  0.1122770E+03  0.7546771E-02  0.1256716E+00
          2   -1    0    0  502    0 -0.00000000000E+00  0.00000000000E+00  0.13128091872E+03  0.13128091872E+03  0.00000000000E+00 0. -1.
         21   -1    0    0  501  502  0.00000000000E+00 -0.00000000000E+00 -0.18491341809E+03  0.18491341809E+03  0.00000000000E+00 0.  1.
         23    2    1    2    0    0  0.29578669746E+02  0.58077380525E+02  0.56123546538E+02  0.12509294671E+03  0.90832334588E+02 0.  0.
         23    2    1    2    0    0  0.39792719859E+01 -0.75987611703E+02 -0.75893610855E+02  0.14017422307E+03  0.89994560426E+02 0.  0.
        -11    1    4    4    0    0 -0.32740281868E+02 -0.51546266386E+01 -0.51473827815E+01  0.33540897157E+02  0.00000000000E+00 0. -1.
         11    1    4    4    0    0  0.36719553854E+02 -0.70832985064E+02 -0.70746228073E+02  0.10663332591E+03  0.00000000000E+00 0.  1.
        -11    1    3    3    0    0  0.55075052856E+02  0.52677443059E+02  0.17001278501E+02  0.78084684318E+02  0.00000000000E+00 0.  1.
         11    1    3    3    0    0 -0.25496383110E+02  0.53999374662E+01  0.39122268037E+02  0.47008262388E+02  0.00000000000E+00 0. -1.
          2    1    1    2  501    0 -0.33557941732E+02  0.17910231178E+02 -0.33862435061E+02  0.50927167037E+02  0.00000000000E+00 0. -1.
<scales pt_clust_5="13000.00000" pt_clust_6="13000.00000" pt_clust_7="13000.00000" pt_clust_8="13000.00000" pt_clust_9="38.03829"></scales>
<clustering>
<clus scale="   38.038">  2  9  1 -1</clus>
<clus scale="   89.995">  5  6 -1 -1</clus>
<clus scale="   90.832">  7  8 -1 -1</clus>
<clus scale="  111.600">  2  5  1 -1</clus>
<clus scale="   38.038">  2  5  1 -1</clus>
</clustering>
</event>
<event>
 9    1  0.1399746E-005  0.9160839E+02  0.7546771E-02  0.1299685E+00
         -2   -1    0    0    0  501 -0.00000000000E+00  0.00000000000E+00  0.19114996196E+03  0.19114996196E+03  0.00000000000E+00 0.  1.
         21   -1    0    0  501  502  0.00000000000E+00 -0.00000000000E+00 -0.13385945798E+03  0.13385945798E+03  0.00000000000E+00 0. -1.
         23    2    1    2    0    0  0.44530866359E+01  0.22076524974E+02  0.12570243823E+03  0.15657810312E+03  0.90600201229E+02 0.  0.
         23    2    1    2    0    0 -0.14968975988E+02  0.33551784623E+02 -0.35875971586E+02  0.10313444382E+03  0.89441800472E+02 0.  0.
        -13    1    3    3    0    0 -0.37290096194E+02  0.29853290002E+02  0.86367637615E+02  0.98697208802E+02  0.00000000000E+00 0. -1.
         13    1    3    3    0    0  0.41743182830E+02 -0.77767650282E+01  0.39334800616E+02  0.57880894314E+02  0.00000000000E+00 0.  1.
        -13    1    4    4    0    0 -0.49284135643E+02  0.27221712326E+01 -0.10421660767E+02  0.50447470258E+02  0.00000000000E+00 0. -1.
         13    1    4    4    0    0  0.34315159655E+02  0.30829613391E+02 -0.25454310819E+02  0.52686973563E+02  0.00000000000E+00 0.  1.
         -2    1    1    2    0  502  0.10515889352E+02 -0.55628309598E+02 -0.32535962658E+02  0.65296873000E+02  0.00000000000E+00 0.  1.
<scales pt_clust_5="13000.00000" pt_clust_6="13000.00000" pt_clust_7="13000.00000" pt_clust_8="13000.00000" pt_clust_9="56.61354"></scales>
<clustering>
<clus scale="   56.614">  2  9  1 -1</clus>
<clus scale="   89.442">  7  8 -1 -1</clus>
<clus scale="   90.463">  2  7  1 -1</clus>
<clus scale="   90.600">  5  6 -1 -1</clus>
<clus scale="   56.614">  2  5  1 -1</clus>
</clustering>
</event>
<event>
 9    1  0.1399746E-005  0.1071851E+03  0.7546771E-02  0.1267418E+00
         -1   -1    0    0    0  501 -0.00000000000E+00  0.00000000000E+00  0.13082307756E+03  0.13082307756E+03  0.00000000000E+00 0.  1.
         21   -1    0    0  501  502  0.00000000000E+00 -0.00000000000E+00 -0.14580874448E+03  0.14580874448E+03  0.00000000000E+00 0.  1.
         23    2    1    2    0    0 -0.51511890049E+02 -0.35209380472E+02  0.55430516236E+02  0.12307680089E+03  0.90455411659E+02 0.  0.
         23    2    1    2    0    0  0.43392625697E+02  0.11054078160E+02 -0.80167010403E+02  0.12626986556E+03  0.86673045307E+02 0.  0.
        -11    1    4    4    0    0 -0.23302306130E+02  0.19247507630E+02 -0.21819501216E+02  0.37276730734E+02  0.00000000000E+00 0. -1.
         11    1    4    4    0    0  0.66694931826E+02 -0.81934294706E+01 -0.58347509187E+02  0.88993134826E+02  0.00000000000E+00 0.  1.
        -13    1    3    3    0    0 -0.26367159073E+02  0.20074654659E+01  0.70822132445E+02  0.75597826948E+02  0.00000000000E+00 0.  1.
         13    1    3    3    0    0 -0.25144730977E+02 -0.37216845938E+02 -0.15391616209E+02  0.47478973946E+02  0.00000000000E+00 0. -1.
         -1    1    1    2    0  502  0.81192643525E+01  0.24155302312E+02  0.97508272496E+01  0.27285155588E+02  0.00000000000E+00 0.  1.
<scales pt_clust_5="13000.00000" pt_clust_6="13000.00000" pt_clust_7="13000.00000" pt_clust_8="13000.00000" pt_clust_9="25.48336"></scales>
<clustering>
<clus scale="   25.483">  2  9  1 -1</clus>
<clus scale="   86.673">  5  6 -1 -1</clus>
<clus scale="   90.455">  7  8 -1 -1</clus>
<clus scale="  104.013">  2  5  1 -1</clus>
<clus scale="   25.483">  2  5  1 -1</clus>
</clustering>
</event>
<event>
 9    1  0.1399746E-005  0.9205409E+02  0.7546771E-02  0.1298851E+00
         21   -1    0    0  501  502  0.00000000000E+00  0.00000000000E+00  0.84515431558E+02  0.84515431558E+02  0.00000000000E+00 0. -1.
          1   -1    0    0  502    0 -0.00000000000E+00 -0.00000000000E+00 -0.25791627266E+03  0.25791627266E+03  0.00000000000E+00 0. -1.
         23    2    1    2    0    0 -0.17817622127E+02 -0.25952267325E+02 -0.93666798815E+02  0.13489448360E+03  0.91826274386E+02 0.  0.
         23    2    1    2    0    0 -0.14657932795E+02 -0.41985161006E+02 -0.85423223882E+02  0.13202217164E+03  0.90305691329E+02 0.  0.
        -11    1    4    4    0    0  0.11900758693E+02  0.25116920208E+02 -0.17034610580E+02  0.32598553585E+02  0.00000000000E+00 0.  1.
         11    1    4    4    0    0 -0.26558691489E+02 -0.67102081214E+02 -0.68388613302E+02  0.99423618050E+02  0.00000000000E+00 0. -1.
        -13    1    3    3    0    0 -0.31038013104E+02 -0.42690996310E+02 -0.99629253483E+02  0.11274691824E+03  0.00000000000E+00 0. -1.
         13    1    3    3    0    0  0.13220390976E+02  0.16738728985E+02  0.59624546677E+01  0.22147565358E+02  0.00000000000E+00 0.  1.
          1    1    1    2  501    0  0.32475554923E+02  0.67937428331E+02  0.56891815948E+01  0.75515048984E+02  0.00000000000E+00 0. -1.
<scales pt_clust_5="13000.00000" pt_clust_6="13000.00000" pt_clust_7="13000.00000" pt_clust_8="13000.00000" pt_clust_9="75.30044"></scales>
<clustering>
<clus scale="   75.300">  1  9  2 -1</clus>
<clus scale="   90.306">  5  6 -1 -1</clus>
<clus scale="   90.537">  1  5  2 -1</clus>
<clus scale="   91.826">  7  8 -1 -1</clus>
<clus scale="   75.300">  1  5  2 -1</clus>
</clustering>
</event>
<event>
 9    1  0.1399746E-005  0.1520406E+03  0.7546771E-02  0.1212160E+00
         21   -1    0    0  501  502  0.00000000000E+00  0.00000000000E+00  0.30719038529E+03  0.30719038529E+03  0.00000000000E+00 0. -1.
          1   -1    0    0  502    0 -0.00000000000E+00 -0.00000000000E+00 -0.26287768635E+03  0.26287768635E+03  0.00000000000E+00 0. -1.
         23    2    1    2    0    0  0.22849647823E+02  0.27609300386E+02  0.14695614364E+03  0.18480231882E+03  0.10616689227E+03 0.  0.
         23    2    1    2    0    0  0.83221902407E+02  0.40097908737E+02 -0.19126680265E+03  0.23135168747E+03  0.91689073368E+02 0.  0.
        -13    1    4    4    0    0  0.51736067167E+02 -0.10866347197E+02 -0.33478210855E+02  0.62573866345E+02  0.00000000000E+00 0.  1.
         13    1    4    4    0    0  0.31485835240E+02  0.50964255934E+02 -0.15778859180E+03  0.16877782113E+03  0.00000000000E+00 0. -1.
        -13    1    3    3    0    0 -0.12139215546E+02 -0.22435772491E+02 -0.16747944850E+00  0.25509850856E+02  0.00000000000E+00 0.  1.
         13    1    3    3    0    0  0.34988863369E+02  0.50045072877E+02  0.14712362309E+03  0.15929246796E+03  0.00000000000E+00 0. -1.
          1    1    1    2  501    0 -0.10607155023E+03 -0.67707209123E+02  0.88623357950E+02  0.15391406534E+03  0.00000000000E+00 0. -1.
<scales pt_clust_5="13000.00000" pt_clust_6="13000.00000" pt_clust_7="13000.00000" pt_clust_8="13000.00000" pt_clust_9="121.28261"></scales>
<clustering>
<clus scale="   91.689">  5  6 -1 -1</clus>
<clus scale="  106.167">  7  8 -1 -1</clus>
<clus scale="  112.053">  2  7  1 -1</clus>
<clus scale="  121.283">  1  9  2 -1</clus>
<clus scale="  121.283">  1  5  2 -1</clus>
</clustering>
</event>
<event>
 9    1  0.1399746E-005  0.2234087E+03  0.7546771E-02  0.1164914E+00
          1   -1    0    0  502    0 -0.00000000000E+00  0.00000000000E+00  0.45117622776E+03  0.45117622776E+03  0.00000000000E+00 0. -1.
         21   -1    0    0  501  502  0.00000000000E+00 -0.00000000000E+00 -0.18980338849E+03  0.18980338849E+03  0.00000000000E+00 0. -1.
         23    2    1    2    0    0  0.14587857248E+02 -0.38072107661E+02  0.15802104863E+03  0.18733490365E+03  0.91985995416E+02 0.  0.
         23    2    1    2    0    0  0.18621904763E+01  0.21936855396E+03 -0.12701205655E+02  0.23775746551E+03  0.90781394372E+02 0.  0.
        -13    1    4    4    0    0  0.31554996961E+02  0.19060024512E+03  0.38272423950E+01  0.19323255176E+03  0.00000000000E+00 0. -1.
         13    1    4    4    0    0 -0.29692806485E+02  0.28768308834E+02 -0.16528448050E+02  0.44524913757E+02  0.00000000000E+00 0.  1.
        -13    1    3    3    0    0  0.46364991629E+02 -0.47870845833E+02  0.11559264068E+03  0.13342784158E+03  0.00000000000E+00 0.  1.
         13    1    3    3    0    0 -0.31777134381E+02  0.97987381718E+01  0.42428407952E+02  0.53907062066E+02  0.00000000000E+00 0. -1.
          1    1    1    2  501    0 -0.16450047725E+02 -0.18129644630E+03  0.11605299629E+03  0.21588724709E+03  0.00000000000E+00 0. -1.
<scales pt_clust_5="13000.00000" pt_clust_6="13000.00000" pt_clust_7="13000.00000" pt_clust_8="13000.00000" pt_clust_9="204.13291"></scales>
<clustering>
<clus scale="   90.781">  5  6 -1 -1</clus>
<clus scale="   91.986">  7  8 -1 -1</clus>
<clus scale="  100.617">  1  7  2 -1</clus>
<clus scale="  204.133">  2  9  1 -1</clus>
<clus scale="  204.133">  2  5  1 -1</clus>
</clustering>
</event>
<event>
 9    1  0.1399746E-005  0.9825962E+02  0.7546771E-02  0.1288118E+00
         21   -1    0    0  501  502  0.00000000000E+00  0.00000000000E+00  0.91840144258E+03  0.91840144258E+03  0.00000000000E+00 0. -1.
          4   -1    0    0  502    0 -0.00000000000E+00 -0.00000000000E+00 -0.17564173959E+02  0.17564173959E+02  0.00000000000E+00 0. -1.
         23    2    1    2    0    0  0.44405795074E+02 -0.23836899465E+01  0.30124126295E+03  0.31879271365E+03  0.94365985176E+02 0.  0.
         23    2    1    2    0    0 -0.28879167705E+01 -0.28858729036E+02  0.32058759795E+03  0.33336748620E+03  0.86696635410E+02 0.  0.
        -13    1    3    3    0    0 -0.18926714177E+02 -0.23467033654E+02  0.15682514839E+03  0.15969674181E+03  0.00000000000E+00 0.  1.
         13    1    3    3    0    0  0.63332509252E+02  0.21083343707E+02  0.14441611456E+03  0.15909597184E+03  0.00000000000E+00 0. -1.
        -13    1    4    4    0    0  0.21892179264E+02 -0.52120361419E+02  0.22204619670E+03  0.22912946789E+03  0.00000000000E+00 0. -1.
         13    1    4    4    0    0 -0.24780096035E+02  0.23261632383E+02  0.98541401249E+02  0.10423801831E+03  0.00000000000E+00 0.  1.
          4    1    1    2  501    0 -0.41517878304E+02  0.31242418982E+02  0.27900840773E+03  0.28380541669E+03  0.00000000000E+00 0. -1.
<scales pt_clust_5="13000.00000" pt_clust_6="13000.00000" pt_clust_7="13000.00000" pt_clust_8="13000.00000" pt_clust_9="51.95982"></scales>
<clustering>
<clus scale="   51.960">  1  9  2 -1</clus>
<clus scale="   86.697">  7  8 -1 -1</clus>
<clus scale="   90.919">  1  7  2 -1</clus>
<clus scale="   94.366">  5  6 -1 -1</clus>
<clus scale="   51.960">  1  5  2 -1</clus>
</clustering>
</event>
<event>
 9    1  0.1399746E-005  0.1038417E+03  0.7546771E-02  0.1275354E+00
          2   -1    0    0  502    0 -0.00000000000E+00  0.00000000000E+00  0.28071899342E+03  0.28071899342E+03  0.00000000000E+00 0. -1.
         21   -1    0    0  501  502  0.00000000000E+00 -0.00000000000E+00 -0.15237076203E+03  0.15237076203E+03  0.00000000000E+00 0.  1.
         23    2    1    2    0    0 -0.30363301664E+02 -0.21229386420E+01  0.23408532014E+03  0.25615769209E+03  0.99470544170E+02 0.  0.
         23    2    1    2    0    0  0.22921838828E+02 -0.16797976660E+02 -0.11797802535E+03  0.15319987143E+03  0.93508306718E+02 0.  0.
        -11    1    4    4    0    0  0.23677127497E+02 -0.46527602220E+02 -0.11098386796E+03  0.12264926858E+03  0.00000000000E+00 0.  1.
         11    1    4    4    0    0 -0.75528866846E+00  0.29729625559E+02 -0.69941573839E+01  0.30550602848E+02  0.00000000000E+00 0. -1.
        -13    1    3    3    0    0 -0.70416969273E+01  0.33931031568E+02  0.25055372721E+02  0.42762975821E+02  0.00000000000E+00 0.  1.
         13    1    3    3    0    0 -0.23321604737E+02 -0.36053970210E+02  0.20902994741E+03  0.21339471627E+03  0.00000000000E+00 0. -1.
          2    1    1    2  501    0  0.74414628358E+01  0.18920915302E+02  0.12240936609E+02  0.23732191936E+02  0.00000000000E+00 0. -1.
<scales pt_clust_5="13000.00000" pt_clust_6="13000.00000" pt_clust_7="13000.00000" pt_clust_8="13000.00000" pt_clust_9="20.33167"></scales>
<clustering>
<clus scale="   20.332">  2  9  1 -1</clus>
<clus scale="   93.508">  5  6 -1 -1</clus>
<clus scale="   98.145">  2  5  1 -1</clus>
<clus scale="   99.471">  7  8 -1 -1</clus>
<clus scale="   20.332">  2  5  1 -1</clus>
</clustering>
</event>
<event>
 9    1  0.1399746E-005  0.9838580E+02  0.7546771E-02  0.1285715E+00
         -1   -1    0    0    0  501 -0.00000000000E+00  0.00000000000E+00  0.25484695222E+03  0.25484695222E+03  0.00000000000E+00 0.  1.
         21   -1    0    0  501  502  0.00000000000E+00 -0.00000000000E+00 -0.25094041120E+03  0.25094041120E+03  0.00000000000E+00 0.  1.
         23    2    1    2    0    0  0.19410215558E+02  0.28628870889E+02  0.13789453833E+03  0.16624396611E+03  0.86172987954E+02 0.  0.
         23    2    1    2    0    0  0.11165039741E+02 -0.57974779731E+02  0.71767296523E+02  0.12946895921E+03  0.90143959040E+02 0.  0.
        -11    1    4    4    0    0  0.24997181366E+02 -0.25864936753E+01  0.67724340381E+02  0.72236661785E+02  0.00000000000E+00 0.  1.
         11    1    4    4    0    0 -0.13832141625E+02 -0.55388286056E+02  0.40429561417E+01  0.57232297425E+02  0.00000000000E+00 0. -1.
        -13    1    3    3    0    0  0.52547614223E+02  0.16074911230E+02  0.64439533932E+02  0.84688299457E+02  0.00000000000E+00 0.  1.
         13    1    3    3    0    0 -0.33137398665E+02  0.12553959659E+02  0.73455004394E+02  0.81555666658E+02  0.00000000000E+00 0. -1.
         -1    1    1    2    0  502 -0.30575255299E+02  0.29345908842E+02 -0.20575529383E+03  0.21007443810E+03  0.00000000000E+00 0.  1.
<scales pt_clust_5="13000.00000" pt_clust_6="13000.00000" pt_clust_7="13000.00000" pt_clust_8="13000.00000" pt_clust_9="42.37958"></scales>
<clustering>
<clus scale="   42.380">  2  9  1 -1</clus>
<clus scale="   86.173">  7  8 -1 -1</clus>
<clus scale="   90.144">  5  6 -1 -1</clus>
<clus scale="   94.761">  1  7  2 -1</clus>
<clus scale="   42.380">  2  5  1 -1</clus>
</clustering>
</event>
<event>
 9    1  0.1399746E-005  0.9934775E+02  0.7546771E-02  0.1283550E+00
         21   -1    0    0  501  502  0.00000000000E+00  0.00000000000E+00  0.56082796294E+02  0.56082796294E+02  0.00000000000E+00 0.  1.
          2   -1    0    0  502    0 -0.00000000000E+00 -0.00000000000E+00 -0.62714125659E+03  0.62714125659E+03  0.00000000000E+00 0. -1.
         23    2    1    2    0    0  0.14430925547E+02 -0.43537156592E+02 -0.42676122537E+03  0.43912540250E+03  0.92748261582E+02 0.  0.
         23    2    1    2    0    0  0.54639070225E+02  0.11200621984E+02 -0.12891712325E+03  0.16629849858E+03  0.89020694420E+02 0.  0.
        -13    1    3    3    0    0  0.52125723739E+02 -0.28717389774E+02 -0.30656925468E+03  0.31229231093E+03  0.00000000000E+00 0. -1.
         13    1    3    3    0    0 -0.37694798193E+02 -0.14819766818E+02 -0.12019197069E+03  0.12683309157E+03  0.00000000000E+00 0.  1.
        -13    1    4    4    0    0  0.29883191247E+02  0.34751439202E+02 -0.16353462191E+02  0.48663162365E+02  0.00000000000E+00 0.  1.
         13    1    4    4    0    0  0.24755878978E+02 -0.23550817218E+02 -0.11256366105E+03  0.11763533621E+03  0.00000000000E+00 0. -1.
          2    1    1    2  501    0 -0.69069995772E+02  0.32336534608E+02 -0.15380111685E+02  0.77800151811E+02  0.00000000000E+00 0. -1.
<scales pt_clust_5="13000.00000" pt_clust_6="13000.00000" pt_clust_7="13000.00000" pt_clust_8="13000.00000" pt_clust_9="76.26477"></scales>
<clustering>
<clus scale="   76.265">  1  9  2 -1</clus>
<clus scale="   89.021">  7  8 -1 -1</clus>
<clus scale="   92.748">  5  6 -1 -1</clus>
<clus scale="   95.877">  1  7  2 -1</clus>
<clus scale="   76.265">  1  5  2 -1</clus>
</clustering>
</event>
<event>
 9    1  0.1399746E-005  0.1008930E+03  0.7546771E-02  0.1278583E+00
         21   -1    0    0  501  502  0.00000000000E+00  0.00000000000E+00  0.11082018413E+03  0.11082018413E+03  0.00000000000E+00 0.  1.
          1   -1    0    0  502    0 -0.00000000000E+00 -0.00000000000E+00 -0.13975584470E+03  0.13975584470E+03  0.00000000000E+00 0. -1.
         23    2    1    2    0    0  0.30930634851E+02  0.44572280296E+02 -0.44467458922E+02  0.11483043018E+03  0.90913587817E+02 0.  0.
         23    2    1    2    0    0 -0.56496409203E+01 -0.30685171291E+02 -0.10363912313E+02  0.96982622998E+02  0.91239905225E+02 0.  0.
        -11    1    3    3    0    0 -0.20292072129E+02  0.41870296375E+02 -0.43245207719E+02  0.63521948179E+02  0.00000000000E+00 0. -1.
         11    1    3    3    0    0  0.51222706980E+02  0.27019839214E+01 -0.12222512025E+01  0.51308482003E+02  0.00000000000E+00 0.  1.
        -13    1    4    4    0    0  0.17098143494E+01 -0.49696845485E+02 -0.38040562178E+02  0.62608180672E+02  0.00000000000E+00 0. -1.
         13    1    4    4    0    0 -0.73594552697E+01  0.19011674193E+02  0.27676649865E+02  0.34374442326E+02  0.00000000000E+00 0.  1.
          1    1    1    2  501    0 -0.25280993930E+02 -0.13887109005E+02  0.25895710658E+02  0.38762975648E+02  0.00000000000E+00 0. -1.
<scales pt_clust_5="13000.00000" pt_clust_6="13000.00000" pt_clust_7="13000.00000" pt_clust_8="13000.00000" pt_clust_9="28.84407"></scales>
<clustering>
<clus scale="   28.844">  1  9  2 -1</clus>
<clus scale="   90.914">  5  6 -1 -1</clus>
<clus scale="   91.240">  7  8 -1 -1</clus>
<clus scale="  100.598">  2  5  1 -1</clus>
<clus scale="   28.844">  1  5  2 -1</clus>
</clustering>
</event>
<event>
 9    1  0.1399746E-005  0.1003956E+03  0.7546771E-02  0.1279526E+00
         21   -1    0    0  501  502  0.00000000000E+00  0.00000000000E+00  0.11067795780E+03  0.11067795780E+03  0.00000000000E+00 0. -1.
          2   -1    0    0  502    0 -0.00000000000E+00 -0.00000000000E+00 -0.44441612359E+03  0.44441612359E+03  0.00000000000E+00 0. -1.
         23    2    1    2    0    0 -0.71908183460E+01 -0.70388833806E+02 -0.25465281436E+03  0.27957936774E+03  0.91160688966E+02 0.  0.
         23    2    1    2    0    0  0.17171296376E+02  0.80183181718E+01 -0.15245375275E+03  0.17870245475E+03  0.91286766624E+02 0.  0.
        -11    1    3    3    0    0  0.31745650557E+02 -0.47735522113E+02 -0.20349208192E+03  0.21141308807E+03  0.00000000000E+00 0. -1.
         11    1    3    3    0    0 -0.38936468903E+02 -0.22653311693E+02 -0.51160732434E+02  0.68166279673E+02  0.00000000000E+00 0.  1.
        -11    1    4    4    0    0  0.21788628460E+02 -0.39701551572E+02 -0.73349227356E+02  0.86203634964E+02  0.00000000000E+00 0. -1.
         11    1    4    4    0    0 -0.46173320833E+01  0.47719869744E+02 -0.79104525398E+02  0.92498819789E+02  0.00000000000E+00 0.  1.
          2    1    1    2  501    0 -0.99804780302E+01  0.62370515634E+02  0.73368401317E+02  0.96812258904E+02  0.00000000000E+00 0. -1.
<scales pt_clust_5="13000.00000" pt_clust_6="13000.00000" pt_clust_7="13000.00000" pt_clust_8="13000.00000" pt_clust_9="63.16400"></scales>
<clustering>
<clus scale="   63.164">  1  9  2 -1</clus>
<clus scale="   91.161">  5  6 -1 -1</clus>
<clus scale="   91.287">  7  8 -1 -1</clus>
<clus scale="  100.281">  2  5  1 -1</clus>
<clus scale="   63.164">  1  5  2 -1</clus>
</clustering>
</event>
<event>
 9    1  0.1399746E-005  0.1489488E+03  0.7546771E-02  0.1217888E+00
         21   -1    0    0  501  502  0.00000000000E+00  0.00000000000E+00  0.15610845227E+03  0.15610845227E+03  0.00000000000E+00 0.  1.
         -1   -1    0    0    0  501 -0.00000000000E+00 -0.00000000000E+00 -0.30757668841E+03  0.30757668841E+03  0.00000000000E+00 0.  1.
         23    2    1    2    0    0 -0.18487120254E+02 -0.48790306217E+02 -0.32524020984E+02  0.11046102081E+03  0.91769044794E+02 0.  0.
         23    2    1    2    0    0 -0.96826071803E+02  0.19589468102E+01 -0.17274587259E+03  0.21763309203E+03  0.90243562631E+02 0.  0.
        -11    1    3    3    0    0  0.19897181539E+02 -0.10152288056E+02  0.23433676735E+02  0.32374434223E+02  0.00000000000E+00 0. -1.
         11    1    3    3    0    0 -0.38384301792E+02 -0.38638018161E+02 -0.55957697719E+02  0.78086586592E+02  0.00000000000E+00 0.  1.
        -13    1    4    4    0    0 -0.30139457256E+02 -0.15818417781E+02 -0.13447637249E+03  0.13871735286E+03  0.00000000000E+00 0.  1.
         13    1    4    4    0    0 -0.66686614547E+02  0.17777364591E+02 -0.38269500096E+02  0.78915739173E+02  0.00000000000E+00 0. -1.
         -1    1    1    2    0  502  0.11531319206E+03  0.46831359407E+02  0.53801657431E+02  0.13559102783E+03  0.00000000000E+00 0.  1.
<scales pt_clust_5="13000.00000" pt_clust_6="13000.00000" pt_clust_7="13000.00000" pt_clust_8="13000.00000" pt_clust_9="118.49833"></scales>
<clustering>
<clus scale="   90.244">  7  8 -1 -1</clus>
<clus scale="   91.769">  5  6 -1 -1</clus>
<clus scale="  105.564">  2  5  1 -1</clus>
<clus scale="  118.498">  1  9  2 -1</clus>
<clus scale="  118.498">  1  5  2 -1</clus>
</clustering>
</event>
<event>
 9    1  0.1399746E-005  0.1086400E+03  0.7546771E-02  0.1263267E+00
          4   -1    0    0  502    0 -0.00000000000E+00  0.00000000000E+00  0.35944881760E+02  0.35944881760E+02  0.00000000000E+00 0. -1.
         21   -1    0    0  501  502  0.00000000000E+00 -0.00000000000E+00 -0.59700444543E+03  0.59700444543E+03  0.00000000000E+00 0. -1.
         23    2    1    2    0    0 -0.60348750453E+02  0.11146676740E+02 -0.89400707634E+02  0.14318635314E+03  0.93507353277E+02 0.  0.
         23    2    1    2    0    0  0.36311992107E+02 -0.49629424344E+01 -0.30391960941E+03  0.32019747290E+03  0.93894095117E+02 0.  0.
        -11    1    3    3    0    0 -0.38337577484E+02  0.47882764968E+02 -0.77307069589E+02  0.98685926234E+02  0.00000000000E+00 0.  1.
         11    1    3    3    0    0 -0.22011172969E+02 -0.36736088228E+02 -0.12093638045E+02  0.44500426907E+02  0.00000000000E+00 0. -1.
        -13    1    4    4    0    0 -0.60307078932E+01  0.29220949771E+02 -0.35764052409E+02  0.46575753219E+02  0.00000000000E+00 0. -1.
         13    1    4    4    0    0  0.42342700000E+02 -0.34183892205E+02 -0.26815555700E+03  0.27362171968E+03  0.00000000000E+00 0.  1.
          4    1    1    2  501    0  0.24036758345E+02 -0.61837343055E+01 -0.16773924663E+03  0.16956550115E+03  0.00000000000E+00 0. -1.
<scales pt_clust_5="13000.00000" pt_clust_6="13000.00000" pt_clust_7="13000.00000" pt_clust_8="13000.00000" pt_clust_9="24.81943"></scales>
<clustering>
<clus scale="   24.819">  2  9  1 -1</clus>
<clus scale="   93.507">  5  6 -1 -1</clus>
<clus scale="   93.894">  7  8 -1 -1</clus>
<clus scale="  108.306">  1  5  2 -1</clus>
<clus scale="   24.819">  2  5  1 -1</clus>
</clustering>
</event>
<event>
 9    1  0.1399746E-005  0.1664833E+03  0.7546771E-02  0.1181663E+00
          1   -1    0    0  502    0 -0.00000000000E+00  0.00000000000E+00  0.38889127503E+03  0.38889127503E+03  0.00000000000E+00 0. -1.
         21   -1    0    0  501  502  0.00000000000E+00 -0.00000000000E+00 -0.12938995570E+03  0.12938995570E+03  0.00000000000E+00 0.  1.
         23    2    1    2    0    0 -0.87536045454E+02 -0.10284764006E+03  0.25200724210E+03  0.29958343290E+03  0.89456061148E+02 0.  0.
         23    2    1    2    0    0  0.10921203921E+03  0.11366367324E+03  0.32584515994E+02  0.18382136745E+03  0.88779751781E+02 0.  0.
        -13    1    3    3    0    0 -0.16975806204E+02 -0.75715010438E+02  0.17617758114E+03  0.19250839176E+03  0.00000000000E+00 0.  1.
         13    1    3    3    0    0 -0.70560239250E+02 -0.27132629621E+02  0.75829660961E+02  0.10707504114E+03  0.00000000000E+00 0. -1.
        -13    1    4    4    0    0  0.76266330256E+02  0.11058368882E+03 -0.41296957949E+01  0.13439627878E+03  0.00000000000E+00 0.  1.
         13    1    4    4    0    0  0.32945708957E+02  0.30799844206E+01  0.36714211789E+02  0.49425088669E+02  0.00000000000E+00 0. -1.
          1    1    1    2  501    0 -0.21675993759E+02 -0.10816033179E+02 -0.25090438763E+02  0.34876430386E+02  0.00000000000E+00 0. -1.
<scales pt_clust_5="13000.00000" pt_clust_6="13000.00000" pt_clust_7="13000.00000" pt_clust_8="13000.00000" pt_clust_9="24.22468"></scales>
<clustering>
<clus scale="   24.225">  2  9  1 -1</clus>
<clus scale="   88.780">  7  8 -1 -1</clus>
<clus scale="   89.456">  5  6 -1 -1</clus>
<clus scale="  166.121">  2  7  1 -1</clus>
<clus scale="   24.225">  2  5  1 -1</clus>
</clustering>
</event>
<event>
 9    1  0.1399746E-005  0.9312374E+02  0.7546771E-02  0.1295478E+00
         21   -1    0    0  501  502  0.00000000000E+00  0.00000000000E+00  0.21490010271E+03  0.21490010271E+03  0.00000000000E+00 0. -1.
          1   -1    0    0  502    0 -0.00000000000E+00 -0.00000000000E+00 -0.12514924339E+03  0.12514924339E+03  0.00000000000E+00 0. -1.
         23    2    1    2    0    0 -0.11102261439E+02 -0.15763039643E+01 -0.63992277592E+02  0.11267876904E+03  0.92063828171E+02 0.  0.
         23    2    1    2    0    0  0.15820553194E+02 -0.30113431799E+02  0.34667039756E+02  0.10405951290E+03  0.92029722920E+02 0.  0.
        -11    1    4    4    0    0  0.44004356411E+02 -0.11966987690E+02  0.49587397858E+02  0.67368406570E+02  0.00000000000E+00 0.  1.
         11    1    4    4    0    0 -0.28183803217E+02 -0.18146444109E+02 -0.14920358101E+02  0.36691106326E+02  0.00000000000E+00 0. -1.
        -13    1    3    3    0    0  0.15358900590E+02  0.38229500214E+02 -0.14000616633E+02  0.43513305781E+02  0.00000000000E+00 0.  1.
         13    1    3    3    0    0 -0.26461162029E+02 -0.39805804178E+02 -0.49991660959E+02  0.69165463258E+02  0.00000000000E+00 0. -1.
          1    1    1    2  501    0 -0.47182917547E+01  0.31689735763E+02  0.11907609716E+03  0.12331106416E+03  0.00000000000E+00 0. -1.
<scales pt_clust_5="13000.00000" pt_clust_6="13000.00000" pt_clust_7="13000.00000" pt_clust_8="13000.00000" pt_clust_9="32.03906"></scales>
<clustering>
<clus scale="   32.039">  1  9  2 -1</clus>
<clus scale="   92.030">  5  6 -1 -1</clus>
<clus scale="   92.064">  7  8 -1 -1</clus>
<clus scale="   93.090">  1  5  2 -1</clus>
<clus scale="   32.039">  1  5  2 -1</clus>
</clustering>
</event>
<event>
 9    1  0.1399746E-005  0.1570163E+03  0.7546771E-02  0.1192307E+00
          1   -1    0    0  502    0 -0.00000000000E+00  0.00000000000E+00  0.98597789532E+03  0.98597789532E+03  0.00000000000E+00 0. -1.
         21   -1    0    0  501  502  0.00000000000E+00 -0.00000000000E+00 -0.53683110567E+02  0.53683110567E+02  0.00000000000E+00 0. -1.
         23    2    1    2    0    0  0.12053556331E+03 -0.20299266658E+02  0.50413469238E+03  0.52691206959E+03  0.92431914221E+02 0.  0.
         23    2    1    2    0    0 -0.12189635534E+03  0.60751815803E+02  0.44083743570E+03  0.47033460474E+03  0.91255088260E+02 0.  0.
        -11    1    4    4    0    0 -0.11390004644E+03  0.31603991754E+02  0.41177258415E+03  0.42840249057E+03  0.00000000000E+00 0. -1.
         11    1    4    4    0    0 -0.79963088979E+01  0.29147824049E+02  0.29064851555E+02  0.41932114169E+02  0.00000000000E+00 0.  1.
        -13    1    3    3    0    0  0.96301016990E+02  0.20800993904E+02  0.40613943362E+03  0.41791842118E+03  0.00000000000E+00 0.  1.
         13    1    3    3    0    0  0.24234546316E+02 -0.41100260563E+02  0.97995258760E+02  0.10899364841E+03  0.00000000000E+00 0. -1.
          1    1    1    2  501    0  0.13607920362E+01 -0.40452549145E+02 -0.12677343332E+02  0.42414331554E+02  0.00000000000E+00 0. -1.
<scales pt_clust_5="13000.00000" pt_clust_6="13000.00000" pt_clust_7="13000.00000" pt_clust_8="13000.00000" pt_clust_9="40.47543"></scales>
<clustering>
<clus scale="   40.475">  2  9  1 -1</clus>
<clus scale="   91.255">  5  6 -1 -1</clus>
<clus scale="   92.432">  7  8 -1 -1</clus>
<clus scale="  156.326">  2  5  1 -1</clus>
<clus scale="   40.475">  2  5  1 -1</clus>
</clustering>
</event>
<event>
 9    1  0.1399746E-005  0.1244437E+03  0.7546771E-02  0.1236157E+00
          3   -1    0    0  502    0 -0.00000000000E+00  0.00000000000E+00  0.37944227337E+03  0.37944227337E+03  0.00000000000E+00 0. -1.
         21   -1    0    0  501  502  0.00000000000E+00 -0.00000000000E+00 -0.80350065084E+02  0.80350065084E+02  0.00000000000E+00 0.  1.
         23    2    1    2    0    0  0.44966669775E+02  0.59114940364E+02  0.21210021941E+03  0.24264240309E+03  0.91500028074E+02 0.  0.
         23    2    1    2    0    0 -0.36141957537E+02 -0.10823793026E+03  0.78865538260E+02  0.16658331711E+03  0.92241735530E+02 0.  0.
        -11    1    3    3    0    0  0.18897685010E+02 -0.22636307281E+02  0.78544729911E+02  0.83897553617E+02  0.00000000000E+00 0.  1.
         11    1    3    3    0    0  0.26068984765E+02  0.81751247646E+02  0.13355548950E+03  0.15874484947E+03  0.00000000000E+00 0. -1.
        -11    1    4    4    0    0  0.30529236234E+02 -0.31223881625E+02  0.14165318608E+02  0.45908836840E+02  0.00000000000E+00 0. -1.
         11    1    4    4    0    0 -0.66671193771E+02 -0.77014048633E+02  0.64700219652E+02  0.12067448027E+03  0.00000000000E+00 0.  1.
          3    1    1    2  501    0 -0.88247122376E+01  0.49122989893E+02  0.81264506154E+01  0.50566618255E+02  0.00000000000E+00 0. -1.
<scales pt_clust_5="13000.00000" pt_clust_6="13000.00000" pt_clust_7="13000.00000" pt_clust_8="13000.00000" pt_clust_9="49.90935"></scales>
<clustering>
<clus scale="   49.909">  2  9  1 -1</clus>
<clus scale="   91.500">  5  6 -1 -1</clus>
<clus scale="   92.242">  7  8 -1 -1</clus>
<clus scale="  123.895">  1  5  2 -1</clus>
<clus scale="   49.909">  2  5  1 -1</clus>
</clustering>
</event>
<event>
 9    1  0.1399746E-005  0.1151050E+03  0.7546771E-02  0.1251665E+00
         21   -1    0    0  501  502  0.00000000000E+00  0.00000000000E+00  0.78123008029E+02  0.78123008029E+02  0.00000000000E+00 0.  1.
          1   -1    0    0  502    0 -0.00000000000E+00 -0.00000000000E+00 -0.48719320164E+03  0.48719320164E+03  0.00000000000E+00 0. -1.
         23    2    1    2    0    0  0.27514783494E+02  0.66898803988E+02 -0.38533506583E+03  0.40258554594E+03  0.91430277007E+02 0.  0.
         23    2    1    2    0    0 -0.49602391247E+02 -0.35698404435E+02  0.12514675647E+02  0.11004883008E+03  0.90660656285E+02 0.  0.
        -11    1    3    3    0    0 -0.29969527280E+02  0.37649060907E+02 -0.11498446628E+03  0.12464771092E+03  0.00000000000E+00 0.  1.
         11    1    3    3    0    0  0.57484310774E+02  0.29249743080E+02 -0.27035059955E+03  0.27793783502E+03  0.00000000000E+00 0. -1.
        -11    1    4    4    0    0 -0.36173848448E+02  0.17513411014E+02 -0.21402355256E+02  0.45533808180E+02  0.00000000000E+00 0. -1.
         11    1    4    4    0    0 -0.13428542799E+02 -0.53211815449E+02  0.33917030903E+02  0.64515021897E+02  0.00000000000E+00 0.  1.
          1    1    1    2  501    0  0.22087607752E+02 -0.31200399553E+02 -0.36249803423E+02  0.52681833650E+02  0.00000000000E+00 0. -1.
<scales pt_clust_5="13000.00000" pt_clust_6="13000.00000" pt_clust_7="13000.00000" pt_clust_8="13000.00000" pt_clust_9="38.22731"></scales>
<clustering>
<clus scale="   38.227">  1  9  2 -1</clus>
<clus scale="   90.661">  7  8 -1 -1</clus>
<clus scale="   91.430">  5  6 -1 -1</clus>
<clus scale="  114.495">  1  7  2 -1</clus>
<clus scale="   38.227">  1  5  2 -1</clus>
</clustering>
</event>
<event>
 9    1  0.1399746E-005  0.1041003E+03  0.7546771E-02  0.1272487E+00
          1   -1    0    0  502    0 -0.00000000000E+00  0.00000000000E+00  0.62449259059E+03  0.62449259059E+03  0.00000000000E+00 0. -1.
         21   -1    0    0  501  502  0.00000000000E+00 -0.00000000000E+00 -0.29476379413E+02  0.29476379413E+02  0.00000000000E+00 0. -1.
         23    2    1    2    0    0 -0.53188529063E+02  0.12433697186E+02  0.40830479999E+03  0.42203102678E+03  0.91726557878E+02 0.  0.
         23    2    1    2    0    0  0.24535697634E+02  0.11632092942E+01  0.96332713825E+02  0.13615605792E+03  0.93032934181E+02 0.  0.
        -11    1    3    3    0    0  0.19537178546E+02 -0.17969021374E+02  0.75890068124E+02  0.80398317859E+02  0.00000000000E+00 0.  1.
         11    1    3    3    0    0 -0.72725707609E+02  0.30402718560E+02  0.33241473186E+03  0.34163270892E+03  0.00000000000E+00 0. -1.
        -11    1    4    4    0    0 -0.78226875902E+01 -0.34672169851E+02  0.75739413282E+02  0.83664882284E+02  0.00000000000E+00 0. -1.
         11    1    4    4    0    0  0.32358385224E+02  0.35835379145E+02  0.20593300543E+02  0.52491175640E+02  0.00000000000E+00 0.  1.
          1    1    1    2  501    0  0.28652831429E+02 -0.13596906481E+02  0.90378697369E+02  0.95781885306E+02  0.00000000000E+00 0. -1.
<scales pt_clust_5="13000.00000" pt_clust_6="13000.00000" pt_clust_7="13000.00000" pt_clust_8="13000.00000" pt_clust_9="31.71532"></scales>
<clustering>
<clus scale="   31.715">  2  9  1 -1</clus>
<clus scale="   91.727">  5  6 -1 -1</clus>
<clus scale="   93.033">  7  8 -1 -1</clus>
<clus scale="  102.934">  1  5  2 -1</clus>
<clus scale="   31.715">  2  5  1 -1</clus>
</clustering>
</event>
<event>
 9    1  0.1399746E-005  0.1202434E+03  0.7546771E-02  0.1242735E+00
         -1   -1    0    0    0  501 -0.00000000000E+00  0.00000000000E+00  0.27120661550E+03  0.27120661550E+03  0.00000000000E+00 0.  1.
         21   -1    0    0  501  502  0.00000000000E+00 -0.00000000000E+00 -0.98624509444E+02  0.98624509444E+02  0.00000000000E+00 0.  1.
         23    2    1    2    0    0 -0.71498439378E+02  0.17166278741E+02  0.17520124847E+03  0.21090137235E+03  0.91527063941E+02 0.  0.
         23    2    1    2    0    0  0.94795626041E+02 -0.40895741049E+01  0.13015033151E+01  0.13192733468E+03  0.91652563474E+02 0.  0.
        -13    1    4    4    0    0  0.84535420698E+02  0.34107586041E+02 -0.73102851455E+01  0.91449467178E+02  0.00000000000E+00 0.  1.
         13    1    4    4    0    0  0.10260205342E+02 -0.38197160145E+02  0.86117884607E+01  0.40477867500E+02  0.00000000000E+00 0. -1.
        -13    1    3    3    0    0 -0.55949406519E+02  0.40120056227E+02  0.16900890899E+03  0.18249374323E+03  0.00000000000E+00 0.  1.
         13    1    3    3    0    0 -0.15549032859E+02 -0.22953777486E+02  0.61923394818E+01  0.28407629116E+02  0.00000000000E+00 0. -1.
         -1    1    1    2    0  502 -0.23297186662E+02 -0.13076704636E+02 -0.39206457281E+01  0.27002417918E+02  0.00000000000E+00 0.  1.
<scales pt_clust_5="13000.00000" pt_clust_6="13000.00000" pt_clust_7="13000.00000" pt_clust_8="13000.00000" pt_clust_9="26.71627"></scales>
<clustering>
<clus scale="   26.716">  2  9  1 -1</clus>
<clus scale="   91.527">  7  8 -1 -1</clus>
<clus scale="   91.653">  5  6 -1 -1</clus>
<clus scale="  120.148">  1  7  2 -1</clus>
<clus scale="   26.716">  2  5  1 -1</clus>
</clustering>
</event>
<event>
 9    1  0.1399746E-005  0.9478693E+02  0.7546771E-02  0.1303612E+00
         21   -1    0    0  501  502  0.00000000000E+00  0.00000000000E+00  0.73406279657E+03  0.73406279657E+03  0.00000000000E+00 0. -1.
         -2   -1    0    0    0  501 -0.00000000000E+00 -0.00000000000E+00 -0.14815359257E+02  0.14815359257E+02  0.00000000000E+00 0.  1.
         23    2    1    2    0    0  0.14838730268E+01  0.22195407516E+02  0.28641911330E+03  0.30238812545E+03  0.94381311480E+02 0.  0.
         23    2    1    2    0    0  0.57212176174E+01  0.28339049454E+01  0.23371487527E+03  0.24568030630E+03  0.75467917898E+02 0.  0.
        -11    1    4    4    0    0 -0.14088624557E+02 -0.26031019326E+02  0.45799161053E+02  0.54531334682E+02  0.00000000000E+00 0.  1.
         11    1    4    4    0    0  0.19809842175E+02  0.28864924271E+02  0.18791571422E+03  0.19114897161E+03  0.00000000000E+00 0. -1.
        -13    1    3    3    0    0 -0.21103039814E+00  0.55207535237E+02  0.11203826353E+03  0.12490191742E+03  0.00000000000E+00 0. -1.
         13    1    3    3    0    0  0.16949034249E+01 -0.33012127721E+02  0.17438084977E+03  0.17748620803E+03  0.00000000000E+00 0.  1.
         -2    1    1    2    0  502 -0.72050906442E+01 -0.25029312461E+02  0.19911344875E+03  0.20080972408E+03  0.00000000000E+00 0.  1.
<scales pt_clust_5="13000.00000" pt_clust_6="13000.00000" pt_clust_7="13000.00000" pt_clust_8="13000.00000" pt_clust_9="26.04573"></scales>
<clustering>
<clus scale="   26.046">  1  9  2 -1</clus>
<clus scale="   75.468">  5  6 -1 -1</clus>
<clus scale="   75.975">  1  5  2 -1</clus>
<clus scale="   94.381">  7  8 -1 -1</clus>
<clus scale="   26.046">  1  5  2 -1</clus>
</clustering>
</event>
<event>
 9    1  0.1399746E-005  0.1664978E+03  0.7546771E-02  0.1181811E+00
          2   -1    0    0  502    0 -0.00000000000E+00  0.00000000000E+00  0.84666189881E+03  0.84666189881E+03  0.00000000000E+00 0. -1.
         21   -1    0    0  501  502  0.00000000000E+00 -0.00000000000E+00 -0.63671749562E+02  0.63671749562E+02  0.00000000000E+00 0.  1.
         23    2    1    2    0    0  0.10270573144E+03 -0.74862821490E+02  0.48962903167E+03  0.51401833111E+03  0.91243338106E+02 0.  0.
         23    2    1    2    0    0 -0.12419385745E+03  0.11251728369E+03  0.29727079696E+03  0.35278505565E+03  0.89460133074E+02 0.  0.
        -11    1    4    4    0    0  0.14828956588E+00  0.43977751689E+02  0.42698012845E+02  0.61295880240E+02  0.00000000000E+00 0. -1.
         11    1    4    4    0    0 -0.12434214701E+03  0.68539532001E+02  0.25457278411E+03  0.29148917541E+03  0.00000000000E+00 0.  1.
        -11    1    3    3    0    0  0.26132880534E+02 -0.25050361159E+02  0.35177882890E+02  0.50477039174E+02  0.00000000000E+00 0.  1.
         11    1    3    3    0    0  0.76572850910E+02 -0.49812460331E+02  0.45445114878E+03  0.46354129193E+03  0.00000000000E+00 0. -1.
          2    1    1    2  501    0  0.21488126005E+02 -0.37654462200E+02 -0.39096793849E+01  0.43530261608E+02  0.00000000000E+00 0. -1.
<scales pt_clust_5="13000.00000" pt_clust_6="13000.00000" pt_clust_7="13000.00000" pt_clust_8="13000.00000" pt_clust_9="43.35433"></scales>
<clustering>
<clus scale="   43.354">  2  9  1 -1</clus>
<clus scale="   89.460">  5  6 -1 -1</clus>
<clus scale="   91.243">  7  8 -1 -1</clus>
<clus scale="  165.527">  2  5  1 -1</clus>
<clus scale="   43.354">  2  5  1 -1</clus>
</clustering>
</event>
<event>
 9    1  0.1399746E-005  0.1576985E+03  0.7546771E-02  0.1212037E+00
         21   -1    0    0  501  502  0.00000000000E+00  0.00000000000E+00  0.27576627771E+03  0.27576627771E+03  0.00000000000E+00 0. -1.
          1   -1    0    0  502    0 -0.00000000000E+00 -0.00000000000E+00 -0.17767925280E+03  0.17767925280E+03  0.00000000000E+00 0. -1.
         23    2    1    2    0    0  0.60463470030E+02  0.19681945422E+02  0.13011548678E+02  0.10152141099E+03  0.78064629034E+02 0.  0.
         23    2    1    2    0    0 -0.17435450088E+02  0.10282646729E+03 -0.61467406770E+02  0.15613204041E+03  0.98598654422E+02 0.  0.
        -11    1    3    3    0    0  0.15436963571E+02  0.45893337987E+02  0.91624376034E+01  0.49279291580E+02  0.00000000000E+00 0.  1.
         11    1    3    3    0    0  0.45026506459E+02 -0.26211392564E+02  0.38491110750E+01  0.52242119407E+02  0.00000000000E+00 0. -1.
        -11    1    4    4    0    0 -0.33491297018E+02 -0.27298686302E+01 -0.29404285594E+02  0.44651216892E+02  0.00000000000E+00 0.  1.
         11    1    4    4    0    0  0.16055846929E+02  0.10555633592E+03 -0.32063121176E+02  0.11148082352E+03  0.00000000000E+00 0. -1.
          1    1    1    2  501    0 -0.43028019941E+02 -0.12250841271E+03  0.14654288299E+03  0.19579207911E+03  0.00000000000E+00 0. -1.
<scales pt_clust_5="13000.00000" pt_clust_6="13000.00000" pt_clust_7="13000.00000" pt_clust_8="13000.00000" pt_clust_9="123.07364"></scales>
<clustering>
<clus scale="   78.065">  5  6 -1 -1</clus>
<clus scale="   98.599">  7  8 -1 -1</clus>
<clus scale="  100.684">  2  5  1 -1</clus>
<clus scale="  123.074">  1  9  2 -1</clus>
<clus scale="  123.074">  1  5  2 -1</clus>
</clustering>
</event>
<event>
 9    1  0.1399746E-005  0.3950855E+03  0.7546771E-02  0.1045509E+00
         -2   -1    0    0    0  501 -0.00000000000E+00  0.00000000000E+00  0.78498116928E+03  0.78498116928E+03  0.00000000000E+00 0.  1.
         21   -1    0    0  501  502  0.00000000000E+00 -0.00000000000E+00 -0.48673379476E+03  0.48673379476E+03  0.00000000000E+00 0. -1.
         23    2    1    2    0    0  0.65164071850E+02 -0.41498260163E+03  0.53946698911E+03  0.68964653820E+03  0.90170945454E+02 0.  0.
         23    2    1    2    0    0  0.53492897229E+02  0.30603326261E+03 -0.42227904274E+02  0.32604667763E+03  0.89472857434E+02 0.  0.
        -11    1    3    3    0    0 -0.61911473410E+01 -0.23945190237E+03  0.28264526258E+03  0.37049141463E+03  0.00000000000E+00 0.  1.
         11    1    3    3    0    0  0.71355219191E+02 -0.17553069926E+03  0.25682172652E+03  0.31915512357E+03  0.00000000000E+00 0. -1.
        -13    1    4    4    0    0  0.36421339522E+02  0.24598597275E+03 -0.69087705944E+02  0.25808665962E+03  0.00000000000E+00 0. -1.
         13    1    4    4    0    0  0.17071557708E+02  0.60047289859E+02  0.26859801670E+02  0.67960018008E+02  0.00000000000E+00 0.  1.
         -2    1    1    2    0  502 -0.11865696908E+03  0.10894933902E+03 -0.19899171031E+03  0.25602174821E+03  0.00000000000E+00 0.  1.
<scales pt_clust_5="13000.00000" pt_clust_6="13000.00000" pt_clust_7="13000.00000" pt_clust_8="13000.00000" pt_clust_9="161.08828"></scales>
<clustering>
<clus scale="   89.473">  7  8 -1 -1</clus>
<clus scale="   90.171">  5  6 -1 -1</clus>
<clus scale="  161.088">  2  9  1 -1</clus>
<clus scale="  394.927">  2  7  1 -1</clus>
<clus scale="  161.088">  2  5  1 -1</clus>
</clustering>
</event>
<event>
 9    1  0.1399746E-005  0.9314978E+02  0.7546771E-02  0.1295688E+00
         -4   -1    0    0    0  501 -0.00000000000E+00  0.00000000000E+00  0.12646550124E+03  0.12646550124E+03  0.00000000000E+00 0.  1.
         21   -1    0    0  501  502  0.00000000000E+00 -0.00000000000E+00 -0.13898994032E+03  0.13898994032E+03  0.00000000000E+00 0. -1.
         23    2    1    2    0    0  0.76987075133E+01  0.16137035174E+02  0.38579284490E+02  0.98183058125E+02  0.88497896639E+02 0.  0.
         23    2    1    2    0    0 -0.46050307033E+02 -0.16497037901E+02  0.22065020248E+01  0.10159929198E+03  0.89021146038E+02 0.  0.
        -11    1    4    4    0    0 -0.69856388643E+02 -0.80983588674E+01 -0.13858657999E+02  0.71676780425E+02  0.00000000000E+00 0. -1.
         11    1    4    4    0    0  0.23806081609E+02 -0.83986790333E+01  0.16065160024E+02  0.29922511554E+02  0.00000000000E+00 0.  1.
        -13    1    3    3    0    0  0.29396442067E+02 -0.27896399047E+02  0.11527335750E+02  0.42133589397E+02  0.00000000000E+00 0.  1.
         13    1    3    3    0    0 -0.21697734554E+02  0.44033434221E+02  0.27051948740E+02  0.56049468728E+02  0.00000000000E+00 0. -1.
         -4    1    1    2    0  502  0.38351599520E+02  0.36000272638E+00 -0.53310225602E+02  0.65673091457E+02  0.00000000000E+00 0.  1.
<scales pt_clust_5="13000.00000" pt_clust_6="13000.00000" pt_clust_7="13000.00000" pt_clust_8="13000.00000" pt_clust_9="38.35329"></scales>
<clustering>
<clus scale="   38.353">  2  9  1 -1</clus>
<clus scale="   88.498">  7  8 -1 -1</clus>
<clus scale="   89.021">  5  6 -1 -1</clus>
<clus scale="   92.650">  1  7  2 -1</clus>
<clus scale="   38.353">  2  5  1 -1</clus>
</clustering>
</event>
<event>
 9    1  0.1399746E-005  0.9374430E+02  0.7546771E-02  0.1295102E+00
          2   -1    0    0  502    0 -0.00000000000E+00  0.00000000000E+00  0.19556383148E+03  0.19556383148E+03  0.00000000000E+00 0. -1.
         21   -1    0    0  501  502  0.00000000000E+00 -0.00000000000E+00 -0.11216869323E+03  0.11216869323E+03  0.00000000000E+00 0. -1.
         23    2    1    2    0    0  0.75862368190E+01  0.18445807588E+02  0.12627651714E+03  0.15741981531E+03  0.91855542368E+02 0.  0.
         23    2    1    2    0    0  0.28571966914E+02 -0.19578527009E+02 -0.56404310576E+02  0.11169188042E+03  0.89966404208E+02 0.  0.
        -13    1    4    4    0    0 -0.27383161035E+02  0.12470008085E+02 -0.28452312419E+02  0.41411021382E+02  0.00000000000E+00 0.  1.
         13    1    4    4    0    0  0.55955127949E+02 -0.32048535094E+02 -0.27951998157E+02  0.70280859034E+02  0.00000000000E+00 0. -1.
        -13    1    3    3    0    0 -0.11537671887E+02  0.51080747521E+02  0.50615779738E+02  0.72830747616E+02  0.00000000000E+00 0.  1.
         13    1    3    3    0    0  0.19123908706E+02 -0.32634939933E+02  0.75660737401E+02  0.84589067690E+02  0.00000000000E+00 0. -1.
          2    1    1    2  501    0 -0.36158203733E+02  0.11327194207E+01  0.13522931689E+02  0.38620828991E+02  0.00000000000E+00 0. -1.
<scales pt_clust_5="13000.00000" pt_clust_6="13000.00000" pt_clust_7="13000.00000" pt_clust_8="13000.00000" pt_clust_9="36.17596"></scales>
<clustering>
<clus scale="   36.176">  2  9  1 -1</clus>
<clus scale="   89.966">  5  6 -1 -1</clus>
<clus scale="   91.856">  7  8 -1 -1</clus>
<clus scale="   91.894">  2  5  1 -1</clus>
<clus scale="   36.176">  2  5  1 -1</clus>
</clustering>
</event>
<event>
 9    1  0.1399746E-005  0.2088228E+03  0.7546771E-02  0.1142518E+00
          1   -1    0    0  502    0 -0.00000000000E+00  0.00000000000E+00  0.80123580416E+03  0.80123580416E+03  0.00000000000E+00 0. -1.
         21   -1    0    0  501  502  0.00000000000E+00 -0.00000000000E+00 -0.70267000127E+02  0.70267000127E+02  0.00000000000E+00 0. -1.
         23    2    1    2    0    0  0.16100953963E+03 -0.53906041160E+02  0.30642889734E+03  0.36203560457E+03  0.91330042851E+02 0.  0.
         23    2    1    2    0    0 -0.18724826141E+03  0.98093122412E+02  0.35094563326E+03  0.41970592882E+03  0.91137572482E+02 0.  0.
        -11    1    4    4    0    0 -0.97213558583E+02  0.10065407292E+03  0.22177888581E+03  0.26223575759E+03  0.00000000000E+00 0. -1.
         11    1    4    4    0    0 -0.90034702827E+02 -0.25609505085E+01  0.12916674745E+03  0.15747017123E+03  0.00000000000E+00 0.  1.
        -11    1    3    3    0    0  0.13320952912E+03 -0.48573582919E+02  0.30167195021E+03  0.33333187239E+03  0.00000000000E+00 0. -1.
         11    1    3    3    0    0  0.27800010515E+02 -0.53324582412E+01  0.47569471323E+01  0.28703732188E+02  0.00000000000E+00 0.  1.
          1    1    1    2  501    0  0.26238721777E+02 -0.44187081252E+02  0.73594273432E+02  0.89761270892E+02  0.00000000000E+00 0. -1.
<scales pt_clust_5="13000.00000" pt_clust_6="13000.00000" pt_clust_7="13000.00000" pt_clust_8="13000.00000" pt_clust_9="51.39036"></scales>
<clustering>
<clus scale="   51.390">  2  9  1 -1</clus>
<clus scale="   91.138">  5  6 -1 -1</clus>
<clus scale="   91.330">  7  8 -1 -1</clus>
<clus scale="  208.739">  2  5  1 -1</clus>
<clus scale="   51.390">  2  5  1 -1</clus>
</clustering>
</event>
<event>
 9    1  0.1399746E-005  0.1035728E+03  0.7546771E-02  0.1273179E+00
         -2   -1    0    0    0  501 -0.00000000000E+00  0.00000000000E+00  0.18787506329E+03  0.18787506329E+03  0.00000000000E+00 0.  1.
         21   -1    0    0  501  502  0.00000000000E+00 -0.00000000000E+00 -0.21215070051E+03  0.21215070051E+03  0.00000000000E+00 0.  1.
         23    2    1    2    0    0 -0.43637698542E+02  0.19664104292E+02  0.14113793696E+03  0.17520577566E+03  0.92120686282E+02 0.  0.
         23    2    1    2    0    0  0.49098887692E+02  0.28890976697E+01 -0.66995164030E+02  0.12370295217E+03  0.91624345641E+02 0.  0.
        -13    1    3    3    0    0 -0.29742452659E+02 -0.32421668780E+02  0.93214546030E+02  0.10307632943E+03  0.00000000000E+00 0. -1.
         13    1    3    3    0    0 -0.13895245883E+02  0.52085773072E+02  0.47923390934E+02  0.72129446228E+02  0.00000000000E+00 0.  1.
        -13    1    4    4    0    0  0.64857132707E+02 -0.16346340342E+02 -0.18810043140E+02  0.69479984373E+02  0.00000000000E+00 0.  1.
         13    1    4    4    0    0 -0.15758245015E+02  0.19235438012E+02 -0.48185120890E+02  0.54222967797E+02  0.00000000000E+00 0. -1.
         -2    1    1    2    0  502 -0.54611891502E+01 -0.22553201962E+02 -0.98418410161E+02  0.10111703597E+03  0.00000000000E+00 0.  1.
<scales pt_clust_5="13000.00000" pt_clust_6="13000.00000" pt_clust_7="13000.00000" pt_clust_8="13000.00000" pt_clust_9="23.20499"></scales>
<clustering>
<clus scale="   23.205">  2  9  1 -1</clus>
<clus scale="   91.624">  7  8 -1 -1</clus>
<clus scale="   92.121">  5  6 -1 -1</clus>
<clus scale="  103.132">  2  7  1 -1</clus>
<clus scale="   23.205">  2  5  1 -1</clus>
</clustering>
</event>
<event>
 9    1  0.1399746E-005  0.1812130E+03  0.7546771E-02  0.1186038E+00
         -3   -1    0    0    0  501 -0.00000000000E+00  0.00000000000E+00  0.59285010875E+02  0.59285010875E+02  0.00000000000E+00 0.  1.
         21   -1    0    0  501  502  0.00000000000E+00 -0.00000000000E+00 -0.13425685771E+04  0.13425685771E+04  0.00000000000E+00 0.  1.
         23    2    1    2    0    0 -0.72717651175E+02  0.17396057924E+01 -0.19333782055E+03  0.22589277950E+03  0.91417459799E+02 0.  0.
         23    2    1    2    0    0  0.10430801795E+03 -0.14372343799E+03 -0.25147896721E+03  0.32497085643E+03  0.10405670256E+03 0.  0.
        -11    1    4    4    0    0  0.99452811964E+02 -0.50400686826E+02 -0.12174528443E+03  0.16508484280E+03  0.00000000000E+00 0.  1.
         11    1    4    4    0    0  0.48552059858E+01 -0.93322751162E+02 -0.12973368277E+03  0.15988601363E+03  0.00000000000E+00 0. -1.
        -11    1    3    3    0    0 -0.40755402186E+02 -0.22219060008E+02 -0.24685120546E+02  0.52574181985E+02  0.00000000000E+00 0.  1.
         11    1    3    3    0    0 -0.31962248989E+02  0.23958665800E+02 -0.16865270000E+03  0.17331859751E+03  0.00000000000E+00 0. -1.
         -3    1    1    2    0  502 -0.31590366774E+02  0.14198383220E+03 -0.83846677851E+03  0.85098995208E+03  0.00000000000E+00 0.  1.
<scales pt_clust_5="13000.00000" pt_clust_6="13000.00000" pt_clust_7="13000.00000" pt_clust_8="13000.00000" pt_clust_9="148.35882"></scales>
<clustering>
<clus scale="   91.417">  7  8 -1 -1</clus>
<clus scale="  104.057">  5  6 -1 -1</clus>
<clus scale="  116.825">  1  7  2 -1</clus>
<clus scale="  148.359">  2  9  1 -1</clus>
<clus scale="  148.359">  2  5  1 -1</clus>
</clustering>
</event>
<event>
 9    1  0.1399746E-005  0.1068672E+03  0.7546771E-02  0.1267099E+00
         21   -1    0    0  501  502  0.00000000000E+00  0.00000000000E+00  0.67153890809E+02  0.67153890809E+02  0.00000000000E+00 0. -1.
          1   -1    0    0  502    0 -0.00000000000E+00 -0.00000000000E+00 -0.27281754426E+03  0.27281754426E+03  0.00000000000E+00 0. -1.
         23    2    1    2    0    0  0.61805041938E+02  0.12844825783E+02 -0.12449661313E+03  0.16565903042E+03  0.89211293688E+02 0.  0.
         23    2    1    2    0    0 -0.48965099065E+02  0.27991280512E+02 -0.76218294688E+02  0.13122015716E+03  0.90710575396E+02 0.  0.
        -11    1    3    3    0    0  0.15122038284E+02 -0.35613182191E+02 -0.26930256138E+02  0.47140359388E+02  0.00000000000E+00 0.  1.
         11    1    3    3    0    0  0.46683003654E+02  0.48458007974E+02 -0.97566356992E+02  0.11851867103E+03  0.00000000000E+00 0. -1.
        -13    1    4    4    0    0 -0.42452859056E+02  0.56480973599E+02 -0.73365130455E+02  0.10185670320E+03  0.00000000000E+00 0. -1.
         13    1    4    4    0    0 -0.65122400086E+01 -0.28489693087E+02 -0.28531642330E+01  0.29363453956E+02  0.00000000000E+00 0.  1.
          1    1    1    2  501    0 -0.12839942873E+02 -0.40836106295E+02 -0.49487456356E+01  0.43092247490E+02  0.00000000000E+00 0. -1.
<scales pt_clust_5="13000.00000" pt_clust_6="13000.00000" pt_clust_7="13000.00000" pt_clust_8="13000.00000" pt_clust_9="42.80715"></scales>
<clustering>
<clus scale="   42.807">  1  9  2 -1</clus>
<clus scale="   89.211">  5  6 -1 -1</clus>
<clus scale="   90.711">  7  8 -1 -1</clus>
<clus scale="  105.598">  2  5  1 -1</clus>
<clus scale="   42.807">  1  5  2 -1</clus>
</clustering>
</event>
<event>
 9    1  0.1399746E-005  0.9418344E+02  0.7546771E-02  0.1293279E+00
         21   -1    0    0  501  502  0.00000000000E+00  0.00000000000E+00  0.29395571535E+02  0.29395571535E+02  0.00000000000E+00 0.  1.
          1   -1    0    0  502    0 -0.00000000000E+00 -0.00000000000E+00 -0.56749252084E+03  0.56749252084E+03  0.00000000000E+00 0. -1.
         23    2    1    2    0    0 -0.46717084851E+01 -0.13191909121E+02 -0.31940445721E+03  0.33293021180E+03  0.92884160724E+02 0.  0.
         23    2    1    2    0    0 -0.30453078483E+02  0.30884152185E+01 -0.20019864014E+03  0.22299626674E+03  0.93332262194E+02 0.  0.
        -11    1    3    3    0    0  0.19829727261E+02 -0.40218352481E+02 -0.25499552006E+03  0.25890818683E+03  0.00000000000E+00 0. -1.
         11    1    3    3    0    0 -0.24501435746E+02  0.27026443360E+02 -0.64408937154E+02  0.74022024963E+02  0.00000000000E+00 0.  1.
        -13    1    4    4    0    0 -0.47471070049E+02  0.24533187310E+02 -0.18305460488E+03  0.19069443657E+03  0.00000000000E+00 0.  1.
         13    1    4    4    0    0  0.17017991567E+02 -0.21444772091E+02 -0.17144035261E+02  0.32301830166E+02  0.00000000000E+00 0. -1.
          1    1    1    2  501    0  0.35124786968E+02  0.10103493902E+02 -0.18493851953E+02  0.40961613843E+02  0.00000000000E+00 0. -1.
<scales pt_clust_5="13000.00000" pt_clust_6="13000.00000" pt_clust_7="13000.00000" pt_clust_8="13000.00000" pt_clust_9="36.54903"></scales>
<clustering>
<clus scale="   36.549">  1  9  2 -1</clus>
<clus scale="   92.884">  5  6 -1 -1</clus>
<clus scale="   93.332">  7  8 -1 -1</clus>
<clus scale="   93.739">  2  5  1 -1</clus>
<clus scale="   36.549">  1  5  2 -1</clus>
</clustering>
</event>
<event>
 9    1  0.1399746E-005  0.9413020E+02  0.7546771E-02  0.1296718E+00
          2   -1    0    0  502    0 -0.00000000000E+00  0.00000000000E+00  0.71241470900E+03  0.71241470900E+03  0.00000000000E+00 0. -1.
         21   -1    0    0  501  502  0.00000000000E+00 -0.00000000000E+00 -0.18411376508E+02  0.18411376508E+02  0.00000000000E+00 0.  1.
         23    2    1    2    0    0 -0.32645079330E+02  0.16465910674E+02  0.35416966433E+03  0.36592597553E+03  0.84432464217E+02 0.  0.
         23    2    1    2    0    0  0.14599804223E+02  0.16956072484E+02  0.26477601032E+03  0.28077928669E+03  0.90719399862E+02 0.  0.
        -11    1    4    4    0    0  0.36576133619E+02 -0.18834772450E+02  0.67238175737E+02  0.78825975923E+02  0.00000000000E+00 0. -1.
         11    1    4    4    0    0 -0.21976329396E+02  0.35790844935E+02  0.19753783459E+03  0.20195331076E+03  0.00000000000E+00 0.  1.
        -11    1    3    3    0    0 -0.35833770522E+02 -0.29181170743E+02  0.18323012503E+03  0.18896792996E+03  0.00000000000E+00 0.  1.
         11    1    3    3    0    0  0.31886911914E+01  0.45647081417E+02  0.17093953930E+03  0.17695804557E+03  0.00000000000E+00 0. -1.
          2    1    1    2  501    0  0.18045275107E+02 -0.33421983158E+02  0.75057657833E+02  0.84120823291E+02  0.00000000000E+00 0. -1.
<scales pt_clust_5="13000.00000" pt_clust_6="13000.00000" pt_clust_7="13000.00000" pt_clust_8="13000.00000" pt_clust_9="37.98238"></scales>
<clustering>
<clus scale="   37.982">  2  9  1 -1</clus>
<clus scale="   84.432">  7  8 -1 -1</clus>
<clus scale="   88.087">  1  7  2 -1</clus>
<clus scale="   90.719">  5  6 -1 -1</clus>
<clus scale="   37.982">  2  5  1 -1</clus>
</clustering>
</event>
<event>
 9    1  0.1399746E-005  0.1348614E+03  0.7546771E-02  0.1234452E+00
         21   -1    0    0  501  502  0.00000000000E+00  0.00000000000E+00  0.13466234213E+03  0.13466234213E+03  0.00000000000E+00 0. -1.
          1   -1    0    0  502    0 -0.00000000000E+00 -0.00000000000E+00 -0.43709702794E+03  0.43709702794E+03  0.00000000000E+00 0. -1.
         23    2    1    2    0    0 -0.30014421593E+02 -0.38385742306E+02 -0.31890725848E+03  0.33445920329E+03  0.88242781207E+02 0.  0.
         23    2    1    2    0    0 -0.52756313325E+02 -0.45817787161E+02  0.14658950276E+01  0.11827735675E+03  0.95419526593E+02 0.  0.
        -13    1    3    3    0    0 -0.42051723516E+02 -0.59946904242E+02 -0.19922330324E+03  0.21225433643E+03  0.00000000000E+00 0. -1.
         13    1    3    3    0    0  0.12037301923E+02  0.21561161936E+02 -0.11968395524E+03  0.12220486686E+03  0.00000000000E+00 0.  1.
        -13    1    4    4    0    0 -0.54536849361E+02  0.15029782033E+02 -0.62605931798E+01  0.56915352175E+02  0.00000000000E+00 0.  1.
         13    1    4    4    0    0  0.17805360358E+01 -0.60847569193E+02  0.77264882074E+01  0.61362004574E+02  0.00000000000E+00 0. -1.
          1    1    1    2  501    0  0.82770734918E+02  0.84203529466E+02  0.15006677643E+02  0.11902281003E+03  0.00000000000E+00 0. -1.
<scales pt_clust_5="13000.00000" pt_clust_6="13000.00000" pt_clust_7="13000.00000" pt_clust_8="13000.00000" pt_clust_9="95.30334"></scales>
<clustering>
<clus scale="   88.243">  5  6 -1 -1</clus>
<clus scale="   95.420">  7  8 -1 -1</clus>
<clus scale="  100.802">  2  5  1 -1</clus>
<clus scale="   95.303">  1  9  2 -1</clus>
<clus scale="   95.303">  1  5  2 -1</clus>
</clustering>
</event>
<event>
 9    1  0.1870690E-005  0.2071087E+03  0.7546771E-02  0.1143887E+00
         21   -1    0    0  501  502  0.00000000000E+00  0.00000000000E+00  0.29151908629E+03  0.29151908629E+03  0.00000000000E+00 0.  1.
         -1   -1    0    0    0  501 -0.00000000000E+00 -0.00000000000E+00 -0.48965512680E+03  0.48965512680E+03  0.00000000000E+00 0.  1.
         23    2    1    2    0    0 -0.52970793980E+02 -0.17642943712E+03 -0.39612898397E+03  0.44610151920E+03  0.90305825909E+02 0.  0.
         23    2    1    2    0    0  0.63425085319E+02  0.19834326820E+03  0.20884827342E+03  0.30847670945E+03  0.90429450271E+02 0.  0.
        -11    1    3    3    0    0 -0.77335125580E+02 -0.14779646236E+03 -0.30753585753E+03  0.34986114331E+03  0.00000000000E+00 0.  1.
         11    1    3    3    0    0  0.24364331601E+02 -0.28632974761E+02 -0.88593126444E+02  0.96240375888E+02  0.00000000000E+00 0. -1.
        -11    1    4    4    0    0  0.18294434401E+02  0.17125544821E+03  0.17694892795E+03  0.24692921653E+03  0.00000000000E+00 0.  1.
         11    1    4    4    0    0  0.45130650917E+02  0.27087819989E+02  0.31899345467E+02  0.61547492924E+02  0.00000000000E+00 0. -1.
         -1    1    1    2    0  502 -0.10454291339E+02 -0.21913831081E+02 -0.10855329955E+02  0.26595984443E+02  0.00000000000E+00 0.  1.
<scales pt_clust_5="13000.00000" pt_clust_6="13000.00000" pt_clust_7="13000.00000" pt_clust_8="13000.00000" pt_clust_9="24.27980"></scales>
<clustering>
<clus scale="   24.280">  1  9  2 -1</clus>
<clus scale="   90.306">  5  6 -1 -1</clus>
<clus scale="   90.429">  7  8 -1 -1</clus>
<clus scale="  207.055">  2  5  1 -1</clus>
<clus scale="   24.280">  1  5  2 -1</clus>
</clustering>
</event>
<event>
 9    1  0.1399746E-005  0.1727256E+03  0.7546771E-02  0.1175319E+00
         -1   -1    0    0    0  501 -0.00000000000E+00  0.00000000000E+00  0.84163747889E+03  0.84163747889E+03  0.00000000000E+00 0.  1.
         21   -1    0    0  501  502  0.00000000000E+00 -0.00000000000E+00 -0.58137109999E+02  0.58137109999E+02  0.00000000000E+00 0.  1.
         23    2    1    2    0    0 -0.15858738291E+02  0.13912718289E+03  0.45900295629E+03  0.48844675998E+03  0.91042027988E+02 0.  0.
         23    2    1    2    0    0  0.63354936558E+02 -0.15639263705E+03  0.19712445795E+03  0.27429551763E+03  0.88923979656E+02 0.  0.
        -13    1    4    4    0    0  0.62147284227E+02 -0.57678190329E+02  0.54344261654E+02  0.10070927143E+03  0.00000000000E+00 0. -1.
         13    1    4    4    0    0  0.12076523311E+01 -0.98714446723E+02  0.14278019630E+03  0.17358624620E+03  0.00000000000E+00 0.  1.
        -13    1    3    3    0    0 -0.14513841866E+02  0.44191332704E+02  0.48868798641E+02  0.67466176507E+02  0.00000000000E+00 0. -1.
         13    1    3    3    0    0 -0.13448964247E+01  0.94935850183E+02  0.41013415765E+03  0.42098058348E+03  0.00000000000E+00 0.  1.
         -1    1    1    2    0  502 -0.47496198266E+02  0.17265454164E+02  0.12737295466E+03  0.13703231128E+03  0.00000000000E+00 0.  1.
<scales pt_clust_5="13000.00000" pt_clust_6="13000.00000" pt_clust_7="13000.00000" pt_clust_8="13000.00000" pt_clust_9="50.53699"></scales>
<clustering>
<clus scale="   50.537">  2  9  1 -1</clus>
<clus scale="   88.924">  5  6 -1 -1</clus>
<clus scale="   91.042">  7  8 -1 -1</clus>
<clus scale="  171.619">  2  5  1 -1</clus>
<clus scale="   50.537">  2  5  1 -1</clus>
</clustering>
</event>
<event>
 9    1  0.1399746E-005  0.1381537E+03  0.7546771E-02  0.1231310E+00
          1   -1    0    0  502    0 -0.00000000000E+00  0.00000000000E+00  0.82695227384E+03  0.82695227384E+03  0.00000000000E+00 0. -1.
         21   -1    0    0  501  502  0.00000000000E+00 -0.00000000000E+00 -0.36333341475E+02  0.36333341475E+02  0.00000000000E+00 0. -1.
         23    2    1    2    0    0 -0.36983450963E+02 -0.10815778012E+02  0.21828109117E+03  0.24010531642E+03  0.92299358121E+02 0.  0.
         23    2    1    2    0    0 -0.49483731007E+02 -0.66966192996E+02  0.36610351688E+03  0.38641204702E+03  0.91374911071E+02 0.  0.
        -13    1    3    3    0    0 -0.43314352512E+02 -0.37943163612E+02  0.77254613320E+02  0.96353993574E+02  0.00000000000E+00 0. -1.
         13    1    3    3    0    0  0.63309015481E+01  0.27127385601E+02  0.14102647785E+03  0.14375132284E+03  0.00000000000E+00 0.  1.
        -13    1    4    4    0    0 -0.28865194577E+02  0.19373216851E+02  0.96466138966E+02  0.10253895336E+03  0.00000000000E+00 0.  1.
         13    1    4    4    0    0 -0.20618536430E+02 -0.86339409846E+02  0.26963737791E+03  0.28387309366E+03  0.00000000000E+00 0. -1.
          1    1    1    2  501    0  0.86467181970E+02  0.77781971007E+02  0.20623432431E+03  0.23676825188E+03  0.00000000000E+00 0. -1.
<scales pt_clust_5="13000.00000" pt_clust_6="13000.00000" pt_clust_7="13000.00000" pt_clust_8="13000.00000" pt_clust_9="103.61978"></scales>
<clustering>
<clus scale="   91.375">  7  8 -1 -1</clus>
<clus scale="   92.299">  5  6 -1 -1</clus>
<clus scale="  100.020">  1  5  2 -1</clus>
<clus scale="  103.620">  2  9  1 -1</clus>
<clus scale="  103.620">  2  5  1 -1</clus>
</clustering>
</event>
<event>
 9    1  0.1399746E-005  0.1015020E+03  0.7546771E-02  0.1278608E+00
          1   -1    0    0  502    0 -0.00000000000E+00  0.00000000000E+00  0.36509680907E+03  0.36509680907E+03  0.00000000000E+00 0. -1.
         21   -1    0    0  501  502  0.00000000000E+00 -0.00000000000E+00 -0.72813722368E+02  0.72813722368E+02  0.00000000000E+00 0. -1.
         23    2    1    2    0    0  0.34707209237E+02 -0.12055668311E+02  0.19035394009E+03  0.21453634466E+03  0.91876499506E+02 0.  0.
         23    2    1    2    0    0 -0.38129034414E+02 -0.12029934547E+02  0.14267547358E+03  0.17591801420E+03  0.94827814311E+02 0.  0.
        -13    1    3    3    0    0  0.64487197564E+02  0.42917266172E+01  0.11600442704E+03  0.13279324027E+03  0.00000000000E+00 0. -1.
         13    1    3    3    0    0 -0.29779988327E+02 -0.16347394928E+02  0.74349513050E+02  0.81743104397E+02  0.00000000000E+00 0.  1.
        -13    1    4    4    0    0 -0.68641891239E+02  0.86526498686E+00  0.83441822258E+02  0.10805089365E+03  0.00000000000E+00 0.  1.
         13    1    4    4    0    0  0.30512856825E+02 -0.12895199534E+02  0.59233651326E+02  0.67867120552E+02  0.00000000000E+00 0. -1.
          1    1    1    2  501    0  0.34218251773E+01  0.24085602858E+02 -0.40746326979E+02  0.47456172569E+02  0.00000000000E+00 0. -1.
<scales pt_clust_5="13000.00000" pt_clust_6="13000.00000" pt_clust_7="13000.00000" pt_clust_8="13000.00000" pt_clust_9="24.32746"></scales>
<clustering>
<clus scale="   24.327">  2  9  1 -1</clus>
<clus scale="   91.876">  5  6 -1 -1</clus>
<clus scale="   94.828">  7  8 -1 -1</clus>
<clus scale="   98.750">  1  5  2 -1</clus>
<clus scale="   24.327">  2  5  1 -1</clus>
</clustering>
</event>
<event>
 9    1  0.1399746E-005  0.9490515E+02  0.7546771E-02  0.1294319E+00
          2   -1    0    0  502    0 -0.00000000000E+00  0.00000000000E+00  0.15930149563E+03  0.15930149563E+03  0.00000000000E+00 0. -1.
         21   -1    0    0  501  502  0.00000000000E+00 -0.00000000000E+00 -0.12484228893E+03  0.12484228893E+03  0.00000000000E+00 0.  1.
         23    2    1    2    0    0 -0.18201921562E+02  0.31982161473E+02  0.11122324657E+03  0.14387645562E+03  0.83520388555E+02 0.  0.
         23    2    1    2    0    0  0.18633727350E+02 -0.71739594766E+01 -0.50740443308E+02  0.10431095369E+03  0.88924130485E+02 0.  0.
        -11    1    3    3    0    0  0.19706096138E+02  0.14596204481E+02 -0.59894819226E+00  0.24530351591E+02  0.00000000000E+00 0.  1.
         11    1    3    3    0    0 -0.37908017700E+02  0.17385956992E+02  0.11182219476E+03  0.11934610403E+03  0.00000000000E+00 0. -1.
        -13    1    4    4    0    0  0.53384239616E+02  0.15109606181E+01 -0.19731999162E+02  0.56934276427E+02  0.00000000000E+00 0. -1.
         13    1    4    4    0    0 -0.34750512266E+02 -0.86849200947E+01 -0.31008444146E+02  0.47376677260E+02  0.00000000000E+00 0.  1.
          2    1    1    2  501    0 -0.43180578824E+00 -0.24808201997E+02 -0.26023596560E+02  0.35956375241E+02  0.00000000000E+00 0. -1.
<scales pt_clust_5="13000.00000" pt_clust_6="13000.00000" pt_clust_7="13000.00000" pt_clust_8="13000.00000" pt_clust_9="24.81196"></scales>
<clustering>
<clus scale="   24.812">  2  9  1 -1</clus>
<clus scale="   83.520">  5  6 -1 -1</clus>
<clus scale="   88.924">  7  8 -1 -1</clus>
<clus scale="   89.862">  1  5  2 -1</clus>
<clus scale="   24.812">  2  5  1 -1</clus>
</clustering>
</event>
<event>
 9    1  0.1399746E-005  0.1094646E+03  0.7546771E-02  0.1261766E+00
          3   -1    0    0  502    0 -0.00000000000E+00  0.00000000000E+00  0.38029846086E+03  0.38029846086E+03  0.00000000000E+00 0. -1.
         21   -1    0    0  501  502  0.00000000000E+00 -0.00000000000E+00 -0.77435993531E+02  0.77435993531E+02  0.00000000000E+00 0.  1.
         23    2    1    2    0    0 -0.40264910270E+02 -0.16894661567E+02  0.16974575471E+03  0.19672352409E+03  0.89329900372E+02 0.  0.
         23    2    1    2    0    0  0.81834126232E+02  0.54832045265E+02  0.15149042486E+03  0.20180925719E+03  0.89856830895E+02 0.  0.
        -11    1    3    3    0    0  0.22327907234E+02 -0.25289633374E+01  0.97521598821E+02  0.10007693707E+03  0.00000000000E+00 0.  1.
         11    1    3    3    0    0 -0.62592817504E+02 -0.14365698230E+02  0.72224155889E+02  0.96646587020E+02  0.00000000000E+00 0. -1.
        -11    1    4    4    0    0  0.66191957314E+02  0.38391557694E+02  0.36824803078E+02  0.84919685804E+02  0.00000000000E+00 0.  1.
         11    1    4    4    0    0  0.15642168918E+02  0.16440487572E+02  0.11466562178E+03  0.11688957138E+03  0.00000000000E+00 0. -1.
          3    1    1    2  501    0 -0.41569215962E+02 -0.37937383698E+02 -0.18373712241E+02  0.59201673110E+02  0.00000000000E+00 0. -1.
<scales pt_clust_5="13000.00000" pt_clust_6="13000.00000" pt_clust_7="13000.00000" pt_clust_8="13000.00000" pt_clust_9="56.27828"></scales>
<clustering>
<clus scale="   56.278">  2  9  1 -1</clus>
<clus scale="   89.330">  5  6 -1 -1</clus>
<clus scale="   89.857">  7  8 -1 -1</clus>
<clus scale="  109.032">  1  5  2 -1</clus>
<clus scale="   56.278">  2  5  1 -1</clus>
</clustering>
</event>
<event>
 9    1  0.1399746E-005  0.1179516E+03  0.7546771E-02  0.1246972E+00
         21   -1    0    0  501  502  0.00000000000E+00  0.00000000000E+00  0.25165997188E+03  0.25165997188E+03  0.00000000000E+00 0.  1.
         -1   -1    0    0    0  501 -0.00000000000E+00 -0.00000000000E+00 -0.89453567065E+02  0.89453567065E+02  0.00000000000E+00 0.  1.
         23    2    1    2    0    0 -0.31668673559E+02  0.70118590713E+02 -0.97066766151E+01  0.11964693678E+03  0.91113381355E+02 0.  0.
         23    2    1    2    0    0  0.43276030140E+02 -0.49061013668E+02  0.12466591788E+03  0.16845295542E+03  0.92493293059E+02 0.  0.
        -11    1    3    3    0    0  0.33633218820E+01  0.69065287059E+02 -0.33949353270E+02  0.77031710341E+02  0.00000000000E+00 0.  1.
         11    1    3    3    0    0 -0.35031995441E+02  0.10533036536E+01  0.24242676655E+02  0.42615226441E+02  0.00000000000E+00 0. -1.
        -13    1    4    4    0    0 -0.28314189663E+02 -0.13275413716E+02  0.21810736814E+02  0.38126607323E+02  0.00000000000E+00 0. -1.
         13    1    4    4    0    0  0.71590219803E+02 -0.35785599952E+02  0.10285518106E+03  0.13032634809E+03  0.00000000000E+00 0.  1.
         -1    1    1    2    0  502 -0.11607356581E+02 -0.21057577045E+02  0.47247163549E+02  0.53013646745E+02  0.00000000000E+00 0.  1.
<scales pt_clust_5="13000.00000" pt_clust_6="13000.00000" pt_clust_7="13000.00000" pt_clust_8="13000.00000" pt_clust_9="24.04480"></scales>
<clustering>
<clus scale="   24.045">  1  9  2 -1</clus>
<clus scale="   91.113">  5  6 -1 -1</clus>
<clus scale="   92.493">  7  8 -1 -1</clus>
<clus scale="  116.873">  2  5  1 -1</clus>
<clus scale="   24.045">  1  5  2 -1</clus>
</clustering>
</event>
<event>
 9    1  0.1399746E-005  0.2283384E+03  0.7546771E-02  0.1128533E+00
         21   -1    0    0  501  502  0.00000000000E+00  0.00000000000E+00  0.16198924346E+03  0.16198924346E+03  0.00000000000E+00 0. -1.
          1   -1    0    0  502    0 -0.00000000000E+00 -0.00000000000E+00 -0.84042984230E+03  0.84042984230E+03  0.00000000000E+00 0. -1.
         23    2    1    2    0    0  0.20637397291E+03  0.16215664315E+03 -0.49000752023E+03  0.56335915473E+03  0.91548750547E+02 0.  0.
         23    2    1    2    0    0 -0.34745355294E+02 -0.17248756343E+03 -0.18382740908E+03  0.26705899355E+03  0.81048074945E+02 0.  0.
        -13    1    4    4    0    0  0.12483788744E+02 -0.12862118941E+03 -0.12511988685E+03  0.17987284796E+03  0.00000000000E+00 0. -1.
         13    1    4    4    0    0 -0.47229144038E+02 -0.43866374016E+02 -0.58707522235E+02  0.87186145590E+02  0.00000000000E+00 0.  1.
        -13    1    3    3    0    0  0.33893435771E+02  0.71777783258E+02 -0.10215946290E+03  0.12937299184E+03  0.00000000000E+00 0.  1.
         13    1    3    3    0    0  0.17248053714E+03  0.90378859891E+02 -0.38784805733E+03  0.43398616289E+03  0.00000000000E+00 0. -1.
          1    1    1    2  501    0 -0.17162861762E+03  0.10330920280E+02 -0.46056695276E+01  0.17200093747E+03  0.00000000000E+00 0. -1.
<scales pt_clust_5="13000.00000" pt_clust_6="13000.00000" pt_clust_7="13000.00000" pt_clust_8="13000.00000" pt_clust_9="171.93926"></scales>
<clustering>
<clus scale="   81.048">  5  6 -1 -1</clus>
<clus scale="   91.549">  7  8 -1 -1</clus>
<clus scale="  171.939">  1  9  2 -1</clus>
<clus scale="  224.335">  1  5  2 -1</clus>
<clus scale="  171.939">  1  5  2 -1</clus>
</clustering>
</event>
<event>
 9    1  0.1399746E-005  0.9325587E+02  0.7546771E-02  0.1296026E+00
         21   -1    0    0  501  502  0.00000000000E+00  0.00000000000E+00  0.16213446272E+03  0.16213446272E+03  0.00000000000E+00 0. -1.
          2   -1    0    0  502    0 -0.00000000000E+00 -0.00000000000E+00 -0.35172691554E+03  0.35172691554E+03  0.00000000000E+00 0. -1.
         23    2    1    2    0    0 -0.24626042461E+02 -0.22120660955E+01 -0.14429402871E+03  0.17140792822E+03  0.89154786355E+02 0.  0.
         23    2    1    2    0    0 -0.49106959177E+02  0.43444259749E+02 -0.16290939990E+03  0.19764671349E+03  0.90696491851E+02 0.  0.
        -11    1    4    4    0    0 -0.75178856593E+02  0.26978712460E+02 -0.12976152681E+03  0.15237376823E+03  0.00000000000E+00 0.  1.
         11    1    4    4    0    0  0.26071897416E+02  0.16465547289E+02 -0.33147873092E+02  0.45272945264E+02  0.00000000000E+00 0. -1.
        -13    1    3    3    0    0 -0.47012288027E+02 -0.20026903004E+02 -0.45051620313E+02  0.68124008707E+02  0.00000000000E+00 0.  1.
         13    1    3    3    0    0  0.22386245565E+02  0.17814836908E+02 -0.99242408400E+02  0.10328391951E+03  0.00000000000E+00 0. -1.
          2    1    1    2  501    0  0.73733001639E+02 -0.41232193654E+02  0.11761097579E+03  0.14480673655E+03  0.00000000000E+00 0. -1.
<scales pt_clust_5="13000.00000" pt_clust_6="13000.00000" pt_clust_7="13000.00000" pt_clust_8="13000.00000" pt_clust_9="84.47869"></scales>
<clustering>
<clus scale="   84.479">  1  9  2 -1</clus>
<clus scale="   89.155">  7  8 -1 -1</clus>
<clus scale="   90.696">  5  6 -1 -1</clus>
<clus scale="   91.757">  2  7  1 -1</clus>
<clus scale="   84.479">  1  5  2 -1</clus>
</clustering>
</event>
<event>
 9    1  0.1399746E-005  0.1088680E+03  0.7546771E-02  0.1263400E+00
          2   -1    0    0  502    0 -0.00000000000E+00  0.00000000000E+00  0.57657509020E+03  0.57657509020E+03  0.00000000000E+00 0. -1.
         21   -1    0    0  501  502  0.00000000000E+00 -0.00000000000E+00 -0.48472827130E+02  0.48472827130E+02  0.00000000000E+00 0.  1.
         23    2    1    2    0    0 -0.46000767297E+02 -0.32302312507E+02  0.44353033218E+03  0.45650647251E+03  0.92301104512E+02 0.  0.
         23    2    1    2    0    0  0.37474425508E+02  0.59998552142E+02  0.55797010377E+02  0.12770302853E+03  0.90501924309E+02 0.  0.
        -11    1    4    4    0    0  0.73844980834E+01  0.45276081755E+02 -0.15911890741E+02  0.48555562585E+02  0.00000000000E+00 0.  1.
         11    1    4    4    0    0  0.30089927424E+02  0.14722470387E+02  0.71708901118E+02  0.79147465949E+02  0.00000000000E+00 0. -1.
        -13    1    3    3    0    0  0.27340315036E+02 -0.62124325827E+01  0.16219229725E+03  0.16459777772E+03  0.00000000000E+00 0.  1.
         13    1    3    3    0    0 -0.73341082333E+02 -0.26089879925E+02  0.28133803493E+03  0.29190869479E+03  0.00000000000E+00 0. -1.
          2    1    1    2  501    0  0.85263417893E+01 -0.27696239634E+02  0.28774920513E+02  0.40838416286E+02  0.00000000000E+00 0. -1.
<scales pt_clust_5="13000.00000" pt_clust_6="13000.00000" pt_clust_7="13000.00000" pt_clust_8="13000.00000" pt_clust_9="28.97896"></scales>
<clustering>
<clus scale="   28.979">  2  9  1 -1</clus>
<clus scale="   90.502">  5  6 -1 -1</clus>
<clus scale="   92.301">  7  8 -1 -1</clus>
<clus scale="  107.347">  2  5  1 -1</clus>
<clus scale="   28.979">  2  5  1 -1</clus>
</clustering>
</event>
<event>
 9    1  0.1399746E-005  0.9456316E+02  0.7546771E-02  0.1293735E+00
         21   -1    0    0  501  502  0.00000000000E+00  0.00000000000E+00  0.16220384512E+03  0.16220384512E+03  0.00000000000E+00 0.  1.
          1   -1    0    0  502    0 -0.00000000000E+00 -0.00000000000E+00 -0.12966311976E+03  0.12966311976E+03  0.00000000000E+00 0. -1.
         23    2    1    2    0    0  0.12614521806E+02 -0.41028302528E+02 -0.43713461499E+02  0.10361341196E+03  0.83560903858E+02 0.  0.
         23    2    1    2    0    0 -0.25096016213E+02  0.23712223500E+02 -0.15133708763E+02  0.94405901053E+02  0.86552674364E+02 0.  0.
        -11    1    3    3    0    0  0.17381260299E+02  0.21647013144E+02 -0.26648596712E+02  0.38481802120E+02  0.00000000000E+00 0.  1.
         11    1    3    3    0    0 -0.47667384924E+01 -0.62675315673E+02 -0.17064864787E+02  0.65131609843E+02  0.00000000000E+00 0. -1.
        -13    1    4    4    0    0  0.12240826030E+02  0.36695967645E+02  0.18149767444E+02  0.42729918342E+02  0.00000000000E+00 0.  1.
         13    1    4    4    0    0 -0.37336842243E+02 -0.12983744144E+02 -0.33283476207E+02  0.51675982711E+02  0.00000000000E+00 0. -1.
          1    1    1    2  501    0  0.12481494407E+02  0.17316079028E+02  0.91387895616E+02  0.93847651865E+02  0.00000000000E+00 0. -1.
<scales pt_clust_5="13000.00000" pt_clust_6="13000.00000" pt_clust_7="13000.00000" pt_clust_8="13000.00000" pt_clust_9="21.34559"></scales>
<clustering>
<clus scale="   21.346">  1  9  2 -1</clus>
<clus scale="   83.561">  5  6 -1 -1</clus>
<clus scale="   86.553">  7  8 -1 -1</clus>
<clus scale="   91.833">  2  5  1 -1</clus>
<clus scale="   21.346">  1  5  2 -1</clus>
</clustering>
</event>
<event>
 9    1  0.1399746E-005  0.1371011E+03  0.7546771E-02  0.1217289E+00
         21   -1    0    0  501  502  0.00000000000E+00  0.00000000000E+00  0.44887475611E+02  0.44887475611E+02  0.00000000000E+00 0.  1.
         -2   -1    0    0    0  501 -0.00000000000E+00 -0.00000000000E+00 -0.59388739768E+03  0.59388739768E+03  0.00000000000E+00 0.  1.
         23    2    1    2    0    0  0.51123653262E+02  0.10038279480E+03 -0.34313849422E+03  0.37217355912E+03  0.89882136606E+02 0.  0.
         23    2    1    2    0    0 -0.60470900832E+02 -0.70419346976E+02 -0.19389281835E+03  0.23300924879E+03  0.89907011632E+02 0.  0.
        -11    1    4    4    0    0 -0.18194222957E+02  0.89491991964E+01 -0.10363491535E+03  0.10559978028E+03  0.00000000000E+00 0.  1.
         11    1    4    4    0    0 -0.42276677875E+02 -0.79368546173E+02 -0.90257902998E+02  0.12740946851E+03  0.00000000000E+00 0. -1.
        -13    1    3    3    0    0 -0.22681460639E+02  0.56098399577E+01 -0.44013708378E+02  0.49830969149E+02  0.00000000000E+00 0. -1.
         13    1    3    3    0    0  0.73805113901E+02  0.94772954844E+02 -0.29912478584E+03  0.32234258997E+03  0.00000000000E+00 0.  1.
         -2    1    1    2    0  502  0.93472475702E+01 -0.29963447825E+02 -0.11968609503E+02  0.33592065374E+02  0.00000000000E+00 0.  1.
<scales pt_clust_5="13000.00000" pt_clust_6="13000.00000" pt_clust_7="13000.00000" pt_clust_8="13000.00000" pt_clust_9="31.38757"></scales>
<clustering>
<clus scale="   31.388">  1  9  2 -1</clus>
<clus scale="   89.882">  7  8 -1 -1</clus>
<clus scale="   89.907">  5  6 -1 -1</clus>
<clus scale="  137.085">  2  7  1 -1</clus>
<clus scale="   31.388">  1  5  2 -1</clus>
</clustering>
</event>
<event>
 9    1  0.1399746E-005  0.1330855E+03  0.7546771E-02  0.1224847E+00
         21   -1    0    0  501  502  0.00000000000E+00  0.00000000000E+00  0.17090567302E+03  0.17090567302E+03  0.00000000000E+00 0. -1.
         -3   -1    0    0    0  501 -0.00000000000E+00 -0.00000000000E+00 -0.17352661912E+03  0.17352661912E+03  0.00000000000E+00 0.  1.
         23    2    1    2    0    0 -0.83362341832E+02  0.34732269304E+02 -0.77441521465E+02  0.15082413188E+03  0.92709864331E+02 0.  0.
         23    2    1    2    0    0  0.89413691392E+02 -0.63626257252E+02  0.33575548849E+02  0.14288702480E+03  0.85125058325E+02 0.  0.
        -11    1    4    4    0    0  0.83911706298E+02 -0.36972653810E+02 -0.92330934628E+01  0.92159652769E+02  0.00000000000E+00 0.  1.
         11    1    4    4    0    0  0.55019850940E+01 -0.26653603442E+02  0.42808642311E+02  0.50727372029E+02  0.00000000000E+00 0. -1.
        -11    1    3    3    0    0 -0.50675702582E+02  0.34661590885E+02 -0.95460657077E+02  0.11349973464E+03  0.00000000000E+00 0.  1.
         11    1    3    3    0    0 -0.32686639250E+02  0.70678419211E-01  0.18019135612E+02  0.37324397237E+02  0.00000000000E+00 0. -1.
         -3    1    1    2    0  502 -0.60513495598E+01  0.28893987948E+02  0.41245026513E+02  0.50721135467E+02  0.00000000000E+00 0.  1.
<scales pt_clust_5="13000.00000" pt_clust_6="13000.00000" pt_clust_7="13000.00000" pt_clust_8="13000.00000" pt_clust_9="29.52086"></scales>
<clustering>
<clus scale="   29.521">  1  9  2 -1</clus>
<clus scale="   85.125">  5  6 -1 -1</clus>
<clus scale="   92.710">  7  8 -1 -1</clus>
<clus scale="  127.918">  1  5  2 -1</clus>
<clus scale="   29.521">  1  5  2 -1</clus>
</clustering>
</event>
<event>
 9    1  0.1410483E-005  0.9584650E+02  0.7546771E-02  0.1296890E+00
         21   -1    0    0  501  502  0.00000000000E+00  0.00000000000E+00  0.13493458927E+03  0.13493458927E+03  0.00000000000E+00 0.  1.
         -3   -1    0    0    0  501 -0.00000000000E+00 -0.00000000000E+00 -0.28457343804E+03  0.28457343804E+03  0.00000000000E+00 0.  1.
         23    2    1    2    0    0 -0.15911227820E+02 -0.17071592943E+02 -0.23572740155E+03  0.24993342221E+03  0.79716380009E+02 0.  0.
         23    2    1    2    0    0 -0.34054993677E+01  0.38288399793E+02  0.27281072174E+02  0.10414060311E+03  0.92862313846E+02 0.  0.
        -11    1    4    4    0    0 -0.11938811910E+02 -0.29322142959E+02  0.14428314007E+02  0.34792233941E+02  0.00000000000E+00 0.  1.
         11    1    4    4    0    0  0.85333125420E+01  0.67610542751E+02  0.12852758167E+02  0.69348369170E+02  0.00000000000E+00 0. -1.
        -13    1    3    3    0    0  0.12829180311E+02 -0.36711706335E+02 -0.18056902286E+03  0.18470925604E+03  0.00000000000E+00 0.  1.
         13    1    3    3    0    0 -0.28740408131E+02  0.19640113392E+02 -0.55158378687E+02  0.65224166174E+02  0.00000000000E+00 0. -1.
         -3    1    1    2    0  502  0.19316727188E+02 -0.21216806850E+02  0.58807480604E+02  0.65434001995E+02  0.00000000000E+00 0.  1.
<scales pt_clust_5="13000.00000" pt_clust_6="13000.00000" pt_clust_7="13000.00000" pt_clust_8="13000.00000" pt_clust_9="28.69301"></scales>
<clustering>
<clus scale="   28.693">  1  9  2 -1</clus>
<clus scale="   79.716">  7  8 -1 -1</clus>
<clus scale="   83.174">  2  7  1 -1</clus>
<clus scale="   92.862">  5  6 -1 -1</clus>
<clus scale="   28.693">  1  5  2 -1</clus>
</clustering>
</event>
<event>
 9    1  0.1399746E-005  0.1658290E+03  0.7546771E-02  0.1182355E+00
          1   -1    0    0  502    0 -0.00000000000E+00  0.00000000000E+00  0.14122970485E+04  0.14122970485E+04  0.00000000000E+00 0. -1.
         21   -1    0    0  501  502  0.00000000000E+00 -0.00000000000E+00 -0.40389805289E+02  0.40389805289E+02  0.00000000000E+00 0. -1.
         23    2    1    2    0    0 -0.95013052608E+02 -0.70450170391E+02  0.65760423717E+03  0.67434314260E+03  0.91129767704E+02 0.  0.
         23    2    1    2    0    0  0.10755553606E+03  0.14368221259E+03  0.64901691233E+03  0.67943708890E+03  0.90548515930E+02 0.  0.
        -13    1    4    4    0    0  0.84485015423E+02  0.38510833661E+02  0.32467567149E+03  0.33769082575E+03  0.00000000000E+00 0.  1.
         13    1    4    4    0    0  0.23070520636E+02  0.10517137893E+03  0.32434124084E+03  0.34174626315E+03  0.00000000000E+00 0. -1.
        -13    1    3    3    0    0 -0.82707732146E+02 -0.10894945959E+02  0.46309605130E+03  0.47054991397E+03  0.00000000000E+00 0. -1.
         13    1    3    3    0    0 -0.12305320462E+02 -0.59555224432E+02  0.19450818586E+03  0.20379322863E+03  0.00000000000E+00 0.  1.
          1    1    1    2  501    0 -0.12542483451E+02 -0.73232042202E+02  0.65286093677E+02  0.98906622245E+02  0.00000000000E+00 0. -1.
<scales pt_clust_5="13000.00000" pt_clust_6="13000.00000" pt_clust_7="13000.00000" pt_clust_8="13000.00000" pt_clust_9="74.29836"></scales>
<clustering>
<clus scale="   74.298">  2  9  1 -1</clus>
<clus scale="   90.549">  5  6 -1 -1</clus>
<clus scale="   91.130">  7  8 -1 -1</clus>
<clus scale="  165.510">  2  5  1 -1</clus>
<clus scale="   74.298">  2  5  1 -1</clus>
</clustering>
</event>
<event>
 9    1  0.1399746E-005  0.2086773E+03  0.7546771E-02  0.1142665E+00
         21   -1    0    0  501  502  0.00000000000E+00  0.00000000000E+00  0.45483596987E+03  0.45483596987E+03  0.00000000000E+00 0. -1.
          2   -1    0    0  502    0 -0.00000000000E+00 -0.00000000000E+00 -0.93575371808E+03  0.93575371808E+03  0.00000000000E+00 0. -1.
         23    2    1    2    0    0 -0.11980833361E+02 -0.20332779984E+03 -0.64113062641E+03  0.67885164848E+03  0.91133670863E+02 0.  0.
         23    2    1    2    0    0 -0.10418181339E+03  0.14989207384E+03 -0.22635476677E+03  0.30457261676E+03  0.90589814012E+02 0.  0.
        -11    1    3    3    0    0 -0.11229147200E+02 -0.12327417707E+03 -0.51335246741E+03  0.52806568935E+03  0.00000000000E+00 0. -1.
         11    1    3    3    0    0 -0.75168616178E+00 -0.80053622773E+02 -0.12777815900E+03  0.15078595912E+03  0.00000000000E+00 0.  1.
        -11    1    4    4    0    0 -0.24873616118E+01  0.58874266701E+02 -0.31908434777E+02  0.67011300967E+02  0.00000000000E+00 0.  1.
         11    1    4    4    0    0 -0.10169445177E+03  0.91017807141E+02 -0.19444633199E+03  0.23756131580E+03  0.00000000000E+00 0. -1.
          2    1    1    2  501    0  0.11616264675E+03  0.53435725995E+02  0.38656764497E+03  0.40716542271E+03  0.00000000000E+00 0. -1.
<scales pt_clust_5="13000.00000" pt_clust_6="13000.00000" pt_clust_7="13000.00000" pt_clust_8="13000.00000" pt_clust_9="127.86375"></scales>
<clustering>
<clus scale="   90.590">  7  8 -1 -1</clus>
<clus scale="   91.134">  5  6 -1 -1</clus>
<clus scale="  127.864">  1  9  2 -1</clus>
<clus scale="  208.440">  1  7  2 -1</clus>
<clus scale="  127.864">  1  5  2 -1</clus>
</clustering>
</event>
<event>
 9    1  0.1399746E-005  0.1500601E+03  0.7546771E-02  0.1200425E+00
          1   -1    0    0  502    0 -0.00000000000E+00  0.00000000000E+00  0.28163903696E+03  0.28163903696E+03  0.00000000000E+00 0. -1.
         21   -1    0    0  501  502  0.00000000000E+00 -0.00000000000E+00 -0.13795344190E+03  0.13795344190E+03  0.00000000000E+00 0.  1.
         23    2    1    2    0    0  0.67980220391E+02 -0.10265342343E+03  0.19931101964E+03  0.25151404024E+03  0.91517179707E+02 0.  0.
         23    2    1    2    0    0 -0.53316126934E+02  0.88182709567E+02 -0.46439761421E+02  0.14552154158E+03  0.91657339945E+02 0.  0.
        -11    1    3    3    0    0  0.69538801893E+01 -0.90721256817E+02  0.11143097476E+03  0.14385953227E+03  0.00000000000E+00 0.  1.
         11    1    3    3    0    0  0.61026340201E+02 -0.11932166608E+02  0.87880044881E+02  0.10765450797E+03  0.00000000000E+00 0. -1.
        -13    1    4    4    0    0 -0.22280728255E+02  0.60528955752E+02  0.19667340221E+02  0.67431369610E+02  0.00000000000E+00 0. -1.
         13    1    4    4    0    0 -0.31035398679E+02  0.27653753815E+02 -0.66107101642E+02  0.78090171973E+02  0.00000000000E+00 0.  1.
          1    1    1    2  501    0 -0.14664093457E+02  0.14470713858E+02 -0.91856631614E+01  0.22556897042E+02  0.00000000000E+00 0. -1.
<scales pt_clust_5="13000.00000" pt_clust_6="13000.00000" pt_clust_7="13000.00000" pt_clust_8="13000.00000" pt_clust_9="20.60187"></scales>
<clustering>
<clus scale="   20.602">  2  9  1 -1</clus>
<clus scale="   91.517">  5  6 -1 -1</clus>
<clus scale="   91.657">  7  8 -1 -1</clus>
<clus scale="  149.975">  1  5  2 -1</clus>
<clus scale="   20.602">  2  5  1 -1</clus>
</clustering>
</event>
<event>
 9    1  0.1399746E-005  0.1838799E+03  0.7546771E-02  0.1177580E+00
         21   -1    0    0  501  502  0.00000000000E+00  0.00000000000E+00  0.61812455488E+03  0.61812455488E+03  0.00000000000E+00 0. -1.
          2   -1    0    0  502    0 -0.00000000000E+00 -0.00000000000E+00 -0.97582522126E+02  0.97582522126E+02  0.00000000000E+00 0. -1.
         23    2    1    2    0    0 -0.64984335031E+02 -0.75479150726E+02  0.15378345527E+03  0.20473182582E+03  0.91354821408E+02 0.  0.
         23    2    1    2    0    0  0.72415444864E+02 -0.93010468196E+02  0.85152200656E+02  0.18272820315E+03  0.11065150292E+03 0.  0.
        -11    1    3    3    0    0  0.13793303406E+01 -0.29037430053E+02  0.10767030533E+03  0.11152564524E+03  0.00000000000E+00 0.  1.
         11    1    3    3    0    0 -0.66363665372E+02 -0.46441720673E+02  0.46113149940E+02  0.93206180578E+02  0.00000000000E+00 0. -1.
        -11    1    4    4    0    0  0.12524859828E+02 -0.92851130559E+02  0.78943493477E+02  0.12251644674E+03  0.00000000000E+00 0. -1.
         11    1    4    4    0    0  0.59890585036E+02 -0.15933763692E+00  0.62087071795E+01  0.60211756404E+02  0.00000000000E+00 0.  1.
          2    1    1    2  501    0 -0.74311098335E+01  0.16848961892E+03  0.28160637682E+03  0.32824704804E+03  0.00000000000E+00 0. -1.
<scales pt_clust_5="13000.00000" pt_clust_6="13000.00000" pt_clust_7="13000.00000" pt_clust_8="13000.00000" pt_clust_9="146.86068"></scales>
<clustering>
<clus scale="   91.355">  5  6 -1 -1</clus>
<clus scale="  110.652">  7  8 -1 -1</clus>
<clus scale="  135.151">  2  5  1 -1</clus>
<clus scale="  146.861">  1  9  2 -1</clus>
<clus scale="  146.861">  1  5  2 -1</clus>
</clustering>
</event>
<event>
 9    1  0.1399746E-005  0.1103656E+03  0.7546771E-02  0.1261422E+00
         21   -1    0    0  501  502  0.00000000000E+00  0.00000000000E+00  0.18847425772E+03  0.18847425772E+03  0.00000000000E+00 0.  1.
         -1   -1    0    0    0  501 -0.00000000000E+00 -0.00000000000E+00 -0.28241709522E+03  0.28241709522E+03  0.00000000000E+00 0.  1.
         23    2    1    2    0    0  0.18342107333E+02 -0.62615911360E+02 -0.18160753601E+03  0.21416936090E+03  0.92897969612E+02 0.  0.
         23    2    1    2    0    0 -0.14763602003E+01  0.49914112496E+02 -0.52646383501E+02  0.11483122822E+03  0.88999837154E+02 0.  0.
        -11    1    3    3    0    0  0.41523108796E+02  0.30033203075E+01 -0.48118414619E+02  0.63628376707E+02  0.00000000000E+00 0. -1.
         11    1    3    3    0    0 -0.23181001464E+02 -0.65619231668E+02 -0.13348912139E+03  0.15054098419E+03  0.00000000000E+00 0.  1.
        -13    1    4    4    0    0  0.51999788047E+01  0.75346486908E+02 -0.42382355753E+02  0.86604832129E+02  0.00000000000E+00 0. -1.
         13    1    4    4    0    0 -0.66763390050E+01 -0.25432374412E+02 -0.10264027748E+02  0.28226396092E+02  0.00000000000E+00 0.  1.
         -1    1    1    2    0  502 -0.16865747132E+02  0.12701798864E+02  0.14031108201E+03  0.14189076381E+03  0.00000000000E+00 0.  1.
<scales pt_clust_5="13000.00000" pt_clust_6="13000.00000" pt_clust_7="13000.00000" pt_clust_8="13000.00000" pt_clust_9="21.11372"></scales>
<clustering>
<clus scale="   21.114">  1  9  2 -1</clus>
<clus scale="   89.000">  7  8 -1 -1</clus>
<clus scale="   92.898">  5  6 -1 -1</clus>
<clus scale="  107.105">  1  7  2 -1</clus>
<clus scale="   21.114">  1  5  2 -1</clus>
</clustering>
</event>
<event>
 9    1  0.1399746E-005  0.1376631E+03  0.7546771E-02  0.1225059E+00
         -3   -1    0    0    0  501 -0.00000000000E+00  0.00000000000E+00  0.40320425395E+03  0.40320425395E+03  0.00000000000E+00 0.  1.
         21   -1    0    0  501  502  0.00000000000E+00 -0.00000000000E+00 -0.29864447153E+03  0.29864447153E+03  0.00000000000E+00 0.  1.
         23    2    1    2    0    0 -0.18149031034E+02 -0.67342483150E+02  0.30500395154E+03  0.32598703237E+03  0.91519055155E+02 0.  0.
         23    2    1    2    0    0  0.96412798602E+00 -0.86880027276E+02 -0.17897466814E+03  0.21920652056E+03  0.92035309180E+02 0.  0.
        -11    1    4    4    0    0  0.25637732589E+02 -0.29799259728E+02 -0.12113127812E+02  0.41134135193E+02  0.00000000000E+00 0. -1.
         11    1    4    4    0    0 -0.24673604603E+02 -0.57080767548E+02 -0.16686154033E+03  0.17807238536E+03  0.00000000000E+00 0.  1.
        -13    1    3    3    0    0 -0.33248232526E+02 -0.52536821900E+02  0.29690068564E+03  0.30334069914E+03  0.00000000000E+00 0.  1.
         13    1    3    3    0    0  0.15099201492E+02 -0.14805661250E+02  0.81032659032E+01  0.22646333237E+02  0.00000000000E+00 0. -1.
         -3    1    1    2    0  502  0.17184903048E+02  0.15422251043E+03 -0.21469500970E+02  0.15665517255E+03  0.00000000000E+00 0.  1.
<scales pt_clust_5="13000.00000" pt_clust_6="13000.00000" pt_clust_7="13000.00000" pt_clust_8="13000.00000" pt_clust_9="102.37499"></scales>
<clustering>
<clus scale="   91.519">  7  8 -1 -1</clus>
<clus scale="   92.035">  5  6 -1 -1</clus>
<clus scale="  115.066">  1  7  2 -1</clus>
<clus scale="  102.375">  2  9  1 -1</clus>
<clus scale="  102.375">  2  5  1 -1</clus>
</clustering>
</event>
<event>
 9    1  0.1399746E-005  0.9391359E+02  0.7546771E-02  0.1295635E+00
          2   -1    0    0  502    0 -0.00000000000E+00  0.00000000000E+00  0.18731842281E+03  0.18731842281E+03  0.00000000000E+00 0.  1.
         21   -1    0    0  501  502  0.00000000000E+00 -0.00000000000E+00 -0.95473711369E+02  0.95473711369E+02  0.00000000000E+00 0.  1.
         23    2    1    2    0    0  0.65096498546E+01  0.36300258280E+02  0.76036616165E+02  0.12258453516E+03  0.88799307255E+02 0.  0.
         23    2    1    2    0    0  0.68319673607E+01  0.50210839055E+01  0.49673882368E+02  0.10514087944E+03  0.92277965297E+02 0.  0.
        -11    1    3    3    0    0  0.47043082403E+02  0.10879390745E+02  0.39530515486E+02  0.62402519176E+02  0.00000000000E+00 0.  1.
         11    1    3    3    0    0 -0.40533432549E+02  0.25420867535E+02  0.36506100679E+02  0.60182015979E+02  0.00000000000E+00 0. -1.
        -13    1    4    4    0    0  0.38834082084E+02 -0.20248483806E+02  0.47052239814E+02  0.64280637048E+02  0.00000000000E+00 0.  1.
         13    1    4    4    0    0 -0.32002114723E+02  0.25269567711E+02  0.26216425534E+01  0.40860242397E+02  0.00000000000E+00 0. -1.
          2    1    1    2  501    0 -0.13341617215E+02 -0.41321342186E+02 -0.33865787091E+02  0.55066719580E+02  0.00000000000E+00 0.  1.
<scales pt_clust_5="13000.00000" pt_clust_6="13000.00000" pt_clust_7="13000.00000" pt_clust_8="13000.00000" pt_clust_9="43.42179"></scales>
<clustering>
<clus scale="   43.422">  2  9  1 -1</clus>
<clus scale="   88.799">  5  6 -1 -1</clus>
<clus scale="   90.498">  1  5  2 -1</clus>
<clus scale="   92.278">  7  8 -1 -1</clus>
<clus scale="   43.422">  2  5  1 -1</clus>
</clustering>
</event>
<event>
 9    1  0.1399746E-005  0.1969697E+03  0.7546771E-02  0.1152325E+00
         21   -1    0    0  501  502  0.00000000000E+00  0.00000000000E+00  0.17372598054E+03  0.17372598054E+03  0.00000000000E+00 0.  1.
         -2   -1    0    0    0  501 -0.00000000000E+00 -0.00000000000E+00 -0.40100157692E+03  0.40100157692E+03  0.00000000000E+00 0.  1.
         23    2    1    2    0    0 -0.11248530685E+03 -0.13339882934E+03 -0.26735340014E+03  0.33217658433E+03  0.91734675468E+02 0.  0.
         23    2    1    2    0    0  0.93791878258E+02  0.14764032563E+03  0.16397177645E+01  0.19749821579E+03  0.91696643268E+02 0.  0.
        -11    1    3    3    0    0 -0.81857056681E+02 -0.30790513476E+02 -0.14729460476E+03  0.17130187985E+03  0.00000000000E+00 0. -1.
         11    1    3    3    0    0 -0.30628250167E+02 -0.10260831586E+03 -0.12005879538E+03  0.16087470448E+03  0.00000000000E+00 0.  1.
        -13    1    4    4    0    0 -0.16853388250E+02  0.29770236614E+02 -0.93354594772E+01  0.35460604722E+02  0.00000000000E+00 0.  1.
         13    1    4    4    0    0  0.11064526651E+03  0.11787008901E+03  0.10975177242E+02  0.16203761107E+03  0.00000000000E+00 0. -1.
         -2    1    1    2    0  502  0.18693428591E+02 -0.14241496288E+02  0.38438085993E+02  0.45052757339E+02  0.00000000000E+00 0.  1.
<scales pt_clust_5="13000.00000" pt_clust_6="13000.00000" pt_clust_7="13000.00000" pt_clust_8="13000.00000" pt_clust_9="23.50031"></scales>
<clustering>
<clus scale="   23.500">  1  9  2 -1</clus>
<clus scale="   91.697">  7  8 -1 -1</clus>
<clus scale="   91.735">  5  6 -1 -1</clus>
<clus scale="  196.952">  1  7  2 -1</clus>
<clus scale="   23.500">  1  5  2 -1</clus>
</clustering>
</event>
<event>
 9    1  0.1399746E-005  0.9491625E+02  0.7546771E-02  0.1291619E+00
          1   -1    0    0  502    0 -0.00000000000E+00  0.00000000000E+00  0.51147488163E+03  0.51147488163E+03  0.00000000000E+00 0. -1.
         21   -1    0    0  501  502  0.00000000000E+00 -0.00000000000E+00 -0.65583781751E+02  0.65583781751E+02  0.00000000000E+00 0.  1.
         23    2    1    2    0    0 -0.16827831862E+02  0.22140027417E+02  0.43069698315E+03  0.44115157690E+03  0.91331625237E+02 0.  0.
         23    2    1    2    0    0  0.11848309317E+02  0.33081461721E+01 -0.18347683277E+02  0.93510653476E+02  0.90864066425E+02 0.  0.
        -11    1    3    3    0    0  0.37800207201E+02  0.62698957196E+01  0.15736933173E+03  0.16196689114E+03  0.00000000000E+00 0.  1.
         11    1    3    3    0    0 -0.54628039063E+02  0.15870131697E+02  0.27332765142E+03  0.27918468576E+03  0.00000000000E+00 0. -1.
        -11    1    4    4    0    0 -0.12860500564E+02  0.42815363489E+02 -0.13293056705E+02  0.46639609583E+02  0.00000000000E+00 0. -1.
         11    1    4    4    0    0  0.24708809881E+02 -0.39507217317E+02 -0.50546265721E+01  0.46871043894E+02  0.00000000000E+00 0.  1.
          1    1    1    2  501    0  0.49795225453E+01 -0.25448173589E+02  0.33541800002E+02  0.42396433000E+02  0.00000000000E+00 0. -1.
<scales pt_clust_5="13000.00000" pt_clust_6="13000.00000" pt_clust_7="13000.00000" pt_clust_8="13000.00000" pt_clust_9="25.93079"></scales>
<clustering>
<clus scale="   25.931">  2  9  1 -1</clus>
<clus scale="   90.864">  7  8 -1 -1</clus>
<clus scale="   91.332">  5  6 -1 -1</clus>
<clus scale="   94.466">  2  7  1 -1</clus>
<clus scale="   25.931">  2  5  1 -1</clus>
</clustering>
</event>
<event>
 9    1  0.1399746E-005  0.1537846E+03  0.7546771E-02  0.1196252E+00
          2   -1    0    0  502    0 -0.00000000000E+00  0.00000000000E+00  0.12145595251E+03  0.12145595251E+03  0.00000000000E+00 0. -1.
         21   -1    0    0  501  502  0.00000000000E+00 -0.00000000000E+00 -0.58921705357E+03  0.58921705357E+03  0.00000000000E+00 0.  1.
         23    2    1    2    0    0  0.85272267194E+01  0.11906370538E+03  0.41086229695E+02  0.15490476654E+03  0.89769309309E+02 0.  0.
         23    2    1    2    0    0  0.75126375703E+01 -0.15643906827E+03 -0.43710297091E+03  0.47329734668E+03  0.91770089873E+02 0.  0.
        -11    1    3    3    0    0 -0.10504348009E+02  0.11254276097E+03  0.44632455925E+01  0.11312000237E+03  0.00000000000E+00 0. -1.
         11    1    3    3    0    0  0.19031574729E+02  0.65209444029E+01  0.36622984102E+02  0.41784764175E+02  0.00000000000E+00 0.  1.
        -13    1    4    4    0    0 -0.96586540206E+00 -0.90893803997E+02 -0.36207624817E+03  0.37331196872E+03  0.00000000000E+00 0.  1.
         13    1    4    4    0    0  0.84785029724E+01 -0.65545264272E+02 -0.75026722735E+02  0.99985377958E+02  0.00000000000E+00 0. -1.
          2    1    1    2  501    0 -0.16039864290E+02  0.37375362892E+02 -0.71744359846E+02  0.82470892850E+02  0.00000000000E+00 0. -1.
<scales pt_clust_5="13000.00000" pt_clust_6="13000.00000" pt_clust_7="13000.00000" pt_clust_8="13000.00000" pt_clust_9="40.67180"></scales>
<clustering>
<clus scale="   40.672">  2  9  1 -1</clus>
<clus scale="   89.769">  5  6 -1 -1</clus>
<clus scale="   91.770">  7  8 -1 -1</clus>
<clus scale="  152.599">  1  5  2 -1</clus>
<clus scale="   40.672">  2  5  1 -1</clus>
</clustering>
</event>
<event>
 9    1  0.1399746E-005  0.9278204E+02  0.7546771E-02  0.1297149E+00
          2   -1    0    0  502    0 -0.00000000000E+00  0.00000000000E+00  0.28312296670E+03  0.28312296670E+03  0.00000000000E+00 0.  1.
         21   -1    0    0  501  502  0.00000000000E+00 -0.00000000000E+00 -0.53821639327E+02  0.53821639327E+02  0.00000000000E+00 0.  1.
         23    2    1    2    0    0 -0.57797709844E+00 -0.16423429412E+02  0.13108926034E+03  0.16141537372E+03  0.92738695307E+02 0.  0.
         23    2    1    2    0    0  0.50293733916E+01 -0.16698341792E+02  0.10629745569E+03  0.14114551281E+03  0.91207332411E+02 0.  0.
        -11    1    3    3    0    0  0.33835940521E+02 -0.32331099025E+02  0.10622334243E+03  0.11607570509E+03  0.00000000000E+00 0.  1.
         11    1    3    3    0    0 -0.34413917619E+02  0.15907669613E+02  0.24865917907E+02  0.45339668633E+02  0.00000000000E+00 0. -1.
        -13    1    4    4    0    0  0.24715193991E+02  0.22716507730E+02  0.86612644203E+02  0.92890422937E+02  0.00000000000E+00 0. -1.
         13    1    4    4    0    0 -0.19685820599E+02 -0.39414849522E+02  0.19684811483E+02  0.48255089873E+02  0.00000000000E+00 0.  1.
          2    1    1    2  501    0 -0.44513962932E+01  0.33121771204E+02 -0.80853886503E+01  0.34383719495E+02  0.00000000000E+00 0.  1.
<scales pt_clust_5="13000.00000" pt_clust_6="13000.00000" pt_clust_7="13000.00000" pt_clust_8="13000.00000" pt_clust_9="33.41956"></scales>
<clustering>
<clus scale="   33.420">  2  9  1 -1</clus>
<clus scale="   91.207">  7  8 -1 -1</clus>
<clus scale="   91.251">  2  7  1 -1</clus>
<clus scale="   92.739">  5  6 -1 -1</clus>
<clus scale="   33.420">  2  5  1 -1</clus>
</clustering>
</event>
<event>
 9    1  0.1399746E-005  0.2012176E+03  0.7546771E-02  0.1148959E+00
          1   -1    0    0  502    0 -0.00000000000E+00  0.00000000000E+00  0.46989515536E+03  0.46989515536E+03  0.00000000000E+00 0. -1.
         21   -1    0    0  501  502  0.00000000000E+00 -0.00000000000E+00 -0.16899421583E+03  0.16899421583E+03  0.00000000000E+00 0.  1.
         23    2    1    2    0    0  0.21049780590E+02  0.17963250394E+03  0.34418065275E+03  0.39964404176E+03  0.92434347813E+02 0.  0.
         23    2    1    2    0    0 -0.18279484666E+01 -0.17190711558E+03 -0.30800788571E+01  0.19402176191E+03  0.89886369512E+02 0.  0.
        -11    1    4    4    0    0 -0.11370182275E+02 -0.39246780284E+02  0.36986944572E+02  0.55114652103E+02  0.00000000000E+00 0. -1.
         11    1    4    4    0    0  0.95422338083E+01 -0.13266033530E+03 -0.40067023429E+02  0.13890710980E+03  0.00000000000E+00 0.  1.
        -11    1    3    3    0    0  0.38215134538E+02  0.35406675757E+02  0.53377367176E+02  0.74586677916E+02  0.00000000000E+00 0.  1.
         11    1    3    3    0    0 -0.17165353948E+02  0.14422582818E+03  0.29080328558E+03  0.32505736385E+03  0.00000000000E+00 0. -1.
          1    1    1    2  501    0 -0.19221832123E+02 -0.77253883534E+01 -0.40199634373E+02  0.45223567519E+02  0.00000000000E+00 0. -1.
<scales pt_clust_5="13000.00000" pt_clust_6="13000.00000" pt_clust_7="13000.00000" pt_clust_8="13000.00000" pt_clust_9="20.71619"></scales>
<clustering>
<clus scale="   20.716">  2  9  1 -1</clus>
<clus scale="   89.886">  5  6 -1 -1</clus>
<clus scale="   92.434">  7  8 -1 -1</clus>
<clus scale="  200.060">  2  5  1 -1</clus>
<clus scale="   20.716">  2  5  1 -1</clus>
</clustering>
</event>
<event>
 9    1  0.1399746E-005  0.1219795E+03  0.7546771E-02  0.1240553E+00
          2   -1    0    0  502    0 -0.00000000000E+00  0.00000000000E+00  0.46468991445E+03  0.46468991445E+03  0.00000000000E+00 0. -1.
         21   -1    0    0  501  502  0.00000000000E+00 -0.00000000000E+00 -0.53629541365E+02  0.53629541365E+02  0.00000000000E+00 0.  1.
         23    2    1    2    0    0  0.80148246428E+02  0.39954212156E+01  0.31355425918E+03  0.33617117772E+03  0.90857484485E+02 0.  0.
         23    2    1    2    0    0 -0.72207116301E+02 -0.31614342194E+02  0.92259169117E+02  0.15293532252E+03  0.93081277981E+02 0.  0.
        -13    1    4    4    0    0 -0.87959237701E+02 -0.82753010469E+01  0.87563216677E+02  0.12438900683E+03  0.00000000000E+00 0.  1.
         13    1    4    4    0    0  0.15752121399E+02 -0.23339041148E+02  0.46959524396E+01  0.28546315692E+02  0.00000000000E+00 0. -1.
        -13    1    3    3    0    0  0.28343957330E+02 -0.41920212771E+02  0.15809785930E+03  0.16599884720E+03  0.00000000000E+00 0. -1.
         13    1    3    3    0    0  0.51804289097E+02  0.45915633986E+02  0.15545639988E+03  0.17017233052E+03  0.00000000000E+00 0.  1.
          2    1    1    2  501    0 -0.79411301263E+01  0.27618920979E+02  0.52469447903E+01  0.29212955574E+02  0.00000000000E+00 0. -1.
<scales pt_clust_5="13000.00000" pt_clust_6="13000.00000" pt_clust_7="13000.00000" pt_clust_8="13000.00000" pt_clust_9="28.73789"></scales>
<clustering>
<clus scale="   28.738">  2  9  1 -1</clus>
<clus scale="   90.857">  7  8 -1 -1</clus>
<clus scale="   93.081">  5  6 -1 -1</clus>
<clus scale="  120.291">  1  7  2 -1</clus>
<clus scale="   28.738">  2  5  1 -1</clus>
</clustering>
</event>
<event>
 9    1  0.1399746E-005  0.1698547E+03  0.7546771E-02  0.1188204E+00
         -1   -1    0    0    0  501 -0.00000000000E+00  0.00000000000E+00  0.71591260049E+03  0.71591260049E+03  0.00000000000E+00 0.  1.
         21   -1    0    0  501  502  0.00000000000E+00 -0.00000000000E+00 -0.11375062655E+03  0.11375062655E+03  0.00000000000E+00 0.  1.
         23    2    1    2    0    0 -0.76546991346E+02 -0.67367378797E+02  0.40841067779E+03  0.43020833397E+03  0.88781322780E+02 0.  0.
         23    2    1    2    0    0 -0.72537086459E+02  0.11373195524E+03  0.17979084470E+03  0.24270467646E+03  0.91565416947E+02 0.  0.
        -11    1    4    4    0    0  0.17542678416E+02  0.18152340899E+02  0.59380649379E+02  0.64523751959E+02  0.00000000000E+00 0. -1.
         11    1    4    4    0    0 -0.90079764875E+02  0.95579614339E+02  0.12041019532E+03  0.17818092450E+03  0.00000000000E+00 0.  1.
        -13    1    3    3    0    0 -0.27302830797E+02  0.20710804395E+02  0.10001720834E+03  0.10572522856E+03  0.00000000000E+00 0.  1.
         13    1    3    3    0    0 -0.49244160549E+02 -0.88078183192E+02  0.30839346945E+03  0.32448310542E+03  0.00000000000E+00 0. -1.
         -1    1    1    2    0  502  0.14908407780E+03 -0.46364576441E+02  0.13960451445E+02  0.15675021661E+03  0.00000000000E+00 0.  1.
<scales pt_clust_5="13000.00000" pt_clust_6="13000.00000" pt_clust_7="13000.00000" pt_clust_8="13000.00000" pt_clust_9="143.06075"></scales>
<clustering>
<clus scale="   88.781">  7  8 -1 -1</clus>
<clus scale="   91.565">  5  6 -1 -1</clus>
<clus scale="  135.203">  1  7  2 -1</clus>
<clus scale="  143.061">  2  9  1 -1</clus>
<clus scale="  143.061">  2  5  1 -1</clus>
</clustering>
</event>
<event>
 9    1  0.1399746E-005  0.1196277E+03  0.7546771E-02  0.1243842E+00
         21   -1    0    0  501  502  0.00000000000E+00  0.00000000000E+00  0.81526550856E+02  0.81526550856E+02  0.00000000000E+00 0.  1.
         -4   -1    0    0    0  501 -0.00000000000E+00 -0.00000000000E+00 -0.26736876861E+03  0.26736876861E+03  0.00000000000E+00 0.  1.
         23    2    1    2    0    0 -0.38591239067E+02 -0.39361241191E+02 -0.75433792408E+02  0.13138665764E+03  0.92377517445E+02 0.  0.
         23    2    1    2    0    0  0.77735455342E+02  0.65172581048E+02 -0.98542456736E+02  0.16914239110E+03  0.92780743415E+02 0.  0.
        -13    1    3    3    0    0 -0.57198165737E+02 -0.57014657629E+02 -0.65109706417E+02  0.10373801241E+03  0.00000000000E+00 0. -1.
         13    1    3    3    0    0  0.18606926670E+02  0.17653416438E+02 -0.10324085991E+02  0.27648645239E+02  0.00000000000E+00 0.  1.
        -13    1    4    4    0    0 -0.77564868176E+01  0.48978137418E+02 -0.26796363047E+02  0.56365469085E+02  0.00000000000E+00 0. -1.
         13    1    4    4    0    0  0.85491942159E+02  0.16194443630E+02 -0.71746093689E+02  0.11277692201E+03  0.00000000000E+00 0.  1.
         -4    1    1    2    0  502 -0.39144216275E+02 -0.25811339857E+02 -0.11865968613E+02  0.48366270728E+02  0.00000000000E+00 0.  1.
<scales pt_clust_5="13000.00000" pt_clust_6="13000.00000" pt_clust_7="13000.00000" pt_clust_8="13000.00000" pt_clust_9="46.88811"></scales>
<clustering>
<clus scale="   46.888">  1  9  2 -1</clus>
<clus scale="   92.378">  5  6 -1 -1</clus>
<clus scale="   92.781">  7  8 -1 -1</clus>
<clus scale="  119.315">  2  5  1 -1</clus>
<clus scale="   46.888">  1  5  2 -1</clus>
</clustering>
</event>
<event>
 9    1  0.1399746E-005  0.1064633E+03  0.7546771E-02  0.1268608E+00
         21   -1    0    0  501  502  0.00000000000E+00  0.00000000000E+00  0.87770420118E+02  0.87770420118E+02  0.00000000000E+00 0.  1.
         -1   -1    0    0    0  501 -0.00000000000E+00 -0.00000000000E+00 -0.31600492332E+03  0.31600492332E+03  0.00000000000E+00 0.  1.
         23    2    1    2    0    0 -0.36368245602E+02  0.27005840801E+02 -0.18530065642E+03  0.21151252968E+03  0.91374242636E+02 0.  0.
         23    2    1    2    0    0  0.87647760133E+02 -0.15715944735E+02 -0.57355834744E+02  0.13781059525E+03  0.88164321627E+02 0.  0.
        -11    1    3    3    0    0 -0.41467743379E+02  0.57146147805E+02 -0.11648894223E+03  0.13621648069E+03  0.00000000000E+00 0. -1.
         11    1    3    3    0    0  0.50994977778E+01 -0.30140307004E+02 -0.68811714190E+02  0.75296048991E+02  0.00000000000E+00 0.  1.
        -13    1    4    4    0    0  0.42422398266E+02 -0.32883053251E+02 -0.69617771271E+02  0.87906707039E+02  0.00000000000E+00 0.  1.
         13    1    4    4    0    0  0.45225361867E+02  0.17167108516E+02  0.12261936528E+02  0.49903888207E+02  0.00000000000E+00 0. -1.
         -1    1    1    2    0  502 -0.51279514531E+02 -0.11289896066E+02  0.14421987962E+02  0.54452218509E+02  0.00000000000E+00 0.  1.
<scales pt_clust_5="13000.00000" pt_clust_6="13000.00000" pt_clust_7="13000.00000" pt_clust_8="13000.00000" pt_clust_9="52.50762"></scales>
<clustering>
<clus scale="   52.508">  1  9  2 -1</clus>
<clus scale="   88.164">  7  8 -1 -1</clus>
<clus scale="   91.374">  5  6 -1 -1</clus>
<clus scale="  103.721">  1  7  2 -1</clus>
<clus scale="   52.508">  1  5  2 -1</clus>
</clustering>
</event>
<event>
 9    1  0.1399746E-005  0.1121884E+03  0.7546771E-02  0.1257600E+00
         21   -1    0    0  501  502  0.00000000000E+00  0.00000000000E+00  0.25340066532E+02  0.25340066532E+02  0.00000000000E+00 0. -1.
          2   -1    0    0  502    0 -0.00000000000E+00 -0.00000000000E+00 -0.69501206695E+03  0.69501206695E+03  0.00000000000E+00 0. -1.
         23    2    1    2    0    0  0.55497296065E+02 -0.49568732369E+02 -0.38625959744E+03  0.40369174546E+03  0.90738854105E+02 0.  0.
         23    2    1    2    0    0 -0.23862137881E+02  0.41964864370E+02 -0.24289978994E+03  0.26470007761E+03  0.93463210250E+02 0.  0.
        -11    1    4    4    0    0  0.33108270412E+02  0.11684194287E+02 -0.48503729351E+02  0.59877288906E+02  0.00000000000E+00 0. -1.
         11    1    4    4    0    0 -0.56970408292E+02  0.30280670084E+02 -0.19439606059E+03  0.20482278871E+03  0.00000000000E+00 0.  1.
        -13    1    3    3    0    0 -0.43412183010E+01 -0.23704517454E+02 -0.18990416767E+02  0.30682018400E+02  0.00000000000E+00 0.  1.
         13    1    3    3    0    0  0.59838514366E+02 -0.25864214915E+02 -0.36726918067E+03  0.37300972706E+03  0.00000000000E+00 0. -1.
          2    1    1    2  501    0 -0.31635158184E+02  0.76038679990E+01 -0.40512613045E+02  0.51960310407E+02  0.00000000000E+00 0. -1.
<scales pt_clust_5="13000.00000" pt_clust_6="13000.00000" pt_clust_7="13000.00000" pt_clust_8="13000.00000" pt_clust_9="32.53617"></scales>
<clustering>
<clus scale="   32.536">  1  9  2 -1</clus>
<clus scale="   90.739">  7  8 -1 -1</clus>
<clus scale="   93.463">  5  6 -1 -1</clus>
<clus scale="  109.929">  2  7  1 -1</clus>
<clus scale="   32.536">  1  5  2 -1</clus>
</clustering>
</event>
<event>
 9    1  0.1399746E-005  0.1244536E+03  0.7546771E-02  0.1236453E+00
         21   -1    0    0  501  502  0.00000000000E+00  0.00000000000E+00  0.57066805729E+02  0.57066805729E+02  0.00000000000E+00 0. -1.
          2   -1    0    0  502    0 -0.00000000000E+00 -0.00000000000E+00 -0.45087510378E+03  0.45087510378E+03  0.00000000000E+00 0. -1.
         23    2    1    2    0    0  0.74835700584E+01  0.63765598198E+02 -0.14131541749E+03  0.17995415760E+03  0.91057104510E+02 0.  0.
         23    2    1    2    0    0  0.40056682839E+02 -0.10477643012E+03 -0.19021609273E+03  0.23955493966E+03  0.92853481543E+02 0.  0.
        -11    1    3    3    0    0 -0.27574099188E+02 -0.98717386566E+01 -0.29644968610E+02  0.41672608918E+02  0.00000000000E+00 0.  1.
         11    1    3    3    0    0  0.35057669247E+02  0.73637336854E+02 -0.11167044888E+03  0.13828154868E+03  0.00000000000E+00 0. -1.
        -13    1    4    4    0    0  0.68882232608E+02 -0.82356675000E+02 -0.12473038382E+03  0.16457537038E+03  0.00000000000E+00 0.  1.
         13    1    4    4    0    0 -0.28825549769E+02 -0.22419755115E+02 -0.65485708907E+02  0.74979569284E+02  0.00000000000E+00 0. -1.
          2    1    1    2  501    0 -0.47540252898E+02  0.41010831918E+02 -0.62276787830E+02  0.88432812251E+02  0.00000000000E+00 0. -1.
<scales pt_clust_5="13000.00000" pt_clust_6="13000.00000" pt_clust_7="13000.00000" pt_clust_8="13000.00000" pt_clust_9="62.78506"></scales>
<clustering>
<clus scale="   62.785">  1  9  2 -1</clus>
<clus scale="   91.057">  5  6 -1 -1</clus>
<clus scale="   92.853">  7  8 -1 -1</clus>
<clus scale="  123.119">  2  5  1 -1</clus>
<clus scale="   62.785">  1  5  2 -1</clus>
</clustering>
</event>
<event>
 9    1  0.1399746E-005  0.1117658E+03  0.7546771E-02  0.1258085E+00
          2   -1    0    0  502    0 -0.00000000000E+00  0.00000000000E+00  0.35885139455E+03  0.35885139455E+03  0.00000000000E+00 0. -1.
         21   -1    0    0  501  502  0.00000000000E+00 -0.00000000000E+00 -0.51742474608E+02  0.51742474608E+02  0.00000000000E+00 0.  1.
         23    2    1    2    0    0  0.37333029714E+02  0.57875427521E+02  0.23329024449E+03  0.25975310887E+03  0.91126391207E+02 0.  0.
         23    2    1    2    0    0 -0.35471810597E+02 -0.31957446897E+02  0.65985292584E+02  0.12370097873E+03  0.93103950190E+02 0.  0.
        -13    1    3    3    0    0 -0.26305381073E+02  0.15102472528E+01  0.33438976884E+02  0.42572515726E+02  0.00000000000E+00 0.  1.
         13    1    3    3    0    0  0.63638410787E+02  0.56365180268E+02  0.19985126761E+03  0.21718059315E+03  0.00000000000E+00 0. -1.
        -13    1    4    4    0    0  0.14806591393E+02 -0.49144340640E+02  0.35956086049E+02  0.62667706912E+02  0.00000000000E+00 0. -1.
         13    1    4    4    0    0 -0.50278401990E+02  0.17186893742E+02  0.30029206535E+02  0.61033271814E+02  0.00000000000E+00 0.  1.
          2    1    1    2  501    0 -0.18612191166E+01 -0.25917980624E+02  0.78333828681E+01  0.27139781564E+02  0.00000000000E+00 0. -1.
<scales pt_clust_5="13000.00000" pt_clust_6="13000.00000" pt_clust_7="13000.00000" pt_clust_8="13000.00000" pt_clust_9="25.98472"></scales>
<clustering>
<clus scale="   25.985">  2  9  1 -1</clus>
<clus scale="   91.126">  5  6 -1 -1</clus>
<clus scale="   93.104">  7  8 -1 -1</clus>
<clus scale="  110.124">  1  5  2 -1</clus>
<clus scale="   25.985">  2  5  1 -1</clus>
</clustering>
</event>
<event>
 9    1  0.1399746E-005  0.9156079E+02  0.7546771E-02  0.1301460E+00
         21   -1    0    0  501  502  0.00000000000E+00  0.00000000000E+00  0.51685268363E+02  0.51685268363E+02  0.00000000000E+00 0.  1.
          1   -1    0    0  502    0 -0.00000000000E+00 -0.00000000000E+00 -0.30711041607E+03  0.30711041607E+03  0.00000000000E+00 0. -1.
         23    2    1    2    0    0 -0.63912467498E+00  0.10954098065E+02 -0.19792374156E+03  0.21806227365E+03  0.90867744393E+02 0.  0.
         23    2    1    2    0    0 -0.21094944167E+02 -0.58692509286E+01 -0.71232605947E+02  0.11452708966E+03  0.86965081154E+02 0.  0.
        -11    1    4    4    0    0  0.12151614174E+02  0.25397142787E+02 -0.61817520587E+02  0.67927037623E+02  0.00000000000E+00 0. -1.
         11    1    4    4    0    0 -0.33246558341E+02 -0.31266393716E+02 -0.94150853606E+01  0.46600052037E+02  0.00000000000E+00 0.  1.
        -13    1    3    3    0    0 -0.19476283079E+02  0.46986541788E+02 -0.10881321985E+03  0.12011401885E+03  0.00000000000E+00 0.  1.
         13    1    3    3    0    0  0.18837158404E+02 -0.36032443723E+02 -0.89110521709E+02  0.97948254792E+02  0.00000000000E+00 0. -1.
          1    1    1    2  501    0  0.21734068842E+02 -0.50848471359E+01  0.13731199801E+02  0.26206321122E+02  0.00000000000E+00 0. -1.
<scales pt_clust_5="13000.00000" pt_clust_6="13000.00000" pt_clust_7="13000.00000" pt_clust_8="13000.00000" pt_clust_9="22.32096"></scales>
<clustering>
<clus scale="   22.321">  1  9  2 -1</clus>
<clus scale="   86.965">  5  6 -1 -1</clus>
<clus scale="   87.689">  1  5  2 -1</clus>
<clus scale="   90.868">  7  8 -1 -1</clus>
<clus scale="   22.321">  1  5  2 -1</clus>
</clustering>
</event>
<event>
 9    1  0.1399746E-005  0.9828243E+02  0.7546771E-02  0.1290708E+00
         21   -1    0    0  501  502  0.00000000000E+00  0.00000000000E+00  0.10859889948E+03  0.10859889948E+03  0.00000000000E+00 0.  1.
          2   -1    0    0  502    0 -0.00000000000E+00 -0.00000000000E+00 -0.38095182599E+03  0.38095182599E+03  0.00000000000E+00 0. -1.
         23    2    1    2    0    0 -0.72907242603E+01  0.99279323190E+01 -0.32957959411E+03  0.34387669713E+03  0.97348628541E+02 0.  0.
         23    2    1    2    0    0  0.38888625112E+02  0.51774416295E+01  0.23279304597E+02  0.96898797788E+02  0.85488712268E+02 0.  0.
        -11    1    3    3    0    0  0.43588704685E+02 -0.32655675571E+01 -0.11709581246E+03  0.12498827306E+03  0.00000000000E+00 0.  1.
         11    1    3    3    0    0 -0.50879428945E+02  0.13193499876E+02 -0.21248378165E+03  0.21888842407E+03  0.00000000000E+00 0. -1.
        -11    1    4    4    0    0  0.20445103842E+02  0.16175800213E+02 -0.29827434698E+02  0.39614828591E+02  0.00000000000E+00 0. -1.
         11    1    4    4    0    0  0.18443521270E+02 -0.10998358584E+02  0.53106739295E+02  0.57283969197E+02  0.00000000000E+00 0.  1.
          2    1    1    2  501    0 -0.31597900852E+02 -0.15105373948E+02  0.33947363000E+02  0.48775230548E+02  0.00000000000E+00 0. -1.
<scales pt_clust_5="13000.00000" pt_clust_6="13000.00000" pt_clust_7="13000.00000" pt_clust_8="13000.00000" pt_clust_9="35.02284"></scales>
<clustering>
<clus scale="   35.023">  1  9  2 -1</clus>
<clus scale="   85.489">  7  8 -1 -1</clus>
<clus scale="   86.551">  1  7  2 -1</clus>
<clus scale="   97.349">  5  6 -1 -1</clus>
<clus scale="   35.023">  1  5  2 -1</clus>
</clustering>
</event>
<event>
 9    1  0.1399746E-005  0.1189368E+03  0.7546771E-02  0.1249600E+00
         21   -1    0    0  501  502  0.00000000000E+00  0.00000000000E+00  0.80164779429E+02  0.80164779429E+02  0.00000000000E+00 0. -1.
          2   -1    0    0  502    0 -0.00000000000E+00 -0.00000000000E+00 -0.38618042347E+03  0.38618042347E+03  0.00000000000E+00 0. -1.
         23    2    1    2    0    0 -0.73019171662E+02 -0.90053776856E+01 -0.25817755644E+03  0.28373772717E+03  0.91861585620E+02 0.  0.
         23    2    1    2    0    0  0.82695795226E+02  0.27159413553E+02  0.14122483897E+02  0.11732104159E+03  0.77385747761E+02 0.  0.
        -11    1    4    4    0    0  0.13725417633E+02 -0.25297075504E+02 -0.31880317731E+01  0.28956737814E+02  0.00000000000E+00 0.  1.
         11    1    4    4    0    0  0.68970377594E+02  0.52456489057E+02  0.17310515670E+02  0.88364303779E+02  0.00000000000E+00 0. -1.
        -13    1    3    3    0    0 -0.37133896487E+02  0.37412048894E+02 -0.77137932311E+02  0.93428305517E+02  0.00000000000E+00 0.  1.
         13    1    3    3    0    0 -0.35885275175E+02 -0.46417426579E+02 -0.18103962413E+03  0.19030942165E+03  0.00000000000E+00 0. -1.
          2    1    1    2  501    0 -0.96766235646E+01 -0.18154035867E+02 -0.61960571493E+02  0.65286434132E+02  0.00000000000E+00 0. -1.
<scales pt_clust_5="13000.00000" pt_clust_6="13000.00000" pt_clust_7="13000.00000" pt_clust_8="13000.00000" pt_clust_9="20.57198"></scales>
<clustering>
<clus scale="   20.572">  1  9  2 -1</clus>
<clus scale="   77.386">  5  6 -1 -1</clus>
<clus scale="   91.862">  7  8 -1 -1</clus>
<clus scale="  108.148">  1  5  2 -1</clus>
<clus scale="   20.572">  1  5  2 -1</clus>
</clustering>
</event>
<event>
 9    1  0.1399746E-005  0.1699203E+03  0.7546771E-02  0.1182598E+00
          1   -1    0    0  502    0 -0.00000000000E+00  0.00000000000E+00  0.45145561949E+03  0.45145561949E+03  0.00000000000E+00 0. -1.
         21   -1    0    0  501  502  0.00000000000E+00 -0.00000000000E+00 -0.14616490931E+03  0.14616490931E+03  0.00000000000E+00 0. -1.
         23    2    1    2    0    0 -0.10116469347E+03  0.70316080666E+02  0.53070034869E+02  0.16194683719E+03  0.90728733440E+02 0.  0.
         23    2    1    2    0    0  0.11848585225E+03  0.85015192411E+02  0.21384405141E+03  0.27473708235E+03  0.92112463708E+02 0.  0.
        -11    1    3    3    0    0 -0.82174751021E+01  0.58671336059E+02  0.17913604618E+02  0.61893051326E+02  0.00000000000E+00 0. -1.
         11    1    3    3    0    0 -0.92947218364E+02  0.11644744607E+02  0.35156430251E+02  0.10005378587E+03  0.00000000000E+00 0.  1.
        -13    1    4    4    0    0  0.99903640904E+02  0.96214290303E+02  0.21148835349E+03  0.25291352433E+03  0.00000000000E+00 0. -1.
         13    1    4    4    0    0  0.18582211349E+02 -0.11199097892E+02  0.23556979192E+01  0.21823558025E+02  0.00000000000E+00 0.  1.
          1    1    1    2  501    0 -0.17321158786E+02 -0.15533127308E+03  0.38376623899E+02  0.16093660926E+03  0.00000000000E+00 0. -1.
<scales pt_clust_5="13000.00000" pt_clust_6="13000.00000" pt_clust_7="13000.00000" pt_clust_8="13000.00000" pt_clust_9="142.78724"></scales>
<clustering>
<clus scale="   90.729">  5  6 -1 -1</clus>
<clus scale="   92.112">  7  8 -1 -1</clus>
<clus scale="  153.004">  1  5  2 -1</clus>
<clus scale="  142.787">  2  9  1 -1</clus>
<clus scale="  142.787">  2  5  1 -1</clus>
</clustering>
</event>
<event>
 9    1  0.5172285E-005  0.2748763E+03  0.7546771E-02  0.1098849E+00
         -1   -1    0    0    0  501 -0.00000000000E+00  0.00000000000E+00  0.38507186221E+03  0.38507186221E+03  0.00000000000E+00 0.  1.
         21   -1    0    0  501  502  0.00000000000E+00 -0.00000000000E+00 -0.83947532665E+03  0.83947532665E+03  0.00000000000E+00 0. -1.
         23    2    1    2    0    0 -0.13053096414E+03 -0.20594985821E+03  0.53359518816E+02  0.26372699442E+03  0.85152878069E+02 0.  0.
         23    2    1    2    0    0  0.28318582865E+03  0.24195446927E+03 -0.64624060196E+03  0.75159330668E+03  0.92354773940E+02 0.  0.
        -11    1    3    3    0    0 -0.74419641020E+02 -0.14114234587E+03  0.73491451892E+02  0.17567139286E+03  0.00000000000E+00 0.  1.
         11    1    3    3    0    0 -0.56111323115E+02 -0.64807512340E+02 -0.20131933076E+02  0.88055601564E+02  0.00000000000E+00 0. -1.
        -13    1    4    4    0    0  0.86978744740E+02  0.12716738099E+03 -0.22091819939E+03  0.26933565610E+03  0.00000000000E+00 0.  1.
         13    1    4    4    0    0  0.19620708391E+03  0.11478708828E+03 -0.42532240257E+03  0.48225765058E+03  0.00000000000E+00 0. -1.
         -1    1    1    2    0  502 -0.15265486452E+03 -0.36004611058E+02  0.13847761871E+03  0.20922688776E+03  0.00000000000E+00 0.  1.
<scales pt_clust_5="13000.00000" pt_clust_6="13000.00000" pt_clust_7="13000.00000" pt_clust_8="13000.00000" pt_clust_9="156.84344"></scales>
<clustering>
<clus scale="   85.153">  5  6 -1 -1</clus>
<clus scale="   92.355">  7  8 -1 -1</clus>
<clus scale="  156.843">  2  9  1 -1</clus>
<clus scale="  272.541">  1  5  2 -1</clus>
<clus scale="  156.843">  2  5  1 -1</clus>
</clustering>
</event>
<event>
 9    1  0.1399746E-005  0.1683731E+03  0.7546771E-02  0.1180598E+00
         21   -1    0    0  501  502  0.00000000000E+00  0.00000000000E+00  0.16149354835E+03  0.16149354835E+03  0.00000000000E+00 0.  1.
          2   -1    0    0  502    0 -0.00000000000E+00 -0.00000000000E+00 -0.34308445461E+03  0.34308445461E+03  0.00000000000E+00 0. -1.
         23    2    1    2    0    0 -0.92173023219E+02  0.69650501608E+02 -0.76218051582E+02  0.16824388261E+03  0.95654346823E+02 0.  0.
         23    2    1    2    0    0  0.17605264957E+03 -0.17869214295E+02 -0.12735111509E+03  0.23533839092E+03  0.88611553906E+02 0.  0.
        -11    1    3    3    0    0 -0.39481946005E+01  0.60900793001E+02 -0.36356988767E+02  0.71037493347E+02  0.00000000000E+00 0.  1.
         11    1    3    3    0    0 -0.88224828619E+02  0.87497086070E+01 -0.39861062815E+02  0.97206389267E+02  0.00000000000E+00 0. -1.
        -11    1    4    4    0    0  0.12594845528E+03  0.25704578380E+02 -0.10261424845E+03  0.16447924708E+03  0.00000000000E+00 0.  1.
         11    1    4    4    0    0  0.50104194290E+02 -0.43573792675E+02 -0.24736866638E+02  0.70859143832E+02  0.00000000000E+00 0. -1.
          2    1    1    2  501    0 -0.83879626349E+02 -0.51781287313E+02  0.21978260409E+02  0.10099572943E+03  0.00000000000E+00 0. -1.
<scales pt_clust_5="13000.00000" pt_clust_6="13000.00000" pt_clust_7="13000.00000" pt_clust_8="13000.00000" pt_clust_9="98.57532"></scales>
<clustering>
<clus scale="   88.612">  7  8 -1 -1</clus>
<clus scale="   95.654">  5  6 -1 -1</clus>
<clus scale="   98.575">  1  9  2 -1</clus>
<clus scale="  164.474">  1  7  2 -1</clus>
<clus scale="   98.575">  1  5  2 -1</clus>
</clustering>
</event>
<event>
 9    1  0.1399746E-005  0.9996670E+02  0.7546771E-02  0.1286111E+00
         -2   -1    0    0    0  501 -0.00000000000E+00  0.00000000000E+00  0.45495462841E+03  0.45495462841E+03  0.00000000000E+00 0.  1.
         21   -1    0    0  501  502  0.00000000000E+00 -0.00000000000E+00 -0.34335833843E+02  0.34335833843E+02  0.00000000000E+00 0. -1.
         23    2    1    2    0    0 -0.14171765405E+01 -0.96656606200E-01  0.25290343356E+03  0.26823467790E+03  0.89373810413E+02 0.  0.
         23    2    1    2    0    0 -0.33128585495E+01  0.29443014746E+02  0.88929209822E+02  0.13684866122E+03  0.99705995657E+02 0.  0.
        -13    1    4    4    0    0  0.33608533006E+02  0.39294784504E+02  0.15348585404E+02  0.53936932189E+02  0.00000000000E+00 0. -1.
         13    1    4    4    0    0 -0.36921391555E+02 -0.98517697577E+01  0.73580624418E+02  0.82911729034E+02  0.00000000000E+00 0.  1.
        -13    1    3    3    0    0 -0.37709625225E+02 -0.97968500965E+01  0.19743301892E+03  0.20124062976E+03  0.00000000000E+00 0.  1.
         13    1    3    3    0    0  0.36292448684E+02  0.97001934903E+01  0.55470414638E+02  0.66994048134E+02  0.00000000000E+00 0. -1.
         -2    1    1    2    0  502  0.47300350900E+01 -0.29346358140E+02  0.78786151189E+02  0.84207123138E+02  0.00000000000E+00 0.  1.
<scales pt_clust_5="13000.00000" pt_clust_6="13000.00000" pt_clust_7="13000.00000" pt_clust_8="13000.00000" pt_clust_9="29.72512"></scales>
<clustering>
<clus scale="   29.725">  2  9  1 -1</clus>
<clus scale="   89.374">  7  8 -1 -1</clus>
<clus scale="   89.665">  1  7  2 -1</clus>
<clus scale="   99.706">  5  6 -1 -1</clus>
<clus scale="   29.725">  2  5  1 -1</clus>
</clustering>
</event>
<event>
 9    1  0.1399746E-005  0.9326301E+02  0.7546771E-02  0.1295625E+00
         21   -1    0    0  501  502  0.00000000000E+00  0.00000000000E+00  0.19214535659E+03  0.19214535659E+03  0.00000000000E+00 0.  1.
         -2   -1    0    0    0  501 -0.00000000000E+00 -0.00000000000E+00 -0.90509234395E+02  0.90509234395E+02  0.00000000000E+00 0. -1.
         23    2    1    2    0    0 -0.66748694919E+01  0.20728134084E+02 -0.47290034320E-01  0.92344913922E+02  0.89740578701E+02 0.  0.
         23    2    1    2    0    0  0.31940033479E+02 -0.28400026296E+01  0.13757665286E+02  0.97093526457E+02  0.90607108839E+02 0.  0.
        -11    1    3    3    0    0 -0.14323641709E+02 -0.23143294856E+02 -0.28571153443E+02  0.39459974881E+02  0.00000000000E+00 0. -1.
         11    1    3    3    0    0  0.76487722172E+01  0.43871428939E+02  0.28523863408E+02  0.52884939041E+02  0.00000000000E+00 0.  1.
        -11    1    4    4    0    0  0.55527785922E+01 -0.29896586131E+02 -0.27601928131E+02  0.41067087173E+02  0.00000000000E+00 0. -1.
         11    1    4    4    0    0  0.26387254887E+02  0.27056583501E+02  0.41359593417E+02  0.56026439284E+02  0.00000000000E+00 0.  1.
         -2    1    1    2    0  502 -0.25265163987E+02 -0.17888131454E+02  0.87925746945E+02  0.93216150608E+02  0.00000000000E+00 0. -1.
<scales pt_clust_5="13000.00000" pt_clust_6="13000.00000" pt_clust_7="13000.00000" pt_clust_8="13000.00000" pt_clust_9="30.95664"></scales>
<clustering>
<clus scale="   30.957">  1  9  2 -1</clus>
<clus scale="   89.741">  5  6 -1 -1</clus>
<clus scale="   90.607">  7  8 -1 -1</clus>
<clus scale="   92.421">  2  5  1 -1</clus>
<clus scale="   30.957">  1  5  2 -1</clus>
</clustering>
</event>
<event>
 9    1  0.1399746E-005  0.9313004E+02  0.7546771E-02  0.1296398E+00
         21   -1    0    0  501  502  0.00000000000E+00  0.00000000000E+00  0.14130891257E+03  0.14130891257E+03  0.00000000000E+00 0. -1.
          3   -1    0    0  502    0 -0.00000000000E+00 -0.00000000000E+00 -0.14706330078E+03  0.14706330078E+03  0.00000000000E+00 0. -1.
         23    2    1    2    0    0  0.16261675445E+02 -0.14939236851E+02 -0.58928998067E+02  0.11128020837E+03  0.91777094508E+02 0.  0.
         23    2    1    2    0    0  0.20553255999E+02  0.16964411760E+02 -0.19153480042E+02  0.95908305263E+02  0.90118364511E+02 0.  0.
        -11    1    4    4    0    0  0.36875851950E+02  0.40165811542E+02 -0.33626905145E+02  0.64061608031E+02  0.00000000000E+00 0. -1.
         11    1    4    4    0    0 -0.16322595951E+02 -0.23201399782E+02  0.14473425103E+02  0.31846697233E+02  0.00000000000E+00 0.  1.
        -13    1    3    3    0    0 -0.33663947932E+02  0.18049494324E+01 -0.20598971464E+01  0.33775174450E+02  0.00000000000E+00 0.  1.
         13    1    3    3    0    0  0.49925623378E+02 -0.16744186284E+02 -0.56869100920E+02  0.77505033923E+02  0.00000000000E+00 0. -1.
          3    1    1    2  501    0 -0.36814931444E+02 -0.20251749088E+01  0.72328089895E+02  0.81183699709E+02  0.00000000000E+00 0. -1.
<scales pt_clust_5="13000.00000" pt_clust_6="13000.00000" pt_clust_7="13000.00000" pt_clust_8="13000.00000" pt_clust_9="36.87059"></scales>
<clustering>
<clus scale="   36.871">  1  9  2 -1</clus>
<clus scale="   90.118">  5  6 -1 -1</clus>
<clus scale="   91.496">  1  5  2 -1</clus>
<clus scale="   91.777">  7  8 -1 -1</clus>
<clus scale="   36.871">  1  5  2 -1</clus>
</clustering>
</event>
<event>
 9    1  0.1399746E-005  0.9650973E+02  0.7546771E-02  0.1290236E+00
         -3   -1    0    0    0  501 -0.00000000000E+00  0.00000000000E+00  0.83305972755E+02  0.83305972755E+02  0.00000000000E+00 0.  1.
         21   -1    0    0  501  502  0.00000000000E+00 -0.00000000000E+00 -0.29999587370E+03  0.29999587370E+03  0.00000000000E+00 0.  1.
         23    2    1    2    0    0 -0.18711013402E+02  0.46357600035E+01  0.33222561717E+02  0.97700082761E+02  0.89833041088E+02 0.  0.
         23    2    1    2    0    0  0.20517608309E+02 -0.26151758171E+02 -0.13107753113E+03  0.16482120684E+03  0.94232819919E+02 0.  0.
        -13    1    3    3    0    0 -0.47233192951E+02  0.20935935250E+01  0.46340876488E+02  0.66202979418E+02  0.00000000000E+00 0.  1.
         13    1    3    3    0    0  0.28522179548E+02  0.25421664784E+01 -0.13118314771E+02  0.31497103343E+02  0.00000000000E+00 0. -1.
        -13    1    4    4    0    0  0.57567360835E+02 -0.10405389545E+02 -0.89707781039E+02  0.10709696141E+03  0.00000000000E+00 0. -1.
         13    1    4    4    0    0 -0.37049752526E+02 -0.15746368627E+02 -0.41369750091E+02  0.57724245424E+02  0.00000000000E+00 0.  1.
         -3    1    1    2    0  502 -0.18065949067E+01  0.21515998168E+02 -0.11883493153E+03  0.12078055686E+03  0.00000000000E+00 0.  1.
<scales pt_clust_5="13000.00000" pt_clust_6="13000.00000" pt_clust_7="13000.00000" pt_clust_8="13000.00000" pt_clust_9="21.59171"></scales>
<clustering>
<clus scale="   21.592">  2  9  1 -1</clus>
<clus scale="   89.833">  5  6 -1 -1</clus>
<clus scale="   92.219">  1  5  2 -1</clus>
<clus scale="   94.233">  7  8 -1 -1</clus>
<clus scale="   21.592">  2  5  1 -1</clus>
</clustering>
</event>
<event>
 9    1  0.1399746E-005  0.1038927E+03  0.7546771E-02  0.1272609E+00
          1   -1    0    0  502    0 -0.00000000000E+00  0.00000000000E+00  0.10453889873E+03  0.10453889873E+03  0.00000000000E+00 0. -1.
         21   -1    0    0  501  502  0.00000000000E+00 -0.00000000000E+00 -0.16252593508E+03  0.16252593508E+03  0.00000000000E+00 0.  1.
         23    2    1    2    0    0  0.53407122505E+02  0.63444082673E+01  0.19988264802E+02  0.10727756052E+03  0.90644205616E+02 0.  0.
         23    2    1    2    0    0 -0.41350038551E+02  0.26896705253E+02 -0.53294417476E+02  0.11666545839E+03  0.91308684170E+02 0.  0.
        -11    1    3    3    0    0 -0.81022850645E+00 -0.32097552938E+02  0.24902903994E+02  0.40633286874E+02  0.00000000000E+00 0. -1.
         11    1    3    3    0    0  0.54217351012E+02  0.38441961205E+02 -0.49146391913E+01  0.66644273651E+02  0.00000000000E+00 0.  1.
        -11    1    4    4    0    0 -0.19192174162E+02  0.42588246194E+02 -0.70463494350E+02  0.84541127855E+02  0.00000000000E+00 0.  1.
         11    1    4    4    0    0 -0.22157864388E+02 -0.15691540942E+02  0.17169076874E+02  0.32124330531E+02  0.00000000000E+00 0. -1.
          1    1    1    2  501    0 -0.12057083955E+02 -0.33241113520E+02 -0.24680883673E+02  0.43121814902E+02  0.00000000000E+00 0. -1.
<scales pt_clust_5="13000.00000" pt_clust_6="13000.00000" pt_clust_7="13000.00000" pt_clust_8="13000.00000" pt_clust_9="35.36022"></scales>
<clustering>
<clus scale="   35.360">  2  9  1 -1</clus>
<clus scale="   90.644">  5  6 -1 -1</clus>
<clus scale="   91.309">  7  8 -1 -1</clus>
<clus scale="  103.309">  1  5  2 -1</clus>
<clus scale="   35.360">  2  5  1 -1</clus>
</clustering>
</event>
<event>
 9    1  0.1399746E-005  0.1424050E+03  0.7546771E-02  0.1210136E+00
         21   -1    0    0  501  502  0.00000000000E+00  0.00000000000E+00  0.15276866697E+03  0.15276866697E+03  0.00000000000E+00 0. -1.
          2   -1    0    0  502    0 -0.00000000000E+00 -0.00000000000E+00 -0.88328229327E+03  0.88328229327E+03  0.00000000000E+00 0. -1.
         23    2    1    2    0    0  0.49909799938E+02 -0.86693371935E+02 -0.59209799993E+03  0.60718894215E+03  0.89953549623E+02 0.  0.
         23    2    1    2    0    0 -0.11870086890E+03  0.10420178739E+03 -0.24238068035E+03  0.30297521089E+03  0.89987084811E+02 0.  0.
        -11    1    3    3    0    0  0.21662795283E+02  0.15857992861E+02 -0.15688306041E+03  0.15916358654E+03  0.00000000000E+00 0.  1.
         11    1    3    3    0    0  0.28247004655E+02 -0.10255136480E+03 -0.43521493951E+03  0.44802535561E+03  0.00000000000E+00 0. -1.
        -13    1    4    4    0    0 -0.51796661836E+02  0.42716538609E+02 -0.33173811290E+02  0.74887239257E+02  0.00000000000E+00 0.  1.
         13    1    4    4    0    0 -0.66904207061E+02  0.61485248780E+02 -0.20920686906E+03  0.22808797163E+03  0.00000000000E+00 0. -1.
          2    1    1    2  501    0  0.68791068960E+02 -0.17508415454E+02  0.10396505397E+03  0.12588680720E+03  0.00000000000E+00 0. -1.
<scales pt_clust_5="13000.00000" pt_clust_6="13000.00000" pt_clust_7="13000.00000" pt_clust_8="13000.00000" pt_clust_9="70.98419"></scales>
<clustering>
<clus scale="   70.984">  1  9  2 -1</clus>
<clus scale="   89.954">  5  6 -1 -1</clus>
<clus scale="   89.987">  7  8 -1 -1</clus>
<clus scale="  142.384">  2  5  1 -1</clus>
<clus scale="   70.984">  1  5  2 -1</clus>
</clustering>
</event>
<event>
 9    1  0.1399746E-005  0.9961747E+02  0.7546771E-02  0.1282655E+00
          1   -1    0    0  502    0 -0.00000000000E+00  0.00000000000E+00  0.40305058709E+03  0.40305058709E+03  0.00000000000E+00 0. -1.
         21   -1    0    0  501  502  0.00000000000E+00 -0.00000000000E+00 -0.11880752094E+03  0.11880752094E+03  0.00000000000E+00 0. -1.
         23    2    1    2    0    0  0.25142640102E+02  0.43242196045E+02  0.25710620521E+03  0.27588655004E+03  0.86647261147E+02 0.  0.
         23    2    1    2    0    0 -0.23805210507E+02 -0.20858561643E+02  0.11841198455E+03  0.15198238842E+03  0.89863678223E+02 0.  0.
        -11    1    4    4    0    0  0.22841832692E+02 -0.38999049294E+02  0.54336916095E+02  0.70676556348E+02  0.00000000000E+00 0.  1.
         11    1    4    4    0    0 -0.46647043199E+02  0.18140487651E+02  0.64075068451E+02  0.81305832069E+02  0.00000000000E+00 0. -1.
        -11    1    3    3    0    0  0.19900052375E+02  0.69215835463E+02  0.20756154465E+03  0.21970124893E+03  0.00000000000E+00 0. -1.
         11    1    3    3    0    0  0.52425877277E+01 -0.25973639418E+02  0.49544660562E+02  0.56185301111E+02  0.00000000000E+00 0.  1.
          1    1    1    2  501    0 -0.13374295951E+01 -0.22383634402E+02 -0.91275123614E+02  0.93989169577E+02  0.00000000000E+00 0. -1.
<scales pt_clust_5="13000.00000" pt_clust_6="13000.00000" pt_clust_7="13000.00000" pt_clust_8="13000.00000" pt_clust_9="22.42355"></scales>
<clustering>
<clus scale="   22.424">  2  9  1 -1</clus>
<clus scale="   86.647">  7  8 -1 -1</clus>
<clus scale="   89.864">  5  6 -1 -1</clus>
<clus scale="   96.726">  1  7  2 -1</clus>
<clus scale="   22.424">  2  5  1 -1</clus>
</clustering>
</event>
<event>
 9    1  0.1399746E-005  0.1326316E+03  0.7546771E-02  0.1224040E+00
          1   -1    0    0  502    0 -0.00000000000E+00  0.00000000000E+00  0.11586807082E+04  0.11586807082E+04  0.00000000000E+00 0. -1.
         21   -1    0    0  501  502  0.00000000000E+00 -0.00000000000E+00 -0.45074290699E+02  0.45074290699E+02  0.00000000000E+00 0.  1.
         23    2    1    2    0    0  0.32681976768E+02  0.72901731622E+02  0.50528390955E+03  0.51965747334E+03  0.91374428984E+02 0.  0.
         23    2    1    2    0    0 -0.10952030058E+03 -0.12325146247E+03  0.24669897126E+03  0.31098788256E+03  0.93099202159E+02 0.  0.
        -13    1    3    3    0    0 -0.26633139832E+02  0.29213608569E+01  0.73373017016E+02  0.78111830811E+02  0.00000000000E+00 0.  1.
         13    1    3    3    0    0  0.59315116600E+02  0.69980370765E+02  0.43191089253E+03  0.44154564253E+03  0.00000000000E+00 0. -1.
        -13    1    4    4    0    0 -0.10927787641E+03 -0.59749360962E+02  0.18006587790E+03  0.21894145517E+03  0.00000000000E+00 0.  1.
         13    1    4    4    0    0 -0.24242416489E+00 -0.63502101509E+02  0.66633093359E+02  0.92046427395E+02  0.00000000000E+00 0. -1.
          1    1    1    2  501    0  0.76838323808E+02  0.50349730850E+02  0.36162353670E+03  0.37310964300E+03  0.00000000000E+00 0. -1.
<scales pt_clust_5="13000.00000" pt_clust_6="13000.00000" pt_clust_7="13000.00000" pt_clust_8="13000.00000" pt_clust_9="91.86529"></scales>
<clustering>
<clus scale="   91.374">  5  6 -1 -1</clus>
<clus scale="   91.865">  2  9  1 -1</clus>
<clus scale="   93.099">  7  8 -1 -1</clus>
<clus scale="  131.427">  1  5  2 -1</clus>
<clus scale="   91.865">  2  5  1 -1</clus>
</clustering>
</event>
<event>
 9    1  0.1399746E-005  0.1177451E+03  0.7546771E-02  0.1250213E+00
          2   -1    0    0  502    0 -0.00000000000E+00  0.00000000000E+00  0.67667621010E+03  0.67667621010E+03  0.00000000000E+00 0. -1.
         21   -1    0    0  501  502  0.00000000000E+00 -0.00000000000E+00 -0.14165495901E+03  0.14165495901E+03  0.00000000000E+00 0. -1.
         23    2    1    2    0    0 -0.23476303761E+02 -0.37670198745E+02  0.30113717925E+03  0.31763651053E+03  0.90769881450E+02 0.  0.
         23    2    1    2    0    0 -0.37907871223E+02  0.11520166665E+03  0.32830507914E+03  0.36396692887E+03  0.99896294324E+02 0.  0.
        -11    1    3    3    0    0  0.13943901855E+02 -0.50422861428E+02  0.10222771317E+03  0.11483641710E+03  0.00000000000E+00 0. -1.
         11    1    3    3    0    0 -0.37420205616E+02  0.12752662683E+02  0.19890946609E+03  0.20280009342E+03  0.00000000000E+00 0.  1.
        -11    1    4    4    0    0 -0.12919094754E+02  0.11164268683E+03  0.31695641232E+03  0.33629207520E+03  0.00000000000E+00 0. -1.
         11    1    4    4    0    0 -0.24988776469E+02  0.35589798113E+01  0.11348666821E+02  0.27674853664E+02  0.00000000000E+00 0.  1.
          2    1    1    2  501    0  0.61384174984E+02 -0.77531467901E+02 -0.94421007308E+02  0.13672772972E+03  0.00000000000E+00 0. -1.
<scales pt_clust_5="13000.00000" pt_clust_6="13000.00000" pt_clust_7="13000.00000" pt_clust_8="13000.00000" pt_clust_9="98.88956"></scales>
<clustering>
<clus scale="   90.770">  5  6 -1 -1</clus>
<clus scale="   98.890">  2  9  1 -1</clus>
<clus scale="   99.896">  7  8 -1 -1</clus>
<clus scale="  110.108">  1  5  2 -1</clus>
<clus scale="   98.890">  2  5  1 -1</clus>
</clustering>
</event>
<event>
 9    1  0.1399746E-005  0.9325390E+02  0.7546771E-02  0.1295387E+00
          1   -1    0    0  502    0 -0.00000000000E+00  0.00000000000E+00  0.25047569313E+03  0.25047569313E+03  0.00000000000E+00 0. -1.
         21   -1    0    0  501  502  0.00000000000E+00 -0.00000000000E+00 -0.59871167008E+02  0.59871167008E+02  0.00000000000E+00 0. -1.
         23    2    1    2    0    0  0.24038796210E+02  0.19061041369E+02  0.12344476532E+03  0.15646025971E+03  0.91104422306E+02 0.  0.
         23    2    1    2    0    0 -0.56368622564E+01  0.56592578056E+01  0.78719184063E+02  0.12097239938E+03  0.91508524502E+02 0.  0.
        -13    1    4    4    0    0  0.25206440043E+02 -0.33224368444E+02  0.42393593757E+02  0.59467975161E+02  0.00000000000E+00 0. -1.
         13    1    4    4    0    0 -0.30843302300E+02  0.38883626249E+02  0.36325590307E+02  0.61504424216E+02  0.00000000000E+00 0.  1.
        -13    1    3    3    0    0  0.56785444362E+02  0.21036829978E+02  0.96871543673E+02  0.11424198388E+03  0.00000000000E+00 0. -1.
         13    1    3    3    0    0 -0.32746648152E+02 -0.19757886087E+01  0.26573221643E+02  0.42218275833E+02  0.00000000000E+00 0.  1.
          1    1    1    2  501    0 -0.18401933954E+02 -0.24720299175E+02 -0.11559423259E+02  0.32914201048E+02  0.00000000000E+00 0. -1.
<scales pt_clust_5="13000.00000" pt_clust_6="13000.00000" pt_clust_7="13000.00000" pt_clust_8="13000.00000" pt_clust_9="30.81760"></scales>
<clustering>
<clus scale="   30.818">  2  9  1 -1</clus>
<clus scale="   91.104">  7  8 -1 -1</clus>
<clus scale="   91.509">  5  6 -1 -1</clus>
<clus scale="   92.857">  1  7  2 -1</clus>
<clus scale="   30.818">  2  5  1 -1</clus>
</clustering>
</event>
<event>
 9    1  0.1399746E-005  0.1721336E+03  0.7546771E-02  0.1189772E+00
         -1   -1    0    0    0  501 -0.00000000000E+00  0.00000000000E+00  0.11486970833E+03  0.11486970833E+03  0.00000000000E+00 0.  1.
         21   -1    0    0  501  502  0.00000000000E+00 -0.00000000000E+00 -0.12462916674E+04  0.12462916674E+04  0.00000000000E+00 0.  1.
         23    2    1    2    0    0  0.70393324707E+02  0.47969017868E+02 -0.25491247750E+02  0.12803626328E+03  0.92126186096E+02 0.  0.
         23    2    1    2    0    0 -0.17554221666E+03  0.48030191609E+02 -0.12100129164E+03  0.23795773987E+03  0.94130782701E+02 0.  0.
        -11    1    4    4    0    0 -0.82830326264E+02  0.45388980947E+02 -0.12592324662E+02  0.95286878324E+02  0.00000000000E+00 0. -1.
         11    1    4    4    0    0 -0.92711890397E+02  0.26412106616E+01 -0.10840896697E+03  0.14267086155E+03  0.00000000000E+00 0.  1.
        -13    1    3    3    0    0  0.26390748341E+01  0.56145546433E+02 -0.19640033461E+02  0.59540053868E+02  0.00000000000E+00 0.  1.
         13    1    3    3    0    0  0.67754249873E+02 -0.81765285655E+01 -0.58512142883E+01  0.68496209413E+02  0.00000000000E+00 0. -1.
         -1    1    1    2    0  502  0.10514889195E+03 -0.95999209476E+02 -0.98492941964E+03  0.99516737254E+03  0.00000000000E+00 0.  1.
<scales pt_clust_5="13000.00000" pt_clust_6="13000.00000" pt_clust_7="13000.00000" pt_clust_8="13000.00000" pt_clust_9="144.11586"></scales>
<clustering>
<clus scale="   92.126">  7  8 -1 -1</clus>
<clus scale="   94.131">  5  6 -1 -1</clus>
<clus scale="  125.473">  1  7  2 -1</clus>
<clus scale="  144.116">  2  9  1 -1</clus>
<clus scale="  144.116">  2  5  1 -1</clus>
</clustering>
</event>
<event>
 9    1  0.1399746E-005  0.1625553E+03  0.7546771E-02  0.1186123E+00
         21   -1    0    0  501  502  0.00000000000E+00  0.00000000000E+00  0.59645345859E+02  0.59645345859E+02  0.00000000000E+00 0. -1.
          2   -1    0    0  502    0 -0.00000000000E+00 -0.00000000000E+00 -0.12269816805E+04  0.12269816805E+04  0.00000000000E+00 0. -1.
         23    2    1    2    0    0 -0.57229217941E+02  0.84444215302E+02 -0.16894991242E+03  0.21767723502E+03  0.91832983489E+02 0.  0.
         23    2    1    2    0    0  0.18612415860E+03 -0.43499440537E+02 -0.36907715521E+03  0.42527243904E+03  0.90023869989E+02 0.  0.
        -11    1    3    3    0    0 -0.47253547964E+02  0.86031857612E+01 -0.11336518041E+03  0.12312017190E+03  0.00000000000E+00 0.  1.
         11    1    3    3    0    0 -0.99756699777E+01  0.75841029540E+02 -0.55584732015E+02  0.94557063123E+02  0.00000000000E+00 0. -1.
        -13    1    4    4    0    0  0.16216465583E+03 -0.63748311842E+02 -0.26995733258E+03  0.32130699381E+03  0.00000000000E+00 0. -1.
         13    1    4    4    0    0  0.23959502776E+02  0.20248871304E+02 -0.99119822636E+02  0.10396544523E+03  0.00000000000E+00 0.  1.
          2    1    1    2  501    0 -0.12889494066E+03 -0.40944774764E+02 -0.62930926698E+03  0.64367735227E+03  0.00000000000E+00 0. -1.
<scales pt_clust_5="13000.00000" pt_clust_6="13000.00000" pt_clust_7="13000.00000" pt_clust_8="13000.00000" pt_clust_9="135.24200"></scales>
<clustering>
<clus scale="   90.024">  7  8 -1 -1</clus>
<clus scale="   91.833">  5  6 -1 -1</clus>
<clus scale="  135.242">  1  9  2 -1</clus>
<clus scale="  161.540">  1  7  2 -1</clus>
<clus scale="  135.242">  1  5  2 -1</clus>
</clustering>
</event>
<event>
 9    1  0.1399746E-005  0.1044785E+03  0.7546771E-02  0.1271352E+00
         21   -1    0    0  501  502  0.00000000000E+00  0.00000000000E+00  0.30072747871E+03  0.30072747871E+03  0.00000000000E+00 0. -1.
         -1   -1    0    0    0  501 -0.00000000000E+00 -0.00000000000E+00 -0.28634528839E+03  0.28634528839E+03  0.00000000000E+00 0.  1.
         23    2    1    2    0    0  0.64661822720E+01  0.51735953587E+02 -0.20326194630E+03  0.22844071405E+03  0.90284664342E+02 0.  0.
         23    2    1    2    0    0  0.90635432006E+02 -0.55028538840E+02  0.22675889351E+02  0.14079683537E+03  0.89814426850E+02 0.  0.
        -11    1    3    3    0    0 -0.37171413310E+02  0.11732791019E+02 -0.12077630597E+03  0.12691055289E+03  0.00000000000E+00 0.  1.
         11    1    3    3    0    0  0.43637595582E+02  0.40003162567E+02 -0.82485640339E+02  0.10153016116E+03  0.00000000000E+00 0. -1.
        -13    1    4    4    0    0  0.29461090113E+02  0.15375428203E+02 -0.19396322281E+02  0.38478265828E+02  0.00000000000E+00 0.  1.
         13    1    4    4    0    0  0.61174341893E+02 -0.70403967043E+02  0.42072211632E+02  0.10231856954E+03  0.00000000000E+00 0. -1.
         -1    1    1    2    0  502 -0.97101614278E+02  0.32925852532E+01  0.19496824728E+03  0.21783521768E+03  0.00000000000E+00 0.  1.
<scales pt_clust_5="13000.00000" pt_clust_6="13000.00000" pt_clust_7="13000.00000" pt_clust_8="13000.00000" pt_clust_9="97.15742"></scales>
<clustering>
<clus scale="   89.814">  7  8 -1 -1</clus>
<clus scale="   90.285">  5  6 -1 -1</clus>
<clus scale="   97.157">  1  9  2 -1</clus>
<clus scale="  104.072">  1  7  2 -1</clus>
<clus scale="   97.157">  1  5  2 -1</clus>
</clustering>
</event>
<event>
 9    1  0.1399746E-005  0.1138972E+03  0.7546771E-02  0.1254865E+00
          2   -1    0    0  502    0 -0.00000000000E+00  0.00000000000E+00  0.15651558897E+03  0.15651558897E+03  0.00000000000E+00 0. -1.
         21   -1    0    0  501  502  0.00000000000E+00 -0.00000000000E+00 -0.15357873769E+03  0.15357873769E+03  0.00000000000E+00 0. -1.
         23    2    1    2    0    0  0.69095853881E+02 -0.31602074945E+02  0.61848787658E+02  0.13412925659E+03  0.91610352992E+02 0.  0.
         23    2    1    2    0    0 -0.23316411960E+02  0.41705795728E+02 -0.81261344492E+01  0.10684893480E+03  0.95224116388E+02 0.  0.
        -11    1    3    3    0    0  0.28557686346E+01  0.20861909678E+02  0.42518260540E+02  0.47446571733E+02  0.00000000000E+00 0.  1.
         11    1    3    3    0    0  0.66240085246E+02 -0.52463984623E+02  0.19330527118E+02  0.86682684860E+02  0.00000000000E+00 0. -1.
        -13    1    4    4    0    0 -0.47483550974E+02  0.24846931101E+01 -0.29612559915E+02  0.56015756870E+02  0.00000000000E+00 0.  1.
         13    1    4    4    0    0  0.24167139015E+02  0.39221102618E+02  0.21486425466E+02  0.50833177926E+02  0.00000000000E+00 0. -1.
          2    1    1    2  501    0 -0.45779441922E+02 -0.10103720784E+02 -0.50785801929E+02  0.69116135264E+02  0.00000000000E+00 0. -1.
<scales pt_clust_5="13000.00000" pt_clust_6="13000.00000" pt_clust_7="13000.00000" pt_clust_8="13000.00000" pt_clust_9="46.88115"></scales>
<clustering>
<clus scale="   46.881">  2  9  1 -1</clus>
<clus scale="   91.610">  5  6 -1 -1</clus>
<clus scale="   95.224">  7  8 -1 -1</clus>
<clus scale="  110.894">  1  5  2 -1</clus>
<clus scale="   46.881">  2  5  1 -1</clus>
</clustering>
</event>
<event>
 9    1  0.1399746E-005  0.1323644E+03  0.7546771E-02  0.1224459E+00
         21   -1    0    0  501  502  0.00000000000E+00  0.00000000000E+00  0.37883609421E+02  0.37883609421E+02  0.00000000000E+00 0. -1.
          1   -1    0    0  502    0 -0.00000000000E+00 -0.00000000000E+00 -0.10890375995E+04  0.10890375995E+04  0.00000000000E+00 0. -1.
         23    2    1    2    0    0  0.57939376947E+02  0.89028918885E+02 -0.32969949801E+03  0.35797698985E+03  0.90347365635E+02 0.  0.
         23    2    1    2    0    0  0.41950935916E+02 -0.10011390878E+03 -0.25784683079E+03  0.29456777024E+03  0.92209041654E+02 0.  0.
        -11    1    3    3    0    0  0.31824309795E+02  0.72083032148E+02 -0.31276477687E+03  0.32253768131E+03  0.00000000000E+00 0. -1.
         11    1    3    3    0    0  0.26115067151E+02  0.16945886737E+02 -0.16934721142E+02  0.35439308540E+02  0.00000000000E+00 0.  1.
        -13    1    4    4    0    0  0.60697271721E+02 -0.26286008529E+02 -0.12564550545E+03  0.14199262684E+03  0.00000000000E+00 0.  1.
         13    1    4    4    0    0 -0.18746335805E+02 -0.73827900247E+02 -0.13220132534E+03  0.15257514340E+03  0.00000000000E+00 0. -1.
          1    1    1    2  501    0 -0.99890312863E+02  0.11084989891E+02 -0.46360766128E+03  0.47437644883E+03  0.00000000000E+00 0. -1.
<scales pt_clust_5="13000.00000" pt_clust_6="13000.00000" pt_clust_7="13000.00000" pt_clust_8="13000.00000" pt_clust_9="100.50354"></scales>
<clustering>
<clus scale="   90.347">  5  6 -1 -1</clus>
<clus scale="   92.209">  7  8 -1 -1</clus>
<clus scale="  100.504">  1  9  2 -1</clus>
<clus scale="  131.074">  2  5  1 -1</clus>
<clus scale="  100.504">  1  5  2 -1</clus>
</clustering>
</event>
<event>
 9    1  0.1399746E-005  0.1199636E+03  0.7546771E-02  0.1247679E+00
         21   -1    0    0  501  502  0.00000000000E+00  0.00000000000E+00  0.37653847147E+03  0.37653847147E+03  0.00000000000E+00 0.  1.
         -1   -1    0    0    0  501 -0.00000000000E+00 -0.00000000000E+00 -0.13818029827E+03  0.13818029827E+03  0.00000000000E+00 0.  1.
         23    2    1    2    0    0  0.27035858304E+02 -0.43323188287E+02 -0.72339601217E+02  0.13726009723E+03  0.10487840631E+03 0.  0.
         23    2    1    2    0    0 -0.90782379096E+02  0.64936482248E+02  0.18788764475E+03  0.23741196123E+03  0.92760364413E+02 0.  0.
        -11    1    4    4    0    0 -0.16977465240E+02  0.68972010770E+02  0.86106316518E+02  0.11162289344E+03  0.00000000000E+00 0. -1.
         11    1    4    4    0    0 -0.73804913856E+02 -0.40355285224E+01  0.10178132823E+03  0.12578906779E+03  0.00000000000E+00 0.  1.
        -13    1    3    3    0    0  0.12950311092E+02  0.34800782174E+02 -0.20012662936E+02  0.42181887998E+02  0.00000000000E+00 0. -1.
         13    1    3    3    0    0  0.14085547212E+02 -0.78123970461E+02 -0.52326938281E+02  0.95078209232E+02  0.00000000000E+00 0.  1.
         -1    1    1    2    0  502  0.63746520792E+02 -0.21613293961E+02  0.12281012968E+03  0.14004671128E+03  0.00000000000E+00 0.  1.
<scales pt_clust_5="13000.00000" pt_clust_6="13000.00000" pt_clust_7="13000.00000" pt_clust_8="13000.00000" pt_clust_9="67.31087"></scales>
<clustering>
<clus scale="   67.311">  1  9  2 -1</clus>
<clus scale="   92.760">  5  6 -1 -1</clus>
<clus scale="  104.878">  7  8 -1 -1</clus>
<clus scale="  109.527">  1  5  2 -1</clus>
<clus scale="   67.311">  1  5  2 -1</clus>
</clustering>
</event>
<event>
 9    1  0.1399746E-005  0.4125945E+03  0.7546771E-02  0.1039550E+00
         21   -1    0    0  501  502  0.00000000000E+00  0.00000000000E+00  0.19485105779E+03  0.19485105779E+03  0.00000000000E+00 0. -1.
          1   -1    0    0  502    0 -0.00000000000E+00 -0.00000000000E+00 -0.18161968341E+04  0.18161968341E+04  0.00000000000E+00 0. -1.
         23    2    1    2    0    0 -0.44693131396E+03 -0.12801377570E+03 -0.13294699968E+04  0.14114390976E+04  0.92383589761E+02 0.  0.
         23    2    1    2    0    0  0.21448956927E+03  0.11302216630E+03 -0.49156309895E+02  0.26320627652E+03  0.89896695136E+02 0.  0.
        -11    1    4    4    0    0  0.12127576249E+03  0.13247423150E+02 -0.25383085485E+02  0.12460981429E+03  0.00000000000E+00 0.  1.
         11    1    4    4    0    0  0.93213806782E+02  0.99774743150E+02 -0.23773224410E+02  0.13859646224E+03  0.00000000000E+00 0. -1.
        -13    1    3    3    0    0 -0.40368945459E+03 -0.11994601365E+03 -0.12660720551E+04  0.13342753354E+04  0.00000000000E+00 0. -1.
         13    1    3    3    0    0 -0.43241859370E+02 -0.80677620554E+01 -0.63397941775E+02  0.77163762270E+02  0.00000000000E+00 0.  1.
          1    1    1    2  501    0  0.23244174469E+03  0.14991609404E+02 -0.24271946958E+03  0.33640251773E+03  0.00000000000E+00 0. -1.
<scales pt_clust_5="13000.00000" pt_clust_6="13000.00000" pt_clust_7="13000.00000" pt_clust_8="13000.00000" pt_clust_9="232.92469"></scales>
<clustering>
<clus scale="   89.897">  5  6 -1 -1</clus>
<clus scale="   92.384">  7  8 -1 -1</clus>
<clus scale="  232.925">  1  9  2 -1</clus>
<clus scale="  412.045">  1  5  2 -1</clus>
<clus scale="  232.925">  1  5  2 -1</clus>
</clustering>
</event>
<event>
 9    1  0.1399746E-005  0.1154031E+03  0.7546771E-02  0.1253324E+00
         21   -1    0    0  501  502  0.00000000000E+00  0.00000000000E+00  0.42035410615E+03  0.42035410615E+03  0.00000000000E+00 0.  1.
          1   -1    0    0  502    0 -0.00000000000E+00 -0.00000000000E+00 -0.43630284765E+02  0.43630284765E+02  0.00000000000E+00 0. -1.
         23    2    1    2    0    0 -0.32014185095E+02  0.68005459689E+02  0.12155994487E+03  0.17039181020E+03  0.92773370065E+02 0.  0.
         23    2    1    2    0    0  0.41661221925E+02 -0.47307480272E+02  0.13852966724E+03  0.17474389353E+03  0.85856301564E+02 0.  0.
        -11    1    4    4    0    0  0.50731766888E+02 -0.13830960380E+02  0.12818403667E+03  0.13855018908E+03  0.00000000000E+00 0.  1.
         11    1    4    4    0    0 -0.90705449624E+01 -0.33476519892E+02  0.10345630570E+02  0.36193704451E+02  0.00000000000E+00 0. -1.
        -13    1    3    3    0    0  0.26412708088E+02  0.50405932619E+02  0.72049167567E+02  0.91812154636E+02  0.00000000000E+00 0.  1.
         13    1    3    3    0    0 -0.58426893183E+02  0.17599527069E+02  0.49510777299E+02  0.78579655565E+02  0.00000000000E+00 0. -1.
          1    1    1    2  501    0 -0.96470368309E+01 -0.20697979417E+02  0.11663420927E+03  0.11884868718E+03  0.00000000000E+00 0. -1.
<scales pt_clust_5="13000.00000" pt_clust_6="13000.00000" pt_clust_7="13000.00000" pt_clust_8="13000.00000" pt_clust_9="22.83575"></scales>
<clustering>
<clus scale="   22.836">  1  9  2 -1</clus>
<clus scale="   85.856">  5  6 -1 -1</clus>
<clus scale="   92.773">  7  8 -1 -1</clus>
<clus scale="  109.919">  1  5  2 -1</clus>
<clus scale="   22.836">  1  5  2 -1</clus>
</clustering>
</event>
<event>
 9    1  0.1399746E-005  0.9602720E+02  0.7546771E-02  0.1289276E+00
         -1   -1    0    0    0  501 -0.00000000000E+00  0.00000000000E+00  0.32115355485E+03  0.32115355485E+03  0.00000000000E+00 0.  1.
         21   -1    0    0  501  502  0.00000000000E+00 -0.00000000000E+00 -0.67458523299E+02  0.67458523299E+02  0.00000000000E+00 0. -1.
         23    2    1    2    0    0  0.22004382317E+02 -0.33212401906E+02  0.17471605718E+03  0.20169993830E+03  0.92573797550E+02 0.  0.
         23    2    1    2    0    0  0.60986837359E+01  0.11301116976E+02  0.10699290532E+03  0.14158370445E+03  0.91834385652E+02 0.  0.
        -11    1    4    4    0    0 -0.11216285426E+02 -0.17386743634E+02 -0.77146675224E+01  0.22082119643E+02  0.00000000000E+00 0.  1.
         11    1    4    4    0    0  0.17314969162E+02  0.28687860610E+02  0.11470757284E+03  0.11950158480E+03  0.00000000000E+00 0. -1.
        -13    1    3    3    0    0 -0.27549259322E+02 -0.48384668790E+01  0.11780607773E+03  0.12108114800E+03  0.00000000000E+00 0.  1.
         13    1    3    3    0    0  0.49553641638E+02 -0.28373935027E+02  0.56909979448E+02  0.80618790299E+02  0.00000000000E+00 0. -1.
         -1    1    1    2    0  502 -0.28103066053E+02  0.21911284931E+02 -0.28013930946E+02  0.45328435401E+02  0.00000000000E+00 0.  1.
<scales pt_clust_5="13000.00000" pt_clust_6="13000.00000" pt_clust_7="13000.00000" pt_clust_8="13000.00000" pt_clust_9="35.63547"></scales>
<clustering>
<clus scale="   35.635">  2  9  1 -1</clus>
<clus scale="   91.834">  5  6 -1 -1</clus>
<clus scale="   92.574">  7  8 -1 -1</clus>
<clus scale="   95.315">  2  5  1 -1</clus>
<clus scale="   35.635">  2  5  1 -1</clus>
</clustering>
</event>
<event>
 9    1  0.1399746E-005  0.9985813E+02  0.7546771E-02  0.1280689E+00
         21   -1    0    0  501  502  0.00000000000E+00  0.00000000000E+00  0.43250991042E+02  0.43250991042E+02  0.00000000000E+00 0. -1.
          2   -1    0    0  502    0 -0.00000000000E+00 -0.00000000000E+00 -0.40506666889E+03  0.40506666889E+03  0.00000000000E+00 0. -1.
         23    2    1    2    0    0 -0.17318934020E+02  0.37238481092E+02 -0.19999460641E+03  0.22401634760E+03  0.92189106992E+02 0.  0.
         23    2    1    2    0    0  0.34676628173E+02 -0.17711067366E+02 -0.16962286509E+03  0.19703453003E+03  0.92382569859E+02 0.  0.
        -13    1    4    4    0    0  0.64098204913E+02 -0.26716107561E+02 -0.12012437161E+03  0.13875227901E+03  0.00000000000E+00 0. -1.
         13    1    4    4    0    0 -0.29421576740E+02  0.90050401953E+01 -0.49498493479E+02  0.58282251016E+02  0.00000000000E+00 0.  1.
        -13    1    3    3    0    0 -0.25362918097E+02  0.29411368313E+01 -0.51937347941E+01  0.26055762921E+02  0.00000000000E+00 0.  1.
         13    1    3    3    0    0  0.80439840775E+01  0.34297344261E+02 -0.19480087161E+03  0.19796058467E+03  0.00000000000E+00 0. -1.
          2    1    1    2  501    0 -0.17357694153E+02 -0.19527413727E+02  0.78017936514E+01  0.27266782307E+02  0.00000000000E+00 0. -1.
<scales pt_clust_5="13000.00000" pt_clust_6="13000.00000" pt_clust_7="13000.00000" pt_clust_8="13000.00000" pt_clust_9="26.12680"></scales>
<clustering>
<clus scale="   26.127">  1  9  2 -1</clus>
<clus scale="   92.189">  7  8 -1 -1</clus>
<clus scale="   92.383">  5  6 -1 -1</clus>
<clus scale="   99.679">  2  7  1 -1</clus>
<clus scale="   26.127">  1  5  2 -1</clus>
</clustering>
</event>
<event>
 9    1  0.1399746E-005  0.9709860E+02  0.7546771E-02  0.1286730E+00
         21   -1    0    0  501  502  0.00000000000E+00  0.00000000000E+00  0.18984894161E+03  0.18984894161E+03  0.00000000000E+00 0.  1.
         -1   -1    0    0    0  501 -0.00000000000E+00 -0.00000000000E+00 -0.23823211029E+03  0.23823211029E+03  0.00000000000E+00 0.  1.
         23    2    1    2    0    0  0.10492061610E+02 -0.29051021506E+02 -0.19161048247E+03  0.21450603863E+03  0.91346693478E+02 0.  0.
         23    2    1    2    0    0  0.64378596092E+01  0.51984288103E+02  0.50301514204E+02  0.11637541874E+03  0.90935051056E+02 0.  0.
        -11    1    4    4    0    0  0.38922575389E+02  0.32721640639E+02 -0.31283321797E+01  0.50945648522E+02  0.00000000000E+00 0.  1.
         11    1    4    4    0    0 -0.32484715780E+02  0.19262647464E+02  0.53429846384E+02  0.65429770221E+02  0.00000000000E+00 0. -1.
        -13    1    3    3    0    0 -0.17284367088E+02  0.17038570313E+02 -0.12131904465E+02  0.27133841046E+02  0.00000000000E+00 0. -1.
         13    1    3    3    0    0  0.27776428698E+02 -0.46089591819E+02 -0.17947857800E+03  0.18737219758E+03  0.00000000000E+00 0.  1.
         -1    1    1    2    0  502 -0.16929921219E+02 -0.22933266597E+02  0.92925799576E+02  0.97199594527E+02  0.00000000000E+00 0.  1.
<scales pt_clust_5="13000.00000" pt_clust_6="13000.00000" pt_clust_7="13000.00000" pt_clust_8="13000.00000" pt_clust_9="28.50538"></scales>
<clustering>
<clus scale="   28.505">  1  9  2 -1</clus>
<clus scale="   90.935">  5  6 -1 -1</clus>
<clus scale="   91.347">  7  8 -1 -1</clus>
<clus scale="   96.711">  1  5  2 -1</clus>
<clus scale="   28.505">  1  5  2 -1</clus>
</clustering>
</event>
<event>
 9    1  0.1399746E-005  0.9484541E+02  0.7546771E-02  0.1292166E+00
          1   -1    0    0  502    0 -0.00000000000E+00  0.00000000000E+00  0.37184820202E+03  0.37184820202E+03  0.00000000000E+00 0. -1.
         21   -1    0    0  501  502  0.00000000000E+00 -0.00000000000E+00 -0.46767046705E+02  0.46767046705E+02  0.00000000000E+00 0.  1.
         23    2    1    2    0    0  0.73625309113E+01 -0.27730858857E+02  0.25232027986E+03  0.26967956770E+03  0.90765291880E+02 0.  0.
         23    2    1    2    0    0  0.18267635587E+02  0.26241215064E+02  0.31238167663E+02  0.10011703976E+03  0.89583986586E+02 0.  0.
        -11    1    3    3    0    0 -0.34690525992E+02  0.30519292421E+01  0.15923174095E+03  0.16299538090E+03  0.00000000000E+00 0.  1.
         11    1    3    3    0    0  0.42053056903E+02 -0.30782788099E+02  0.93088538907E+02  0.10668418680E+03  0.00000000000E+00 0. -1.
        -13    1    4    4    0    0 -0.30057311638E+02 -0.10705305202E+02  0.21593005584E+02  0.38526658725E+02  0.00000000000E+00 0.  1.
         13    1    4    4    0    0  0.48324947224E+02  0.36946520266E+02  0.96451620785E+01  0.61590381031E+02  0.00000000000E+00 0. -1.
          1    1    1    2  501    0 -0.25630166498E+02  0.14896437931E+01  0.41522707794E+02  0.48818641274E+02  0.00000000000E+00 0. -1.
<scales pt_clust_5="13000.00000" pt_clust_6="13000.00000" pt_clust_7="13000.00000" pt_clust_8="13000.00000" pt_clust_9="25.67343"></scales>
<clustering>
<clus scale="   25.673">  2  9  1 -1</clus>
<clus scale="   89.584">  7  8 -1 -1</clus>
<clus scale="   90.765">  5  6 -1 -1</clus>
<clus scale="   93.716">  2  7  1 -1</clus>
<clus scale="   25.673">  2  5  1 -1</clus>
</clustering>
</event>
<event>
 9    1  0.1399746E-005  0.1170322E+03  0.7546771E-02  0.1248260E+00
         21   -1    0    0  501  502  0.00000000000E+00  0.00000000000E+00  0.75281146995E+02  0.75281146995E+02  0.00000000000E+00 0.  1.
         -1   -1    0    0    0  501 -0.00000000000E+00 -0.00000000000E+00 -0.33608311007E+03  0.33608311007E+03  0.00000000000E+00 0.  1.
         23    2    1    2    0    0  0.23952562052E+01  0.56803790286E+02 -0.11137518395E+03  0.15479512259E+03  0.91239742073E+02 0.  0.
         23    2    1    2    0    0  0.28016541445E+02 -0.86429073848E+02 -0.16657566272E+03  0.21078028134E+03  0.91793050899E+02 0.  0.
        -11    1    4    4    0    0  0.74208453936E+01 -0.91920103375E+02 -0.81488772039E+02  0.12306418780E+03  0.00000000000E+00 0.  1.
         11    1    4    4    0    0  0.20595696052E+02  0.54910295275E+01 -0.85086890678E+02  0.87716093543E+02  0.00000000000E+00 0. -1.
        -13    1    3    3    0    0 -0.81912828109E+01  0.75784493923E+02 -0.10889173501E+03  0.13292026402E+03  0.00000000000E+00 0. -1.
         13    1    3    3    0    0  0.10586539016E+02 -0.18980703637E+02 -0.24834489458E+01  0.21874858572E+02  0.00000000000E+00 0.  1.
         -1    1    1    2    0  502 -0.30411797650E+02  0.29625283562E+02  0.17148883596E+02  0.45788853131E+02  0.00000000000E+00 0.  1.
<scales pt_clust_5="13000.00000" pt_clust_6="13000.00000" pt_clust_7="13000.00000" pt_clust_8="13000.00000" pt_clust_9="42.45627"></scales>
<clustering>
<clus scale="   42.456">  1  9  2 -1</clus>
<clus scale="   91.240">  7  8 -1 -1</clus>
<clus scale="   91.793">  5  6 -1 -1</clus>
<clus scale="  116.599">  2  7  1 -1</clus>
<clus scale="   42.456">  1  5  2 -1</clus>
</clustering>
</event>
<event>
 9    1  0.1399746E-005  0.1846866E+03  0.7546771E-02  0.1192394E+00
         21   -1    0    0  501  502  0.00000000000E+00  0.00000000000E+00  0.14723988875E+03  0.14723988875E+03  0.00000000000E+00 0. -1.
          3   -1    0    0  502    0 -0.00000000000E+00 -0.00000000000E+00 -0.45687971148E+03  0.45687971148E+03  0.00000000000E+00 0. -1.
         23    2    1    2    0    0 -0.36588447658E+01 -0.23849419836E+02 -0.97156200223E+02  0.13650118176E+03  0.92795815681E+02 0.  0.
         23    2    1    2    0    0 -0.15931658068E+03  0.14329846397E+02  0.18030377819E+02  0.18515016197E+03  0.91478798509E+02 0.  0.
        -13    1    4    4    0    0 -0.12643190280E+03  0.18386417809E+02 -0.25663568287E+02  0.13031387164E+03  0.00000000000E+00 0. -1.
         13    1    4    4    0    0 -0.32884677886E+02 -0.40565714124E+01  0.43693946106E+02  0.54836290334E+02  0.00000000000E+00 0.  1.
        -13    1    3    3    0    0 -0.36626027927E+02 -0.34239733814E+02 -0.23992004038E+02  0.55582745085E+02  0.00000000000E+00 0. -1.
         13    1    3    3    0    0  0.32967183161E+02  0.10390313979E+02 -0.73164196184E+02  0.80918436672E+02  0.00000000000E+00 0.  1.
          3    1    1    2  501    0  0.16297542545E+03  0.95195734389E+01 -0.23051400033E+03  0.28246825649E+03  0.00000000000E+00 0. -1.
<scales pt_clust_5="13000.00000" pt_clust_6="13000.00000" pt_clust_7="13000.00000" pt_clust_8="13000.00000" pt_clust_9="160.43944"></scales>
<clustering>
<clus scale="   91.479">  5  6 -1 -1</clus>
<clus scale="   92.796">  7  8 -1 -1</clus>
<clus scale="   95.881">  2  7  1 -1</clus>
<clus scale="  160.439">  1  9  2 -1</clus>
<clus scale="  160.439">  1  5  2 -1</clus>
</clustering>
</event>
<event>
 9    1  0.1399746E-005  0.9463040E+02  0.7546771E-02  0.1292099E+00
          2   -1    0    0  502    0 -0.00000000000E+00  0.00000000000E+00  0.51148706974E+03  0.51148706974E+03  0.00000000000E+00 0. -1.
         21   -1    0    0  501  502  0.00000000000E+00 -0.00000000000E+00 -0.44462627638E+02  0.44462627638E+02  0.00000000000E+00 0.  1.
         23    2    1    2    0    0 -0.26154143361E+02  0.53152488195E+01  0.30502563223E+03  0.31927408914E+03  0.90460027609E+02 0.  0.
         23    2    1    2    0    0  0.19850546360E+02 -0.26603435975E+02  0.18250536266E+03  0.20645242252E+03  0.90623442713E+02 0.  0.
        -11    1    4    4    0    0 -0.10361862837E+02 -0.30353575211E+02  0.13620977967E+02  0.34845929035E+02  0.00000000000E+00 0.  1.
         11    1    4    4    0    0  0.30212409197E+02  0.37501392363E+01  0.16888438469E+03  0.17160649349E+03  0.00000000000E+00 0. -1.
        -13    1    3    3    0    0 -0.10098002389E+02  0.46082797554E+02  0.19973249120E+03  0.20522831657E+03  0.00000000000E+00 0. -1.
         13    1    3    3    0    0 -0.16056140971E+02 -0.40767548734E+02  0.10529314103E+03  0.11404577257E+03  0.00000000000E+00 0.  1.
          2    1    1    2  501    0  0.63035970002E+01  0.21288187155E+02 -0.20506552788E+02  0.30223185714E+02  0.00000000000E+00 0. -1.
<scales pt_clust_5="13000.00000" pt_clust_6="13000.00000" pt_clust_7="13000.00000" pt_clust_8="13000.00000" pt_clust_9="22.20185"></scales>
<clustering>
<clus scale="   22.202">  2  9  1 -1</clus>
<clus scale="   90.460">  7  8 -1 -1</clus>
<clus scale="   90.623">  5  6 -1 -1</clus>
<clus scale="   94.474">  1  7  2 -1</clus>
<clus scale="   22.202">  2  5  1 -1</clus>
</clustering>
</event>
<event>
 9    1  0.1399746E-005  0.1545997E+03  0.7546771E-02  0.1196048E+00
          1   -1    0    0  502    0 -0.00000000000E+00  0.00000000000E+00  0.15364098786E+03  0.15364098786E+03  0.00000000000E+00 0. -1.
         21   -1    0    0  501  502  0.00000000000E+00 -0.00000000000E+00 -0.25816479636E+03  0.25816479636E+03  0.00000000000E+00 0.  1.
         23    2    1    2    0    0 -0.54133022345E+02 -0.10602112307E+03  0.46809634728E+02  0.15909726398E+03  0.94604095349E+02 0.  0.
         23    2    1    2    0    0  0.27803315543E+02  0.13299080105E+03 -0.13753464524E+03  0.21257095907E+03  0.88380181498E+02 0.  0.
        -13    1    3    3    0    0 -0.44922191051E+02 -0.12390260819E+03  0.38212252562E+02  0.13722257763E+03  0.00000000000E+00 0. -1.
         13    1    3    3    0    0 -0.92108312940E+01  0.17881485114E+02  0.85973821659E+01  0.21874686355E+02  0.00000000000E+00 0.  1.
        -13    1    4    4    0    0  0.96604086584E+01  0.10913303849E+03 -0.14494762978E+03  0.18169523649E+03  0.00000000000E+00 0.  1.
         13    1    4    4    0    0  0.18142906885E+02  0.23857762567E+02  0.74129845483E+01  0.30875722580E+02  0.00000000000E+00 0. -1.
          1    1    1    2  501    0  0.26329706802E+02 -0.26969677980E+02 -0.13798797993E+02  0.40137561170E+02  0.00000000000E+00 0. -1.
<scales pt_clust_5="13000.00000" pt_clust_6="13000.00000" pt_clust_7="13000.00000" pt_clust_8="13000.00000" pt_clust_9="37.69107"></scales>
<clustering>
<clus scale="   37.691">  2  9  1 -1</clus>
<clus scale="   88.380">  7  8 -1 -1</clus>
<clus scale="   94.604">  5  6 -1 -1</clus>
<clus scale="  150.871">  2  7  1 -1</clus>
<clus scale="   37.691">  2  5  1 -1</clus>
</clustering>
</event>
<event>
 9    1  0.1399746E-005  0.1032736E+03  0.7546771E-02  0.1273764E+00
          2   -1    0    0  502    0 -0.00000000000E+00  0.00000000000E+00  0.69435767915E+02  0.69435767915E+02  0.00000000000E+00 0. -1.
         21   -1    0    0  501  502  0.00000000000E+00 -0.00000000000E+00 -0.43242982558E+03  0.43242982558E+03  0.00000000000E+00 0.  1.
         23    2    1    2    0    0  0.39376123277E+02 -0.32063155495E+02  0.11195177132E+02  0.10431339203E+03  0.90429125508E+02 0.  0.
         23    2    1    2    0    0 -0.42935705029E+02  0.99586473415E+01 -0.22425586997E+03  0.24595637768E+03  0.90891116622E+02 0.  0.
        -13    1    3    3    0    0  0.52895033601E+02 -0.13641709894E+02  0.39884252536E+02  0.67636783105E+02  0.00000000000E+00 0. -1.
         13    1    3    3    0    0 -0.13518910324E+02 -0.18421445601E+02 -0.28689075404E+02  0.36676608920E+02  0.00000000000E+00 0.  1.
        -13    1    4    4    0    0 -0.71468520474E+02  0.10642883332E+02 -0.16780283100E+03  0.18269868767E+03  0.00000000000E+00 0.  1.
         13    1    4    4    0    0  0.28532815446E+02 -0.68423599063E+00 -0.56453038968E+02  0.63257690006E+02  0.00000000000E+00 0. -1.
          2    1    1    2  501    0  0.35595817520E+01  0.22104508154E+02 -0.14993336483E+03  0.15159582379E+03  0.00000000000E+00 0. -1.
<scales pt_clust_5="13000.00000" pt_clust_6="13000.00000" pt_clust_7="13000.00000" pt_clust_8="13000.00000" pt_clust_9="22.38928"></scales>
<clustering>
<clus scale="   22.389">  2  9  1 -1</clus>
<clus scale="   90.429">  5  6 -1 -1</clus>
<clus scale="   90.891">  7  8 -1 -1</clus>
<clus scale="  102.867">  1  5  2 -1</clus>
<clus scale="   22.389">  2  5  1 -1</clus>
</clustering>
</event>
<event>
 9    1  0.1399746E-005  0.1440701E+03  0.7546771E-02  0.1208157E+00
         -3   -1    0    0    0  501 -0.00000000000E+00  0.00000000000E+00  0.68280508461E+02  0.68280508461E+02  0.00000000000E+00 0.  1.
         21   -1    0    0  501  502  0.00000000000E+00 -0.00000000000E+00 -0.42457949734E+03  0.42457949734E+03  0.00000000000E+00 0. -1.
         23    2    1    2    0    0  0.83851999242E+02 -0.79356107470E+02 -0.99959595442E+02  0.17830637562E+03  0.92047234040E+02 0.  0.
         23    2    1    2    0    0 -0.59805704160E+02  0.87967372205E+02 -0.15006248338E+03  0.20525056619E+03  0.91071758415E+02 0.  0.
        -13    1    3    3    0    0 -0.12014329307E+02 -0.32069433535E+02 -0.36771208876E+01  0.34442907745E+02  0.00000000000E+00 0.  1.
         13    1    3    3    0    0  0.95866328549E+02 -0.47286673935E+02 -0.96282474554E+02  0.14386346787E+03  0.00000000000E+00 0. -1.
        -13    1    4    4    0    0 -0.52179002797E+02  0.61576362136E+02 -0.36800925540E+02  0.88705156712E+02  0.00000000000E+00 0.  1.
         13    1    4    4    0    0 -0.76267013632E+01  0.26391010069E+02 -0.11326155784E+03  0.11654540948E+03  0.00000000000E+00 0. -1.
         -3    1    1    2    0  502 -0.24046295082E+02 -0.86112647351E+01 -0.10627691006E+03  0.10930306400E+03  0.00000000000E+00 0.  1.
<scales pt_clust_5="13000.00000" pt_clust_6="13000.00000" pt_clust_7="13000.00000" pt_clust_8="13000.00000" pt_clust_9="25.54170"></scales>
<clustering>
<clus scale="   25.542">  2  9  1 -1</clus>
<clus scale="   91.072">  7  8 -1 -1</clus>
<clus scale="   92.047">  5  6 -1 -1</clus>
<clus scale="  143.449">  2  7  1 -1</clus>
<clus scale="   25.542">  2  5  1 -1</clus>
</clustering>
</event>
<event>
 9    1  0.1399746E-005  0.9480823E+02  0.7546771E-02  0.1292563E+00
         -3   -1    0    0    0  501 -0.00000000000E+00  0.00000000000E+00  0.41384814145E+03  0.41384814145E+03  0.00000000000E+00 0.  1.
         21   -1    0    0  501  502  0.00000000000E+00 -0.00000000000E+00 -0.42720038356E+02  0.42720038356E+02  0.00000000000E+00 0. -1.
         23    2    1    2    0    0  0.11951048985E+02 -0.49663026047E+01  0.19260556114E+03  0.21289190074E+03  0.89769524270E+02 0.  0.
         23    2    1    2    0    0 -0.40186168455E+02  0.48820952197E+02  0.14737549672E+03  0.18292604705E+03  0.87999932658E+02 0.  0.
        -11    1    3    3    0    0 -0.15182170116E+02  0.37311378110E+02  0.92418785406E+02  0.10081601620E+03  0.00000000000E+00 0.  1.
         11    1    3    3    0    0  0.27133219101E+02 -0.42277680715E+02  0.10018677573E+03  0.11207588455E+03  0.00000000000E+00 0. -1.
        -11    1    4    4    0    0 -0.52433654025E+01  0.66742670282E+02  0.10963750336E+03  0.12846189731E+03  0.00000000000E+00 0.  1.
         11    1    4    4    0    0 -0.34942803052E+02 -0.17921718085E+02  0.37737993353E+02  0.54464149737E+02  0.00000000000E+00 0. -1.
         -3    1    1    2    0  502  0.28235119469E+02 -0.43854649592E+02  0.31147045235E+02  0.60750232009E+02  0.00000000000E+00 0.  1.
<scales pt_clust_5="13000.00000" pt_clust_6="13000.00000" pt_clust_7="13000.00000" pt_clust_8="13000.00000" pt_clust_9="52.15795"></scales>
<clustering>
<clus scale="   52.158">  2  9  1 -1</clus>
<clus scale="   88.000">  7  8 -1 -1</clus>
<clus scale="   89.770">  5  6 -1 -1</clus>
<clus scale="   93.134">  2  7  1 -1</clus>
<clus scale="   52.158">  2  5  1 -1</clus>
</clustering>
</event>
<event>
 9    1  0.1399746E-005  0.1253975E+03  0.7546771E-02  0.1235074E+00
         -4   -1    0    0    0  501 -0.00000000000E+00  0.00000000000E+00  0.57648274633E+03  0.57648274633E+03  0.00000000000E+00 0.  1.
         21   -1    0    0  501  502  0.00000000000E+00 -0.00000000000E+00 -0.70095989860E+02  0.70095989860E+02  0.00000000000E+00 0.  1.
         23    2    1    2    0    0  0.53362168834E+02  0.49705433821E+02  0.24770665708E+03  0.27418447791E+03  0.92197552859E+02 0.  0.
         23    2    1    2    0    0 -0.73634170913E+02 -0.56946358333E+02  0.29879678566E+03  0.32686697445E+03  0.94327201879E+02 0.  0.
        -11    1    3    3    0    0  0.51382305841E+02  0.73210237337E+02  0.15937316914E+03  0.18275581317E+03  0.00000000000E+00 0.  1.
         11    1    3    3    0    0  0.19798629928E+01 -0.23504803516E+02  0.88333487937E+02  0.91428664745E+02  0.00000000000E+00 0. -1.
        -11    1    4    4    0    0 -0.64260630366E+02 -0.35572250714E+02  0.29400520471E+03  0.30304104347E+03  0.00000000000E+00 0.  1.
         11    1    4    4    0    0 -0.93735405467E+01 -0.21374107619E+02  0.47915809513E+01  0.23825930977E+02  0.00000000000E+00 0. -1.
         -4    1    1    2    0  502  0.20272002079E+02  0.72409245122E+01 -0.40116686263E+02  0.45527283829E+02  0.00000000000E+00 0.  1.
<scales pt_clust_5="13000.00000" pt_clust_6="13000.00000" pt_clust_7="13000.00000" pt_clust_8="13000.00000" pt_clust_9="21.52638"></scales>
<clustering>
<clus scale="   21.526">  2  9  1 -1</clus>
<clus scale="   92.198">  5  6 -1 -1</clus>
<clus scale="   94.327">  7  8 -1 -1</clus>
<clus scale="  123.804">  1  5  2 -1</clus>
<clus scale="   21.526">  2  5  1 -1</clus>
</clustering>
</event>
<event>
 9    1  0.1399746E-005  0.1202752E+03  0.7546771E-02  0.1243008E+00
         21   -1    0    0  501  502  0.00000000000E+00  0.00000000000E+00  0.18067910185E+03  0.18067910185E+03  0.00000000000E+00 0.  1.
          1   -1    0    0  502    0 -0.00000000000E+00 -0.00000000000E+00 -0.15282068121E+03  0.15282068121E+03  0.00000000000E+00 0. -1.
         23    2    1    2    0    0  0.28350911289E+02  0.74037776701E+02 -0.28231067796E+02  0.12483923749E+03  0.92208868764E+02 0.  0.
         23    2    1    2    0    0 -0.49089726230E+00 -0.77692115034E+02 -0.25486734214E+02  0.12238068308E+03  0.91055764520E+02 0.  0.
        -11    1    3    3    0    0 -0.28796526344E+02  0.39386812045E+01  0.28542850749E+01  0.29204453126E+02  0.00000000000E+00 0.  1.
         11    1    3    3    0    0  0.57147437633E+02  0.70099095496E+02 -0.31085352871E+02  0.95634784365E+02  0.00000000000E+00 0. -1.
        -11    1    4    4    0    0  0.36064572821E+01  0.19757364547E+02 -0.13296093182E+02  0.24086221826E+02  0.00000000000E+00 0. -1.
         11    1    4    4    0    0 -0.40973545444E+01 -0.97449479581E+02 -0.12190641032E+02  0.98294461256E+02  0.00000000000E+00 0.  1.
          1    1    1    2  501    0 -0.27860014026E+02  0.36543383336E+01  0.81576222642E+02  0.86279862487E+02  0.00000000000E+00 0. -1.
<scales pt_clust_5="13000.00000" pt_clust_6="13000.00000" pt_clust_7="13000.00000" pt_clust_8="13000.00000" pt_clust_9="28.09866"></scales>
<clustering>
<clus scale="   28.099">  1  9  2 -1</clus>
<clus scale="   91.056">  7  8 -1 -1</clus>
<clus scale="   92.209">  5  6 -1 -1</clus>
<clus scale="  119.393">  1  7  2 -1</clus>
<clus scale="   28.099">  1  5  2 -1</clus>
</clustering>
</event>
<event>
 9    1  0.1399746E-005  0.1811177E+03  0.7546771E-02  0.1184673E+00
          2   -1    0    0  502    0 -0.00000000000E+00  0.00000000000E+00  0.39259282438E+03  0.39259282438E+03  0.00000000000E+00 0. -1.
         21   -1    0    0  501  502  0.00000000000E+00 -0.00000000000E+00 -0.17326805673E+03  0.17326805673E+03  0.00000000000E+00 0.  1.
         23    2    1    2    0    0 -0.60995423392E+02 -0.45000229934E+02 -0.44182764288E+02  0.12845999915E+03  0.93831723594E+02 0.  0.
         23    2    1    2    0    0  0.19223098591E+03  0.44947625747E+02  0.15726996898E+03  0.26855421951E+03  0.91730500212E+02 0.  0.
        -11    1    3    3    0    0 -0.34722760153E+02 -0.20166843357E+02  0.27162199566E+02  0.48478415083E+02  0.00000000000E+00 0. -1.
         11    1    3    3    0    0 -0.26272663238E+02 -0.24833386577E+02 -0.71344963854E+02  0.79981584067E+02  0.00000000000E+00 0.  1.
        -13    1    4    4    0    0  0.15097937560E+03  0.66747016271E+02  0.94070159178E+02  0.18999771285E+03  0.00000000000E+00 0.  1.
         13    1    4    4    0    0  0.41251610308E+02 -0.21799390524E+02  0.63199809806E+02  0.78556506667E+02  0.00000000000E+00 0. -1.
          2    1    1    2  501    0 -0.13123556252E+03  0.52604186668E-01  0.10623756295E+03  0.16884666245E+03  0.00000000000E+00 0. -1.
<scales pt_clust_5="13000.00000" pt_clust_6="13000.00000" pt_clust_7="13000.00000" pt_clust_8="13000.00000" pt_clust_9="156.17020"></scales>
<clustering>
<clus scale="   91.731">  7  8 -1 -1</clus>
<clus scale="   93.832">  5  6 -1 -1</clus>
<clus scale="  120.623">  1  5  2 -1</clus>
<clus scale="  156.170">  2  9  1 -1</clus>
<clus scale="  156.170">  2  5  1 -1</clus>
</clustering>
</event>
<event>
 9    1  0.1399746E-005  0.1211580E+03  0.7546771E-02  0.1242195E+00
          1   -1    0    0  502    0 -0.00000000000E+00  0.00000000000E+00  0.14225143211E+03  0.14225143211E+03  0.00000000000E+00 0. -1.
         21   -1    0    0  501  502  0.00000000000E+00 -0.00000000000E+00 -0.26779104091E+03  0.26779104091E+03  0.00000000000E+00 0. -1.
         23    2    1    2    0    0  0.31449585351E+02 -0.71598516511E+02  0.71577651204E+02  0.14002992569E+03  0.91485495852E+02 0.  0.
         23    2    1    2    0    0 -0.63476493019E+02  0.42881504690E+02 -0.81085771166E+02  0.14626402821E+03  0.94605364819E+02 0.  0.
        -13    1    3    3    0    0  0.44084323239E+02 -0.41590117394E+02  0.85348094785E+02  0.10467789979E+03  0.00000000000E+00 0. -1.
         13    1    3    3    0    0 -0.12634737887E+02 -0.30008399117E+02 -0.13770443580E+02  0.35352025903E+02  0.00000000000E+00 0.  1.
        -13    1    4    4    0    0 -0.17043288954E+02  0.61614841184E+02 -0.19383838348E+02  0.66802661186E+02  0.00000000000E+00 0.  1.
         13    1    4    4    0    0 -0.46433204066E+02 -0.18733336494E+02 -0.61701932819E+02  0.79461367026E+02  0.00000000000E+00 0. -1.
          1    1    1    2  501    0  0.32026907668E+02  0.28717011822E+02 -0.11603148883E+03  0.12374851912E+03  0.00000000000E+00 0. -1.
<scales pt_clust_5="13000.00000" pt_clust_6="13000.00000" pt_clust_7="13000.00000" pt_clust_8="13000.00000" pt_clust_9="43.01615"></scales>
<clustering>
<clus scale="   43.016">  2  9  1 -1</clus>
<clus scale="   91.485">  5  6 -1 -1</clus>
<clus scale="   94.605">  7  8 -1 -1</clus>
<clus scale="  118.738">  1  5  2 -1</clus>
<clus scale="   43.016">  2  5  1 -1</clus>
</clustering>
</event>
<event>
 9    1  0.1399746E-005  0.1051488E+03  0.7546771E-02  0.1271171E+00
         21   -1    0    0  501  502  0.00000000000E+00  0.00000000000E+00  0.26775727367E+03  0.26775727367E+03  0.00000000000E+00 0.  1.
          2   -1    0    0  502    0 -0.00000000000E+00 -0.00000000000E+00 -0.12525073836E+03  0.12525073836E+03  0.00000000000E+00 0.  1.
         23    2    1    2    0    0 -0.73035565681E+01  0.62913551011E+02 -0.36590897440E+02  0.11741963940E+03  0.91853258523E+02 0.  0.
         23    2    1    2    0    0  0.27506698565E+00 -0.36635153620E+02  0.16134557348E+01  0.96031930449E+02  0.88754257835E+02 0.  0.
        -13    1    4    4    0    0 -0.33602537031E+02  0.62801528998E+01 -0.17125660521E+02  0.38234265569E+02  0.00000000000E+00 0.  1.
         13    1    4    4    0    0  0.33877604016E+02 -0.42915306520E+02  0.18739116255E+02  0.57797664880E+02  0.00000000000E+00 0. -1.
        -13    1    3    3    0    0 -0.53778428187E+00  0.86284776206E+02 -0.21991579611E+02  0.89044827983E+02  0.00000000000E+00 0.  1.
         13    1    3    3    0    0 -0.67657722862E+01 -0.23371225194E+02 -0.14599317829E+02  0.28374811414E+02  0.00000000000E+00 0. -1.
          2    1    1    2  501    0  0.70284895824E+01 -0.26278397392E+02  0.17748397701E+03  0.17955644219E+03  0.00000000000E+00 0.  1.
<scales pt_clust_5="13000.00000" pt_clust_6="13000.00000" pt_clust_7="13000.00000" pt_clust_8="13000.00000" pt_clust_9="27.20209"></scales>
<clustering>
<clus scale="   27.202">  1  9  2 -1</clus>
<clus scale="   88.754">  5  6 -1 -1</clus>
<clus scale="   91.853">  7  8 -1 -1</clus>
<clus scale="  102.453">  1  5  2 -1</clus>
<clus scale="   27.202">  1  5  2 -1</clus>
</clustering>
</event>
<event>
 9    1  0.1399746E-005  0.1156213E+03  0.7546771E-02  0.1250974E+00
         -3   -1    0    0    0  501 -0.00000000000E+00  0.00000000000E+00  0.96392563650E+02  0.96392563650E+02  0.00000000000E+00 0.  1.
         21   -1    0    0  501  502  0.00000000000E+00 -0.00000000000E+00 -0.22981354588E+03  0.22981354588E+03  0.00000000000E+00 0.  1.
         23    2    1    2    0    0 -0.60053873775E+02  0.22589496742E+02 -0.18120476840E+02  0.11315740275E+03  0.91430263032E+02 0.  0.
         23    2    1    2    0    0  0.78156663208E+02 -0.12449960199E+02 -0.27726567503E+02  0.12305028577E+03  0.90050789950E+02 0.  0.
        -11    1    4    4    0    0  0.84908836762E+02  0.15291641950E+02 -0.35756686006E+02  0.93391035265E+02  0.00000000000E+00 0. -1.
         11    1    4    4    0    0 -0.67521735543E+01 -0.27741602149E+02  0.80301185028E+01  0.29659250507E+02  0.00000000000E+00 0.  1.
        -13    1    3    3    0    0 -0.61507730431E+02 -0.19666118284E+02 -0.26935412869E+02  0.69967660941E+02  0.00000000000E+00 0.  1.
         13    1    3    3    0    0  0.14538566566E+01  0.42255615026E+02  0.88149360291E+01  0.43189741810E+02  0.00000000000E+00 0. -1.
         -3    1    1    2    0  502 -0.18102789433E+02 -0.10139536543E+02 -0.87573937889E+02  0.89998421008E+02  0.00000000000E+00 0.  1.
<scales pt_clust_5="13000.00000" pt_clust_6="13000.00000" pt_clust_7="13000.00000" pt_clust_8="13000.00000" pt_clust_9="20.74900"></scales>
<clustering>
<clus scale="   20.749">  2  9  1 -1</clus>
<clus scale="   90.051">  5  6 -1 -1</clus>
<clus scale="   91.430">  7  8 -1 -1</clus>
<clus scale="  114.534">  2  5  1 -1</clus>
<clus scale="   20.749">  2  5  1 -1</clus>
</clustering>
</event>
<event>
 9    1  0.1399746E-005  0.1405768E+03  0.7546771E-02  0.1213758E+00
          1   -1    0    0  502    0 -0.00000000000E+00  0.00000000000E+00  0.27771452393E+03  0.27771452393E+03  0.00000000000E+00 0. -1.
         21   -1    0    0  501  502  0.00000000000E+00 -0.00000000000E+00 -0.11363059996E+03  0.11363059996E+03  0.00000000000E+00 0.  1.
         23    2    1    2    0    0 -0.90662001211E+02 -0.39050537842E+02  0.12140255343E+03  0.18364003549E+03  0.96127725898E+02 0.  0.
         23    2    1    2    0    0  0.90443825090E+02  0.60121710831E+02  0.81613846267E+02  0.16343569042E+03  0.90860879311E+02 0.  0.
        -11    1    3    3    0    0 -0.53220140794E+02  0.20447005776E+02  0.20340132477E+02  0.60532507139E+02  0.00000000000E+00 0.  1.
         11    1    3    3    0    0 -0.37441860417E+02 -0.59497543618E+02  0.10106242095E+03  0.12310752835E+03  0.00000000000E+00 0. -1.
        -11    1    4    4    0    0  0.88319838595E+02  0.81411849940E+02  0.67200415552E+02  0.13763785471E+03  0.00000000000E+00 0.  1.
         11    1    4    4    0    0  0.21239864945E+01 -0.21290139109E+02  0.14413430715E+02  0.25797835702E+02  0.00000000000E+00 0. -1.
          1    1    1    2  501    0  0.21817612120E+00 -0.21071172989E+02 -0.38932475724E+02  0.44269397985E+02  0.00000000000E+00 0. -1.
<scales pt_clust_5="13000.00000" pt_clust_6="13000.00000" pt_clust_7="13000.00000" pt_clust_8="13000.00000" pt_clust_9="21.07230"></scales>
<clustering>
<clus scale="   21.072">  2  9  1 -1</clus>
<clus scale="   90.861">  7  8 -1 -1</clus>
<clus scale="   96.128">  5  6 -1 -1</clus>
<clus scale="  137.029">  2  7  1 -1</clus>
<clus scale="   21.072">  2  5  1 -1</clus>
</clustering>
</event>
<event>
 9    1  0.1399746E-005  0.1405463E+03  0.7546771E-02  0.1212657E+00
         21   -1    0    0  501  502  0.00000000000E+00  0.00000000000E+00  0.15415491828E+03  0.15415491828E+03  0.00000000000E+00 0.  1.
          2   -1    0    0  502    0 -0.00000000000E+00 -0.00000000000E+00 -0.30633690204E+03  0.30633690204E+03  0.00000000000E+00 0. -1.
         23    2    1    2    0    0 -0.63543768359E+02 -0.13422198342E+03 -0.15424613819E+03  0.23255464546E+03  0.90754838150E+02 0.  0.
         23    2    1    2    0    0  0.58535220148E+02  0.40795958098E+02 -0.43875148796E+02  0.12370700964E+03  0.91036879107E+02 0.  0.
        -13    1    3    3    0    0 -0.10001367444E+02 -0.50581646993E+02 -0.30381264440E+01  0.51650368590E+02  0.00000000000E+00 0.  1.
         13    1    3    3    0    0 -0.53542400915E+02 -0.83640336427E+02 -0.15120801174E+03  0.18090427687E+03  0.00000000000E+00 0. -1.
        -13    1    4    4    0    0  0.23351118303E+02  0.67443123182E+02 -0.30234497680E+02  0.77511124624E+02  0.00000000000E+00 0.  1.
         13    1    4    4    0    0  0.35184101845E+02 -0.26647165084E+02 -0.13640651117E+02  0.46195885017E+02  0.00000000000E+00 0. -1.
          2    1    1    2  501    0  0.50085482108E+01  0.93426025321E+02  0.45939303224E+02  0.10423016523E+03  0.00000000000E+00 0. -1.
<scales pt_clust_5="13000.00000" pt_clust_6="13000.00000" pt_clust_7="13000.00000" pt_clust_8="13000.00000" pt_clust_9="93.56018"></scales>
<clustering>
<clus scale="   90.755">  5  6 -1 -1</clus>
<clus scale="   91.037">  7  8 -1 -1</clus>
<clus scale="   93.560">  1  9  2 -1</clus>
<clus scale="  140.364">  2  5  1 -1</clus>
<clus scale="   93.560">  1  5  2 -1</clus>
</clustering>
</event>
<event>
 9    1  0.1399746E-005  0.1443761E+03  0.7546771E-02  0.1209407E+00
         21   -1    0    0  501  502  0.00000000000E+00  0.00000000000E+00  0.27898836911E+02  0.27898836911E+02  0.00000000000E+00 0. -1.
          2   -1    0    0  502    0 -0.00000000000E+00 -0.00000000000E+00 -0.10736219707E+04  0.10736219707E+04  0.00000000000E+00 0. -1.
         23    2    1    2    0    0 -0.10379903178E+03  0.23670420250E+02 -0.62871895673E+03  0.64462399604E+03  0.94435384917E+02 0.  0.
         23    2    1    2    0    0  0.96502252087E+02  0.20179485302E+02 -0.31307235519E+03  0.34385752280E+03  0.10248804864E+03 0.  0.
        -11    1    3    3    0    0 -0.10364598195E+03 -0.13858566322E+02 -0.47780279755E+03  0.48911150342E+03  0.00000000000E+00 0. -1.
         11    1    3    3    0    0 -0.15304982377E+00  0.37528986573E+02 -0.15091615918E+03  0.15551249262E+03  0.00000000000E+00 0.  1.
        -11    1    4    4    0    0  0.11609475409E+03  0.30348842154E+02 -0.25869425332E+03  0.28516970535E+03  0.00000000000E+00 0. -1.
         11    1    4    4    0    0 -0.19592502006E+02 -0.10169356852E+02 -0.54378101868E+02  0.58687817445E+02  0.00000000000E+00 0.  1.
          2    1    1    2  501    0  0.72967796884E+01 -0.43849905552E+02 -0.10393182189E+03  0.11303928880E+03  0.00000000000E+00 0. -1.
<scales pt_clust_5="13000.00000" pt_clust_6="13000.00000" pt_clust_7="13000.00000" pt_clust_8="13000.00000" pt_clust_9="44.45287"></scales>
<clustering>
<clus scale="   44.453">  1  9  2 -1</clus>
<clus scale="   94.435">  5  6 -1 -1</clus>
<clus scale="  102.488">  7  8 -1 -1</clus>
<clus scale="  138.776">  2  5  1 -1</clus>
<clus scale="   44.453">  1  5  2 -1</clus>
</clustering>
</event>
<event>
 9    1  0.1399746E-005  0.2098132E+03  0.7546771E-02  0.1141926E+00
          4   -1    0    0  502    0 -0.00000000000E+00  0.00000000000E+00  0.18797094730E+03  0.18797094730E+03  0.00000000000E+00 0. -1.
         21   -1    0    0  501  502  0.00000000000E+00 -0.00000000000E+00 -0.38493494214E+03  0.38493494214E+03  0.00000000000E+00 0.  1.
         23    2    1    2    0    0  0.94207565826E+02  0.13640864601E+03 -0.24552600598E+02  0.19108457062E+03  0.91804677265E+02 0.  0.
         23    2    1    2    0    0 -0.71239666186E+02 -0.21433557302E+03 -0.77096268100E+02  0.25658113503E+03  0.94208366928E+02 0.  0.
        -13    1    3    3    0    0  0.10902335787E+03  0.92182740166E+02 -0.16001324333E+02  0.14366555790E+03  0.00000000000E+00 0. -1.
         13    1    3    3    0    0 -0.14815792046E+02  0.44225905841E+02 -0.85512762648E+01  0.47419012718E+02  0.00000000000E+00 0.  1.
        -13    1    4    4    0    0 -0.67854756795E+01 -0.12194642601E+03 -0.76144236419E+02  0.14392678082E+03  0.00000000000E+00 0.  1.
         13    1    4    4    0    0 -0.64454190506E+02 -0.92389147010E+02 -0.95203168096E+00  0.11265435421E+03  0.00000000000E+00 0. -1.
          4    1    1    2  501    0 -0.22967899641E+02  0.77926927009E+02 -0.95315126134E+02  0.12524018379E+03  0.00000000000E+00 0. -1.
<scales pt_clust_5="13000.00000" pt_clust_6="13000.00000" pt_clust_7="13000.00000" pt_clust_8="13000.00000" pt_clust_9="81.24119"></scales>
<clustering>
<clus scale="   81.241">  2  9  1 -1</clus>
<clus scale="   91.805">  5  6 -1 -1</clus>
<clus scale="   94.208">  7  8 -1 -1</clus>
<clus scale="  208.745">  1  5  2 -1</clus>
<clus scale="   81.241">  2  5  1 -1</clus>
</clustering>
</event>
<event>
 9    1  0.1399746E-005  0.1202642E+03  0.7546771E-02  0.1243668E+00
         -1   -1    0    0    0  501 -0.00000000000E+00  0.00000000000E+00  0.55434675697E+03  0.55434675697E+03  0.00000000000E+00 0.  1.
         21   -1    0    0  501  502  0.00000000000E+00 -0.00000000000E+00 -0.48493255291E+02  0.48493255291E+02  0.00000000000E+00 0. -1.
         23    2    1    2    0    0  0.26795294445E+01 -0.74578527490E+02  0.39840923278E+03  0.41543787237E+03  0.91047088896E+02 0.  0.
         23    2    1    2    0    0  0.21690657566E+02  0.75331672183E+02  0.10753784042E+03  0.16302013838E+03  0.94158552112E+02 0.  0.
        -11    1    4    4    0    0  0.18596260993E+02  0.96842967515E+02  0.98814929145E+02  0.13960219018E+03  0.00000000000E+00 0. -1.
         11    1    4    4    0    0  0.30943965734E+01 -0.21511295332E+02  0.87229112769E+01  0.23417948206E+02  0.00000000000E+00 0.  1.
        -13    1    3    3    0    0 -0.35343293878E+02 -0.11645072049E+02  0.20843654459E+03  0.21173225839E+03  0.00000000000E+00 0.  1.
         13    1    3    3    0    0  0.38022823322E+02 -0.62933455442E+02  0.18997268819E+03  0.20370561398E+03  0.00000000000E+00 0. -1.
         -1    1    1    2    0  502 -0.24370187010E+02 -0.75314469222E+00 -0.93571522716E-01  0.24382001507E+02  0.00000000000E+00 0.  1.
<scales pt_clust_5="13000.00000" pt_clust_6="13000.00000" pt_clust_7="13000.00000" pt_clust_8="13000.00000" pt_clust_9="24.38182"></scales>
<clustering>
<clus scale="   24.382">  2  9  1 -1</clus>
<clus scale="   91.047">  7  8 -1 -1</clus>
<clus scale="   94.159">  5  6 -1 -1</clus>
<clus scale="  117.844">  1  7  2 -1</clus>
<clus scale="   24.382">  2  5  1 -1</clus>
</clustering>
</event>
<event>
 9    1  0.1399746E-005  0.1446979E+03  0.7546771E-02  0.1218507E+00
          3   -1    0    0  502    0 -0.00000000000E+00  0.00000000000E+00  0.10151463117E+04  0.10151463117E+04  0.00000000000E+00 0. -1.
         21   -1    0    0  501  502  0.00000000000E+00 -0.00000000000E+00 -0.39706570704E+02  0.39706570704E+02  0.00000000000E+00 0. -1.
         23    2    1    2    0    0  0.57987046408E+02  0.36523383890E+02  0.46805955317E+03  0.48166048445E+03  0.90667644973E+02 0.  0.
         23    2    1    2    0    0 -0.20544509209E+02  0.90720209292E+02  0.30151107665E+03  0.32829452836E+03  0.90642896976E+02 0.  0.
        -11    1    3    3    0    0 -0.13014645411E+02  0.38099617812E+02  0.21914529937E+03  0.22281298011E+03  0.00000000000E+00 0.  1.
         11    1    3    3    0    0  0.71001691820E+02 -0.15762339224E+01  0.24891425380E+03  0.25884750433E+03  0.00000000000E+00 0. -1.
        -13    1    4    4    0    0 -0.14425427020E+02 -0.16692319553E+02  0.59002782064E+02  0.62992497712E+02  0.00000000000E+00 0.  1.
         13    1    4    4    0    0 -0.61190821895E+01  0.10741252884E+03  0.24250829459E+03  0.26530203064E+03  0.00000000000E+00 0. -1.
          3    1    1    2  501    0 -0.37442537199E+02 -0.12724359318E+03  0.20586911117E+03  0.24489786959E+03  0.00000000000E+00 0. -1.
<scales pt_clust_5="13000.00000" pt_clust_6="13000.00000" pt_clust_7="13000.00000" pt_clust_8="13000.00000" pt_clust_9="112.78898"></scales>
<clustering>
<clus scale="   90.643">  7  8 -1 -1</clus>
<clus scale="   90.668">  5  6 -1 -1</clus>
<clus scale="  113.653">  1  5  2 -1</clus>
<clus scale="  112.789">  2  9  1 -1</clus>
<clus scale="  112.789">  2  5  1 -1</clus>
</clustering>
</event>
<event>
 9    1  0.1399746E-005  0.9848348E+02  0.7546771E-02  0.1300082E+00
         21   -1    0    0  501  502  0.00000000000E+00  0.00000000000E+00  0.71040629741E+02  0.71040629741E+02  0.00000000000E+00 0. -1.
          2   -1    0    0  502    0 -0.00000000000E+00 -0.00000000000E+00 -0.33005332271E+03  0.33005332271E+03  0.00000000000E+00 0. -1.
         23    2    1    2    0    0  0.62114899585E+01  0.40796767974E+02 -0.20230219054E+03  0.22653837749E+03  0.93222858201E+02 0.  0.
         23    2    1    2    0    0 -0.25908607560E+02 -0.14329253204E+02 -0.98299126995E+02  0.12146961190E+03  0.64927381003E+02 0.  0.
        -11    1    4    4    0    0 -0.14116634988E+02 -0.32257914306E+02 -0.92889361603E+02  0.99339246614E+02  0.00000000000E+00 0.  1.
         11    1    4    4    0    0 -0.11791972572E+02  0.17928661102E+02 -0.54097653923E+01  0.22130365286E+02  0.00000000000E+00 0. -1.
        -13    1    3    3    0    0  0.62235650724E+01  0.71172195710E+02 -0.14706254853E+03  0.16349803481E+03  0.00000000000E+00 0. -1.
         13    1    3    3    0    0 -0.12075113937E-01 -0.30375427735E+02 -0.55239642012E+02  0.63040342683E+02  0.00000000000E+00 0.  1.
          2    1    1    2  501    0  0.19697117602E+02 -0.26467514770E+02  0.41588624575E+02  0.53085963060E+02  0.00000000000E+00 0. -1.
<scales pt_clust_5="13000.00000" pt_clust_6="13000.00000" pt_clust_7="13000.00000" pt_clust_8="13000.00000" pt_clust_9="32.99251"></scales>
<clustering>
<clus scale="   32.993">  1  9  2 -1</clus>
<clus scale="   64.927">  5  6 -1 -1</clus>
<clus scale="   72.278">  1  5  2 -1</clus>
<clus scale="   93.223">  7  8 -1 -1</clus>
<clus scale="   32.993">  1  5  2 -1</clus>
</clustering>
</event>
<event>
 9    1  0.1399746E-005  0.1035112E+03  0.7546771E-02  0.1273888E+00
         21   -1    0    0  501  502  0.00000000000E+00  0.00000000000E+00  0.13620122883E+03  0.13620122883E+03  0.00000000000E+00 0.  1.
         -3   -1    0    0    0  501 -0.00000000000E+00 -0.00000000000E+00 -0.21838183741E+03  0.21838183741E+03  0.00000000000E+00 0.  1.
         23    2    1    2    0    0 -0.13107701881E+02  0.41286176724E+02 -0.81181987741E+02  0.13000030971E+03  0.91832484204E+02 0.  0.
         23    2    1    2    0    0 -0.14764479068E+02 -0.54573632373E+02 -0.84341296234E+02  0.13570409490E+03  0.90032638140E+02 0.  0.
        -11    1    4    4    0    0  0.27969488052E+02  0.88305633872E+01 -0.29575996348E+02  0.41653459299E+02  0.00000000000E+00 0. -1.
         11    1    4    4    0    0 -0.42733967120E+02 -0.63404195760E+02 -0.54765299886E+02  0.94050635603E+02  0.00000000000E+00 0.  1.
        -11    1    3    3    0    0  0.29793667151E+02 -0.12826889127E+02 -0.27709526741E+02  0.42661570050E+02  0.00000000000E+00 0. -1.
         11    1    3    3    0    0 -0.42901369032E+02  0.54113065851E+02 -0.53472461001E+02  0.87338739664E+02  0.00000000000E+00 0.  1.
         -3    1    1    2    0  502  0.27872180949E+02  0.13287455649E+02  0.83342675401E+02  0.88878661620E+02  0.00000000000E+00 0.  1.
<scales pt_clust_5="13000.00000" pt_clust_6="13000.00000" pt_clust_7="13000.00000" pt_clust_8="13000.00000" pt_clust_9="30.87742"></scales>
<clustering>
<clus scale="   30.877">  1  9  2 -1</clus>
<clus scale="   90.033">  5  6 -1 -1</clus>
<clus scale="   91.832">  7  8 -1 -1</clus>
<clus scale="  101.918">  1  5  2 -1</clus>
<clus scale="   30.877">  1  5  2 -1</clus>
</clustering>
</event>
<event>
 9    1  0.1399746E-005  0.1108936E+03  0.7546771E-02  0.1259421E+00
          1   -1    0    0  502    0 -0.00000000000E+00  0.00000000000E+00  0.50445455219E+03  0.50445455219E+03  0.00000000000E+00 0. -1.
         21   -1    0    0  501  502  0.00000000000E+00 -0.00000000000E+00 -0.33760473316E+02  0.33760473316E+02  0.00000000000E+00 0.  1.
         23    2    1    2    0    0 -0.11074913600E+01  0.55222089630E+02  0.23153082165E+03  0.25511452614E+03  0.91794304586E+02 0.  0.
         23    2    1    2    0    0  0.27816132517E+02 -0.70662277081E+02  0.16641190644E+03  0.20407828766E+03  0.90488287973E+02 0.  0.
        -13    1    4    4    0    0  0.50766911328E+01 -0.87082149524E+02  0.10459180910E+03  0.13619295169E+03  0.00000000000E+00 0.  1.
         13    1    4    4    0    0  0.22739441385E+02  0.16419872443E+02  0.61820097337E+02  0.67885335974E+02  0.00000000000E+00 0. -1.
        -13    1    3    3    0    0  0.10183479543E+02  0.77106280959E+02  0.20320747575E+03  0.21758299570E+03  0.00000000000E+00 0. -1.
         13    1    3    3    0    0 -0.11290970903E+02 -0.21884191329E+02  0.28323345902E+02  0.37531530439E+02  0.00000000000E+00 0.  1.
          1    1    1    2  501    0 -0.26708641157E+02  0.15440187451E+02  0.72751350784E+02  0.79022211699E+02  0.00000000000E+00 0. -1.
<scales pt_clust_5="13000.00000" pt_clust_6="13000.00000" pt_clust_7="13000.00000" pt_clust_8="13000.00000" pt_clust_9="30.85048"></scales>
<clustering>
<clus scale="   30.850">  2  9  1 -1</clus>
<clus scale="   90.488">  5  6 -1 -1</clus>
<clus scale="   91.794">  7  8 -1 -1</clus>
<clus scale="  109.815">  2  5  1 -1</clus>
<clus scale="   30.850">  2  5  1 -1</clus>
</clustering>
</event>
<event>
 9    1  0.1399746E-005  0.2091531E+03  0.7546771E-02  0.1169658E+00
          2   -1    0    0  502    0 -0.00000000000E+00  0.00000000000E+00  0.12092334727E+03  0.12092334727E+03  0.00000000000E+00 0. -1.
         21   -1    0    0  501  502  0.00000000000E+00 -0.00000000000E+00 -0.79861289633E+03  0.79861289633E+03  0.00000000000E+00 0.  1.
         23    2    1    2    0    0 -0.13136290254E+02  0.53719132043E+02 -0.90365848585E+02  0.14232593426E+03  0.95038822081E+02 0.  0.
         23    2    1    2    0    0 -0.16595473409E+03 -0.10912598252E+03 -0.73934238749E+02  0.23066456242E+03  0.91051715340E+02 0.  0.
        -11    1    3    3    0    0  0.30574687331E+01 -0.25619351993E+02 -0.84658102874E+01  0.27154543919E+02  0.00000000000E+00 0.  1.
         11    1    3    3    0    0 -0.16193758987E+02  0.79338484036E+02 -0.81900038297E+02  0.11517139034E+03  0.00000000000E+00 0. -1.
        -13    1    4    4    0    0 -0.96321594112E+02 -0.15463856659E+02 -0.56283249917E+02  0.11262674894E+03  0.00000000000E+00 0.  1.
         13    1    4    4    0    0 -0.69633139983E+02 -0.93662125857E+02 -0.17650988832E+02  0.11803781348E+03  0.00000000000E+00 0. -1.
          2    1    1    2  501    0  0.17909102435E+03  0.55406850472E+02 -0.51338946173E+03  0.54654574693E+03  0.00000000000E+00 0. -1.
<scales pt_clust_5="13000.00000" pt_clust_6="13000.00000" pt_clust_7="13000.00000" pt_clust_8="13000.00000" pt_clust_9="188.29394"></scales>
<clustering>
<clus scale="   91.052">  7  8 -1 -1</clus>
<clus scale="   95.039">  5  6 -1 -1</clus>
<clus scale="  109.958">  1  5  2 -1</clus>
<clus scale="  188.294">  2  9  1 -1</clus>
<clus scale="  188.294">  2  5  1 -1</clus>
</clustering>
</event>
<event>
 9    1  0.1399746E-005  0.1069610E+03  0.7546771E-02  0.1267231E+00
         21   -1    0    0  501  502  0.00000000000E+00  0.00000000000E+00  0.13348698767E+03  0.13348698767E+03  0.00000000000E+00 0. -1.
          1   -1    0    0  502    0 -0.00000000000E+00 -0.00000000000E+00 -0.26077551624E+03  0.26077551624E+03  0.00000000000E+00 0. -1.
         23    2    1    2    0    0 -0.29925618063E+02 -0.54227598985E+02 -0.11883257017E+03  0.16226374303E+03  0.91499548965E+02 0.  0.
         23    2    1    2    0    0  0.33574621161E+02  0.26715485860E+02 -0.95588009379E+02  0.14055355379E+03  0.93687040590E+02 0.  0.
        -11    1    3    3    0    0  0.87670413365E+00  0.23447119555E+02 -0.45039497613E+02  0.50784765144E+02  0.00000000000E+00 0.  1.
         11    1    3    3    0    0 -0.30802322197E+02 -0.77674718540E+02 -0.73793072555E+02  0.11147897788E+03  0.00000000000E+00 0. -1.
        -13    1    4    4    0    0  0.60278478315E+02  0.40830338823E+02 -0.65883395326E+02  0.98189782035E+02  0.00000000000E+00 0.  1.
         13    1    4    4    0    0 -0.26703857155E+02 -0.14114852963E+02 -0.29704614053E+02  0.42363771753E+02  0.00000000000E+00 0. -1.
          1    1    1    2  501    0 -0.36490030975E+01  0.27512113126E+02  0.87132050974E+02  0.91445207087E+02  0.00000000000E+00 0. -1.
<scales pt_clust_5="13000.00000" pt_clust_6="13000.00000" pt_clust_7="13000.00000" pt_clust_8="13000.00000" pt_clust_9="27.75305"></scales>
<clustering>
<clus scale="   27.753">  1  9  2 -1</clus>
<clus scale="   91.500">  5  6 -1 -1</clus>
<clus scale="   93.687">  7  8 -1 -1</clus>
<clus scale="  105.050">  2  5  1 -1</clus>
<clus scale="   27.753">  1  5  2 -1</clus>
</clustering>
</event>
<event>
 9    1  0.1399746E-005  0.1213383E+03  0.7546771E-02  0.1241192E+00
         21   -1    0    0  501  502  0.00000000000E+00  0.00000000000E+00  0.19408635504E+03  0.19408635504E+03  0.00000000000E+00 0. -1.
          4   -1    0    0  502    0 -0.00000000000E+00 -0.00000000000E+00 -0.19961166441E+03  0.19961166441E+03  0.00000000000E+00 0. -1.
         23    2    1    2    0    0  0.88004041109E+02 -0.18949185217E+02 -0.13630176714E+03  0.18737121132E+03  0.91793334372E+02 0.  0.
         23    2    1    2    0    0 -0.35654655124E+02 -0.11672199523E+02  0.89698008681E+02  0.13307678154E+03  0.90863647020E+02 0.  0.
        -11    1    3    3    0    0  0.91831293342E+02  0.14519244310E+02 -0.11338480456E+03  0.14662847198E+03  0.00000000000E+00 0. -1.
         11    1    3    3    0    0 -0.38272522328E+01 -0.33468429527E+02 -0.22916962581E+02  0.40742739336E+02  0.00000000000E+00 0.  1.
        -11    1    4    4    0    0  0.19639400055E+02 -0.31698840046E+02  0.48926704829E+02  0.61517029676E+02  0.00000000000E+00 0. -1.
         11    1    4    4    0    0 -0.55294055180E+02  0.20026640523E+02  0.40771303852E+02  0.71559751863E+02  0.00000000000E+00 0.  1.
          4    1    1    2  501    0 -0.52349385985E+02  0.30621384741E+02  0.41078449090E+02  0.73250026594E+02  0.00000000000E+00 0. -1.
<scales pt_clust_5="13000.00000" pt_clust_6="13000.00000" pt_clust_7="13000.00000" pt_clust_8="13000.00000" pt_clust_9="60.64757"></scales>
<clustering>
<clus scale="   60.648">  1  9  2 -1</clus>
<clus scale="   90.864">  7  8 -1 -1</clus>
<clus scale="   91.793">  5  6 -1 -1</clus>
<clus scale="  120.637">  1  7  2 -1</clus>
<clus scale="   60.648">  1  5  2 -1</clus>
</clustering>
</event>
<event>
 9    1  0.1399746E-005  0.9693812E+02  0.7546771E-02  0.1287170E+00
         21   -1    0    0  501  502  0.00000000000E+00  0.00000000000E+00  0.70162867696E+03  0.70162867696E+03  0.00000000000E+00 0. -1.
         -1   -1    0    0    0  501 -0.00000000000E+00 -0.00000000000E+00 -0.23206200572E+03  0.23206200572E+03  0.00000000000E+00 0.  1.
         23    2    1    2    0    0 -0.28131528453E+02 -0.26379042007E+02 -0.20421886388E+03  0.22657898299E+03  0.90252171267E+02 0.  0.
         23    2    1    2    0    0 -0.58377248924E+02  0.14361181443E+02  0.22073007730E+03  0.24571442466E+03  0.89664177560E+02 0.  0.
        -13    1    4    4    0    0 -0.21494950410E+02 -0.22196960161E+02  0.16586490009E+02  0.35069211345E+02  0.00000000000E+00 0.  1.
         13    1    4    4    0    0 -0.36882298513E+02  0.36558141604E+02  0.20414358729E+03  0.21064521331E+03  0.00000000000E+00 0. -1.
        -13    1    3    3    0    0  0.16858195284E+02 -0.43479236605E+02 -0.13009136490E+03  0.13819698254E+03  0.00000000000E+00 0.  1.
         13    1    3    3    0    0 -0.44989723737E+02  0.17100194598E+02 -0.74127498985E+02  0.88382000447E+02  0.00000000000E+00 0. -1.
         -1    1    1    2    0  502  0.86508777376E+02  0.12017860564E+02  0.45305545783E+03  0.46139727503E+03  0.00000000000E+00 0.  1.
<scales pt_clust_5="13000.00000" pt_clust_6="13000.00000" pt_clust_7="13000.00000" pt_clust_8="13000.00000" pt_clust_9="87.33955"></scales>
<clustering>
<clus scale="   87.340">  1  9  2 -1</clus>
<clus scale="   89.664">  5  6 -1 -1</clus>
<clus scale="   90.252">  7  8 -1 -1</clus>
<clus scale="   96.391">  1  5  2 -1</clus>
<clus scale="   87.340">  1  5  2 -1</clus>
</clustering>
</event>
<event>
 9    1  0.1399746E-005  0.1077079E+03  0.7546771E-02  0.1267647E+00
         21   -1    0    0  501  502  0.00000000000E+00  0.00000000000E+00  0.15120795747E+03  0.15120795747E+03  0.00000000000E+00 0. -1.
          3   -1    0    0  502    0 -0.00000000000E+00 -0.00000000000E+00 -0.15273254304E+03  0.15273254304E+03  0.00000000000E+00 0. -1.
         23    2    1    2    0    0 -0.45462835894E+02  0.53524673943E+01 -0.53585661181E+02  0.11334610570E+03  0.88771607164E+02 0.  0.
         23    2    1    2    0    0  0.53470678963E+02 -0.25172519999E+02 -0.21393374095E+02  0.11409265485E+03  0.95219158599E+02 0.  0.
        -11    1    3    3    0    0 -0.37064298721E+02 -0.30976711331E+02 -0.29441458071E+00  0.48305336812E+02  0.00000000000E+00 0.  1.
         11    1    3    3    0    0 -0.83985371733E+01  0.36329178725E+02 -0.53291246600E+02  0.65040768889E+02  0.00000000000E+00 0. -1.
        -11    1    4    4    0    0  0.69886205958E+02 -0.47298294545E+02 -0.18495524087E+02  0.86390363243E+02  0.00000000000E+00 0. -1.
         11    1    4    4    0    0 -0.16415526994E+02  0.22125774546E+02 -0.28978500087E+01  0.27702291610E+02  0.00000000000E+00 0.  1.
          3    1    1    2  501    0 -0.80078430693E+01  0.19820052605E+02  0.73454449700E+02  0.76501739958E+02  0.00000000000E+00 0. -1.
<scales pt_clust_5="13000.00000" pt_clust_6="13000.00000" pt_clust_7="13000.00000" pt_clust_8="13000.00000" pt_clust_9="21.37662"></scales>
<clustering>
<clus scale="   21.377">  1  9  2 -1</clus>
<clus scale="   88.772">  5  6 -1 -1</clus>
<clus scale="   95.219">  7  8 -1 -1</clus>
<clus scale="  102.052">  2  5  1 -1</clus>
<clus scale="   21.377">  1  5  2 -1</clus>
</clustering>
</event>
<event>
 9    1  0.1399746E-005  0.9409236E+02  0.7546771E-02  0.1293592E+00
         21   -1    0    0  501  502  0.00000000000E+00  0.00000000000E+00  0.50034489620E+02  0.50034489620E+02  0.00000000000E+00 0. -1.
         -1   -1    0    0    0  501 -0.00000000000E+00 -0.00000000000E+00 -0.32498258913E+03  0.32498258913E+03  0.00000000000E+00 0.  1.
         23    2    1    2    0    0  0.91223029016E+01 -0.23029711798E+02 -0.21961011103E+03  0.23878693986E+03  0.90426864064E+02 0.  0.
         23    2    1    2    0    0  0.13233925241E+02  0.35106100898E+02 -0.34059680154E+02  0.10308792237E+03  0.89774622415E+02 0.  0.
        -11    1    4    4    0    0  0.30184333986E+02  0.58548719277E+02 -0.34066638022E+02  0.74159169179E+02  0.00000000000E+00 0. -1.
         11    1    4    4    0    0 -0.16950408745E+02 -0.23442618378E+02  0.69578682304E-02  0.28928753196E+02  0.00000000000E+00 0.  1.
        -13    1    3    3    0    0  0.33105477819E+02  0.17168685731E+02 -0.47306306645E+02  0.60238053420E+02  0.00000000000E+00 0. -1.
         13    1    3    3    0    0 -0.23983174917E+02 -0.40198397529E+02 -0.17230380438E+03  0.17854888644E+03  0.00000000000E+00 0.  1.
         -1    1    1    2    0  502 -0.22356228143E+02 -0.12076389100E+02 -0.21278308323E+02  0.33142216516E+02  0.00000000000E+00 0.  1.
<scales pt_clust_5="13000.00000" pt_clust_6="13000.00000" pt_clust_7="13000.00000" pt_clust_8="13000.00000" pt_clust_9="25.40945"></scales>
<clustering>
<clus scale="   25.409">  1  9  2 -1</clus>
<clus scale="   89.775">  5  6 -1 -1</clus>
<clus scale="   90.427">  7  8 -1 -1</clus>
<clus scale="   93.466">  1  5  2 -1</clus>
<clus scale="   25.409">  1  5  2 -1</clus>
</clustering>
</event>
<event>
 9    1  0.1399746E-005  0.1144015E+03  0.7546771E-02  0.1256154E+00
         -2   -1    0    0    0  501 -0.00000000000E+00  0.00000000000E+00  0.65579773219E+03  0.65579773219E+03  0.00000000000E+00 0.  1.
         21   -1    0    0  501  502  0.00000000000E+00 -0.00000000000E+00 -0.42717024635E+02  0.42717024635E+02  0.00000000000E+00 0.  1.
         23    2    1    2    0    0 -0.76896756170E+02 -0.20535435899E+02  0.41170784389E+03  0.42949235469E+03  0.92873671081E+02 0.  0.
         23    2    1    2    0    0  0.46398445389E+02  0.23839128618E+02  0.21431086503E+03  0.23572896096E+03  0.83173772161E+02 0.  0.
        -13    1    4    4    0    0 -0.18914578646E+02 -0.11324547181E+02  0.31555639615E+02  0.38493701377E+02  0.00000000000E+00 0.  1.
         13    1    4    4    0    0  0.65313024035E+02  0.35163675799E+02  0.18275522542E+03  0.19723525958E+03  0.00000000000E+00 0. -1.
        -13    1    3    3    0    0 -0.52707810591E+01 -0.23581553710E+02  0.20257903179E+02  0.31531784751E+02  0.00000000000E+00 0. -1.
         13    1    3    3    0    0 -0.71625975110E+02  0.30461178115E+01  0.39144994071E+03  0.39796056994E+03  0.00000000000E+00 0.  1.
         -2    1    1    2    0  502  0.30498310780E+02 -0.33036927193E+01 -0.12938001368E+02  0.33293441177E+02  0.00000000000E+00 0.  1.
<scales pt_clust_5="13000.00000" pt_clust_6="13000.00000" pt_clust_7="13000.00000" pt_clust_8="13000.00000" pt_clust_9="30.67672"></scales>
<clustering>
<clus scale="   30.677">  2  9  1 -1</clus>
<clus scale="   83.174">  5  6 -1 -1</clus>
<clus scale="   92.874">  7  8 -1 -1</clus>
<clus scale="  106.677">  2  5  1 -1</clus>
<clus scale="   30.677">  2  5  1 -1</clus>
</clustering>
</event>
<event>
 9    1  0.1399746E-005  0.9173465E+02  0.7546771E-02  0.1299313E+00
          2   -1    0    0  502    0 -0.00000000000E+00  0.00000000000E+00  0.43936740354E+03  0.43936740354E+03  0.00000000000E+00 0. -1.
         21   -1    0    0  501  502  0.00000000000E+00 -0.00000000000E+00 -0.70128723729E+02  0.70128723729E+02  0.00000000000E+00 0. -1.
         23    2    1    2    0    0  0.11233810692E+01  0.81284683098E+01  0.31637220163E+03  0.32936489408E+03  0.91227898713E+02 0.  0.
         23    2    1    2    0    0  0.21926452637E+02 -0.91897727347E+01  0.94341540078E+02  0.13266964914E+03  0.90198050810E+02 0.  0.
        -13    1    4    4    0    0  0.40339077992E+02  0.17544725097E+02  0.89663150456E+02  0.99872614573E+02  0.00000000000E+00 0. -1.
         13    1    4    4    0    0 -0.18412625355E+02 -0.26734497832E+02  0.46783896222E+01  0.32797034565E+02  0.00000000000E+00 0.  1.
        -13    1    3    3    0    0  0.33985111276E+02  0.32341541454E+02  0.21548637661E+03  0.22053421865E+03  0.00000000000E+00 0. -1.
         13    1    3    3    0    0 -0.32861730207E+02 -0.24213073144E+02  0.10088582502E+03  0.10883067542E+03  0.00000000000E+00 0.  1.
          2    1    1    2  501    0 -0.23049833706E+02  0.10613044249E+01 -0.41475061900E+02  0.47461584051E+02  0.00000000000E+00 0. -1.
<scales pt_clust_5="13000.00000" pt_clust_6="13000.00000" pt_clust_7="13000.00000" pt_clust_8="13000.00000" pt_clust_9="23.07425"></scales>
<clustering>
<clus scale="   23.074">  2  9  1 -1</clus>
<clus scale="   90.198">  5  6 -1 -1</clus>
<clus scale="   90.711">  2  5  1 -1</clus>
<clus scale="   91.228">  7  8 -1 -1</clus>
<clus scale="   23.074">  2  5  1 -1</clus>
</clustering>
</event>
<event>
 9    1  0.1399746E-005  0.9385677E+02  0.7546771E-02  0.1293881E+00
         21   -1    0    0  501  502  0.00000000000E+00  0.00000000000E+00  0.26766044966E+03  0.26766044966E+03  0.00000000000E+00 0.  1.
          1   -1    0    0  502    0 -0.00000000000E+00 -0.00000000000E+00 -0.92625475880E+02  0.92625475880E+02  0.00000000000E+00 0. -1.
         23    2    1    2    0    0 -0.13602912805E+02 -0.23814287882E+02 -0.40759608286E+02  0.10325188459E+03  0.90815452763E+02 0.  0.
         23    2    1    2    0    0  0.24226668843E+02 -0.58650259316E+01  0.10088838219E+03  0.13788220239E+03  0.90618464250E+02 0.  0.
        -13    1    3    3    0    0 -0.23390371854E+02  0.28337303877E+02 -0.67329973968E+00  0.36750042436E+02  0.00000000000E+00 0.  1.
         13    1    3    3    0    0  0.97874590497E+01 -0.52151591758E+02 -0.40086308546E+02  0.66501842158E+02  0.00000000000E+00 0. -1.
        -13    1    4    4    0    0 -0.11881306941E+02  0.34631401065E+02  0.58577761734E+02  0.69078604243E+02  0.00000000000E+00 0.  1.
         13    1    4    4    0    0  0.36107975784E+02 -0.40496426997E+02  0.42310620452E+02  0.68803598146E+02  0.00000000000E+00 0. -1.
          1    1    1    2  501    0 -0.10623756038E+02  0.29679313813E+02  0.11490619988E+03  0.11915183856E+03  0.00000000000E+00 0. -1.
<scales pt_clust_5="13000.00000" pt_clust_6="13000.00000" pt_clust_7="13000.00000" pt_clust_8="13000.00000" pt_clust_9="31.52342"></scales>
<clustering>
<clus scale="   31.523">  1  9  2 -1</clus>
<clus scale="   90.618">  7  8 -1 -1</clus>
<clus scale="   90.815">  5  6 -1 -1</clus>
<clus scale="   93.666">  1  7  2 -1</clus>
<clus scale="   31.523">  1  5  2 -1</clus>
</clustering>
</event>
<event>
 9    1  0.1399746E-005  0.2123193E+03  0.7546771E-02  0.1143124E+00
         -1   -1    0    0    0  501 -0.00000000000E+00  0.00000000000E+00  0.86185035097E+03  0.86185035097E+03  0.00000000000E+00 0.  1.
         21   -1    0    0  501  502  0.00000000000E+00 -0.00000000000E+00 -0.93804150269E+02  0.93804150269E+02  0.00000000000E+00 0.  1.
         23    2    1    2    0    0  0.18280718044E+02 -0.17773358725E+03  0.34634553570E+03  0.40842825120E+03  0.12220881142E+03 0.  0.
         23    2    1    2    0    0 -0.12160173442E+03  0.14108024631E+03  0.15420491458E+03  0.25813685847E+03  0.90359638710E+02 0.  0.
        -11    1    3    3    0    0 -0.44255885903E+02 -0.44399120413E+02  0.61794887291E+02  0.88025413523E+02  0.00000000000E+00 0. -1.
         11    1    3    3    0    0  0.62536603947E+02 -0.13333446683E+03  0.28455064841E+03  0.32040283767E+03  0.00000000000E+00 0.  1.
        -13    1    4    4    0    0 -0.94818047042E+00  0.32213724934E+02  0.65488481575E+02  0.72988795985E+02  0.00000000000E+00 0.  1.
         13    1    4    4    0    0 -0.12065355395E+03  0.10886652138E+03  0.88716433001E+02  0.18514806248E+03  0.00000000000E+00 0. -1.
         -1    1    1    2    0  502  0.10332101637E+03  0.36653340936E+02  0.26749575042E+03  0.28908939157E+03  0.00000000000E+00 0.  1.
<scales pt_clust_5="13000.00000" pt_clust_6="13000.00000" pt_clust_7="13000.00000" pt_clust_8="13000.00000" pt_clust_9="109.62989"></scales>
<clustering>
<clus scale="   90.360">  7  8 -1 -1</clus>
<clus scale="  109.630">  2  9  1 -1</clus>
<clus scale="  122.209">  5  6 -1 -1</clus>
<clus scale="  195.728">  2  7  1 -1</clus>
<clus scale="  109.630">  2  5  1 -1</clus>
</clustering>
</event>
<event>
 9    1  0.1399746E-005  0.1605245E+03  0.7546771E-02  0.1188554E+00
         21   -1    0    0  501  502  0.00000000000E+00  0.00000000000E+00  0.51455182611E+03  0.51455182611E+03  0.00000000000E+00 0.  1.
          1   -1    0    0  502    0 -0.00000000000E+00 -0.00000000000E+00 -0.10262367001E+03  0.10262367001E+03  0.00000000000E+00 0. -1.
         23    2    1    2    0    0  0.14776157343E+03 -0.30361553085E+00  0.12836861013E+02  0.17545064421E+03  0.93726030464E+02 0.  0.
         23    2    1    2    0    0 -0.80302128254E+02  0.69197398574E+01  0.25597787197E+03  0.28337081273E+03  0.90983690675E+02 0.  0.
        -13    1    4    4    0    0 -0.46958513005E+02  0.24020954613E+02  0.23412112328E+03  0.23998918428E+03  0.00000000000E+00 0.  1.
         13    1    4    4    0    0 -0.33343615249E+02 -0.17101214756E+02  0.21856748686E+02  0.43381628452E+02  0.00000000000E+00 0. -1.
        -13    1    3    3    0    0  0.77317335496E+01  0.29983946267E+02  0.85293055429E+01  0.32117997921E+02  0.00000000000E+00 0.  1.
         13    1    3    3    0    0  0.14002983989E+03 -0.30287561798E+02  0.43075554706E+01  0.14333264629E+03  0.00000000000E+00 0. -1.
          1    1    1    2  501    0 -0.67459445180E+02 -0.66161243266E+01  0.14311342313E+03  0.15835403918E+03  0.00000000000E+00 0. -1.
<scales pt_clust_5="13000.00000" pt_clust_6="13000.00000" pt_clust_7="13000.00000" pt_clust_8="13000.00000" pt_clust_9="67.78311"></scales>
<clustering>
<clus scale="   67.783">  1  9  2 -1</clus>
<clus scale="   90.984">  5  6 -1 -1</clus>
<clus scale="   93.726">  7  8 -1 -1</clus>
<clus scale="  158.939">  1  5  2 -1</clus>
<clus scale="   67.783">  1  5  2 -1</clus>
</clustering>
</event>
<event>
 9    1  0.1399746E-005  0.1142294E+03  0.7546771E-02  0.1254148E+00
         21   -1    0    0  501  502  0.00000000000E+00  0.00000000000E+00  0.17527596934E+03  0.17527596934E+03  0.00000000000E+00 0. -1.
         -2   -1    0    0    0  501 -0.00000000000E+00 -0.00000000000E+00 -0.14252899741E+03  0.14252899741E+03  0.00000000000E+00 0.  1.
         23    2    1    2    0    0  0.13779400088E+02 -0.58086704662E+02 -0.30516163651E+02  0.11213270921E+03  0.89880871740E+02 0.  0.
         23    2    1    2    0    0 -0.54920650122E+02  0.58710133398E+02 -0.80103311079E+01  0.12337463807E+03  0.93241505464E+02 0.  0.
        -13    1    4    4    0    0  0.13760978614E+02 -0.16200319261E+02  0.14470226348E+01  0.21305134383E+02  0.00000000000E+00 0.  1.
         13    1    4    4    0    0 -0.68681628736E+02  0.74910452659E+02 -0.94573537427E+01  0.10206950369E+03  0.00000000000E+00 0. -1.
        -13    1    3    3    0    0  0.43607367143E+02 -0.13065502163E+01 -0.15118325804E+02  0.46172213697E+02  0.00000000000E+00 0.  1.
         13    1    3    3    0    0 -0.29827967055E+02 -0.56780154445E+02 -0.15397837848E+02  0.65960495510E+02  0.00000000000E+00 0. -1.
         -2    1    1    2    0  502  0.41141250034E+02 -0.62342873629E+00  0.71273466686E+02  0.82297619475E+02  0.00000000000E+00 0.  1.
<scales pt_clust_5="13000.00000" pt_clust_6="13000.00000" pt_clust_7="13000.00000" pt_clust_8="13000.00000" pt_clust_9="41.14597"></scales>
<clustering>
<clus scale="   41.146">  1  9  2 -1</clus>
<clus scale="   89.881">  7  8 -1 -1</clus>
<clus scale="   93.242">  5  6 -1 -1</clus>
<clus scale="  111.503">  2  7  1 -1</clus>
<clus scale="   41.146">  1  5  2 -1</clus>
</clustering>
</event>
<event>
 9    1  0.1399746E-005  0.1336194E+03  0.7546771E-02  0.1231752E+00
         21   -1    0    0  501  502  0.00000000000E+00  0.00000000000E+00  0.19897436261E+03  0.19897436261E+03  0.00000000000E+00 0. -1.
          1   -1    0    0  502    0 -0.00000000000E+00 -0.00000000000E+00 -0.12016828208E+03  0.12016828208E+03  0.00000000000E+00 0. -1.
         23    2    1    2    0    0 -0.59636059603E+01 -0.69168970377E+02 -0.14927678574E+02  0.13608336046E+03  0.11608589211E+03 0.  0.
         23    2    1    2    0    0  0.32385566535E+02  0.57120793416E+02  0.30417431993E+02  0.11340129224E+03  0.87309924713E+02 0.  0.
        -11    1    3    3    0    0  0.26305189460E+02 -0.90443229481E+02  0.12107948323E+01  0.94198762070E+02  0.00000000000E+00 0. -1.
         11    1    3    3    0    0 -0.32268795420E+02  0.21274259104E+02 -0.16138473406E+02  0.41884598389E+02  0.00000000000E+00 0.  1.
        -11    1    4    4    0    0 -0.23301273163E+02  0.44654215604E+02  0.24557831877E+02  0.56036018852E+02  0.00000000000E+00 0.  1.
         11    1    4    4    0    0  0.55686839698E+02  0.12466577812E+02  0.58596001155E+01  0.57365273393E+02  0.00000000000E+00 0. -1.
          1    1    1    2  501    0 -0.26421960575E+02  0.12048176960E+02  0.63316327106E+02  0.69657991982E+02  0.00000000000E+00 0. -1.
<scales pt_clust_5="13000.00000" pt_clust_6="13000.00000" pt_clust_7="13000.00000" pt_clust_8="13000.00000" pt_clust_9="29.03926"></scales>
<clustering>
<clus scale="   29.039">  1  9  2 -1</clus>
<clus scale="   87.310">  7  8 -1 -1</clus>
<clus scale="  109.550">  1  7  2 -1</clus>
<clus scale="  116.086">  5  6 -1 -1</clus>
<clus scale="   29.039">  1  5  2 -1</clus>
</clustering>
</event>
<event>
 9    1  0.1399746E-005  0.1147995E+03  0.7546771E-02  0.1252189E+00
         21   -1    0    0  501  502  0.00000000000E+00  0.00000000000E+00  0.10075210707E+03  0.10075210707E+03  0.00000000000E+00 0. -1.
          2   -1    0    0  502    0 -0.00000000000E+00 -0.00000000000E+00 -0.26067479297E+03  0.26067479297E+03  0.00000000000E+00 0. -1.
         23    2    1    2    0    0  0.57168966344E+02 -0.39880128991E+02 -0.14994217538E+03  0.19046419290E+03  0.94526384782E+02 0.  0.
         23    2    1    2    0    0 -0.55653105046E+02  0.19094239430E+02 -0.53294945257E+02  0.12289513703E+03  0.93813674029E+02 0.  0.
        -11    1    4    4    0    0  0.26167151482E+02  0.10157889493E+02 -0.93140529847E+01  0.29574551875E+02  0.00000000000E+00 0. -1.
         11    1    4    4    0    0 -0.81820256528E+02  0.89363499364E+01 -0.43980892272E+02  0.93320585154E+02  0.00000000000E+00 0.  1.
        -11    1    3    3    0    0  0.31655294165E+02  0.23157047933E+02 -0.95869446686E+02  0.10358212841E+03  0.00000000000E+00 0.  1.
         11    1    3    3    0    0  0.25513672179E+02 -0.63037176924E+02 -0.54072728689E+02  0.86882064493E+02  0.00000000000E+00 0. -1.
          2    1    1    2  501    0 -0.15158612976E+01  0.20785889561E+02  0.43314434729E+02  0.48067570109E+02  0.00000000000E+00 0. -1.
<scales pt_clust_5="13000.00000" pt_clust_6="13000.00000" pt_clust_7="13000.00000" pt_clust_8="13000.00000" pt_clust_9="20.84109"></scales>
<clustering>
<clus scale="   20.841">  1  9  2 -1</clus>
<clus scale="   93.814">  5  6 -1 -1</clus>
<clus scale="   94.526">  7  8 -1 -1</clus>
<clus scale="  114.213">  1  5  2 -1</clus>
<clus scale="   20.841">  1  5  2 -1</clus>
</clustering>
</event>
<event>
 9    1  0.1399746E-005  0.1480420E+03  0.7546771E-02  0.1203296E+00
         21   -1    0    0  501  502  0.00000000000E+00  0.00000000000E+00  0.16097715317E+03  0.16097715317E+03  0.00000000000E+00 0. -1.
          2   -1    0    0  502    0 -0.00000000000E+00 -0.00000000000E+00 -0.17447261909E+03  0.17447261909E+03  0.00000000000E+00 0. -1.
         23    2    1    2    0    0  0.10744617176E+03  0.21717563269E+02 -0.40317942933E+02  0.14854840216E+03  0.91786485292E+02 0.  0.
         23    2    1    2    0    0 -0.12212889753E+03 -0.40492302876E+02  0.36692175300E+02  0.16110438913E+03  0.89739702831E+02 0.  0.
        -11    1    3    3    0    0  0.39803533967E+02  0.49896066321E+02 -0.39895174057E+02  0.75269938645E+02  0.00000000000E+00 0.  1.
         11    1    3    3    0    0  0.67642637795E+02 -0.28178503052E+02 -0.42276887583E+00  0.73278463518E+02  0.00000000000E+00 0. -1.
        -13    1    4    4    0    0 -0.85463778669E+02  0.18401535770E+02  0.22905183329E+02  0.90373233905E+02  0.00000000000E+00 0. -1.
         13    1    4    4    0    0 -0.36665118858E+02 -0.58893838646E+02  0.13786991970E+02  0.70731155222E+02  0.00000000000E+00 0.  1.
          2    1    1    2  501    0  0.14682725766E+02  0.18774739607E+02 -0.98696982870E+01  0.25796980976E+02  0.00000000000E+00 0. -1.
<scales pt_clust_5="13000.00000" pt_clust_6="13000.00000" pt_clust_7="13000.00000" pt_clust_8="13000.00000" pt_clust_9="23.83430"></scales>
<clustering>
<clus scale="   23.834">  1  9  2 -1</clus>
<clus scale="   89.740">  7  8 -1 -1</clus>
<clus scale="   91.786">  5  6 -1 -1</clus>
<clus scale="  146.782">  1  7  2 -1</clus>
<clus scale="   23.834">  1  5  2 -1</clus>
</clustering>
</event>
<event>
 9    1  0.1399746E-005  0.1819113E+03  0.7546771E-02  0.1195069E+00
         21   -1    0    0  501  502  0.00000000000E+00  0.00000000000E+00  0.58924546781E+03  0.58924546781E+03  0.00000000000E+00 0. -1.
          3   -1    0    0  502    0 -0.00000000000E+00 -0.00000000000E+00 -0.92399902544E+02  0.92399902544E+02  0.00000000000E+00 0. -1.
         23    2    1    2    0    0 -0.63515464398E+01  0.36078010816E+02  0.70474312408E+02  0.11797603465E+03  0.87233886964E+02 0.  0.
         23    2    1    2    0    0  0.77685500124E+02  0.10556229254E+03  0.82376664603E+02  0.18487811982E+03  0.10107210189E+03 0.  0.
        -11    1    3    3    0    0 -0.32700980962E+02 -0.15778223157E+02  0.30210897362E+02  0.47233513539E+02  0.00000000000E+00 0.  1.
         11    1    3    3    0    0  0.26349434522E+02  0.51856233972E+02  0.40263415047E+02  0.70742521107E+02  0.00000000000E+00 0. -1.
        -13    1    4    4    0    0  0.85304357813E+02  0.64627163427E+02  0.18469242625E+02  0.10860302315E+03  0.00000000000E+00 0. -1.
         13    1    4    4    0    0 -0.76188576886E+01  0.40935129115E+02  0.63907421978E+02  0.76275096670E+02  0.00000000000E+00 0.  1.
          3    1    1    2  501    0 -0.71333953684E+02 -0.14164030336E+03  0.34399458825E+03  0.37879121588E+03  0.00000000000E+00 0. -1.
<scales pt_clust_5="13000.00000" pt_clust_6="13000.00000" pt_clust_7="13000.00000" pt_clust_8="13000.00000" pt_clust_9="151.24870"></scales>
<clustering>
<clus scale="   87.234">  5  6 -1 -1</clus>
<clus scale="   94.614">  2  5  1 -1</clus>
<clus scale="  101.072">  7  8 -1 -1</clus>
<clus scale="  151.249">  1  9  2 -1</clus>
<clus scale="  151.249">  1  5  2 -1</clus>
</clustering>
</event>
<event>
 9    1  0.1399746E-005  0.1710444E+03  0.7546771E-02  0.1201270E+00
         21   -1    0    0  501  502  0.00000000000E+00  0.00000000000E+00  0.19742106182E+03  0.19742106182E+03  0.00000000000E+00 0. -1.
          3   -1    0    0  502    0 -0.00000000000E+00 -0.00000000000E+00 -0.22755308434E+03  0.22755308434E+03  0.00000000000E+00 0. -1.
         23    2    1    2    0    0 -0.20268209744E+01  0.33893200161E+02  0.24536932298E+02  0.10241669846E+03  0.93457273966E+02 0.  0.
         23    2    1    2    0    0 -0.14284988496E+03 -0.35386546213E+02 -0.32878393133E+02  0.17604356241E+03  0.90840793957E+02 0.  0.
        -11    1    3    3    0    0  0.37285546171E+02 -0.11587190324E+02  0.13385138847E+02  0.41275136279E+02  0.00000000000E+00 0.  1.
         11    1    3    3    0    0 -0.39312367146E+02  0.45480390485E+02  0.11151793451E+02  0.61141562185E+02  0.00000000000E+00 0. -1.
        -13    1    4    4    0    0 -0.58791466977E+02  0.27129005585E+02 -0.29707361627E+02  0.71238661331E+02  0.00000000000E+00 0.  1.
         13    1    4    4    0    0 -0.84058417981E+02 -0.62515551798E+02 -0.31710315060E+01  0.10480490108E+03  0.00000000000E+00 0. -1.
          3    1    1    2  501    0  0.14487670593E+03  0.14933460520E+01 -0.21790561686E+02  0.14651388529E+03  0.00000000000E+00 0. -1.
<scales pt_clust_5="13000.00000" pt_clust_6="13000.00000" pt_clust_7="13000.00000" pt_clust_8="13000.00000" pt_clust_9="144.92799"></scales>
<clustering>
<clus scale="   90.841">  7  8 -1 -1</clus>
<clus scale="   93.457">  5  6 -1 -1</clus>
<clus scale="   99.434">  2  5  1 -1</clus>
<clus scale="  144.928">  1  9  2 -1</clus>
<clus scale="  144.928">  1  5  2 -1</clus>
</clustering>
</event>
<event>
 9    1  0.1399746E-005  0.1897464E+03  0.7546771E-02  0.1161399E+00
         21   -1    0    0  501  502  0.00000000000E+00  0.00000000000E+00  0.51820913833E+02  0.51820913833E+02  0.00000000000E+00 0. -1.
         -2   -1    0    0    0  501 -0.00000000000E+00 -0.00000000000E+00 -0.10399857466E+04  0.10399857466E+04  0.00000000000E+00 0.  1.
         23    2    1    2    0    0  0.64777931909E+01  0.15168489754E+03 -0.67599883641E+03  0.69893217680E+03  0.92095010660E+02 0.  0.
         23    2    1    2    0    0  0.13621518372E+02 -0.15440223390E+03 -0.31837360532E+03  0.37166362203E+03  0.11290039762E+03 0.  0.
        -13    1    4    4    0    0  0.27278818140E+02 -0.13501019101E+03 -0.31949253492E+03  0.34791861902E+03  0.00000000000E+00 0.  1.
         13    1    4    4    0    0 -0.13657299769E+02 -0.19392042890E+02  0.11189295978E+01  0.23745003009E+02  0.00000000000E+00 0. -1.
        -13    1    3    3    0    0  0.48474531378E+02  0.63887796753E+02 -0.29705748764E+03  0.30769234916E+03  0.00000000000E+00 0.  1.
         13    1    3    3    0    0 -0.41996738187E+02  0.87797100789E+02 -0.37894134876E+03  0.39123982764E+03  0.00000000000E+00 0. -1.
         -2    1    1    2    0  502 -0.20099311563E+02  0.27173363599E+01  0.62076089389E+01  0.21210861626E+02  0.00000000000E+00 0.  1.
<scales pt_clust_5="13000.00000" pt_clust_6="13000.00000" pt_clust_7="13000.00000" pt_clust_8="13000.00000" pt_clust_9="20.28217"></scales>
<clustering>
<clus scale="   20.282">  1  9  2 -1</clus>
<clus scale="   92.095">  7  8 -1 -1</clus>
<clus scale="  112.900">  5  6 -1 -1</clus>
<clus scale="  178.154">  2  7  1 -1</clus>
<clus scale="   20.282">  1  5  2 -1</clus>
</clustering>
</event>
<event>
 9    1  0.1399746E-005  0.9931570E+02  0.7546771E-02  0.1283079E+00
          1   -1    0    0  502    0 -0.00000000000E+00  0.00000000000E+00  0.27361859577E+03  0.27361859577E+03  0.00000000000E+00 0. -1.
         21   -1    0    0  501  502  0.00000000000E+00 -0.00000000000E+00 -0.12967704847E+03  0.12967704847E+03  0.00000000000E+00 0.  1.
         23    2    1    2    0    0  0.19372501617E+02  0.41038088878E+02  0.10900788374E+03  0.14868879168E+03  0.90367137258E+02 0.  0.
         23    2    1    2    0    0 -0.81132845886E+02  0.32844366545E+02 -0.42601518601E+02  0.13097570026E+03  0.87626785727E+02 0.  0.
        -13    1    4    4    0    0 -0.55040034219E+02  0.55053298800E+02 -0.54136987562E+02  0.94821329341E+02  0.00000000000E+00 0.  1.
         13    1    4    4    0    0 -0.26092811666E+02 -0.22208932256E+02  0.11535468961E+02  0.36154370922E+02  0.00000000000E+00 0. -1.
        -13    1    3    3    0    0 -0.24218626407E+02  0.32470178623E+02  0.93049466759E+02  0.10148427282E+03  0.00000000000E+00 0.  1.
         13    1    3    3    0    0  0.43591128024E+02  0.85679102554E+01  0.15958416978E+02  0.47204518862E+02  0.00000000000E+00 0. -1.
          1    1    1    2  501    0  0.61760344268E+02 -0.73882455423E+02  0.77535182164E+02  0.12363115229E+03  0.00000000000E+00 0. -1.
<scales pt_clust_5="13000.00000" pt_clust_6="13000.00000" pt_clust_7="13000.00000" pt_clust_8="13000.00000" pt_clust_9="96.29624"></scales>
<clustering>
<clus scale="   87.627">  5  6 -1 -1</clus>
<clus scale="   90.367">  7  8 -1 -1</clus>
<clus scale="   96.296">  2  9  1 -1</clus>
<clus scale="   96.829">  2  5  1 -1</clus>
<clus scale="   96.296">  2  5  1 -1</clus>
</clustering>
</event>
<event>
 9    1  0.1399746E-005  0.9755247E+02  0.7546771E-02  0.1286411E+00
          1   -1    0    0  502    0 -0.00000000000E+00  0.00000000000E+00  0.20117165936E+03  0.20117165936E+03  0.00000000000E+00 0. -1.
         21   -1    0    0  501  502  0.00000000000E+00 -0.00000000000E+00 -0.23230689365E+03  0.23230689365E+03  0.00000000000E+00 0. -1.
         23    2    1    2    0    0  0.25524410954E+02  0.21227767672E+02  0.15750880362E+03  0.18598170969E+03  0.93156102580E+02 0.  0.
         23    2    1    2    0    0  0.16649865123E+02 -0.21665554399E+02 -0.61547243678E+02  0.11358472168E+03  0.91470276809E+02 0.  0.
        -11    1    4    4    0    0 -0.34467778317E+02  0.81927156049E+01 -0.15909877416E+02  0.38836484528E+02  0.00000000000E+00 0.  1.
         11    1    4    4    0    0  0.51117643440E+02 -0.29858270004E+02 -0.45637366262E+02  0.74748237155E+02  0.00000000000E+00 0. -1.
        -13    1    3    3    0    0  0.53660630733E+02 -0.68568395739E+01  0.11860162528E+03  0.13035653056E+03  0.00000000000E+00 0. -1.
         13    1    3    3    0    0 -0.28136219780E+02  0.28084607246E+02  0.38907178336E+02  0.55625179134E+02  0.00000000000E+00 0.  1.
          1    1    1    2  501    0 -0.42174276077E+02  0.43778672747E+00 -0.12709679423E+03  0.13391212164E+03  0.00000000000E+00 0. -1.
<scales pt_clust_5="13000.00000" pt_clust_6="13000.00000" pt_clust_7="13000.00000" pt_clust_8="13000.00000" pt_clust_9="42.17655"></scales>
<clustering>
<clus scale="   42.177">  2  9  1 -1</clus>
<clus scale="   91.470">  5  6 -1 -1</clus>
<clus scale="   93.156">  7  8 -1 -1</clus>
<clus scale="   95.944">  2  5  1 -1</clus>
<clus scale="   42.177">  2  5  1 -1</clus>
</clustering>
</event>
<event>
 9    1  0.1399746E-005  0.1111317E+03  0.7546771E-02  0.1259908E+00
         -1   -1    0    0    0  501 -0.00000000000E+00  0.00000000000E+00  0.42684666700E+03  0.42684666700E+03  0.00000000000E+00 0.  1.
         21   -1    0    0  501  502  0.00000000000E+00 -0.00000000000E+00 -0.84711806959E+02  0.84711806959E+02  0.00000000000E+00 0.  1.
         23    2    1    2    0    0 -0.45840587953E+02 -0.53401525177E+02  0.34455366953E+03  0.36387406378E+03  0.93455982724E+02 0.  0.
         23    2    1    2    0    0  0.15967586277E+02  0.98745503387E+01  0.13085465022E+02  0.92662811727E+02  0.89792520436E+02 0.  0.
        -11    1    4    4    0    0  0.31313502358E+02  0.42297980160E+02  0.19686072219E+02  0.56188931249E+02  0.00000000000E+00 0. -1.
         11    1    4    4    0    0 -0.15345916080E+02 -0.32423429821E+02 -0.66006071967E+01  0.36473880477E+02  0.00000000000E+00 0.  1.
        -11    1    3    3    0    0  0.19147296988E+02 -0.47091865969E+02  0.12925803194E+03  0.13889529021E+03  0.00000000000E+00 0. -1.
         11    1    3    3    0    0 -0.64987884942E+02 -0.63096592084E+01  0.21529563759E+03  0.22497877356E+03  0.00000000000E+00 0.  1.
         -1    1    1    2    0  502  0.29873001676E+02  0.43526974839E+02 -0.15504274517E+02  0.55021598451E+02  0.00000000000E+00 0.  1.
<scales pt_clust_5="13000.00000" pt_clust_6="13000.00000" pt_clust_7="13000.00000" pt_clust_8="13000.00000" pt_clust_9="52.79199"></scales>
<clustering>
<clus scale="   52.792">  2  9  1 -1</clus>
<clus scale="   89.793">  5  6 -1 -1</clus>
<clus scale="   93.456">  7  8 -1 -1</clus>
<clus scale="  108.069">  2  5  1 -1</clus>
<clus scale="   52.792">  2  5  1 -1</clus>
</clustering>
</event>
<event>
 9    1  0.1399746E-005  0.9476954E+02  0.7546771E-02  0.1292097E+00
          1   -1    0    0  502    0 -0.00000000000E+00  0.00000000000E+00  0.37362052361E+03  0.37362052361E+03  0.00000000000E+00 0. -1.
         21   -1    0    0  501  502  0.00000000000E+00 -0.00000000000E+00 -0.21484956361E+03  0.21484956361E+03  0.00000000000E+00 0. -1.
         23    2    1    2    0    0 -0.14009891163E+02  0.22263026463E+02  0.30232623709E+03  0.31726920407E+03  0.92556333243E+02 0.  0.
         23    2    1    2    0    0  0.42614604889E+01  0.72360854251E+02 -0.24052162093E+02  0.11846023632E+03  0.90554225819E+02 0.  0.
        -11    1    4    4    0    0  0.24331656769E+02  0.70652835612E+02  0.13416900614E+02  0.75920128578E+02  0.00000000000E+00 0. -1.
         11    1    4    4    0    0 -0.20070196280E+02  0.17080186384E+01 -0.37469062707E+02  0.42540107740E+02  0.00000000000E+00 0.  1.
        -13    1    3    3    0    0  0.28925536654E+01  0.48992487334E+02  0.25911241778E+03  0.26371931240E+03  0.00000000000E+00 0. -1.
         13    1    3    3    0    0 -0.16902444828E+02 -0.26729460870E+02  0.43213819306E+02  0.53549891677E+02  0.00000000000E+00 0.  1.
          1    1    1    2  501    0  0.97484306738E+01 -0.94623880714E+02 -0.11950311499E+03  0.15274064683E+03  0.00000000000E+00 0. -1.
<scales pt_clust_5="13000.00000" pt_clust_6="13000.00000" pt_clust_7="13000.00000" pt_clust_8="13000.00000" pt_clust_9="95.12471"></scales>
<clustering>
<clus scale="   90.554">  5  6 -1 -1</clus>
<clus scale="   92.556">  7  8 -1 -1</clus>
<clus scale="   95.125">  2  9  1 -1</clus>
<clus scale="   95.125">  2  5  1 -1</clus>
<clus scale="   94.770">  2  5  1 -1</clus>
</clustering>
</event>
<event>
 9    1  0.1399746E-005  0.1595031E+03  0.7546771E-02  0.1189414E+00
          1   -1    0    0  502    0 -0.00000000000E+00  0.00000000000E+00  0.14665874376E+04  0.14665874376E+04  0.00000000000E+00 0. -1.
         21   -1    0    0  501  502  0.00000000000E+00 -0.00000000000E+00 -0.92142079595E+02  0.92142079595E+02  0.00000000000E+00 0. -1.
         23    2    1    2    0    0  0.15797597847E+03 -0.77559181340E+02  0.11419861548E+04  0.11591309245E+04  0.92088467909E+02 0.  0.
         23    2    1    2    0    0 -0.54987194467E+02  0.40125145016E+02  0.26240476230E+03  0.28599959090E+03  0.91136644133E+02 0.  0.
        -11    1    3    3    0    0  0.14162922576E+03 -0.98088622567E+02  0.10032701675E+04  0.10179544412E+04  0.00000000000E+00 0. -1.
         11    1    3    3    0    0  0.16346752702E+02  0.20529441227E+02  0.13871598731E+03  0.14117648323E+03  0.00000000000E+00 0.  1.
        -13    1    4    4    0    0  0.14112498799E+00  0.40727093567E+02  0.19357037914E+03  0.19780851282E+03  0.00000000000E+00 0. -1.
         13    1    4    4    0    0 -0.55128319455E+02 -0.60194855135E+00  0.68834383161E+02  0.88191078081E+02  0.00000000000E+00 0.  1.
          1    1    1    2  501    0 -0.10298878400E+03  0.37434036324E+02 -0.29945559095E+02  0.11359900182E+03  0.00000000000E+00 0. -1.
<scales pt_clust_5="13000.00000" pt_clust_6="13000.00000" pt_clust_7="13000.00000" pt_clust_8="13000.00000" pt_clust_9="109.58101"></scales>
<clustering>
<clus scale="   91.137">  7  8 -1 -1</clus>
<clus scale="   92.088">  5  6 -1 -1</clus>
<clus scale="  109.581">  2  9  1 -1</clus>
<clus scale="  158.956">  2  7  1 -1</clus>
<clus scale="  109.581">  2  5  1 -1</clus>
</clustering>
</event>
<event>
 9    1  0.1399746E-005  0.1108442E+03  0.7546771E-02  0.1259156E+00
         21   -1    0    0  501  502  0.00000000000E+00  0.00000000000E+00  0.25783747680E+02  0.25783747680E+02  0.00000000000E+00 0.  1.
          1   -1    0    0  502    0 -0.00000000000E+00 -0.00000000000E+00 -0.79420183605E+03  0.79420183605E+03  0.00000000000E+00 0. -1.
         23    2    1    2    0    0  0.39904524435E+02  0.40090614898E+02 -0.54094764122E+03  0.55166433924E+03  0.92247299024E+02 0.  0.
         23    2    1    2    0    0 -0.59975725110E+02 -0.49215291962E+02 -0.19080263418E+03  0.22553524986E+03  0.91876390630E+02 0.  0.
        -11    1    4    4    0    0 -0.74645637194E+02 -0.74303352957E+01 -0.10589598799E+03  0.12977342296E+03  0.00000000000E+00 0.  1.
         11    1    4    4    0    0  0.14669912084E+02 -0.41784956666E+02 -0.84906646194E+02  0.95761826905E+02  0.00000000000E+00 0. -1.
        -13    1    3    3    0    0 -0.24266982465E+01 -0.25061877329E+02 -0.70894328098E+02  0.75232920428E+02  0.00000000000E+00 0.  1.
         13    1    3    3    0    0  0.42331222682E+02  0.65152492227E+02 -0.47005331312E+03  0.47643141882E+03  0.00000000000E+00 0. -1.
          1    1    1    2  501    0  0.20071200675E+02  0.91246770641E+01 -0.36667812974E+02  0.42785994628E+02  0.00000000000E+00 0. -1.
<scales pt_clust_5="13000.00000" pt_clust_6="13000.00000" pt_clust_7="13000.00000" pt_clust_8="13000.00000" pt_clust_9="22.04797"></scales>
<clustering>
<clus scale="   22.048">  1  9  2 -1</clus>
<clus scale="   91.876">  5  6 -1 -1</clus>
<clus scale="   92.247">  7  8 -1 -1</clus>
<clus scale="  110.536">  1  5  2 -1</clus>
<clus scale="   22.048">  1  5  2 -1</clus>
</clustering>
</event>
<event>
 9    1  0.1399746E-005  0.2140658E+03  0.7546771E-02  0.1138853E+00
         21   -1    0    0  501  502  0.00000000000E+00  0.00000000000E+00  0.12893595850E+04  0.12893595850E+04  0.00000000000E+00 0.  1.
         -1   -1    0    0    0  501 -0.00000000000E+00 -0.00000000000E+00 -0.75621039855E+02  0.75621039855E+02  0.00000000000E+00 0.  1.
         23    2    1    2    0    0 -0.19558537067E+03  0.49978219360E+02  0.24338871718E+03  0.33042333203E+03  0.95864754045E+02 0.  0.
         23    2    1    2    0    0  0.17486782293E+03  0.63397108156E+02  0.81676368914E+03  0.84253676342E+03  0.90373253701E+02 0.  0.
        -11    1    3    3    0    0 -0.12069722040E+03  0.66835887715E+02  0.10969924902E+03  0.17626338285E+03  0.00000000000E+00 0.  1.
         11    1    3    3    0    0 -0.74888150268E+02 -0.16857668355E+02  0.13368946816E+03  0.15415994917E+03  0.00000000000E+00 0. -1.
        -13    1    4    4    0    0  0.95524825659E+02  0.74019387237E+02  0.38869687165E+03  0.40704928453E+03  0.00000000000E+00 0. -1.
         13    1    4    4    0    0  0.79342997268E+02 -0.10622279081E+02  0.42806681749E+03  0.43548747889E+03  0.00000000000E+00 0.  1.
         -1    1    1    2    0  502  0.20717547745E+02 -0.11337532752E+03  0.15358613879E+03  0.19202052937E+03  0.00000000000E+00 0.  1.
<scales pt_clust_5="13000.00000" pt_clust_6="13000.00000" pt_clust_7="13000.00000" pt_clust_8="13000.00000" pt_clust_9="115.25274"></scales>
<clustering>
<clus scale="   90.373">  7  8 -1 -1</clus>
<clus scale="   95.865">  5  6 -1 -1</clus>
<clus scale="  115.253">  1  9  2 -1</clus>
<clus scale="  211.664">  1  7  2 -1</clus>
<clus scale="  115.253">  1  5  2 -1</clus>
</clustering>
</event>
<event>
 9    1  0.1399746E-005  0.1303966E+03  0.7546771E-02  0.1227637E+00
          2   -1    0    0  502    0 -0.00000000000E+00  0.00000000000E+00  0.50596017189E+03  0.50596017189E+03  0.00000000000E+00 0. -1.
         21   -1    0    0  501  502  0.00000000000E+00 -0.00000000000E+00 -0.93393412907E+02  0.93393412907E+02  0.00000000000E+00 0.  1.
         23    2    1    2    0    0  0.89615763061E+02 -0.57182052825E+02  0.38582782494E+03  0.41042991306E+03  0.91043016663E+02 0.  0.
         23    2    1    2    0    0 -0.13158728171E+02  0.49582363412E+02  0.32571824246E+02  0.11186878175E+03  0.93926235458E+02 0.  0.
        -11    1    4    4    0    0  0.40108978205E+02  0.22994285840E+02  0.58122641059E+01  0.46596670782E+02  0.00000000000E+00 0.  1.
         11    1    4    4    0    0 -0.53267706376E+02  0.26588077572E+02  0.26759560140E+02  0.65272110970E+02  0.00000000000E+00 0. -1.
        -13    1    3    3    0    0  0.10305938896E+03 -0.37046612566E+02  0.35327581381E+03  0.36986144673E+03  0.00000000000E+00 0. -1.
         13    1    3    3    0    0 -0.13443625898E+02 -0.20135440259E+02  0.32552011129E+02  0.40568466329E+02  0.00000000000E+00 0.  1.
          2    1    1    2  501    0 -0.76457034889E+02  0.75996894135E+01 -0.58328901984E+01  0.77054889989E+02  0.00000000000E+00 0. -1.
<scales pt_clust_5="13000.00000" pt_clust_6="13000.00000" pt_clust_7="13000.00000" pt_clust_8="13000.00000" pt_clust_9="76.83380"></scales>
<clustering>
<clus scale="   76.834">  2  9  1 -1</clus>
<clus scale="   91.043">  7  8 -1 -1</clus>
<clus scale="   93.926">  5  6 -1 -1</clus>
<clus scale="  128.335">  1  7  2 -1</clus>
<clus scale="   76.834">  2  5  1 -1</clus>
</clustering>
</event>
<event>
 9    1  0.1399746E-005  0.1602130E+03  0.7546771E-02  0.1188543E+00
         -1   -1    0    0    0  501 -0.00000000000E+00  0.00000000000E+00  0.15013717938E+03  0.15013717938E+03  0.00000000000E+00 0.  1.
         21   -1    0    0  501  502  0.00000000000E+00 -0.00000000000E+00 -0.29767908447E+03  0.29767908447E+03  0.00000000000E+00 0.  1.
         23    2    1    2    0    0 -0.57832860496E+02  0.91545815644E+02 -0.76450625778E+02  0.16037823526E+03  0.90284018792E+02 0.  0.
         23    2    1    2    0    0  0.12086529678E+03 -0.11373029800E+03 -0.10073496944E+03  0.21433544556E+03  0.90824823186E+02 0.  0.
        -11    1    4    4    0    0  0.27002251231E+02  0.12233075946E+02 -0.41604597009E+01  0.29934581066E+02  0.00000000000E+00 0. -1.
         11    1    4    4    0    0  0.93863045551E+02 -0.12596337394E+03 -0.96574509739E+02  0.18440086449E+03  0.00000000000E+00 0.  1.
        -11    1    3    3    0    0 -0.29115954621E+02  0.66505362764E+02 -0.93716738025E+02  0.11854758148E+03  0.00000000000E+00 0.  1.
         11    1    3    3    0    0 -0.28716905874E+02  0.25040452880E+02  0.17266112247E+02  0.41830653779E+02  0.00000000000E+00 0. -1.
         -1    1    1    2    0  502 -0.63032436287E+02  0.22184482352E+02  0.29643690119E+02  0.73102583028E+02  0.00000000000E+00 0.  1.
<scales pt_clust_5="13000.00000" pt_clust_6="13000.00000" pt_clust_7="13000.00000" pt_clust_8="13000.00000" pt_clust_9="66.82248"></scales>
<clustering>
<clus scale="   66.822">  2  9  1 -1</clus>
<clus scale="   90.284">  7  8 -1 -1</clus>
<clus scale="   90.825">  5  6 -1 -1</clus>
<clus scale="  159.907">  1  7  2 -1</clus>
<clus scale="   66.822">  2  5  1 -1</clus>
</clustering>
</event>
<event>
 9    1  0.1399746E-005  0.9622059E+02  0.7546771E-02  0.1289242E+00
         21   -1    0    0  501  502  0.00000000000E+00  0.00000000000E+00  0.69322266151E+02  0.69322266151E+02  0.00000000000E+00 0. -1.
         -1   -1    0    0    0  501 -0.00000000000E+00 -0.00000000000E+00 -0.22702664188E+03  0.22702664188E+03  0.00000000000E+00 0.  1.
         23    2    1    2    0    0 -0.13878649359E+02  0.11606857445E+02 -0.12444792994E+03  0.15541743523E+03  0.91323358776E+02 0.  0.
         23    2    1    2    0    0  0.32305795535E+02 -0.24225165847E+02 -0.50134236533E+02  0.11293787990E+03  0.92795473800E+02 0.  0.
        -11    1    3    3    0    0  0.22202671631E+02 -0.22925691759E+02 -0.15314568294E+02  0.35398897895E+02  0.00000000000E+00 0. -1.
         11    1    3    3    0    0 -0.36081320989E+02  0.34532549204E+02 -0.10913336165E+03  0.12001853733E+03  0.00000000000E+00 0.  1.
        -13    1    4    4    0    0  0.27535431641E+02  0.33386059994E+02 -0.24144600072E+02  0.49555935166E+02  0.00000000000E+00 0.  1.
         13    1    4    4    0    0  0.47703638937E+01 -0.57611225841E+02 -0.25989636461E+02  0.63381944732E+02  0.00000000000E+00 0. -1.
         -1    1    1    2    0  502 -0.18427146176E+02  0.12618308402E+02  0.16877790747E+02  0.27993592903E+02  0.00000000000E+00 0.  1.
<scales pt_clust_5="13000.00000" pt_clust_6="13000.00000" pt_clust_7="13000.00000" pt_clust_8="13000.00000" pt_clust_9="22.33341"></scales>
<clustering>
<clus scale="   22.333">  1  9  2 -1</clus>
<clus scale="   91.323">  5  6 -1 -1</clus>
<clus scale="   92.795">  7  8 -1 -1</clus>
<clus scale="   94.802">  2  5  1 -1</clus>
<clus scale="   22.333">  1  5  2 -1</clus>
</clustering>
</event>
<event>
 9    1  0.1399746E-005  0.1085017E+03  0.7546771E-02  0.1263778E+00
          1   -1    0    0  502    0 -0.00000000000E+00  0.00000000000E+00  0.22103990592E+03  0.22103990592E+03  0.00000000000E+00 0. -1.
         21   -1    0    0  501  502  0.00000000000E+00 -0.00000000000E+00 -0.10083070801E+03  0.10083070801E+03  0.00000000000E+00 0.  1.
         23    2    1    2    0    0 -0.50589493377E+02 -0.14867084785E+02  0.10967447952E+03  0.15294698548E+03  0.92649672732E+02 0.  0.
         23    2    1    2    0    0  0.60747413178E+02 -0.70563917748E+01  0.50105598230E+02  0.12255902244E+03  0.93648823454E+02 0.  0.
        -11    1    3    3    0    0 -0.27530016940E+02  0.69439473460E+01  0.11698028049E+03  0.12037651873E+03  0.00000000000E+00 0. -1.
         11    1    3    3    0    0 -0.23059476437E+02 -0.21811032131E+02 -0.73058009702E+01  0.32570466745E+02  0.00000000000E+00 0.  1.
        -13    1    4    4    0    0  0.40299986088E+02 -0.48992340823E+02  0.18060109661E+02  0.65958364890E+02  0.00000000000E+00 0.  1.
         13    1    4    4    0    0  0.20447427090E+02  0.41935949048E+02  0.32045488569E+02  0.56600657548E+02  0.00000000000E+00 0. -1.
          1    1    1    2  501    0 -0.10157919800E+02  0.21923476560E+02 -0.39570879843E+02  0.46364606012E+02  0.00000000000E+00 0. -1.
<scales pt_clust_5="13000.00000" pt_clust_6="13000.00000" pt_clust_7="13000.00000" pt_clust_8="13000.00000" pt_clust_9="24.16241"></scales>
<clustering>
<clus scale="   24.162">  2  9  1 -1</clus>
<clus scale="   92.650">  5  6 -1 -1</clus>
<clus scale="   93.649">  7  8 -1 -1</clus>
<clus scale="  107.640">  1  5  2 -1</clus>
<clus scale="   24.162">  2  5  1 -1</clus>
</clustering>
</event>
<event>
 9    1  0.1399746E-005  0.9508201E+02  0.7546771E-02  0.1291415E+00
          3   -1    0    0  502    0 -0.00000000000E+00  0.00000000000E+00  0.15737859387E+03  0.15737859387E+03  0.00000000000E+00 0. -1.
         21   -1    0    0  501  502  0.00000000000E+00 -0.00000000000E+00 -0.13775463249E+03  0.13775463249E+03  0.00000000000E+00 0. -1.
         23    2    1    2    0    0 -0.24728503226E+02 -0.34030110179E+02  0.54228106637E+02  0.11458692101E+03  0.91760163722E+02 0.  0.
         23    2    1    2    0    0 -0.45318078285E+02  0.69195086019E+01 -0.15576996005E+02  0.10306378663E+03  0.90982929666E+02 0.  0.
        -11    1    3    3    0    0 -0.58100703625E+02 -0.13772560222E+02  0.20920545496E+02  0.63269616726E+02  0.00000000000E+00 0. -1.
         11    1    3    3    0    0  0.33372200399E+02 -0.20257549957E+02  0.33307561140E+02  0.51317304283E+02  0.00000000000E+00 0.  1.
        -13    1    4    4    0    0 -0.16178088523E+02  0.22390320225E+02  0.33816709675E+02  0.43664938352E+02  0.00000000000E+00 0.  1.
         13    1    4    4    0    0 -0.29139989762E+02 -0.15470811623E+02 -0.49393705680E+02  0.59398848275E+02  0.00000000000E+00 0. -1.
          3    1    1    2  501    0  0.70046581511E+02  0.27110601577E+02 -0.19027149256E+02  0.77482518725E+02  0.00000000000E+00 0. -1.
<scales pt_clust_5="13000.00000" pt_clust_6="13000.00000" pt_clust_7="13000.00000" pt_clust_8="13000.00000" pt_clust_9="75.10997"></scales>
<clustering>
<clus scale="   75.110">  2  9  1 -1</clus>
<clus scale="   90.983">  7  8 -1 -1</clus>
<clus scale="   91.760">  5  6 -1 -1</clus>
<clus scale="   94.332">  2  7  1 -1</clus>
<clus scale="   75.110">  2  5  1 -1</clus>
</clustering>
</event>
<event>
 9    1  0.1399746E-005  0.1052535E+03  0.7546771E-02  0.1270526E+00
         -4   -1    0    0    0  501 -0.00000000000E+00  0.00000000000E+00  0.58071348483E+03  0.58071348483E+03  0.00000000000E+00 0.  1.
         21   -1    0    0  501  502  0.00000000000E+00 -0.00000000000E+00 -0.47265348644E+02  0.47265348644E+02  0.00000000000E+00 0. -1.
         23    2    1    2    0    0  0.46489296391E+02  0.10344547519E+02  0.46121675177E+03  0.47297335530E+03  0.93352227478E+02 0.  0.
         23    2    1    2    0    0 -0.46321834624E+02 -0.33150635960E+02  0.76206833704E+02  0.13185488617E+03  0.91288293201E+02 0.  0.
        -13    1    4    4    0    0 -0.16331836003E+02 -0.22554007142E+02 -0.17505671228E+02  0.32891649861E+02  0.00000000000E+00 0. -1.
         13    1    4    4    0    0 -0.29989998621E+02 -0.10596628818E+02  0.93712504932E+02  0.98963236306E+02  0.00000000000E+00 0.  1.
        -13    1    3    3    0    0  0.68534808869E+02 -0.13464161580E+02  0.35896039119E+03  0.36569231071E+03  0.00000000000E+00 0.  1.
         13    1    3    3    0    0 -0.22045512479E+02  0.23808709099E+02  0.10225636058E+03  0.10728104459E+03  0.00000000000E+00 0. -1.
         -4    1    1    2    0  502 -0.16746176677E+00  0.22806088441E+02 -0.39754492777E+01  0.23150592009E+02  0.00000000000E+00 0.  1.
<scales pt_clust_5="13000.00000" pt_clust_6="13000.00000" pt_clust_7="13000.00000" pt_clust_8="13000.00000" pt_clust_9="22.80670"></scales>
<clustering>
<clus scale="   22.807">  2  9  1 -1</clus>
<clus scale="   91.288">  5  6 -1 -1</clus>
<clus scale="   93.352">  7  8 -1 -1</clus>
<clus scale="  103.427">  2  5  1 -1</clus>
<clus scale="   22.807">  2  5  1 -1</clus>
</clustering>
</event>
<event>
 9    1  0.1399746E-005  0.1554523E+03  0.7546771E-02  0.1194208E+00
         -3   -1    0    0    0  501 -0.00000000000E+00  0.00000000000E+00  0.22965532624E+03  0.22965532624E+03  0.00000000000E+00 0.  1.
         21   -1    0    0  501  502  0.00000000000E+00 -0.00000000000E+00 -0.28118678354E+03  0.28118678354E+03  0.00000000000E+00 0.  1.
         23    2    1    2    0    0  0.13040090765E+03 -0.62631665176E+02  0.47829169232E+02  0.17765801156E+03  0.91365296719E+02 0.  0.
         23    2    1    2    0    0 -0.14326870574E+02  0.13794928175E+03 -0.75683431861E+01  0.16713666907E+03  0.92963018315E+02 0.  0.
        -13    1    3    3    0    0  0.67913578905E+02 -0.93361321403E+00  0.57924210280E+02  0.89265558699E+02  0.00000000000E+00 0.  1.
         13    1    3    3    0    0  0.62487328742E+02 -0.61698051962E+02 -0.10095041048E+02  0.88392452862E+02  0.00000000000E+00 0. -1.
        -13    1    4    4    0    0 -0.46574243512E+02  0.33647700647E+02  0.24178775077E+01  0.57508034649E+02  0.00000000000E+00 0. -1.
         13    1    4    4    0    0  0.32247372937E+02  0.10430158110E+03 -0.99862206938E+01  0.10962863442E+03  0.00000000000E+00 0.  1.
         -3    1    1    2    0  502 -0.11607403707E+03 -0.75317616571E+02 -0.91792283345E+02  0.16604742916E+03  0.00000000000E+00 0.  1.
<scales pt_clust_5="13000.00000" pt_clust_6="13000.00000" pt_clust_7="13000.00000" pt_clust_8="13000.00000" pt_clust_9="138.36880"></scales>
<clustering>
<clus scale="   91.365">  5  6 -1 -1</clus>
<clus scale="   92.963">  7  8 -1 -1</clus>
<clus scale="  138.369">  2  9  1 -1</clus>
<clus scale="  154.502">  1  5  2 -1</clus>
<clus scale="  138.369">  2  5  1 -1</clus>
</clustering>
</event>
<event>
 9    1  0.1399746E-005  0.2254250E+03  0.7546771E-02  0.1130369E+00
          2   -1    0    0  502    0 -0.00000000000E+00  0.00000000000E+00  0.76455850870E+03  0.76455850870E+03  0.00000000000E+00 0. -1.
         21   -1    0    0  501  502  0.00000000000E+00 -0.00000000000E+00 -0.96576157477E+02  0.96576157477E+02  0.00000000000E+00 0. -1.
         23    2    1    2    0    0  0.16475873222E+03 -0.14400169709E+03  0.45777009886E+03  0.51545228323E+03  0.90860686040E+02 0.  0.
         23    2    1    2    0    0 -0.16517468188E+03  0.77927103904E+02  0.17446960211E+03  0.27055873870E+03  0.96990102425E+02 0.  0.
        -11    1    3    3    0    0 -0.76466665921E+01 -0.26811042289E+02  0.43107523787E+02  0.51337725949E+02  0.00000000000E+00 0.  1.
         11    1    3    3    0    0  0.17240539881E+03 -0.11719065480E+03  0.41466257507E+03  0.46411455728E+03  0.00000000000E+00 0. -1.
        -11    1    4    4    0    0 -0.49490704747E+02 -0.38627154804E+01  0.53368515226E+01  0.49927271219E+02  0.00000000000E+00 0.  1.
         11    1    4    4    0    0 -0.11568397713E+03  0.81789819384E+02  0.16913275059E+03  0.22063146748E+03  0.00000000000E+00 0. -1.
          2    1    1    2  501    0  0.41594965655E+00  0.66074593182E+02  0.35742650242E+02  0.75123644244E+02  0.00000000000E+00 0. -1.
<scales pt_clust_5="13000.00000" pt_clust_6="13000.00000" pt_clust_7="13000.00000" pt_clust_8="13000.00000" pt_clust_9="66.07590"></scales>
<clustering>
<clus scale="   66.076">  2  9  1 -1</clus>
<clus scale="   90.861">  5  6 -1 -1</clus>
<clus scale="   96.990">  7  8 -1 -1</clus>
<clus scale="  222.856">  1  5  2 -1</clus>
<clus scale="   66.076">  2  5  1 -1</clus>
</clustering>
</event>
<event>
 9    1  0.1399746E-005  0.1167977E+03  0.7546771E-02  0.1248605E+00
         21   -1    0    0  501  502  0.00000000000E+00  0.00000000000E+00  0.17427874550E+03  0.17427874550E+03  0.00000000000E+00 0.  1.
         -2   -1    0    0    0  501 -0.00000000000E+00 -0.00000000000E+00 -0.52688422368E+03  0.52688422368E+03  0.00000000000E+00 0.  1.
         23    2    1    2    0    0 -0.79228154925E+02  0.99929444159E+01 -0.28787138120E+03  0.31174176895E+03  0.89084448257E+02 0.  0.
         23    2    1    2    0    0  0.67922087131E+02  0.43881425827E+02 -0.20566368920E+03  0.23812207631E+03  0.88688109230E+02 0.  0.
        -13    1    3    3    0    0  0.16097024611E+02  0.17714743229E+02 -0.53647720646E+02  0.58745248825E+02  0.00000000000E+00 0.  1.
         13    1    3    3    0    0 -0.95325179536E+02 -0.77217988130E+01 -0.23422366056E+03  0.25299652012E+03  0.00000000000E+00 0. -1.
        -13    1    4    4    0    0 -0.43964541336E+01  0.45408554277E+02 -0.10176859133E+03  0.11152628296E+03  0.00000000000E+00 0. -1.
         13    1    4    4    0    0  0.72318541265E+02 -0.15271284499E+01 -0.10389509787E+03  0.12659579335E+03  0.00000000000E+00 0.  1.
         -2    1    1    2    0  502  0.11306067793E+02 -0.53874370243E+02  0.14092959221E+03  0.15129912392E+03  0.00000000000E+00 0.  1.
<scales pt_clust_5="13000.00000" pt_clust_6="13000.00000" pt_clust_7="13000.00000" pt_clust_8="13000.00000" pt_clust_9="55.04793"></scales>
<clustering>
<clus scale="   55.048">  1  9  2 -1</clus>
<clus scale="   88.688">  7  8 -1 -1</clus>
<clus scale="   89.084">  5  6 -1 -1</clus>
<clus scale="  116.496">  1  7  2 -1</clus>
<clus scale="   55.048">  1  5  2 -1</clus>
</clustering>
</event>
<event>
 9    1  0.1399746E-005  0.1032126E+03  0.7546771E-02  0.1274539E+00
         21   -1    0    0  501  502  0.00000000000E+00  0.00000000000E+00  0.79033368264E+02  0.79033368264E+02  0.00000000000E+00 0. -1.
         -4   -1    0    0    0  501 -0.00000000000E+00 -0.00000000000E+00 -0.27485028045E+03  0.27485028045E+03  0.00000000000E+00 0.  1.
         23    2    1    2    0    0  0.10682931921E+02  0.58067769314E+02 -0.12959794920E+03  0.16885128739E+03  0.90714596130E+02 0.  0.
         23    2    1    2    0    0  0.11071344014E+02 -0.32494965285E+02 -0.97764824842E+02  0.13896330199E+03  0.92597736991E+02 0.  0.
        -11    1    4    4    0    0 -0.36759946613E+02 -0.24023427999E+02 -0.71051483964E+02  0.83526834857E+02  0.00000000000E+00 0.  1.
         11    1    4    4    0    0  0.47831290627E+02 -0.84715372864E+01 -0.26713340878E+02  0.55436467131E+02  0.00000000000E+00 0. -1.
        -13    1    3    3    0    0  0.75898231762E+01  0.82857790074E+02 -0.10179237715E+03  0.13147131564E+03  0.00000000000E+00 0.  1.
         13    1    3    3    0    0  0.30931087451E+01 -0.24790020760E+02 -0.27805572050E+02  0.37379971750E+02  0.00000000000E+00 0. -1.
         -4    1    1    2    0  502 -0.21754275936E+02 -0.25572804029E+02  0.31545861855E+02  0.46069059330E+02  0.00000000000E+00 0.  1.
<scales pt_clust_5="13000.00000" pt_clust_6="13000.00000" pt_clust_7="13000.00000" pt_clust_8="13000.00000" pt_clust_9="33.57405"></scales>
<clustering>
<clus scale="   33.574">  1  9  2 -1</clus>
<clus scale="   90.715">  7  8 -1 -1</clus>
<clus scale="   92.598">  5  6 -1 -1</clus>
<clus scale="  101.527">  2  7  1 -1</clus>
<clus scale="   33.574">  1  5  2 -1</clus>
</clustering>
</event>
<event>
 9    1  0.1399746E-005  0.1485300E+03  0.7546771E-02  0.1202435E+00
         21   -1    0    0  501  502  0.00000000000E+00  0.00000000000E+00  0.53845875233E+03  0.53845875233E+03  0.00000000000E+00 0. -1.
         -1   -1    0    0    0  501 -0.00000000000E+00 -0.00000000000E+00 -0.92717760124E+02  0.92717760124E+02  0.00000000000E+00 0.  1.
         23    2    1    2    0    0 -0.10893957625E+03 -0.38916434910E+02 -0.13218535236E+01  0.14707166891E+03  0.90807534492E+02 0.  0.
         23    2    1    2    0    0  0.10810996620E+03  0.61672761836E+02  0.32405570125E+03  0.35900769625E+03  0.91559456691E+02 0.  0.
        -11    1    4    4    0    0  0.93228947310E+02  0.14626565460E+02  0.14287120067E+03  0.17122427695E+03  0.00000000000E+00 0.  1.
         11    1    4    4    0    0  0.14881018893E+02  0.47046196375E+02  0.18118450058E+03  0.18778341931E+03  0.00000000000E+00 0. -1.
        -13    1    3    3    0    0 -0.42748958724E+02  0.12442434810E+02 -0.35145051103E+02  0.56722678649E+02  0.00000000000E+00 0.  1.
         13    1    3    3    0    0 -0.66190617522E+02 -0.51358869720E+02  0.33823197580E+02  0.90348990262E+02  0.00000000000E+00 0. -1.
         -1    1    1    2    0  502  0.82961004343E+00 -0.22756326926E+02  0.12300714447E+03  0.12509714729E+03  0.00000000000E+00 0.  1.
<scales pt_clust_5="13000.00000" pt_clust_6="13000.00000" pt_clust_7="13000.00000" pt_clust_8="13000.00000" pt_clust_9="22.77144"></scales>
<clustering>
<clus scale="   22.771">  1  9  2 -1</clus>
<clus scale="   90.808">  7  8 -1 -1</clus>
<clus scale="   91.559">  5  6 -1 -1</clus>
<clus scale="  148.068">  2  7  1 -1</clus>
<clus scale="   22.771">  1  5  2 -1</clus>
</clustering>
</event>
<event>
 9    1  0.1399746E-005  0.1295403E+03  0.7546771E-02  0.1230143E+00
         -1   -1    0    0    0  501 -0.00000000000E+00  0.00000000000E+00  0.29947180701E+03  0.29947180701E+03  0.00000000000E+00 0.  1.
         21   -1    0    0  501  502  0.00000000000E+00 -0.00000000000E+00 -0.67857836339E+02  0.67857836339E+02  0.00000000000E+00 0. -1.
         23    2    1    2    0    0  0.77137690592E+02 -0.39070701406E+02  0.86585988064E+02  0.14851958107E+03  0.84167628063E+02 0.  0.
         23    2    1    2    0    0 -0.76276016400E+02  0.61602512454E+02  0.96685896811E+02  0.16546793774E+03  0.91752795919E+02 0.  0.
        -11    1    3    3    0    0  0.30946638384E+02 -0.50945243193E+02  0.80900668248E+02  0.10048895638E+03  0.00000000000E+00 0.  1.
         11    1    3    3    0    0  0.46191052207E+02  0.11874541787E+02  0.56853198165E+01  0.48030624690E+02  0.00000000000E+00 0. -1.
        -13    1    4    4    0    0 -0.33223740455E+02 -0.14662146426E+02  0.60807573006E+02  0.70826240917E+02  0.00000000000E+00 0.  1.
         13    1    4    4    0    0 -0.43052275945E+02  0.76264658881E+02  0.35878323805E+02  0.94641696822E+02  0.00000000000E+00 0. -1.
         -1    1    1    2    0  502 -0.86167419199E+00 -0.22531811049E+02  0.48342085798E+02  0.53342124544E+02  0.00000000000E+00 0.  1.
<scales pt_clust_5="13000.00000" pt_clust_6="13000.00000" pt_clust_7="13000.00000" pt_clust_8="13000.00000" pt_clust_9="22.54829"></scales>
<clustering>
<clus scale="   22.548">  2  9  1 -1</clus>
<clus scale="   84.168">  5  6 -1 -1</clus>
<clus scale="   91.753">  7  8 -1 -1</clus>
<clus scale="  124.283">  1  5  2 -1</clus>
<clus scale="   22.548">  2  5  1 -1</clus>
</clustering>
</event>
<event>
 9    1  0.1399746E-005  0.9515903E+02  0.7546771E-02  0.1292454E+00
         21   -1    0    0  501  502  0.00000000000E+00  0.00000000000E+00  0.66197912140E+02  0.66197912140E+02  0.00000000000E+00 0.  1.
          1   -1    0    0  502    0 -0.00000000000E+00 -0.00000000000E+00 -0.30701220665E+03  0.30701220665E+03  0.00000000000E+00 0. -1.
         23    2    1    2    0    0 -0.33474530235E+01 -0.18546672198E+02 -0.17725992440E+03  0.20030518832E+03  0.91355914856E+02 0.  0.
         23    2    1    2    0    0 -0.41764260942E+01  0.41279311046E+02 -0.93082335085E+02  0.13488806130E+03  0.88368794950E+02 0.  0.
        -11    1    3    3    0    0 -0.32265317405E+02 -0.40861674493E+02 -0.13356512340E+03  0.14335400008E+03  0.00000000000E+00 0.  1.
         11    1    3    3    0    0  0.28917864381E+02  0.22315002296E+02 -0.43694800993E+02  0.56951188238E+02  0.00000000000E+00 0. -1.
        -13    1    4    4    0    0  0.21314144883E+02 -0.18867336341E+02 -0.12329327399E+02  0.31020661934E+02  0.00000000000E+00 0.  1.
         13    1    4    4    0    0 -0.25490570977E+02  0.60146647387E+02 -0.80753007686E+02  0.10386739937E+03  0.00000000000E+00 0. -1.
          1    1    1    2  501    0  0.75238791176E+01 -0.22732638849E+02  0.29527964973E+02  0.38016869170E+02  0.00000000000E+00 0. -1.
<scales pt_clust_5="13000.00000" pt_clust_6="13000.00000" pt_clust_7="13000.00000" pt_clust_8="13000.00000" pt_clust_9="23.94539"></scales>
<clustering>
<clus scale="   23.945">  1  9  2 -1</clus>
<clus scale="   88.369">  7  8 -1 -1</clus>
<clus scale="   91.356">  5  6 -1 -1</clus>
<clus scale="   92.295">  1  7  2 -1</clus>
<clus scale="   23.945">  1  5  2 -1</clus>
</clustering>
</event>
<event>
 9    1  0.1399746E-005  0.1118320E+03  0.7546771E-02  0.1258019E+00
          3   -1    0    0  502    0 -0.00000000000E+00  0.00000000000E+00  0.26156919891E+03  0.26156919891E+03  0.00000000000E+00 0. -1.
         21   -1    0    0  501  502  0.00000000000E+00 -0.00000000000E+00 -0.18530206335E+03  0.18530206335E+03  0.00000000000E+00 0.  1.
         23    2    1    2    0    0 -0.28918460803E+02 -0.49502436760E+02  0.15518691545E+03  0.18885187945E+03  0.91078455315E+02 0.  0.
         23    2    1    2    0    0  0.11614763410E+03  0.59118803270E+02 -0.54737794991E+02  0.16699097201E+03  0.88906989173E+02 0.  0.
        -11    1    3    3    0    0  0.34917523484E+01 -0.31294257864E+02  0.23690972822E+01  0.31577452900E+02  0.00000000000E+00 0.  1.
         11    1    3    3    0    0 -0.32410213151E+02 -0.18208178896E+02  0.15281781817E+03  0.15727442655E+03  0.00000000000E+00 0. -1.
        -11    1    4    4    0    0  0.10171432394E+03  0.64315615229E+01 -0.45392181539E+02  0.11156889720E+03  0.00000000000E+00 0.  1.
         11    1    4    4    0    0  0.14433310167E+02  0.52687241747E+02 -0.93456134520E+01  0.55422074809E+02  0.00000000000E+00 0. -1.
          3    1    1    2  501    0 -0.87229173299E+02 -0.96163665097E+01 -0.24181984900E+02  0.91028410802E+02  0.00000000000E+00 0. -1.
<scales pt_clust_5="13000.00000" pt_clust_6="13000.00000" pt_clust_7="13000.00000" pt_clust_8="13000.00000" pt_clust_9="87.75764"></scales>
<clustering>
<clus scale="   87.758">  2  9  1 -1</clus>
<clus scale="   88.907">  7  8 -1 -1</clus>
<clus scale="   91.078">  5  6 -1 -1</clus>
<clus scale="  110.071">  2  7  1 -1</clus>
<clus scale="   87.758">  2  5  1 -1</clus>
</clustering>
</event>
<event>
 9    1  0.1617442E-005  0.1023898E+03  0.7546771E-02  0.1278340E+00
         21   -1    0    0  501  502  0.00000000000E+00  0.00000000000E+00  0.32987285621E+03  0.32987285621E+03  0.00000000000E+00 0. -1.
          4   -1    0    0  502    0 -0.00000000000E+00 -0.00000000000E+00 -0.19530327302E+03  0.19530327302E+03  0.00000000000E+00 0. -1.
         23    2    1    2    0    0  0.34146274090E+02 -0.22371768538E+02 -0.13837273478E+03  0.16918502356E+03  0.88374738493E+02 0.  0.
         23    2    1    2    0    0 -0.45877197753E+02 -0.18715520027E+02  0.32238985948E+02  0.11152459692E+03  0.94569527547E+02 0.  0.
        -11    1    3    3    0    0 -0.26762289140E+02 -0.30995921358E+00 -0.70262124215E+02  0.75186982211E+02  0.00000000000E+00 0.  1.
         11    1    3    3    0    0  0.60908563230E+02 -0.22061809324E+02 -0.68110610568E+02  0.93998041348E+02  0.00000000000E+00 0. -1.
        -13    1    4    4    0    0 -0.69828742025E+02  0.52925656756E+01  0.33412660915E+02  0.77591690107E+02  0.00000000000E+00 0.  1.
         13    1    4    4    0    0  0.23951544272E+02 -0.24008085703E+02 -0.11736749672E+01  0.33932906817E+02  0.00000000000E+00 0. -1.
          4    1    1    2  501    0  0.11730923663E+02  0.41087288565E+02  0.24070333202E+03  0.24446650874E+03  0.00000000000E+00 0. -1.
<scales pt_clust_5="13000.00000" pt_clust_6="13000.00000" pt_clust_7="13000.00000" pt_clust_8="13000.00000" pt_clust_9="42.72915"></scales>
<clustering>
<clus scale="   42.729">  1  9  2 -1</clus>
<clus scale="   88.375">  5  6 -1 -1</clus>
<clus scale="   94.570">  7  8 -1 -1</clus>
<clus scale="   96.697">  2  5  1 -1</clus>
<clus scale="   42.729">  1  5  2 -1</clus>
</clustering>
</event>
<event>
 9    1  0.1399746E-005  0.2096923E+03  0.7546771E-02  0.1173969E+00
          1   -1    0    0  502    0 -0.00000000000E+00  0.00000000000E+00  0.17275434302E+04  0.17275434302E+04  0.00000000000E+00 0. -1.
         21   -1    0    0  501  502  0.00000000000E+00 -0.00000000000E+00 -0.40688312857E+02  0.40688312857E+02  0.00000000000E+00 0. -1.
         23    2    1    2    0    0 -0.31936486045E+02  0.19985066939E+02  0.14685128178E+03  0.17704854772E+03  0.91441496318E+02 0.  0.
         23    2    1    2    0    0 -0.16127062744E+03  0.49427667173E+02  0.84217313960E+03  0.86378042067E+03  0.91704462896E+02 0.  0.
        -11    1    3    3    0    0 -0.53924104751E+02  0.86361825481E+01  0.40853906949E+02  0.68201425463E+02  0.00000000000E+00 0. -1.
         11    1    3    3    0    0  0.21987618706E+02  0.11348884391E+02  0.10599737483E+03  0.10884712226E+03  0.00000000000E+00 0.  1.
        -13    1    4    4    0    0 -0.10473492967E+03  0.69459068216E+02  0.66383080314E+03  0.67562215983E+03  0.00000000000E+00 0.  1.
         13    1    4    4    0    0 -0.56535697777E+02 -0.20031401043E+02  0.17834233646E+03  0.18815826084E+03  0.00000000000E+00 0. -1.
          1    1    1    2  501    0  0.19320711349E+03 -0.69412734112E+02  0.69783069600E+03  0.72740277470E+03  0.00000000000E+00 0. -1.
<scales pt_clust_5="13000.00000" pt_clust_6="13000.00000" pt_clust_7="13000.00000" pt_clust_8="13000.00000" pt_clust_9="188.57668"></scales>
<clustering>
<clus scale="   91.441">  5  6 -1 -1</clus>
<clus scale="   91.704">  7  8 -1 -1</clus>
<clus scale="   98.898">  1  5  2 -1</clus>
<clus scale="  188.577">  2  9  1 -1</clus>
<clus scale="  188.577">  2  5  1 -1</clus>
</clustering>
</event>
<event>
 9    1  0.1399746E-005  0.9668507E+02  0.7546771E-02  0.1291832E+00
          2   -1    0    0  502    0 -0.00000000000E+00  0.00000000000E+00  0.54501064005E+03  0.54501064005E+03  0.00000000000E+00 0. -1.
         21   -1    0    0  501  502  0.00000000000E+00 -0.00000000000E+00 -0.37126494413E+03  0.37126494413E+03  0.00000000000E+00 0. -1.
         23    2    1    2    0    0  0.29999767141E+01  0.96317644976E+01  0.44897099512E+03  0.45917487284E+03  0.95733163743E+02 0.  0.
         23    2    1    2    0    0 -0.46377137871E+02 -0.82168823302E+01  0.61738753872E+02  0.11735322706E+03  0.87987215546E+02 0.  0.
        -11    1    3    3    0    0  0.47286570013E+02 -0.81778861647E+01  0.24938823646E+03  0.25396336352E+03  0.00000000000E+00 0. -1.
         11    1    3    3    0    0 -0.44286593299E+02  0.17809650662E+02  0.19958275867E+03  0.20521150933E+03  0.00000000000E+00 0.  1.
        -11    1    4    4    0    0 -0.38183043750E+02  0.23959190153E+02 -0.23876607110E+01  0.45140763689E+02  0.00000000000E+00 0.  1.
         11    1    4    4    0    0 -0.81940941205E+01 -0.32176072483E+02  0.64126414583E+02  0.72212463371E+02  0.00000000000E+00 0. -1.
          2    1    1    2  501    0  0.43377161156E+02 -0.14148821674E+01 -0.33696405308E+03  0.33974748427E+03  0.00000000000E+00 0. -1.
<scales pt_clust_5="13000.00000" pt_clust_6="13000.00000" pt_clust_7="13000.00000" pt_clust_8="13000.00000" pt_clust_9="43.40023"></scales>
<clustering>
<clus scale="   43.400">  2  9  1 -1</clus>
<clus scale="   87.987">  7  8 -1 -1</clus>
<clus scale="   89.022">  2  7  1 -1</clus>
<clus scale="   95.733">  5  6 -1 -1</clus>
<clus scale="   43.400">  2  5  1 -1</clus>
</clustering>
</event>
<event>
 9    1  0.1399746E-005  0.1011798E+03  0.7546771E-02  0.1278535E+00
         21   -1    0    0  501  502  0.00000000000E+00  0.00000000000E+00  0.31335465257E+03  0.31335465257E+03  0.00000000000E+00 0.  1.
          3   -1    0    0  502    0 -0.00000000000E+00 -0.00000000000E+00 -0.52560292099E+02  0.52560292099E+02  0.00000000000E+00 0. -1.
         23    2    1    2    0    0  0.80251320788E+01 -0.34722906456E+02  0.57503932798E+02  0.11420769675E+03  0.92014198533E+02 0.  0.
         23    2    1    2    0    0  0.19470343000E+02  0.44266854808E+02  0.10291263839E+03  0.14719510182E+03  0.93470520325E+02 0.  0.
        -11    1    3    3    0    0 -0.16534620023E+02 -0.18649587197E+02 -0.19599006521E+02  0.31706810286E+02  0.00000000000E+00 0. -1.
         11    1    3    3    0    0  0.24559752102E+02 -0.16073319259E+02  0.77102939319E+02  0.82500886462E+02  0.00000000000E+00 0.  1.
        -11    1    4    4    0    0  0.13381637596E+02  0.68259255704E+02  0.41538906740E+02  0.81017744891E+02  0.00000000000E+00 0. -1.
         11    1    4    4    0    0  0.60887054040E+01 -0.23992400896E+02  0.61373731649E+02  0.66177356934E+02  0.00000000000E+00 0.  1.
          3    1    1    2  501    0 -0.27495475079E+02 -0.95439483517E+01  0.10037778928E+03  0.10451214610E+03  0.00000000000E+00 0. -1.
<scales pt_clust_5="13000.00000" pt_clust_6="13000.00000" pt_clust_7="13000.00000" pt_clust_8="13000.00000" pt_clust_9="29.10478"></scales>
<clustering>
<clus scale="   29.105">  1  9  2 -1</clus>
<clus scale="   92.014">  5  6 -1 -1</clus>
<clus scale="   93.471">  7  8 -1 -1</clus>
<clus scale="   99.836">  2  5  1 -1</clus>
<clus scale="   29.105">  1  5  2 -1</clus>
</clustering>
</event>
<event>
 9    1  0.1399746E-005  0.1134003E+03  0.7546771E-02  0.1258298E+00
         21   -1    0    0  501  502  0.00000000000E+00  0.00000000000E+00  0.47616788622E+03  0.47616788622E+03  0.00000000000E+00 0. -1.
         -1   -1    0    0    0  501 -0.00000000000E+00 -0.00000000000E+00 -0.63352635629E+02  0.63352635629E+02  0.00000000000E+00 0.  1.
         23    2    1    2    0    0 -0.49296413452E+02 -0.22663649247E+01  0.97794096074E+01  0.10367403506E+03  0.90649853309E+02 0.  0.
         23    2    1    2    0    0  0.75704558386E+02  0.19640089395E+02  0.36425190476E+03  0.38581219724E+03  0.10027306792E+03 0.  0.
        -13    1    3    3    0    0  0.25255215778E+02  0.82243009508E+01 -0.47956546468E+01  0.26990060275E+02  0.00000000000E+00 0. -1.
         13    1    3    3    0    0 -0.74551629231E+02 -0.10490665876E+02  0.14575064254E+02  0.76683974789E+02  0.00000000000E+00 0.  1.
        -13    1    4    4    0    0 -0.14222850876E+02 -0.14633694411E+02  0.20828103813E+02  0.29158950729E+02  0.00000000000E+00 0.  1.
         13    1    4    4    0    0  0.89927409262E+02  0.34273783806E+02  0.34342380094E+03  0.35665324651E+03  0.00000000000E+00 0. -1.
         -1    1    1    2    0  502 -0.26408144933E+02 -0.17373724470E+02  0.38783936227E+02  0.50034289542E+02  0.00000000000E+00 0.  1.
<scales pt_clust_5="13000.00000" pt_clust_6="13000.00000" pt_clust_7="13000.00000" pt_clust_8="13000.00000" pt_clust_9="31.61070"></scales>
<clustering>
<clus scale="   31.611">  1  9  2 -1</clus>
<clus scale="   90.650">  5  6 -1 -1</clus>
<clus scale="  100.273">  7  8 -1 -1</clus>
<clus scale="  104.987">  2  5  1 -1</clus>
<clus scale="   31.611">  1  5  2 -1</clus>
</clustering>
</event>
<event>
 9    1  0.1399746E-005  0.9165229E+02  0.7546771E-02  0.1299253E+00
         21   -1    0    0  501  502  0.00000000000E+00  0.00000000000E+00  0.15490858405E+03  0.15490858405E+03  0.00000000000E+00 0. -1.
         -3   -1    0    0    0  501 -0.00000000000E+00 -0.00000000000E+00 -0.10797720549E+03  0.10797720549E+03  0.00000000000E+00 0.  1.
         23    2    1    2    0    0  0.35740254109E+01 -0.10173381173E+02 -0.51450947799E+02  0.10438046497E+03  0.90176549594E+02 0.  0.
         23    2    1    2    0    0  0.18955257226E+02  0.22730876183E+02  0.90444441713E+02  0.13151886000E+03  0.90780058324E+02 0.  0.
        -13    1    4    4    0    0 -0.26124074173E+02 -0.15557025744E+02  0.54216924441E+02  0.62160785043E+02  0.00000000000E+00 0.  1.
         13    1    4    4    0    0  0.45079331399E+02  0.38287901927E+02  0.36227517272E+02  0.69358074952E+02  0.00000000000E+00 0. -1.
        -13    1    3    3    0    0  0.17306845674E+02 -0.41838802909E+02 -0.36540493651E+01  0.45424271186E+02  0.00000000000E+00 0. -1.
         13    1    3    3    0    0 -0.13732820263E+02  0.31665421736E+02 -0.47796898434E+02  0.58956193788E+02  0.00000000000E+00 0.  1.
         -3    1    1    2    0  502 -0.22529282637E+02 -0.12557495010E+02  0.79378846431E+01  0.26986464564E+02  0.00000000000E+00 0.  1.
<scales pt_clust_5="13000.00000" pt_clust_6="13000.00000" pt_clust_7="13000.00000" pt_clust_8="13000.00000" pt_clust_9="25.79262"></scales>
<clustering>
<clus scale="   25.793">  1  9  2 -1</clus>
<clus scale="   90.177">  7  8 -1 -1</clus>
<clus scale="   90.780">  5  6 -1 -1</clus>
<clus scale="   91.055">  2  7  1 -1</clus>
<clus scale="   25.793">  1  5  2 -1</clus>
</clustering>
</event>
<event>
 9    1  0.1399746E-005  0.2376586E+03  0.7546771E-02  0.1121646E+00
          2   -1    0    0  502    0 -0.00000000000E+00  0.00000000000E+00  0.18414028944E+04  0.18414028944E+04  0.00000000000E+00 0. -1.
         21   -1    0    0  501  502  0.00000000000E+00 -0.00000000000E+00 -0.20804370213E+03  0.20804370213E+03  0.00000000000E+00 0. -1.
         23    2    1    2    0    0  0.17577011574E+03 -0.14682829211E+03  0.10530723826E+04  0.10815090821E+04  0.90811731207E+02 0.  0.
         23    2    1    2    0    0 -0.16741813740E+03  0.12490656259E+03  0.75682185644E+03  0.78985062411E+03  0.86337731727E+02 0.  0.
        -11    1    4    4    0    0 -0.62667604883E+02  0.67684068137E+02  0.47368908061E+03  0.48258647605E+03  0.00000000000E+00 0. -1.
         11    1    4    4    0    0 -0.10475053251E+03  0.57222494456E+02  0.28313277583E+03  0.30726414806E+03  0.00000000000E+00 0.  1.
        -11    1    3    3    0    0  0.16892308860E+03 -0.10070637023E+03  0.91081566672E+03  0.93180575315E+03  0.00000000000E+00 0.  1.
         11    1    3    3    0    0  0.68470271480E+01 -0.46121921880E+02  0.14225671593E+03  0.14970332890E+03  0.00000000000E+00 0. -1.
          2    1    1    2  501    0 -0.83519783474E+01  0.21921729521E+02 -0.17653504681E+03  0.17808689036E+03  0.00000000000E+00 0. -1.
<scales pt_clust_5="13000.00000" pt_clust_6="13000.00000" pt_clust_7="13000.00000" pt_clust_8="13000.00000" pt_clust_9="23.45885"></scales>
<clustering>
<clus scale="   23.459">  2  9  1 -1</clus>
<clus scale="   86.338">  5  6 -1 -1</clus>
<clus scale="   90.812">  7  8 -1 -1</clus>
<clus scale="  235.985">  2  5  1 -1</clus>
<clus scale="   23.459">  2  5  1 -1</clus>
</clustering>
</event>
<event>
 9    1  0.1399746E-005  0.9350286E+02  0.7546771E-02  0.1294959E+00
         -1   -1    0    0    0  501 -0.00000000000E+00  0.00000000000E+00  0.62051627301E+03  0.62051627301E+03  0.00000000000E+00 0.  1.
         21   -1    0    0  501  502  0.00000000000E+00 -0.00000000000E+00 -0.38493642450E+02  0.38493642450E+02  0.00000000000E+00 0.  1.
         23    2    1    2    0    0 -0.12275324160E+02 -0.10228610583E+02  0.45161768305E+03  0.46103746690E+03  0.91332941369E+02 0.  0.
         23    2    1    2    0    0  0.31402409187E+02 -0.21397419725E+02  0.12626992749E+03  0.16078172976E+03  0.91992984315E+02 0.  0.
        -11    1    3    3    0    0 -0.59033041048E+01  0.40585998254E+02  0.22473193331E+03  0.22844367819E+03  0.00000000000E+00 0. -1.
         11    1    3    3    0    0 -0.63720200547E+01 -0.50814608837E+02  0.22688574974E+03  0.23259378871E+03  0.00000000000E+00 0.  1.
        -11    1    4    4    0    0  0.47773471073E+02  0.14019261457E+02  0.10532101052E+03  0.11649617799E+03  0.00000000000E+00 0.  1.
         11    1    4    4    0    0 -0.16371061886E+02 -0.35416681182E+02  0.20948916972E+02  0.44285551769E+02  0.00000000000E+00 0. -1.
         -1    1    1    2    0  502 -0.19127085028E+02  0.31626030308E+02  0.41350200201E+01  0.37190718806E+02  0.00000000000E+00 0.  1.
<scales pt_clust_5="13000.00000" pt_clust_6="13000.00000" pt_clust_7="13000.00000" pt_clust_8="13000.00000" pt_clust_9="36.96013"></scales>
<clustering>
<clus scale="   36.960">  2  9  1 -1</clus>
<clus scale="   91.333">  5  6 -1 -1</clus>
<clus scale="   91.993">  7  8 -1 -1</clus>
<clus scale="   92.854">  1  5  2 -1</clus>
<clus scale="   36.960">  2  5  1 -1</clus>
</clustering>
</event>
<event>
 9    1  0.1399746E-005  0.1347617E+03  0.7546771E-02  0.1220985E+00
         21   -1    0    0  501  502  0.00000000000E+00  0.00000000000E+00  0.64102186330E+02  0.64102186330E+02  0.00000000000E+00 0.  1.
          1   -1    0    0  502    0 -0.00000000000E+00 -0.00000000000E+00 -0.63249754842E+03  0.63249754842E+03  0.00000000000E+00 0. -1.
         23    2    1    2    0    0 -0.56371831412E+02  0.81262971008E+02 -0.49250978218E+03  0.51025063940E+03  0.89489528064E+02 0.  0.
         23    2    1    2    0    0  0.42456878935E+02 -0.10365979931E+03 -0.72836246875E+02  0.15980588054E+03  0.87663333465E+02 0.  0.
        -11    1    4    4    0    0  0.25372724650E+02 -0.11429637480E+03 -0.75785180619E+02  0.13946623265E+03  0.00000000000E+00 0.  1.
         11    1    4    4    0    0  0.17084154285E+02  0.10636575494E+02  0.29489337444E+01  0.20339647885E+02  0.00000000000E+00 0. -1.
        -11    1    3    3    0    0  0.70387488440E+01  0.33086579770E+02 -0.48351321662E+02  0.59009457315E+02  0.00000000000E+00 0.  1.
         11    1    3    3    0    0 -0.63410580256E+02  0.48176391237E+02 -0.44415846052E+03  0.45124118209E+03  0.00000000000E+00 0. -1.
          1    1    1    2  501    0  0.13914952477E+02  0.22396828300E+02 -0.30493330324E+01  0.26543214807E+02  0.00000000000E+00 0. -1.
<scales pt_clust_5="13000.00000" pt_clust_6="13000.00000" pt_clust_7="13000.00000" pt_clust_8="13000.00000" pt_clust_9="26.36748"></scales>
<clustering>
<clus scale="   26.367">  1  9  2 -1</clus>
<clus scale="   87.663">  5  6 -1 -1</clus>
<clus scale="   89.490">  7  8 -1 -1</clus>
<clus scale="  133.556">  1  5  2 -1</clus>
<clus scale="   26.367">  1  5  2 -1</clus>
</clustering>
</event>
<event>
 9    1  0.1399746E-005  0.9291172E+02  0.7546771E-02  0.1296496E+00
          1   -1    0    0  502    0 -0.00000000000E+00  0.00000000000E+00  0.19354426737E+03  0.19354426737E+03  0.00000000000E+00 0. -1.
         21   -1    0    0  501  502  0.00000000000E+00 -0.00000000000E+00 -0.11061516284E+03  0.11061516284E+03  0.00000000000E+00 0. -1.
         23    2    1    2    0    0 -0.11404633435E+02  0.82458343738E+01  0.48725031804E+02  0.10352727374E+03  0.90253577414E+02 0.  0.
         23    2    1    2    0    0 -0.65156049112E+02 -0.20735647917E+02 -0.42080650384E+01  0.11406989054E+03  0.91208301633E+02 0.  0.
        -13    1    4    4    0    0 -0.42794672244E+02  0.29086837645E+02 -0.22574161951E+02  0.56453705675E+02  0.00000000000E+00 0. -1.
         13    1    4    4    0    0 -0.22361376869E+02 -0.49822485562E+02  0.18366096913E+02  0.57616184869E+02  0.00000000000E+00 0.  1.
        -13    1    3    3    0    0 -0.46227127697E+02 -0.14780517022E+02  0.34009242288E+02  0.59262463495E+02  0.00000000000E+00 0.  1.
         13    1    3    3    0    0  0.34822494262E+02  0.23026351396E+02  0.14715789516E+02  0.44264810248E+02  0.00000000000E+00 0. -1.
          1    1    1    2  501    0  0.76560682547E+02  0.12489813543E+02  0.38412137764E+02  0.86562265925E+02  0.00000000000E+00 0. -1.
<scales pt_clust_5="13000.00000" pt_clust_6="13000.00000" pt_clust_7="13000.00000" pt_clust_8="13000.00000" pt_clust_9="77.57280"></scales>
<clustering>
<clus scale="   77.573">  2  9  1 -1</clus>
<clus scale="   90.254">  7  8 -1 -1</clus>
<clus scale="   91.208">  5  6 -1 -1</clus>
<clus scale="   91.975">  1  7  2 -1</clus>
<clus scale="   77.573">  2  5  1 -1</clus>
</clustering>
</event>
<event>
 9    1  0.1399746E-005  0.1482911E+03  0.7546771E-02  0.1202608E+00
         21   -1    0    0  501  502  0.00000000000E+00  0.00000000000E+00  0.72378713025E+03  0.72378713025E+03  0.00000000000E+00 0.  1.
          1   -1    0    0  502    0 -0.00000000000E+00 -0.00000000000E+00 -0.46497495201E+02  0.46497495201E+02  0.00000000000E+00 0. -1.
         23    2    1    2    0    0 -0.11957823853E+03  0.22694850361E+02  0.13422253659E+03  0.20248960723E+03  0.90400997481E+02 0.  0.
         23    2    1    2    0    0  0.10719469628E+03 -0.62158795372E+01  0.41589232075E+03  0.43896050156E+03  0.90501709381E+02 0.  0.
        -11    1    4    4    0    0  0.41629699420E+02 -0.44967741726E+02  0.14159943568E+03  0.15429040753E+03  0.00000000000E+00 0. -1.
         11    1    4    4    0    0  0.65564996858E+02  0.38751862189E+02  0.27429288507E+03  0.28467009403E+03  0.00000000000E+00 0.  1.
        -13    1    3    3    0    0 -0.51226218903E+02  0.21959067510E+02  0.12050662448E+03  0.13277112899E+03  0.00000000000E+00 0.  1.
         13    1    3    3    0    0 -0.68352019628E+02  0.73578285079E+00  0.13715912108E+02  0.69718478243E+02  0.00000000000E+00 0. -1.
          1    1    1    2  501    0  0.12383542252E+02 -0.16478970824E+02  0.12717477771E+03  0.12883451666E+03  0.00000000000E+00 0. -1.
<scales pt_clust_5="13000.00000" pt_clust_6="13000.00000" pt_clust_7="13000.00000" pt_clust_8="13000.00000" pt_clust_9="20.61331"></scales>
<clustering>
<clus scale="   20.613">  1  9  2 -1</clus>
<clus scale="   90.401">  7  8 -1 -1</clus>
<clus scale="   90.502">  5  6 -1 -1</clus>
<clus scale="  148.230">  2  7  1 -1</clus>
<clus scale="   20.613">  1  5  2 -1</clus>
</clustering>
</event>
<event>
 9    1  0.1399746E-005  0.1219692E+03  0.7546771E-02  0.1247543E+00
         -1   -1    0    0    0  501 -0.00000000000E+00  0.00000000000E+00  0.17571263002E+03  0.17571263002E+03  0.00000000000E+00 0.  1.
         21   -1    0    0  501  502  0.00000000000E+00 -0.00000000000E+00 -0.17184970071E+03  0.17184970071E+03  0.00000000000E+00 0.  1.
         23    2    1    2    0    0  0.32882010823E+02 -0.18458556629E+01  0.60893870201E+02  0.12995623177E+03  0.10998147539E+03 0.  0.
         23    2    1    2    0    0 -0.82150632638E+02 -0.12333162573E+02  0.20819068489E+02  0.12439094131E+03  0.90215515995E+02 0.  0.
        -11    1    4    4    0    0 -0.60357473700E+02 -0.25731501393E+02 -0.26369380850E+02  0.70714065374E+02  0.00000000000E+00 0. -1.
         11    1    4    4    0    0 -0.21793158938E+02  0.13398338820E+02  0.47188449339E+02  0.53676875939E+02  0.00000000000E+00 0.  1.
        -13    1    3    3    0    0 -0.40238189402E+02  0.12599134179E+01  0.31379886184E+02  0.51043084988E+02  0.00000000000E+00 0. -1.
         13    1    3    3    0    0  0.73120200225E+02 -0.31057690808E+01  0.29513984017E+02  0.78913146782E+02  0.00000000000E+00 0.  1.
         -1    1    1    2    0  502  0.49268621815E+02  0.14179018236E+02 -0.77850009383E+02  0.93215157644E+02  0.00000000000E+00 0.  1.
<scales pt_clust_5="13000.00000" pt_clust_6="13000.00000" pt_clust_7="13000.00000" pt_clust_8="13000.00000" pt_clust_9="51.26833"></scales>
<clustering>
<clus scale="   51.268">  2  9  1 -1</clus>
<clus scale="   90.216">  5  6 -1 -1</clus>
<clus scale="  104.496">  2  5  1 -1</clus>
<clus scale="  109.981">  7  8 -1 -1</clus>
<clus scale="   51.268">  2  5  1 -1</clus>
</clustering>
</event>
<event>
 9    1  0.1399746E-005  0.9547642E+02  0.7546771E-02  0.1292442E+00
          4   -1    0    0  502    0 -0.00000000000E+00  0.00000000000E+00  0.12735786853E+03  0.12735786853E+03  0.00000000000E+00 0. -1.
         21   -1    0    0  501  502  0.00000000000E+00 -0.00000000000E+00 -0.10233122011E+03  0.10233122011E+03  0.00000000000E+00 0.  1.
         23    2    1    2    0    0 -0.15326133449E+02  0.90204257135E+01  0.52988932904E+02  0.10636570206E+03  0.90496282343E+02 0.  0.
         23    2    1    2    0    0 -0.49658735536E+01 -0.10695073281E+02 -0.94632403876E+01  0.95813667832E+02  0.94613220705E+02 0.  0.
        -11    1    4    4    0    0  0.38976260167E+01 -0.51151409910E+02 -0.16321983878E+02  0.53833682598E+02  0.00000000000E+00 0.  1.
         11    1    4    4    0    0 -0.88634995703E+01  0.40456336628E+02  0.68587434899E+01  0.41979985235E+02  0.00000000000E+00 0. -1.
        -13    1    3    3    0    0  0.69341478299E+01  0.36619132318E+02  0.59603695393E+02  0.70296826119E+02  0.00000000000E+00 0. -1.
         13    1    3    3    0    0 -0.22260281279E+02 -0.27598706605E+02 -0.66147624890E+01  0.36068875941E+02  0.00000000000E+00 0.  1.
          4    1    1    2  501    0  0.20292007003E+02  0.16746475678E+01 -0.18499044099E+02  0.27509718742E+02  0.00000000000E+00 0. -1.
<scales pt_clust_5="13000.00000" pt_clust_6="13000.00000" pt_clust_7="13000.00000" pt_clust_8="13000.00000" pt_clust_9="20.36099"></scales>
<clustering>
<clus scale="   20.361">  2  9  1 -1</clus>
<clus scale="   90.496">  7  8 -1 -1</clus>
<clus scale="   91.398">  1  7  2 -1</clus>
<clus scale="   94.613">  5  6 -1 -1</clus>
<clus scale="   20.361">  2  5  1 -1</clus>
</clustering>
</event>
<event>
 9    1  0.1399746E-005  0.1244592E+03  0.7546771E-02  0.1236637E+00
         -2   -1    0    0    0  501 -0.00000000000E+00  0.00000000000E+00  0.25379387306E+03  0.25379387306E+03  0.00000000000E+00 0.  1.
         21   -1    0    0  501  502  0.00000000000E+00 -0.00000000000E+00 -0.13925343040E+03  0.13925343040E+03  0.00000000000E+00 0.  1.
         23    2    1    2    0    0 -0.88757129715E+02 -0.56594668530E+02  0.16158739802E+03  0.21356510884E+03  0.91753931435E+02 0.  0.
         23    2    1    2    0    0  0.33322240920E+02  0.30617433515E+02  0.34173358730E+01  0.10014438318E+03  0.89271609834E+02 0.  0.
        -11    1    4    4    0    0  0.62152014210E+02  0.83163993461E+01 -0.44245622507E+01  0.62861849476E+02  0.00000000000E+00 0. -1.
         11    1    4    4    0    0 -0.28829773290E+02  0.22301034169E+02  0.78418981237E+01  0.37282533701E+02  0.00000000000E+00 0.  1.
        -13    1    3    3    0    0 -0.33938133469E+02 -0.24772564499E+02  0.14067905308E+03  0.14681986524E+03  0.00000000000E+00 0.  1.
         13    1    3    3    0    0 -0.54818996247E+02 -0.31822104031E+02  0.20908344940E+02  0.66745243595E+02  0.00000000000E+00 0. -1.
         -2    1    1    2    0  502  0.55434888796E+02  0.25977235015E+02 -0.50464291236E+02  0.79337811444E+02  0.00000000000E+00 0.  1.
<scales pt_clust_5="13000.00000" pt_clust_6="13000.00000" pt_clust_7="13000.00000" pt_clust_8="13000.00000" pt_clust_9="61.21963"></scales>
<clustering>
<clus scale="   61.220">  2  9  1 -1</clus>
<clus scale="   89.272">  5  6 -1 -1</clus>
<clus scale="   91.754">  7  8 -1 -1</clus>
<clus scale="  122.641">  2  5  1 -1</clus>
<clus scale="   61.220">  2  5  1 -1</clus>
</clustering>
</event>
<event>
 9    1  0.1399746E-005  0.1251985E+03  0.7546771E-02  0.1237559E+00
         21   -1    0    0  501  502  0.00000000000E+00  0.00000000000E+00  0.27912328024E+03  0.27912328024E+03  0.00000000000E+00 0. -1.
         -2   -1    0    0    0  501 -0.00000000000E+00 -0.00000000000E+00 -0.93772957744E+02  0.93772957744E+02  0.00000000000E+00 0.  1.
         23    2    1    2    0    0  0.59846512201E+01 -0.90195856214E+02 -0.16161126768E+02  0.12375766953E+03  0.82967886687E+02 0.  0.
         23    2    1    2    0    0  0.39608255597E+01  0.67249703690E+02  0.12935175080E+03  0.17276802107E+03  0.92621287430E+02 0.  0.
        -11    1    3    3    0    0  0.37655093577E+02 -0.26858824200E+02 -0.24693641570E+02  0.52431654977E+02  0.00000000000E+00 0.  1.
         11    1    3    3    0    0 -0.31670442357E+02 -0.63337032015E+02  0.85325148016E+01  0.71326014555E+02  0.00000000000E+00 0. -1.
        -11    1    4    4    0    0 -0.15462226019E+02  0.82254907385E+02  0.12042065829E+03  0.14664953176E+03  0.00000000000E+00 0.  1.
         11    1    4    4    0    0  0.19423051579E+02 -0.15005203694E+02  0.89310925051E+01  0.26118489311E+02  0.00000000000E+00 0. -1.
         -2    1    1    2    0  502 -0.99454767798E+01  0.22946152524E+02  0.72159698468E+02  0.76370547379E+02  0.00000000000E+00 0.  1.
<scales pt_clust_5="13000.00000" pt_clust_6="13000.00000" pt_clust_7="13000.00000" pt_clust_8="13000.00000" pt_clust_9="25.00877"></scales>
<clustering>
<clus scale="   25.009">  1  9  2 -1</clus>
<clus scale="   82.968">  5  6 -1 -1</clus>
<clus scale="   92.621">  7  8 -1 -1</clus>
<clus scale="  118.235">  2  5  1 -1</clus>
<clus scale="   25.009">  1  5  2 -1</clus>
</clustering>
</event>
<event>
 9    1  0.1399746E-005  0.1649956E+03  0.7546771E-02  0.1189037E+00
         21   -1    0    0  501  502  0.00000000000E+00  0.00000000000E+00  0.43978181235E+02  0.43978181235E+02  0.00000000000E+00 0. -1.
          1   -1    0    0  502    0 -0.00000000000E+00 -0.00000000000E+00 -0.96179645652E+03  0.96179645652E+03  0.00000000000E+00 0. -1.
         23    2    1    2    0    0  0.33429416019E+02  0.12993241962E+03 -0.66140658292E+03  0.68558403344E+03  0.12069316245E+03 0.  0.
         23    2    1    2    0    0 -0.34442121211E+02 -0.61989823313E+02 -0.11345186556E+03  0.16190373169E+03  0.91172883181E+02 0.  0.
        -11    1    3    3    0    0 -0.42175925778E+01 -0.22760342812E+02 -0.90374409850E+02  0.93291774813E+02  0.00000000000E+00 0.  1.
         11    1    3    3    0    0  0.37647008597E+02  0.15269276243E+03 -0.57103217307E+03  0.59229225863E+03  0.00000000000E+00 0. -1.
        -13    1    4    4    0    0 -0.39192407839E+02 -0.11377833777E+02 -0.37332029583E+01  0.40980931395E+02  0.00000000000E+00 0. -1.
         13    1    4    4    0    0  0.47502866278E+01 -0.50611989536E+02 -0.10971866260E+03  0.12092280029E+03  0.00000000000E+00 0.  1.
          1    1    1    2  501    0  0.10127051921E+01 -0.67942596302E+02 -0.14295982681E+03  0.15828687262E+03  0.00000000000E+00 0. -1.
<scales pt_clust_5="13000.00000" pt_clust_6="13000.00000" pt_clust_7="13000.00000" pt_clust_8="13000.00000" pt_clust_9="67.95014"></scales>
<clustering>
<clus scale="   67.950">  1  9  2 -1</clus>
<clus scale="   91.173">  7  8 -1 -1</clus>
<clus scale="  120.693">  5  6 -1 -1</clus>
<clus scale="  144.807">  1  7  2 -1</clus>
<clus scale="   67.950">  1  5  2 -1</clus>
</clustering>
</event>
<event>
 9    1  0.1399746E-005  0.1213191E+03  0.7546771E-02  0.1242657E+00
         -2   -1    0    0    0  501 -0.00000000000E+00  0.00000000000E+00  0.68963448143E+02  0.68963448143E+02  0.00000000000E+00 0.  1.
         21   -1    0    0  501  502  0.00000000000E+00 -0.00000000000E+00 -0.48334312989E+03  0.48334312989E+03  0.00000000000E+00 0. -1.
         23    2    1    2    0    0 -0.72289235839E+02 -0.87484158474E+01 -0.27853205701E+02  0.11741768563E+03  0.87800019548E+02 0.  0.
         23    2    1    2    0    0  0.94661688782E+02 -0.38618215835E+02 -0.21628216401E+03  0.25676744443E+03  0.93270274649E+02 0.  0.
        -11    1    3    3    0    0 -0.23521840197E+02  0.31860692575E+02 -0.35894220502E+02  0.53448814421E+02  0.00000000000E+00 0.  1.
         11    1    3    3    0    0 -0.48767395641E+02 -0.40609108423E+02  0.80410148003E+01  0.63968871207E+02  0.00000000000E+00 0. -1.
        -13    1    4    4    0    0 -0.31327211886E+01  0.22099652196E+02 -0.24945803287E+02  0.33473895365E+02  0.00000000000E+00 0.  1.
         13    1    4    4    0    0  0.97794409971E+02 -0.60717868031E+02 -0.19133636072E+03  0.22329354906E+03  0.00000000000E+00 0. -1.
         -2    1    1    2    0  502 -0.22372452943E+02  0.47366631683E+02 -0.17024431204E+03  0.17812144798E+03  0.00000000000E+00 0.  1.
<scales pt_clust_5="13000.00000" pt_clust_6="13000.00000" pt_clust_7="13000.00000" pt_clust_8="13000.00000" pt_clust_9="52.38439"></scales>
<clustering>
<clus scale="   52.384">  2  9  1 -1</clus>
<clus scale="   87.800">  5  6 -1 -1</clus>
<clus scale="   93.270">  7  8 -1 -1</clus>
<clus scale="  117.166">  1  5  2 -1</clus>
<clus scale="   52.384">  2  5  1 -1</clus>
</clustering>
</event>
<event>
 9    1  0.1399746E-005  0.1479228E+03  0.7546771E-02  0.1203177E+00
         21   -1    0    0  501  502  0.00000000000E+00  0.00000000000E+00  0.15267818297E+03  0.15267818297E+03  0.00000000000E+00 0. -1.
         -4   -1    0    0    0  501 -0.00000000000E+00 -0.00000000000E+00 -0.26139009789E+03  0.26139009789E+03  0.00000000000E+00 0. -1.
         23    2    1    2    0    0 -0.54706193104E+02  0.84418543954E+02 -0.88466750252E+02  0.16247016894E+03  0.91928949567E+02 0.  0.
         23    2    1    2    0    0  0.87214580903E+02 -0.10714095967E+03 -0.76801280309E+02  0.18252063606E+03  0.91267615123E+02 0.  0.
        -11    1    3    3    0    0 -0.54018559568E+02  0.44782515701E+02 -0.99100738180E+02  0.12142666428E+03  0.00000000000E+00 0.  1.
         11    1    3    3    0    0 -0.68763353526E+00  0.39636028254E+02  0.10633987929E+02  0.41043504661E+02  0.00000000000E+00 0. -1.
        -11    1    4    4    0    0  0.64202173827E+02 -0.44131004742E+02  0.33792321512E+01  0.77980022529E+02  0.00000000000E+00 0.  1.
         11    1    4    4    0    0  0.23012407076E+02 -0.63009954930E+02 -0.80180512460E+02  0.10454061353E+03  0.00000000000E+00 0. -1.
         -4    1    1    2    0  502 -0.32508387799E+02  0.22722415717E+02  0.56556115644E+02  0.69077475852E+02  0.00000000000E+00 0. -1.
<scales pt_clust_5="13000.00000" pt_clust_6="13000.00000" pt_clust_7="13000.00000" pt_clust_8="13000.00000" pt_clust_9="39.66237"></scales>
<clustering>
<clus scale="   39.662">  1  9  2 -1</clus>
<clus scale="   91.268">  7  8 -1 -1</clus>
<clus scale="   91.929">  5  6 -1 -1</clus>
<clus scale="  147.513">  1  7  2 -1</clus>
<clus scale="   39.662">  1  5  2 -1</clus>
</clustering>
</event>
<event>
 9    1  0.1399746E-005  0.1314021E+03  0.7546771E-02  0.1225905E+00
         21   -1    0    0  501  502  0.00000000000E+00  0.00000000000E+00  0.76610516696E+02  0.76610516696E+02  0.00000000000E+00 0. -1.
          1   -1    0    0  502    0 -0.00000000000E+00 -0.00000000000E+00 -0.59931599694E+03  0.59931599694E+03  0.00000000000E+00 0. -1.
         23    2    1    2    0    0 -0.23163646082E+02 -0.97655671016E+02 -0.48901400813E+03  0.50712585430E+03  0.89267840592E+02 0.  0.
         23    2    1    2    0    0  0.24287134759E+02  0.67481563490E+02 -0.58239644368E+02  0.12988598662E+03  0.91295602406E+02 0.  0.
        -11    1    4    4    0    0  0.19133793514E+02 -0.20070389293E+02 -0.20101969998E+02  0.34249259531E+02  0.00000000000E+00 0. -1.
         11    1    4    4    0    0  0.51533412453E+01  0.87551952783E+02 -0.38137674370E+02  0.95636727090E+02  0.00000000000E+00 0.  1.
        -13    1    3    3    0    0 -0.41729728448E+02 -0.71799940192E+02 -0.44571485667E+03  0.45338541563E+03  0.00000000000E+00 0. -1.
         13    1    3    3    0    0  0.18566082366E+02 -0.25855730824E+02 -0.43299151465E+02  0.53740438670E+02  0.00000000000E+00 0.  1.
          1    1    1    2  501    0 -0.11234886770E+01  0.30174107525E+02  0.24548172256E+02  0.38914672719E+02  0.00000000000E+00 0. -1.
<scales pt_clust_5="13000.00000" pt_clust_6="13000.00000" pt_clust_7="13000.00000" pt_clust_8="13000.00000" pt_clust_9="30.19502"></scales>
<clustering>
<clus scale="   30.195">  1  9  2 -1</clus>
<clus scale="   89.268">  7  8 -1 -1</clus>
<clus scale="   91.296">  5  6 -1 -1</clus>
<clus scale="  130.001">  2  7  1 -1</clus>
<clus scale="   30.195">  1  5  2 -1</clus>
</clustering>
</event>
<event>
 9    1  0.1399746E-005  0.1207907E+03  0.7546771E-02  0.1241943E+00
         -3   -1    0    0    0  501 -0.00000000000E+00  0.00000000000E+00  0.97288631805E+03  0.97288631805E+03  0.00000000000E+00 0.  1.
         21   -1    0    0  501  502  0.00000000000E+00 -0.00000000000E+00 -0.65568968966E+02  0.65568968966E+02  0.00000000000E+00 0.  1.
         23    2    1    2    0    0 -0.67075370714E+02 -0.20910223359E+00  0.41229433981E+03  0.42773524800E+03  0.92041678917E+02 0.  0.
         23    2    1    2    0    0  0.69190784383E+02  0.91570684675E+02  0.49809161979E+03  0.51928246418E+03  0.91577622635E+02 0.  0.
        -11    1    3    3    0    0 -0.80330530033E+02  0.22938224988E+02  0.35244719007E+03  0.36221289045E+03  0.00000000000E+00 0.  1.
         11    1    3    3    0    0  0.13255159320E+02 -0.23147327221E+02  0.59847149748E+02  0.65522357551E+02  0.00000000000E+00 0. -1.
        -13    1    4    4    0    0 -0.80106325114E+01  0.57635551872E+02  0.26745498333E+03  0.27371188352E+03  0.00000000000E+00 0.  1.
         13    1    4    4    0    0  0.77201416894E+02  0.33935132804E+02  0.23063663646E+03  0.24557058066E+03  0.00000000000E+00 0. -1.
         -3    1    1    2    0  502 -0.21154136691E+01 -0.91361582442E+02 -0.30686105198E+01  0.91437574835E+02  0.00000000000E+00 0.  1.
<scales pt_clust_5="13000.00000" pt_clust_6="13000.00000" pt_clust_7="13000.00000" pt_clust_8="13000.00000" pt_clust_9="91.38607"></scales>
<clustering>
<clus scale="   91.386">  2  9  1 -1</clus>
<clus scale="   91.578">  7  8 -1 -1</clus>
<clus scale="   92.042">  5  6 -1 -1</clus>
<clus scale="  120.437">  2  7  1 -1</clus>
<clus scale="   91.386">  2  5  1 -1</clus>
</clustering>
</event>
<event>
 9    1  0.1399746E-005  0.1440670E+03  0.7546771E-02  0.1208182E+00
         -4   -1    0    0    0  501 -0.00000000000E+00  0.00000000000E+00  0.39436263486E+02  0.39436263486E+02  0.00000000000E+00 0.  1.
         21   -1    0    0  501  502  0.00000000000E+00 -0.00000000000E+00 -0.79864446522E+03  0.79864446522E+03  0.00000000000E+00 0.  1.
         23    2    1    2    0    0 -0.95441826641E+02 -0.28586736148E+02 -0.26352972043E+03  0.29635327694E+03  0.91929361194E+02 0.  0.
         23    2    1    2    0    0  0.10098523981E+03  0.85902378918E+02 -0.37638645906E+03  0.40926463091E+03  0.90848963624E+02 0.  0.
        -11    1    4    4    0    0  0.10222370648E+03  0.50545879133E+02 -0.33956134955E+03  0.35819894217E+03  0.00000000000E+00 0.  1.
         11    1    4    4    0    0 -0.12384666657E+01  0.35356499785E+02 -0.36825109510E+02  0.51065688746E+02  0.00000000000E+00 0. -1.
        -13    1    3    3    0    0 -0.98591166160E+02 -0.51284319498E+02 -0.19977113504E+03  0.22860185009E+03  0.00000000000E+00 0.  1.
         13    1    3    3    0    0  0.31493395190E+01  0.22697583350E+02 -0.63758585392E+02  0.67751426852E+02  0.00000000000E+00 0. -1.
         -4    1    1    2    0  502 -0.55434131696E+01 -0.57315642769E+02 -0.11929202225E+03  0.13246282085E+03  0.00000000000E+00 0.  1.
<scales pt_clust_5="13000.00000" pt_clust_6="13000.00000" pt_clust_7="13000.00000" pt_clust_8="13000.00000" pt_clust_9="57.58312"></scales>
<clustering>
<clus scale="   57.583">  2  9  1 -1</clus>
<clus scale="   90.849">  5  6 -1 -1</clus>
<clus scale="   91.929">  7  8 -1 -1</clus>
<clus scale="  143.380">  2  5  1 -1</clus>
<clus scale="   57.583">  2  5  1 -1</clus>
</clustering>
</event>
<event>
 9    1  0.1399746E-005  0.1098378E+03  0.7546771E-02  0.1261179E+00
         21   -1    0    0  501  502  0.00000000000E+00  0.00000000000E+00  0.32678009018E+03  0.32678009018E+03  0.00000000000E+00 0.  1.
         -3   -1    0    0    0  501 -0.00000000000E+00 -0.00000000000E+00 -0.10309496910E+03  0.10309496910E+03  0.00000000000E+00 0.  1.
         23    2    1    2    0    0  0.62635039098E+02  0.10881168601E+02 -0.28685810531E+02  0.11522767897E+03  0.91722376344E+02 0.  0.
         23    2    1    2    0    0 -0.52044061007E+02  0.54837622450E+02  0.13297493345E+03  0.17794868722E+03  0.90926636554E+02 0.  0.
        -11    1    4    4    0    0 -0.15981569356E+02  0.59394245472E+02  0.29383580046E+02  0.68165106401E+02  0.00000000000E+00 0.  1.
         11    1    4    4    0    0 -0.36062491650E+02 -0.45566230223E+01  0.10359135340E+03  0.10978358082E+03  0.00000000000E+00 0. -1.
        -13    1    3    3    0    0 -0.33887613220E+01  0.25422388247E+02 -0.39163829483E+02  0.46814389532E+02  0.00000000000E+00 0. -1.
         13    1    3    3    0    0  0.66023800420E+02 -0.14541219646E+02  0.10478018952E+02  0.68413289439E+02  0.00000000000E+00 0.  1.
         -3    1    1    2    0  502 -0.10590978092E+02 -0.65718791051E+02  0.11939599817E+03  0.13669869309E+03  0.00000000000E+00 0.  1.
<scales pt_clust_5="13000.00000" pt_clust_6="13000.00000" pt_clust_7="13000.00000" pt_clust_8="13000.00000" pt_clust_9="66.56672"></scales>
<clustering>
<clus scale="   66.567">  1  9  2 -1</clus>
<clus scale="   90.927">  5  6 -1 -1</clus>
<clus scale="   91.722">  7  8 -1 -1</clus>
<clus scale="  109.174">  1  5  2 -1</clus>
<clus scale="   66.567">  1  5  2 -1</clus>
</clustering>
</event>
<event>
 9    1  0.1399746E-005  0.1166563E+03  0.7546771E-02  0.1249932E+00
         21   -1    0    0  501  502  0.00000000000E+00  0.00000000000E+00  0.18478242233E+03  0.18478242233E+03  0.00000000000E+00 0. -1.
          1   -1    0    0  502    0 -0.00000000000E+00 -0.00000000000E+00 -0.40862899841E+03  0.40862899841E+03  0.00000000000E+00 0. -1.
         23    2    1    2    0    0  0.80259763462E+02  0.11904578718E+02 -0.33464207014E+03  0.35705916153E+03  0.94459415109E+02 0.  0.
         23    2    1    2    0    0 -0.14417373200E+02 -0.28889851570E+02 -0.10694282412E+02  0.97127672159E+02  0.90977650272E+02 0.  0.
        -11    1    3    3    0    0  0.72721767739E+02 -0.28490516954E+02 -0.26424929295E+03  0.27555009324E+03  0.00000000000E+00 0.  1.
         11    1    3    3    0    0  0.75379957231E+01  0.40395095672E+02 -0.70392777188E+02  0.81509068293E+02  0.00000000000E+00 0. -1.
        -13    1    4    4    0    0 -0.39800252969E+02 -0.23870445831E+02  0.25254043861E+02  0.52835831137E+02  0.00000000000E+00 0.  1.
         13    1    4    4    0    0  0.25382879769E+02 -0.50194057386E+01 -0.35948326273E+02  0.44291841023E+02  0.00000000000E+00 0. -1.
          1    1    1    2  501    0 -0.65842390262E+02  0.16985272852E+02  0.12148977647E+03  0.13922458704E+03  0.00000000000E+00 0. -1.
<scales pt_clust_5="13000.00000" pt_clust_6="13000.00000" pt_clust_7="13000.00000" pt_clust_8="13000.00000" pt_clust_9="67.99794"></scales>
<clustering>
<clus scale="   67.998">  1  9  2 -1</clus>
<clus scale="   90.978">  7  8 -1 -1</clus>
<clus scale="   94.459">  5  6 -1 -1</clus>
<clus scale="  113.855">  1  7  2 -1</clus>
<clus scale="   67.998">  1  5  2 -1</clus>
</clustering>
</event>
<event>
 9    1  0.1399746E-005  0.1106013E+03  0.7546771E-02  0.1260170E+00
         21   -1    0    0  501  502  0.00000000000E+00  0.00000000000E+00  0.12111336038E+03  0.12111336038E+03  0.00000000000E+00 0. -1.
          1   -1    0    0  502    0 -0.00000000000E+00 -0.00000000000E+00 -0.25845644208E+03  0.25845644208E+03  0.00000000000E+00 0. -1.
         23    2    1    2    0    0 -0.62261063382E+02 -0.36185662494E+02 -0.18403839120E+03  0.21253881566E+03  0.78209823837E+02 0.  0.
         23    2    1    2    0    0  0.76138653404E+02  0.62168572726E+02  0.22531556787E+02  0.12893130078E+03  0.80334197531E+02 0.  0.
        -11    1    3    3    0    0 -0.79204619008E+01  0.23096254344E+02 -0.59230063417E+02  0.64065365790E+02  0.00000000000E+00 0.  1.
         11    1    3    3    0    0 -0.54340601482E+02 -0.59281916838E+02 -0.12480832778E+03  0.14847344987E+03  0.00000000000E+00 0. -1.
        -13    1    4    4    0    0  0.30436522667E+02  0.40846216905E+02 -0.27503794632E+02  0.57890016987E+02  0.00000000000E+00 0. -1.
         13    1    4    4    0    0  0.45702130737E+02  0.21322355820E+02  0.50035351419E+02  0.71041283795E+02  0.00000000000E+00 0.  1.
          1    1    1    2  501    0 -0.13877590022E+02 -0.25982910231E+02  0.24163752713E+02  0.38099686010E+02  0.00000000000E+00 0. -1.
<scales pt_clust_5="13000.00000" pt_clust_6="13000.00000" pt_clust_7="13000.00000" pt_clust_8="13000.00000" pt_clust_9="29.45673"></scales>
<clustering>
<clus scale="   29.457">  1  9  2 -1</clus>
<clus scale="   78.210">  5  6 -1 -1</clus>
<clus scale="   80.334">  7  8 -1 -1</clus>
<clus scale="  109.068">  2  5  1 -1</clus>
<clus scale="   29.457">  1  5  2 -1</clus>
</clustering>
</event>
<event>
 9    1  0.1899465E-005  0.3302376E+03  0.7546771E-02  0.1071734E+00
          2   -1    0    0  502    0 -0.00000000000E+00  0.00000000000E+00  0.15715317932E+04  0.15715317932E+04  0.00000000000E+00 0. -1.
         21   -1    0    0  501  502  0.00000000000E+00 -0.00000000000E+00 -0.17701864316E+03  0.17701864316E+03  0.00000000000E+00 0. -1.
         23    2    1    2    0    0  0.14604322765E+03  0.28411684329E+03  0.13526509145E+04  0.13913873151E+04  0.65139536855E+02 0.  0.
         23    2    1    2    0    0 -0.16458030780E+03 -0.25537366298E+03  0.51965363909E+02  0.32149987743E+03  0.91429681607E+02 0.  0.
        -13    1    3    3    0    0  0.11904515672E+03  0.26215331205E+03  0.12583673699E+04  0.12908851792E+04  0.00000000000E+00 0. -1.
         13    1    3    3    0    0  0.26998070932E+02  0.21963531233E+02  0.94283544599E+02  0.10050213590E+03  0.00000000000E+00 0.  1.
        -13    1    4    4    0    0 -0.11392665102E+03 -0.19402835234E+03 -0.26211695612E+01  0.22501811895E+03  0.00000000000E+00 0. -1.
         13    1    4    4    0    0 -0.50653656785E+02 -0.61345310640E+02  0.54586533471E+02  0.96481758481E+02  0.00000000000E+00 0.  1.
          2    1    1    2  501    0  0.18537080148E+02 -0.28743180302E+02 -0.10103128366E+02  0.35663243782E+02  0.00000000000E+00 0. -1.
<scales pt_clust_5="13000.00000" pt_clust_6="13000.00000" pt_clust_7="13000.00000" pt_clust_8="13000.00000" pt_clust_9="34.20225"></scales>
<clustering>
<clus scale="   34.202">  2  9  1 -1</clus>
<clus scale="   65.140">  5  6 -1 -1</clus>
<clus scale="   91.430">  7  8 -1 -1</clus>
<clus scale="  323.945">  1  5  2 -1</clus>
<clus scale="   34.202">  2  5  1 -1</clus>
</clustering>
</event>
<event>
 9    1  0.1399746E-005  0.9760549E+02  0.7546771E-02  0.1286001E+00
          1   -1    0    0  502    0 -0.00000000000E+00  0.00000000000E+00  0.27709455070E+03  0.27709455070E+03  0.00000000000E+00 0. -1.
         21   -1    0    0  501  502  0.00000000000E+00 -0.00000000000E+00 -0.17287468411E+03  0.17287468411E+03  0.00000000000E+00 0. -1.
         23    2    1    2    0    0 -0.25928308446E+02  0.22253391040E+02  0.19360706456E+03  0.21584561005E+03  0.89096247621E+02 0.  0.
         23    2    1    2    0    0  0.66917066894E+02  0.11993392094E+02  0.17774785932E+02  0.11438803579E+03  0.90260425554E+02 0.  0.
        -11    1    3    3    0    0  0.18519665063E+02  0.29103898208E+02  0.14733355096E+03  0.15131817512E+03  0.00000000000E+00 0. -1.
         11    1    3    3    0    0 -0.44447973509E+02 -0.68505071671E+01  0.46273513599E+02  0.64527434927E+02  0.00000000000E+00 0.  1.
        -13    1    4    4    0    0  0.79014222791E+02  0.35120045228E+02  0.17837860280E+02  0.88288471725E+02  0.00000000000E+00 0. -1.
         13    1    4    4    0    0 -0.12097155897E+02 -0.23126653135E+02 -0.63074347715E-01  0.26099564065E+02  0.00000000000E+00 0.  1.
          1    1    1    2  501    0 -0.40988758448E+02 -0.34246783134E+02 -0.10716198389E+03  0.11973558897E+03  0.00000000000E+00 0. -1.
<scales pt_clust_5="13000.00000" pt_clust_6="13000.00000" pt_clust_7="13000.00000" pt_clust_8="13000.00000" pt_clust_9="53.41274"></scales>
<clustering>
<clus scale="   53.413">  2  9  1 -1</clus>
<clus scale="   89.096">  5  6 -1 -1</clus>
<clus scale="   90.260">  7  8 -1 -1</clus>
<clus scale="   96.530">  1  5  2 -1</clus>
<clus scale="   53.413">  2  5  1 -1</clus>
</clustering>
</event>
<event>
 9    1  0.1399746E-005  0.1829554E+03  0.7546771E-02  0.1165122E+00
         21   -1    0    0  501  502  0.00000000000E+00  0.00000000000E+00  0.71800044628E+03  0.71800044628E+03  0.00000000000E+00 0. -1.
         -1   -1    0    0    0  501 -0.00000000000E+00 -0.00000000000E+00 -0.12221213958E+03  0.12221213958E+03  0.00000000000E+00 0.  1.
         23    2    1    2    0    0 -0.30383753010E+02  0.15595142603E+03 -0.11404587810E+02  0.18331755103E+03  0.90726182354E+02 0.  0.
         23    2    1    2    0    0 -0.77729419337E+01 -0.16271269560E+03  0.58131096018E+03  0.61029543548E+03  0.89455274914E+02 0.  0.
        -13    1    3    3    0    0 -0.96982608423E+01  0.99613196281E+02  0.36495050017E+02  0.10653043608E+03  0.00000000000E+00 0. -1.
         13    1    3    3    0    0 -0.20685492168E+02  0.56338229745E+02 -0.47899637827E+02  0.76787114942E+02  0.00000000000E+00 0.  1.
        -13    1    4    4    0    0 -0.29789407365E+02 -0.22265706405E+02  0.66247699858E+02  0.75973207181E+02  0.00000000000E+00 0.  1.
         13    1    4    4    0    0  0.22016465431E+02 -0.14044698919E+03  0.51506326032E+03  0.53432222830E+03  0.00000000000E+00 0. -1.
         -1    1    1    2    0  502  0.38156694944E+02  0.67612695738E+01  0.25881934325E+02  0.46599599351E+02  0.00000000000E+00 0.  1.
<scales pt_clust_5="13000.00000" pt_clust_6="13000.00000" pt_clust_7="13000.00000" pt_clust_8="13000.00000" pt_clust_9="38.75112"></scales>
<clustering>
<clus scale="   38.751">  1  9  2 -1</clus>
<clus scale="   89.455">  7  8 -1 -1</clus>
<clus scale="   90.726">  5  6 -1 -1</clus>
<clus scale="  182.328">  1  7  2 -1</clus>
<clus scale="   38.751">  1  5  2 -1</clus>
</clustering>
</event>
<event>
 9    1  0.1399746E-005  0.1111099E+03  0.7546771E-02  0.1260467E+00
          2   -1    0    0  502    0 -0.00000000000E+00  0.00000000000E+00  0.58091971936E+03  0.58091971936E+03  0.00000000000E+00 0. -1.
         21   -1    0    0  501  502  0.00000000000E+00 -0.00000000000E+00 -0.52494904122E+02  0.52494904122E+02  0.00000000000E+00 0. -1.
         23    2    1    2    0    0  0.27779131568E+02  0.65166363798E+02  0.37062104040E+03  0.38940167956E+03  0.96204871667E+02 0.  0.
         23    2    1    2    0    0  0.20938231991E+02 -0.17360527386E+01  0.11071770003E+03  0.15120192995E+03  0.10080769358E+03 0.  0.
        -13    1    3    3    0    0 -0.33263966459E+02  0.98372741619E+01  0.14839641921E+03  0.15239672130E+03  0.00000000000E+00 0.  1.
         13    1    3    3    0    0  0.61043098027E+02  0.55329089636E+02  0.22222462119E+03  0.23700495826E+03  0.00000000000E+00 0. -1.
        -13    1    4    4    0    0 -0.14091284263E+02  0.31637596439E+02  0.50705724466E+01  0.35003035662E+02  0.00000000000E+00 0. -1.
         13    1    4    4    0    0  0.35029516254E+02 -0.33373649178E+02  0.10564712758E+03  0.11619889429E+03  0.00000000000E+00 0.  1.
          2    1    1    2  501    0 -0.48717363559E+02 -0.63430311059E+02  0.47086074807E+02  0.92811013969E+02  0.00000000000E+00 0. -1.
<scales pt_clust_5="13000.00000" pt_clust_6="13000.00000" pt_clust_7="13000.00000" pt_clust_8="13000.00000" pt_clust_9="79.97991"></scales>
<clustering>
<clus scale="   79.980">  2  9  1 -1</clus>
<clus scale="   96.205">  5  6 -1 -1</clus>
<clus scale="  100.808">  7  8 -1 -1</clus>
<clus scale="  106.951">  1  5  2 -1</clus>
<clus scale="   79.980">  2  5  1 -1</clus>
</clustering>
</event>
<event>
 9    1  0.1399746E-005  0.1051847E+03  0.7546771E-02  0.1271885E+00
         21   -1    0    0  501  502  0.00000000000E+00  0.00000000000E+00  0.16164994612E+03  0.16164994612E+03  0.00000000000E+00 0. -1.
         -1   -1    0    0    0  501 -0.00000000000E+00 -0.00000000000E+00 -0.14223853779E+03  0.14223853779E+03  0.00000000000E+00 0.  1.
         23    2    1    2    0    0 -0.25843450763E+02  0.39129210075E+02 -0.89664975118E+02  0.13619207165E+03  0.91156423743E+02 0.  0.
         23    2    1    2    0    0  0.65137138384E+01 -0.30109472804E+02  0.68190150480E+02  0.12158048836E+03  0.95827499742E+02 0.  0.
        -13    1    4    4    0    0 -0.13237690315E+02 -0.47774110899E+02  0.12538826391E+01  0.49590062903E+02  0.00000000000E+00 0.  1.
         13    1    4    4    0    0  0.19751404153E+02  0.17664638095E+02  0.66936267841E+02  0.71990425458E+02  0.00000000000E+00 0. -1.
        -13    1    3    3    0    0  0.18627867815E+02  0.48044415792E+02 -0.69591650859E+02  0.86592500930E+02  0.00000000000E+00 0. -1.
         13    1    3    3    0    0 -0.44471318578E+02 -0.89152057164E+01 -0.20073324259E+02  0.49599570722E+02  0.00000000000E+00 0.  1.
         -1    1    1    2    0  502  0.19329736924E+02 -0.90197372715E+01  0.40886232969E+02  0.46115923892E+02  0.00000000000E+00 0.  1.
<scales pt_clust_5="13000.00000" pt_clust_6="13000.00000" pt_clust_7="13000.00000" pt_clust_8="13000.00000" pt_clust_9="21.33060"></scales>
<clustering>
<clus scale="   21.331">  1  9  2 -1</clus>
<clus scale="   91.156">  7  8 -1 -1</clus>
<clus scale="   95.827">  5  6 -1 -1</clus>
<clus scale="  100.948">  2  7  1 -1</clus>
<clus scale="   21.331">  1  5  2 -1</clus>
</clustering>
</event>
<event>
 9    1  0.1399746E-005  0.1104776E+03  0.7546771E-02  0.1261644E+00
         21   -1    0    0  501  502  0.00000000000E+00  0.00000000000E+00  0.30949373404E+03  0.30949373404E+03  0.00000000000E+00 0. -1.
          2   -1    0    0  502    0 -0.00000000000E+00 -0.00000000000E+00 -0.66981910750E+02  0.66981910750E+02  0.00000000000E+00 0. -1.
         23    2    1    2    0    0  0.61793256563E+01  0.46929282518E+02  0.86318179749E+02  0.13059355565E+03  0.85809713902E+02 0.  0.
         23    2    1    2    0    0  0.22985282144E+01 -0.88946033812E+02  0.15816431452E+03  0.20297329121E+03  0.90914940422E+02 0.  0.
        -13    1    4    4    0    0  0.30951819337E+01 -0.54582974499E+02  0.16364936068E+02  0.57067437203E+02  0.00000000000E+00 0.  1.
         13    1    4    4    0    0 -0.79665371925E+00 -0.34363059313E+02  0.14179937846E+03  0.14590585400E+03  0.00000000000E+00 0. -1.
        -13    1    3    3    0    0 -0.32865258018E+02  0.11913753658E+02  0.72325862808E+01  0.35698361519E+02  0.00000000000E+00 0.  1.
         13    1    3    3    0    0  0.39044583675E+02  0.35015528859E+02  0.79085593469E+02  0.94895194135E+02  0.00000000000E+00 0. -1.
          2    1    1    2  501    0 -0.84778538708E+01  0.42016751295E+02 -0.19706709832E+01  0.42908797929E+02  0.00000000000E+00 0. -1.
<scales pt_clust_5="13000.00000" pt_clust_6="13000.00000" pt_clust_7="13000.00000" pt_clust_8="13000.00000" pt_clust_9="42.86354"></scales>
<clustering>
<clus scale="   42.864">  1  9  2 -1</clus>
<clus scale="   85.810">  7  8 -1 -1</clus>
<clus scale="   90.915">  5  6 -1 -1</clus>
<clus scale="  106.316">  2  7  1 -1</clus>
<clus scale="   42.864">  1  5  2 -1</clus>
</clustering>
</event>
<event>
 9    1  0.1399746E-005  0.1145981E+03  0.7546771E-02  0.1252958E+00
          3   -1    0    0  502    0 -0.00000000000E+00  0.00000000000E+00  0.93495332187E+02  0.93495332187E+02  0.00000000000E+00 0. -1.
         21   -1    0    0  501  502  0.00000000000E+00 -0.00000000000E+00 -0.30541390334E+03  0.30541390334E+03  0.00000000000E+00 0. -1.
         23    2    1    2    0    0  0.41420122111E+02  0.62608580010E+02  0.10549830485E+02  0.11915655544E+03  0.91932175950E+02 0.  0.
         23    2    1    2    0    0 -0.44929894959E+02 -0.36090381720E+02 -0.76729411071E+02  0.13157917801E+03  0.90024810184E+02 0.  0.
        -11    1    3    3    0    0  0.19529111454E+02 -0.10926944849E+02 -0.25887510426E+02  0.34219110362E+02  0.00000000000E+00 0.  1.
         11    1    3    3    0    0  0.21891010657E+02  0.73535524859E+02  0.36437340911E+02  0.84937445079E+02  0.00000000000E+00 0. -1.
        -11    1    4    4    0    0 -0.67225362506E+02 -0.45491533877E+02 -0.49157517660E+02  0.94895682521E+02  0.00000000000E+00 0.  1.
         11    1    4    4    0    0  0.22295467547E+02  0.94011521570E+01 -0.27571893411E+02  0.36683495489E+02  0.00000000000E+00 0. -1.
          3    1    1    2  501    0  0.35097728479E+01 -0.26518198290E+02 -0.14573899057E+03  0.14817350208E+03  0.00000000000E+00 0. -1.
<scales pt_clust_5="13000.00000" pt_clust_6="13000.00000" pt_clust_7="13000.00000" pt_clust_8="13000.00000" pt_clust_9="26.74946"></scales>
<clustering>
<clus scale="   26.749">  2  9  1 -1</clus>
<clus scale="   90.025">  7  8 -1 -1</clus>
<clus scale="   91.932">  5  6 -1 -1</clus>
<clus scale="  113.074">  2  7  1 -1</clus>
<clus scale="   26.749">  2  5  1 -1</clus>
</clustering>
</event>
<event>
 9    1  0.1399746E-005  0.9892063E+02  0.7546771E-02  0.1284718E+00
          1   -1    0    0  502    0 -0.00000000000E+00  0.00000000000E+00  0.35044571784E+02  0.35044571784E+02  0.00000000000E+00 0. -1.
         21   -1    0    0  501  502  0.00000000000E+00 -0.00000000000E+00 -0.39988116396E+03  0.39988116396E+03  0.00000000000E+00 0.  1.
         23    2    1    2    0    0 -0.15248346744E+02  0.12466574377E+02 -0.91969041537E+02  0.13102688189E+03  0.91223964072E+02 0.  0.
         23    2    1    2    0    0  0.36040915175E+02 -0.13828532065E+02 -0.16788060067E+03  0.19686406748E+03  0.95296322684E+02 0.  0.
        -13    1    4    4    0    0  0.18150570502E+02  0.32629957120E+02 -0.12721788936E+03  0.13258411927E+03  0.00000000000E+00 0. -1.
         13    1    4    4    0    0  0.17890344673E+02 -0.46458489185E+02 -0.40662711312E+02  0.64279948204E+02  0.00000000000E+00 0.  1.
        -13    1    3    3    0    0  0.26258996328E+02 -0.21273852951E+01 -0.81704943040E+02  0.85847296833E+02  0.00000000000E+00 0.  1.
         13    1    3    3    0    0 -0.41507343072E+02  0.14593959672E+02 -0.10264098497E+02  0.45179585056E+02  0.00000000000E+00 0. -1.
          1    1    1    2  501    0 -0.20792568431E+02  0.13619576883E+01 -0.10498694997E+03  0.10703478638E+03  0.00000000000E+00 0. -1.
<scales pt_clust_5="13000.00000" pt_clust_6="13000.00000" pt_clust_7="13000.00000" pt_clust_8="13000.00000" pt_clust_9="20.83713"></scales>
<clustering>
<clus scale="   20.837">  2  9  1 -1</clus>
<clus scale="   91.224">  7  8 -1 -1</clus>
<clus scale="   95.004">  1  7  2 -1</clus>
<clus scale="   95.296">  5  6 -1 -1</clus>
<clus scale="   20.837">  2  5  1 -1</clus>
</clustering>
</event>
<event>
 9    1  0.1399746E-005  0.9301020E+02  0.7546771E-02  0.1297667E+00
          1   -1    0    0  502    0 -0.00000000000E+00  0.00000000000E+00  0.26827542729E+03  0.26827542729E+03  0.00000000000E+00 0. -1.
         21   -1    0    0  501  502  0.00000000000E+00 -0.00000000000E+00 -0.21784691919E+03  0.21784691919E+03  0.00000000000E+00 0. -1.
         23    2    1    2    0    0 -0.18413403487E+02 -0.17004334471E+02  0.12420237666E+03  0.15413308693E+03  0.87764328170E+02 0.  0.
         23    2    1    2    0    0 -0.25123853466E+02  0.20540743437E+02  0.10803086652E+03  0.14501075643E+03  0.91128048405E+02 0.  0.
        -11    1    4    4    0    0 -0.12410119208E+02  0.45887847614E+02  0.10648268225E+03  0.11661160850E+03  0.00000000000E+00 0. -1.
         11    1    4    4    0    0 -0.12713734258E+02 -0.25347104176E+02  0.15481842714E+01  0.28399147936E+02  0.00000000000E+00 0.  1.
        -13    1    3    3    0    0 -0.52025764368E+02 -0.22518395858E+02  0.85378482354E+02  0.10248533339E+03  0.00000000000E+00 0.  1.
         13    1    3    3    0    0  0.33612360880E+02  0.55140613875E+01  0.38823894310E+02  0.51647753545E+02  0.00000000000E+00 0. -1.
          1    1    1    2  501    0  0.43537256953E+02 -0.35364089669E+01 -0.18180473508E+03  0.18697850312E+03  0.00000000000E+00 0. -1.
<scales pt_clust_5="13000.00000" pt_clust_6="13000.00000" pt_clust_7="13000.00000" pt_clust_8="13000.00000" pt_clust_9="43.68065"></scales>
<clustering>
<clus scale="   43.681">  2  9  1 -1</clus>
<clus scale="   87.764">  7  8 -1 -1</clus>
<clus scale="   89.717">  1  7  2 -1</clus>
<clus scale="   91.128">  5  6 -1 -1</clus>
<clus scale="   43.681">  2  5  1 -1</clus>
</clustering>
</event>
<event>
 9    1  0.1399746E-005  0.9453836E+02  0.7546771E-02  0.1292387E+00
          1   -1    0    0  502    0 -0.00000000000E+00  0.00000000000E+00  0.74597375199E+02  0.74597375199E+02  0.00000000000E+00 0. -1.
         21   -1    0    0  501  502  0.00000000000E+00 -0.00000000000E+00 -0.28568950007E+03  0.28568950007E+03  0.00000000000E+00 0.  1.
         23    2    1    2    0    0 -0.25746068741E+02  0.39779574343E+02 -0.15063222639E+02  0.10147495992E+03  0.88458986115E+02 0.  0.
         23    2    1    2    0    0 -0.38065030159E+02 -0.12904804956E+02 -0.13720970847E+03  0.16796144960E+03  0.88142293705E+02 0.  0.
        -11    1    3    3    0    0  0.25958600206E+02  0.17693506262E+02  0.18042945889E+02  0.36227848195E+02  0.00000000000E+00 0. -1.
         11    1    3    3    0    0 -0.51704668947E+02  0.22086068081E+02 -0.33106168528E+02  0.65247111727E+02  0.00000000000E+00 0.  1.
        -13    1    4    4    0    0  0.10819762497E+02  0.29411932368E+02 -0.34626936630E+02  0.46702823967E+02  0.00000000000E+00 0. -1.
         13    1    4    4    0    0 -0.48884792656E+02 -0.42316737324E+02 -0.10258277184E+03  0.12125862563E+03  0.00000000000E+00 0.  1.
          1    1    1    2  501    0  0.63811098900E+02 -0.26874769387E+02 -0.58819193758E+02  0.90850465748E+02  0.00000000000E+00 0. -1.
<scales pt_clust_5="13000.00000" pt_clust_6="13000.00000" pt_clust_7="13000.00000" pt_clust_8="13000.00000" pt_clust_9="69.23951"></scales>
<clustering>
<clus scale="   69.240">  2  9  1 -1</clus>
<clus scale="   88.142">  7  8 -1 -1</clus>
<clus scale="   88.459">  5  6 -1 -1</clus>
<clus scale="   94.242">  2  7  1 -1</clus>
<clus scale="   69.240">  2  5  1 -1</clus>
</clustering>
</event>
<event>
 9    1  0.1399746E-005  0.1262391E+03  0.7546771E-02  0.1233473E+00
         21   -1    0    0  501  502  0.00000000000E+00  0.00000000000E+00  0.52172093803E+02  0.52172093803E+02  0.00000000000E+00 0.  1.
          1   -1    0    0  502    0 -0.00000000000E+00 -0.00000000000E+00 -0.73525325495E+03  0.73525325495E+03  0.00000000000E+00 0. -1.
         23    2    1    2    0    0 -0.41268996173E+01 -0.89595357546E+02 -0.54038991488E+03  0.55495364617E+03  0.88926542158E+02 0.  0.
         23    2    1    2    0    0 -0.33729827702E+02  0.89536938777E+02 -0.63088395638E+02  0.14432552261E+03  0.87721982016E+02 0.  0.
        -11    1    4    4    0    0 -0.28503923861E+02  0.62760364048E+02 -0.84926862471E+02  0.10937965506E+03  0.00000000000E+00 0.  1.
         11    1    4    4    0    0 -0.52259038416E+01  0.26776574730E+02  0.21838466833E+02  0.34945867550E+02  0.00000000000E+00 0. -1.
        -11    1    3    3    0    0 -0.26944526367E+02  0.25362878354E+01 -0.69300201004E+02  0.74397299120E+02  0.00000000000E+00 0.  1.
         11    1    3    3    0    0  0.22817626750E+02 -0.92131645382E+02 -0.47108971388E+03  0.48055634705E+03  0.00000000000E+00 0. -1.
          1    1    1    2  501    0  0.37856727320E+02  0.58418768885E-01 -0.79602850623E+02  0.88146179970E+02  0.00000000000E+00 0. -1.
<scales pt_clust_5="13000.00000" pt_clust_6="13000.00000" pt_clust_7="13000.00000" pt_clust_8="13000.00000" pt_clust_9="37.85679"></scales>
<clustering>
<clus scale="   37.857">  1  9  2 -1</clus>
<clus scale="   87.722">  5  6 -1 -1</clus>
<clus scale="   88.927">  7  8 -1 -1</clus>
<clus scale="  125.394">  1  5  2 -1</clus>
<clus scale="   37.857">  1  5  2 -1</clus>
</clustering>
</event>
<event>
 9    1  0.1399746E-005  0.1437147E+03  0.7546771E-02  0.1209278E+00
          2   -1    0    0  502    0 -0.00000000000E+00  0.00000000000E+00  0.52859766493E+03  0.52859766493E+03  0.00000000000E+00 0. -1.
         21   -1    0    0  501  502  0.00000000000E+00 -0.00000000000E+00 -0.95295607945E+02  0.95295607945E+02  0.00000000000E+00 0. -1.
         23    2    1    2    0    0 -0.71550470423E+02  0.83972630209E+02  0.43973272849E+03  0.46317810039E+03  0.94858883276E+02 0.  0.
         23    2    1    2    0    0  0.66035159958E+02 -0.64523104819E+02 -0.26531719665E+02  0.13220631729E+03  0.90833390203E+02 0.  0.
        -11    1    4    4    0    0 -0.22379150264E+02 -0.18920567806E+02 -0.12005366262E+02  0.31669276464E+02  0.00000000000E+00 0.  1.
         11    1    4    4    0    0  0.88414310223E+02 -0.45602537013E+02 -0.14526353403E+02  0.10053704082E+03  0.00000000000E+00 0. -1.
        -11    1    3    3    0    0 -0.27645771373E+02 -0.58643306358E+00  0.23836100066E+02  0.36507427256E+02  0.00000000000E+00 0.  1.
         11    1    3    3    0    0 -0.43904699050E+02  0.84559063273E+02  0.41589662843E+03  0.42667067314E+03  0.00000000000E+00 0. -1.
          2    1    1    2  501    0  0.55153104646E+01 -0.19449525390E+02  0.20101048155E+02  0.28508855192E+02  0.00000000000E+00 0. -1.
<scales pt_clust_5="13000.00000" pt_clust_6="13000.00000" pt_clust_7="13000.00000" pt_clust_8="13000.00000" pt_clust_9="20.21641"></scales>
<clustering>
<clus scale="   20.216">  2  9  1 -1</clus>
<clus scale="   90.833">  5  6 -1 -1</clus>
<clus scale="   94.859">  7  8 -1 -1</clus>
<clus scale="  141.090">  2  5  1 -1</clus>
<clus scale="   20.216">  2  5  1 -1</clus>
</clustering>
</event>
<event>
 9    1  0.1399746E-005  0.1263292E+03  0.7546771E-02  0.1235881E+00
         21   -1    0    0  501  502  0.00000000000E+00  0.00000000000E+00  0.89378445299E+02  0.89378445299E+02  0.00000000000E+00 0. -1.
         -1   -1    0    0    0  501 -0.00000000000E+00 -0.00000000000E+00 -0.47840175642E+03  0.47840175642E+03  0.00000000000E+00 0.  1.
         23    2    1    2    0    0  0.41394340890E+02  0.62052729799E+02 -0.32524431410E+03  0.34869077751E+03  0.10117984845E+03 0.  0.
         23    2    1    2    0    0  0.15194189508E+02 -0.10096978976E+03 -0.23390589197E+02  0.13941494389E+03  0.91998071054E+02 0.  0.
        -11    1    4    4    0    0 -0.27203175692E+02 -0.19716879185E+02  0.18823594442E+02  0.38510982852E+02  0.00000000000E+00 0.  1.
         11    1    4    4    0    0  0.42397365200E+02 -0.81252910571E+02 -0.42214183639E+02  0.10090396103E+03  0.00000000000E+00 0. -1.
        -11    1    3    3    0    0 -0.31853789135E+02  0.47052946769E+01 -0.70946810173E+02  0.77911831925E+02  0.00000000000E+00 0. -1.
         11    1    3    3    0    0  0.73248130025E+02  0.57347435122E+02 -0.25429750393E+03  0.27077894559E+03  0.00000000000E+00 0.  1.
         -1    1    1    2    0  502 -0.56588530398E+02  0.38917059956E+02 -0.40388407820E+02  0.79674480321E+02  0.00000000000E+00 0.  1.
<scales pt_clust_5="13000.00000" pt_clust_6="13000.00000" pt_clust_7="13000.00000" pt_clust_8="13000.00000" pt_clust_9="68.67896"></scales>
<clustering>
<clus scale="   68.679">  1  9  2 -1</clus>
<clus scale="   91.998">  5  6 -1 -1</clus>
<clus scale="  101.180">  7  8 -1 -1</clus>
<clus scale="  119.102">  1  5  2 -1</clus>
<clus scale="   68.679">  1  5  2 -1</clus>
</clustering>
</event>
<event>
 9    1  0.1399746E-005  0.1048840E+03  0.7546771E-02  0.1271218E+00
         -1   -1    0    0    0  501 -0.00000000000E+00  0.00000000000E+00  0.27642294982E+03  0.27642294982E+03  0.00000000000E+00 0.  1.
         21   -1    0    0  501  502  0.00000000000E+00 -0.00000000000E+00 -0.27392370557E+03  0.27392370557E+03  0.00000000000E+00 0. -1.
         23    2    1    2    0    0 -0.25744120401E+02 -0.46364217689E+02  0.20920860676E+03  0.23404318244E+03  0.90529385760E+02 0.  0.
         23    2    1    2    0    0 -0.45932681848E+02  0.68069193809E+01 -0.21025956324E+03  0.23435868816E+03  0.92513595582E+02 0.  0.
        -11    1    3    3    0    0 -0.20774537113E+02 -0.73338065758E+02  0.16871943058E+03  0.18513859548E+03  0.00000000000E+00 0.  1.
         11    1    3    3    0    0 -0.49695832881E+01  0.26973848069E+02  0.40489176178E+02  0.48904586955E+02  0.00000000000E+00 0. -1.
        -11    1    4    4    0    0 -0.30500561820E+02 -0.39303955270E+02 -0.69759270161E+02  0.85682209032E+02  0.00000000000E+00 0.  1.
         11    1    4    4    0    0 -0.15432120027E+02  0.46110874651E+02 -0.14050029308E+03  0.14867647912E+03  0.00000000000E+00 0. -1.
         -1    1    1    2    0  502  0.71676802249E+02  0.39557298308E+02  0.35502007312E+01  0.81944784797E+02  0.00000000000E+00 0.  1.
<scales pt_clust_5="13000.00000" pt_clust_6="13000.00000" pt_clust_7="13000.00000" pt_clust_8="13000.00000" pt_clust_9="81.86788"></scales>
<clustering>
<clus scale="   81.868">  2  9  1 -1</clus>
<clus scale="   90.529">  5  6 -1 -1</clus>
<clus scale="   92.514">  7  8 -1 -1</clus>
<clus scale="  103.138">  1  5  2 -1</clus>
<clus scale="   81.868">  2  5  1 -1</clus>
</clustering>
</event>
<event>
 9    1  0.1399746E-005  0.1129968E+03  0.7546771E-02  0.1255429E+00
         21   -1    0    0  501  502  0.00000000000E+00  0.00000000000E+00  0.21934621008E+03  0.21934621008E+03  0.00000000000E+00 0.  1.
         -3   -1    0    0    0  501 -0.00000000000E+00 -0.00000000000E+00 -0.16010290192E+03  0.16010290192E+03  0.00000000000E+00 0.  1.
         23    2    1    2    0    0 -0.58245635746E+02  0.28098434406E+01 -0.70204476697E+02  0.12830074947E+03  0.90177405497E+02 0.  0.
         23    2    1    2    0    0  0.11405645009E+03 -0.13850557406E+02  0.12740714640E+03  0.19421938425E+03  0.91037775224E+02 0.  0.
        -11    1    4    4    0    0  0.10803822058E+03  0.17561875906E+02  0.11784755207E+03  0.16083756440E+03  0.00000000000E+00 0.  1.
         11    1    4    4    0    0  0.60182295075E+01 -0.31412433313E+02  0.95595943258E+01  0.33381819853E+02  0.00000000000E+00 0. -1.
        -13    1    3    3    0    0 -0.18065077281E+02 -0.42367703272E+02 -0.38508789562E+02  0.60035790752E+02  0.00000000000E+00 0. -1.
         13    1    3    3    0    0 -0.40180558465E+02  0.45177546713E+02 -0.31695687135E+02  0.68264958716E+02  0.00000000000E+00 0.  1.
         -3    1    1    2    0  502 -0.55810814343E+02  0.11040713966E+02  0.20406384590E+01  0.56928978279E+02  0.00000000000E+00 0.  1.
<scales pt_clust_5="13000.00000" pt_clust_6="13000.00000" pt_clust_7="13000.00000" pt_clust_8="13000.00000" pt_clust_9="56.89242"></scales>
<clustering>
<clus scale="   56.892">  1  9  2 -1</clus>
<clus scale="   90.177">  7  8 -1 -1</clus>
<clus scale="   91.038">  5  6 -1 -1</clus>
<clus scale="  112.305">  2  7  1 -1</clus>
<clus scale="   56.892">  1  5  2 -1</clus>
</clustering>
</event>
<event>
 9    1  0.1399746E-005  0.9624187E+02  0.7546771E-02  0.1289253E+00
          1   -1    0    0  502    0 -0.00000000000E+00  0.00000000000E+00  0.47193399739E+03  0.47193399739E+03  0.00000000000E+00 0. -1.
         21   -1    0    0  501  502  0.00000000000E+00 -0.00000000000E+00 -0.54458107990E+02  0.54458107990E+02  0.00000000000E+00 0.  1.
         23    2    1    2    0    0  0.21235922527E+02  0.13308496673E+02  0.29472072617E+03  0.30931918945E+03  0.90498475315E+02 0.  0.
         23    2    1    2    0    0 -0.52489621916E+02 -0.61795504454E+01  0.14497085964E+03  0.17807095744E+03  0.88878391560E+02 0.  0.
        -13    1    4    4    0    0 -0.31071701613E+02  0.33417347627E+02  0.11570093267E+03  0.12437393451E+03  0.00000000000E+00 0.  1.
         13    1    4    4    0    0 -0.21417920303E+02 -0.39596898072E+02  0.29269926963E+02  0.53697022929E+02  0.00000000000E+00 0. -1.
        -13    1    3    3    0    0  0.21265913009E+02 -0.32806140272E+02  0.72554431112E+02  0.82417397251E+02  0.00000000000E+00 0. -1.
         13    1    3    3    0    0 -0.29990482037E-01  0.46114636945E+02  0.22216629506E+03  0.22690179220E+03  0.00000000000E+00 0.  1.
          1    1    1    2  501    0  0.31253699389E+02 -0.71289462275E+01 -0.22215696408E+02  0.39001958499E+02  0.00000000000E+00 0. -1.
<scales pt_clust_5="13000.00000" pt_clust_6="13000.00000" pt_clust_7="13000.00000" pt_clust_8="13000.00000" pt_clust_9="32.05644"></scales>
<clustering>
<clus scale="   32.056">  2  9  1 -1</clus>
<clus scale="   88.878">  5  6 -1 -1</clus>
<clus scale="   90.498">  7  8 -1 -1</clus>
<clus scale="   94.720">  2  5  1 -1</clus>
<clus scale="   32.056">  2  5  1 -1</clus>
</clustering>
</event>
<event>
 9    1  0.1399746E-005  0.9255982E+02  0.7546771E-02  0.1297503E+00
         21   -1    0    0  501  502  0.00000000000E+00  0.00000000000E+00  0.46538106967E+02  0.46538106967E+02  0.00000000000E+00 0. -1.
          3   -1    0    0  502    0 -0.00000000000E+00 -0.00000000000E+00 -0.27784688582E+03  0.27784688582E+03  0.00000000000E+00 0. -1.
         23    2    1    2    0    0  0.10069420966E+02  0.11038826577E+02 -0.11911359342E+03  0.15087258773E+03  0.91385122746E+02 0.  0.
         23    2    1    2    0    0 -0.19216588226E+02  0.23939098737E+02 -0.90467833130E+02  0.13133179617E+03  0.90118001210E+02 0.  0.
        -13    1    3    3    0    0 -0.10234805077E+02  0.47766538907E+02 -0.49214766809E+02  0.69343253069E+02  0.00000000000E+00 0. -1.
         13    1    3    3    0    0  0.20304226043E+02 -0.36727712330E+02 -0.69898826614E+02  0.81529334660E+02  0.00000000000E+00 0.  1.
        -13    1    4    4    0    0 -0.13517717776E+02 -0.25109283803E+02 -0.28793181612E+00  0.28518200008E+02  0.00000000000E+00 0.  1.
         13    1    4    4    0    0 -0.56988704498E+01  0.49048382541E+02 -0.90179901314E+02  0.10281359616E+03  0.00000000000E+00 0. -1.
          3    1    1    2  501    0  0.91471672602E+01 -0.34977925315E+02 -0.21727352298E+02  0.42180608887E+02  0.00000000000E+00 0. -1.
<scales pt_clust_5="13000.00000" pt_clust_6="13000.00000" pt_clust_7="13000.00000" pt_clust_8="13000.00000" pt_clust_9="36.15420"></scales>
<clustering>
<clus scale="   36.154">  1  9  2 -1</clus>
<clus scale="   90.118">  7  8 -1 -1</clus>
<clus scale="   91.309">  1  7  2 -1</clus>
<clus scale="   91.385">  5  6 -1 -1</clus>
<clus scale="   36.154">  1  5  2 -1</clus>
</clustering>
</event>
<event>
 9    1  0.1399746E-005  0.1102873E+03  0.7546771E-02  0.1260523E+00
          2   -1    0    0  502    0 -0.00000000000E+00  0.00000000000E+00  0.31477975794E+03  0.31477975794E+03  0.00000000000E+00 0. -1.
         21   -1    0    0  501  502  0.00000000000E+00 -0.00000000000E+00 -0.67191806563E+02  0.67191806563E+02  0.00000000000E+00 0.  1.
         23    2    1    2    0    0 -0.15250545821E+02 -0.37275958991E+02  0.98409145170E+02  0.13985236035E+03  0.90841876775E+02 0.  0.
         23    2    1    2    0    0  0.28049574510E+02  0.76539252012E+02  0.15766212233E+03  0.19996012486E+03  0.92095987901E+02 0.  0.
        -11    1    3    3    0    0 -0.36528016706E+02 -0.11395409194E+02  0.25982941578E+01  0.38352346573E+02  0.00000000000E+00 0.  1.
         11    1    3    3    0    0  0.21277470885E+02 -0.25880549797E+02  0.95810851012E+02  0.10150001378E+03  0.00000000000E+00 0. -1.
        -13    1    4    4    0    0  0.67126525629E+01  0.50095312073E+02  0.14158563816E+02  0.52488712362E+02  0.00000000000E+00 0.  1.
         13    1    4    4    0    0  0.21336921947E+02  0.26443939939E+02  0.14350355852E+03  0.14747141250E+03  0.00000000000E+00 0. -1.
          2    1    1    2  501    0 -0.12799028689E+02 -0.39263293022E+02 -0.84833161245E+01  0.42159079292E+02  0.00000000000E+00 0. -1.
<scales pt_clust_5="13000.00000" pt_clust_6="13000.00000" pt_clust_7="13000.00000" pt_clust_8="13000.00000" pt_clust_9="41.29675"></scales>
<clustering>
<clus scale="   41.297">  2  9  1 -1</clus>
<clus scale="   90.842">  5  6 -1 -1</clus>
<clus scale="   92.096">  7  8 -1 -1</clus>
<clus scale="  109.242">  1  5  2 -1</clus>
<clus scale="   41.297">  2  5  1 -1</clus>
</clustering>
</event>
<event>
 9    1  0.1399746E-005  0.1200561E+03  0.7546771E-02  0.1252126E+00
         -1   -1    0    0    0  501 -0.00000000000E+00  0.00000000000E+00  0.43455985383E+03  0.43455985383E+03  0.00000000000E+00 0.  1.
         21   -1    0    0  501  502  0.00000000000E+00 -0.00000000000E+00 -0.67263799660E+02  0.67263799660E+02  0.00000000000E+00 0.  1.
         23    2    1    2    0    0 -0.38848194053E+02 -0.16134782998E+02  0.25776287191E+03  0.28290135731E+03  0.10872886659E+03 0.  0.
         23    2    1    2    0    0  0.45559106631E+02  0.49840261613E+02  0.13672758839E+03  0.17509728779E+03  0.86051977834E+02 0.  0.
        -11    1    3    3    0    0 -0.27992503301E+02  0.45754609583E+02  0.12484838905E+03  0.13588298196E+03  0.00000000000E+00 0. -1.
         11    1    3    3    0    0 -0.10855690752E+02 -0.61889392581E+02  0.13291448286E+03  0.14701837535E+03  0.00000000000E+00 0.  1.
        -13    1    4    4    0    0  0.62469270145E+02  0.61802642098E+02  0.11834838653E+03  0.14740528104E+03  0.00000000000E+00 0. -1.
         13    1    4    4    0    0 -0.16910163514E+02 -0.11962380485E+02  0.18379201852E+02  0.27692006747E+02  0.00000000000E+00 0.  1.
         -1    1    1    2    0  502 -0.67109125783E+01 -0.33705478615E+02 -0.27194406125E+02  0.43825008395E+02  0.00000000000E+00 0.  1.
<scales pt_clust_5="13000.00000" pt_clust_6="13000.00000" pt_clust_7="13000.00000" pt_clust_8="13000.00000" pt_clust_9="34.36707"></scales>
<clustering>
<clus scale="   34.367">  2  9  1 -1</clus>
<clus scale="   86.052">  7  8 -1 -1</clus>
<clus scale="   99.982">  2  7  1 -1</clus>
<clus scale="  108.729">  5  6 -1 -1</clus>
<clus scale="   34.367">  2  5  1 -1</clus>
</clustering>
</event>
<event>
 9    1  0.1399746E-005  0.1250754E+03  0.7546771E-02  0.1235117E+00
          1   -1    0    0  502    0 -0.00000000000E+00  0.00000000000E+00  0.74681885407E+03  0.74681885407E+03  0.00000000000E+00 0. -1.
         21   -1    0    0  501  502  0.00000000000E+00 -0.00000000000E+00 -0.30380470406E+02  0.30380470406E+02  0.00000000000E+00 0. -1.
         23    2    1    2    0    0 -0.78207782898E+02  0.25706576447E+02  0.46641769536E+03  0.48220879433E+03  0.90568037440E+02 0.  0.
         23    2    1    2    0    0  0.93818772501E+02 -0.98531485978E+01  0.23132302208E+03  0.26592789274E+03  0.91149640599E+02 0.  0.
        -11    1    3    3    0    0 -0.59181268020E+02 -0.27188172278E+02  0.28150766564E+03  0.28894322108E+03  0.00000000000E+00 0.  1.
         11    1    3    3    0    0 -0.19026514878E+02  0.52894748725E+02  0.18491002972E+03  0.19326557325E+03  0.00000000000E+00 0. -1.
        -13    1    4    4    0    0  0.87594714923E+01  0.22248150746E+02  0.86789980577E+01  0.25436854360E+02  0.00000000000E+00 0.  1.
         13    1    4    4    0    0  0.85059301008E+02 -0.32101299344E+02  0.22264402402E+03  0.24049103838E+03  0.00000000000E+00 0. -1.
          1    1    1    2  501    0 -0.15610989603E+02 -0.15853427849E+02  0.18697666226E+02  0.29062637410E+02  0.00000000000E+00 0. -1.
<scales pt_clust_5="13000.00000" pt_clust_6="13000.00000" pt_clust_7="13000.00000" pt_clust_8="13000.00000" pt_clust_9="22.24936"></scales>
<clustering>
<clus scale="   22.249">  2  9  1 -1</clus>
<clus scale="   90.568">  5  6 -1 -1</clus>
<clus scale="   91.150">  7  8 -1 -1</clus>
<clus scale="  124.652">  1  5  2 -1</clus>
<clus scale="   22.249">  2  5  1 -1</clus>
</clustering>
</event>
<event>
 9    1  0.1399746E-005  0.1381327E+03  0.7546771E-02  0.1217553E+00
          4   -1    0    0  502    0 -0.00000000000E+00  0.00000000000E+00  0.15265640222E+03  0.15265640222E+03  0.00000000000E+00 0. -1.
         21   -1    0    0  501  502  0.00000000000E+00 -0.00000000000E+00 -0.26491244742E+03  0.26491244742E+03  0.00000000000E+00 0. -1.
         23    2    1    2    0    0 -0.97405572234E+02  0.69695575257E+02  0.48434906883E+02  0.15835410369E+03  0.91568352813E+02 0.  0.
         23    2    1    2    0    0  0.15864626862E+02 -0.38683464340E+02 -0.12608954973E+03  0.16536415277E+03  0.98481631130E+02 0.  0.
        -13    1    3    3    0    0 -0.81141803396E+02  0.16614092879E+02 -0.27096312731E+01  0.82869550754E+02  0.00000000000E+00 0.  1.
         13    1    3    3    0    0 -0.16263768838E+02  0.53081482377E+02  0.51144538156E+02  0.75484552932E+02  0.00000000000E+00 0. -1.
        -13    1    4    4    0    0  0.37700306061E+02  0.46764137476E+01 -0.96299283091E+01  0.39190782614E+02  0.00000000000E+00 0.  1.
         13    1    4    4    0    0 -0.21835679199E+02 -0.43359878088E+02 -0.11645962142E+03  0.12617337015E+03  0.00000000000E+00 0. -1.
          4    1    1    2  501    0  0.81540945372E+02 -0.31012110917E+02 -0.34601402351E+02  0.93850593180E+02  0.00000000000E+00 0. -1.
<scales pt_clust_5="13000.00000" pt_clust_6="13000.00000" pt_clust_7="13000.00000" pt_clust_8="13000.00000" pt_clust_9="87.23919"></scales>
<clustering>
<clus scale="   87.239">  2  9  1 -1</clus>
<clus scale="   91.568">  5  6 -1 -1</clus>
<clus scale="   98.482">  7  8 -1 -1</clus>
<clus scale="  133.292">  1  5  2 -1</clus>
<clus scale="   87.239">  2  5  1 -1</clus>
</clustering>
</event>
<event>
 9    1  0.1399746E-005  0.1174198E+03  0.7546771E-02  0.1248666E+00
         21   -1    0    0  501  502  0.00000000000E+00  0.00000000000E+00  0.11526402092E+03  0.11526402092E+03  0.00000000000E+00 0.  1.
         -4   -1    0    0    0  501 -0.00000000000E+00 -0.00000000000E+00 -0.61790017053E+03  0.61790017053E+03  0.00000000000E+00 0.  1.
         23    2    1    2    0    0  0.54713749318E+02  0.48990427146E+02 -0.55397702994E+03  0.56671066750E+03  0.94216636749E+02 0.  0.
         23    2    1    2    0    0 -0.36045507143E+02 -0.27343137757E+02 -0.70049374458E+01  0.10148166191E+03  0.90567835287E+02 0.  0.
        -13    1    3    3    0    0 -0.25012395502E+02  0.15467708380E+02 -0.88247811704E+02  0.93019063647E+02  0.00000000000E+00 0. -1.
         13    1    3    3    0    0  0.79726144820E+02  0.33522718765E+02 -0.46572921824E+03  0.47369160385E+03  0.00000000000E+00 0.  1.
        -13    1    4    4    0    0 -0.65322449675E+02 -0.19309420436E+02 -0.15698618312E+02  0.69902237203E+02  0.00000000000E+00 0. -1.
         13    1    4    4    0    0  0.29276942533E+02 -0.80337173213E+01  0.86936808663E+01  0.31579424711E+02  0.00000000000E+00 0.  1.
         -4    1    1    2    0  502 -0.18668242176E+02 -0.21647289389E+02  0.58345817777E+02  0.64971862032E+02  0.00000000000E+00 0.  1.
<scales pt_clust_5="13000.00000" pt_clust_6="13000.00000" pt_clust_7="13000.00000" pt_clust_8="13000.00000" pt_clust_9="28.58511"></scales>
<clustering>
<clus scale="   28.585">  1  9  2 -1</clus>
<clus scale="   90.568">  7  8 -1 -1</clus>
<clus scale="   94.217">  5  6 -1 -1</clus>
<clus scale="  114.513">  1  7  2 -1</clus>
<clus scale="   28.585">  1  5  2 -1</clus>
</clustering>
</event>
<event>
 9    1  0.1399746E-005  0.1412218E+03  0.7546771E-02  0.1214005E+00
         21   -1    0    0  501  502  0.00000000000E+00  0.00000000000E+00  0.94390085730E+02  0.94390085730E+02  0.00000000000E+00 0. -1.
         -3   -1    0    0    0  501 -0.00000000000E+00 -0.00000000000E+00 -0.38395064172E+03  0.38395064172E+03  0.00000000000E+00 0.  1.
         23    2    1    2    0    0 -0.29505517991E+02  0.10105207798E+03 -0.27538600189E+03  0.30855931930E+03  0.91045622824E+02 0.  0.
         23    2    1    2    0    0  0.17392311224E+02 -0.78807937860E+02 -0.38439725892E+02  0.13470534637E+03  0.10077070137E+03 0.  0.
        -11    1    3    3    0    0 -0.52615237613E+02  0.36944148790E+02 -0.86635996944E+02  0.10788433309E+03  0.00000000000E+00 0.  1.
         11    1    3    3    0    0  0.23109719622E+02  0.64107929193E+02 -0.18875000495E+03  0.20067498622E+03  0.00000000000E+00 0. -1.
        -11    1    4    4    0    0 -0.28896790669E+02 -0.25322736074E+02  0.19668186197E+02  0.43163677108E+02  0.00000000000E+00 0. -1.
         11    1    4    4    0    0  0.46289101893E+02 -0.53485201786E+02 -0.58107912089E+02  0.91541669263E+02  0.00000000000E+00 0.  1.
         -3    1    1    2    0  502  0.12113206767E+02 -0.22244140123E+02  0.24265171789E+02  0.35076061779E+02  0.00000000000E+00 0.  1.
<scales pt_clust_5="13000.00000" pt_clust_6="13000.00000" pt_clust_7="13000.00000" pt_clust_8="13000.00000" pt_clust_9="25.32847"></scales>
<clustering>
<clus scale="   25.328">  1  9  2 -1</clus>
<clus scale="   91.046">  5  6 -1 -1</clus>
<clus scale="  100.771">  7  8 -1 -1</clus>
<clus scale="  134.455">  2  5  1 -1</clus>
<clus scale="   25.328">  1  5  2 -1</clus>
</clustering>
</event>
<event>
 9    1  0.1399746E-005  0.1142119E+03  0.7546771E-02  0.1253610E+00
         21   -1    0    0  501  502  0.00000000000E+00  0.00000000000E+00  0.57271676808E+02  0.57271676808E+02  0.00000000000E+00 0.  1.
          1   -1    0    0  502    0 -0.00000000000E+00 -0.00000000000E+00 -0.72068120109E+03  0.72068120109E+03  0.00000000000E+00 0. -1.
         23    2    1    2    0    0 -0.37058503016E+02  0.68558197003E+02 -0.53817403950E+03  0.55133496412E+03  0.90914173002E+02 0.  0.
         23    2    1    2    0    0  0.51217909449E+02  0.12407010152E+02 -0.68799251009E+02  0.12691384142E+03  0.92717733236E+02 0.  0.
        -11    1    3    3    0    0  0.17616639670E+01  0.79273373332E+02 -0.37094831414E+03  0.37932838404E+03  0.00000000000E+00 0. -1.
         11    1    3    3    0    0 -0.38820166983E+02 -0.10715176329E+02 -0.16722572536E+03  0.17200658008E+03  0.00000000000E+00 0.  1.
        -11    1    4    4    0    0  0.10585639808E+02  0.23676755184E+02  0.17209023422E+02  0.31125471777E+02  0.00000000000E+00 0.  1.
         11    1    4    4    0    0  0.40632269640E+02 -0.11269745032E+02 -0.86008274431E+02  0.95788369648E+02  0.00000000000E+00 0. -1.
          1    1    1    2  501    0 -0.14159406432E+02 -0.80965207155E+02 -0.56436233771E+02  0.99704072346E+02  0.00000000000E+00 0. -1.
<scales pt_clust_5="13000.00000" pt_clust_6="13000.00000" pt_clust_7="13000.00000" pt_clust_8="13000.00000" pt_clust_9="82.19400"></scales>
<clustering>
<clus scale="   82.194">  1  9  2 -1</clus>
<clus scale="   90.914">  5  6 -1 -1</clus>
<clus scale="   92.718">  7  8 -1 -1</clus>
<clus scale="  112.753">  2  5  1 -1</clus>
<clus scale="   82.194">  1  5  2 -1</clus>
</clustering>
</event>
<event>
 9    1  0.1399746E-005  0.9823391E+02  0.7546771E-02  0.1285194E+00
         -3   -1    0    0    0  501 -0.00000000000E+00  0.00000000000E+00  0.81168923668E+03  0.81168923668E+03  0.00000000000E+00 0.  1.
         21   -1    0    0  501  502  0.00000000000E+00 -0.00000000000E+00 -0.14818384477E+02  0.14818384477E+02  0.00000000000E+00 0.  1.
         23    2    1    2    0    0 -0.28293904800E+02  0.60414893229E+01  0.33387854131E+03  0.34734903262E+03  0.91320454853E+02 0.  0.
         23    2    1    2    0    0  0.44683428597E+02  0.67299181162E+01  0.33784369438E+03  0.35229684665E+03  0.89066299688E+02 0.  0.
        -11    1    3    3    0    0 -0.50459664481E+02 -0.25393835827E+02  0.17553003158E+03  0.18439581510E+03  0.00000000000E+00 0. -1.
         11    1    3    3    0    0  0.22165759681E+02  0.31435325149E+02  0.15834850973E+03  0.16295321753E+03  0.00000000000E+00 0.  1.
        -13    1    4    4    0    0  0.54973740549E+02 -0.27523766690E+02  0.25005993228E+03  0.25750658170E+03  0.00000000000E+00 0. -1.
         13    1    4    4    0    0 -0.10290311951E+02  0.34253684807E+02  0.87783762092E+02  0.94790264953E+02  0.00000000000E+00 0.  1.
         -3    1    1    2    0  502 -0.16389523797E+02 -0.12771407439E+02  0.12514861652E+03  0.12686174189E+03  0.00000000000E+00 0.  1.
<scales pt_clust_5="13000.00000" pt_clust_6="13000.00000" pt_clust_7="13000.00000" pt_clust_8="13000.00000" pt_clust_9="20.77801"></scales>
<clustering>
<clus scale="   20.778">  2  9  1 -1</clus>
<clus scale="   89.066">  7  8 -1 -1</clus>
<clus scale="   91.320">  5  6 -1 -1</clus>
<clus scale="   96.142">  2  7  1 -1</clus>
<clus scale="   20.778">  2  5  1 -1</clus>
</clustering>
</event>
<event>
 9    1  0.1399746E-005  0.2025707E+03  0.7546771E-02  0.1148373E+00
         21   -1    0    0  501  502  0.00000000000E+00  0.00000000000E+00  0.30910002222E+03  0.30910002222E+03  0.00000000000E+00 0. -1.
          1   -1    0    0  502    0 -0.00000000000E+00 -0.00000000000E+00 -0.47075624925E+03  0.47075624925E+03  0.00000000000E+00 0. -1.
         23    2    1    2    0    0 -0.16062804498E+03  0.45030582444E+01 -0.21420778585E+03  0.28207691205E+03  0.88660940802E+02 0.  0.
         23    2    1    2    0    0  0.21677014825E+03 -0.16247713921E+03 -0.62585249236E+02  0.29439737746E+03  0.96771816636E+02 0.  0.
        -11    1    4    4    0    0  0.62779733793E+02 -0.80637070659E+01 -0.40644788714E+02  0.75221786713E+02  0.00000000000E+00 0.  1.
         11    1    4    4    0    0  0.15399041446E+03 -0.15441343214E+03 -0.21940460521E+02  0.21917559075E+03  0.00000000000E+00 0. -1.
        -13    1    3    3    0    0 -0.12173570997E+03  0.40981151825E+02 -0.13276444616E+03  0.18473071226E+03  0.00000000000E+00 0.  1.
         13    1    3    3    0    0 -0.38892335009E+02 -0.36478093581E+02 -0.81443339686E+02  0.97346199786E+02  0.00000000000E+00 0. -1.
          1    1    1    2  501    0 -0.56142103272E+02  0.15797408096E+03  0.11513680805E+03  0.20338198196E+03  0.00000000000E+00 0. -1.
<scales pt_clust_5="13000.00000" pt_clust_6="13000.00000" pt_clust_7="13000.00000" pt_clust_8="13000.00000" pt_clust_9="167.65365"></scales>
<clustering>
<clus scale="   88.661">  7  8 -1 -1</clus>
<clus scale="   96.772">  5  6 -1 -1</clus>
<clus scale="  167.654">  1  9  2 -1</clus>
<clus scale="  198.824">  2  7  1 -1</clus>
<clus scale="  167.654">  1  5  2 -1</clus>
</clustering>
</event>
<event>
 9    1  0.1399746E-005  0.1007600E+03  0.7546771E-02  0.1280776E+00
         21   -1    0    0  501  502  0.00000000000E+00  0.00000000000E+00  0.67354407007E+03  0.67354407007E+03  0.00000000000E+00 0. -1.
          2   -1    0    0  502    0 -0.00000000000E+00 -0.00000000000E+00 -0.47190288214E+02  0.47190288214E+02  0.00000000000E+00 0. -1.
         23    2    1    2    0    0 -0.40604214120E+02  0.37847855870E+02  0.54916739708E+02  0.12206823305E+03  0.93827729495E+02 0.  0.
         23    2    1    2    0    0 -0.26964723121E+02 -0.95633344573E+01  0.21353267207E+03  0.23334282519E+03  0.89633243650E+02 0.  0.
        -11    1    4    4    0    0  0.29111403521E+02  0.13500644240E+02  0.93714493375E+02  0.99056284396E+02  0.00000000000E+00 0.  1.
         11    1    4    4    0    0 -0.56076126642E+02 -0.23063978697E+02  0.11981817869E+03  0.13428654079E+03  0.00000000000E+00 0. -1.
        -13    1    3    3    0    0 -0.58332238908E+02 -0.64848818303E+01  0.43282837856E+02  0.72925358012E+02  0.00000000000E+00 0.  1.
         13    1    3    3    0    0  0.17728024788E+02  0.44332737701E+02  0.11633901853E+02  0.49142875041E+02  0.00000000000E+00 0. -1.
          2    1    1    2  501    0  0.67568937241E+02 -0.28284521413E+02  0.35790437008E+03  0.36532330004E+03  0.00000000000E+00 0. -1.
<scales pt_clust_5="13000.00000" pt_clust_6="13000.00000" pt_clust_7="13000.00000" pt_clust_8="13000.00000" pt_clust_9="73.25009"></scales>
<clustering>
<clus scale="   73.250">  1  9  2 -1</clus>
<clus scale="   89.633">  5  6 -1 -1</clus>
<clus scale="   93.828">  7  8 -1 -1</clus>
<clus scale="   96.866">  1  5  2 -1</clus>
<clus scale="   73.250">  1  5  2 -1</clus>
</clustering>
</event>
<event>
 9    1  0.1399746E-005  0.1002853E+03  0.7546771E-02  0.1280701E+00
         21   -1    0    0  501  502  0.00000000000E+00  0.00000000000E+00  0.58188077373E+02  0.58188077373E+02  0.00000000000E+00 0.  1.
         -1   -1    0    0    0  501 -0.00000000000E+00 -0.00000000000E+00 -0.33235317894E+03  0.33235317894E+03  0.00000000000E+00 0.  1.
         23    2    1    2    0    0  0.21916187248E+02 -0.23596930958E+02 -0.16570889531E+03  0.19304368670E+03  0.93644501055E+02 0.  0.
         23    2    1    2    0    0  0.18670357097E+02  0.56260112077E+02 -0.92396975650E+02  0.14298105954E+03  0.91611133777E+02 0.  0.
        -13    1    4    4    0    0 -0.15933594467E+02  0.59449622501E+02 -0.88800606359E+02  0.10804482745E+03  0.00000000000E+00 0.  1.
         13    1    4    4    0    0  0.34603951564E+02 -0.31895104248E+01 -0.35963692907E+01  0.34936232090E+02  0.00000000000E+00 0. -1.
        -13    1    3    3    0    0  0.28076531840E+02 -0.48984565678E+02 -0.15472423559E+03  0.16470388093E+03  0.00000000000E+00 0.  1.
         13    1    3    3    0    0 -0.61603445915E+01  0.25387634721E+02 -0.10984659720E+02  0.28339805775E+02  0.00000000000E+00 0. -1.
         -1    1    1    2    0  502 -0.40586544345E+02 -0.32663181119E+02 -0.16059230609E+02  0.54516510072E+02  0.00000000000E+00 0.  1.
<scales pt_clust_5="13000.00000" pt_clust_6="13000.00000" pt_clust_7="13000.00000" pt_clust_8="13000.00000" pt_clust_9="52.09751"></scales>
<clustering>
<clus scale="   52.098">  1  9  2 -1</clus>
<clus scale="   91.611">  5  6 -1 -1</clus>
<clus scale="   93.645">  7  8 -1 -1</clus>
<clus scale="   98.389">  1  5  2 -1</clus>
<clus scale="   52.098">  1  5  2 -1</clus>
</clustering>
</event>
<event>
 9    1  0.1399746E-005  0.9400728E+02  0.7546771E-02  0.1294661E+00
         21   -1    0    0  501  502  0.00000000000E+00  0.00000000000E+00  0.31191291031E+02  0.31191291031E+02  0.00000000000E+00 0. -1.
          2   -1    0    0  502    0 -0.00000000000E+00 -0.00000000000E+00 -0.86912472517E+03  0.86912472517E+03  0.00000000000E+00 0. -1.
         23    2    1    2    0    0 -0.40687543655E+02  0.14959109180E+01 -0.50253752806E+03  0.51216325905E+03  0.90052889210E+02 0.  0.
         23    2    1    2    0    0 -0.45612988144E+02 -0.21456455636E+02 -0.20716471026E+03  0.23230204424E+03  0.92228511883E+02 0.  0.
        -11    1    4    4    0    0 -0.32090559375E+01 -0.52470051779E+02 -0.10426085323E+03  0.11676356405E+03  0.00000000000E+00 0.  1.
         11    1    4    4    0    0 -0.42403932206E+02  0.31013596142E+02 -0.10290385704E+03  0.11553848019E+03  0.00000000000E+00 0. -1.
        -13    1    3    3    0    0 -0.30439580106E+02  0.44886995861E+02 -0.27222453341E+03  0.27757450716E+03  0.00000000000E+00 0.  1.
         13    1    3    3    0    0 -0.10247963549E+02 -0.43391084943E+02 -0.23031299465E+03  0.23458875189E+03  0.00000000000E+00 0. -1.
          2    1    1    2  501    0  0.86300531799E+02  0.19960544719E+02 -0.12823119582E+03  0.15585071291E+03  0.00000000000E+00 0. -1.
<scales pt_clust_5="13000.00000" pt_clust_6="13000.00000" pt_clust_7="13000.00000" pt_clust_8="13000.00000" pt_clust_9="88.57881"></scales>
<clustering>
<clus scale="   88.579">  1  9  2 -1</clus>
<clus scale="   90.053">  7  8 -1 -1</clus>
<clus scale="   91.874">  2  7  1 -1</clus>
<clus scale="   92.229">  5  6 -1 -1</clus>
<clus scale="   88.579">  1  5  2 -1</clus>
</clustering>
</event>
<event>
 9    1  0.1399746E-005  0.1577248E+03  0.7546771E-02  0.1214833E+00
         21   -1    0    0  501  502  0.00000000000E+00  0.00000000000E+00  0.39242236459E+03  0.39242236459E+03  0.00000000000E+00 0. -1.
          4   -1    0    0  502    0 -0.00000000000E+00 -0.00000000000E+00 -0.34045030690E+03  0.34045030690E+03  0.00000000000E+00 0. -1.
         23    2    1    2    0    0  0.25216069578E+01 -0.19935378659E+02 -0.21316537424E+03  0.23330852504E+03  0.92680166465E+02 0.  0.
         23    2    1    2    0    0 -0.65282868302E+01  0.14824600253E+03 -0.32206249553E+02  0.17569235917E+03  0.88380239668E+02 0.  0.
        -13    1    4    4    0    0 -0.47103090332E+02  0.91186488266E+02 -0.16748752552E+02  0.10399133364E+03  0.00000000000E+00 0. -1.
         13    1    4    4    0    0  0.40574803502E+02  0.57059514266E+02 -0.15457497001E+02  0.71701025523E+02  0.00000000000E+00 0.  1.
        -13    1    3    3    0    0 -0.37327761839E+02 -0.36008085862E+02 -0.11635470870E+03  0.12739058948E+03  0.00000000000E+00 0.  1.
         13    1    3    3    0    0  0.39849368797E+02  0.16072707203E+02 -0.96810665543E+02  0.10591793556E+03  0.00000000000E+00 0. -1.
          4    1    1    2  501    0  0.40066798724E+01 -0.12831062387E+03  0.29734368148E+03  0.32387178728E+03  0.00000000000E+00 0. -1.
<scales pt_clust_5="13000.00000" pt_clust_6="13000.00000" pt_clust_7="13000.00000" pt_clust_8="13000.00000" pt_clust_9="130.63707"></scales>
<clustering>
<clus scale="   88.380">  5  6 -1 -1</clus>
<clus scale="   92.680">  7  8 -1 -1</clus>
<clus scale="   94.833">  2  7  1 -1</clus>
<clus scale="  130.637">  1  9  2 -1</clus>
<clus scale="  130.637">  1  5  2 -1</clus>
</clustering>
</event>
<event>
 9    1  0.1399746E-005  0.2094834E+03  0.7546771E-02  0.1142120E+00
          2   -1    0    0  502    0 -0.00000000000E+00  0.00000000000E+00  0.89587064339E+03  0.89587064339E+03  0.00000000000E+00 0. -1.
         21   -1    0    0  501  502  0.00000000000E+00 -0.00000000000E+00 -0.70171112427E+02  0.70171112427E+02  0.00000000000E+00 0. -1.
         23    2    1    2    0    0  0.15330667375E+03 -0.12673756988E+03  0.59061092685E+03  0.63001622097E+03  0.92378698487E+02 0.  0.
         23    2    1    2    0    0 -0.13034543485E+03  0.10802066375E+03  0.23848268382E+03  0.30620841151E+03  0.90725986429E+02 0.  0.
        -11    1    4    4    0    0 -0.10125448450E+03  0.11460725037E+03  0.22810863792E+03  0.27462855490E+03  0.00000000000E+00 0.  1.
         11    1    4    4    0    0 -0.29090950349E+02 -0.65865866196E+01  0.10374045900E+02  0.31579856615E+02  0.00000000000E+00 0. -1.
        -13    1    3    3    0    0  0.72165283249E+02 -0.44832162917E+01  0.18026065738E+03  0.19422109035E+03  0.00000000000E+00 0.  1.
         13    1    3    3    0    0  0.81141390504E+02 -0.12225435359E+03  0.41035026947E+03  0.43579513062E+03  0.00000000000E+00 0. -1.
          2    1    1    2  501    0 -0.22961238902E+02  0.18716906133E+02 -0.33940797067E+01  0.29817123338E+02  0.00000000000E+00 0. -1.
<scales pt_clust_5="13000.00000" pt_clust_6="13000.00000" pt_clust_7="13000.00000" pt_clust_8="13000.00000" pt_clust_9="29.62332"></scales>
<clustering>
<clus scale="   29.623">  2  9  1 -1</clus>
<clus scale="   90.726">  5  6 -1 -1</clus>
<clus scale="   92.379">  7  8 -1 -1</clus>
<clus scale="  208.760">  2  5  1 -1</clus>
<clus scale="   29.623">  2  5  1 -1</clus>
</clustering>
</event>
<event>
 9    1  0.1399746E-005  0.1499453E+03  0.7546771E-02  0.1216575E+00
         21   -1    0    0  501  502  0.00000000000E+00  0.00000000000E+00  0.28196048824E+03  0.28196048824E+03  0.00000000000E+00 0.  1.
         -3   -1    0    0    0  501 -0.00000000000E+00 -0.00000000000E+00 -0.46039812491E+03  0.46039812491E+03  0.00000000000E+00 0.  1.
         23    2    1    2    0    0 -0.50476718894E+02  0.20535884426E+02 -0.29588050202E+03  0.31442298775E+03  0.91361491058E+02 0.  0.
         23    2    1    2    0    0  0.15763430372E+03  0.17742133234E+02 -0.79718522224E+02  0.20029431243E+03  0.92733013555E+02 0.  0.
        -11    1    4    4    0    0  0.20649949002E+02 -0.16087945669E+01  0.20749214453E+02  0.29317887273E+02  0.00000000000E+00 0. -1.
         11    1    4    4    0    0  0.13698435472E+03  0.19350927801E+02 -0.10046773668E+03  0.17097642515E+03  0.00000000000E+00 0.  1.
        -13    1    3    3    0    0  0.23500917606E+02  0.11151222175E+02 -0.38548249422E+02  0.46503875299E+02  0.00000000000E+00 0. -1.
         13    1    3    3    0    0 -0.73977636499E+02  0.93846622516E+01 -0.25733225260E+03  0.26791911245E+03  0.00000000000E+00 0.  1.
         -3    1    1    2    0  502 -0.10715758483E+03 -0.38278017661E+02  0.19716138757E+03  0.22764131298E+03  0.00000000000E+00 0.  1.
<scales pt_clust_5="13000.00000" pt_clust_6="13000.00000" pt_clust_7="13000.00000" pt_clust_8="13000.00000" pt_clust_9="117.83122"></scales>
<clustering>
<clus scale="   91.361">  7  8 -1 -1</clus>
<clus scale="   92.733">  5  6 -1 -1</clus>
<clus scale="  106.379">  2  7  1 -1</clus>
<clus scale="  117.831">  1  9  2 -1</clus>
<clus scale="  117.831">  1  5  2 -1</clus>
</clustering>
</event>
<event>
 9    1  0.1399746E-005  0.9188670E+02  0.7546771E-02  0.1299228E+00
         21   -1    0    0  501  502  0.00000000000E+00  0.00000000000E+00  0.13014502823E+03  0.13014502823E+03  0.00000000000E+00 0. -1.
         -1   -1    0    0    0  501 -0.00000000000E+00 -0.00000000000E+00 -0.19838061630E+03  0.19838061630E+03  0.00000000000E+00 0.  1.
         23    2    1    2    0    0 -0.31162841014E+01 -0.90780995786E+01 -0.13124816361E+03  0.16050337262E+03  0.91886500921E+02 0.  0.
         23    2    1    2    0    0 -0.12076216232E+02 -0.34097993471E+02  0.98453751619E+01  0.97867170363E+02  0.90402120913E+02 0.  0.
        -11    1    4    4    0    0  0.27538448366E+02  0.16703072933E+02 -0.23819256802E+01  0.32296011422E+02  0.00000000000E+00 0.  1.
         11    1    4    4    0    0 -0.39614664598E+02 -0.50801066405E+02  0.12227300842E+02  0.65571158941E+02  0.00000000000E+00 0. -1.
        -13    1    3    3    0    0  0.20206689088E+02  0.36000319980E+02 -0.51996708309E+02  0.66392702894E+02  0.00000000000E+00 0.  1.
         13    1    3    3    0    0 -0.23322973189E+02 -0.45078419558E+02 -0.79251455301E+02  0.94110669722E+02  0.00000000000E+00 0. -1.
         -1    1    1    2    0  502  0.15192500333E+02  0.43176093050E+02  0.53167200383E+02  0.70155101554E+02  0.00000000000E+00 0.  1.
<scales pt_clust_5="13000.00000" pt_clust_6="13000.00000" pt_clust_7="13000.00000" pt_clust_8="13000.00000" pt_clust_9="45.77103"></scales>
<clustering>
<clus scale="   45.771">  1  9  2 -1</clus>
<clus scale="   90.402">  5  6 -1 -1</clus>
<clus scale="   90.402">  1  5  2 -1</clus>
<clus scale="   91.887">  7  8 -1 -1</clus>
<clus scale="   45.771">  1  5  2 -1</clus>
</clustering>
</event>
<event>
 9    1  0.1399746E-005  0.1323934E+03  0.7546771E-02  0.1227203E+00
          1   -1    0    0  502    0 -0.00000000000E+00  0.00000000000E+00  0.66994584066E+03  0.66994584066E+03  0.00000000000E+00 0. -1.
         21   -1    0    0  501  502  0.00000000000E+00 -0.00000000000E+00 -0.42192332569E+02  0.42192332569E+02  0.00000000000E+00 0.  1.
         23    2    1    2    0    0  0.11638047390E+02  0.97339505060E+02  0.34901369841E+03  0.37415625647E+03  0.92584659559E+02 0.  0.
         23    2    1    2    0    0 -0.33332448839E+02 -0.86536670217E+02  0.28733349504E+03  0.31226811263E+03  0.79694349590E+02 0.  0.
        -13    1    4    4    0    0 -0.41177329731E+01 -0.66313378383E+02  0.90596557742E+02  0.11234836960E+03  0.00000000000E+00 0.  1.
         13    1    4    4    0    0 -0.29214715866E+02 -0.20223291835E+02  0.19673693730E+03  0.19991974303E+03  0.00000000000E+00 0. -1.
        -13    1    3    3    0    0 -0.35373465774E+01  0.11289539968E+03  0.29911092661E+03  0.31972680605E+03  0.00000000000E+00 0.  1.
         13    1    3    3    0    0  0.15175393967E+02 -0.15555894623E+02  0.49902771792E+02  0.54429450411E+02  0.00000000000E+00 0. -1.
          1    1    1    2  501    0  0.21694401449E+02 -0.10802834842E+02 -0.85936853555E+01  0.25713804131E+02  0.00000000000E+00 0. -1.
<scales pt_clust_5="13000.00000" pt_clust_6="13000.00000" pt_clust_7="13000.00000" pt_clust_8="13000.00000" pt_clust_9="24.23527"></scales>
<clustering>
<clus scale="   24.235">  2  9  1 -1</clus>
<clus scale="   79.694">  5  6 -1 -1</clus>
<clus scale="   92.585">  7  8 -1 -1</clus>
<clus scale="  123.723">  2  5  1 -1</clus>
<clus scale="   24.235">  2  5  1 -1</clus>
</clustering>
</event>
<event>
 9    1  0.1399746E-005  0.2413374E+03  0.7546771E-02  0.1121064E+00
          1   -1    0    0  502    0 -0.00000000000E+00  0.00000000000E+00  0.21615961707E+03  0.21615961707E+03  0.00000000000E+00 0. -1.
         21   -1    0    0  501  502  0.00000000000E+00 -0.00000000000E+00 -0.11007622147E+04  0.11007622147E+04  0.00000000000E+00 0. -1.
         23    2    1    2    0    0  0.21107264031E+03  0.11619927704E+02  0.10956784958E+03  0.26236695852E+03  0.11020265449E+03 0.  0.
         23    2    1    2    0    0 -0.23803808177E+03 -0.81340769057E+02 -0.63203269349E+03  0.68478212761E+03  0.78630703767E+02 0.  0.
        -11    1    3    3    0    0  0.43594751028E+02 -0.14239930307E+02 -0.19011560292E+02  0.49645919843E+02  0.00000000000E+00 0.  1.
         11    1    3    3    0    0  0.16747788928E+03  0.25859858012E+02  0.12857940987E+03  0.21272103868E+03  0.00000000000E+00 0. -1.
        -11    1    4    4    0    0 -0.44196539822E+02 -0.11096054320E+01 -0.19575416398E+03  0.20068447392E+03  0.00000000000E+00 0.  1.
         11    1    4    4    0    0 -0.19384154194E+03 -0.80231163625E+02 -0.43627852950E+03  0.48409765369E+03  0.00000000000E+00 0. -1.
          1    1    1    2  501    0  0.26965441459E+02  0.69720841352E+02 -0.36213775371E+03  0.36977274564E+03  0.00000000000E+00 0. -1.
<scales pt_clust_5="13000.00000" pt_clust_6="13000.00000" pt_clust_7="13000.00000" pt_clust_8="13000.00000" pt_clust_9="74.75380"></scales>
<clustering>
<clus scale="   74.754">  2  9  1 -1</clus>
<clus scale="   78.631">  7  8 -1 -1</clus>
<clus scale="  110.203">  5  6 -1 -1</clus>
<clus scale="  228.652">  2  7  1 -1</clus>
<clus scale="   74.754">  2  5  1 -1</clus>
</clustering>
</event>
<event>
 9    1  0.1399746E-005  0.1019254E+03  0.7546771E-02  0.1278211E+00
          2   -1    0    0  502    0 -0.00000000000E+00  0.00000000000E+00  0.22080804285E+03  0.22080804285E+03  0.00000000000E+00 0. -1.
         21   -1    0    0  501  502  0.00000000000E+00 -0.00000000000E+00 -0.12756970709E+03  0.12756970709E+03  0.00000000000E+00 0. -1.
         23    2    1    2    0    0  0.45161325169E+02  0.19850516245E+02  0.15765818725E+03  0.18903383839E+03  0.91891782893E+02 0.  0.
         23    2    1    2    0    0 -0.25719098001E+02 -0.12484735888E+02 -0.73973776650E+00  0.92355764815E+02  0.87816282377E+02 0.  0.
        -11    1    4    4    0    0  0.23768167734E+02 -0.50203282451E+01 -0.26599027727E+02  0.36022739612E+02  0.00000000000E+00 0. -1.
         11    1    4    4    0    0 -0.49487265735E+02 -0.74644076429E+01  0.25859289960E+02  0.56333025204E+02  0.00000000000E+00 0.  1.
        -11    1    3    3    0    0  0.54910169140E+02 -0.15354786187E+02  0.13369508911E+03  0.14534535764E+03  0.00000000000E+00 0. -1.
         11    1    3    3    0    0 -0.97488439706E+01  0.35205302433E+02  0.23963098138E+02  0.43688480753E+02  0.00000000000E+00 0.  1.
          2    1    1    2  501    0 -0.19442227169E+02 -0.73657803576E+01 -0.63680113725E+02  0.66988146725E+02  0.00000000000E+00 0. -1.
<scales pt_clust_5="13000.00000" pt_clust_6="13000.00000" pt_clust_7="13000.00000" pt_clust_8="13000.00000" pt_clust_9="20.79074"></scales>
<clustering>
<clus scale="   20.791">  2  9  1 -1</clus>
<clus scale="   87.816">  5  6 -1 -1</clus>
<clus scale="   91.892">  7  8 -1 -1</clus>
<clus scale="   98.267">  2  5  1 -1</clus>
<clus scale="   20.791">  2  5  1 -1</clus>
</clustering>
</event>
<event>
 9    1  0.1399746E-005  0.2153768E+03  0.7546771E-02  0.1137412E+00
          2   -1    0    0  502    0 -0.00000000000E+00  0.00000000000E+00  0.12001757960E+04  0.12001757960E+04  0.00000000000E+00 0. -1.
         21   -1    0    0  501  502  0.00000000000E+00 -0.00000000000E+00 -0.10351166869E+03  0.10351166869E+03  0.00000000000E+00 0.  1.
         23    2    1    2    0    0  0.32473497960E+02  0.17342520505E+03  0.47287594585E+03  0.51261901457E+03  0.89642423713E+02 0.  0.
         23    2    1    2    0    0 -0.17379641425E+03 -0.22452841323E+03  0.25241325560E+03  0.39044014344E+03  0.90071372003E+02 0.  0.
        -11    1    4    4    0    0 -0.10642573433E+03 -0.73580429174E+02  0.13944954438E+03  0.19022799981E+03  0.00000000000E+00 0.  1.
         11    1    4    4    0    0 -0.67370679918E+02 -0.15094798406E+03  0.11296371122E+03  0.20021214363E+03  0.00000000000E+00 0. -1.
        -11    1    3    3    0    0  0.17252995973E+02  0.10947494955E+03  0.17176045919E+03  0.20441155983E+03  0.00000000000E+00 0.  1.
         11    1    3    3    0    0  0.15220501987E+02  0.63950255494E+02  0.30111548665E+03  0.30820745475E+03  0.00000000000E+00 0. -1.
          2    1    1    2  501    0  0.14132291629E+03  0.51103208184E+02  0.37137492587E+03  0.40062830669E+03  0.00000000000E+00 0. -1.
<scales pt_clust_5="13000.00000" pt_clust_6="13000.00000" pt_clust_7="13000.00000" pt_clust_8="13000.00000" pt_clust_9="150.27883"></scales>
<clustering>
<clus scale="   89.642">  7  8 -1 -1</clus>
<clus scale="   90.071">  5  6 -1 -1</clus>
<clus scale="  150.279">  2  9  1 -1</clus>
<clus scale="  215.198">  1  7  2 -1</clus>
<clus scale="  150.279">  2  5  1 -1</clus>
</clustering>
</event>
<event>
 9    1  0.1399746E-005  0.1367398E+03  0.7546771E-02  0.1219054E+00
          1   -1    0    0  502    0 -0.00000000000E+00  0.00000000000E+00  0.37991802609E+03  0.37991802609E+03  0.00000000000E+00 0. -1.
         21   -1    0    0  501  502  0.00000000000E+00 -0.00000000000E+00 -0.11282423614E+03  0.11282423614E+03  0.00000000000E+00 0.  1.
         23    2    1    2    0    0  0.92112447640E+02  0.31109378608E+02  0.28477299358E+03  0.31471188668E+03  0.92170588045E+02 0.  0.
         23    2    1    2    0    0 -0.11173210480E+03 -0.49897407143E+02 -0.14839930835E+02  0.15071769655E+03  0.86728230837E+02 0.  0.
        -11    1    3    3    0    0 -0.69695164959E+01  0.33794642635E+02  0.83787511605E+02  0.90614563575E+02  0.00000000000E+00 0.  1.
         11    1    3    3    0    0  0.99081964136E+02 -0.26852640275E+01  0.20098548197E+03  0.22409732311E+03  0.00000000000E+00 0. -1.
        -13    1    4    4    0    0 -0.66530579519E+01 -0.42519463238E+02 -0.14390455116E+02  0.45378994399E+02  0.00000000000E+00 0. -1.
         13    1    4    4    0    0 -0.10507904685E+03 -0.73779439050E+01 -0.44947571869E+00  0.10533870216E+03  0.00000000000E+00 0.  1.
          1    1    1    2  501    0  0.19619657163E+02  0.18788028536E+02 -0.28392727905E+01  0.27312678987E+02  0.00000000000E+00 0. -1.
<scales pt_clust_5="13000.00000" pt_clust_6="13000.00000" pt_clust_7="13000.00000" pt_clust_8="13000.00000" pt_clust_9="27.16470"></scales>
<clustering>
<clus scale="   27.165">  2  9  1 -1</clus>
<clus scale="   86.728">  7  8 -1 -1</clus>
<clus scale="   92.171">  5  6 -1 -1</clus>
<clus scale="  133.132">  2  7  1 -1</clus>
<clus scale="   27.165">  2  5  1 -1</clus>
</clustering>
</event>
<event>
 9    1  0.1399746E-005  0.1442215E+03  0.7546771E-02  0.1207868E+00
         -1   -1    0    0    0  501 -0.00000000000E+00  0.00000000000E+00  0.10302642959E+03  0.10302642959E+03  0.00000000000E+00 0.  1.
         21   -1    0    0  501  502  0.00000000000E+00 -0.00000000000E+00 -0.82781868213E+03  0.82781868213E+03  0.00000000000E+00 0. -1.
         23    2    1    2    0    0  0.18494990158E+02 -0.10346876712E+03 -0.76500286527E+01  0.13900437501E+03  0.90641286979E+02 0.  0.
         23    2    1    2    0    0  0.51092509362E+02  0.17731973657E+03 -0.61215136243E+03  0.64582886469E+03  0.91175097761E+02 0.  0.
        -11    1    3    3    0    0 -0.35003045408E+02 -0.23726673250E+02 -0.76837316346E+01  0.42979157079E+02  0.00000000000E+00 0.  1.
         11    1    3    3    0    0  0.53498035567E+02 -0.79742093866E+02  0.33702981889E-01  0.96025217935E+02  0.00000000000E+00 0. -1.
        -11    1    4    4    0    0  0.67302794274E+02  0.98548994203E+02 -0.43867623992E+03  0.45461897655E+03  0.00000000000E+00 0. -1.
         11    1    4    4    0    0 -0.16210284912E+02  0.78770742368E+02 -0.17347512251E+03  0.19120988814E+03  0.00000000000E+00 0.  1.
         -1    1    1    2    0  502 -0.69587499520E+02 -0.73850969455E+02 -0.10499086146E+03  0.14601187201E+03  0.00000000000E+00 0.  1.
<scales pt_clust_5="13000.00000" pt_clust_6="13000.00000" pt_clust_7="13000.00000" pt_clust_8="13000.00000" pt_clust_9="101.47116"></scales>
<clustering>
<clus scale="   90.641">  5  6 -1 -1</clus>
<clus scale="   91.175">  7  8 -1 -1</clus>
<clus scale="  101.471">  2  9  1 -1</clus>
<clus scale="  143.885">  1  5  2 -1</clus>
<clus scale="  101.471">  2  5  1 -1</clus>
</clustering>
</event>
<event>
 9    1  0.1399746E-005  0.1191650E+03  0.7546771E-02  0.1244678E+00
         21   -1    0    0  501  502  0.00000000000E+00  0.00000000000E+00  0.80280182045E+02  0.80280182045E+02  0.00000000000E+00 0.  1.
         -2   -1    0    0    0  501 -0.00000000000E+00 -0.00000000000E+00 -0.76377981716E+03  0.76377981716E+03  0.00000000000E+00 0.  1.
         23    2    1    2    0    0 -0.46811083938E+02  0.42785102254E+02 -0.40662241079E+03  0.42189900657E+03  0.92925476749E+02 0.  0.
         23    2    1    2    0    0  0.91774202881E+01 -0.11939866624E+03 -0.29805483382E+03  0.33421543010E+03  0.92320112696E+02 0.  0.
        -11    1    3    3    0    0 -0.72424848365E+02  0.39806253119E+02 -0.25380027794E+03  0.26691661157E+03  0.00000000000E+00 0. -1.
         11    1    3    3    0    0  0.25613764426E+02  0.29788491355E+01 -0.15282213285E+03  0.15498239500E+03  0.00000000000E+00 0.  1.
        -13    1    4    4    0    0 -0.37536815290E+02 -0.32577876512E+02 -0.70880898855E+02  0.86570389642E+02  0.00000000000E+00 0. -1.
         13    1    4    4    0    0  0.46714235578E+02 -0.86820789727E+02 -0.22717393497E+03  0.24764504046E+03  0.00000000000E+00 0.  1.
         -2    1    1    2    0  502  0.37633663650E+02  0.76613563985E+02  0.21177609501E+02  0.87945562540E+02  0.00000000000E+00 0.  1.
<scales pt_clust_5="13000.00000" pt_clust_6="13000.00000" pt_clust_7="13000.00000" pt_clust_8="13000.00000" pt_clust_9="85.35766"></scales>
<clustering>
<clus scale="   85.358">  1  9  2 -1</clus>
<clus scale="   92.320">  7  8 -1 -1</clus>
<clus scale="   92.925">  5  6 -1 -1</clus>
<clus scale="  118.693">  1  7  2 -1</clus>
<clus scale="   85.358">  1  5  2 -1</clus>
</clustering>
</event>
<event>
 9    1  0.1399746E-005  0.1215732E+03  0.7546771E-02  0.1241332E+00
          1   -1    0    0  502    0 -0.00000000000E+00  0.00000000000E+00  0.11306155769E+03  0.11306155769E+03  0.00000000000E+00 0. -1.
         21   -1    0    0  501  502  0.00000000000E+00 -0.00000000000E+00 -0.43231791873E+03  0.43231791873E+03  0.00000000000E+00 0. -1.
         23    2    1    2    0    0  0.50252237024E+02 -0.69733618469E+02  0.20484427234E+02  0.12715949755E+03  0.91443212909E+02 0.  0.
         23    2    1    2    0    0  0.23859804498E+01  0.71669092515E+02 -0.58187834130E+02  0.13178221253E+03  0.94013699925E+02 0.  0.
        -11    1    4    4    0    0 -0.14243371294E+02  0.91140304872E+02 -0.49841322080E+02  0.10485030369E+03  0.00000000000E+00 0. -1.
         11    1    4    4    0    0  0.16629351744E+02 -0.19471212357E+02 -0.83465120507E+01  0.26931908835E+02  0.00000000000E+00 0.  1.
        -13    1    3    3    0    0 -0.16717529997E+02 -0.30957775841E+02 -0.19318140771E+02  0.40137890541E+02  0.00000000000E+00 0.  1.
         13    1    3    3    0    0  0.66969767021E+02 -0.38775842627E+02  0.39802568005E+02  0.87021607007E+02  0.00000000000E+00 0. -1.
          1    1    1    2  501    0 -0.52638217473E+02 -0.19354740462E+01 -0.28155295414E+03  0.28643776634E+03  0.00000000000E+00 0. -1.
<scales pt_clust_5="13000.00000" pt_clust_6="13000.00000" pt_clust_7="13000.00000" pt_clust_8="13000.00000" pt_clust_9="52.67379"></scales>
<clustering>
<clus scale="   52.674">  2  9  1 -1</clus>
<clus scale="   91.443">  7  8 -1 -1</clus>
<clus scale="   94.014">  5  6 -1 -1</clus>
<clus scale="  119.597">  1  7  2 -1</clus>
<clus scale="   52.674">  2  5  1 -1</clus>
</clustering>
</event>
<event>
 9    1  0.1399746E-005  0.1524206E+03  0.7546771E-02  0.1203443E+00
         21   -1    0    0  501  502  0.00000000000E+00  0.00000000000E+00  0.82762598697E+03  0.82762598697E+03  0.00000000000E+00 0. -1.
         -4   -1    0    0    0  501 -0.00000000000E+00 -0.00000000000E+00 -0.82595861527E+02  0.82595861527E+02  0.00000000000E+00 0.  1.
         23    2    1    2    0    0  0.10355821439E+03 -0.65568460115E+02  0.20204282827E+02  0.15631066362E+03  0.94875095723E+02 0.  0.
         23    2    1    2    0    0 -0.11891899947E+03  0.29611715801E+01  0.37375055453E+03  0.39696653342E+03  0.61175605210E+02 0.  0.
        -13    1    4    4    0    0 -0.67513582027E+02  0.25513022180E+02  0.26407445307E+03  0.27375959312E+03  0.00000000000E+00 0. -1.
         13    1    4    4    0    0 -0.51405417441E+02 -0.22551850599E+02  0.10967610146E+03  0.12320694031E+03  0.00000000000E+00 0.  1.
        -13    1    3    3    0    0  0.96011684704E+02 -0.10479518927E+02  0.27021952637E+02  0.10029082631E+03  0.00000000000E+00 0.  1.
         13    1    3    3    0    0  0.75465296844E+01 -0.55088941188E+02 -0.68176698100E+01  0.56019837318E+02  0.00000000000E+00 0. -1.
         -4    1    1    2    0  502  0.15360785079E+02  0.62607288535E+02  0.35107528808E+03  0.35694465145E+03  0.00000000000E+00 0.  1.
<scales pt_clust_5="13000.00000" pt_clust_6="13000.00000" pt_clust_7="13000.00000" pt_clust_8="13000.00000" pt_clust_9="64.46415"></scales>
<clustering>
<clus scale="   61.176">  5  6 -1 -1</clus>
<clus scale="   64.464">  1  9  2 -1</clus>
<clus scale="   94.875">  7  8 -1 -1</clus>
<clus scale="  134.064">  1  5  2 -1</clus>
<clus scale="   64.464">  1  5  2 -1</clus>
</clustering>
</event>
<event>
 9    1  0.1399746E-005  0.1129345E+03  0.7546771E-02  0.1255578E+00
         21   -1    0    0  501  502  0.00000000000E+00  0.00000000000E+00  0.26437850127E+03  0.26437850127E+03  0.00000000000E+00 0. -1.
          2   -1    0    0  502    0 -0.00000000000E+00 -0.00000000000E+00 -0.92074148994E+02  0.92074148994E+02  0.00000000000E+00 0. -1.
         23    2    1    2    0    0 -0.67653333528E+02  0.30384653278E+02 -0.66734330760E+01  0.11756449514E+03  0.90976233799E+02 0.  0.
         23    2    1    2    0    0  0.51519149805E+02 -0.18032695630E+02  0.66331097021E+02  0.12442349187E+03  0.90011054812E+02 0.  0.
        -11    1    4    4    0    0 -0.13932428566E+02  0.23387080157E+02  0.23203520323E+02  0.35769700018E+02  0.00000000000E+00 0. -1.
         11    1    4    4    0    0  0.65451578372E+02 -0.41419775787E+02  0.43127576698E+02  0.88653791850E+02  0.00000000000E+00 0.  1.
        -13    1    3    3    0    0 -0.51107124463E+02 -0.24420415177E+02  0.10897014532E+02  0.57680497345E+02  0.00000000000E+00 0.  1.
         13    1    3    3    0    0 -0.16546209065E+02  0.54805068455E+02 -0.17570447608E+02  0.59883997795E+02  0.00000000000E+00 0. -1.
          2    1    1    2  501    0  0.16134183723E+02 -0.12351957648E+02  0.11264668833E+03  0.11446466325E+03  0.00000000000E+00 0. -1.
<scales pt_clust_5="13000.00000" pt_clust_6="13000.00000" pt_clust_7="13000.00000" pt_clust_8="13000.00000" pt_clust_9="20.31952"></scales>
<clustering>
<clus scale="   20.320">  1  9  2 -1</clus>
<clus scale="   90.011">  5  6 -1 -1</clus>
<clus scale="   90.976">  7  8 -1 -1</clus>
<clus scale="  112.158">  1  5  2 -1</clus>
<clus scale="   20.320">  1  5  2 -1</clus>
</clustering>
</event>
<event>
 9    1  0.1399746E-005  0.1111561E+03  0.7546771E-02  0.1262329E+00
          1   -1    0    0  502    0 -0.00000000000E+00  0.00000000000E+00  0.12255017953E+03  0.12255017953E+03  0.00000000000E+00 0. -1.
         21   -1    0    0  501  502  0.00000000000E+00 -0.00000000000E+00 -0.19907433710E+03  0.19907433710E+03  0.00000000000E+00 0. -1.
         23    2    1    2    0    0  0.38161170980E+02 -0.39115120407E+02  0.31633918739E+02  0.10205633342E+03  0.80178069082E+02 0.  0.
         23    2    1    2    0    0 -0.34141305799E+02  0.89437261912E+02 -0.46000255651E+02  0.13949276932E+03  0.90429843481E+02 0.  0.
        -13    1    4    4    0    0 -0.51189549092E+02  0.35700230027E+02  0.61285758317E+01  0.62709136511E+02  0.00000000000E+00 0. -1.
         13    1    4    4    0    0  0.17048243293E+02  0.53737031885E+02 -0.52128831483E+02  0.76783632806E+02  0.00000000000E+00 0.  1.
        -13    1    3    3    0    0 -0.17543661009E+02 -0.24145801629E+02  0.32821890228E+02  0.44363005490E+02  0.00000000000E+00 0.  1.
         13    1    3    3    0    0  0.55704831989E+02 -0.14969318778E+02 -0.11879714899E+01  0.57693327932E+02  0.00000000000E+00 0. -1.
          1    1    1    2  501    0 -0.40198651810E+01 -0.50322141505E+02 -0.62157820649E+02  0.80075413889E+02  0.00000000000E+00 0. -1.
<scales pt_clust_5="13000.00000" pt_clust_6="13000.00000" pt_clust_7="13000.00000" pt_clust_8="13000.00000" pt_clust_9="50.48244"></scales>
<clustering>
<clus scale="   50.482">  2  9  1 -1</clus>
<clus scale="   80.178">  7  8 -1 -1</clus>
<clus scale="   90.430">  5  6 -1 -1</clus>
<clus scale="  102.989">  1  7  2 -1</clus>
<clus scale="   50.482">  2  5  1 -1</clus>
</clustering>
</event>
<event>
 9    1  0.1399746E-005  0.1151906E+03  0.7546771E-02  0.1253317E+00
         -3   -1    0    0    0  501 -0.00000000000E+00  0.00000000000E+00  0.11329547726E+03  0.11329547726E+03  0.00000000000E+00 0.  1.
         21   -1    0    0  501  502  0.00000000000E+00 -0.00000000000E+00 -0.17930452173E+03  0.17930452173E+03  0.00000000000E+00 0. -1.
         23    2    1    2    0    0  0.35872393727E+02  0.42121699358E+02  0.55274171655E+01  0.10507631223E+03  0.89159479938E+02 0.  0.
         23    2    1    2    0    0 -0.67445000262E+02 -0.45814820438E+02 -0.19570029714E+02  0.12660588417E+03  0.94859042852E+02 0.  0.
        -13    1    4    4    0    0  0.22173818299E+02 -0.19511329973E+02 -0.14921479036E+02  0.33091097774E+02  0.00000000000E+00 0. -1.
         13    1    4    4    0    0 -0.89618818561E+02 -0.26303490465E+02 -0.46485506776E+01  0.93514786394E+02  0.00000000000E+00 0.  1.
        -13    1    3    3    0    0  0.93449464366E+00  0.62337785518E+02 -0.71831194402E+01  0.62757230567E+02  0.00000000000E+00 0.  1.
         13    1    3    3    0    0  0.34937899083E+02 -0.20216086160E+02  0.12710536606E+02  0.42319081663E+02  0.00000000000E+00 0. -1.
         -3    1    1    2    0  502  0.31572606535E+02  0.36931210806E+01 -0.51966431920E+02  0.60917802597E+02  0.00000000000E+00 0.  1.
<scales pt_clust_5="13000.00000" pt_clust_6="13000.00000" pt_clust_7="13000.00000" pt_clust_8="13000.00000" pt_clust_9="31.78787"></scales>
<clustering>
<clus scale="   31.788">  2  9  1 -1</clus>
<clus scale="   89.159">  7  8 -1 -1</clus>
<clus scale="   94.859">  5  6 -1 -1</clus>
<clus scale="  110.544">  1  7  2 -1</clus>
<clus scale="   31.788">  2  5  1 -1</clus>
</clustering>
</event>
<event>
 9    1  0.1399746E-005  0.9555616E+02  0.7546771E-02  0.1291094E+00
          4   -1    0    0  502    0 -0.00000000000E+00  0.00000000000E+00  0.92508042024E+02  0.92508042024E+02  0.00000000000E+00 0. -1.
         21   -1    0    0  501  502  0.00000000000E+00 -0.00000000000E+00 -0.18358093064E+03  0.18358093064E+03  0.00000000000E+00 0.  1.
         23    2    1    2    0    0  0.94872374226E+01  0.19436715112E+02  0.21739496457E+02  0.97215267084E+02  0.92251877378E+02 0.  0.
         23    2    1    2    0    0  0.10505309257E+02 -0.35635579717E+02 -0.47005595407E+02  0.10821509886E+03  0.90115068428E+02 0.  0.
        -13    1    3    3    0    0  0.41640052360E+02 -0.17050971058E+02  0.17918797819E+02  0.48432560224E+02  0.00000000000E+00 0.  1.
         13    1    3    3    0    0 -0.32152814938E+02  0.36487686170E+02  0.38206986381E+01  0.48782706859E+02  0.00000000000E+00 0. -1.
        -13    1    4    4    0    0  0.39901791316E+02 -0.49694270489E+02 -0.38798011107E+02  0.74612057575E+02  0.00000000000E+00 0.  1.
         13    1    4    4    0    0 -0.29396482059E+02  0.14058690772E+02 -0.82075843004E+01  0.33603041287E+02  0.00000000000E+00 0. -1.
          4    1    1    2  501    0 -0.19992546679E+02  0.16198864605E+02 -0.65806789666E+02  0.70658606718E+02  0.00000000000E+00 0. -1.
<scales pt_clust_5="13000.00000" pt_clust_6="13000.00000" pt_clust_7="13000.00000" pt_clust_8="13000.00000" pt_clust_9="25.73140"></scales>
<clustering>
<clus scale="   25.731">  2  9  1 -1</clus>
<clus scale="   90.115">  7  8 -1 -1</clus>
<clus scale="   92.252">  5  6 -1 -1</clus>
<clus scale="   93.495">  2  7  1 -1</clus>
<clus scale="   25.731">  2  5  1 -1</clus>
</clustering>
</event>
<event>
 9    1  0.1399746E-005  0.9396905E+02  0.7546771E-02  0.1293523E+00
         21   -1    0    0  501  502  0.00000000000E+00  0.00000000000E+00  0.16370013271E+03  0.16370013271E+03  0.00000000000E+00 0. -1.
          2   -1    0    0  502    0 -0.00000000000E+00 -0.00000000000E+00 -0.15803653431E+03  0.15803653431E+03  0.00000000000E+00 0. -1.
         23    2    1    2    0    0 -0.33538337234E+02  0.29062243251E+00 -0.90299997087E+02  0.13139786275E+03  0.89366684706E+02 0.  0.
         23    2    1    2    0    0  0.17288268188E+02 -0.15786946678E+02  0.63312170108E+00  0.92399537171E+02  0.89382110761E+02 0.  0.
        -11    1    3    3    0    0 -0.52497028829E+02  0.27738675962E+02 -0.72085605428E+02  0.93390078112E+02  0.00000000000E+00 0.  1.
         11    1    3    3    0    0  0.18958691594E+02 -0.27448053529E+02 -0.18214391659E+02  0.38007784637E+02  0.00000000000E+00 0. -1.
        -13    1    4    4    0    0 -0.29756415997E+02 -0.24791978033E+02  0.16274969831E+02  0.42011440237E+02  0.00000000000E+00 0.  1.
         13    1    4    4    0    0  0.47044684185E+02  0.90050313546E+01 -0.15641848130E+02  0.50388096935E+02  0.00000000000E+00 0. -1.
          2    1    1    2  501    0  0.16250069046E+02  0.15496324246E+02  0.95330473783E+02  0.97939267104E+02  0.00000000000E+00 0. -1.
<scales pt_clust_5="13000.00000" pt_clust_6="13000.00000" pt_clust_7="13000.00000" pt_clust_8="13000.00000" pt_clust_9="22.45442"></scales>
<clustering>
<clus scale="   22.454">  1  9  2 -1</clus>
<clus scale="   89.367">  5  6 -1 -1</clus>
<clus scale="   89.382">  7  8 -1 -1</clus>
<clus scale="   93.954">  2  5  1 -1</clus>
<clus scale="   22.454">  1  5  2 -1</clus>
</clustering>
</event>
<event>
 9    1  0.1399746E-005  0.9466060E+02  0.7546771E-02  0.1293544E+00
         21   -1    0    0  501  502  0.00000000000E+00  0.00000000000E+00  0.71078544467E+02  0.71078544467E+02  0.00000000000E+00 0.  1.
          2   -1    0    0  502    0 -0.00000000000E+00 -0.00000000000E+00 -0.16769636599E+03  0.16769636599E+03  0.00000000000E+00 0. -1.
         23    2    1    2    0    0 -0.52864655721E+01  0.13265346412E+02 -0.29088685620E+02  0.98483767202E+02  0.92999917406E+02 0.  0.
         23    2    1    2    0    0  0.24048637255E+02 -0.61079492609E+01 -0.30844696627E+02  0.98470149661E+02  0.90162803119E+02 0.  0.
        -11    1    3    3    0    0  0.42446852354E+02 -0.21504589410E+01 -0.48611770306E+01  0.42778391631E+02  0.00000000000E+00 0. -1.
         11    1    3    3    0    0 -0.47733317927E+02  0.15415805353E+02 -0.24227508589E+02  0.55705375570E+02  0.00000000000E+00 0.  1.
        -11    1    4    4    0    0  0.20731369026E+02  0.41098413248E+02 -0.18093887798E+02  0.49459660420E+02  0.00000000000E+00 0.  1.
         11    1    4    4    0    0  0.33172682288E+01 -0.47206362509E+02 -0.12750808830E+02  0.49010489241E+02  0.00000000000E+00 0. -1.
          2    1    1    2  501    0 -0.18762171683E+02 -0.71573971515E+01 -0.36684439275E+02  0.41820993593E+02  0.00000000000E+00 0. -1.
<scales pt_clust_5="13000.00000" pt_clust_6="13000.00000" pt_clust_7="13000.00000" pt_clust_8="13000.00000" pt_clust_9="20.08103"></scales>
<clustering>
<clus scale="   20.081">  1  9  2 -1</clus>
<clus scale="   90.163">  7  8 -1 -1</clus>
<clus scale="   91.875">  1  7  2 -1</clus>
<clus scale="   93.000">  5  6 -1 -1</clus>
<clus scale="   20.081">  1  5  2 -1</clus>
</clustering>
</event>
<event>
 9    1  0.1399746E-005  0.9506804E+02  0.7546771E-02  0.1292803E+00
         21   -1    0    0  501  502  0.00000000000E+00  0.00000000000E+00  0.79169004401E+02  0.79169004401E+02  0.00000000000E+00 0. -1.
          2   -1    0    0  502    0 -0.00000000000E+00 -0.00000000000E+00 -0.72927920015E+03  0.72927920015E+03  0.00000000000E+00 0. -1.
         23    2    1    2    0    0 -0.11141603107E+02 -0.12928873813E+02 -0.53006436347E+03  0.53829172468E+03  0.92187094218E+02 0.  0.
         23    2    1    2    0    0  0.49188257010E+02  0.88301422572E+01 -0.17536158188E+03  0.20289445770E+03  0.88977640591E+02 0.  0.
        -11    1    3    3    0    0  0.24683787740E+02 -0.41225024977E+02 -0.26288930485E+03  0.26724441746E+03  0.00000000000E+00 0. -1.
         11    1    3    3    0    0 -0.35825390848E+02  0.28296151164E+02 -0.26717505862E+03  0.27104730722E+03  0.00000000000E+00 0.  1.
        -13    1    4    4    0    0  0.19415708842E+02  0.47707041219E+02 -0.10758978220E+03  0.11928324596E+03  0.00000000000E+00 0. -1.
         13    1    4    4    0    0  0.29772548168E+02 -0.38876898961E+02 -0.67771799678E+02  0.83611211742E+02  0.00000000000E+00 0.  1.
          2    1    1    2  501    0 -0.38046653903E+02  0.40987315555E+01  0.55315749599E+02  0.67262022176E+02  0.00000000000E+00 0. -1.
<scales pt_clust_5="13000.00000" pt_clust_6="13000.00000" pt_clust_7="13000.00000" pt_clust_8="13000.00000" pt_clust_9="38.26679"></scales>
<clustering>
<clus scale="   38.267">  1  9  2 -1</clus>
<clus scale="   88.978">  7  8 -1 -1</clus>
<clus scale="   91.959">  1  7  2 -1</clus>
<clus scale="   92.187">  5  6 -1 -1</clus>
<clus scale="   38.267">  1  5  2 -1</clus>
</clustering>
</event>
<event>
 9    1  0.1399746E-005  0.1089947E+03  0.7546771E-02  0.1264063E+00
         21   -1    0    0  501  502  0.00000000000E+00  0.00000000000E+00  0.16920884557E+03  0.16920884557E+03  0.00000000000E+00 0. -1.
         -3   -1    0    0    0  501 -0.00000000000E+00 -0.00000000000E+00 -0.86233110857E+02  0.86233110857E+02  0.00000000000E+00 0.  1.
         23    2    1    2    0    0 -0.30880367679E+02 -0.19529851761E+02  0.22067609722E+02  0.10978364986E+03  0.10114572734E+03 0.  0.
         23    2    1    2    0    0  0.48245389375E+02  0.40759594674E+01  0.46845555536E+02  0.11848989430E+03  0.97473678173E+02 0.  0.
        -11    1    4    4    0    0  0.76652952459E+02 -0.80535424977E+01  0.26502792677E+02  0.81504188157E+02  0.00000000000E+00 0.  1.
         11    1    4    4    0    0 -0.28407563084E+02  0.12129501965E+02  0.20342762859E+02  0.36985706145E+02  0.00000000000E+00 0. -1.
        -11    1    3    3    0    0 -0.22808475777E+02  0.29501650164E+02 -0.22060091294E+02  0.43326914932E+02  0.00000000000E+00 0.  1.
         11    1    3    3    0    0 -0.80718919019E+01 -0.49031501925E+02  0.44127701016E+02  0.66456734925E+02  0.00000000000E+00 0. -1.
         -3    1    1    2    0  502 -0.17365021696E+02  0.15453892294E+02  0.14062569457E+02  0.27168412270E+02  0.00000000000E+00 0.  1.
<scales pt_clust_5="13000.00000" pt_clust_6="13000.00000" pt_clust_7="13000.00000" pt_clust_8="13000.00000" pt_clust_9="23.24579"></scales>
<clustering>
<clus scale="   23.246">  1  9  2 -1</clus>
<clus scale="   97.474">  5  6 -1 -1</clus>
<clus scale="  101.146">  7  8 -1 -1</clus>
<clus scale="  105.596">  1  5  2 -1</clus>
<clus scale="   23.246">  1  5  2 -1</clus>
</clustering>
</event>
<event>
 9    1  0.1399746E-005  0.2481894E+03  0.7546771E-02  0.1114502E+00
         21   -1    0    0  501  502  0.00000000000E+00  0.00000000000E+00  0.99391243069E+02  0.99391243069E+02  0.00000000000E+00 0. -1.
         -1   -1    0    0    0  501 -0.00000000000E+00 -0.00000000000E+00 -0.87848919837E+03  0.87848919837E+03  0.00000000000E+00 0.  1.
         23    2    1    2    0    0  0.81485851639E+02  0.22903433409E+03 -0.55871072520E+03  0.61599296493E+03  0.90515126823E+02 0.  0.
         23    2    1    2    0    0 -0.80898762488E+02 -0.19445182744E+03 -0.23104443305E+03  0.32569534457E+03  0.91322529876E+02 0.  0.
        -13    1    4    4    0    0 -0.98730552872E+02 -0.14010475519E+03 -0.18566339552E+03  0.25268154055E+03  0.00000000000E+00 0.  1.
         13    1    4    4    0    0  0.17831790384E+02 -0.54347072243E+02 -0.45381037528E+02  0.73013804015E+02  0.00000000000E+00 0. -1.
        -13    1    3    3    0    0  0.70799774410E+02  0.11171970479E+03 -0.37613745129E+03  0.39871453793E+03  0.00000000000E+00 0. -1.
         13    1    3    3    0    0  0.10686077228E+02  0.11731462929E+03 -0.18257327391E+03  0.21727842700E+03  0.00000000000E+00 0.  1.
         -1    1    1    2    0  502 -0.58708915051E+00 -0.34582506650E+02  0.10657202951E+02  0.36192131943E+02  0.00000000000E+00 0.  1.
<scales pt_clust_5="13000.00000" pt_clust_6="13000.00000" pt_clust_7="13000.00000" pt_clust_8="13000.00000" pt_clust_9="34.58749"></scales>
<clustering>
<clus scale="   34.587">  1  9  2 -1</clus>
<clus scale="   90.515">  7  8 -1 -1</clus>
<clus scale="   91.323">  5  6 -1 -1</clus>
<clus scale="  247.893">  2  7  1 -1</clus>
<clus scale="   34.587">  1  5  2 -1</clus>
</clustering>
</event>
<event>
 9    1  0.1399746E-005  0.9301712E+02  0.7546771E-02  0.1296050E+00
         -1   -1    0    0    0  501 -0.00000000000E+00  0.00000000000E+00  0.28668736869E+02  0.28668736869E+02  0.00000000000E+00 0.  1.
         21   -1    0    0  501  502  0.00000000000E+00 -0.00000000000E+00 -0.76127860365E+03  0.76127860365E+03  0.00000000000E+00 0.  1.
         23    2    1    2    0    0 -0.20811862684E+02  0.14003540362E+02 -0.10340137402E+03  0.13977893737E+03  0.90648080024E+02 0.  0.
         23    2    1    2    0    0 -0.24223138927E+02 -0.32414433499E+02 -0.26619780965E+03  0.28391184224E+03  0.90040015231E+02 0.  0.
        -11    1    4    4    0    0 -0.34662983718E+01 -0.61854913116E+02 -0.18454963839E+03  0.19467052815E+03  0.00000000000E+00 0.  1.
         11    1    4    4    0    0 -0.20756840556E+02  0.29440479618E+02 -0.81648171258E+02  0.89241314086E+02  0.00000000000E+00 0. -1.
        -13    1    3    3    0    0  0.92751983751E+01  0.36925573145E+02 -0.93089903456E+02  0.10057463588E+03  0.00000000000E+00 0. -1.
         13    1    3    3    0    0 -0.30087061059E+02 -0.22922032784E+02 -0.10311470564E+02  0.39204301490E+02  0.00000000000E+00 0.  1.
         -1    1    1    2    0  502  0.45035001611E+02  0.18410893137E+02 -0.36301068312E+03  0.36625656092E+03  0.00000000000E+00 0.  1.
<scales pt_clust_5="13000.00000" pt_clust_6="13000.00000" pt_clust_7="13000.00000" pt_clust_8="13000.00000" pt_clust_9="48.65298"></scales>
<clustering>
<clus scale="   48.653">  2  9  1 -1</clus>
<clus scale="   90.040">  5  6 -1 -1</clus>
<clus scale="   90.648">  7  8 -1 -1</clus>
<clus scale="   92.425">  2  5  1 -1</clus>
<clus scale="   48.653">  2  5  1 -1</clus>
</clustering>
</event>
<event>
 9    1  0.1399746E-005  0.9949714E+02  0.7546771E-02  0.1282903E+00
         21   -1    0    0  501  502  0.00000000000E+00  0.00000000000E+00  0.14008665649E+03  0.14008665649E+03  0.00000000000E+00 0.  1.
          3   -1    0    0  502    0 -0.00000000000E+00 -0.00000000000E+00 -0.15710242134E+03  0.15710242134E+03  0.00000000000E+00 0. -1.
         23    2    1    2    0    0 -0.17881752642E+02  0.38073208313E+02 -0.99829176370E+02  0.14098134699E+03  0.90224993633E+02 0.  0.
         23    2    1    2    0    0  0.63896282303E+01 -0.65263324281E+01  0.40310847073E+02  0.10204369953E+03  0.93298080683E+02 0.  0.
        -11    1    4    4    0    0 -0.38019049683E+02 -0.11990458273E+02  0.41148355068E+02  0.57292288776E+02  0.00000000000E+00 0. -1.
         11    1    4    4    0    0  0.44408677913E+02  0.54641258452E+01 -0.83750799499E+00  0.44751410759E+02  0.00000000000E+00 0.  1.
        -11    1    3    3    0    0  0.17158360131E+02  0.48955997542E+02 -0.24881218209E+02  0.57534111945E+02  0.00000000000E+00 0.  1.
         11    1    3    3    0    0 -0.35040112773E+02 -0.10882789228E+02 -0.74947958161E+02  0.83447235047E+02  0.00000000000E+00 0. -1.
          3    1    1    2  501    0  0.11492124412E+02 -0.31546875885E+02  0.42502564450E+02  0.54164031298E+02  0.00000000000E+00 0. -1.
<scales pt_clust_5="13000.00000" pt_clust_6="13000.00000" pt_clust_7="13000.00000" pt_clust_8="13000.00000" pt_clust_9="33.57491"></scales>
<clustering>
<clus scale="   33.575">  1  9  2 -1</clus>
<clus scale="   90.225">  7  8 -1 -1</clus>
<clus scale="   93.298">  5  6 -1 -1</clus>
<clus scale="   96.621">  2  7  1 -1</clus>
<clus scale="   33.575">  1  5  2 -1</clus>
</clustering>
</event>
<event>
 9    1  0.1399746E-005  0.1705463E+03  0.7546771E-02  0.1177657E+00
         21   -1    0    0  501  502  0.00000000000E+00  0.00000000000E+00  0.13876294182E+03  0.13876294182E+03  0.00000000000E+00 0. -1.
          2   -1    0    0  502    0 -0.00000000000E+00 -0.00000000000E+00 -0.10177884921E+04  0.10177884921E+04  0.00000000000E+00 0. -1.
         23    2    1    2    0    0 -0.13552931547E+03 -0.10267135634E+02 -0.66378675469E+03  0.68329595897E+03  0.88356677209E+02 0.  0.
         23    2    1    2    0    0  0.16461615057E+03  0.29982241988E+02 -0.31464113223E+03  0.36782514755E+03  0.91098217433E+02 0.  0.
        -13    1    3    3    0    0 -0.10671866915E+03  0.24740349688E+02 -0.55010346725E+03  0.56090532529E+03  0.00000000000E+00 0. -1.
         13    1    3    3    0    0 -0.28810646320E+02 -0.35007485323E+02 -0.11368328744E+03  0.12239063368E+03  0.00000000000E+00 0.  1.
        -13    1    4    4    0    0  0.98974796033E+02 -0.24274124753E+02 -0.13621216252E+03  0.17011465722E+03  0.00000000000E+00 0.  1.
         13    1    4    4    0    0  0.65641354541E+02  0.54256366741E+02 -0.17842896971E+03  0.19771049034E+03  0.00000000000E+00 0. -1.
          2    1    1    2  501    0 -0.29086835099E+02 -0.19715106354E+02  0.99402336671E+02  0.10543032737E+03  0.00000000000E+00 0. -1.
<scales pt_clust_5="13000.00000" pt_clust_6="13000.00000" pt_clust_7="13000.00000" pt_clust_8="13000.00000" pt_clust_9="35.13872"></scales>
<clustering>
<clus scale="   35.139">  1  9  2 -1</clus>
<clus scale="   88.357">  5  6 -1 -1</clus>
<clus scale="   91.098">  7  8 -1 -1</clus>
<clus scale="  169.098">  2  5  1 -1</clus>
<clus scale="   35.139">  1  5  2 -1</clus>
</clustering>
</event>
<event>
 9    1  0.1399746E-005  0.1088521E+03  0.7546771E-02  0.1269920E+00
          3   -1    0    0  502    0 -0.00000000000E+00  0.00000000000E+00  0.64275834997E+02  0.64275834997E+02  0.00000000000E+00 0. -1.
         21   -1    0    0  501  502  0.00000000000E+00 -0.00000000000E+00 -0.47995704394E+03  0.47995704394E+03  0.00000000000E+00 0.  1.
         23    2    1    2    0    0 -0.29540871223E+02  0.15335229512E+02 -0.81228923590E+01  0.96843109720E+02  0.90580208562E+02 0.  0.
         23    2    1    2    0    0 -0.14809289925E+02  0.58497205899E+01 -0.37136062468E+03  0.38634870268E+03  0.10537111656E+03 0.  0.
        -11    1    3    3    0    0 -0.33532133995E+02  0.40290860242E+02  0.22580869077E+02  0.57075853717E+02  0.00000000000E+00 0. -1.
         11    1    3    3    0    0  0.39912627717E+01 -0.24955630730E+02 -0.30703761436E+02  0.39767256002E+02  0.00000000000E+00 0.  1.
        -11    1    4    4    0    0  0.39814287227E+02 -0.10877250150E+02 -0.23351226661E+03  0.23713175809E+03  0.00000000000E+00 0.  1.
         11    1    4    4    0    0 -0.54623577152E+02  0.16726970740E+02 -0.13784835807E+03  0.14921694459E+03  0.00000000000E+00 0. -1.
          3    1    1    2  501    0  0.44350161148E+02 -0.21184950102E+02 -0.36197691912E+02  0.61041066540E+02  0.00000000000E+00 0. -1.
<scales pt_clust_5="13000.00000" pt_clust_6="13000.00000" pt_clust_7="13000.00000" pt_clust_8="13000.00000" pt_clust_9="49.15019"></scales>
<clustering>
<clus scale="   49.150">  2  9  1 -1</clus>
<clus scale="   90.580">  5  6 -1 -1</clus>
<clus scale="   94.607">  1  5  2 -1</clus>
<clus scale="  105.371">  7  8 -1 -1</clus>
<clus scale="   49.150">  2  5  1 -1</clus>
</clustering>
</event>
<event>
 9    1  0.1399746E-005  0.9785002E+02  0.7546771E-02  0.1297201E+00
         -3   -1    0    0    0  501 -0.00000000000E+00  0.00000000000E+00  0.86494466833E+02  0.86494466833E+02  0.00000000000E+00 0.  1.
         21   -1    0    0  501  502  0.00000000000E+00 -0.00000000000E+00 -0.56509401514E+03  0.56509401514E+03  0.00000000000E+00 0. -1.
         23    2    1    2    0    0  0.17979669939E+01  0.28235725648E+02  0.49407166137E+02  0.92061853694E+02  0.72345199922E+02 0.  0.
         23    2    1    2    0    0  0.50037474954E+02 -0.28562550362E+02 -0.20723253049E+03  0.23459110091E+03  0.93638105219E+02 0.  0.
        -13    1    4    4    0    0 -0.81574940374E+01 -0.28019011436E+02 -0.13218656717E+02  0.32036582156E+02  0.00000000000E+00 0.  1.
         13    1    4    4    0    0  0.58194968992E+02 -0.54353892581E+00 -0.19401387378E+03  0.20255451875E+03  0.00000000000E+00 0. -1.
        -13    1    3    3    0    0  0.35776782808E+02  0.93933193577E+01  0.34075838726E+02  0.50292896332E+02  0.00000000000E+00 0. -1.
         13    1    3    3    0    0 -0.33978815814E+02  0.18842406290E+02  0.15331327411E+02  0.41768957362E+02  0.00000000000E+00 0.  1.
         -3    1    1    2    0  502 -0.51835441948E+02  0.32682471421E+00 -0.32077418396E+03  0.32493552737E+03  0.00000000000E+00 0.  1.
<scales pt_clust_5="13000.00000" pt_clust_6="13000.00000" pt_clust_7="13000.00000" pt_clust_8="13000.00000" pt_clust_9="51.83647"></scales>
<clustering>
<clus scale="   51.836">  2  9  1 -1</clus>
<clus scale="   72.345">  7  8 -1 -1</clus>
<clus scale="   77.720">  1  7  2 -1</clus>
<clus scale="   93.638">  5  6 -1 -1</clus>
<clus scale="   51.836">  2  5  1 -1</clus>
</clustering>
</event>
<event>
 9    1  0.1399746E-005  0.1218683E+03  0.7546771E-02  0.1241693E+00
          2   -1    0    0  502    0 -0.00000000000E+00  0.00000000000E+00  0.89298022033E+02  0.89298022033E+02  0.00000000000E+00 0. -1.
         21   -1    0    0  501  502  0.00000000000E+00 -0.00000000000E+00 -0.29970014418E+03  0.29970014418E+03  0.00000000000E+00 0.  1.
         23    2    1    2    0    0  0.76639544380E+02  0.10061665526E+02 -0.97659474102E+01  0.11947262288E+03  0.90573047945E+02 0.  0.
         23    2    1    2    0    0 -0.65686110803E+02 -0.37975480031E+02 -0.81903120786E+02  0.14706454199E+03  0.95723853251E+02 0.  0.
        -13    1    4    4    0    0 -0.74279815221E+02  0.77557263696E+01 -0.59138270739E+02  0.95262675308E+02  0.00000000000E+00 0. -1.
         13    1    4    4    0    0  0.85937044179E+01 -0.45731206401E+02 -0.22764850047E+02  0.51801866686E+02  0.00000000000E+00 0.  1.
        -13    1    3    3    0    0  0.28637182709E+02 -0.18544799143E+02 -0.42663946572E+02  0.54627924598E+02  0.00000000000E+00 0.  1.
         13    1    3    3    0    0  0.48002361671E+02  0.28606464669E+02  0.32897999162E+02  0.64844698286E+02  0.00000000000E+00 0. -1.
          2    1    1    2  501    0 -0.10953433577E+02  0.27913814505E+02 -0.11873305395E+03  0.12246100133E+03  0.00000000000E+00 0. -1.
<scales pt_clust_5="13000.00000" pt_clust_6="13000.00000" pt_clust_7="13000.00000" pt_clust_8="13000.00000" pt_clust_9="29.98598"></scales>
<clustering>
<clus scale="   29.986">  2  9  1 -1</clus>
<clus scale="   90.573">  7  8 -1 -1</clus>
<clus scale="   95.724">  5  6 -1 -1</clus>
<clus scale="  117.866">  1  7  2 -1</clus>
<clus scale="   29.986">  2  5  1 -1</clus>
</clustering>
</event>
<event>
 9    1  0.1399746E-005  0.1355334E+03  0.7546771E-02  0.1227411E+00
         -1   -1    0    0    0  501 -0.00000000000E+00  0.00000000000E+00  0.11219829926E+04  0.11219829926E+04  0.00000000000E+00 0.  1.
         21   -1    0    0  501  502  0.00000000000E+00 -0.00000000000E+00 -0.11194550284E+03  0.11194550284E+03  0.00000000000E+00 0.  1.
         23    2    1    2    0    0  0.55097579597E+02  0.33531545616E+02  0.33549325147E+03  0.34904587863E+03  0.71534577508E+02 0.  0.
         23    2    1    2    0    0 -0.12824483000E+03 -0.80456124246E+01  0.75538051475E+03  0.77292478260E+03  0.10149644918E+03 0.  0.
        -11    1    3    3    0    0  0.15709346143E+02 -0.22728873408E+02  0.98687636918E+02  0.10248236396E+03  0.00000000000E+00 0.  1.
         11    1    3    3    0    0  0.39388233455E+02  0.56260419024E+02  0.23680561455E+03  0.24656351467E+03  0.00000000000E+00 0. -1.
        -11    1    4    4    0    0 -0.79208819182E+02  0.41953548153E+02  0.33664273358E+03  0.34837116314E+03  0.00000000000E+00 0. -1.
         11    1    4    4    0    0 -0.49036010818E+02 -0.49999160578E+02  0.41873778117E+03  0.42455361946E+03  0.00000000000E+00 0.  1.
         -1    1    1    2    0  502  0.73147250402E+02 -0.25485933191E+02 -0.80836276507E+02  0.11195783417E+03  0.00000000000E+00 0.  1.
<scales pt_clust_5="13000.00000" pt_clust_6="13000.00000" pt_clust_7="13000.00000" pt_clust_8="13000.00000" pt_clust_9="77.46001"></scales>
<clustering>
<clus scale="   71.535">  5  6 -1 -1</clus>
<clus scale="   77.460">  2  9  1 -1</clus>
<clus scale="  101.496">  7  8 -1 -1</clus>
<clus scale="  114.826">  1  5  2 -1</clus>
<clus scale="   77.460">  2  5  1 -1</clus>
</clustering>
</event>
<event>
 9    1  0.1399746E-005  0.9550635E+02  0.7546771E-02  0.1291148E+00
          2   -1    0    0  502    0 -0.00000000000E+00  0.00000000000E+00  0.31705713688E+03  0.31705713688E+03  0.00000000000E+00 0. -1.
         21   -1    0    0  501  502  0.00000000000E+00 -0.00000000000E+00 -0.55794860010E+02  0.55794860010E+02  0.00000000000E+00 0.  1.
         23    2    1    2    0    0 -0.17827484615E+02 -0.19059506702E+02  0.22509251211E+03  0.24423945571E+03  0.91132808119E+02 0.  0.
         23    2    1    2    0    0 -0.18769847302E+01  0.94343125500E+01  0.46295083935E+02  0.10445819243E+03  0.93143705336E+02 0.  0.
        -13    1    4    4    0    0  0.35612428344E+02 -0.15569632157E+02 -0.13339482713E+01  0.38890074775E+02  0.00000000000E+00 0.  1.
         13    1    4    4    0    0 -0.37489413074E+02  0.25003944707E+02  0.47629032206E+02  0.65568117652E+02  0.00000000000E+00 0. -1.
        -13    1    3    3    0    0  0.42082575242E+01  0.35581777086E+02  0.88954573681E+02  0.95899366374E+02  0.00000000000E+00 0.  1.
         13    1    3    3    0    0 -0.22035742140E+02 -0.54641283789E+02  0.13613793843E+03  0.14834008934E+03  0.00000000000E+00 0. -1.
          2    1    1    2  501    0  0.19704469346E+02  0.96251941521E+01 -0.10125319182E+02  0.24154348743E+02  0.00000000000E+00 0. -1.
<scales pt_clust_5="13000.00000" pt_clust_6="13000.00000" pt_clust_7="13000.00000" pt_clust_8="13000.00000" pt_clust_9="21.92967"></scales>
<clustering>
<clus scale="   21.930">  2  9  1 -1</clus>
<clus scale="   91.133">  7  8 -1 -1</clus>
<clus scale="   93.144">  5  6 -1 -1</clus>
<clus scale="   93.546">  1  7  2 -1</clus>
<clus scale="   21.930">  2  5  1 -1</clus>
</clustering>
</event>
<event>
 9    1  0.1399746E-005  0.1044074E+03  0.7546771E-02  0.1273812E+00
          1   -1    0    0  502    0 -0.00000000000E+00  0.00000000000E+00  0.14018310982E+03  0.14018310982E+03  0.00000000000E+00 0. -1.
         21   -1    0    0  501  502  0.00000000000E+00 -0.00000000000E+00 -0.15823440013E+03  0.15823440013E+03  0.00000000000E+00 0. -1.
         23    2    1    2    0    0 -0.61600845924E+01 -0.41048573271E+02  0.21234551128E+02  0.99539103454E+02  0.87944271814E+02 0.  0.
         23    2    1    2    0    0  0.75698191684E+02  0.26677884881E+02 -0.33143388731E+02  0.12760572767E+03  0.93503003974E+02 0.  0.
        -11    1    3    3    0    0 -0.45554394342E+02 -0.89597163728E+01  0.93873639741E+01  0.47366675667E+02  0.00000000000E+00 0.  1.
         11    1    3    3    0    0  0.39394309750E+02 -0.32088856899E+02  0.11847187154E+02  0.52172427787E+02  0.00000000000E+00 0. -1.
        -13    1    4    4    0    0 -0.72423281553E+01  0.26969116902E+02 -0.34836857342E+02  0.44647409926E+02  0.00000000000E+00 0.  1.
         13    1    4    4    0    0  0.82940519839E+02 -0.29123202077E+00  0.16934686118E+01  0.82958317746E+02  0.00000000000E+00 0. -1.
          1    1    1    2  501    0 -0.69538107091E+02  0.14370688390E+02 -0.61424527079E+01  0.71272678832E+02  0.00000000000E+00 0. -1.
<scales pt_clust_5="13000.00000" pt_clust_6="13000.00000" pt_clust_7="13000.00000" pt_clust_8="13000.00000" pt_clust_9="71.00750"></scales>
<clustering>
<clus scale="   71.007">  2  9  1 -1</clus>
<clus scale="   87.944">  5  6 -1 -1</clus>
<clus scale="   93.503">  7  8 -1 -1</clus>
<clus scale="   99.460">  1  5  2 -1</clus>
<clus scale="   71.007">  2  5  1 -1</clus>
</clustering>
</event>
<event>
 9    1  0.1399746E-005  0.1371008E+03  0.7546771E-02  0.1230086E+00
          1   -1    0    0  502    0 -0.00000000000E+00  0.00000000000E+00  0.32006765718E+03  0.32006765718E+03  0.00000000000E+00 0. -1.
         21   -1    0    0  501  502  0.00000000000E+00 -0.00000000000E+00 -0.11571747383E+03  0.11571747383E+03  0.00000000000E+00 0.  1.
         23    2    1    2    0    0 -0.26679594180E+02 -0.42008172493E+02  0.15183292879E+03  0.18457956751E+03  0.92411531628E+02 0.  0.
         23    2    1    2    0    0 -0.33837450231E+02 -0.65048170964E+02  0.53754692865E+02  0.12822221262E+03  0.90416432248E+02 0.  0.
        -13    1    3    3    0    0 -0.85048810050E+01 -0.62165437173E+02  0.53143115927E+02  0.82225697627E+02  0.00000000000E+00 0. -1.
         13    1    3    3    0    0 -0.18174713175E+02  0.20157264680E+02  0.98689812861E+02  0.10235386989E+03  0.00000000000E+00 0.  1.
        -13    1    4    4    0    0 -0.49312677910E+02 -0.80286869954E+02  0.39046829534E+02  0.10199204178E+03  0.00000000000E+00 0.  1.
         13    1    4    4    0    0  0.15475227679E+02  0.15238698990E+02  0.14707863331E+02  0.26230170841E+02  0.00000000000E+00 0. -1.
          1    1    1    2  501    0  0.60517044412E+02  0.10705634346E+03 -0.12374383066E+01  0.12298335087E+03  0.00000000000E+00 0. -1.
<scales pt_clust_5="13000.00000" pt_clust_6="13000.00000" pt_clust_7="13000.00000" pt_clust_8="13000.00000" pt_clust_9="103.06068"></scales>
<clustering>
<clus scale="   90.416">  7  8 -1 -1</clus>
<clus scale="   92.412">  5  6 -1 -1</clus>
<clus scale="  104.959">  1  5  2 -1</clus>
<clus scale="  103.061">  2  9  1 -1</clus>
<clus scale="  103.061">  2  5  1 -1</clus>
</clustering>
</event>
<event>
 9    1  0.1399746E-005  0.1142922E+03  0.7546771E-02  0.1258162E+00
          1   -1    0    0  502    0 -0.00000000000E+00  0.00000000000E+00  0.16205675733E+03  0.16205675733E+03  0.00000000000E+00 0. -1.
         21   -1    0    0  501  502  0.00000000000E+00 -0.00000000000E+00 -0.14926370004E+03  0.14926370004E+03  0.00000000000E+00 0. -1.
         23    2    1    2    0    0 -0.44056254545E+02  0.39688100973E+02  0.82506399850E+02  0.13607940624E+03  0.90521819813E+02 0.  0.
         23    2    1    2    0    0  0.21787295620E+02 -0.14035079356E+02 -0.10636153448E+02  0.10709342958E+03  0.10336442906E+03 0.  0.
        -11    1    4    4    0    0 -0.36873506132E+02 -0.24128908072E+02  0.78620503316E+01  0.44762389287E+02  0.00000000000E+00 0.  1.
         11    1    4    4    0    0  0.58660801752E+02  0.10093828716E+02 -0.18498203780E+02  0.62331040288E+02  0.00000000000E+00 0. -1.
        -13    1    3    3    0    0  0.26272672092E+02  0.19314695017E+02  0.12944077257E+02  0.35083612677E+02  0.00000000000E+00 0.  1.
         13    1    3    3    0    0 -0.70328926638E+02  0.20373405956E+02  0.69562322593E+02  0.10099579356E+03  0.00000000000E+00 0. -1.
          1    1    1    2  501    0  0.22268958925E+02 -0.25653021617E+02 -0.59077189119E+02  0.68147621557E+02  0.00000000000E+00 0. -1.
<scales pt_clust_5="13000.00000" pt_clust_6="13000.00000" pt_clust_7="13000.00000" pt_clust_8="13000.00000" pt_clust_9="33.97034"></scales>
<clustering>
<clus scale="   33.970">  2  9  1 -1</clus>
<clus scale="   90.522">  7  8 -1 -1</clus>
<clus scale="  102.824">  1  7  2 -1</clus>
<clus scale="  103.364">  5  6 -1 -1</clus>
<clus scale="   33.970">  2  5  1 -1</clus>
</clustering>
</event>
<event>
 9    1  0.1399746E-005  0.9771941E+02  0.7546771E-02  0.1287288E+00
         21   -1    0    0  501  502  0.00000000000E+00  0.00000000000E+00  0.64693716491E+02  0.64693716491E+02  0.00000000000E+00 0. -1.
         -3   -1    0    0    0  501 -0.00000000000E+00 -0.00000000000E+00 -0.58327190668E+03  0.58327190668E+03  0.00000000000E+00 0.  1.
         23    2    1    2    0    0 -0.22251556261E+02 -0.94729300798E+01 -0.48998491493E+03  0.49968241877E+03  0.94933843345E+02 0.  0.
         23    2    1    2    0    0  0.26173258471E+02 -0.31441078330E+02 -0.36871674609E+02  0.10635627120E+03  0.90986565872E+02 0.  0.
        -11    1    3    3    0    0 -0.17740492145E+02 -0.52124941841E+02 -0.27972479246E+03  0.28509243087E+03  0.00000000000E+00 0. -1.
         11    1    3    3    0    0 -0.45110641164E+01  0.42652011761E+02 -0.21026012247E+03  0.21458998790E+03  0.00000000000E+00 0.  1.
        -13    1    4    4    0    0  0.55778599022E+02 -0.33278374567E+02 -0.88511709730E+01  0.65551853905E+02  0.00000000000E+00 0. -1.
         13    1    4    4    0    0 -0.29605340552E+02  0.18372962372E+01 -0.28020503636E+02  0.40804417294E+02  0.00000000000E+00 0.  1.
         -3    1    1    2    0  502 -0.39217022094E+01  0.40914008410E+02  0.82783993438E+01  0.41926933206E+02  0.00000000000E+00 0.  1.
<scales pt_clust_5="13000.00000" pt_clust_6="13000.00000" pt_clust_7="13000.00000" pt_clust_8="13000.00000" pt_clust_9="41.10153"></scales>
<clustering>
<clus scale="   41.102">  1  9  2 -1</clus>
<clus scale="   90.987">  7  8 -1 -1</clus>
<clus scale="   93.889">  1  7  2 -1</clus>
<clus scale="   94.934">  5  6 -1 -1</clus>
<clus scale="   41.102">  1  5  2 -1</clus>
</clustering>
</event>
<event>
 9    1  0.1399746E-005  0.1002438E+03  0.7546771E-02  0.1280617E+00
         21   -1    0    0  501  502  0.00000000000E+00  0.00000000000E+00  0.34325898015E+02  0.34325898015E+02  0.00000000000E+00 0.  1.
         -1   -1    0    0    0  501 -0.00000000000E+00 -0.00000000000E+00 -0.46967970779E+03  0.46967970779E+03  0.00000000000E+00 0.  1.
         23    2    1    2    0    0 -0.27551404205E+02 -0.36295814879E+01 -0.19583078027E+03  0.21756877322E+03  0.90632349861E+02 0.  0.
         23    2    1    2    0    0  0.49661694513E+02  0.38282773023E+02 -0.14211129982E+03  0.18070720712E+03  0.92345105761E+02 0.  0.
        -11    1    4    4    0    0  0.10816579584E+02  0.26978990761E+02  0.37791798391E+01  0.29311201555E+02  0.00000000000E+00 0.  1.
         11    1    4    4    0    0  0.38845114929E+02  0.11303782263E+02 -0.14589047966E+03  0.15139600557E+03  0.00000000000E+00 0. -1.
        -11    1    3    3    0    0  0.90832036328E+01 -0.35843459162E+02 -0.13287625924E+03  0.13792519140E+03  0.00000000000E+00 0.  1.
         11    1    3    3    0    0 -0.36634607838E+02  0.32213877674E+02 -0.62954521030E+02  0.79643581815E+02  0.00000000000E+00 0. -1.
         -1    1    1    2    0  502 -0.22110290308E+02 -0.34653191535E+02 -0.97411729678E+02  0.10572962546E+03  0.00000000000E+00 0.  1.
<scales pt_clust_5="13000.00000" pt_clust_6="13000.00000" pt_clust_7="13000.00000" pt_clust_8="13000.00000" pt_clust_9="41.10609"></scales>
<clustering>
<clus scale="   41.106">  1  9  2 -1</clus>
<clus scale="   90.632">  7  8 -1 -1</clus>
<clus scale="   92.345">  5  6 -1 -1</clus>
<clus scale="   98.668">  2  7  1 -1</clus>
<clus scale="   41.106">  1  5  2 -1</clus>
</clustering>
</event>
<event>
 9    1  0.1399746E-005  0.1289147E+03  0.7546771E-02  0.1229229E+00
          1   -1    0    0  502    0 -0.00000000000E+00  0.00000000000E+00  0.20919011403E+03  0.20919011403E+03  0.00000000000E+00 0. -1.
         21   -1    0    0  501  502  0.00000000000E+00 -0.00000000000E+00 -0.17604154428E+03  0.17604154428E+03  0.00000000000E+00 0.  1.
         23    2    1    2    0    0  0.33386266012E+02  0.89328665159E+02  0.14873760087E+03  0.19865017605E+03  0.90800690282E+02 0.  0.
         23    2    1    2    0    0 -0.39026762138E+02 -0.60661621796E+02 -0.84046901178E+02  0.14358705782E+03  0.91380747723E+02 0.  0.
        -11    1    4    4    0    0  0.73042419156E+01 -0.60099243188E+02 -0.74985734401E+02  0.96374951857E+02  0.00000000000E+00 0.  1.
         11    1    4    4    0    0 -0.46331004053E+02 -0.56237860815E+00 -0.90611667769E+01  0.47212105965E+02  0.00000000000E+00 0. -1.
        -11    1    3    3    0    0 -0.23540317831E+02 -0.18644199042E+01  0.20132286459E+02  0.31031138929E+02  0.00000000000E+00 0.  1.
         11    1    3    3    0    0  0.56926583843E+02  0.91193085063E+02  0.12860531441E+03  0.16761903712E+03  0.00000000000E+00 0. -1.
          1    1    1    2  501    0  0.56404961253E+01 -0.28667043362E+02 -0.31542129943E+02  0.42994424441E+02  0.00000000000E+00 0. -1.
<scales pt_clust_5="13000.00000" pt_clust_6="13000.00000" pt_clust_7="13000.00000" pt_clust_8="13000.00000" pt_clust_9="29.21668"></scales>
<clustering>
<clus scale="   29.217">  2  9  1 -1</clus>
<clus scale="   90.801">  7  8 -1 -1</clus>
<clus scale="   91.381">  5  6 -1 -1</clus>
<clus scale="  128.504">  1  7  2 -1</clus>
<clus scale="   29.217">  2  5  1 -1</clus>
</clustering>
</event>
<event>
 9    1  0.1399746E-005  0.1044177E+03  0.7546771E-02  0.1271633E+00
         21   -1    0    0  501  502  0.00000000000E+00  0.00000000000E+00  0.89105953230E+02  0.89105953230E+02  0.00000000000E+00 0.  1.
         -1   -1    0    0    0  501 -0.00000000000E+00 -0.00000000000E+00 -0.25485450857E+03  0.25485450857E+03  0.00000000000E+00 0.  1.
         23    2    1    2    0    0 -0.28450469106E+02  0.46181157888E+02 -0.14102180243E+03  0.17628791768E+03  0.90819340587E+02 0.  0.
         23    2    1    2    0    0  0.60251956888E+02  0.77199233657E-01 -0.17715977256E+02  0.11110116262E+03  0.91647739837E+02 0.  0.
        -13    1    3    3    0    0 -0.14731069121E+02 -0.26503004566E+02 -0.55279212802E+02  0.63049226930E+02  0.00000000000E+00 0. -1.
         13    1    3    3    0    0 -0.13719399985E+02  0.72684162454E+02 -0.85742589627E+02  0.11323869075E+03  0.00000000000E+00 0.  1.
        -13    1    4    4    0    0 -0.20844505702E+02  0.16788736428E+02 -0.21571446268E+01  0.26851598868E+02  0.00000000000E+00 0. -1.
         13    1    4    4    0    0  0.81096462589E+02 -0.16711537195E+02 -0.15558832629E+02  0.84249563754E+02  0.00000000000E+00 0.  1.
         -1    1    1    2    0  502 -0.31801487782E+02 -0.46258357121E+02 -0.70107756512E+01  0.56571381492E+02  0.00000000000E+00 0.  1.
<scales pt_clust_5="13000.00000" pt_clust_6="13000.00000" pt_clust_7="13000.00000" pt_clust_8="13000.00000" pt_clust_9="56.13529"></scales>
<clustering>
<clus scale="   56.135">  1  9  2 -1</clus>
<clus scale="   90.819">  5  6 -1 -1</clus>
<clus scale="   91.648">  7  8 -1 -1</clus>
<clus scale="  103.691">  2  5  1 -1</clus>
<clus scale="   56.135">  1  5  2 -1</clus>
</clustering>
</event>
<event>
 9    1  0.1399746E-005  0.9848662E+02  0.7546771E-02  0.1284117E+00
         -2   -1    0    0    0  501 -0.00000000000E+00  0.00000000000E+00  0.13664404335E+03  0.13664404335E+03  0.00000000000E+00 0.  1.
         21   -1    0    0  501  502  0.00000000000E+00 -0.00000000000E+00 -0.25768403183E+03  0.25768403183E+03  0.00000000000E+00 0.  1.
         23    2    1    2    0    0 -0.62862971346E+02  0.36632768986E+02  0.40682403484E+02  0.12364233742E+03  0.91316245643E+02 0.  0.
         23    2    1    2    0    0 -0.10060817836E+02  0.11733918348E+02 -0.84269593431E+01  0.94173117443E+02  0.92513012651E+02 0.  0.
        -11    1    3    3    0    0 -0.36873839676E+02 -0.18729346209E+02 -0.11847253476E+02  0.43021225887E+02  0.00000000000E+00 0. -1.
         11    1    3    3    0    0 -0.25989131670E+02  0.55362115194E+02  0.52529656960E+02  0.80621111528E+02  0.00000000000E+00 0.  1.
        -13    1    4    4    0    0  0.93593889292E+01  0.34222085847E+02  0.29396170856E+02  0.46074767301E+02  0.00000000000E+00 0.  1.
         13    1    4    4    0    0 -0.19420206765E+02 -0.22488167499E+02 -0.37823130199E+02  0.48098350142E+02  0.00000000000E+00 0. -1.
         -2    1    1    2    0  502  0.72923789182E+02 -0.48366687333E+02 -0.15329543262E+03  0.17651262032E+03  0.00000000000E+00 0.  1.
<scales pt_clust_5="13000.00000" pt_clust_6="13000.00000" pt_clust_7="13000.00000" pt_clust_8="13000.00000" pt_clust_9="87.50552"></scales>
<clustering>
<clus scale="   87.506">  2  9  1 -1</clus>
<clus scale="   91.316">  5  6 -1 -1</clus>
<clus scale="   92.513">  7  8 -1 -1</clus>
<clus scale="   97.363">  1  5  2 -1</clus>
<clus scale="   87.506">  2  5  1 -1</clus>
</clustering>
</event>
<event>
 9    1  0.1399746E-005  0.1085512E+03  0.7546771E-02  0.1271216E+00
         21   -1    0    0  501  502  0.00000000000E+00  0.00000000000E+00  0.58586094745E+03  0.58586094745E+03  0.00000000000E+00 0.  1.
         -3   -1    0    0    0  501 -0.00000000000E+00 -0.00000000000E+00 -0.46695005225E+02  0.46695005225E+02  0.00000000000E+00 0.  1.
         23    2    1    2    0    0 -0.54951842769E+02  0.45896752835E+02  0.49284680985E+02  0.11220944192E+03  0.70963104023E+02 0.  0.
         23    2    1    2    0    0  0.38159212578E+02 -0.85466944398E+01  0.15949967958E+03  0.18743659983E+03  0.90350205746E+02 0.  0.
        -13    1    4    4    0    0  0.56502705099E+01  0.38408425307E+02  0.86004572272E+02  0.94360580451E+02  0.00000000000E+00 0.  1.
         13    1    4    4    0    0  0.32508942068E+02 -0.46955119746E+02  0.73495107307E+02  0.93076019376E+02  0.00000000000E+00 0. -1.
        -13    1    3    3    0    0 -0.27689912685E+02  0.53847540784E+02  0.56600135925E+02  0.82884644535E+02  0.00000000000E+00 0.  1.
         13    1    3    3    0    0 -0.27261930084E+02 -0.79507879494E+01 -0.73154549402E+01  0.29324797389E+02  0.00000000000E+00 0. -1.
         -3    1    1    2    0  502  0.16792630191E+02 -0.37350058395E+02  0.33038158166E+03  0.33290991092E+03  0.00000000000E+00 0.  1.
<scales pt_clust_5="13000.00000" pt_clust_6="13000.00000" pt_clust_7="13000.00000" pt_clust_8="13000.00000" pt_clust_9="40.95143"></scales>
<clustering>
<clus scale="   40.951">  1  9  2 -1</clus>
<clus scale="   70.963">  7  8 -1 -1</clus>
<clus scale="   90.350">  5  6 -1 -1</clus>
<clus scale="   93.037">  2  7  1 -1</clus>
<clus scale="   40.951">  1  5  2 -1</clus>
</clustering>
</event>
<event>
 9    1  0.1399746E-005  0.1206958E+03  0.7546771E-02  0.1242524E+00
         21   -1    0    0  501  502  0.00000000000E+00  0.00000000000E+00  0.12239499705E+03  0.12239499705E+03  0.00000000000E+00 0.  1.
         -2   -1    0    0    0  501 -0.00000000000E+00 -0.00000000000E+00 -0.39059354220E+03  0.39059354220E+03  0.00000000000E+00 0.  1.
         23    2    1    2    0    0  0.82286625757E+02  0.79838247728E+01 -0.20507840412E+03  0.24015534345E+03  0.93715563895E+02 0.  0.
         23    2    1    2    0    0 -0.41570665948E+02 -0.82590091132E+02 -0.11449536704E+03  0.17351905677E+03  0.91926223502E+02 0.  0.
        -11    1    3    3    0    0  0.44330555110E+02  0.50684956380E+02 -0.10016558166E+03  0.12069509795E+03  0.00000000000E+00 0.  1.
         11    1    3    3    0    0  0.37956070648E+02 -0.42701131607E+02 -0.10491282246E+03  0.11946024550E+03  0.00000000000E+00 0. -1.
        -13    1    4    4    0    0 -0.51416350244E+02 -0.46585110177E+02 -0.20443457293E+02  0.72330826821E+02  0.00000000000E+00 0. -1.
         13    1    4    4    0    0  0.98456842955E+01 -0.36004980956E+02 -0.94051909743E+02  0.10118822994E+03  0.00000000000E+00 0.  1.
         -2    1    1    2    0  502 -0.40715959809E+02  0.74606266360E+02  0.51375226003E+02  0.99314139025E+02  0.00000000000E+00 0.  1.
<scales pt_clust_5="13000.00000" pt_clust_6="13000.00000" pt_clust_7="13000.00000" pt_clust_8="13000.00000" pt_clust_9="84.99344"></scales>
<clustering>
<clus scale="   84.993">  1  9  2 -1</clus>
<clus scale="   91.926">  7  8 -1 -1</clus>
<clus scale="   93.716">  5  6 -1 -1</clus>
<clus scale="  119.312">  1  7  2 -1</clus>
<clus scale="   84.993">  1  5  2 -1</clus>
</clustering>
</event>
<event>
 9    1  0.1399746E-005  0.9454875E+02  0.7546771E-02  0.1293074E+00
         -1   -1    0    0    0  501 -0.00000000000E+00  0.00000000000E+00  0.32978365198E+02  0.32978365198E+02  0.00000000000E+00 0.  1.
         21   -1    0    0  501  502  0.00000000000E+00 -0.00000000000E+00 -0.40982419207E+03  0.40982419207E+03  0.00000000000E+00 0. -1.
         23    2    1    2    0    0  0.36051257403E+01  0.50567937271E+01 -0.11686644162E+03  0.14892782231E+03  0.92104087790E+02 0.  0.
         23    2    1    2    0    0 -0.21443539214E+02  0.17815522862E+02 -0.14194038752E+03  0.17232410005E+03  0.93655238069E+02 0.  0.
        -11    1    4    4    0    0 -0.49851073529E+02  0.27153434650E+02 -0.12653744374E+03  0.13868728570E+03  0.00000000000E+00 0. -1.
         11    1    4    4    0    0  0.28407534315E+02 -0.93379117885E+01 -0.15402943780E+02  0.33636814349E+02  0.00000000000E+00 0.  1.
        -11    1    3    3    0    0 -0.11173881629E+02 -0.28180953672E+02 -0.42861919285E+01  0.30616878054E+02  0.00000000000E+00 0.  1.
         11    1    3    3    0    0  0.14779007370E+02  0.33237747399E+02 -0.11258024969E+03  0.11831094426E+03  0.00000000000E+00 0. -1.
         -1    1    1    2    0  502  0.17838413474E+02 -0.22872316589E+02 -0.11803899773E+03  0.12155063491E+03  0.00000000000E+00 0.  1.
<scales pt_clust_5="13000.00000" pt_clust_6="13000.00000" pt_clust_7="13000.00000" pt_clust_8="13000.00000" pt_clust_9="29.00607"></scales>
<clustering>
<clus scale="   29.006">  2  9  1 -1</clus>
<clus scale="   92.104">  7  8 -1 -1</clus>
<clus scale="   93.013">  1  7  2 -1</clus>
<clus scale="   93.655">  5  6 -1 -1</clus>
<clus scale="   29.006">  2  5  1 -1</clus>
</clustering>
</event>
<event>
 9    1  0.1399746E-005  0.1057536E+03  0.7546771E-02  0.1268796E+00
          2   -1    0    0  502    0 -0.00000000000E+00  0.00000000000E+00  0.24837478427E+03  0.24837478427E+03  0.00000000000E+00 0. -1.
         21   -1    0    0  501  502  0.00000000000E+00 -0.00000000000E+00 -0.10910892772E+03  0.10910892772E+03  0.00000000000E+00 0. -1.
         23    2    1    2    0    0  0.41466618608E+02  0.37902737054E+02  0.16594733523E+03  0.19847472201E+03  0.93260920384E+02 0.  0.
         23    2    1    2    0    0 -0.42555218651E+02  0.24389203710E+01  0.12236126337E+02  0.10294461311E+03  0.92903044162E+02 0.  0.
        -11    1    4    4    0    0 -0.48584224448E+02  0.30217493107E+02 -0.19399864969E+02  0.60414224449E+02  0.00000000000E+00 0. -1.
         11    1    4    4    0    0  0.60290057969E+01 -0.27778572736E+02  0.31635991306E+02  0.42530388666E+02  0.00000000000E+00 0.  1.
        -13    1    3    3    0    0  0.52299877138E+02  0.90323376092E+01  0.34134982750E+02  0.63103544422E+02  0.00000000000E+00 0.  1.
         13    1    3    3    0    0 -0.10833258529E+02  0.28870399445E+02  0.13181235248E+03  0.13537117758E+03  0.00000000000E+00 0. -1.
          2    1    1    2  501    0  0.10886000427E+01 -0.40341657425E+02 -0.38917605018E+02  0.56064376874E+02  0.00000000000E+00 0. -1.
<scales pt_clust_5="13000.00000" pt_clust_6="13000.00000" pt_clust_7="13000.00000" pt_clust_8="13000.00000" pt_clust_9="40.35634"></scales>
<clustering>
<clus scale="   40.356">  2  9  1 -1</clus>
<clus scale="   92.903">  5  6 -1 -1</clus>
<clus scale="   93.261">  7  8 -1 -1</clus>
<clus scale="  105.438">  2  5  1 -1</clus>
<clus scale="   40.356">  2  5  1 -1</clus>
</clustering>
</event>
<event>
 9    1  0.1399746E-005  0.1188800E+03  0.7546771E-02  0.1252294E+00
         21   -1    0    0  501  502  0.00000000000E+00  0.00000000000E+00  0.85420367254E+02  0.85420367254E+02  0.00000000000E+00 0.  1.
          1   -1    0    0  502    0 -0.00000000000E+00 -0.00000000000E+00 -0.18414718657E+03  0.18414718657E+03  0.00000000000E+00 0. -1.
         23    2    1    2    0    0 -0.20680569143E+02 -0.73781364003E+02 -0.70454208890E+02  0.14060931949E+03  0.94529411107E+02 0.  0.
         23    2    1    2    0    0  0.38327000363E+02  0.57481699274E+02 -0.29836397104E+02  0.10488499122E+03  0.73058511359E+02 0.  0.
        -13    1    4    4    0    0 -0.12421714189E+02  0.38153359097E+02 -0.30782136382E+02  0.50571906371E+02  0.00000000000E+00 0. -1.
         13    1    4    4    0    0  0.50748714552E+02  0.19328340177E+02  0.94573927738E+00  0.54313084846E+02  0.00000000000E+00 0.  1.
        -13    1    3    3    0    0 -0.90672026692E+01 -0.33929343180E+02 -0.88600001848E+02  0.95306740687E+02  0.00000000000E+00 0. -1.
         13    1    3    3    0    0 -0.11613366474E+02 -0.39852020823E+02  0.18145792958E+02  0.45302578808E+02  0.00000000000E+00 0.  1.
          1    1    1    2  501    0 -0.17646431220E+02  0.16299664729E+02  0.15637866810E+01  0.24073243111E+02  0.00000000000E+00 0. -1.
<scales pt_clust_5="13000.00000" pt_clust_6="13000.00000" pt_clust_7="13000.00000" pt_clust_8="13000.00000" pt_clust_9="24.02240"></scales>
<clustering>
<clus scale="   24.022">  1  9  2 -1</clus>
<clus scale="   73.059">  5  6 -1 -1</clus>
<clus scale="   94.529">  7  8 -1 -1</clus>
<clus scale="  102.636">  1  5  2 -1</clus>
<clus scale="   24.022">  1  5  2 -1</clus>
</clustering>
</event>
<event>
 9    1  0.1399746E-005  0.1600467E+03  0.7546771E-02  0.1188915E+00
         21   -1    0    0  501  502  0.00000000000E+00  0.00000000000E+00  0.32204300212E+03  0.32204300212E+03  0.00000000000E+00 0.  1.
         -3   -1    0    0    0  501 -0.00000000000E+00 -0.00000000000E+00 -0.30647579071E+03  0.30647579071E+03  0.00000000000E+00 0.  1.
         23    2    1    2    0    0 -0.12468684863E+03 -0.78668292507E+02 -0.24300071827E+03  0.29786773636E+03  0.89108522679E+02 0.  0.
         23    2    1    2    0    0  0.59106752107E+02  0.25009884115E+02  0.94221537541E+02  0.14574645821E+03  0.90803246058E+02 0.  0.
        -11    1    3    3    0    0 -0.13291937542E+02 -0.53350040339E+02 -0.10664620912E+03  0.11998465038E+03  0.00000000000E+00 0. -1.
         11    1    3    3    0    0 -0.11139491109E+03 -0.25318252168E+02 -0.13635450915E+03  0.17788308597E+03  0.00000000000E+00 0.  1.
        -11    1    4    4    0    0 -0.11511814280E+01  0.44059779847E+02  0.20395171605E+02  0.48564930183E+02  0.00000000000E+00 0. -1.
         11    1    4    4    0    0  0.60257933535E+02 -0.19049895733E+02  0.73826365936E+02  0.97181528022E+02  0.00000000000E+00 0.  1.
         -3    1    1    2    0  502  0.65580096524E+02  0.53658408392E+02  0.16434639214E+03  0.18490459827E+03  0.00000000000E+00 0.  1.
<scales pt_clust_5="13000.00000" pt_clust_6="13000.00000" pt_clust_7="13000.00000" pt_clust_8="13000.00000" pt_clust_9="84.73473"></scales>
<clustering>
<clus scale="   84.735">  1  9  2 -1</clus>
<clus scale="   89.109">  5  6 -1 -1</clus>
<clus scale="   90.803">  7  8 -1 -1</clus>
<clus scale="  159.091">  2  5  1 -1</clus>
<clus scale="   84.735">  1  5  2 -1</clus>
</clustering>
</event>
<event>
 9    1  0.1399746E-005  0.2124520E+03  0.7546771E-02  0.1139807E+00
         21   -1    0    0  501  502  0.00000000000E+00  0.00000000000E+00  0.75543686132E+03  0.75543686132E+03  0.00000000000E+00 0. -1.
         -3   -1    0    0    0  501 -0.00000000000E+00 -0.00000000000E+00 -0.90077385800E+02  0.90077385800E+02  0.00000000000E+00 0.  1.
         23    2    1    2    0    0 -0.16395705926E+03  0.12141996820E+03  0.16013624863E+03  0.27412828932E+03  0.88757956956E+02 0.  0.
         23    2    1    2    0    0  0.15074395543E+03 -0.90264584172E+02  0.27524450260E+03  0.33893067673E+03  0.90791145862E+02 0.  0.
        -11    1    3    3    0    0 -0.49588025444E+01  0.45416115270E+02  0.41191886703E+02  0.61514102278E+02  0.00000000000E+00 0. -1.
         11    1    3    3    0    0 -0.15899825671E+03  0.76003852930E+02  0.11894436192E+03  0.21261418704E+03  0.00000000000E+00 0.  1.
        -13    1    4    4    0    0  0.89225838570E+02 -0.56769855086E+01  0.16011298420E+03  0.18338387645E+03  0.00000000000E+00 0. -1.
         13    1    4    4    0    0  0.61518116859E+02 -0.84587598663E+02  0.11513151840E+03  0.15554680028E+03  0.00000000000E+00 0.  1.
         -3    1    1    2    0  502  0.13213103828E+02 -0.31155384028E+02  0.22997872430E+03  0.23245528107E+03  0.00000000000E+00 0.  1.
<scales pt_clust_5="13000.00000" pt_clust_6="13000.00000" pt_clust_7="13000.00000" pt_clust_8="13000.00000" pt_clust_9="33.84145"></scales>
<clustering>
<clus scale="   33.841">  1  9  2 -1</clus>
<clus scale="   88.758">  5  6 -1 -1</clus>
<clus scale="   90.791">  7  8 -1 -1</clus>
<clus scale="  211.591">  2  5  1 -1</clus>
<clus scale="   33.841">  1  5  2 -1</clus>
</clustering>
</event>
<event>
 9    1  0.1399746E-005  0.1100560E+03  0.7546771E-02  0.1267364E+00
         21   -1    0    0  501  502  0.00000000000E+00  0.00000000000E+00  0.15990013236E+03  0.15990013236E+03  0.00000000000E+00 0.  1.
          3   -1    0    0  502    0 -0.00000000000E+00 -0.00000000000E+00 -0.15854574465E+03  0.15854574465E+03  0.00000000000E+00 0. -1.
         23    2    1    2    0    0  0.17898106483E+02  0.32311328415E+02 -0.75389394326E+02  0.13597589593E+03  0.10696503793E+03 0.  0.
         23    2    1    2    0    0 -0.27445534059E+02  0.16627597095E+02  0.91279985254E+01  0.98457684456E+02  0.92632936617E+02 0.  0.
        -11    1    3    3    0    0  0.21194941717E+02 -0.69711280829E+01 -0.90911519707E+02  0.93609436472E+02  0.00000000000E+00 0. -1.
         11    1    3    3    0    0 -0.32968352340E+01  0.39282456498E+02  0.15522125381E+02  0.42366459463E+02  0.00000000000E+00 0.  1.
        -13    1    4    4    0    0  0.12155960441E+02  0.39976067194E+02 -0.17534368508E+02  0.45313435111E+02  0.00000000000E+00 0.  1.
         13    1    4    4    0    0 -0.39601494500E+02 -0.23348470099E+02  0.26662367034E+02  0.53144249345E+02  0.00000000000E+00 0. -1.
          3    1    1    2  501    0  0.95474275764E+01 -0.48938925510E+02  0.67615783512E+02  0.84012296620E+02  0.00000000000E+00 0. -1.
<scales pt_clust_5="13000.00000" pt_clust_6="13000.00000" pt_clust_7="13000.00000" pt_clust_8="13000.00000" pt_clust_9="49.86153"></scales>
<clustering>
<clus scale="   49.862">  1  9  2 -1</clus>
<clus scale="   92.633">  7  8 -1 -1</clus>
<clus scale="   96.186">  1  7  2 -1</clus>
<clus scale="  106.965">  5  6 -1 -1</clus>
<clus scale="   49.862">  1  5  2 -1</clus>
</clustering>
</event>
<event>
 9    1  0.1399746E-005  0.9416960E+02  0.7546771E-02  0.1293370E+00
          2   -1    0    0  502    0 -0.00000000000E+00  0.00000000000E+00  0.35751869931E+03  0.35751869931E+03  0.00000000000E+00 0. -1.
         21   -1    0    0  501  502  0.00000000000E+00 -0.00000000000E+00 -0.14232215810E+03  0.14232215810E+03  0.00000000000E+00 0. -1.
         23    2    1    2    0    0  0.34435286555E+01  0.30890121617E+02  0.27636342431E+03  0.29241713903E+03  0.90360297683E+02 0.  0.
         23    2    1    2    0    0  0.18272016703E+02  0.19415496424E+00  0.38779515940E+02  0.10052619810E+03  0.90927231113E+02 0.  0.
        -11    1    4    4    0    0  0.26507036144E+02 -0.23343790704E+02 -0.17168560980E+02  0.39272318695E+02  0.00000000000E+00 0.  1.
         11    1    4    4    0    0 -0.82350194410E+01  0.23537945668E+02  0.55948076920E+02  0.61253879408E+02  0.00000000000E+00 0. -1.
        -13    1    3    3    0    0  0.40142974819E+02  0.16173758255E+02  0.21574458374E+03  0.22004266472E+03  0.00000000000E+00 0. -1.
         13    1    3    3    0    0 -0.36699446163E+02  0.14716363362E+02  0.60618840568E+02  0.72374474306E+02  0.00000000000E+00 0.  1.
          2    1    1    2  501    0 -0.21715545358E+02 -0.31084276581E+02 -0.99946399045E+02  0.10689752028E+03  0.00000000000E+00 0. -1.
<scales pt_clust_5="13000.00000" pt_clust_6="13000.00000" pt_clust_7="13000.00000" pt_clust_8="13000.00000" pt_clust_9="37.91830"></scales>
<clustering>
<clus scale="   37.918">  2  9  1 -1</clus>
<clus scale="   90.360">  7  8 -1 -1</clus>
<clus scale="   90.927">  5  6 -1 -1</clus>
<clus scale="   93.622">  1  7  2 -1</clus>
<clus scale="   37.918">  2  5  1 -1</clus>
</clustering>
</event>
<event>
 9    1  0.1399746E-005  0.1251373E+03  0.7546771E-02  0.1235466E+00
         21   -1    0    0  501  502  0.00000000000E+00  0.00000000000E+00  0.58414864894E+03  0.58414864894E+03  0.00000000000E+00 0. -1.
         -1   -1    0    0    0  501 -0.00000000000E+00 -0.00000000000E+00 -0.56286224061E+02  0.56286224061E+02  0.00000000000E+00 0.  1.
         23    2    1    2    0    0 -0.42798146379E+02  0.68579057062E+02  0.94357366568E+02  0.15376658180E+03  0.90587419944E+02 0.  0.
         23    2    1    2    0    0 -0.10926289563E+01 -0.97723824524E+02  0.16479064525E+03  0.21283758910E+03  0.92697048776E+02 0.  0.
        -13    1    3    3    0    0 -0.16934856362E+01  0.69037964193E+02  0.25586208369E+02  0.73646197812E+02  0.00000000000E+00 0.  1.
         13    1    3    3    0    0 -0.41104660743E+02 -0.45890713040E+00  0.68771158198E+02  0.80120383989E+02  0.00000000000E+00 0. -1.
        -13    1    4    4    0    0 -0.24877766636E+02 -0.81310674978E+02  0.16304567716E+03  0.18388643772E+03  0.00000000000E+00 0. -1.
         13    1    4    4    0    0  0.23785137680E+02 -0.16413149546E+02  0.17449680994E+01  0.28951151378E+02  0.00000000000E+00 0.  1.
         -1    1    1    2    0  502  0.43890775336E+02  0.29144767462E+02  0.26871441305E+03  0.27383070210E+03  0.00000000000E+00 0.  1.
<scales pt_clust_5="13000.00000" pt_clust_6="13000.00000" pt_clust_7="13000.00000" pt_clust_8="13000.00000" pt_clust_9="52.68603"></scales>
<clustering>
<clus scale="   52.686">  1  9  2 -1</clus>
<clus scale="   90.587">  5  6 -1 -1</clus>
<clus scale="   92.697">  7  8 -1 -1</clus>
<clus scale="  123.583">  2  5  1 -1</clus>
<clus scale="   52.686">  1  5  2 -1</clus>
</clustering>
</event>
<event>
 9    1  0.1399746E-005  0.1140578E+03  0.7546771E-02  0.1253919E+00
         -1   -1    0    0    0  501 -0.00000000000E+00  0.00000000000E+00  0.18902424558E+03  0.18902424558E+03  0.00000000000E+00 0.  1.
         21   -1    0    0  501  502  0.00000000000E+00 -0.00000000000E+00 -0.54762890389E+03  0.54762890389E+03  0.00000000000E+00 0.  1.
         23    2    1    2    0    0 -0.27196599411E+02 -0.74128166710E+02  0.14251460012E+03  0.18692445492E+03  0.91628055094E+02 0.  0.
         23    2    1    2    0    0  0.56480285559E+01  0.20021967920E+02 -0.72576648983E+02  0.11724679925E+03  0.89703191304E+02 0.  0.
        -11    1    3    3    0    0 -0.31161089419E+01 -0.90559186172E+02  0.95839764353E+02  0.13189365704E+03  0.00000000000E+00 0.  1.
         11    1    3    3    0    0 -0.24080490469E+02  0.16431019463E+02  0.46674835767E+02  0.55030797883E+02  0.00000000000E+00 0. -1.
        -11    1    4    4    0    0 -0.20763693725E+02 -0.26589438692E+02 -0.47068122402E+02  0.57909734704E+02  0.00000000000E+00 0.  1.
         11    1    4    4    0    0  0.26411722281E+02  0.46611406612E+02 -0.25508526581E+02  0.59337064543E+02  0.00000000000E+00 0. -1.
         -1    1    1    2    0  502  0.21548570855E+02  0.54106198790E+02 -0.42854260945E+03  0.43248189530E+03  0.00000000000E+00 0.  1.
<scales pt_clust_5="13000.00000" pt_clust_6="13000.00000" pt_clust_7="13000.00000" pt_clust_8="13000.00000" pt_clust_9="58.23935"></scales>
<clustering>
<clus scale="   58.239">  2  9  1 -1</clus>
<clus scale="   89.703">  7  8 -1 -1</clus>
<clus scale="   91.628">  5  6 -1 -1</clus>
<clus scale="  112.517">  2  7  1 -1</clus>
<clus scale="   58.239">  2  5  1 -1</clus>
</clustering>
</event>
<event>
 9    1  0.1399746E-005  0.9530534E+02  0.7546771E-02  0.1292864E+00
         21   -1    0    0  501  502  0.00000000000E+00  0.00000000000E+00  0.61744151268E+03  0.61744151268E+03  0.00000000000E+00 0.  1.
          2   -1    0    0  502    0 -0.00000000000E+00 -0.00000000000E+00 -0.24411474662E+02  0.24411474662E+02  0.00000000000E+00 0. -1.
         23    2    1    2    0    0  0.16859125366E+02  0.97682409491E+01  0.12927715897E+03  0.15891643568E+03  0.90344900564E+02 0.  0.
         23    2    1    2    0    0 -0.36548776738E+01  0.13468682127E+02  0.25198524980E+03  0.26948905098E+03  0.94514649403E+02 0.  0.
        -11    1    4    4    0    0  0.29572461476E+02 -0.28642724002E+02  0.12613282042E+03  0.13268166604E+03  0.00000000000E+00 0. -1.
         11    1    4    4    0    0 -0.33227339150E+02  0.42111406128E+02  0.12585242938E+03  0.13680738494E+03  0.00000000000E+00 0.  1.
        -13    1    3    3    0    0  0.46269216991E+02  0.20324597424E+02  0.40380079972E+02  0.64687561091E+02  0.00000000000E+00 0.  1.
         13    1    3    3    0    0 -0.29410091625E+02 -0.10556356475E+02  0.88897079000E+02  0.94228874588E+02  0.00000000000E+00 0. -1.
          2    1    1    2  501    0 -0.13204247693E+02 -0.23236923076E+02  0.21176762925E+03  0.21344750069E+03  0.00000000000E+00 0. -1.
<scales pt_clust_5="13000.00000" pt_clust_6="13000.00000" pt_clust_7="13000.00000" pt_clust_8="13000.00000" pt_clust_9="26.72652"></scales>
<clustering>
<clus scale="   26.727">  1  9  2 -1</clus>
<clus scale="   90.345">  7  8 -1 -1</clus>
<clus scale="   91.172">  2  7  1 -1</clus>
<clus scale="   94.515">  5  6 -1 -1</clus>
<clus scale="   26.727">  1  5  2 -1</clus>
</clustering>
</event>
<event>
 9    1  0.1399746E-005  0.1099815E+03  0.7546771E-02  0.1260800E+00
         21   -1    0    0  501  502  0.00000000000E+00  0.00000000000E+00  0.26705889953E+02  0.26705889953E+02  0.00000000000E+00 0. -1.
          1   -1    0    0  502    0 -0.00000000000E+00 -0.00000000000E+00 -0.12511184607E+04  0.12511184607E+04  0.00000000000E+00 0. -1.
         23    2    1    2    0    0  0.58175256354E+02  0.36211975061E+02 -0.62935468097E+03  0.63963741955E+03  0.91395002280E+02 0.  0.
         23    2    1    2    0    0 -0.61639861939E+02  0.11710023754E+02 -0.57600972426E+03  0.58650178744E+03  0.90887551346E+02 0.  0.
        -13    1    3    3    0    0  0.19294786940E+02 -0.30914010714E+02 -0.21994937682E+03  0.22294773654E+03  0.00000000000E+00 0.  1.
         13    1    3    3    0    0  0.38880469414E+02  0.67125985775E+02 -0.40940530415E+03  0.41668968302E+03  0.00000000000E+00 0. -1.
        -13    1    4    4    0    0  0.23692853145E+02  0.79479666404E+01 -0.13662723669E+03  0.13889392812E+03  0.00000000000E+00 0. -1.
         13    1    4    4    0    0 -0.85332715084E+02  0.37620571139E+01 -0.43938248757E+03  0.44760785932E+03  0.00000000000E+00 0.  1.
          1    1    1    2  501    0  0.34646055856E+01 -0.47921998815E+02 -0.19048165460E+02  0.51685143607E+02  0.00000000000E+00 0. -1.
<scales pt_clust_5="13000.00000" pt_clust_6="13000.00000" pt_clust_7="13000.00000" pt_clust_8="13000.00000" pt_clust_9="48.04708"></scales>
<clustering>
<clus scale="   48.047">  1  9  2 -1</clus>
<clus scale="   90.888">  7  8 -1 -1</clus>
<clus scale="   91.395">  5  6 -1 -1</clus>
<clus scale="  109.560">  1  7  2 -1</clus>
<clus scale="   48.047">  1  5  2 -1</clus>
</clustering>
</event>
<event>
 9    1  0.1399746E-005  0.9939237E+02  0.7546771E-02  0.1282762E+00
         21   -1    0    0  501  502  0.00000000000E+00  0.00000000000E+00  0.38983920865E+03  0.38983920865E+03  0.00000000000E+00 0. -1.
          1   -1    0    0  502    0 -0.00000000000E+00 -0.00000000000E+00 -0.64384780199E+02  0.64384780199E+02  0.00000000000E+00 0. -1.
         23    2    1    2    0    0  0.58790210579E+02 -0.22608225927E+01  0.62843909428E+02  0.12824141256E+03  0.95053157577E+02 0.  0.
         23    2    1    2    0    0  0.12430215482E+02 -0.33500470634E+02  0.83011138864E+02  0.12949553718E+03  0.92744019675E+02 0.  0.
        -13    1    3    3    0    0  0.22334604930E+02  0.33330736450E+02 -0.80672415864E+01  0.40924967397E+02  0.00000000000E+00 0.  1.
         13    1    3    3    0    0  0.36455605649E+02 -0.35591559042E+02  0.70911151014E+02  0.87316445166E+02  0.00000000000E+00 0. -1.
        -13    1    4    4    0    0  0.90810380744E+01 -0.60631538058E+02  0.81676597473E+02  0.10212597728E+03  0.00000000000E+00 0. -1.
         13    1    4    4    0    0  0.33491774079E+01  0.27131067424E+02  0.13345413919E+01  0.27369559909E+02  0.00000000000E+00 0.  1.
          1    1    1    2  501    0 -0.71220426061E+02  0.35761293227E+02  0.17959938016E+03  0.19648703910E+03  0.00000000000E+00 0. -1.
<scales pt_clust_5="13000.00000" pt_clust_6="13000.00000" pt_clust_7="13000.00000" pt_clust_8="13000.00000" pt_clust_9="79.69454"></scales>
<clustering>
<clus scale="   79.695">  1  9  2 -1</clus>
<clus scale="   92.744">  7  8 -1 -1</clus>
<clus scale="   95.053">  5  6 -1 -1</clus>
<clus scale="   97.186">  1  7  2 -1</clus>
<clus scale="   79.695">  1  5  2 -1</clus>
</clustering>
</event>
<event>
 9    1  0.1399746E-005  0.1961524E+03  0.7546771E-02  0.1185137E+00
         21   -1    0    0  501  502  0.00000000000E+00  0.00000000000E+00  0.18705672931E+03  0.18705672931E+03  0.00000000000E+00 0. -1.
         -2   -1    0    0    0  501 -0.00000000000E+00 -0.00000000000E+00 -0.47211274514E+03  0.47211274514E+03  0.00000000000E+00 0.  1.
         23    2    1    2    0    0  0.14597200521E+02 -0.20993687678E+02 -0.27442262417E+03  0.29006937002E+03  0.90435886597E+02 0.  0.
         23    2    1    2    0    0 -0.17923026345E+03 -0.20888720338E+01 -0.27514985189E+01  0.20267001637E+03  0.94550061184E+02 0.  0.
        -11    1    3    3    0    0 -0.13604274644E+02 -0.39827446860E+02 -0.23185939664E+03  0.23564821583E+03  0.00000000000E+00 0.  1.
         11    1    3    3    0    0  0.28201475165E+02  0.18833759182E+02 -0.42563227529E+02  0.54421154197E+02  0.00000000000E+00 0. -1.
        -13    1    4    4    0    0 -0.13453787665E+03 -0.19052398818E+02  0.36633413196E+02  0.14073180563E+03  0.00000000000E+00 0. -1.
         13    1    4    4    0    0 -0.44692386795E+02  0.16963526784E+02 -0.39384911715E+02  0.61938210736E+02  0.00000000000E+00 0.  1.
         -2    1    1    2    0  502  0.16463306293E+03  0.23082559712E+02 -0.78818931405E+01  0.16643008806E+03  0.00000000000E+00 0.  1.
<scales pt_clust_5="13000.00000" pt_clust_6="13000.00000" pt_clust_7="13000.00000" pt_clust_8="13000.00000" pt_clust_9="171.86050"></scales>
<clustering>
<clus scale="   90.436">  5  6 -1 -1</clus>
<clus scale="   93.981">  2  5  1 -1</clus>
<clus scale="   94.550">  7  8 -1 -1</clus>
<clus scale="  171.861">  1  9  2 -1</clus>
<clus scale="  171.861">  1  5  2 -1</clus>
</clustering>
</event>
<event>
 9    1  0.1399746E-005  0.9747089E+02  0.7546771E-02  0.1287700E+00
         21   -1    0    0  501  502  0.00000000000E+00  0.00000000000E+00  0.98611761071E+02  0.98611761071E+02  0.00000000000E+00 0.  1.
         -1   -1    0    0    0  501 -0.00000000000E+00 -0.00000000000E+00 -0.21364371450E+03  0.21364371450E+03  0.00000000000E+00 0.  1.
         23    2    1    2    0    0 -0.33538008383E+02  0.15492796088E+02 -0.12260373102E+03  0.15603481188E+03  0.89164807628E+02 0.  0.
         23    2    1    2    0    0  0.11133317940E+02 -0.11922563029E+02 -0.40791944376E+02  0.10280000925E+03  0.92939555079E+02 0.  0.
        -13    1    3    3    0    0 -0.29081799009E+02  0.45819656575E+02 -0.38554496798E+02  0.66570572971E+02  0.00000000000E+00 0.  1.
         13    1    3    3    0    0 -0.44562093738E+01 -0.30326860487E+02 -0.84049234225E+02  0.89464238904E+02  0.00000000000E+00 0. -1.
        -13    1    4    4    0    0 -0.11291380757E+02  0.18746061441E+02 -0.57329433718E+02  0.61364273559E+02  0.00000000000E+00 0.  1.
         13    1    4    4    0    0  0.22424698697E+02 -0.30668624469E+02  0.16537489343E+02  0.41435735691E+02  0.00000000000E+00 0. -1.
         -1    1    1    2    0  502  0.22404690444E+02 -0.35702330596E+01  0.48363721973E+02  0.53420654443E+02  0.00000000000E+00 0.  1.
<scales pt_clust_5="13000.00000" pt_clust_6="13000.00000" pt_clust_7="13000.00000" pt_clust_8="13000.00000" pt_clust_9="22.68737"></scales>
<clustering>
<clus scale="   22.687">  1  9  2 -1</clus>
<clus scale="   89.165">  5  6 -1 -1</clus>
<clus scale="   92.940">  7  8 -1 -1</clus>
<clus scale="   93.879">  2  5  1 -1</clus>
<clus scale="   22.687">  1  5  2 -1</clus>
</clustering>
</event>
<event>
 9    1  0.1399746E-005  0.1347774E+03  0.7546771E-02  0.1221091E+00
          1   -1    0    0  502    0 -0.00000000000E+00  0.00000000000E+00  0.71713739670E+03  0.71713739670E+03  0.00000000000E+00 0. -1.
         21   -1    0    0  501  502  0.00000000000E+00 -0.00000000000E+00 -0.10488140259E+03  0.10488140259E+03  0.00000000000E+00 0. -1.
         23    2    1    2    0    0 -0.45104831273E+02  0.75356342266E+02  0.37828034776E+03  0.39937499612E+03  0.93227366673E+02 0.  0.
         23    2    1    2    0    0  0.13304842273E+01 -0.12386991389E+03  0.29538573503E+03  0.33297240816E+03  0.90952550176E+02 0.  0.
        -13    1    3    3    0    0 -0.69788461729E+02  0.76114239591E+02  0.31184464238E+03  0.32849792669E+03  0.00000000000E+00 0.  1.
         13    1    3    3    0    0  0.24683630457E+02 -0.75789732491E+00  0.66435705382E+02  0.70877069427E+02  0.00000000000E+00 0. -1.
        -13    1    4    4    0    0  0.33262326585E+02 -0.12338719498E+02  0.47537668098E+02  0.59316576577E+02  0.00000000000E+00 0.  1.
         13    1    4    4    0    0 -0.31931842358E+02 -0.11153119439E+03  0.24784806693E+03  0.27365583158E+03  0.00000000000E+00 0. -1.
          1    1    1    2  501    0  0.43774347045E+02  0.48513571626E+02 -0.61410088681E+02  0.89671395010E+02  0.00000000000E+00 0. -1.
<scales pt_clust_5="13000.00000" pt_clust_6="13000.00000" pt_clust_7="13000.00000" pt_clust_8="13000.00000" pt_clust_9="65.34340"></scales>
<clustering>
<clus scale="   65.343">  2  9  1 -1</clus>
<clus scale="   90.953">  7  8 -1 -1</clus>
<clus scale="   93.227">  5  6 -1 -1</clus>
<clus scale="  133.214">  2  7  1 -1</clus>
<clus scale="   65.343">  2  5  1 -1</clus>
</clustering>
</event>
<event>
 9    1  0.1399746E-005  0.1416901E+03  0.7546771E-02  0.1229119E+00
          2   -1    0    0  502    0 -0.00000000000E+00  0.00000000000E+00  0.65505384475E+03  0.65505384475E+03  0.00000000000E+00 0. -1.
         21   -1    0    0  501  502  0.00000000000E+00 -0.00000000000E+00 -0.56645936117E+02  0.56645936117E+02  0.00000000000E+00 0. -1.
         23    2    1    2    0    0  0.39931337731E+02 -0.67304473153E+01  0.21112776734E+03  0.23234694785E+03  0.88149641975E+02 0.  0.
         23    2    1    2    0    0 -0.40350220534E+02 -0.96799346661E+02  0.33277014712E+03  0.36234884519E+03  0.97787836576E+02 0.  0.
        -11    1    3    3    0    0 -0.89181627508E+01  0.29521392634E+02  0.38584931350E+02  0.49394768723E+02  0.00000000000E+00 0.  1.
         11    1    3    3    0    0  0.48849500481E+02 -0.36251839949E+02  0.17254283599E+03  0.18295217913E+03  0.00000000000E+00 0. -1.
        -13    1    4    4    0    0  0.13983618461E+02 -0.39563752194E+02  0.36075605288E+02  0.55337883677E+02  0.00000000000E+00 0.  1.
         13    1    4    4    0    0 -0.54333838995E+02 -0.57235594467E+02  0.29669454183E+03  0.30701096151E+03  0.00000000000E+00 0. -1.
          2    1    1    2  501    0  0.41888280343E+00  0.10352979398E+03  0.54509994179E+02  0.11700398783E+03  0.00000000000E+00 0. -1.
<scales pt_clust_5="13000.00000" pt_clust_6="13000.00000" pt_clust_7="13000.00000" pt_clust_8="13000.00000" pt_clust_9="102.53602"></scales>
<clustering>
<clus scale="   88.150">  5  6 -1 -1</clus>
<clus scale="   97.006">  1  5  2 -1</clus>
<clus scale="   97.788">  7  8 -1 -1</clus>
<clus scale="  102.536">  2  9  1 -1</clus>
<clus scale="  102.536">  2  5  1 -1</clus>
</clustering>
</event>
<event>
 9    1  0.1399746E-005  0.1078584E+03  0.7546771E-02  0.1267488E+00
          1   -1    0    0  502    0 -0.00000000000E+00  0.00000000000E+00  0.24837921350E+03  0.24837921350E+03  0.00000000000E+00 0. -1.
         21   -1    0    0  501  502  0.00000000000E+00 -0.00000000000E+00 -0.12634140458E+03  0.12634140458E+03  0.00000000000E+00 0. -1.
         23    2    1    2    0    0  0.57176743324E+02  0.11020489997E+02  0.16706045698E+03  0.19581153772E+03  0.83918596524E+02 0.  0.
         23    2    1    2    0    0 -0.46898317474E+02 -0.43887661115E+02  0.12259570208E+02  0.11207234268E+03  0.91018316569E+02 0.  0.
        -13    1    4    4    0    0 -0.17280467249E+02 -0.53376288744E+02 -0.26772926576E+02  0.62164558599E+02  0.00000000000E+00 0. -1.
         13    1    4    4    0    0 -0.29617850226E+02  0.94886276285E+01  0.39032496783E+02  0.49907784076E+02  0.00000000000E+00 0.  1.
        -13    1    3    3    0    0  0.52327372378E+02  0.34163455365E+02  0.15898336372E+03  0.17082448747E+03  0.00000000000E+00 0. -1.
         13    1    3    3    0    0  0.48493709461E+01 -0.23142965368E+02  0.80770932643E+01  0.24987050250E+02  0.00000000000E+00 0.  1.
          1    1    1    2  501    0 -0.10278425850E+02  0.32867171118E+02 -0.57282218260E+02  0.66836737683E+02  0.00000000000E+00 0. -1.
<scales pt_clust_5="13000.00000" pt_clust_6="13000.00000" pt_clust_7="13000.00000" pt_clust_8="13000.00000" pt_clust_9="34.43685"></scales>
<clustering>
<clus scale="   34.437">  2  9  1 -1</clus>
<clus scale="   83.919">  7  8 -1 -1</clus>
<clus scale="   91.018">  5  6 -1 -1</clus>
<clus scale="  101.938">  1  7  2 -1</clus>
<clus scale="   34.437">  2  5  1 -1</clus>
</clustering>
</event>
<event>
 9    1  0.1399746E-005  0.1043798E+03  0.7546771E-02  0.1277286E+00
          1   -1    0    0  502    0 -0.00000000000E+00  0.00000000000E+00  0.61217905595E+02  0.61217905595E+02  0.00000000000E+00 0. -1.
         21   -1    0    0  501  502  0.00000000000E+00 -0.00000000000E+00 -0.25643172412E+03  0.25643172412E+03  0.00000000000E+00 0.  1.
         23    2    1    2    0    0 -0.48839086605E+01 -0.12021111306E+02 -0.25786984594E+02  0.10653227749E+03  0.10254656450E+03 0.  0.
         23    2    1    2    0    0  0.29832072950E+02  0.19089867630E+02 -0.11555088693E+03  0.15132608294E+03  0.91067009865E+02 0.  0.
        -11    1    3    3    0    0 -0.35585473261E+02 -0.35269642863E+02 -0.41383040986E+02  0.64983303210E+02  0.00000000000E+00 0. -1.
         11    1    3    3    0    0  0.30701564600E+02  0.23248531557E+02  0.15596056393E+02  0.41548974277E+02  0.00000000000E+00 0.  1.
        -11    1    4    4    0    0  0.17855085215E+02  0.55384566065E+02 -0.57384077295E+02  0.81726290465E+02  0.00000000000E+00 0.  1.
         11    1    4    4    0    0  0.11976987735E+02 -0.36294698435E+02 -0.58166809633E+02  0.69599792475E+02  0.00000000000E+00 0. -1.
          1    1    1    2  501    0 -0.24948164290E+02 -0.70687563242E+01 -0.53875947004E+02  0.59791269287E+02  0.00000000000E+00 0. -1.
<scales pt_clust_5="13000.00000" pt_clust_6="13000.00000" pt_clust_7="13000.00000" pt_clust_8="13000.00000" pt_clust_9="25.93026"></scales>
<clustering>
<clus scale="   25.930">  2  9  1 -1</clus>
<clus scale="   91.067">  7  8 -1 -1</clus>
<clus scale="   93.126">  2  7  1 -1</clus>
<clus scale="  102.547">  5  6 -1 -1</clus>
<clus scale="   25.930">  2  5  1 -1</clus>
</clustering>
</event>
<event>
 9    1  0.1399746E-005  0.9332559E+02  0.7546771E-02  0.1298232E+00
          2   -1    0    0  502    0 -0.00000000000E+00  0.00000000000E+00  0.38196177850E+03  0.38196177850E+03  0.00000000000E+00 0. -1.
         21   -1    0    0  501  502  0.00000000000E+00 -0.00000000000E+00 -0.35467867480E+02  0.35467867480E+02  0.00000000000E+00 0. -1.
         23    2    1    2    0    0 -0.18004132177E+02  0.49307230787E+01  0.18941795537E+03  0.20848384399E+03  0.85075793165E+02 0.  0.
         23    2    1    2    0    0  0.90928938454E+01 -0.34639080011E+02  0.14688493379E+03  0.17629838913E+03  0.90682918192E+02 0.  0.
        -11    1    3    3    0    0  0.29892752732E+02  0.72508084593E+00  0.12241789499E+03  0.12601683785E+03  0.00000000000E+00 0.  1.
         11    1    3    3    0    0 -0.47896884909E+02  0.42056422328E+01  0.67000060380E+02  0.82467006139E+02  0.00000000000E+00 0. -1.
        -13    1    4    4    0    0  0.33378438058E+02  0.18977369393E+02  0.51994769298E+02  0.64635259036E+02  0.00000000000E+00 0.  1.
         13    1    4    4    0    0 -0.24285544213E+02 -0.53616449404E+02  0.94890164494E+02  0.11166313009E+03  0.00000000000E+00 0. -1.
          2    1    1    2  501    0  0.89112383316E+01  0.29708356932E+02  0.10191021863E+02  0.32647412865E+02  0.00000000000E+00 0. -1.
<scales pt_clust_5="13000.00000" pt_clust_6="13000.00000" pt_clust_7="13000.00000" pt_clust_8="13000.00000" pt_clust_9="31.01607"></scales>
<clustering>
<clus scale="   31.016">  2  9  1 -1</clus>
<clus scale="   85.076">  5  6 -1 -1</clus>
<clus scale="   87.887">  1  5  2 -1</clus>
<clus scale="   90.683">  7  8 -1 -1</clus>
<clus scale="   31.016">  2  5  1 -1</clus>
</clustering>
</event>
<event>
 9    1  0.1399746E-005  0.1823936E+03  0.7546771E-02  0.1166257E+00
          2   -1    0    0  502    0 -0.00000000000E+00  0.00000000000E+00  0.67827528884E+03  0.67827528884E+03  0.00000000000E+00 0. -1.
         21   -1    0    0  501  502  0.00000000000E+00 -0.00000000000E+00 -0.62838705726E+02  0.62838705726E+02  0.00000000000E+00 0.  1.
         23    2    1    2    0    0  0.93002828652E+02  0.12575971448E+03  0.33427102795E+03  0.37861853342E+03  0.84556737143E+02 0.  0.
         23    2    1    2    0    0 -0.68340673516E+02 -0.14694361945E+03  0.27065891816E+03  0.32832867689E+03  0.90997775431E+02 0.  0.
        -13    1    3    3    0    0  0.40392776366E+02  0.43037822458E+01  0.45724592814E+02  0.61162384782E+02  0.00000000000E+00 0. -1.
         13    1    3    3    0    0  0.52610052286E+02  0.12145593223E+03  0.28854643514E+03  0.31745614863E+03  0.00000000000E+00 0.  1.
        -13    1    4    4    0    0 -0.15427135984E+02 -0.11178535277E+03  0.11948810174E+03  0.16435135557E+03  0.00000000000E+00 0.  1.
         13    1    4    4    0    0 -0.52913537532E+02 -0.35158266672E+02  0.15117081642E+03  0.16397732132E+03  0.00000000000E+00 0. -1.
          2    1    1    2  501    0 -0.24662155136E+02  0.21183904970E+02  0.10506637000E+02  0.34166784262E+02  0.00000000000E+00 0. -1.
<scales pt_clust_5="13000.00000" pt_clust_6="13000.00000" pt_clust_7="13000.00000" pt_clust_8="13000.00000" pt_clust_9="32.51122"></scales>
<clustering>
<clus scale="   32.511">  2  9  1 -1</clus>
<clus scale="   84.557">  5  6 -1 -1</clus>
<clus scale="   90.998">  7  8 -1 -1</clus>
<clus scale="  179.267">  1  5  2 -1</clus>
<clus scale="   32.511">  2  5  1 -1</clus>
</clustering>
</event>
<event>
 9    1  0.1399746E-005  0.1544119E+03  0.7546771E-02  0.1195967E+00
          4   -1    0    0  502    0 -0.00000000000E+00  0.00000000000E+00  0.41132117788E+03  0.41132117788E+03  0.00000000000E+00 0. -1.
         21   -1    0    0  501  502  0.00000000000E+00 -0.00000000000E+00 -0.13157408822E+03  0.13157408822E+03  0.00000000000E+00 0.  1.
         23    2    1    2    0    0 -0.10204283904E+03  0.57095023463E+02  0.24942467764E+03  0.29047092204E+03  0.92130907043E+02 0.  0.
         23    2    1    2    0    0  0.77083712170E+02 -0.12368239528E+03  0.43394797346E+02  0.18012134718E+03  0.96547178559E+02 0.  0.
        -11    1    3    3    0    0 -0.73913874482E+02 -0.96600552350E+01  0.14947492702E+03  0.16703092922E+03  0.00000000000E+00 0.  1.
         11    1    3    3    0    0 -0.28128964555E+02  0.66755078698E+02  0.99949750618E+02  0.12343999282E+03  0.00000000000E+00 0. -1.
        -13    1    4    4    0    0  0.51073477066E+02 -0.11328920005E+03 -0.48176873042E+01  0.12436298894E+03  0.00000000000E+00 0.  1.
         13    1    4    4    0    0  0.26010235104E+02 -0.10393195236E+02  0.48212484650E+02  0.55758358239E+02  0.00000000000E+00 0. -1.
          4    1    1    2  501    0  0.24959126867E+02  0.66587371821E+02 -0.13072385330E+02  0.72302996882E+02  0.00000000000E+00 0. -1.
<scales pt_clust_5="13000.00000" pt_clust_6="13000.00000" pt_clust_7="13000.00000" pt_clust_8="13000.00000" pt_clust_9="71.11143"></scales>
<clustering>
<clus scale="   71.111">  2  9  1 -1</clus>
<clus scale="   92.131">  5  6 -1 -1</clus>
<clus scale="   96.547">  7  8 -1 -1</clus>
<clus scale="  151.690">  1  5  2 -1</clus>
<clus scale="   71.111">  2  5  1 -1</clus>
</clustering>
</event>
<event>
 9    1  0.1399746E-005  0.9414347E+02  0.7546771E-02  0.1293476E+00
         21   -1    0    0  501  502  0.00000000000E+00  0.00000000000E+00  0.32107087329E+02  0.32107087329E+02  0.00000000000E+00 0. -1.
          1   -1    0    0  502    0 -0.00000000000E+00 -0.00000000000E+00 -0.43300335533E+03  0.43300335533E+03  0.00000000000E+00 0. -1.
         23    2    1    2    0    0 -0.29193168530E+02  0.84925934461E+01 -0.25461930415E+03  0.27191302260E+03  0.90450741186E+02 0.  0.
         23    2    1    2    0    0  0.14825075287E+02  0.54709950756E+01 -0.14641007657E+03  0.17316141181E+03  0.91100216110E+02 0.  0.
        -11    1    4    4    0    0  0.28335243844E+02 -0.14014441548E+02 -0.78291068268E+01  0.32566632145E+02  0.00000000000E+00 0.  1.
         11    1    4    4    0    0 -0.13510168556E+02  0.19485436624E+02 -0.13858096974E+03  0.14059477966E+03  0.00000000000E+00 0. -1.
        -13    1    3    3    0    0  0.31510367722E+02 -0.46445384817E+01 -0.65059488730E+02  0.72437642739E+02  0.00000000000E+00 0.  1.
         13    1    3    3    0    0 -0.60703536252E+02  0.13137131928E+02 -0.18955981542E+03  0.19947537986E+03  0.00000000000E+00 0. -1.
          1    1    1    2  501    0  0.14368093243E+02 -0.13963588522E+02  0.13311270960E+00  0.20036008256E+02  0.00000000000E+00 0. -1.
<scales pt_clust_5="13000.00000" pt_clust_6="13000.00000" pt_clust_7="13000.00000" pt_clust_8="13000.00000" pt_clust_9="20.03557"></scales>
<clustering>
<clus scale="   20.036">  1  9  2 -1</clus>
<clus scale="   90.451">  7  8 -1 -1</clus>
<clus scale="   91.100">  5  6 -1 -1</clus>
<clus scale="   93.515">  2  7  1 -1</clus>
<clus scale="   20.036">  1  5  2 -1</clus>
</clustering>
</event>
<event>
 9    1  0.1399746E-005  0.1333886E+03  0.7546771E-02  0.1224132E+00
          3   -1    0    0  502    0 -0.00000000000E+00  0.00000000000E+00  0.29619170559E+03  0.29619170559E+03  0.00000000000E+00 0. -1.
         21   -1    0    0  501  502  0.00000000000E+00 -0.00000000000E+00 -0.84111816969E+02  0.84111816969E+02  0.00000000000E+00 0.  1.
         23    2    1    2    0    0  0.10319980974E+02 -0.97100936378E+02  0.17167430661E+03  0.21472715581E+03  0.84264998898E+02 0.  0.
         23    2    1    2    0    0  0.14357603940E+02  0.98661986100E+02  0.40422743682E+02  0.14084945089E+03  0.90907872699E+02 0.  0.
        -11    1    4    4    0    0  0.66784233924E+00  0.39715718521E+02  0.64475953159E+02  0.75729339406E+02  0.00000000000E+00 0. -1.
         11    1    4    4    0    0  0.13689761601E+02  0.58946267579E+02 -0.24053209478E+02  0.65120111489E+02  0.00000000000E+00 0.  1.
        -11    1    3    3    0    0 -0.63016675686E-01 -0.44917922124E+02  0.15117793681E+03  0.15770983571E+03  0.00000000000E+00 0. -1.
         11    1    3    3    0    0  0.10382997650E+02 -0.52183014254E+02  0.20496369792E+02  0.57017320100E+02  0.00000000000E+00 0.  1.
          3    1    1    2  501    0 -0.24677584914E+02 -0.15610497219E+01 -0.17161664226E-01  0.24726915860E+02  0.00000000000E+00 0. -1.
<scales pt_clust_5="13000.00000" pt_clust_6="13000.00000" pt_clust_7="13000.00000" pt_clust_8="13000.00000" pt_clust_9="24.72691"></scales>
<clustering>
<clus scale="   24.727">  2  9  1 -1</clus>
<clus scale="   84.265">  7  8 -1 -1</clus>
<clus scale="   90.908">  5  6 -1 -1</clus>
<clus scale="  128.953">  1  7  2 -1</clus>
<clus scale="   24.727">  2  5  1 -1</clus>
</clustering>
</event>
<event>
 9    1  0.1399746E-005  0.2707010E+03  0.7546771E-02  0.1101156E+00
          1   -1    0    0  502    0 -0.00000000000E+00  0.00000000000E+00  0.60359000536E+03  0.60359000536E+03  0.00000000000E+00 0. -1.
         21   -1    0    0  501  502  0.00000000000E+00 -0.00000000000E+00 -0.50771007416E+03  0.50771007416E+03  0.00000000000E+00 0. -1.
         23    2    1    2    0    0 -0.14164527356E+03  0.19711354307E+03  0.41487271765E+03  0.48835288597E+03  0.86325181724E+02 0.  0.
         23    2    1    2    0    0  0.25236097275E+03 -0.21260376472E+03 -0.69548519781E+02  0.34959695085E+03  0.92166209108E+02 0.  0.
        -13    1    3    3    0    0 -0.37421404304E+02  0.87515126096E+02  0.23376138349E+03  0.25239580664E+03  0.00000000000E+00 0. -1.
         13    1    3    3    0    0 -0.10422386926E+03  0.10959841697E+03  0.18111133416E+03  0.23595707933E+03  0.00000000000E+00 0.  1.
        -13    1    4    4    0    0  0.89262783429E+02 -0.26084473334E+02 -0.29992717298E+01  0.93044289913E+02  0.00000000000E+00 0.  1.
         13    1    4    4    0    0  0.16309818932E+03 -0.18651929138E+03 -0.66549248052E+02  0.25655266094E+03  0.00000000000E+00 0. -1.
          1    1    1    2  501    0 -0.11071569919E+03  0.15490221652E+02 -0.24944426667E+03  0.27335024271E+03  0.00000000000E+00 0. -1.
<scales pt_clust_5="13000.00000" pt_clust_6="13000.00000" pt_clust_7="13000.00000" pt_clust_8="13000.00000" pt_clust_9="111.79407"></scales>
<clustering>
<clus scale="   86.325">  5  6 -1 -1</clus>
<clus scale="   92.166">  7  8 -1 -1</clus>
<clus scale="  111.794">  2  9  1 -1</clus>
<clus scale="  268.768">  1  5  2 -1</clus>
<clus scale="  111.794">  2  5  1 -1</clus>
</clustering>
</event>
<event>
 9    1  0.1399746E-005  0.1296575E+03  0.7546771E-02  0.1228333E+00
          1   -1    0    0  502    0 -0.00000000000E+00  0.00000000000E+00  0.40356487546E+03  0.40356487546E+03  0.00000000000E+00 0. -1.
         21   -1    0    0  501  502  0.00000000000E+00 -0.00000000000E+00 -0.31555077829E+03  0.31555077829E+03  0.00000000000E+00 0. -1.
         23    2    1    2    0    0 -0.72187155930E+02  0.14863351904E+02  0.22345994156E+03  0.25283469620E+03  0.92515584683E+02 0.  0.
         23    2    1    2    0    0  0.13713851170E+03 -0.46245900098E+02  0.11470926591E+03  0.20593287870E+03  0.91128920627E+02 0.  0.
        -11    1    3    3    0    0 -0.57345099655E+02  0.46410602195E+02  0.19270710960E+03  0.20634542530E+03  0.00000000000E+00 0.  1.
         11    1    3    3    0    0 -0.14842056275E+02 -0.31547250291E+02  0.30752831956E+02  0.46489270899E+02  0.00000000000E+00 0. -1.
        -11    1    4    4    0    0  0.12894290411E+02 -0.28000749511E+02 -0.63850520702E+01  0.31481321261E+02  0.00000000000E+00 0.  1.
         11    1    4    4    0    0  0.12424422129E+03 -0.18245150587E+02  0.12109431798E+03  0.17445155744E+03  0.00000000000E+00 0. -1.
          1    1    1    2  501    0 -0.64951355773E+02  0.31382548194E+02 -0.25015511031E+03  0.26034807885E+03  0.00000000000E+00 0. -1.
<scales pt_clust_5="13000.00000" pt_clust_6="13000.00000" pt_clust_7="13000.00000" pt_clust_8="13000.00000" pt_clust_9="72.13559"></scales>
<clustering>
<clus scale="   72.136">  2  9  1 -1</clus>
<clus scale="   91.129">  7  8 -1 -1</clus>
<clus scale="   92.516">  5  6 -1 -1</clus>
<clus scale="  128.672">  2  7  1 -1</clus>
<clus scale="   72.136">  2  5  1 -1</clus>
</clustering>
</event>
<event>
 9    1  0.1399746E-005  0.9587683E+02  0.7546771E-02  0.1289849E+00
          3   -1    0    0  502    0 -0.00000000000E+00  0.00000000000E+00  0.78193990943E+02  0.78193990943E+02  0.00000000000E+00 0. -1.
         21   -1    0    0  501  502  0.00000000000E+00 -0.00000000000E+00 -0.18368121881E+03  0.18368121881E+03  0.00000000000E+00 0. -1.
         23    2    1    2    0    0 -0.35402152983E+02 -0.34827219684E+02 -0.40972630071E+02  0.11076695549E+03  0.90134978493E+02 0.  0.
         23    2    1    2    0    0  0.28104418297E+01  0.71188557024E+01 -0.56267782718E+02  0.10754240721E+03  0.91327593235E+02 0.  0.
        -11    1    4    4    0    0  0.19890785233E+01  0.49010070198E+02 -0.36916174086E+02  0.61390123989E+02  0.00000000000E+00 0.  1.
         11    1    4    4    0    0  0.82136330637E+00 -0.41891214496E+02 -0.19351608631E+02  0.46152283218E+02  0.00000000000E+00 0. -1.
        -11    1    3    3    0    0 -0.36563690240E+02 -0.11152339124E+02 -0.66015914789E+02  0.76284855098E+02  0.00000000000E+00 0. -1.
         11    1    3    3    0    0  0.11615372573E+01 -0.23674880560E+02  0.25043284718E+02  0.34482100397E+02  0.00000000000E+00 0.  1.
          3    1    1    2  501    0  0.32591711153E+02  0.27708363982E+02 -0.82468150781E+01  0.43565847052E+02  0.00000000000E+00 0. -1.
<scales pt_clust_5="13000.00000" pt_clust_6="13000.00000" pt_clust_7="13000.00000" pt_clust_8="13000.00000" pt_clust_9="42.77821"></scales>
<clustering>
<clus scale="   42.778">  2  9  1 -1</clus>
<clus scale="   90.135">  7  8 -1 -1</clus>
<clus scale="   91.328">  5  6 -1 -1</clus>
<clus scale="   94.742">  1  7  2 -1</clus>
<clus scale="   42.778">  2  5  1 -1</clus>
</clustering>
</event>
<event>
 9    1  0.1399746E-005  0.1236505E+03  0.7546771E-02  0.1237718E+00
          2   -1    0    0  502    0 -0.00000000000E+00  0.00000000000E+00  0.53302446048E+02  0.53302446048E+02  0.00000000000E+00 0. -1.
         21   -1    0    0  501  502  0.00000000000E+00 -0.00000000000E+00 -0.56364763937E+03  0.56364763937E+03  0.00000000000E+00 0. -1.
         23    2    1    2    0    0 -0.61014657386E+02  0.25361131904E+02 -0.13618734912E+03  0.17718080469E+03  0.92087285029E+02 0.  0.
         23    2    1    2    0    0  0.68471582572E+02 -0.76720356192E+02 -0.12529348179E+03  0.18555117254E+03  0.90312847238E+02 0.  0.
        -11    1    3    3    0    0  0.90223797048E+01  0.22559911055E+02 -0.32078946461E+00  0.24299296867E+02  0.00000000000E+00 0. -1.
         11    1    3    3    0    0 -0.70037037091E+02  0.28012208497E+01 -0.13586655966E+03  0.15288150783E+03  0.00000000000E+00 0.  1.
        -11    1    4    4    0    0  0.23901630062E+02  0.17477020360E+02 -0.45564189532E+02  0.54339944129E+02  0.00000000000E+00 0.  1.
         11    1    4    4    0    0  0.44569952510E+02 -0.94197376552E+02 -0.79729292259E+02  0.13121122841E+03  0.00000000000E+00 0. -1.
          2    1    1    2  501    0 -0.74569251861E+01  0.51359224288E+02 -0.24886436240E+03  0.25421810818E+03  0.00000000000E+00 0. -1.
<scales pt_clust_5="13000.00000" pt_clust_6="13000.00000" pt_clust_7="13000.00000" pt_clust_8="13000.00000" pt_clust_9="51.89774"></scales>
<clustering>
<clus scale="   51.898">  2  9  1 -1</clus>
<clus scale="   90.313">  7  8 -1 -1</clus>
<clus scale="   92.087">  5  6 -1 -1</clus>
<clus scale="  122.335">  2  7  1 -1</clus>
<clus scale="   51.898">  2  5  1 -1</clus>
</clustering>
</event>
<event>
 9    1  0.1399746E-005  0.1306509E+03  0.7546771E-02  0.1228273E+00
         21   -1    0    0  501  502  0.00000000000E+00  0.00000000000E+00  0.45293570097E+02  0.45293570097E+02  0.00000000000E+00 0.  1.
          3   -1    0    0  502    0 -0.00000000000E+00 -0.00000000000E+00 -0.48461090689E+03  0.48461090689E+03  0.00000000000E+00 0. -1.
         23    2    1    2    0    0  0.76126369053E+02  0.46993515630E+02 -0.22081885175E+03  0.25347171709E+03  0.86506251204E+02 0.  0.
         23    2    1    2    0    0 -0.62154283413E+02 -0.75393637540E+02 -0.15582404259E+03  0.20621971384E+03  0.93263511600E+02 0.  0.
        -11    1    3    3    0    0  0.38684180927E+02  0.70221022281E+02 -0.14949109321E+03  0.16963208651E+03  0.00000000000E+00 0. -1.
         11    1    3    3    0    0  0.37442188126E+02 -0.23227506651E+02 -0.71327758544E+02  0.83839630580E+02  0.00000000000E+00 0.  1.
        -13    1    4    4    0    0 -0.32121221592E+01 -0.65807897180E+02 -0.11911454265E+03  0.13612226611E+03  0.00000000000E+00 0. -1.
         13    1    4    4    0    0 -0.58942161254E+02 -0.95857403609E+01 -0.36709499941E+02  0.70097447725E+02  0.00000000000E+00 0.  1.
          3    1    1    2  501    0 -0.13972085640E+02  0.28400121910E+02 -0.62674442445E+02  0.70213046063E+02  0.00000000000E+00 0. -1.
<scales pt_clust_5="13000.00000" pt_clust_6="13000.00000" pt_clust_7="13000.00000" pt_clust_8="13000.00000" pt_clust_9="31.65102"></scales>
<clustering>
<clus scale="   31.651">  1  9  2 -1</clus>
<clus scale="   86.506">  5  6 -1 -1</clus>
<clus scale="   93.264">  7  8 -1 -1</clus>
<clus scale="  125.916">  2  5  1 -1</clus>
<clus scale="   31.651">  1  5  2 -1</clus>
</clustering>
</event>
<event>
 9    1  0.1399746E-005  0.1036387E+03  0.7546771E-02  0.1273749E+00
          1   -1    0    0  502    0 -0.00000000000E+00  0.00000000000E+00  0.37030717092E+03  0.37030717092E+03  0.00000000000E+00 0. -1.
         21   -1    0    0  501  502  0.00000000000E+00 -0.00000000000E+00 -0.17676758047E+03  0.17676758047E+03  0.00000000000E+00 0. -1.
         23    2    1    2    0    0  0.27769510749E+02 -0.43871092560E+02  0.33891879034E+03  0.35411552227E+03  0.88521399550E+02 0.  0.
         23    2    1    2    0    0 -0.13078234603E+02  0.16018610531E+02 -0.12370551851E+03  0.15473171527E+03  0.90615739790E+02 0.  0.
        -13    1    4    4    0    0 -0.46041234584E+02  0.15583866092E+02 -0.34434424727E+02  0.59568295012E+02  0.00000000000E+00 0.  1.
         13    1    4    4    0    0  0.32962999981E+02  0.43474443913E+00 -0.89271093782E+02  0.95163420259E+02  0.00000000000E+00 0. -1.
        -13    1    3    3    0    0  0.48865721239E+02 -0.46021170093E+02  0.31533403800E+03  0.32239938327E+03  0.00000000000E+00 0. -1.
         13    1    3    3    0    0 -0.21096210490E+02  0.21500775330E+01  0.23584752337E+02  0.31716139003E+02  0.00000000000E+00 0.  1.
          1    1    1    2  501    0 -0.14691276146E+02  0.27852482030E+02 -0.21673681383E+02  0.38227513844E+02  0.00000000000E+00 0. -1.
<scales pt_clust_5="13000.00000" pt_clust_6="13000.00000" pt_clust_7="13000.00000" pt_clust_8="13000.00000" pt_clust_9="31.48959"></scales>
<clustering>
<clus scale="   31.490">  2  9  1 -1</clus>
<clus scale="   88.521">  7  8 -1 -1</clus>
<clus scale="   90.616">  5  6 -1 -1</clus>
<clus scale="  101.813">  1  7  2 -1</clus>
<clus scale="   31.490">  2  5  1 -1</clus>
</clustering>
</event>
<event>
 9    1  0.1428753E-005  0.9722560E+02  0.7546771E-02  0.1287340E+00
          1   -1    0    0  502    0 -0.00000000000E+00  0.00000000000E+00  0.67590248043E+03  0.67590248043E+03  0.00000000000E+00 0. -1.
         21   -1    0    0  501  502  0.00000000000E+00 -0.00000000000E+00 -0.42536327489E+02  0.42536327489E+02  0.00000000000E+00 0.  1.
         23    2    1    2    0    0  0.22903442889E+02 -0.76388766660E+00  0.44905254474E+03  0.45903970023E+03  0.92434340092E+02 0.  0.
         23    2    1    2    0    0 -0.73494020938E+02 -0.21545306405E+02  0.85163224603E+02  0.14587419723E+03  0.90337894876E+02 0.  0.
        -11    1    4    4    0    0 -0.68406742082E+02 -0.44345000391E+02  0.31589931127E+02  0.87429315282E+02  0.00000000000E+00 0.  1.
         11    1    4    4    0    0 -0.50872788553E+01  0.22799693986E+02  0.53573293475E+02  0.58444881947E+02  0.00000000000E+00 0. -1.
        -11    1    3    3    0    0  0.55005738436E+02  0.17649281481E+02  0.29514556025E+03  0.30074578988E+03  0.00000000000E+00 0. -1.
         11    1    3    3    0    0 -0.32102295548E+02 -0.18413169147E+02  0.15390698450E+03  0.15829391035E+03  0.00000000000E+00 0.  1.
          1    1    1    2  501    0  0.50590578049E+02  0.22309194071E+02  0.99150383601E+02  0.11352491046E+03  0.00000000000E+00 0. -1.
<scales pt_clust_5="13000.00000" pt_clust_6="13000.00000" pt_clust_7="13000.00000" pt_clust_8="13000.00000" pt_clust_9="55.29111"></scales>
<clustering>
<clus scale="   55.291">  2  9  1 -1</clus>
<clus scale="   90.338">  5  6 -1 -1</clus>
<clus scale="   92.434">  7  8 -1 -1</clus>
<clus scale="   95.235">  2  5  1 -1</clus>
<clus scale="   55.291">  2  5  1 -1</clus>
</clustering>
</event>
<event>
 9    1  0.1399746E-005  0.2728638E+03  0.7546771E-02  0.1099895E+00
         21   -1    0    0  501  502  0.00000000000E+00  0.00000000000E+00  0.75935458973E+02  0.75935458973E+02  0.00000000000E+00 0. -1.
          2   -1    0    0  502    0 -0.00000000000E+00 -0.00000000000E+00 -0.13463508373E+04  0.13463508373E+04  0.00000000000E+00 0.  1.
         23    2    1    2    0    0 -0.24975541535E+03  0.28644063550E+02 -0.81870773881E+03  0.86088033507E+03  0.87374709411E+02 0.  0.
         23    2    1    2    0    0  0.26651413050E+03 -0.15655273254E+02 -0.45898242130E+03  0.53898976938E+03  0.92575585850E+02 0.  0.
        -13    1    4    4    0    0  0.13266900735E+03 -0.51027428393E+02 -0.20059573927E+03  0.24585262775E+03  0.00000000000E+00 0. -1.
         13    1    4    4    0    0  0.13384512315E+03  0.35372155138E+02 -0.25838668203E+03  0.29313714163E+03  0.00000000000E+00 0.  1.
        -13    1    3    3    0    0 -0.21545084238E+03  0.47449750558E+02 -0.75045849624E+03  0.78221384473E+03  0.00000000000E+00 0.  1.
         13    1    3    3    0    0 -0.34304572968E+02 -0.18805687009E+02 -0.68249242575E+02  0.78666490340E+02  0.00000000000E+00 0. -1.
          2    1    1    2  501    0 -0.16758715152E+02 -0.12988790295E+02  0.72747817692E+01  0.22416191841E+02  0.00000000000E+00 0.  1.
<scales pt_clust_5="13000.00000" pt_clust_6="13000.00000" pt_clust_7="13000.00000" pt_clust_8="13000.00000" pt_clust_9="21.20291"></scales>
<clustering>
<clus scale="   21.203">  1  9  2 -1</clus>
<clus scale="   87.375">  7  8 -1 -1</clus>
<clus scale="   92.576">  5  6 -1 -1</clus>
<clus scale="  271.143">  2  7  1 -1</clus>
<clus scale="   21.203">  1  5  2 -1</clus>
</clustering>
</event>
<event>
 9    1  0.1399746E-005  0.1051186E+03  0.7546771E-02  0.1272345E+00
         -4   -1    0    0    0  501 -0.00000000000E+00  0.00000000000E+00  0.81367131613E+02  0.81367131613E+02  0.00000000000E+00 0.  1.
         21   -1    0    0  501  502  0.00000000000E+00 -0.00000000000E+00 -0.21228506190E+03  0.21228506190E+03  0.00000000000E+00 0. -1.
         23    2    1    2    0    0 -0.47887520060E+01 -0.27759807924E+02 -0.13754113140E+02  0.97500645276E+02  0.92323675832E+02 0.  0.
         23    2    1    2    0    0 -0.15156412359E+02  0.62763088215E+02 -0.88074318385E+02  0.14646011889E+03  0.97593846056E+02 0.  0.
        -11    1    4    4    0    0 -0.48403798692E+02  0.18108540907E+02 -0.13531738912E+02  0.53422419821E+02  0.00000000000E+00 0.  1.
         11    1    4    4    0    0  0.33247386333E+02  0.44654547309E+02 -0.74542579473E+02  0.93037699067E+02  0.00000000000E+00 0. -1.
        -13    1    3    3    0    0  0.25234403291E+02 -0.33717157832E+02  0.24332904634E+02  0.48638586428E+02  0.00000000000E+00 0.  1.
         13    1    3    3    0    0 -0.30023155297E+02  0.59573499084E+01 -0.38087017774E+02  0.48862058848E+02  0.00000000000E+00 0. -1.
         -4    1    1    2    0  502  0.19945164365E+02 -0.35003280292E+02 -0.29089498766E+02  0.49691429354E+02  0.00000000000E+00 0.  1.
<scales pt_clust_5="13000.00000" pt_clust_6="13000.00000" pt_clust_7="13000.00000" pt_clust_8="13000.00000" pt_clust_9="40.28696"></scales>
<clustering>
<clus scale="   40.287">  2  9  1 -1</clus>
<clus scale="   92.324">  7  8 -1 -1</clus>
<clus scale="   97.594">  5  6 -1 -1</clus>
<clus scale="  100.245">  1  7  2 -1</clus>
<clus scale="   40.287">  2  5  1 -1</clus>
</clustering>
</event>
<event>
 9    1  0.1399746E-005  0.4332720E+03  0.7546771E-02  0.1070322E+00
         21   -1    0    0  501  502  0.00000000000E+00  0.00000000000E+00  0.24092904069E+03  0.24092904069E+03  0.00000000000E+00 0. -1.
          2   -1    0    0  502    0 -0.00000000000E+00 -0.00000000000E+00 -0.14002275743E+04  0.14002275743E+04  0.00000000000E+00 0. -1.
         23    2    1    2    0    0  0.66004372569E+02  0.95427465421E+02 -0.17600270099E+03  0.23066803786E+03  0.93636609197E+02 0.  0.
         23    2    1    2    0    0  0.28930627797E+02 -0.49001238512E+03 -0.84629916186E+03  0.98214525577E+03  0.86243337526E+02 0.  0.
        -11    1    3    3    0    0 -0.14963713973E+02  0.57664365541E+02 -0.64836590043E+02  0.88050412819E+02  0.00000000000E+00 0. -1.
         11    1    3    3    0    0  0.80968086542E+02  0.37763099880E+02 -0.11116611094E+03  0.14261762504E+03  0.00000000000E+00 0.  1.
        -13    1    4    4    0    0  0.79037278879E+01 -0.44349227144E+03 -0.79103935122E+03  0.90691296105E+03  0.00000000000E+00 0. -1.
         13    1    4    4    0    0  0.21026899910E+02 -0.46520113687E+02 -0.55259810644E+02  0.75232294726E+02  0.00000000000E+00 0.  1.
          2    1    1    2  501    0 -0.94935000366E+02  0.39458491970E+03 -0.13699667077E+03  0.42834332136E+03  0.00000000000E+00 0. -1.
<scales pt_clust_5="13000.00000" pt_clust_6="13000.00000" pt_clust_7="13000.00000" pt_clust_8="13000.00000" pt_clust_9="424.60180"></scales>
<clustering>
<clus scale="   86.243">  7  8 -1 -1</clus>
<clus scale="   93.637">  5  6 -1 -1</clus>
<clus scale="  149.100">  2  5  1 -1</clus>
<clus scale="  424.602">  1  9  2 -1</clus>
<clus scale="  424.602">  1  5  2 -1</clus>
</clustering>
</event>
<event>
 9    1  0.1399746E-005  0.9918408E+02  0.7546771E-02  0.1286648E+00
          1   -1    0    0  502    0 -0.00000000000E+00  0.00000000000E+00  0.70150208962E+02  0.70150208962E+02  0.00000000000E+00 0. -1.
         21   -1    0    0  501  502  0.00000000000E+00 -0.00000000000E+00 -0.17136333332E+03  0.17136333332E+03  0.00000000000E+00 0.  1.
         23    2    1    2    0    0  0.27037851629E+02 -0.21159580863E+02 -0.29917137432E+02  0.93548826481E+02  0.81716427607E+02 0.  0.
         23    2    1    2    0    0 -0.26597716200E+02  0.42480275902E+02 -0.72530149714E+02  0.12660379556E+03  0.90861906672E+02 0.  0.
        -13    1    4    4    0    0  0.45990520300E+01  0.62086700149E+02 -0.62942346565E+02  0.88530495345E+02  0.00000000000E+00 0.  1.
         13    1    4    4    0    0 -0.31196768230E+02 -0.19606424247E+02 -0.95878031484E+01  0.38073300211E+02  0.00000000000E+00 0. -1.
        -13    1    3    3    0    0  0.47653804389E+02 -0.22376484716E+02  0.51032060274E+01  0.52892672959E+02  0.00000000000E+00 0. -1.
         13    1    3    3    0    0 -0.20615952760E+02  0.12169038524E+01 -0.35020343460E+02  0.40656153522E+02  0.00000000000E+00 0.  1.
          1    1    1    2  501    0 -0.44013542879E+00 -0.21320695038E+02  0.12341627828E+01  0.21360920249E+02  0.00000000000E+00 0. -1.
<scales pt_clust_5="13000.00000" pt_clust_6="13000.00000" pt_clust_7="13000.00000" pt_clust_8="13000.00000" pt_clust_9="21.32525"></scales>
<clustering>
<clus scale="   21.325">  2  9  1 -1</clus>
<clus scale="   81.716">  7  8 -1 -1</clus>
<clus scale="   90.862">  5  6 -1 -1</clus>
<clus scale="   90.880">  1  7  2 -1</clus>
<clus scale="   21.325">  2  5  1 -1</clus>
</clustering>
</event>
<event>
 9    1  0.1399746E-005  0.2019847E+03  0.7546771E-02  0.1169530E+00
         -3   -1    0    0    0  501 -0.00000000000E+00  0.00000000000E+00  0.20869414334E+03  0.20869414334E+03  0.00000000000E+00 0.  1.
         21   -1    0    0  501  502  0.00000000000E+00 -0.00000000000E+00 -0.49956498379E+03  0.49956498379E+03  0.00000000000E+00 0.  1.
         23    2    1    2    0    0 -0.41142782636E+01  0.82314415227E+02  0.46084330922E+02  0.13082926516E+03  0.90553524652E+02 0.  0.
         23    2    1    2    0    0 -0.16279875324E+03 -0.13549630539E+03 -0.42173713568E+02  0.23452407112E+03  0.91434320633E+02 0.  0.
        -11    1    3    3    0    0  0.42237253600E+02  0.52276861090E+02  0.25760093275E+02  0.71975261046E+02  0.00000000000E+00 0. -1.
         11    1    3    3    0    0 -0.46351531864E+02  0.30037554137E+02  0.20324237646E+02  0.58854004117E+02  0.00000000000E+00 0.  1.
        -11    1    4    4    0    0 -0.12319133717E+03 -0.14447585677E+03 -0.38634529745E+02  0.19375759503E+03  0.00000000000E+00 0.  1.
         11    1    4    4    0    0 -0.39607416064E+02  0.89795513865E+01 -0.35391838233E+01  0.40766476086E+02  0.00000000000E+00 0. -1.
         -3    1    1    2    0  502  0.16691303150E+03  0.53181890158E+02 -0.29478145781E+03  0.34290579084E+03  0.00000000000E+00 0.  1.
<scales pt_clust_5="13000.00000" pt_clust_6="13000.00000" pt_clust_7="13000.00000" pt_clust_8="13000.00000" pt_clust_9="180.10435"></scales>
<clustering>
<clus scale="   90.554">  5  6 -1 -1</clus>
<clus scale="   91.434">  7  8 -1 -1</clus>
<clus scale="  122.444">  1  5  2 -1</clus>
<clus scale="  180.104">  2  9  1 -1</clus>
<clus scale="  180.104">  2  5  1 -1</clus>
</clustering>
</event>
<event>
 9    1  0.1399746E-005  0.1734583E+03  0.7546771E-02  0.1174374E+00
          1   -1    0    0  502    0 -0.00000000000E+00  0.00000000000E+00  0.14941731600E+04  0.14941731600E+04  0.00000000000E+00 0. -1.
         21   -1    0    0  501  502  0.00000000000E+00 -0.00000000000E+00 -0.25926630104E+02  0.25926630104E+02  0.00000000000E+00 0.  1.
         23    2    1    2    0    0  0.87963756674E+02  0.11160151239E+03  0.84603240482E+03  0.86262967587E+03  0.90369284756E+02 0.  0.
         23    2    1    2    0    0 -0.11646851168E+03 -0.10933703762E+03  0.55376365819E+03  0.58328712885E+03  0.89722815032E+02 0.  0.
        -13    1    3    3    0    0  0.46466651824E+02 -0.28958591623E+01  0.24437785202E+03  0.24877313016E+03  0.00000000000E+00 0.  1.
         13    1    3    3    0    0  0.41497104849E+02  0.11449737155E+03  0.60165455280E+03  0.61385654571E+03  0.00000000000E+00 0. -1.
        -13    1    4    4    0    0 -0.10288724700E+02 -0.63430535707E+02  0.14782348083E+03  0.16118645166E+03  0.00000000000E+00 0.  1.
         13    1    4    4    0    0 -0.10617978698E+03 -0.45906501918E+02  0.40594017736E+03  0.42210067719E+03  0.00000000000E+00 0. -1.
          1    1    1    2  501    0  0.28504755007E+02 -0.22644747632E+01  0.68450466847E+02  0.74182985350E+02  0.00000000000E+00 0. -1.
<scales pt_clust_5="13000.00000" pt_clust_6="13000.00000" pt_clust_7="13000.00000" pt_clust_8="13000.00000" pt_clust_9="28.59456"></scales>
<clustering>
<clus scale="   28.595">  2  9  1 -1</clus>
<clus scale="   89.723">  7  8 -1 -1</clus>
<clus scale="   90.369">  5  6 -1 -1</clus>
<clus scale="  173.122">  2  7  1 -1</clus>
<clus scale="   28.595">  2  5  1 -1</clus>
</clustering>
</event>
<event>
 9    1  0.1399746E-005  0.2190497E+03  0.7546771E-02  0.1134652E+00
         21   -1    0    0  501  502  0.00000000000E+00  0.00000000000E+00  0.12695690355E+03  0.12695690355E+03  0.00000000000E+00 0. -1.
          2   -1    0    0  502    0 -0.00000000000E+00 -0.00000000000E+00 -0.71040840627E+03  0.71040840627E+03  0.00000000000E+00 0. -1.
         23    2    1    2    0    0 -0.17385860035E+03 -0.89693390547E+02 -0.43154600701E+03  0.48232297225E+03  0.90176361462E+02 0.  0.
         23    2    1    2    0    0  0.20286192879E+03  0.54987098298E+02 -0.18870045382E+03  0.29673634538E+03  0.90928841784E+02 0.  0.
        -11    1    3    3    0    0 -0.27719723173E+02 -0.22051702075E+02 -0.20656433924E+02  0.41004254409E+02  0.00000000000E+00 0.  1.
         11    1    3    3    0    0 -0.14613887717E+03 -0.67641688471E+02 -0.41088957309E+03  0.44131871784E+03  0.00000000000E+00 0. -1.
        -13    1    4    4    0    0  0.17860159993E+03  0.11371339556E+02 -0.15170766636E+03  0.23461256337E+03  0.00000000000E+00 0. -1.
         13    1    4    4    0    0  0.24260328859E+02  0.43615758742E+02 -0.36992787463E+02  0.62123782010E+02  0.00000000000E+00 0.  1.
          2    1    1    2  501    0 -0.29003328439E+02  0.34706292249E+02  0.36794958111E+02  0.58305992184E+02  0.00000000000E+00 0. -1.
<scales pt_clust_5="13000.00000" pt_clust_6="13000.00000" pt_clust_7="13000.00000" pt_clust_8="13000.00000" pt_clust_9="45.22963"></scales>
<clustering>
<clus scale="   45.230">  1  9  2 -1</clus>
<clus scale="   90.176">  5  6 -1 -1</clus>
<clus scale="   90.929">  7  8 -1 -1</clus>
<clus scale="  218.738">  2  5  1 -1</clus>
<clus scale="   45.230">  1  5  2 -1</clus>
</clustering>
</event>
<event>
 9    1  0.1399746E-005  0.2278471E+03  0.7546771E-02  0.1158316E+00
         21   -1    0    0  501  502  0.00000000000E+00  0.00000000000E+00  0.11209981986E+03  0.11209981986E+03  0.00000000000E+00 0. -1.
          2   -1    0    0  502    0 -0.00000000000E+00 -0.00000000000E+00 -0.71277519889E+03  0.71277519889E+03  0.00000000000E+00 0. -1.
         23    2    1    2    0    0  0.35575114630E+02 -0.43344297396E+02 -0.17223750580E+03  0.20466269365E+03  0.95271941682E+02 0.  0.
         23    2    1    2    0    0 -0.63053794665E+02 -0.17783433628E+03 -0.28992445156E+03  0.35779846526E+03  0.91447919317E+02 0.  0.
        -13    1    4    4    0    0  0.10085248572E+02 -0.91389043510E+02 -0.93898600309E+02  0.13141771818E+03  0.00000000000E+00 0.  1.
         13    1    4    4    0    0 -0.73139043237E+02 -0.86445292767E+02 -0.19602585125E+03  0.22638074708E+03  0.00000000000E+00 0. -1.
        -13    1    3    3    0    0  0.55202934828E+02 -0.18901284015E+01 -0.13403734889E+03  0.14497223009E+03  0.00000000000E+00 0. -1.
         13    1    3    3    0    0 -0.19627820197E+02 -0.41454168995E+02 -0.38200156906E+02  0.59690463563E+02  0.00000000000E+00 0.  1.
          2    1    1    2  501    0  0.27478680034E+02  0.22117863367E+03 -0.13851342167E+03  0.26241385984E+03  0.00000000000E+00 0. -1.
<scales pt_clust_5="13000.00000" pt_clust_6="13000.00000" pt_clust_7="13000.00000" pt_clust_8="13000.00000" pt_clust_9="208.69012"></scales>
<clustering>
<clus scale="   91.448">  5  6 -1 -1</clus>
<clus scale="   95.272">  7  8 -1 -1</clus>
<clus scale="  110.549">  2  7  1 -1</clus>
<clus scale="  208.690">  1  9  2 -1</clus>
<clus scale="  208.690">  1  5  2 -1</clus>
</clustering>
</event>
<event>
 9    1  0.1399746E-005  0.9697042E+02  0.7546771E-02  0.1287411E+00
         21   -1    0    0  501  502  0.00000000000E+00  0.00000000000E+00  0.77202309440E+02  0.77202309440E+02  0.00000000000E+00 0. -1.
         -1   -1    0    0    0  501 -0.00000000000E+00 -0.00000000000E+00 -0.32239346660E+03  0.32239346660E+03  0.00000000000E+00 0.  1.
         23    2    1    2    0    0 -0.75155965224E+01  0.34413035254E+02 -0.25978151693E+03  0.27725095191E+03  0.90227005989E+02 0.  0.
         23    2    1    2    0    0  0.15866701645E+02 -0.14194142684E+02 -0.35596887130E+01  0.93920031546E+02  0.91406099546E+02 0.  0.
        -11    1    4    4    0    0  0.47534294938E+02  0.77823628417E+01  0.15921931615E+02  0.50730486623E+02  0.00000000000E+00 0. -1.
         11    1    4    4    0    0 -0.31667593293E+02 -0.21976505526E+02 -0.19481620328E+02  0.43189544923E+02  0.00000000000E+00 0.  1.
        -13    1    3    3    0    0 -0.75950952076E+01 -0.25645920243E+02 -0.14760171287E+03  0.15000554770E+03  0.00000000000E+00 0.  1.
         13    1    3    3    0    0  0.79498685139E-01  0.60058955496E+02 -0.11217980406E+03  0.12724540422E+03  0.00000000000E+00 0. -1.
         -1    1    1    2    0  502 -0.83511051229E+01 -0.20218892570E+02  0.18150048484E+02  0.28424792585E+02  0.00000000000E+00 0.  1.
<scales pt_clust_5="13000.00000" pt_clust_6="13000.00000" pt_clust_7="13000.00000" pt_clust_8="13000.00000" pt_clust_9="21.87566"></scales>
<clustering>
<clus scale="   21.876">  1  9  2 -1</clus>
<clus scale="   90.227">  7  8 -1 -1</clus>
<clus scale="   91.406">  5  6 -1 -1</clus>
<clus scale="   95.860">  2  7  1 -1</clus>
<clus scale="   21.876">  1  5  2 -1</clus>
</clustering>
</event>
<event>
 9    1  0.1399746E-005  0.9747442E+02  0.7546771E-02  0.1288369E+00
          1   -1    0    0  502    0 -0.00000000000E+00  0.00000000000E+00  0.55522619879E+03  0.55522619879E+03  0.00000000000E+00 0. -1.
         21   -1    0    0  501  502  0.00000000000E+00 -0.00000000000E+00 -0.70754622252E+02  0.70754622252E+02  0.00000000000E+00 0. -1.
         23    2    1    2    0    0  0.81911814510E+01 -0.23739522670E+01  0.40318529729E+03  0.41460966995E+03  0.96281168302E+02 0.  0.
         23    2    1    2    0    0 -0.35576387888E+02 -0.24209594940E+00  0.12549641218E+03  0.15930072673E+03  0.91441971117E+02 0.  0.
        -13    1    4    4    0    0  0.23583907192E+02 -0.24603268875E+02  0.46254531609E+02  0.57454357643E+02  0.00000000000E+00 0.  1.
         13    1    4    4    0    0 -0.59160295080E+02  0.24361172925E+02  0.79241880568E+02  0.10184636909E+03  0.00000000000E+00 0. -1.
        -13    1    3    3    0    0  0.50922465597E+02  0.92396808698E+01  0.24050280200E+03  0.24600826607E+03  0.00000000000E+00 0.  1.
         13    1    3    3    0    0 -0.42731284146E+02 -0.11613633137E+02  0.16268249528E+03  0.16860140388E+03  0.00000000000E+00 0. -1.
          1    1    1    2  501    0  0.27385206437E+02  0.26160482164E+01 -0.44210132924E+02  0.52070424360E+02  0.00000000000E+00 0. -1.
<scales pt_clust_5="13000.00000" pt_clust_6="13000.00000" pt_clust_7="13000.00000" pt_clust_8="13000.00000" pt_clust_9="27.50988"></scales>
<clustering>
<clus scale="   27.510">  2  9  1 -1</clus>
<clus scale="   91.442">  5  6 -1 -1</clus>
<clus scale="   92.698">  2  5  1 -1</clus>
<clus scale="   96.281">  7  8 -1 -1</clus>
<clus scale="   27.510">  2  5  1 -1</clus>
</clustering>
</event>
<event>
 9    1  0.1399746E-005  0.1056825E+03  0.7546771E-02  0.1271681E+00
          1   -1    0    0  502    0 -0.00000000000E+00  0.00000000000E+00  0.13996823594E+03  0.13996823594E+03  0.00000000000E+00 0. -1.
         21   -1    0    0  501  502  0.00000000000E+00 -0.00000000000E+00 -0.19964573317E+03  0.19964573317E+03  0.00000000000E+00 0.  1.
         23    2    1    2    0    0 -0.35082090624E+02  0.32868504919E+02  0.41194087402E+01  0.97321344710E+02  0.84518535894E+02 0.  0.
         23    2    1    2    0    0 -0.40081305991E+02 -0.79119675125E+02  0.94421024571E+01  0.12760758051E+03  0.91258463837E+02 0.  0.
        -11    1    4    4    0    0  0.19845508479E+02 -0.20654537231E+02 -0.24083093925E+02  0.37422580456E+02  0.00000000000E+00 0. -1.
         11    1    4    4    0    0 -0.59926814470E+02 -0.58465137894E+02  0.33525196382E+02  0.90185000049E+02  0.00000000000E+00 0.  1.
        -11    1    3    3    0    0 -0.56047912024E+02  0.17634038626E+02 -0.19851018298E+02  0.62019276745E+02  0.00000000000E+00 0.  1.
         11    1    3    3    0    0  0.20965821400E+02  0.15234466294E+02  0.23970427038E+02  0.35302067965E+02  0.00000000000E+00 0. -1.
          1    1    1    2  501    0  0.75163396615E+02  0.46251170205E+02 -0.73239008430E+02  0.11468504389E+03  0.00000000000E+00 0. -1.
<scales pt_clust_5="13000.00000" pt_clust_6="13000.00000" pt_clust_7="13000.00000" pt_clust_8="13000.00000" pt_clust_9="88.25365"></scales>
<clustering>
<clus scale="   84.519">  7  8 -1 -1</clus>
<clus scale="   88.254">  2  9  1 -1</clus>
<clus scale="   91.258">  5  6 -1 -1</clus>
<clus scale="   99.920">  1  7  2 -1</clus>
<clus scale="   88.254">  2  5  1 -1</clus>
</clustering>
</event>
<event>
 9    1  0.1399746E-005  0.1010575E+03  0.7546771E-02  0.1278423E+00
         21   -1    0    0  501  502  0.00000000000E+00  0.00000000000E+00  0.32668967892E+03  0.32668967892E+03  0.00000000000E+00 0. -1.
         -1   -1    0    0    0  501 -0.00000000000E+00 -0.00000000000E+00 -0.50554399085E+02  0.50554399085E+02  0.00000000000E+00 0.  1.
         23    2    1    2    0    0  0.31185744691E+02 -0.22317575938E+02  0.44554961150E+02  0.10907662907E+03  0.91880039065E+02 0.  0.
         23    2    1    2    0    0 -0.24699472973E+02  0.49816243247E+02  0.17736009372E+03  0.20702759925E+03  0.91170729672E+02 0.  0.
        -11    1    4    4    0    0 -0.34540078092E+02 -0.17475417573E+02  0.60711016471E+02  0.72001630084E+02  0.00000000000E+00 0.  1.
         11    1    4    4    0    0  0.98406051190E+01  0.67291660820E+02  0.11664907725E+03  0.13502596916E+03  0.00000000000E+00 0. -1.
        -13    1    3    3    0    0  0.30967595187E+02  0.32209986086E+02  0.15522980779E+02  0.47301565382E+02  0.00000000000E+00 0. -1.
         13    1    3    3    0    0  0.21814950392E+00 -0.54527562024E+02  0.29031980371E+02  0.61775063688E+02  0.00000000000E+00 0.  1.
         -1    1    1    2    0  502 -0.64862717185E+01 -0.27498667309E+02  0.54220224961E+02  0.61139849684E+02  0.00000000000E+00 0.  1.
<scales pt_clust_5="13000.00000" pt_clust_6="13000.00000" pt_clust_7="13000.00000" pt_clust_8="13000.00000" pt_clust_9="28.25329"></scales>
<clustering>
<clus scale="   28.253">  1  9  2 -1</clus>
<clus scale="   91.171">  5  6 -1 -1</clus>
<clus scale="   91.880">  7  8 -1 -1</clus>
<clus scale="  100.413">  1  5  2 -1</clus>
<clus scale="   28.253">  1  5  2 -1</clus>
</clustering>
</event>
<event>
 9    1  0.1399746E-005  0.9613857E+02  0.7546771E-02  0.1291535E+00
         21   -1    0    0  501  502  0.00000000000E+00  0.00000000000E+00  0.44397665515E+02  0.44397665515E+02  0.00000000000E+00 0. -1.
         -1   -1    0    0    0  501 -0.00000000000E+00 -0.00000000000E+00 -0.49100281473E+03  0.49100281473E+03  0.00000000000E+00 0.  1.
         23    2    1    2    0    0  0.20571098926E+02  0.23082152460E+00 -0.25038960654E+03  0.26534669667E+03  0.85385543167E+02 0.  0.
         23    2    1    2    0    0 -0.47462764018E+02 -0.59923865680E+02 -0.14185051953E+03  0.18495397797E+03  0.90789979791E+02 0.  0.
        -11    1    3    3    0    0 -0.23878552016E+02  0.19560161778E+02 -0.46771062725E+02  0.56038535701E+02  0.00000000000E+00 0. -1.
         11    1    3    3    0    0  0.44449650941E+02 -0.19329340253E+02 -0.20361854381E+03  0.20930816097E+03  0.00000000000E+00 0.  1.
        -13    1    4    4    0    0  0.22180996157E+02 -0.38889520379E+01 -0.77962495907E+01  0.23830695461E+02  0.00000000000E+00 0.  1.
         13    1    4    4    0    0 -0.69643760175E+02 -0.56034913642E+02 -0.13405426994E+03  0.16112328251E+03  0.00000000000E+00 0. -1.
         -1    1    1    2    0  502  0.26891665092E+02  0.59693044155E+02 -0.54365023151E+02  0.85099805606E+02  0.00000000000E+00 0.  1.
<scales pt_clust_5="13000.00000" pt_clust_6="13000.00000" pt_clust_7="13000.00000" pt_clust_8="13000.00000" pt_clust_9="65.47077"></scales>
<clustering>
<clus scale="   65.471">  1  9  2 -1</clus>
<clus scale="   85.386">  5  6 -1 -1</clus>
<clus scale="   90.790">  7  8 -1 -1</clus>
<clus scale="   91.052">  2  5  1 -1</clus>
<clus scale="   65.471">  1  5  2 -1</clus>
</clustering>
</event>
<event>
 9    1  0.1399746E-005  0.2397938E+03  0.7546771E-02  0.1145696E+00
         21   -1    0    0  501  502  0.00000000000E+00  0.00000000000E+00  0.56471747073E+03  0.56471747073E+03  0.00000000000E+00 0. -1.
          2   -1    0    0  502    0 -0.00000000000E+00 -0.00000000000E+00 -0.53568985398E+03  0.53568985398E+03  0.00000000000E+00 0. -1.
         23    2    1    2    0    0 -0.34480438304E+02  0.80711801605E+02 -0.24917604308E+03  0.28001788273E+03  0.92833284233E+02 0.  0.
         23    2    1    2    0    0  0.23541510710E+03  0.16715641107E+02 -0.18073105056E+03  0.31000927375E+03  0.87990635103E+02 0.  0.
        -11    1    3    3    0    0 -0.29246890484E+02  0.10113299513E+03 -0.22132722706E+03  0.24508978915E+03  0.00000000000E+00 0. -1.
         11    1    3    3    0    0 -0.52335478196E+01 -0.20421193524E+02 -0.27848816016E+02  0.34928093581E+02  0.00000000000E+00 0.  1.
        -13    1    4    4    0    0  0.15248166635E+03 -0.23109375104E+02 -0.14383458389E+03  0.21088643701E+03  0.00000000000E+00 0. -1.
         13    1    4    4    0    0  0.82933440752E+02  0.39825016211E+02 -0.36896466662E+02  0.99122836740E+02  0.00000000000E+00 0.  1.
          2    1    1    2  501    0 -0.20093466880E+03 -0.97427442712E+02  0.45893471038E+03  0.51038016822E+03  0.00000000000E+00 0. -1.
<scales pt_clust_5="13000.00000" pt_clust_6="13000.00000" pt_clust_7="13000.00000" pt_clust_8="13000.00000" pt_clust_9="223.06663"></scales>
<clustering>
<clus scale="   87.991">  7  8 -1 -1</clus>
<clus scale="   92.833">  5  6 -1 -1</clus>
<clus scale="  127.755">  2  5  1 -1</clus>
<clus scale="  223.067">  1  9  2 -1</clus>
<clus scale="  223.067">  1  5  2 -1</clus>
</clustering>
</event>
<event>
 9    1  0.1399746E-005  0.1428685E+03  0.7546771E-02  0.1209839E+00
         21   -1    0    0  501  502  0.00000000000E+00  0.00000000000E+00  0.35523382770E+03  0.35523382770E+03  0.00000000000E+00 0.  1.
         -2   -1    0    0    0  501 -0.00000000000E+00 -0.00000000000E+00 -0.11185891104E+03  0.11185891104E+03  0.00000000000E+00 0.  1.
         23    2    1    2    0    0  0.11735113168E+03 -0.46529338129E+02  0.15962083196E+02  0.15756139606E+03  0.92922214864E+02 0.  0.
         23    2    1    2    0    0 -0.84794485364E+02  0.22294077468E+02  0.65491319839E+02  0.14260063953E+03  0.91425919631E+02 0.  0.
        -13    1    4    4    0    0 -0.10859960792E+02  0.20873468126E+02  0.64487090116E+02  0.68645649619E+02  0.00000000000E+00 0. -1.
         13    1    4    4    0    0 -0.73934524573E+02  0.14206093415E+01  0.10042297232E+01  0.73954989906E+02  0.00000000000E+00 0.  1.
        -13    1    3    3    0    0  0.81970812664E+02 -0.73012516618E+02 -0.21651163231E+01  0.10979403190E+03  0.00000000000E+00 0.  1.
         13    1    3    3    0    0  0.35380319019E+02  0.26483178489E+02  0.18127199519E+02  0.47767364164E+02  0.00000000000E+00 0. -1.
         -2    1    1    2    0  502 -0.32556646318E+02  0.24235260662E+02  0.16192151363E+03  0.16693070315E+03  0.00000000000E+00 0.  1.
<scales pt_clust_5="13000.00000" pt_clust_6="13000.00000" pt_clust_7="13000.00000" pt_clust_8="13000.00000" pt_clust_9="40.58674"></scales>
<clustering>
<clus scale="   40.587">  1  9  2 -1</clus>
<clus scale="   91.426">  5  6 -1 -1</clus>
<clus scale="   92.922">  7  8 -1 -1</clus>
<clus scale="  141.900">  1  5  2 -1</clus>
<clus scale="   40.587">  1  5  2 -1</clus>
</clustering>
</event>
<event>
 9    1  0.1399746E-005  0.2510810E+03  0.7546771E-02  0.1113128E+00
          1   -1    0    0  502    0 -0.00000000000E+00  0.00000000000E+00  0.11459188245E+04  0.11459188245E+04  0.00000000000E+00 0. -1.
         21   -1    0    0  501  502  0.00000000000E+00 -0.00000000000E+00 -0.12140473837E+03  0.12140473837E+03  0.00000000000E+00 0. -1.
         23    2    1    2    0    0  0.89790874947E+02 -0.15207446005E+03  0.22773778553E+03  0.30514144405E+03  0.10028838064E+03 0.  0.
         23    2    1    2    0    0 -0.29034694520E+03  0.12333326543E+03  0.57120437462E+03  0.65898006184E+03  0.92020874593E+02 0.  0.
        -11    1    3    3    0    0  0.68165033892E+02 -0.31610764383E+02  0.53602399798E+02  0.92298047295E+02  0.00000000000E+00 0.  1.
         11    1    3    3    0    0  0.21625841056E+02 -0.12046369567E+03  0.17413538573E+03  0.21284339675E+03  0.00000000000E+00 0. -1.
        -13    1    4    4    0    0 -0.66818369641E+02 -0.10952048616E+02  0.12538097538E+03  0.14249572231E+03  0.00000000000E+00 0.  1.
         13    1    4    4    0    0 -0.22352857556E+03  0.13428531405E+03  0.44582339924E+03  0.51648433952E+03  0.00000000000E+00 0. -1.
          1    1    1    2  501    0  0.20055607026E+03  0.28741194622E+02  0.22557192602E+03  0.30320205704E+03  0.00000000000E+00 0. -1.
<scales pt_clust_5="13000.00000" pt_clust_6="13000.00000" pt_clust_7="13000.00000" pt_clust_8="13000.00000" pt_clust_9="202.60502"></scales>
<clustering>
<clus scale="   92.021">  7  8 -1 -1</clus>
<clus scale="  100.288">  5  6 -1 -1</clus>
<clus scale="  202.605">  2  9  1 -1</clus>
<clus scale="  247.895">  2  7  1 -1</clus>
<clus scale="  202.605">  2  5  1 -1</clus>
</clustering>
</event>
<event>
 9    1  0.1399746E-005  0.1323843E+03  0.7546771E-02  0.1224495E+00
          1   -1    0    0  502    0 -0.00000000000E+00  0.00000000000E+00  0.12550413724E+03  0.12550413724E+03  0.00000000000E+00 0. -1.
         21   -1    0    0  501  502  0.00000000000E+00 -0.00000000000E+00 -0.21597810682E+03  0.21597810682E+03  0.00000000000E+00 0.  1.
         23    2    1    2    0    0  0.12295057198E+01 -0.95672793771E+02 -0.51874209402E+01  0.13507302438E+03  0.95199881441E+02 0.  0.
         23    2    1    2    0    0  0.47179437189E+02  0.82267875272E+02 -0.40102763178E+02  0.13884671483E+03  0.93146529781E+02 0.  0.
        -11    1    3    3    0    0  0.25452202725E+02 -0.43071627887E+02  0.38005771604E+02  0.62828484206E+02  0.00000000000E+00 0. -1.
         11    1    3    3    0    0 -0.24222697005E+02 -0.52601165884E+02 -0.43193192544E+02  0.72244540172E+02  0.00000000000E+00 0.  1.
        -13    1    4    4    0    0  0.55658680272E+02  0.93499982757E+01 -0.28111760499E+01  0.56508529163E+02  0.00000000000E+00 0. -1.
         13    1    4    4    0    0 -0.84792430837E+01  0.72917876996E+02 -0.37291587129E+02  0.82338185670E+02  0.00000000000E+00 0.  1.
          1    1    1    2  501    0 -0.48408942908E+02  0.13404918499E+02 -0.45183785456E+02  0.67562504850E+02  0.00000000000E+00 0. -1.
<scales pt_clust_5="13000.00000" pt_clust_6="13000.00000" pt_clust_7="13000.00000" pt_clust_8="13000.00000" pt_clust_9="50.23064"></scales>
<clustering>
<clus scale="   50.231">  2  9  1 -1</clus>
<clus scale="   93.147">  7  8 -1 -1</clus>
<clus scale="   95.200">  5  6 -1 -1</clus>
<clus scale="  130.915">  2  7  1 -1</clus>
<clus scale="   50.231">  2  5  1 -1</clus>
</clustering>
</event>
<event>
 9    1  0.1399746E-005  0.1101941E+03  0.7546771E-02  0.1266609E+00
         21   -1    0    0  501  502  0.00000000000E+00  0.00000000000E+00  0.43265528235E+03  0.43265528235E+03  0.00000000000E+00 0.  1.
          3   -1    0    0  502    0 -0.00000000000E+00 -0.00000000000E+00 -0.65546894274E+02  0.65546894274E+02  0.00000000000E+00 0. -1.
         23    2    1    2    0    0 -0.14803912900E+02 -0.85780330425E+01  0.81796630254E+02  0.13411192453E+03  0.10489318897E+03 0.  0.
         23    2    1    2    0    0  0.10621973041E+02 -0.68020617082E+02  0.66456784681E+02  0.13218005161E+03  0.91188985923E+02 0.  0.
        -13    1    4    4    0    0 -0.23754616976E+02 -0.85756329580E+00  0.49407725524E+02  0.54828282701E+02  0.00000000000E+00 0. -1.
         13    1    4    4    0    0  0.34376590017E+02 -0.67163053786E+02  0.17049059158E+02  0.77351768908E+02  0.00000000000E+00 0.  1.
        -13    1    3    3    0    0  0.24669766298E+02  0.36781022790E+02  0.47263955880E+02  0.64771309482E+02  0.00000000000E+00 0. -1.
         13    1    3    3    0    0 -0.39473679197E+02 -0.45359055832E+02  0.34532674375E+02  0.69340615045E+02  0.00000000000E+00 0.  1.
          3    1    1    2  501    0  0.41819398589E+01  0.76598650124E+02  0.21885497314E+03  0.23191020049E+03  0.00000000000E+00 0. -1.
<scales pt_clust_5="13000.00000" pt_clust_6="13000.00000" pt_clust_7="13000.00000" pt_clust_8="13000.00000" pt_clust_9="76.71272"></scales>
<clustering>
<clus scale="   76.713">  1  9  2 -1</clus>
<clus scale="   91.189">  5  6 -1 -1</clus>
<clus scale="   97.240">  1  5  2 -1</clus>
<clus scale="  104.893">  7  8 -1 -1</clus>
<clus scale="   76.713">  1  5  2 -1</clus>
</clustering>
</event>
<event>
 9    1  0.1399746E-005  0.1502313E+03  0.7546771E-02  0.1217569E+00
         -1   -1    0    0    0  501 -0.00000000000E+00  0.00000000000E+00  0.37286187872E+03  0.37286187872E+03  0.00000000000E+00 0.  1.
         21   -1    0    0  501  502  0.00000000000E+00 -0.00000000000E+00 -0.16908050447E+03  0.16908050447E+03  0.00000000000E+00 0.  1.
         23    2    1    2    0    0 -0.40831607449E+02  0.27188150562E+02  0.66470249790E+02  0.12307196144E+03  0.91224984994E+02 0.  0.
         23    2    1    2    0    0  0.81268654974E+02  0.86460099258E+02  0.22466905941E+03  0.26993255451E+03  0.91145239507E+02 0.  0.
        -13    1    4    4    0    0  0.10004375002E+03  0.65677557253E+02  0.16313850609E+03  0.20232761951E+03  0.00000000000E+00 0.  1.
         13    1    4    4    0    0 -0.18775095043E+02  0.20782542005E+02  0.61530553311E+02  0.67604935004E+02  0.00000000000E+00 0. -1.
        -13    1    3    3    0    0  0.80645731525E+01 -0.25803210952E+02  0.35442249594E+02  0.44575734339E+02  0.00000000000E+00 0.  1.
         13    1    3    3    0    0 -0.48896180601E+02  0.52991361514E+02  0.31028000196E+02  0.78496227098E+02  0.00000000000E+00 0. -1.
         -1    1    1    2    0  502 -0.40437047525E+02 -0.11364824982E+03 -0.87357934948E+02  0.14893786724E+03  0.00000000000E+00 0.  1.
<scales pt_clust_5="13000.00000" pt_clust_6="13000.00000" pt_clust_7="13000.00000" pt_clust_8="13000.00000" pt_clust_9="119.42353"></scales>
<clustering>
<clus scale="   91.145">  5  6 -1 -1</clus>
<clus scale="   91.225">  7  8 -1 -1</clus>
<clus scale="  103.578">  1  7  2 -1</clus>
<clus scale="  119.424">  2  9  1 -1</clus>
<clus scale="  119.424">  2  5  1 -1</clus>
</clustering>
</event>
<event>
 9    1  0.1399746E-005  0.1195537E+03  0.7546771E-02  0.1245042E+00
         -1   -1    0    0    0  501 -0.00000000000E+00  0.00000000000E+00  0.14926468487E+03  0.14926468487E+03  0.00000000000E+00 0.  1.
         21   -1    0    0  501  502  0.00000000000E+00 -0.00000000000E+00 -0.27692933240E+03  0.27692933240E+03  0.00000000000E+00 0. -1.
         23    2    1    2    0    0 -0.51197663967E+02  0.55879996609E+02  0.96007118467E+02  0.15040768617E+03  0.87529026298E+02 0.  0.
         23    2    1    2    0    0  0.75781985138E+02 -0.50453694393E+02 -0.21176345604E+03  0.24793599090E+03  0.91323653688E+02 0.  0.
        -11    1    4    4    0    0 -0.16302617120E+02 -0.28993432573E+02 -0.70451523040E+02  0.77908995347E+02  0.00000000000E+00 0.  1.
         11    1    4    4    0    0  0.92084602258E+02 -0.21460261819E+02 -0.14131193300E+03  0.17002699556E+03  0.00000000000E+00 0. -1.
        -13    1    3    3    0    0 -0.47884087287E+02 -0.16946264943E+01  0.75064293362E+02  0.89052825402E+02  0.00000000000E+00 0.  1.
         13    1    3    3    0    0 -0.33135766806E+01  0.57574623103E+02  0.20942825105E+02  0.61354860764E+02  0.00000000000E+00 0. -1.
         -1    1    1    2    0  502 -0.24584321170E+02 -0.54263022164E+01 -0.11908309955E+02  0.27850340198E+02  0.00000000000E+00 0.  1.
<scales pt_clust_5="13000.00000" pt_clust_6="13000.00000" pt_clust_7="13000.00000" pt_clust_8="13000.00000" pt_clust_9="25.17605"></scales>
<clustering>
<clus scale="   25.176">  2  9  1 -1</clus>
<clus scale="   87.529">  7  8 -1 -1</clus>
<clus scale="   91.324">  5  6 -1 -1</clus>
<clus scale="  116.681">  1  7  2 -1</clus>
<clus scale="   25.176">  2  5  1 -1</clus>
</clustering>
</event>
<event>
 9    1  0.1399746E-005  0.1047257E+03  0.7546771E-02  0.1272440E+00
         21   -1    0    0  501  502  0.00000000000E+00  0.00000000000E+00  0.89185413209E+02  0.89185413209E+02  0.00000000000E+00 0. -1.
          1   -1    0    0  502    0 -0.00000000000E+00 -0.00000000000E+00 -0.42590319775E+03  0.42590319775E+03  0.00000000000E+00 0. -1.
         23    2    1    2    0    0 -0.41332627511E+02 -0.10389386434E+02 -0.25204117773E+03  0.27232954620E+03  0.93927104791E+02 0.  0.
         23    2    1    2    0    0  0.43722287682E+02  0.33782470831E+02 -0.14422148443E+03  0.17873922936E+03  0.89972116602E+02 0.  0.
        -11    1    3    3    0    0  0.21958558953E+02 -0.16646263672E+02 -0.27401440033E+02  0.38860202282E+02  0.00000000000E+00 0.  1.
         11    1    3    3    0    0 -0.63291186464E+02  0.62568772380E+01 -0.22463973770E+03  0.23346934392E+03  0.00000000000E+00 0. -1.
        -13    1    4    4    0    0  0.47053402612E+02  0.94237408481E+01 -0.19800246937E+02  0.51912227536E+02  0.00000000000E+00 0.  1.
         13    1    4    4    0    0 -0.33311149302E+01  0.24358729983E+02 -0.12442123749E+03  0.12682700182E+03  0.00000000000E+00 0. -1.
          1    1    1    2  501    0 -0.23896601706E+01 -0.23393084397E+02  0.59544877620E+02  0.64019835396E+02  0.00000000000E+00 0. -1.
<scales pt_clust_5="13000.00000" pt_clust_6="13000.00000" pt_clust_7="13000.00000" pt_clust_8="13000.00000" pt_clust_9="23.51482"></scales>
<clustering>
<clus scale="   23.515">  1  9  2 -1</clus>
<clus scale="   89.972">  7  8 -1 -1</clus>
<clus scale="   93.927">  5  6 -1 -1</clus>
<clus scale="  101.194">  1  7  2 -1</clus>
<clus scale="   23.515">  1  5  2 -1</clus>
</clustering>
</event>
<event>
 9    1  0.1399746E-005  0.9255444E+02  0.7546771E-02  0.1297422E+00
         -1   -1    0    0    0  501 -0.00000000000E+00  0.00000000000E+00  0.34162634986E+03  0.34162634986E+03  0.00000000000E+00 0.  1.
         21   -1    0    0  501  502  0.00000000000E+00 -0.00000000000E+00 -0.50901605311E+02  0.50901605311E+02  0.00000000000E+00 0.  1.
         23    2    1    2    0    0 -0.20866873238E+01  0.11334976734E+02  0.17903380281E+03  0.20146316774E+03  0.91659530045E+02 0.  0.
         23    2    1    2    0    0 -0.44793898021E+02  0.13381057175E+02  0.76869996635E+02  0.12765209286E+03  0.90556691846E+02 0.  0.
        -11    1    4    4    0    0 -0.65737451235E+02  0.86495010131E+01  0.82122329246E+02  0.10554763533E+03  0.00000000000E+00 0.  1.
         11    1    4    4    0    0  0.20943553214E+02  0.47315561619E+01 -0.52523326112E+01  0.22104457533E+02  0.00000000000E+00 0. -1.
        -11    1    3    3    0    0 -0.15018911124E+02  0.48786797797E+02  0.81219937056E+02  0.95929127516E+02  0.00000000000E+00 0.  1.
         11    1    3    3    0    0  0.12932223800E+02 -0.37451821064E+02  0.97813865750E+02  0.10553404023E+03  0.00000000000E+00 0. -1.
         -1    1    1    2    0  502  0.46880585345E+02 -0.24716033909E+02  0.34820945112E+02  0.63412694573E+02  0.00000000000E+00 0.  1.
<scales pt_clust_5="13000.00000" pt_clust_6="13000.00000" pt_clust_7="13000.00000" pt_clust_8="13000.00000" pt_clust_9="52.99690"></scales>
<clustering>
<clus scale="   52.997">  2  9  1 -1</clus>
<clus scale="   90.557">  5  6 -1 -1</clus>
<clus scale="   91.462">  2  5  1 -1</clus>
<clus scale="   91.660">  7  8 -1 -1</clus>
<clus scale="   52.997">  2  5  1 -1</clus>
</clustering>
</event>
<event>
 9    1  0.1399746E-005  0.1528293E+03  0.7546771E-02  0.1197264E+00
         21   -1    0    0  501  502  0.00000000000E+00  0.00000000000E+00  0.22487151024E+02  0.22487151024E+02  0.00000000000E+00 0. -1.
          1   -1    0    0  502    0 -0.00000000000E+00 -0.00000000000E+00 -0.14074658844E+04  0.14074658844E+04  0.00000000000E+00 0. -1.
         23    2    1    2    0    0  0.30987144574E+02  0.12887139444E+03 -0.76597384743E+03  0.78256921291E+03  0.90169832007E+02 0.  0.
         23    2    1    2    0    0 -0.45590977110E+02 -0.97985369789E+02 -0.37192724811E+03  0.39795532061E+03  0.91426962287E+02 0.  0.
        -11    1    4    4    0    0 -0.64021052113E+02 -0.36090419111E+02 -0.15359655703E+03  0.17027364974E+03  0.00000000000E+00 0. -1.
         11    1    4    4    0    0  0.18430075002E+02 -0.61894950678E+02 -0.21833069108E+03  0.22768167087E+03  0.00000000000E+00 0.  1.
        -11    1    3    3    0    0 -0.21530807255E+02  0.22263107186E+01 -0.72061066412E+02  0.75241806284E+02  0.00000000000E+00 0.  1.
         11    1    3    3    0    0  0.52517951829E+02  0.12664508372E+03 -0.69391278102E+03  0.70732740662E+03  0.00000000000E+00 0. -1.
          1    1    1    2  501    0  0.14603832536E+02 -0.30886024649E+02 -0.24707763781E+03  0.24942850188E+03  0.00000000000E+00 0. -1.
<scales pt_clust_5="13000.00000" pt_clust_6="13000.00000" pt_clust_7="13000.00000" pt_clust_8="13000.00000" pt_clust_9="34.16460"></scales>
<clustering>
<clus scale="   34.165">  1  9  2 -1</clus>
<clus scale="   90.170">  7  8 -1 -1</clus>
<clus scale="   91.427">  5  6 -1 -1</clus>
<clus scale="  152.081">  2  7  1 -1</clus>
<clus scale="   34.165">  1  5  2 -1</clus>
</clustering>
</event>
<event>
 9    1  0.1399746E-005  0.1385331E+03  0.7546771E-02  0.1216829E+00
          1   -1    0    0  502    0 -0.00000000000E+00  0.00000000000E+00  0.94315096331E+02  0.94315096331E+02  0.00000000000E+00 0. -1.
         21   -1    0    0  501  502  0.00000000000E+00 -0.00000000000E+00 -0.32142361472E+03  0.32142361472E+03  0.00000000000E+00 0.  1.
         23    2    1    2    0    0  0.58170215501E+02  0.80541480580E+02 -0.22470208118E+02  0.14128956667E+03  0.97913877107E+02 0.  0.
         23    2    1    2    0    0 -0.90000787179E+02 -0.48239017783E+02 -0.16067116401E+03  0.21128472128E+03  0.91645327056E+02 0.  0.
        -11    1    3    3    0    0  0.70820581920E+02  0.14605385331E+02 -0.13378154962E+02  0.73538065886E+02  0.00000000000E+00 0. -1.
         11    1    3    3    0    0 -0.12650366418E+02  0.65936095249E+02 -0.90920531553E+01  0.67751500779E+02  0.00000000000E+00 0.  1.
        -13    1    4    4    0    0 -0.19802929794E+02 -0.26512779810E+02  0.16209274715E+01  0.33131720866E+02  0.00000000000E+00 0. -1.
         13    1    4    4    0    0 -0.70197857385E+02 -0.21726237973E+02 -0.16229209148E+03  0.17815300041E+03  0.00000000000E+00 0.  1.
          1    1    1    2  501    0  0.31830571678E+02 -0.32302462797E+02 -0.43967146257E+02  0.63164423104E+02  0.00000000000E+00 0. -1.
<scales pt_clust_5="13000.00000" pt_clust_6="13000.00000" pt_clust_7="13000.00000" pt_clust_8="13000.00000" pt_clust_9="45.35013"></scales>
<clustering>
<clus scale="   45.350">  2  9  1 -1</clus>
<clus scale="   91.645">  7  8 -1 -1</clus>
<clus scale="   97.914">  5  6 -1 -1</clus>
<clus scale="  134.176">  2  7  1 -1</clus>
<clus scale="   45.350">  2  5  1 -1</clus>
</clustering>
</event>
<event>
 9    1  0.1399746E-005  0.1013612E+03  0.7546771E-02  0.1280913E+00
          1   -1    0    0  502    0 -0.00000000000E+00  0.00000000000E+00  0.50631492084E+03  0.50631492084E+03  0.00000000000E+00 0. -1.
         21   -1    0    0  501  502  0.00000000000E+00 -0.00000000000E+00 -0.48622379952E+02  0.48622379952E+02  0.00000000000E+00 0.  1.
         23    2    1    2    0    0  0.26126790560E+02 -0.41767338505E+02  0.40395486950E+03  0.41691243440E+03  0.90605306762E+02 0.  0.
         23    2    1    2    0    0  0.91977408580E+01  0.36188698726E+02  0.36570919658E+02  0.98355720865E+02  0.83319837433E+02 0.  0.
        -13    1    3    3    0    0  0.31509298568E+02 -0.66817458886E+02  0.34163768037E+03  0.34953356543E+03  0.00000000000E+00 0. -1.
         13    1    3    3    0    0 -0.53825080084E+01  0.25050120381E+02  0.62317189128E+02  0.67378868975E+02  0.00000000000E+00 0.  1.
        -13    1    4    4    0    0  0.27518942912E+02  0.11517514626E+02  0.54966791281E+02  0.62540335032E+02  0.00000000000E+00 0. -1.
         13    1    4    4    0    0 -0.18321202054E+02  0.24671184100E+02 -0.18395871623E+02  0.35815385833E+02  0.00000000000E+00 0.  1.
          1    1    1    2  501    0 -0.35324531418E+02  0.55786397786E+01  0.17166751723E+02  0.39669145521E+02  0.00000000000E+00 0. -1.
<scales pt_clust_5="13000.00000" pt_clust_6="13000.00000" pt_clust_7="13000.00000" pt_clust_8="13000.00000" pt_clust_9="35.76232"></scales>
<clustering>
<clus scale="   35.762">  2  9  1 -1</clus>
<clus scale="   83.320">  7  8 -1 -1</clus>
<clus scale="   90.605">  5  6 -1 -1</clus>
<clus scale="   94.905">  2  7  1 -1</clus>
<clus scale="   35.762">  2  5  1 -1</clus>
</clustering>
</event>
<event>
 9    1  0.1399746E-005  0.1870552E+03  0.7546771E-02  0.1163446E+00
          1   -1    0    0  502    0 -0.00000000000E+00  0.00000000000E+00  0.36737196101E+03  0.36737196101E+03  0.00000000000E+00 0. -1.
         21   -1    0    0  501  502  0.00000000000E+00 -0.00000000000E+00 -0.19076067140E+03  0.19076067140E+03  0.00000000000E+00 0. -1.
         23    2    1    2    0    0  0.41081747390E+01 -0.15105379219E+03  0.16952021461E+03  0.23815862288E+03  0.71751663802E+02 0.  0.
         23    2    1    2    0    0  0.31521512121E+02  0.18414286439E+03  0.87196637873E+02  0.22626561882E+03  0.93223797247E+02 0.  0.
        -11    1    4    4    0    0  0.39270621185E+02  0.19449891224E+02  0.15616407794E+02  0.46522598265E+02  0.00000000000E+00 0.  1.
         11    1    4    4    0    0 -0.77491090641E+01  0.16469297317E+03  0.71580230079E+02  0.17974302056E+03  0.00000000000E+00 0. -1.
        -11    1    3    3    0    0  0.34284612368E+02 -0.48977883390E+02  0.48466761822E+02  0.76962943734E+02  0.00000000000E+00 0.  1.
         11    1    3    3    0    0 -0.30176437629E+02 -0.10207590880E+03  0.12105345278E+03  0.16119567915E+03  0.00000000000E+00 0. -1.
          1    1    1    2  501    0 -0.35629686860E+02 -0.33089072197E+02 -0.80105562875E+02  0.93708390703E+02  0.00000000000E+00 0. -1.
<scales pt_clust_5="13000.00000" pt_clust_6="13000.00000" pt_clust_7="13000.00000" pt_clust_8="13000.00000" pt_clust_9="48.62470"></scales>
<clustering>
<clus scale="   48.625">  2  9  1 -1</clus>
<clus scale="   71.752">  7  8 -1 -1</clus>
<clus scale="   93.224">  5  6 -1 -1</clus>
<clus scale="  177.334">  1  7  2 -1</clus>
<clus scale="   48.625">  2  5  1 -1</clus>
</clustering>
</event>
<event>
 9    1  0.1399746E-005  0.1061268E+03  0.7546771E-02  0.1268277E+00
         21   -1    0    0  501  502  0.00000000000E+00  0.00000000000E+00  0.95665131764E+02  0.95665131764E+02  0.00000000000E+00 0.  1.
          3   -1    0    0  502    0 -0.00000000000E+00 -0.00000000000E+00 -0.22463459998E+03  0.22463459998E+03  0.00000000000E+00 0. -1.
         23    2    1    2    0    0 -0.42431353255E+02 -0.23715061892E+02 -0.11705462824E+03  0.15621535734E+03  0.91316088263E+02 0.  0.
         23    2    1    2    0    0  0.42067312758E+02  0.45218213121E+02 -0.48941521574E+02  0.12126506581E+03  0.92171568562E+02 0.  0.
        -13    1    3    3    0    0 -0.18249870641E+02 -0.20635572530E+02  0.80959161339E+01  0.28712862798E+02  0.00000000000E+00 0.  1.
         13    1    3    3    0    0 -0.24181482615E+02 -0.30794893617E+01 -0.12515054437E+03  0.12750249454E+03  0.00000000000E+00 0. -1.
        -13    1    4    4    0    0  0.24683606188E+02 -0.25451153665E+02 -0.38768014290E+01  0.35666107534E+02  0.00000000000E+00 0.  1.
         13    1    4    4    0    0  0.17383706571E+02  0.70669366786E+02 -0.45064720145E+02  0.85598958276E+02  0.00000000000E+00 0. -1.
          3    1    1    2  501    0  0.36404049690E+00 -0.21503151229E+02  0.37026681601E+02  0.42819308596E+02  0.00000000000E+00 0. -1.
<scales pt_clust_5="13000.00000" pt_clust_6="13000.00000" pt_clust_7="13000.00000" pt_clust_8="13000.00000" pt_clust_9="21.50623"></scales>
<clustering>
<clus scale="   21.506">  1  9  2 -1</clus>
<clus scale="   91.316">  5  6 -1 -1</clus>
<clus scale="   92.172">  7  8 -1 -1</clus>
<clus scale="  105.385">  2  5  1 -1</clus>
<clus scale="   21.506">  1  5  2 -1</clus>
</clustering>
</event>
<event>
 9    1  0.1399746E-005  0.1625080E+03  0.7546771E-02  0.1208034E+00
         21   -1    0    0  501  502  0.00000000000E+00  0.00000000000E+00  0.15128605557E+03  0.15128605557E+03  0.00000000000E+00 0.  1.
          2   -1    0    0  502    0 -0.00000000000E+00 -0.00000000000E+00 -0.37748582453E+03  0.37748582453E+03  0.00000000000E+00 0. -1.
         23    2    1    2    0    0  0.11743766184E+02 -0.49747397948E+02 -0.20348237085E+03  0.22682201453E+03  0.86199950028E+02 0.  0.
         23    2    1    2    0    0 -0.12007249714E+03  0.99718040772E+02 -0.51225620756E+01  0.18136065647E+03  0.92219059040E+02 0.  0.
        -13    1    3    3    0    0 -0.23908110265E+02 -0.14972232378E+02 -0.15419225760E+03  0.15675145225E+03  0.00000000000E+00 0.  1.
         13    1    3    3    0    0  0.35651876449E+02 -0.34775165571E+02 -0.49290113246E+02  0.70070562282E+02  0.00000000000E+00 0. -1.
        -13    1    4    4    0    0 -0.60514474935E+02  0.96595608926E+02 -0.28182577123E+02  0.11741793302E+03  0.00000000000E+00 0. -1.
         13    1    4    4    0    0 -0.59558022200E+02  0.31224318461E+01  0.23060015047E+02  0.63942723456E+02  0.00000000000E+00 0.  1.
          2    1    1    2  501    0  0.10832873095E+03 -0.49970642824E+02 -0.17594836045E+02  0.12058920909E+03  0.00000000000E+00 0. -1.
<scales pt_clust_5="13000.00000" pt_clust_6="13000.00000" pt_clust_7="13000.00000" pt_clust_8="13000.00000" pt_clust_9="133.80769"></scales>
<clustering>
<clus scale="   86.200">  5  6 -1 -1</clus>
<clus scale="   92.219">  7  8 -1 -1</clus>
<clus scale="  100.216">  2  5  1 -1</clus>
<clus scale="  133.808">  1  9  2 -1</clus>
<clus scale="  133.808">  1  5  2 -1</clus>
</clustering>
</event>
<event>
 9    1  0.1399746E-005  0.9378906E+02  0.7546771E-02  0.1294595E+00
         21   -1    0    0  501  502  0.00000000000E+00  0.00000000000E+00  0.36488411289E+02  0.36488411289E+02  0.00000000000E+00 0. -1.
          1   -1    0    0  502    0 -0.00000000000E+00 -0.00000000000E+00 -0.72823067817E+03  0.72823067817E+03  0.00000000000E+00 0. -1.
         23    2    1    2    0    0 -0.21261811202E+02 -0.14944758586E+02 -0.35457037706E+03  0.36638950816E+03  0.88576006811E+02 0.  0.
         23    2    1    2    0    0  0.59710007954E+01  0.32192375201E+02 -0.35597638545E+03  0.36858234248E+03  0.89787272570E+02 0.  0.
        -13    1    4    4    0    0  0.43331334493E+02  0.50479094538E+01 -0.23653700279E+03  0.24052617244E+03  0.00000000000E+00 0.  1.
         13    1    4    4    0    0 -0.37360333697E+02  0.27144465747E+02 -0.11943938266E+03  0.12805617004E+03  0.00000000000E+00 0. -1.
        -13    1    3    3    0    0 -0.12669898453E+02  0.35928682193E+02 -0.19496071548E+03  0.19864812386E+03  0.00000000000E+00 0. -1.
         13    1    3    3    0    0 -0.85919127485E+01 -0.50873440779E+02 -0.15960966158E+03  0.16774138431E+03  0.00000000000E+00 0.  1.
          1    1    1    2  501    0  0.15290810407E+02 -0.17247616615E+02  0.18804495624E+02  0.29747238821E+02  0.00000000000E+00 0. -1.
<scales pt_clust_5="13000.00000" pt_clust_6="13000.00000" pt_clust_7="13000.00000" pt_clust_8="13000.00000" pt_clust_9="23.04971"></scales>
<clustering>
<clus scale="   23.050">  1  9  2 -1</clus>
<clus scale="   88.576">  7  8 -1 -1</clus>
<clus scale="   89.787">  5  6 -1 -1</clus>
<clus scale="   92.630">  2  7  1 -1</clus>
<clus scale="   23.050">  1  5  2 -1</clus>
</clustering>
</event>
<event>
 9    1  0.1399746E-005  0.1188897E+03  0.7546771E-02  0.1245008E+00
         21   -1    0    0  501  502  0.00000000000E+00  0.00000000000E+00  0.11073915803E+03  0.11073915803E+03  0.00000000000E+00 0. -1.
         -1   -1    0    0    0  501 -0.00000000000E+00 -0.00000000000E+00 -0.34207992649E+03  0.34207992649E+03  0.00000000000E+00 0.  1.
         23    2    1    2    0    0  0.34825311430E+02 -0.69162478998E+02 -0.27467010880E+03  0.29959649224E+03  0.91203830401E+02 0.  0.
         23    2    1    2    0    0 -0.51189257749E+02  0.51954928337E+02  0.17137813038E+02  0.11786902610E+03  0.90993120571E+02 0.  0.
        -11    1    3    3    0    0  0.61217138963E+02 -0.49252295823E+02 -0.13623151064E+03  0.15726522577E+03  0.00000000000E+00 0.  1.
         11    1    3    3    0    0 -0.26391827533E+02 -0.19910183176E+02 -0.13843859816E+03  0.14233126647E+03  0.00000000000E+00 0. -1.
        -11    1    4    4    0    0 -0.45167967922E+02 -0.71881370969E+01 -0.17610603576E+02  0.49009672509E+02  0.00000000000E+00 0.  1.
         11    1    4    4    0    0 -0.60212898264E+01  0.59143065434E+02  0.34748416614E+02  0.68859353593E+02  0.00000000000E+00 0. -1.
         -1    1    1    2    0  502  0.16363946319E+02  0.17207550661E+02  0.26191527299E+02  0.35353566173E+02  0.00000000000E+00 0.  1.
<scales pt_clust_5="13000.00000" pt_clust_6="13000.00000" pt_clust_7="13000.00000" pt_clust_8="13000.00000" pt_clust_9="23.74613"></scales>
<clustering>
<clus scale="   23.746">  1  9  2 -1</clus>
<clus scale="   90.993">  7  8 -1 -1</clus>
<clus scale="   91.204">  5  6 -1 -1</clus>
<clus scale="  118.728">  1  7  2 -1</clus>
<clus scale="   23.746">  1  5  2 -1</clus>
</clustering>
</event>
<event>
 9    1  0.1399746E-005  0.9576884E+02  0.7546771E-02  0.1291977E+00
          2   -1    0    0  502    0 -0.00000000000E+00  0.00000000000E+00  0.21241409304E+03  0.21241409304E+03  0.00000000000E+00 0. -1.
         21   -1    0    0  501  502  0.00000000000E+00 -0.00000000000E+00 -0.59978636064E+02  0.59978636064E+02  0.00000000000E+00 0.  1.
         23    2    1    2    0    0  0.73844731503E+01  0.14001180349E+01  0.91814416434E+02  0.13196491061E+03  0.94489998371E+02 0.  0.
         23    2    1    2    0    0 -0.17899906205E+02  0.27394981069E+02  0.49558008447E+02  0.10783759383E+03  0.90011437115E+02 0.  0.
        -11    1    3    3    0    0  0.22929096856E+01 -0.34804905979E+02  0.19352147241E+01  0.34933994491E+02  0.00000000000E+00 0.  1.
         11    1    3    3    0    0  0.50915634647E+01  0.36205024014E+02  0.89879201710E+02  0.97030916116E+02  0.00000000000E+00 0. -1.
        -13    1    4    4    0    0  0.31190419246E+02 -0.91726042043E+01  0.28101350748E+02  0.42972838335E+02  0.00000000000E+00 0.  1.
         13    1    4    4    0    0 -0.49090325451E+02  0.36567585274E+02  0.21456657699E+02  0.64864755494E+02  0.00000000000E+00 0. -1.
          2    1    1    2  501    0  0.10515433054E+02 -0.28795099104E+02  0.11063032092E+02  0.32590224666E+02  0.00000000000E+00 0. -1.
<scales pt_clust_5="13000.00000" pt_clust_6="13000.00000" pt_clust_7="13000.00000" pt_clust_8="13000.00000" pt_clust_9="30.65505"></scales>
<clustering>
<clus scale="   30.655">  2  9  1 -1</clus>
<clus scale="   90.011">  7  8 -1 -1</clus>
<clus scale="   91.353">  2  7  1 -1</clus>
<clus scale="   94.490">  5  6 -1 -1</clus>
<clus scale="   30.655">  2  5  1 -1</clus>
</clustering>
</event>
<event>
 9    1  0.1399746E-005  0.1288919E+03  0.7546771E-02  0.1229975E+00
         -3   -1    0    0    0  501 -0.00000000000E+00  0.00000000000E+00  0.11871619037E+03  0.11871619037E+03  0.00000000000E+00 0.  1.
         21   -1    0    0  501  502  0.00000000000E+00 -0.00000000000E+00 -0.18226404949E+03  0.18226404949E+03  0.00000000000E+00 0. -1.
         23    2    1    2    0    0  0.10335475683E+03 -0.23714889194E+02 -0.11509674290E+02  0.13862124704E+03  0.88536861253E+02 0.  0.
         23    2    1    2    0    0 -0.69872522256E+02  0.27600667279E+02 -0.30861647240E+02  0.12255189487E+03  0.91774503348E+02 0.  0.
        -11    1    3    3    0    0  0.10400193133E+03  0.85026292450E+01  0.16066489417E+00  0.10434904043E+03  0.00000000000E+00 0.  1.
         11    1    3    3    0    0 -0.64717450928E+00 -0.32217518439E+02 -0.11670339184E+02  0.34272206609E+02  0.00000000000E+00 0. -1.
        -13    1    4    4    0    0 -0.32966897734E+02  0.53227205331E+02  0.80360757636E+01  0.63123135594E+02  0.00000000000E+00 0.  1.
         13    1    4    4    0    0 -0.36905624522E+02 -0.25626538052E+02 -0.38897723004E+02  0.59428759274E+02  0.00000000000E+00 0. -1.
         -3    1    1    2    0  502 -0.33482234569E+02 -0.38857780852E+01 -0.21176537590E+02  0.39807097953E+02  0.00000000000E+00 0.  1.
<scales pt_clust_5="13000.00000" pt_clust_6="13000.00000" pt_clust_7="13000.00000" pt_clust_8="13000.00000" pt_clust_9="33.70696"></scales>
<clustering>
<clus scale="   33.707">  2  9  1 -1</clus>
<clus scale="   88.537">  5  6 -1 -1</clus>
<clus scale="   91.775">  7  8 -1 -1</clus>
<clus scale="  126.607">  1  5  2 -1</clus>
<clus scale="   33.707">  2  5  1 -1</clus>
</clustering>
</event>
<event>
 9    1  0.1399746E-005  0.1363710E+03  0.7546771E-02  0.1218732E+00
          1   -1    0    0  502    0 -0.00000000000E+00  0.00000000000E+00  0.37489442817E+03  0.37489442817E+03  0.00000000000E+00 0. -1.
         21   -1    0    0  501  502  0.00000000000E+00 -0.00000000000E+00 -0.10141519204E+03  0.10141519204E+03  0.00000000000E+00 0.  1.
         23    2    1    2    0    0 -0.85740940950E+02  0.30529912466E+02  0.14248879066E+03  0.19168204132E+03  0.90307059462E+02 0.  0.
         23    2    1    2    0    0  0.94775783017E+02 -0.59052507423E+02  0.17766440663E+03  0.22918729170E+03  0.92154900107E+02 0.  0.
        -11    1    4    4    0    0  0.67415411407E+02 -0.69490070668E+01  0.38158969421E+02  0.77776817508E+02  0.00000000000E+00 0. -1.
         11    1    4    4    0    0  0.27360371611E+02 -0.52103500356E+02  0.13950543721E+03  0.15141047419E+03  0.00000000000E+00 0.  1.
        -11    1    3    3    0    0 -0.65258902403E+02  0.17176781577E+02  0.25457387146E+02  0.72123815266E+02  0.00000000000E+00 0.  1.
         11    1    3    3    0    0 -0.20482038547E+02  0.13353130889E+02  0.11703140352E+03  0.11955822605E+03  0.00000000000E+00 0. -1.
          1    1    1    2  501    0 -0.90348420674E+01  0.28522594957E+02 -0.46673961160E+02  0.55440287199E+02  0.00000000000E+00 0. -1.
<scales pt_clust_5="13000.00000" pt_clust_6="13000.00000" pt_clust_7="13000.00000" pt_clust_8="13000.00000" pt_clust_9="29.91934"></scales>
<clustering>
<clus scale="   29.919">  2  9  1 -1</clus>
<clus scale="   90.307">  7  8 -1 -1</clus>
<clus scale="   92.155">  5  6 -1 -1</clus>
<clus scale="  135.129">  1  7  2 -1</clus>
<clus scale="   29.919">  2  5  1 -1</clus>
</clustering>
</event>
<event>
 9    1  0.1399746E-005  0.3482231E+03  0.7546771E-02  0.1063436E+00
         21   -1    0    0  501  502  0.00000000000E+00  0.00000000000E+00  0.34331817890E+03  0.34331817890E+03  0.00000000000E+00 0.  1.
          2   -1    0    0  502    0 -0.00000000000E+00 -0.00000000000E+00 -0.66452254934E+03  0.66452254934E+03  0.00000000000E+00 0. -1.
         23    2    1    2    0    0  0.27904802812E+03 -0.21167613802E+03 -0.48652133683E+03  0.60626307307E+03  0.90428497601E+02 0.  0.
         23    2    1    2    0    0 -0.21844585693E+03  0.17395048518E+03  0.13055122106E+03  0.32217674155E+03  0.93684938859E+02 0.  0.
        -11    1    4    4    0    0 -0.17379249485E+02  0.58980148721E+02  0.40731335783E+02  0.73754579319E+02  0.00000000000E+00 0. -1.
         11    1    4    4    0    0 -0.20106660745E+03  0.11497033646E+03  0.89819885278E+02  0.24842216223E+03  0.00000000000E+00 0.  1.
        -13    1    3    3    0    0  0.24178846777E+03 -0.18486825716E+03 -0.35858444101E+03  0.47034108579E+03  0.00000000000E+00 0. -1.
         13    1    3    3    0    0  0.37259560347E+02 -0.26807880859E+02 -0.12793689582E+03  0.13592198728E+03  0.00000000000E+00 0.  1.
          2    1    1    2  501    0 -0.60602171187E+02  0.37725652834E+02  0.34765745325E+02  0.79400913612E+02  0.00000000000E+00 0. -1.
<scales pt_clust_5="13000.00000" pt_clust_6="13000.00000" pt_clust_7="13000.00000" pt_clust_8="13000.00000" pt_clust_9="71.38521"></scales>
<clustering>
<clus scale="   71.385">  1  9  2 -1</clus>
<clus scale="   90.428">  7  8 -1 -1</clus>
<clus scale="   93.685">  5  6 -1 -1</clus>
<clus scale="  347.361">  2  7  1 -1</clus>
<clus scale="   71.385">  1  5  2 -1</clus>
</clustering>
</event>
<event>
 9    1  0.1399746E-005  0.9473851E+02  0.7546771E-02  0.1292069E+00
          3   -1    0    0  502    0 -0.00000000000E+00  0.00000000000E+00  0.11322372809E+03  0.11322372809E+03  0.00000000000E+00 0. -1.
         21   -1    0    0  501  502  0.00000000000E+00 -0.00000000000E+00 -0.24304974199E+03  0.24304974199E+03  0.00000000000E+00 0. -1.
         23    2    1    2    0    0 -0.69411172621E+01 -0.81877163777E+01  0.23587660642E+02  0.95090350038E+02  0.91490869094E+02 0.  0.
         23    2    1    2    0    0  0.54702661547E+02 -0.31757459710E+02 -0.18112917139E+02  0.11224327594E+03  0.90937109037E+02 0.  0.
        -11    1    3    3    0    0  0.30236760059E+02 -0.30161246195E+02 -0.54435936540E+01  0.43053398737E+02  0.00000000000E+00 0. -1.
         11    1    3    3    0    0 -0.37177877321E+02  0.21973529817E+02  0.29031254296E+02  0.52036951302E+02  0.00000000000E+00 0.  1.
        -13    1    4    4    0    0  0.31171165393E+02  0.55606852962E+01  0.32314213647E+02  0.45241255250E+02  0.00000000000E+00 0. -1.
         13    1    4    4    0    0  0.23531496154E+02 -0.37318145006E+02 -0.50427130786E+02  0.67002020695E+02  0.00000000000E+00 0.  1.
          3    1    1    2  501    0 -0.47761544285E+02  0.39945176088E+02 -0.13530075740E+03  0.14893984409E+03  0.00000000000E+00 0. -1.
<scales pt_clust_5="13000.00000" pt_clust_6="13000.00000" pt_clust_7="13000.00000" pt_clust_8="13000.00000" pt_clust_9="62.26381"></scales>
<clustering>
<clus scale="   62.264">  2  9  1 -1</clus>
<clus scale="   90.937">  7  8 -1 -1</clus>
<clus scale="   91.491">  5  6 -1 -1</clus>
<clus scale="   94.204">  2  7  1 -1</clus>
<clus scale="   62.264">  2  5  1 -1</clus>
</clustering>
</event>
<event>
 9    1  0.1399746E-005  0.1012515E+03  0.7546771E-02  0.1279963E+00
         21   -1    0    0  501  502  0.00000000000E+00  0.00000000000E+00  0.54222678098E+03  0.54222678098E+03  0.00000000000E+00 0.  1.
         -1   -1    0    0    0  501 -0.00000000000E+00 -0.00000000000E+00 -0.10628595758E+03  0.10628595758E+03  0.00000000000E+00 0.  1.
         23    2    1    2    0    0 -0.27647878431E+02 -0.12422061333E+02 -0.41155509445E+02  0.10638766628E+03  0.93305127343E+02 0.  0.
         23    2    1    2    0    0  0.93496652043E+02 -0.31229332963E+02  0.12823436695E+03  0.18442942449E+03  0.88618646845E+02 0.  0.
        -11    1    3    3    0    0  0.32139310779E+02 -0.10348199675E+02 -0.30746259431E+02  0.45665665471E+02  0.00000000000E+00 0.  1.
         11    1    3    3    0    0 -0.59787189211E+02 -0.20738616586E+01 -0.10409250013E+02  0.60722000805E+02  0.00000000000E+00 0. -1.
        -13    1    4    4    0    0  0.36977050909E+02  0.20558374985E+02  0.99257647469E+01  0.43456528644E+02  0.00000000000E+00 0. -1.
         13    1    4    4    0    0  0.56519601134E+02 -0.51787707948E+02  0.11830860220E+03  0.14097289584E+03  0.00000000000E+00 0.  1.
         -1    1    1    2    0  502 -0.65848773611E+02  0.43651394296E+02  0.34886196589E+03  0.35769564780E+03  0.00000000000E+00 0.  1.
<scales pt_clust_5="13000.00000" pt_clust_6="13000.00000" pt_clust_7="13000.00000" pt_clust_8="13000.00000" pt_clust_9="79.00320"></scales>
<clustering>
<clus scale="   79.003">  1  9  2 -1</clus>
<clus scale="   88.619">  7  8 -1 -1</clus>
<clus scale="   93.305">  5  6 -1 -1</clus>
<clus scale="   96.950">  1  7  2 -1</clus>
<clus scale="   79.003">  1  5  2 -1</clus>
</clustering>
</event>
<event>
 9    1  0.1399746E-005  0.9826206E+02  0.7546771E-02  0.1287549E+00
         21   -1    0    0  501  502  0.00000000000E+00  0.00000000000E+00  0.33464627431E+03  0.33464627431E+03  0.00000000000E+00 0.  1.
          1   -1    0    0  502    0 -0.00000000000E+00 -0.00000000000E+00 -0.40232561652E+02  0.40232561652E+02  0.00000000000E+00 0. -1.
         23    2    1    2    0    0  0.60054687470E+01 -0.97923383659E+01  0.10427442869E+03  0.14363957022E+03  0.98118367849E+02 0.  0.
         23    2    1    2    0    0  0.14725394300E+02 -0.18778883206E+02  0.12197018164E+03  0.15447267211E+03  0.91736565931E+02 0.  0.
        -11    1    3    3    0    0 -0.43765535744E+01  0.42248527181E+02  0.28572759293E+02  0.51190769127E+02  0.00000000000E+00 0. -1.
         11    1    3    3    0    0  0.10382022321E+02 -0.52040865547E+02  0.75701669395E+02  0.92448801093E+02  0.00000000000E+00 0.  1.
        -13    1    4    4    0    0  0.93269988840E+01 -0.46513641777E+02  0.25313302915E+02  0.53770578238E+02  0.00000000000E+00 0.  1.
         13    1    4    4    0    0  0.53983954157E+01  0.27734758571E+02  0.96656878726E+02  0.10070209388E+03  0.00000000000E+00 0. -1.
          1    1    1    2  501    0 -0.20730863047E+02  0.28571221572E+02  0.68169102330E+02  0.76766593628E+02  0.00000000000E+00 0. -1.
<scales pt_clust_5="13000.00000" pt_clust_6="13000.00000" pt_clust_7="13000.00000" pt_clust_8="13000.00000" pt_clust_9="35.29991"></scales>
<clustering>
<clus scale="   35.300">  1  9  2 -1</clus>
<clus scale="   91.737">  7  8 -1 -1</clus>
<clus scale="   91.890">  1  7  2 -1</clus>
<clus scale="   98.118">  5  6 -1 -1</clus>
<clus scale="   35.300">  1  5  2 -1</clus>
</clustering>
</event>
<event>
 9    1  0.1399746E-005  0.1096158E+03  0.7546771E-02  0.1261506E+00
         21   -1    0    0  501  502  0.00000000000E+00  0.00000000000E+00  0.15837006083E+03  0.15837006083E+03  0.00000000000E+00 0.  1.
          1   -1    0    0  502    0 -0.00000000000E+00 -0.00000000000E+00 -0.11200755624E+03  0.11200755624E+03  0.00000000000E+00 0. -1.
         23    2    1    2    0    0 -0.23381408604E+02 -0.61267229829E+02  0.79063443260E+01  0.11310404808E+03  0.91813134643E+02 0.  0.
         23    2    1    2    0    0  0.51091873952E+02  0.31400276824E+02  0.40564834061E+02  0.11647710741E+03  0.91241732883E+02 0.  0.
        -11    1    3    3    0    0  0.83547927857E+01 -0.65116498743E+02  0.32037235147E+02  0.73050293681E+02  0.00000000000E+00 0.  1.
         11    1    3    3    0    0 -0.31736201390E+02  0.38492689140E+01 -0.24130890821E+02  0.40053754402E+02  0.00000000000E+00 0. -1.
        -13    1    4    4    0    0  0.77748449858E+02  0.23403437556E+02  0.32934748485E+02  0.87619860777E+02  0.00000000000E+00 0.  1.
         13    1    4    4    0    0 -0.26656575906E+02  0.79968392677E+01  0.76300855759E+01  0.28857246632E+02  0.00000000000E+00 0. -1.
          1    1    1    2  501    0 -0.27710465348E+02  0.29866953005E+02 -0.21086737968E+01  0.40796461572E+02  0.00000000000E+00 0. -1.
<scales pt_clust_5="13000.00000" pt_clust_6="13000.00000" pt_clust_7="13000.00000" pt_clust_8="13000.00000" pt_clust_9="40.74195"></scales>
<clustering>
<clus scale="   40.742">  1  9  2 -1</clus>
<clus scale="   91.242">  7  8 -1 -1</clus>
<clus scale="   91.813">  5  6 -1 -1</clus>
<clus scale="  109.138">  1  7  2 -1</clus>
<clus scale="   40.742">  1  5  2 -1</clus>
</clustering>
</event>
<event>
 9    1  0.1399746E-005  0.2167180E+03  0.7546771E-02  0.1137087E+00
          2   -1    0    0  502    0 -0.00000000000E+00  0.00000000000E+00  0.11261440034E+04  0.11261440034E+04  0.00000000000E+00 0. -1.
         21   -1    0    0  501  502  0.00000000000E+00 -0.00000000000E+00 -0.53539866232E+02  0.53539866232E+02  0.00000000000E+00 0.  1.
         23    2    1    2    0    0 -0.17388082067E+03  0.10605174470E+03  0.67580044653E+03  0.71247021534E+03  0.97087856431E+02 0.  0.
         23    2    1    2    0    0  0.15813007740E+03 -0.87614943533E+02  0.39453401028E+03  0.44285892165E+03  0.88235137602E+02 0.  0.
        -11    1    4    4    0    0  0.97899723057E+02 -0.72153865401E+02  0.33649705476E+03  0.35779994959E+03  0.00000000000E+00 0.  1.
         11    1    4    4    0    0  0.60230354339E+02 -0.15461078132E+02  0.58036955520E+02  0.85058972054E+02  0.00000000000E+00 0. -1.
        -11    1    3    3    0    0 -0.54554206111E+02  0.28350128191E+02  0.85950018892E+02  0.10567543196E+03  0.00000000000E+00 0.  1.
         11    1    3    3    0    0 -0.11932661456E+03  0.77701616511E+02  0.58985042764E+03  0.60679478338E+03  0.00000000000E+00 0. -1.
          2    1    1    2  501    0  0.15750743272E+02 -0.18436801169E+02  0.22696803065E+01  0.24354732593E+02  0.00000000000E+00 0. -1.
<scales pt_clust_5="13000.00000" pt_clust_6="13000.00000" pt_clust_7="13000.00000" pt_clust_8="13000.00000" pt_clust_9="24.24874"></scales>
<clustering>
<clus scale="   24.249">  2  9  1 -1</clus>
<clus scale="   88.235">  5  6 -1 -1</clus>
<clus scale="   97.088">  7  8 -1 -1</clus>
<clus scale="  212.899">  2  5  1 -1</clus>
<clus scale="   24.249">  2  5  1 -1</clus>
</clustering>
</event>
<event>
 9    1  0.1399746E-005  0.1560665E+03  0.7546771E-02  0.1196224E+00
         21   -1    0    0  501  502  0.00000000000E+00  0.00000000000E+00  0.65414658390E+02  0.65414658390E+02  0.00000000000E+00 0. -1.
          2   -1    0    0  502    0 -0.00000000000E+00 -0.00000000000E+00 -0.97366321722E+03  0.97366321722E+03  0.00000000000E+00 0. -1.
         23    2    1    2    0    0 -0.80617817731E+01 -0.13585961875E+03 -0.67931480957E+03  0.69878828298E+03  0.91179085296E+02 0.  0.
         23    2    1    2    0    0  0.76215994256E+02  0.95590249904E+02 -0.21806978167E+03  0.26038562191E+03  0.72800197546E+02 0.  0.
        -11    1    3    3    0    0 -0.18045612634E+02 -0.13258022781E+02 -0.27477400535E+02  0.35446111826E+02  0.00000000000E+00 0.  1.
         11    1    3    3    0    0  0.99838308613E+01 -0.12260159597E+03 -0.65183740903E+03  0.66334217115E+03  0.00000000000E+00 0. -1.
        -13    1    4    4    0    0 -0.12863949981E+02  0.26793385848E+02 -0.44056575770E+02  0.53144600881E+02  0.00000000000E+00 0.  1.
         13    1    4    4    0    0  0.89079944237E+02  0.68796864057E+02 -0.17401320590E+03  0.20724102103E+03  0.00000000000E+00 0. -1.
          2    1    1    2  501    0 -0.68154212483E+02  0.40269368843E+02 -0.10863967596E+02  0.79903970728E+02  0.00000000000E+00 0. -1.
<scales pt_clust_5="13000.00000" pt_clust_6="13000.00000" pt_clust_7="13000.00000" pt_clust_8="13000.00000" pt_clust_9="79.16198"></scales>
<clustering>
<clus scale="   72.800">  7  8 -1 -1</clus>
<clus scale="   79.162">  1  9  2 -1</clus>
<clus scale="   91.179">  5  6 -1 -1</clus>
<clus scale="  146.092">  1  7  2 -1</clus>
<clus scale="   79.162">  1  5  2 -1</clus>
</clustering>
</event>
<event>
 9    1  0.1399746E-005  0.1170681E+03  0.7546771E-02  0.1248259E+00
         -1   -1    0    0    0  501 -0.00000000000E+00  0.00000000000E+00  0.64670112162E+02  0.64670112162E+02  0.00000000000E+00 0.  1.
         21   -1    0    0  501  502  0.00000000000E+00 -0.00000000000E+00 -0.34164398095E+03  0.34164398095E+03  0.00000000000E+00 0. -1.
         23    2    1    2    0    0  0.61290886822E+02  0.48264468505E+02 -0.53817559047E+02  0.13113593523E+03  0.90632621718E+02 0.  0.
         23    2    1    2    0    0 -0.66231072683E+02 -0.19840419813E+02 -0.11158623028E+03  0.15993834440E+03  0.91370618769E+02 0.  0.
        -11    1    3    3    0    0  0.16322540245E+02  0.37736233380E+02  0.18694041973E+02  0.45165427431E+02  0.00000000000E+00 0.  1.
         11    1    3    3    0    0  0.44968346577E+02  0.10528235125E+02 -0.72511601020E+02  0.85970507799E+02  0.00000000000E+00 0. -1.
        -13    1    4    4    0    0  0.12852086130E+02 -0.28426499619E+02 -0.51640736768E+02  0.60332476267E+02  0.00000000000E+00 0. -1.
         13    1    4    4    0    0 -0.79083158813E+02  0.85860798059E+01 -0.59945493512E+02  0.99605868133E+02  0.00000000000E+00 0.  1.
         -1    1    1    2    0  502  0.49401858610E+01 -0.28424048692E+02 -0.11157007946E+03  0.11523981348E+03  0.00000000000E+00 0.  1.
<scales pt_clust_5="13000.00000" pt_clust_6="13000.00000" pt_clust_7="13000.00000" pt_clust_8="13000.00000" pt_clust_9="28.85016"></scales>
<clustering>
<clus scale="   28.850">  2  9  1 -1</clus>
<clus scale="   90.633">  5  6 -1 -1</clus>
<clus scale="   91.371">  7  8 -1 -1</clus>
<clus scale="  116.493">  1  5  2 -1</clus>
<clus scale="   28.850">  2  5  1 -1</clus>
</clustering>
</event>
<event>
 9    1  0.1399746E-005  0.9004147E+02  0.7546771E-02  0.1304553E+00
          1   -1    0    0  502    0 -0.00000000000E+00  0.00000000000E+00  0.32898465538E+03  0.32898465538E+03  0.00000000000E+00 0. -1.
         21   -1    0    0  501  502  0.00000000000E+00 -0.00000000000E+00 -0.60737479965E+02  0.60737479965E+02  0.00000000000E+00 0.  1.
         23    2    1    2    0    0 -0.22665283168E+01  0.22209277029E+02  0.19563635544E+03  0.21442164990E+03  0.84880334833E+02 0.  0.
         23    2    1    2    0    0 -0.21549173929E+02 -0.12024533532E+02  0.10149512709E+03  0.13650332225E+03  0.87880258633E+02 0.  0.
        -11    1    3    3    0    0 -0.23992061292E+02 -0.13813084822E+02  0.20885544925E+02  0.34678902869E+02  0.00000000000E+00 0.  1.
         11    1    3    3    0    0  0.21725532976E+02  0.36022361851E+02  0.17475081051E+03  0.17974274703E+03  0.00000000000E+00 0. -1.
        -11    1    4    4    0    0 -0.14305670755E+02  0.37341771362E+02  0.33503027788E+02  0.52168122212E+02  0.00000000000E+00 0. -1.
         11    1    4    4    0    0 -0.72435031743E+01 -0.49366304894E+02  0.67992099306E+02  0.84335200036E+02  0.00000000000E+00 0.  1.
          1    1    1    2  501    0  0.23815702246E+02 -0.10184743497E+02 -0.28884307122E+02  0.38797163188E+02  0.00000000000E+00 0. -1.
<scales pt_clust_5="13000.00000" pt_clust_6="13000.00000" pt_clust_7="13000.00000" pt_clust_8="13000.00000" pt_clust_9="25.90206"></scales>
<clustering>
<clus scale="   25.902">  2  9  1 -1</clus>
<clus scale="   84.880">  5  6 -1 -1</clus>
<clus scale="   87.116">  1  5  2 -1</clus>
<clus scale="   87.880">  7  8 -1 -1</clus>
<clus scale="   25.902">  2  5  1 -1</clus>
</clustering>
</event>
<event>
 9    1  0.1399746E-005  0.2474501E+03  0.7546771E-02  0.1114983E+00
         21   -1    0    0  501  502  0.00000000000E+00  0.00000000000E+00  0.12062906825E+03  0.12062906825E+03  0.00000000000E+00 0. -1.
          1   -1    0    0  502    0 -0.00000000000E+00 -0.00000000000E+00 -0.14150761533E+04  0.14150761533E+04  0.00000000000E+00 0. -1.
         23    2    1    2    0    0 -0.18414835348E+03 -0.13552602485E+03 -0.11399092357E+04  0.11662265457E+04  0.91724428364E+02 0.  0.
         23    2    1    2    0    0  0.20173909335E+03  0.11890675002E+03 -0.19758246372E+03  0.32009777612E+03  0.92662178451E+02 0.  0.
        -13    1    4    4    0    0  0.10775608718E+03  0.10913099299E+03 -0.93946891956E+02  0.17985262429E+03  0.00000000000E+00 0.  1.
         13    1    4    4    0    0  0.93983006171E+02  0.97757570289E+01 -0.10363557177E+03  0.14024515182E+03  0.00000000000E+00 0. -1.
        -13    1    3    3    0    0 -0.16228278419E+03 -0.14453537993E+03 -0.10831910443E+04  0.11047755503E+04  0.00000000000E+00 0. -1.
         13    1    3    3    0    0 -0.21865569290E+02  0.90093550792E+01 -0.56718191376E+02  0.61450995373E+02  0.00000000000E+00 0.  1.
          1    1    1    2  501    0 -0.17590739877E+02  0.16619274824E+02  0.43044614416E+02  0.49380899702E+02  0.00000000000E+00 0. -1.
<scales pt_clust_5="13000.00000" pt_clust_6="13000.00000" pt_clust_7="13000.00000" pt_clust_8="13000.00000" pt_clust_9="24.19988"></scales>
<clustering>
<clus scale="   24.200">  1  9  2 -1</clus>
<clus scale="   91.724">  7  8 -1 -1</clus>
<clus scale="   92.662">  5  6 -1 -1</clus>
<clus scale="  247.100">  2  7  1 -1</clus>
<clus scale="   24.200">  1  5  2 -1</clus>
</clustering>
</event>
<event>
 9    1  0.1399746E-005  0.1775610E+03  0.7546771E-02  0.1171215E+00
         21   -1    0    0  501  502  0.00000000000E+00  0.00000000000E+00  0.16936043829E+03  0.16936043829E+03  0.00000000000E+00 0.  1.
          2   -1    0    0  502    0 -0.00000000000E+00 -0.00000000000E+00 -0.60044978452E+03  0.60044978452E+03  0.00000000000E+00 0. -1.
         23    2    1    2    0    0  0.26474441241E+02  0.12961436649E+03 -0.32882837444E+03  0.36772199455E+03  0.97931534224E+02 0.  0.
         23    2    1    2    0    0  0.15440156358E+02 -0.19010322950E+03 -0.19252326369E+03  0.28562785998E+03  0.90224337280E+02 0.  0.
        -11    1    3    3    0    0 -0.13390704372E+02  0.73349466491E+02 -0.79330962879E+02  0.10887082653E+03  0.00000000000E+00 0. -1.
         11    1    3    3    0    0  0.39865145614E+02  0.56264900000E+02 -0.24949741156E+03  0.25885116802E+03  0.00000000000E+00 0.  1.
        -13    1    4    4    0    0  0.39530953486E+02 -0.31460841661E+02 -0.44929154021E+02  0.67609982418E+02  0.00000000000E+00 0. -1.
         13    1    4    4    0    0 -0.24090797128E+02 -0.15864238784E+03 -0.14759410967E+03  0.21801787756E+03  0.00000000000E+00 0.  1.
          2    1    1    2  501    0 -0.41914597600E+02  0.60488863012E+02  0.90262291904E+02  0.11646036828E+03  0.00000000000E+00 0. -1.
<scales pt_clust_5="13000.00000" pt_clust_6="13000.00000" pt_clust_7="13000.00000" pt_clust_8="13000.00000" pt_clust_9="73.59168"></scales>
<clustering>
<clus scale="   73.592">  1  9  2 -1</clus>
<clus scale="   90.224">  7  8 -1 -1</clus>
<clus scale="   97.932">  5  6 -1 -1</clus>
<clus scale="  173.429">  1  7  2 -1</clus>
<clus scale="   73.592">  1  5  2 -1</clus>
</clustering>
</event>
<event>
 9    1  0.1399746E-005  0.1061638E+03  0.7546771E-02  0.1267900E+00
         21   -1    0    0  501  502  0.00000000000E+00  0.00000000000E+00  0.83585823589E+02  0.83585823589E+02  0.00000000000E+00 0.  1.
          1   -1    0    0  502    0 -0.00000000000E+00 -0.00000000000E+00 -0.36336097722E+03  0.36336097722E+03  0.00000000000E+00 0. -1.
         23    2    1    2    0    0  0.48673463885E+02  0.10369050427E+02 -0.27454422027E+03  0.29384033419E+03  0.92146567076E+02 0.  0.
         23    2    1    2    0    0 -0.73145262131E+02  0.13914581854E+02 -0.71288413107E+01  0.11857871313E+03  0.92012205003E+02 0.  0.
        -11    1    3    3    0    0  0.47839269882E+02 -0.22907944343E+02 -0.76935262677E+02  0.93447334365E+02  0.00000000000E+00 0.  1.
         11    1    3    3    0    0  0.83419400297E+00  0.33276994769E+02 -0.19760895759E+03  0.20039299983E+03  0.00000000000E+00 0. -1.
        -13    1    4    4    0    0 -0.51952194728E+02 -0.26184587784E+01  0.39119788188E+02  0.65086440149E+02  0.00000000000E+00 0.  1.
         13    1    4    4    0    0 -0.21193067403E+02  0.16533040632E+02 -0.46248629499E+02  0.53492272984E+02  0.00000000000E+00 0. -1.
          1    1    1    2  501    0  0.24471798246E+02 -0.24283632281E+02  0.18979079441E+01  0.34527753485E+02  0.00000000000E+00 0. -1.
<scales pt_clust_5="13000.00000" pt_clust_6="13000.00000" pt_clust_7="13000.00000" pt_clust_8="13000.00000" pt_clust_9="34.47555"></scales>
<clustering>
<clus scale="   34.476">  1  9  2 -1</clus>
<clus scale="   92.012">  7  8 -1 -1</clus>
<clus scale="   92.147">  5  6 -1 -1</clus>
<clus scale="  106.047">  1  7  2 -1</clus>
<clus scale="   34.476">  1  5  2 -1</clus>
</clustering>
</event>
<event>
 9    1  0.1399746E-005  0.9115405E+02  0.7546771E-02  0.1300822E+00
         -1   -1    0    0    0  501 -0.00000000000E+00  0.00000000000E+00  0.13475923712E+03  0.13475923712E+03  0.00000000000E+00 0.  1.
         21   -1    0    0  501  502  0.00000000000E+00 -0.00000000000E+00 -0.18961587417E+03  0.18961587417E+03  0.00000000000E+00 0. -1.
         23    2    1    2    0    0  0.13592545261E+02 -0.11414541040E+01  0.66190544116E+02  0.11343220462E+03  0.91102232195E+02 0.  0.
         23    2    1    2    0    0  0.51029959886E+02 -0.76111705326E+00 -0.97668347790E+02  0.14219512271E+03  0.89864957898E+02 0.  0.
        -11    1    4    4    0    0 -0.22528098022E+02  0.78495622487E+01 -0.64803768729E+01  0.24720965038E+02  0.00000000000E+00 0.  1.
         11    1    4    4    0    0  0.73558057908E+02 -0.86106793020E+01 -0.91187970917E+02  0.11747415767E+03  0.00000000000E+00 0. -1.
        -11    1    3    3    0    0  0.50534191341E+02 -0.98690085856E+01  0.51225184146E+02  0.72630030399E+02  0.00000000000E+00 0. -1.
         11    1    3    3    0    0 -0.36941646080E+02  0.87275544816E+01  0.14965359970E+02  0.40802174223E+02  0.00000000000E+00 0.  1.
         -1    1    1    2    0  502 -0.64622505147E+02  0.19025711573E+01 -0.23378833372E+02  0.68747783952E+02  0.00000000000E+00 0.  1.
<scales pt_clust_5="13000.00000" pt_clust_6="13000.00000" pt_clust_7="13000.00000" pt_clust_8="13000.00000" pt_clust_9="64.65051"></scales>
<clustering>
<clus scale="   64.651">  2  9  1 -1</clus>
<clus scale="   89.865">  5  6 -1 -1</clus>
<clus scale="   89.917">  2  5  1 -1</clus>
<clus scale="   91.102">  7  8 -1 -1</clus>
<clus scale="   64.651">  2  5  1 -1</clus>
</clustering>
</event>
<event>
 9    1  0.1399746E-005  0.3014403E+03  0.7546771E-02  0.1119132E+00
         21   -1    0    0  501  502  0.00000000000E+00  0.00000000000E+00  0.47260372504E+03  0.47260372504E+03  0.00000000000E+00 0.  1.
         -3   -1    0    0    0  501 -0.00000000000E+00 -0.00000000000E+00 -0.33729459168E+03  0.33729459168E+03  0.00000000000E+00 0.  1.
         23    2    1    2    0    0  0.24712167419E+02  0.78860915204E+02 -0.38860402029E+02  0.12913454154E+03  0.91300951843E+02 0.  0.
         23    2    1    2    0    0 -0.19263475379E+03  0.17143967889E+03 -0.82068238700E+02  0.28515515635E+03  0.89880785070E+02 0.  0.
        -11    1    4    4    0    0 -0.16583653352E+03  0.11543823283E+03 -0.92459906939E+02  0.22220840632E+03  0.00000000000E+00 0.  1.
         11    1    4    4    0    0 -0.26798220272E+02  0.56001446064E+02  0.10391668239E+02  0.62946750033E+02  0.00000000000E+00 0. -1.
        -13    1    3    3    0    0 -0.15304575387E+02  0.80649693881E+02 -0.33737965921E+02  0.88751639395E+02  0.00000000000E+00 0.  1.
         13    1    3    3    0    0  0.40016742806E+02 -0.17887786764E+01 -0.51224361080E+01  0.40382902145E+02  0.00000000000E+00 0. -1.
         -3    1    1    2    0  502  0.16792258637E+03 -0.25030059410E+03  0.25623777409E+03  0.39560861882E+03  0.00000000000E+00 0.  1.
<scales pt_clust_5="13000.00000" pt_clust_6="13000.00000" pt_clust_7="13000.00000" pt_clust_8="13000.00000" pt_clust_9="287.72854"></scales>
<clustering>
<clus scale="   89.881">  5  6 -1 -1</clus>
<clus scale="   91.301">  7  8 -1 -1</clus>
<clus scale="  123.149">  2  7  1 -1</clus>
<clus scale="  287.729">  1  9  2 -1</clus>
<clus scale="  287.729">  1  5  2 -1</clus>
</clustering>
</event>
<event>
 9    1  0.1399746E-005  0.1043516E+03  0.7546771E-02  0.1271873E+00
          1   -1    0    0  502    0 -0.00000000000E+00  0.00000000000E+00  0.14469866397E+03  0.14469866397E+03  0.00000000000E+00 0. -1.
         21   -1    0    0  501  502  0.00000000000E+00 -0.00000000000E+00 -0.16477735341E+03  0.16477735341E+03  0.00000000000E+00 0. -1.
         23    2    1    2    0    0 -0.34037330376E+01  0.32268986470E+02  0.83579849217E+01  0.97190481440E+02  0.91231907160E+02 0.  0.
         23    2    1    2    0    0  0.74207991863E+02 -0.39185014932E+02  0.21954020572E+02  0.12510585567E+03  0.90151010265E+02 0.  0.
        -11    1    3    3    0    0  0.36453093736E+02  0.36256430173E+02 -0.11193181172E+02  0.52617906425E+02  0.00000000000E+00 0. -1.
         11    1    3    3    0    0 -0.39856826774E+02 -0.39874437026E+01  0.19551166094E+02  0.44572575014E+02  0.00000000000E+00 0.  1.
        -13    1    4    4    0    0 -0.81084507605E+00  0.21648069272E+02  0.18454896704E+02  0.28458383393E+02  0.00000000000E+00 0.  1.
         13    1    4    4    0    0  0.75018836939E+02 -0.60833084205E+02  0.34991238675E+01  0.96647472276E+02  0.00000000000E+00 0. -1.
          1    1    1    2  501    0 -0.70804258826E+02  0.69160284620E+01 -0.50390694930E+02  0.87179680276E+02  0.00000000000E+00 0. -1.
<scales pt_clust_5="13000.00000" pt_clust_6="13000.00000" pt_clust_7="13000.00000" pt_clust_8="13000.00000" pt_clust_9="71.14123"></scales>
<clustering>
<clus scale="   71.141">  2  9  1 -1</clus>
<clus scale="   90.151">  7  8 -1 -1</clus>
<clus scale="   91.232">  5  6 -1 -1</clus>
<clus scale="  103.408">  2  7  1 -1</clus>
<clus scale="   71.141">  2  5  1 -1</clus>
</clustering>
</event>
<event>
 9    1  0.1399746E-005  0.2222186E+03  0.7546771E-02  0.1156785E+00
          1   -1    0    0  502    0 -0.00000000000E+00  0.00000000000E+00  0.10187411249E+04  0.10187411249E+04  0.00000000000E+00 0. -1.
         21   -1    0    0  501  502  0.00000000000E+00 -0.00000000000E+00 -0.17343054562E+03  0.17343054562E+03  0.00000000000E+00 0. -1.
         23    2    1    2    0    0  0.65394857048E+02 -0.53292757014E+02  0.17428036791E+03  0.21360612665E+03  0.90207125134E+02 0.  0.
         23    2    1    2    0    0 -0.51046363522E+02  0.24938981360E+03  0.72540460345E+03  0.77456429539E+03  0.94535700285E+02 0.  0.
        -11    1    3    3    0    0 -0.18478043064E+02 -0.13528674712E+02  0.10156175671E+02  0.25052165958E+02  0.00000000000E+00 0.  1.
         11    1    3    3    0    0  0.83872900112E+02 -0.39764082302E+02  0.16412419224E+03  0.18855396069E+03  0.00000000000E+00 0. -1.
        -13    1    4    4    0    0  0.16825429378E+02  0.34342300722E+02  0.18650764259E+03  0.19038799709E+03  0.00000000000E+00 0.  1.
         13    1    4    4    0    0 -0.67871792900E+02  0.21504751288E+03  0.53889696087E+03  0.58417629830E+03  0.00000000000E+00 0. -1.
          1    1    1    2  501    0 -0.14348493526E+02 -0.19609705659E+03 -0.54374392082E+02  0.20400124848E+03  0.00000000000E+00 0. -1.
<scales pt_clust_5="13000.00000" pt_clust_6="13000.00000" pt_clust_7="13000.00000" pt_clust_8="13000.00000" pt_clust_9="201.10720"></scales>
<clustering>
<clus scale="   90.207">  5  6 -1 -1</clus>
<clus scale="   94.536">  7  8 -1 -1</clus>
<clus scale="  123.507">  1  5  2 -1</clus>
<clus scale="  201.107">  2  9  1 -1</clus>
<clus scale="  201.107">  2  5  1 -1</clus>
</clustering>
</event>
<event>
 9    1  0.1399746E-005  0.1046442E+03  0.7546771E-02  0.1283291E+00
         21   -1    0    0  501  502  0.00000000000E+00  0.00000000000E+00  0.57259697681E+03  0.57259697681E+03  0.00000000000E+00 0. -1.
          1   -1    0    0  502    0 -0.00000000000E+00 -0.00000000000E+00 -0.12791961566E+03  0.12791961566E+03  0.00000000000E+00 0. -1.
         23    2    1    2    0    0  0.78897794335E+01 -0.30962900057E+02 -0.99611121387E+02  0.12984886429E+03  0.76924653103E+02 0.  0.
         23    2    1    2    0    0  0.27399025252E+02 -0.22206497844E+02  0.37331736349E+03  0.38817551422E+03  0.10035208431E+03 0.  0.
        -13    1    3    3    0    0 -0.28967109923E+02 -0.21409908860E+02 -0.19060000326E+02  0.40752438787E+02  0.00000000000E+00 0.  1.
         13    1    3    3    0    0  0.36856889356E+02 -0.95529911971E+01 -0.80551121062E+02  0.89096425507E+02  0.00000000000E+00 0. -1.
        -13    1    4    4    0    0 -0.34202350190E+02 -0.24347187994E+02  0.19612975348E+03  0.20057284592E+03  0.00000000000E+00 0.  1.
         13    1    4    4    0    0  0.61601375443E+02  0.21406901500E+01  0.17718761002E+03  0.18760266830E+03  0.00000000000E+00 0. -1.
          1    1    1    2  501    0 -0.35288804686E+02  0.53169397901E+02  0.17097111903E+03  0.18249221395E+03  0.00000000000E+00 0. -1.
<scales pt_clust_5="13000.00000" pt_clust_6="13000.00000" pt_clust_7="13000.00000" pt_clust_8="13000.00000" pt_clust_9="63.81445"></scales>
<clustering>
<clus scale="   63.814">  1  9  2 -1</clus>
<clus scale="   76.925">  5  6 -1 -1</clus>
<clus scale="   82.446">  2  5  1 -1</clus>
<clus scale="  100.352">  7  8 -1 -1</clus>
<clus scale="   63.814">  1  5  2 -1</clus>
</clustering>
</event>
<event>
 9    1  0.1399746E-005  0.3107083E+03  0.7546771E-02  0.1121675E+00
         21   -1    0    0  501  502  0.00000000000E+00  0.00000000000E+00  0.92022734098E+02  0.92022734098E+02  0.00000000000E+00 0.  1.
          1   -1    0    0  502    0 -0.00000000000E+00 -0.00000000000E+00 -0.15464578449E+04  0.15464578449E+04  0.00000000000E+00 0. -1.
         23    2    1    2    0    0 -0.20260848973E+02 -0.48650451565E+02 -0.12996200022E+03  0.16741106728E+03  0.91427433021E+02 0.  0.
         23    2    1    2    0    0  0.30961760294E+03  0.54826040761E+02 -0.89670232469E+03  0.95458784290E+03  0.91071048670E+02 0.  0.
        -11    1    3    3    0    0  0.30788502756E+01 -0.60737347380E+02 -0.12719000380E+03  0.14098156529E+03  0.00000000000E+00 0. -1.
         11    1    3    3    0    0 -0.23339699248E+02  0.12086895815E+02 -0.27719964255E+01  0.26429501994E+02  0.00000000000E+00 0.  1.
        -11    1    4    4    0    0  0.22883657641E+03  0.36966873449E+02 -0.76228882854E+03  0.79675403140E+03  0.00000000000E+00 0.  1.
         11    1    4    4    0    0  0.80781026529E+02  0.17859167312E+02 -0.13441349615E+03  0.15783381150E+03  0.00000000000E+00 0. -1.
          1    1    1    2  501    0 -0.28935675396E+03 -0.61755891958E+01 -0.42777078590E+03  0.51648166883E+03  0.00000000000E+00 0. -1.
<scales pt_clust_5="13000.00000" pt_clust_6="13000.00000" pt_clust_7="13000.00000" pt_clust_8="13000.00000" pt_clust_9="297.06184"></scales>
<clustering>
<clus scale="   91.071">  7  8 -1 -1</clus>
<clus scale="   91.427">  5  6 -1 -1</clus>
<clus scale="  105.529">  2  5  1 -1</clus>
<clus scale="  297.062">  1  9  2 -1</clus>
<clus scale="  297.062">  1  5  2 -1</clus>
</clustering>
</event>
<event>
 9    1  0.1399746E-005  0.1185101E+03  0.7546771E-02  0.1255591E+00
          1   -1    0    0  502    0 -0.00000000000E+00  0.00000000000E+00  0.50759960391E+03  0.50759960391E+03  0.00000000000E+00 0. -1.
         21   -1    0    0  501  502  0.00000000000E+00 -0.00000000000E+00 -0.63433817827E+02  0.63433817827E+02  0.00000000000E+00 0.  1.
         23    2    1    2    0    0  0.37942297164E+01 -0.24916762012E+02  0.30219004907E+03  0.31732123841E+03  0.93481021495E+02 0.  0.
         23    2    1    2    0    0  0.25197943707E+02  0.27538071175E+02  0.17285167438E+03  0.21127704588E+03  0.11561577335E+03 0.  0.
        -11    1    4    4    0    0 -0.33711266871E+02  0.53304392089E+01  0.13173300901E+03  0.13608250718E+03  0.00000000000E+00 0.  1.
         11    1    4    4    0    0  0.58909210578E+02  0.22207631966E+02  0.41118665368E+02  0.75194538699E+02  0.00000000000E+00 0. -1.
        -11    1    3    3    0    0 -0.51842308897E+01 -0.57695342109E+02  0.13825229760E+03  0.14989772027E+03  0.00000000000E+00 0. -1.
         11    1    3    3    0    0  0.89784606061E+01  0.32778580097E+02  0.16393775148E+03  0.16742351814E+03  0.00000000000E+00 0.  1.
          1    1    1    2  501    0 -0.28992173423E+02 -0.26213091630E+01 -0.30875937373E+02  0.42435137447E+02  0.00000000000E+00 0. -1.
<scales pt_clust_5="13000.00000" pt_clust_6="13000.00000" pt_clust_7="13000.00000" pt_clust_8="13000.00000" pt_clust_9="29.11043"></scales>
<clustering>
<clus scale="   29.110">  2  9  1 -1</clus>
<clus scale="   93.481">  7  8 -1 -1</clus>
<clus scale="   97.038">  1  7  2 -1</clus>
<clus scale="  115.616">  5  6 -1 -1</clus>
<clus scale="   29.110">  2  5  1 -1</clus>
</clustering>
</event>
<event>
 9    1  0.1399746E-005  0.9777502E+02  0.7546771E-02  0.1285080E+00
         21   -1    0    0  501  502  0.00000000000E+00  0.00000000000E+00  0.17842794782E+03  0.17842794782E+03  0.00000000000E+00 0. -1.
         -3   -1    0    0    0  501 -0.00000000000E+00 -0.00000000000E+00 -0.23204113648E+03  0.23204113648E+03  0.00000000000E+00 0.  1.
         23    2    1    2    0    0  0.14907181811E+02  0.31613334346E+02 -0.18420298693E+03  0.20821324661E+03  0.90555997565E+02 0.  0.
         23    2    1    2    0    0 -0.32334805033E+02 -0.52870555301E+02  0.13550830829E+03  0.17433123859E+03  0.90487810783E+02 0.  0.
        -11    1    3    3    0    0 -0.23630531828E+02  0.37554996286E+02 -0.14973192147E+03  0.15616794834E+03  0.00000000000E+00 0.  1.
         11    1    3    3    0    0  0.38537713639E+02 -0.59416619407E+01 -0.34471065457E+02  0.52045298278E+02  0.00000000000E+00 0. -1.
        -13    1    4    4    0    0  0.28409192003E+02 -0.18786247461E+02  0.20143029463E+02  0.39569520087E+02  0.00000000000E+00 0.  1.
         13    1    4    4    0    0 -0.60743997036E+02 -0.34084307839E+02  0.11536527882E+03  0.13476171851E+03  0.00000000000E+00 0. -1.
         -3    1    1    2    0  502  0.17427623222E+02  0.21257220955E+02 -0.49185100172E+01  0.27924599096E+02  0.00000000000E+00 0.  1.
<scales pt_clust_5="13000.00000" pt_clust_6="13000.00000" pt_clust_7="13000.00000" pt_clust_8="13000.00000" pt_clust_9="27.48804"></scales>
<clustering>
<clus scale="   27.488">  1  9  2 -1</clus>
<clus scale="   90.488">  7  8 -1 -1</clus>
<clus scale="   90.556">  5  6 -1 -1</clus>
<clus scale="   97.712">  1  7  2 -1</clus>
<clus scale="   27.488">  1  5  2 -1</clus>
</clustering>
</event>
<event>
 9    1  0.1399746E-005  0.1024536E+03  0.7546771E-02  0.1276332E+00
         21   -1    0    0  501  502  0.00000000000E+00  0.00000000000E+00  0.54303636873E+03  0.54303636873E+03  0.00000000000E+00 0.  1.
          1   -1    0    0  502    0 -0.00000000000E+00 -0.00000000000E+00 -0.27099559568E+02  0.27099559568E+02  0.00000000000E+00 0. -1.
         23    2    1    2    0    0 -0.34986186502E+02  0.17525532949E+02  0.18016369784E+03  0.20554238521E+03  0.90870988480E+02 0.  0.
         23    2    1    2    0    0  0.26638176411E+02 -0.41473530893E+02  0.19639222903E+03  0.22292411722E+03  0.93250245077E+02 0.  0.
        -13    1    3    3    0    0 -0.45741049199E+02  0.48020148751E+02  0.11363166362E+03  0.13156873961E+03  0.00000000000E+00 0.  1.
         13    1    3    3    0    0  0.10754862697E+02 -0.30494615802E+02  0.66532034221E+02  0.73973645592E+02  0.00000000000E+00 0. -1.
        -13    1    4    4    0    0 -0.34259809093E+02 -0.18489715881E+02  0.56305967117E+02  0.68454116351E+02  0.00000000000E+00 0.  1.
         13    1    4    4    0    0  0.60897985504E+02 -0.22983815011E+02  0.14008626191E+03  0.15447000087E+03  0.00000000000E+00 0. -1.
          1    1    1    2  501    0  0.83480100904E+01  0.23947997944E+02  0.13938088229E+03  0.14166942587E+03  0.00000000000E+00 0. -1.
<scales pt_clust_5="13000.00000" pt_clust_6="13000.00000" pt_clust_7="13000.00000" pt_clust_8="13000.00000" pt_clust_9="25.36131"></scales>
<clustering>
<clus scale="   25.361">  1  9  2 -1</clus>
<clus scale="   90.871">  5  6 -1 -1</clus>
<clus scale="   93.250">  7  8 -1 -1</clus>
<clus scale="  100.293">  2  5  1 -1</clus>
<clus scale="   25.361">  1  5  2 -1</clus>
</clustering>
</event>
<event>
 9    1  0.1399746E-005  0.1131416E+03  0.7546771E-02  0.1255281E+00
          3   -1    0    0  502    0 -0.00000000000E+00  0.00000000000E+00  0.39617770754E+03  0.39617770754E+03  0.00000000000E+00 0. -1.
         21   -1    0    0  501  502  0.00000000000E+00 -0.00000000000E+00 -0.71863115395E+02  0.71863115395E+02  0.00000000000E+00 0.  1.
         23    2    1    2    0    0 -0.51784686773E+02  0.54796470545E+02  0.30253718182E+03  0.32417535782E+03  0.88750263487E+02 0.  0.
         23    2    1    2    0    0  0.33208939258E+02 -0.33719335595E+02  0.41252528813E+02  0.10968090348E+03  0.89934988826E+02 0.  0.
        -11    1    4    4    0    0  0.59379085922E+02 -0.60794069465E+00  0.22586231271E+02  0.63532537175E+02  0.00000000000E+00 0.  1.
         11    1    4    4    0    0 -0.26170146664E+02 -0.33111394901E+02  0.18666297542E+02  0.46148366305E+02  0.00000000000E+00 0. -1.
        -13    1    3    3    0    0  0.20766046698E+02 -0.61881221262E+01  0.57547456054E+02  0.61491716916E+02  0.00000000000E+00 0.  1.
         13    1    3    3    0    0 -0.72550733472E+02  0.60984592671E+02  0.24498972576E+03  0.26268364091E+03  0.00000000000E+00 0. -1.
          3    1    1    2  501    0  0.18575747515E+02 -0.21077134950E+02 -0.19475118490E+02  0.34184561627E+02  0.00000000000E+00 0. -1.
<scales pt_clust_5="13000.00000" pt_clust_6="13000.00000" pt_clust_7="13000.00000" pt_clust_8="13000.00000" pt_clust_9="28.09455"></scales>
<clustering>
<clus scale="   28.095">  2  9  1 -1</clus>
<clus scale="   88.750">  7  8 -1 -1</clus>
<clus scale="   89.935">  5  6 -1 -1</clus>
<clus scale="  112.202">  1  7  2 -1</clus>
<clus scale="   28.095">  2  5  1 -1</clus>
</clustering>
</event>
<event>
 9    1  0.1399746E-005  0.1320657E+03  0.7546771E-02  0.1226440E+00
         21   -1    0    0  501  502  0.00000000000E+00  0.00000000000E+00  0.32661812618E+03  0.32661812618E+03  0.00000000000E+00 0.  1.
          1   -1    0    0  502    0 -0.00000000000E+00 -0.00000000000E+00 -0.11566928256E+03  0.11566928256E+03  0.00000000000E+00 0. -1.
         23    2    1    2    0    0 -0.80913871235E+02  0.19722101683E+02 -0.23583013642E+02  0.12536905564E+03  0.90693030197E+02 0.  0.
         23    2    1    2    0    0  0.11562661184E+03 -0.57086288942E+01  0.23468858287E+03  0.27948339160E+03  0.98133243309E+02 0.  0.
        -11    1    4    4    0    0  0.11822602626E+03  0.21261118651E+02  0.21394139598E+03  0.24535759488E+03  0.00000000000E+00 0.  1.
         11    1    4    4    0    0 -0.25994144179E+01 -0.26969747545E+02  0.20747186882E+02  0.34125796716E+02  0.00000000000E+00 0. -1.
        -11    1    3    3    0    0 -0.34976381829E+02 -0.36483345575E+02 -0.95935226171E+01  0.51443342294E+02  0.00000000000E+00 0.  1.
         11    1    3    3    0    0 -0.45937489405E+02  0.56205447258E+02 -0.13989491024E+02  0.73925713344E+02  0.00000000000E+00 0. -1.
          1    1    1    2  501    0 -0.34712740606E+02 -0.14013472789E+02 -0.15672561004E+00  0.37434961505E+02  0.00000000000E+00 0. -1.
<scales pt_clust_5="13000.00000" pt_clust_6="13000.00000" pt_clust_7="13000.00000" pt_clust_8="13000.00000" pt_clust_9="37.43465"></scales>
<clustering>
<clus scale="   37.435">  1  9  2 -1</clus>
<clus scale="   90.693">  7  8 -1 -1</clus>
<clus scale="   98.133">  5  6 -1 -1</clus>
<clus scale="  126.635">  2  7  1 -1</clus>
<clus scale="   37.435">  1  5  2 -1</clus>
</clustering>
</event>
<event>
 9    1  0.1399746E-005  0.1214209E+03  0.7546771E-02  0.1240943E+00
         21   -1    0    0  501  502  0.00000000000E+00  0.00000000000E+00  0.83043694999E+02  0.83043694999E+02  0.00000000000E+00 0. -1.
          1   -1    0    0  502    0 -0.00000000000E+00 -0.00000000000E+00 -0.45472250833E+03  0.45472250833E+03  0.00000000000E+00 0. -1.
         23    2    1    2    0    0 -0.50008085263E+02  0.79522802410E+02 -0.24571558986E+03  0.27835079685E+03  0.90985330187E+02 0.  0.
         23    2    1    2    0    0  0.81729464666E+02  0.13931750850E+02 -0.43951973247E+02  0.13109609928E+03  0.91545683780E+02 0.  0.
        -11    1    3    3    0    0 -0.32560873897E+02  0.96986641350E+02 -0.22042321969E+03  0.24300826095E+03  0.00000000000E+00 0. -1.
         11    1    3    3    0    0 -0.17447211366E+02 -0.17463838940E+02 -0.25292370170E+02  0.35342535900E+02  0.00000000000E+00 0.  1.
        -13    1    4    4    0    0 -0.19905424648E+02  0.24402649184E+01 -0.14205275421E+02  0.24575814800E+02  0.00000000000E+00 0.  1.
         13    1    4    4    0    0  0.10163488931E+03  0.11491485932E+02 -0.29746697826E+02  0.10652028448E+03  0.00000000000E+00 0. -1.
          1    1    1    2  501    0 -0.31721379403E+02 -0.93454553261E+02 -0.82011250221E+02  0.12831930720E+03  0.00000000000E+00 0. -1.
<scales pt_clust_5="13000.00000" pt_clust_6="13000.00000" pt_clust_7="13000.00000" pt_clust_8="13000.00000" pt_clust_9="98.69144"></scales>
<clustering>
<clus scale="   90.985">  5  6 -1 -1</clus>
<clus scale="   91.546">  7  8 -1 -1</clus>
<clus scale="   98.691">  1  9  2 -1</clus>
<clus scale="  120.999">  2  5  1 -1</clus>
<clus scale="   98.691">  1  5  2 -1</clus>
</clustering>
</event>
<event>
 9    1  0.1399746E-005  0.1262478E+03  0.7546771E-02  0.1235696E+00
         21   -1    0    0  501  502  0.00000000000E+00  0.00000000000E+00  0.68841782906E+03  0.68841782906E+03  0.00000000000E+00 0.  1.
         -3   -1    0    0    0  501 -0.00000000000E+00 -0.00000000000E+00 -0.67957655808E+02  0.67957655808E+02  0.00000000000E+00 0.  1.
         23    2    1    2    0    0  0.63643556169E+02  0.33432556044E+02  0.19677344682E+02  0.12412358334E+03  0.99253352601E+02 0.  0.
         23    2    1    2    0    0 -0.95695064268E+02 -0.46906963436E+02  0.31983489932E+03  0.34916075406E+03  0.90890377962E+02 0.  0.
        -13    1    4    4    0    0 -0.34344176668E+02 -0.17542817970E+02  0.23589757066E+02  0.45207848564E+02  0.00000000000E+00 0.  1.
         13    1    4    4    0    0 -0.61350887600E+02 -0.29364145466E+02  0.29624514226E+03  0.30395290550E+03  0.00000000000E+00 0. -1.
        -13    1    3    3    0    0  0.27562699089E+02  0.36231489608E+02 -0.35780675265E+02  0.57902331065E+02  0.00000000000E+00 0.  1.
         13    1    3    3    0    0  0.36080857080E+02 -0.27989335639E+01  0.55458019948E+02  0.66221252278E+02  0.00000000000E+00 0. -1.
         -3    1    1    2    0  502  0.32051508098E+02  0.13474407393E+02  0.28094792925E+03  0.28309114747E+03  0.00000000000E+00 0.  1.
<scales pt_clust_5="13000.00000" pt_clust_6="13000.00000" pt_clust_7="13000.00000" pt_clust_8="13000.00000" pt_clust_9="34.76865"></scales>
<clustering>
<clus scale="   34.769">  1  9  2 -1</clus>
<clus scale="   90.890">  5  6 -1 -1</clus>
<clus scale="   99.253">  7  8 -1 -1</clus>
<clus scale="  119.785">  1  5  2 -1</clus>
<clus scale="   34.769">  1  5  2 -1</clus>
</clustering>
</event>
<event>
 9    1  0.1399746E-005  0.1197647E+03  0.7546771E-02  0.1243858E+00
          2   -1    0    0  502    0 -0.00000000000E+00  0.00000000000E+00  0.29916722247E+03  0.29916722247E+03  0.00000000000E+00 0. -1.
         21   -1    0    0  501  502  0.00000000000E+00 -0.00000000000E+00 -0.11061478238E+03  0.11061478238E+03  0.00000000000E+00 0.  1.
         23    2    1    2    0    0  0.41970534598E+02  0.50955456357E+02  0.99742991472E+02  0.15070534074E+03  0.91681247120E+02 0.  0.
         23    2    1    2    0    0 -0.91848344708E+02 -0.22054213257E+02  0.13204100108E+03  0.18702081825E+03  0.92841013276E+02 0.  0.
        -11    1    4    4    0    0 -0.21322135659E+02  0.35380812023E+02  0.45857270075E+02  0.61719725755E+02  0.00000000000E+00 0. -1.
         11    1    4    4    0    0 -0.70526209048E+02 -0.57435025279E+02  0.86183731003E+02  0.12530109250E+03  0.00000000000E+00 0.  1.
        -13    1    3    3    0    0  0.15389940234E+01  0.27617836514E+02 -0.11582523471E+02  0.29987801625E+02  0.00000000000E+00 0.  1.
         13    1    3    3    0    0  0.40431540574E+02  0.23337619842E+02  0.11132551494E+03  0.12071753912E+03  0.00000000000E+00 0. -1.
          2    1    1    2  501    0  0.49877810110E+02 -0.28901243100E+02 -0.43231552463E+02  0.72055845859E+02  0.00000000000E+00 0. -1.
<scales pt_clust_5="13000.00000" pt_clust_6="13000.00000" pt_clust_7="13000.00000" pt_clust_8="13000.00000" pt_clust_9="57.64614"></scales>
<clustering>
<clus scale="   57.646">  2  9  1 -1</clus>
<clus scale="   91.681">  7  8 -1 -1</clus>
<clus scale="   92.841">  5  6 -1 -1</clus>
<clus scale="  118.868">  1  7  2 -1</clus>
<clus scale="   57.646">  2  5  1 -1</clus>
</clustering>
</event>
<event>
 9    1  0.1399746E-005  0.1415681E+03  0.7546771E-02  0.1211418E+00
         21   -1    0    0  501  502  0.00000000000E+00  0.00000000000E+00  0.11805458728E+03  0.11805458728E+03  0.00000000000E+00 0. -1.
          2   -1    0    0  502    0 -0.00000000000E+00 -0.00000000000E+00 -0.44743347357E+03  0.44743347357E+03  0.00000000000E+00 0. -1.
         23    2    1    2    0    0 -0.35868145775E+02  0.10496296960E+03 -0.19119278170E+03  0.23897917695E+03  0.90843923151E+02 0.  0.
         23    2    1    2    0    0 -0.28556186039E+02 -0.11215118034E+03 -0.19248283489E+03  0.24194943838E+03  0.89980809033E+02 0.  0.
        -11    1    4    4    0    0 -0.50675189895E+02 -0.29291669441E+02 -0.57665141685E+02  0.82165962144E+02  0.00000000000E+00 0.  1.
         11    1    4    4    0    0  0.22119003857E+02 -0.82859510900E+02 -0.13481769320E+03  0.15978347624E+03  0.00000000000E+00 0. -1.
        -13    1    3    3    0    0 -0.17030378163E+02  0.27271760694E+02 -0.44366308555E+00  0.32155552377E+02  0.00000000000E+00 0.  1.
         13    1    3    3    0    0 -0.18837767612E+02  0.77691208905E+02 -0.19074911862E+03  0.20682362457E+03  0.00000000000E+00 0. -1.
          2    1    1    2  501    0  0.64424331814E+02  0.71882107410E+01  0.54296730306E+02  0.84559445511E+02  0.00000000000E+00 0. -1.
<scales pt_clust_5="13000.00000" pt_clust_6="13000.00000" pt_clust_7="13000.00000" pt_clust_8="13000.00000" pt_clust_9="64.82411"></scales>
<clustering>
<clus scale="   64.824">  1  9  2 -1</clus>
<clus scale="   89.981">  5  6 -1 -1</clus>
<clus scale="   90.844">  7  8 -1 -1</clus>
<clus scale="  141.016">  1  5  2 -1</clus>
<clus scale="   64.824">  1  5  2 -1</clus>
</clustering>
</event>
<event>
 9    1  0.1399746E-005  0.9823024E+02  0.7546771E-02  0.1284622E+00
         21   -1    0    0  501  502  0.00000000000E+00  0.00000000000E+00  0.54735004413E+02  0.54735004413E+02  0.00000000000E+00 0. -1.
         -4   -1    0    0    0  501 -0.00000000000E+00 -0.00000000000E+00 -0.33801255574E+03  0.33801255574E+03  0.00000000000E+00 0.  1.
         23    2    1    2    0    0  0.16332937051E+02 -0.22346708686E+02 -0.19780824349E+03  0.22008961263E+03  0.92440230289E+02 0.  0.
         23    2    1    2    0    0 -0.38325885624E+02  0.24325048363E+02 -0.10262746694E+03  0.14469357664E+03  0.91341407167E+02 0.  0.
        -11    1    3    3    0    0  0.28508685318E+01 -0.51911952147E+02 -0.16847305073E+03  0.17631264007E+03  0.00000000000E+00 0.  1.
         11    1    3    3    0    0  0.13482068519E+02  0.29565243462E+02 -0.29335192758E+02  0.43776972562E+02  0.00000000000E+00 0. -1.
        -11    1    4    4    0    0 -0.15882182314E+02 -0.33675431381E+02 -0.54736879053E+02  0.66199730530E+02  0.00000000000E+00 0.  1.
         11    1    4    4    0    0 -0.22443703310E+02  0.58000479744E+02 -0.47890587888E+02  0.78493846109E+02  0.00000000000E+00 0. -1.
         -4    1    1    2    0  502  0.21992948573E+02 -0.19783396770E+01  0.17158159103E+02  0.27964370879E+02  0.00000000000E+00 0.  1.
<scales pt_clust_5="13000.00000" pt_clust_6="13000.00000" pt_clust_7="13000.00000" pt_clust_8="13000.00000" pt_clust_9="22.08175"></scales>
<clustering>
<clus scale="   22.082">  1  9  2 -1</clus>
<clus scale="   91.341">  7  8 -1 -1</clus>
<clus scale="   92.440">  5  6 -1 -1</clus>
<clus scale="   97.197">  1  7  2 -1</clus>
<clus scale="   22.082">  1  5  2 -1</clus>
</clustering>
</event>
<event>
 9    1  0.1399746E-005  0.1916743E+03  0.7546771E-02  0.1157019E+00
          3   -1    0    0  502    0 -0.00000000000E+00  0.00000000000E+00  0.56577808225E+03  0.56577808225E+03  0.00000000000E+00 0. -1.
         21   -1    0    0  501  502  0.00000000000E+00 -0.00000000000E+00 -0.13368839324E+03  0.13368839324E+03  0.00000000000E+00 0.  1.
         23    2    1    2    0    0 -0.13760815790E+03  0.95446385783E+02  0.26685341081E+03  0.32817460617E+03  0.91879331716E+02 0.  0.
         23    2    1    2    0    0  0.14990422626E+03 -0.79536522048E+02  0.23198066392E+03  0.30158440857E+03  0.91327934785E+02 0.  0.
        -11    1    4    4    0    0  0.62660131030E+02 -0.66683708619E+02  0.63369719518E+02  0.11130467361E+03  0.00000000000E+00 0.  1.
         11    1    4    4    0    0  0.87244095226E+02 -0.12852813429E+02  0.16861094440E+03  0.19027973496E+03  0.00000000000E+00 0. -1.
        -13    1    3    3    0    0 -0.61784401865E+02  0.97001893397E+02  0.16755226887E+03  0.20322510288E+03  0.00000000000E+00 0.  1.
         13    1    3    3    0    0 -0.75823756033E+02 -0.15555076140E+01  0.99301141931E+02  0.12494950329E+03  0.00000000000E+00 0. -1.
          3    1    1    2  501    0 -0.12296068358E+02 -0.15909863734E+02 -0.66744385713E+02  0.69707460758E+02  0.00000000000E+00 0. -1.
<scales pt_clust_5="13000.00000" pt_clust_6="13000.00000" pt_clust_7="13000.00000" pt_clust_8="13000.00000" pt_clust_9="20.10764"></scales>
<clustering>
<clus scale="   20.108">  2  9  1 -1</clus>
<clus scale="   91.328">  5  6 -1 -1</clus>
<clus scale="   91.879">  7  8 -1 -1</clus>
<clus scale="  191.411">  2  5  1 -1</clus>
<clus scale="   20.108">  2  5  1 -1</clus>
</clustering>
</event>
<event>
 9    1  0.1399746E-005  0.1008954E+03  0.7546771E-02  0.1278916E+00
         -1   -1    0    0    0  501 -0.00000000000E+00  0.00000000000E+00  0.13977646606E+03  0.13977646606E+03  0.00000000000E+00 0.  1.
         21   -1    0    0  501  502  0.00000000000E+00 -0.00000000000E+00 -0.14055999056E+03  0.14055999056E+03  0.00000000000E+00 0. -1.
         23    2    1    2    0    0 -0.10165219021E+02  0.50827603899E+02  0.13322633983E+02  0.10826862247E+03  0.94116019032E+02 0.  0.
         23    2    1    2    0    0  0.28913957597E+01 -0.84474837553E+01 -0.58453877469E+02  0.11029645513E+03  0.93106025971E+02 0.  0.
        -11    1    3    3    0    0  0.32406145682E+02  0.24647965062E+02 -0.22744096638E+02  0.46636620713E+02  0.00000000000E+00 0.  1.
         11    1    3    3    0    0 -0.42571364703E+02  0.26179638837E+02  0.36066730621E+02  0.61632001752E+02  0.00000000000E+00 0. -1.
        -13    1    4    4    0    0  0.36557626930E+02 -0.18996403499E+02  0.94579266437E+00  0.41209440137E+02  0.00000000000E+00 0.  1.
         13    1    4    4    0    0 -0.33666231170E+02  0.10548919744E+02 -0.59399670133E+02  0.69087014995E+02  0.00000000000E+00 0. -1.
         -1    1    1    2    0  502  0.72738232613E+01 -0.42380120144E+02  0.44347718982E+02  0.61771379029E+02  0.00000000000E+00 0.  1.
<scales pt_clust_5="13000.00000" pt_clust_6="13000.00000" pt_clust_7="13000.00000" pt_clust_8="13000.00000" pt_clust_9="42.99982"></scales>
<clustering>
<clus scale="   43.000">  2  9  1 -1</clus>
<clus scale="   93.106">  7  8 -1 -1</clus>
<clus scale="   94.116">  5  6 -1 -1</clus>
<clus scale="   99.954">  2  7  1 -1</clus>
<clus scale="   43.000">  2  5  1 -1</clus>
</clustering>
</event>
<event>
 9    1  0.1399746E-005  0.3220052E+03  0.7546771E-02  0.1074911E+00
          3   -1    0    0  502    0 -0.00000000000E+00  0.00000000000E+00  0.21846363968E+03  0.21846363968E+03  0.00000000000E+00 0. -1.
         21   -1    0    0  501  502  0.00000000000E+00 -0.00000000000E+00 -0.17205344452E+04  0.17205344452E+04  0.00000000000E+00 0. -1.
         23    2    1    2    0    0 -0.38247617578E+02  0.25279679464E+03 -0.11154953737E+03  0.29461861409E+03  0.94803633092E+02 0.  0.
         23    2    1    2    0    0 -0.13826260603E+03 -0.44626370294E+03 -0.40517904879E+03  0.62482829852E+03  0.89288858524E+02 0.  0.
        -11    1    4    4    0    0 -0.98890432618E+01 -0.45745006102E+02 -0.10305964711E+02  0.47922976415E+02  0.00000000000E+00 0.  1.
         11    1    4    4    0    0 -0.12837356277E+03 -0.40051869684E+03 -0.39487308408E+03  0.57690532210E+03  0.00000000000E+00 0. -1.
        -11    1    3    3    0    0 -0.70031365564E+02  0.16727320166E+03 -0.70350371862E+02  0.19450935961E+03  0.00000000000E+00 0. -1.
         11    1    3    3    0    0  0.31783747986E+02  0.85523592980E+02 -0.41199165508E+02  0.10010925447E+03  0.00000000000E+00 0.  1.
          3    1    1    2  501    0  0.17651022361E+03  0.19346690830E+03 -0.98534221936E+03  0.10195511723E+04  0.00000000000E+00 0. -1.
<scales pt_clust_5="13000.00000" pt_clust_6="13000.00000" pt_clust_7="13000.00000" pt_clust_8="13000.00000" pt_clust_9="261.88796"></scales>
<clustering>
<clus scale="   89.289">  5  6 -1 -1</clus>
<clus scale="   94.804">  7  8 -1 -1</clus>
<clus scale="  261.888">  2  9  1 -1</clus>
<clus scale="  320.425">  2  5  1 -1</clus>
<clus scale="  261.888">  2  5  1 -1</clus>
</clustering>
</event>
<event>
 9    1  0.1399746E-005  0.1179891E+03  0.7546771E-02  0.1246927E+00
         21   -1    0    0  501  502  0.00000000000E+00  0.00000000000E+00  0.45901554739E+03  0.45901554739E+03  0.00000000000E+00 0.  1.
         -1   -1    0    0    0  501 -0.00000000000E+00 -0.00000000000E+00 -0.61286470571E+02  0.61286470571E+02  0.00000000000E+00 0.  1.
         23    2    1    2    0    0 -0.28139940120E+02 -0.51536378965E+02  0.73286999671E+02  0.13059024563E+03  0.90746753920E+02 0.  0.
         23    2    1    2    0    0  0.88133732521E+02  0.58821099408E+02  0.15184098114E+03  0.20683623919E+03  0.92184975695E+02 0.  0.
        -13    1    3    3    0    0  0.13913625188E+02 -0.52660301149E+02  0.11222051312E+02  0.55611426152E+02  0.00000000000E+00 0.  1.
         13    1    3    3    0    0 -0.42053565307E+02  0.11239221839E+01  0.62064948359E+02  0.74978819482E+02  0.00000000000E+00 0. -1.
        -13    1    4    4    0    0  0.72197585712E+02  0.72252715189E+02  0.15512970752E+03  0.18573683638E+03  0.00000000000E+00 0.  1.
         13    1    4    4    0    0  0.15936146809E+02 -0.13431615782E+02 -0.32887263748E+01  0.21099402806E+02  0.00000000000E+00 0. -1.
         -1    1    1    2    0  502 -0.59993792401E+02 -0.72847204424E+01  0.17260109601E+03  0.18287553314E+03  0.00000000000E+00 0.  1.
<scales pt_clust_5="13000.00000" pt_clust_6="13000.00000" pt_clust_7="13000.00000" pt_clust_8="13000.00000" pt_clust_9="60.43445"></scales>
<clustering>
<clus scale="   60.434">  1  9  2 -1</clus>
<clus scale="   90.747">  5  6 -1 -1</clus>
<clus scale="   92.185">  7  8 -1 -1</clus>
<clus scale="  116.869">  2  5  1 -1</clus>
<clus scale="   60.434">  1  5  2 -1</clus>
</clustering>
</event>
<event>
 9    1  0.1399746E-005  0.1060741E+03  0.7546771E-02  0.1269018E+00
         21   -1    0    0  501  502  0.00000000000E+00  0.00000000000E+00  0.57755290732E+02  0.57755290732E+02  0.00000000000E+00 0. -1.
          1   -1    0    0  502    0 -0.00000000000E+00 -0.00000000000E+00 -0.26275821800E+03  0.26275821800E+03  0.00000000000E+00 0. -1.
         23    2    1    2    0    0  0.16554502959E+02  0.54597569395E+02 -0.13556487584E+03  0.17457604859E+03  0.94042623459E+02 0.  0.
         23    2    1    2    0    0 -0.59325680725E+00 -0.39683693148E+02 -0.73039877320E+02  0.12379794268E+03  0.91738538671E+02 0.  0.
        -13    1    3    3    0    0 -0.22578113706E+02  0.63521144302E+00  0.10023313518E+01  0.22609276420E+02  0.00000000000E+00 0.  1.
         13    1    3    3    0    0  0.39132616665E+02  0.53962357952E+02 -0.13656720720E+03  0.15196677217E+03  0.00000000000E+00 0. -1.
        -13    1    4    4    0    0  0.39687441790E+02 -0.43087622549E+02 -0.51467218496E+02  0.77977630334E+02  0.00000000000E+00 0. -1.
         13    1    4    4    0    0 -0.40280698597E+02  0.34039294010E+01 -0.21572658824E+02  0.45820312347E+02  0.00000000000E+00 0.  1.
          1    1    1    2  501    0 -0.15961246152E+02 -0.14913876247E+02  0.36018258989E+01  0.22139517457E+02  0.00000000000E+00 0. -1.
<scales pt_clust_5="13000.00000" pt_clust_6="13000.00000" pt_clust_7="13000.00000" pt_clust_8="13000.00000" pt_clust_9="21.84457"></scales>
<clustering>
<clus scale="   21.845">  1  9  2 -1</clus>
<clus scale="   91.739">  7  8 -1 -1</clus>
<clus scale="   94.043">  5  6 -1 -1</clus>
<clus scale="  104.037">  1  7  2 -1</clus>
<clus scale="   21.845">  1  5  2 -1</clus>
</clustering>
</event>
<event>
 9    1  0.1399746E-005  0.1489421E+03  0.7546771E-02  0.1202496E+00
          1   -1    0    0  502    0 -0.00000000000E+00  0.00000000000E+00  0.91681573407E+03  0.91681573407E+03  0.00000000000E+00 0. -1.
         21   -1    0    0  501  502  0.00000000000E+00 -0.00000000000E+00 -0.35858078626E+02  0.35858078626E+02  0.00000000000E+00 0. -1.
         23    2    1    2    0    0 -0.97821632122E+02  0.62076459888E+02  0.52125746098E+03  0.54244935369E+03  0.95495560658E+02 0.  0.
         23    2    1    2    0    0  0.10418591022E+03 -0.41327432691E+02  0.18910064599E+03  0.23824994896E+03  0.91876674332E+02 0.  0.
        -13    1    4    4    0    0  0.43696880471E+02 -0.50156780479E+02  0.41282360290E+02  0.78290186243E+02  0.00000000000E+00 0. -1.
         13    1    4    4    0    0  0.60489029748E+02  0.88293477879E+01  0.14781828570E+03  0.15995976272E+03  0.00000000000E+00 0.  1.
        -13    1    3    3    0    0 -0.10539141457E+03  0.31786541987E+02  0.46747943089E+03  0.48026529421E+03  0.00000000000E+00 0. -1.
         13    1    3    3    0    0  0.75697824507E+01  0.30289917901E+02  0.53778030094E+02  0.62184059481E+02  0.00000000000E+00 0.  1.
          1    1    1    2  501    0 -0.63642780967E+01 -0.20749027197E+02  0.17059954847E+03  0.17197451004E+03  0.00000000000E+00 0. -1.
<scales pt_clust_5="13000.00000" pt_clust_6="13000.00000" pt_clust_7="13000.00000" pt_clust_8="13000.00000" pt_clust_9="21.70315"></scales>
<clustering>
<clus scale="   21.703">  2  9  1 -1</clus>
<clus scale="   91.877">  5  6 -1 -1</clus>
<clus scale="   95.496">  7  8 -1 -1</clus>
<clus scale="  146.648">  2  5  1 -1</clus>
<clus scale="   21.703">  2  5  1 -1</clus>
</clustering>
</event>
<event>
 9    1  0.1399746E-005  0.9716219E+02  0.7546771E-02  0.1286903E+00
          1   -1    0    0  502    0 -0.00000000000E+00  0.00000000000E+00  0.32796724116E+03  0.32796724116E+03  0.00000000000E+00 0. -1.
         21   -1    0    0  501  502  0.00000000000E+00 -0.00000000000E+00 -0.40445507320E+02  0.40445507320E+02  0.00000000000E+00 0.  1.
         23    2    1    2    0    0  0.57952202774E+00  0.35882304473E+02  0.19635451902E+03  0.21953325100E+03  0.91388596308E+02 0.  0.
         23    2    1    2    0    0  0.18631043350E+02 -0.25500834969E+02  0.71421934325E+02  0.11943978225E+03  0.90373450303E+02 0.  0.
        -11    1    4    4    0    0 -0.24729249839E+02 -0.86212057921E+01 -0.80068749546E+01  0.27385599015E+02  0.00000000000E+00 0. -1.
         11    1    4    4    0    0  0.43360293188E+02 -0.16879629177E+02  0.79428809280E+02  0.92054183230E+02  0.00000000000E+00 0.  1.
        -13    1    3    3    0    0  0.11750192486E+02 -0.29270773034E+02  0.74539414798E+02  0.80938059873E+02  0.00000000000E+00 0.  1.
         13    1    3    3    0    0 -0.11170670459E+02  0.65153077507E+02  0.12181510422E+03  0.13859519113E+03  0.00000000000E+00 0. -1.
          1    1    1    2  501    0 -0.19210565377E+02 -0.10381469504E+02  0.19745280492E+02  0.29439715231E+02  0.00000000000E+00 0. -1.
<scales pt_clust_5="13000.00000" pt_clust_6="13000.00000" pt_clust_7="13000.00000" pt_clust_8="13000.00000" pt_clust_9="21.83623"></scales>
<clustering>
<clus scale="   21.836">  2  9  1 -1</clus>
<clus scale="   90.373">  5  6 -1 -1</clus>
<clus scale="   91.389">  7  8 -1 -1</clus>
<clus scale="   96.208">  2  5  1 -1</clus>
<clus scale="   21.836">  2  5  1 -1</clus>
</clustering>
</event>
<event>
 9    1  0.1399746E-005  0.1150536E+03  0.7546771E-02  0.1252170E+00
         -3   -1    0    0    0  501 -0.00000000000E+00  0.00000000000E+00  0.54594723937E+02  0.54594723937E+02  0.00000000000E+00 0.  1.
         21   -1    0    0  501  502  0.00000000000E+00 -0.00000000000E+00 -0.51822870627E+03  0.51822870627E+03  0.00000000000E+00 0.  1.
         23    2    1    2    0    0 -0.61413829277E+02 -0.17118490072E+01 -0.37077476655E+02  0.11676081287E+03  0.92107324858E+02 0.  0.
         23    2    1    2    0    0  0.84656366135E+02  0.11926748790E+02 -0.28220822199E+03  0.30949868351E+03  0.94015992631E+02 0.  0.
        -11    1    3    3    0    0 -0.16615398311E+02  0.15102979157E+02  0.28059255920E+02  0.35937352201E+02  0.00000000000E+00 0. -1.
         11    1    3    3    0    0 -0.44798430966E+02 -0.16814828164E+02 -0.65136732575E+02  0.80823460665E+02  0.00000000000E+00 0.  1.
        -13    1    4    4    0    0  0.35628113223E+02 -0.14330132033E+02 -0.23813363496E+02  0.45186186130E+02  0.00000000000E+00 0.  1.
         13    1    4    4    0    0  0.49028252912E+02  0.26256880823E+02 -0.25839485849E+03  0.26431249738E+03  0.00000000000E+00 0. -1.
         -3    1    1    2    0  502 -0.23242536858E+02 -0.10214899783E+02 -0.14434828369E+03  0.14656393384E+03  0.00000000000E+00 0.  1.
<scales pt_clust_5="13000.00000" pt_clust_6="13000.00000" pt_clust_7="13000.00000" pt_clust_8="13000.00000" pt_clust_9="25.38818"></scales>
<clustering>
<clus scale="   25.388">  2  9  1 -1</clus>
<clus scale="   92.107">  5  6 -1 -1</clus>
<clus scale="   94.016">  7  8 -1 -1</clus>
<clus scale="  113.499">  1  5  2 -1</clus>
<clus scale="   25.388">  2  5  1 -1</clus>
</clustering>
</event>
<event>
 9    1  0.1399746E-005  0.1723307E+03  0.7546771E-02  0.1179886E+00
         21   -1    0    0  501  502  0.00000000000E+00  0.00000000000E+00  0.66343186934E+03  0.66343186934E+03  0.00000000000E+00 0.  1.
          1   -1    0    0  502    0 -0.00000000000E+00 -0.00000000000E+00 -0.13940855564E+03  0.13940855564E+03  0.00000000000E+00 0. -1.
         23    2    1    2    0    0  0.14100398830E+01 -0.12794874600E+03 -0.38175269725E+02  0.16283300321E+03  0.93189945270E+02 0.  0.
         23    2    1    2    0    0  0.89506199345E+02  0.10707254603E+03  0.22502598979E+03  0.29016897881E+03  0.11868213997E+03 0.  0.
        -11    1    3    3    0    0  0.30737164554E+02 -0.12500955988E+03 -0.28937615517E+02  0.13194524978E+03  0.00000000000E+00 0. -1.
         11    1    3    3    0    0 -0.29327124671E+02 -0.29391861129E+01 -0.92376542078E+01  0.30887753426E+02  0.00000000000E+00 0.  1.
        -11    1    4    4    0    0 -0.19351046037E+02  0.55347209301E+02  0.46809966871E+02  0.75026325770E+02  0.00000000000E+00 0. -1.
         11    1    4    4    0    0  0.10885724538E+03  0.51725336731E+02  0.17821602292E+03  0.21514265304E+03  0.00000000000E+00 0.  1.
          1    1    1    2  501    0 -0.90916239228E+02  0.20876199966E+02  0.33717259363E+03  0.34983844297E+03  0.00000000000E+00 0. -1.
<scales pt_clust_5="13000.00000" pt_clust_6="13000.00000" pt_clust_7="13000.00000" pt_clust_8="13000.00000" pt_clust_9="93.28225"></scales>
<clustering>
<clus scale="   93.190">  5  6 -1 -1</clus>
<clus scale="   93.282">  1  9  2 -1</clus>
<clus scale="  118.682">  7  8 -1 -1</clus>
<clus scale="  155.874">  2  5  1 -1</clus>
<clus scale="   93.282">  1  5  2 -1</clus>
</clustering>
</event>
<event>
 9    1  0.1399746E-005  0.9537129E+02  0.7546771E-02  0.1292257E+00
          3   -1    0    0  502    0 -0.00000000000E+00  0.00000000000E+00  0.20545959648E+03  0.20545959648E+03  0.00000000000E+00 0. -1.
         21   -1    0    0  501  502  0.00000000000E+00 -0.00000000000E+00 -0.33530185045E+03  0.33530185045E+03  0.00000000000E+00 0. -1.
         23    2    1    2    0    0  0.95478567239E+01 -0.40605606899E+02  0.86583260046E+02  0.12985647538E+03  0.87327351944E+02 0.  0.
         23    2    1    2    0    0  0.23774252394E+02  0.14857690266E+02  0.72097758479E+02  0.11932479915E+03  0.90853480278E+02 0.  0.
        -13    1    3    3    0    0  0.86582552795E+01  0.25676418618E+02  0.41957742811E+02  0.49946932231E+02  0.00000000000E+00 0. -1.
         13    1    3    3    0    0  0.88960144441E+00 -0.66282025517E+02  0.44625517236E+02  0.79909543146E+02  0.00000000000E+00 0.  1.
        -13    1    4    4    0    0  0.52996116737E+02  0.34345738388E+01  0.70018897916E+02  0.87880775782E+02  0.00000000000E+00 0. -1.
         13    1    4    4    0    0 -0.29221864343E+02  0.11423116427E+02  0.20788605636E+01  0.31444023373E+02  0.00000000000E+00 0.  1.
          3    1    1    2  501    0 -0.33322109118E+02  0.25747916632E+02 -0.28852327250E+03  0.29158017240E+03  0.00000000000E+00 0. -1.
<scales pt_clust_5="13000.00000" pt_clust_6="13000.00000" pt_clust_7="13000.00000" pt_clust_8="13000.00000" pt_clust_9="42.11078"></scales>
<clustering>
<clus scale="   42.111">  2  9  1 -1</clus>
<clus scale="   87.327">  5  6 -1 -1</clus>
<clus scale="   90.853">  7  8 -1 -1</clus>
<clus scale="   92.018">  1  5  2 -1</clus>
<clus scale="   42.111">  2  5  1 -1</clus>
</clustering>
</event>
<event>
 9    1  0.1399746E-005  0.9381111E+02  0.7546771E-02  0.1295000E+00
         21   -1    0    0  501  502  0.00000000000E+00  0.00000000000E+00  0.10753024102E+03  0.10753024102E+03  0.00000000000E+00 0. -1.
         -3   -1    0    0    0  501 -0.00000000000E+00 -0.00000000000E+00 -0.14080234536E+03  0.14080234536E+03  0.00000000000E+00 0.  1.
         23    2    1    2    0    0  0.54461830748E+01 -0.13854243678E+02 -0.59105214051E+02  0.10929822100E+03  0.90725265545E+02 0.  0.
         23    2    1    2    0    0  0.22671974736E+01  0.48307471970E+02  0.22914670809E+02  0.10360784332E+03  0.88717253265E+02 0.  0.
        -13    1    4    4    0    0 -0.36725336370E+02 -0.27006382823E+01  0.91490386739E+01  0.37944020442E+02  0.00000000000E+00 0.  1.
         13    1    4    4    0    0  0.38992533844E+02  0.51008110252E+02  0.13765632135E+02  0.65663822880E+02  0.00000000000E+00 0. -1.
        -13    1    3    3    0    0  0.38292565064E+02  0.10262434879E+02 -0.55753772776E+02  0.68411411968E+02  0.00000000000E+00 0.  1.
         13    1    3    3    0    0 -0.32846381989E+02 -0.24116678557E+02 -0.33514412756E+01  0.40886809034E+02  0.00000000000E+00 0. -1.
         -3    1    1    2    0  502 -0.77133805484E+01 -0.34453228292E+02  0.29184389115E+01  0.35426522055E+02  0.00000000000E+00 0.  1.
<scales pt_clust_5="13000.00000" pt_clust_6="13000.00000" pt_clust_7="13000.00000" pt_clust_8="13000.00000" pt_clust_9="35.30611"></scales>
<clustering>
<clus scale="   35.306">  1  9  2 -1</clus>
<clus scale="   88.717">  5  6 -1 -1</clus>
<clus scale="   90.725">  7  8 -1 -1</clus>
<clus scale="   91.871">  1  5  2 -1</clus>
<clus scale="   35.306">  1  5  2 -1</clus>
</clustering>
</event>
<event>
 9    1  0.1399746E-005  0.9559402E+02  0.7546771E-02  0.1290953E+00
         21   -1    0    0  501  502  0.00000000000E+00  0.00000000000E+00  0.18273719095E+03  0.18273719095E+03  0.00000000000E+00 0.  1.
          1   -1    0    0  502    0 -0.00000000000E+00 -0.00000000000E+00 -0.11807143455E+03  0.11807143455E+03  0.00000000000E+00 0. -1.
         23    2    1    2    0    0  0.11687563400E+01 -0.33656471197E+02 -0.16745232433E+02  0.99411699991E+02  0.92022601795E+02 0.  0.
         23    2    1    2    0    0 -0.30959956673E+02  0.69643824832E+01 -0.15400458842E+02  0.96647512051E+02  0.89980808579E+02 0.  0.
        -11    1    4    4    0    0  0.26196060905E+02  0.32225036654E+01 -0.27487735828E+02  0.38107660092E+02  0.00000000000E+00 0. -1.
         11    1    4    4    0    0 -0.57156017578E+02  0.37418788178E+01  0.12087276985E+02  0.58539851959E+02  0.00000000000E+00 0.  1.
        -13    1    3    3    0    0 -0.28909212697E+02 -0.50122358768E+02  0.61391995221E+01  0.58186623875E+02  0.00000000000E+00 0.  1.
         13    1    3    3    0    0  0.30077969037E+02  0.16465887571E+02 -0.22884431955E+02  0.41225076116E+02  0.00000000000E+00 0. -1.
          1    1    1    2  501    0  0.29791200333E+02  0.26692088714E+02  0.96811447678E+02  0.10474941345E+03  0.00000000000E+00 0. -1.
<scales pt_clust_5="13000.00000" pt_clust_6="13000.00000" pt_clust_7="13000.00000" pt_clust_8="13000.00000" pt_clust_9="39.99979"></scales>
<clustering>
<clus scale="   40.000">  1  9  2 -1</clus>
<clus scale="   89.981">  5  6 -1 -1</clus>
<clus scale="   92.023">  7  8 -1 -1</clus>
<clus scale="   93.630">  1  5  2 -1</clus>
<clus scale="   40.000">  1  5  2 -1</clus>
</clustering>
</event>
<event>
 9    1  0.1399746E-005  0.9754385E+02  0.7546771E-02  0.1296156E+00
         21   -1    0    0  501  502  0.00000000000E+00  0.00000000000E+00  0.75871395880E+02  0.75871395880E+02  0.00000000000E+00 0.  1.
         -3   -1    0    0    0  501 -0.00000000000E+00 -0.00000000000E+00 -0.24579675207E+03  0.24579675207E+03  0.00000000000E+00 0.  1.
         23    2    1    2    0    0 -0.13513015201E+01 -0.27266348683E+01 -0.15294267681E+03  0.18120898133E+03  0.97138931300E+02 0.  0.
         23    2    1    2    0    0 -0.23948710218E+02  0.43030715387E+01 -0.51380797332E+02  0.97729712308E+02  0.79492472521E+02 0.  0.
        -11    1    4    4    0    0 -0.10378814826E+02  0.40421602121E+02 -0.39233703909E+02  0.57279221692E+02  0.00000000000E+00 0.  1.
         11    1    4    4    0    0 -0.13569895393E+02 -0.36118530583E+02 -0.12147093423E+02  0.40450490616E+02  0.00000000000E+00 0. -1.
        -13    1    3    3    0    0  0.34033140482E+02 -0.36019951596E+01 -0.12595760293E+02  0.36467549926E+02  0.00000000000E+00 0. -1.
         13    1    3    3    0    0 -0.35384442002E+02  0.87536029131E+00 -0.14034691651E+03  0.14474143141E+03  0.00000000000E+00 0.  1.
         -3    1    1    2    0  502  0.25300011738E+02 -0.15764366704E+01  0.34398117952E+02  0.42729454304E+02  0.00000000000E+00 0.  1.
<scales pt_clust_5="13000.00000" pt_clust_6="13000.00000" pt_clust_7="13000.00000" pt_clust_8="13000.00000" pt_clust_9="25.34908"></scales>
<clustering>
<clus scale="   25.349">  1  9  2 -1</clus>
<clus scale="   79.492">  5  6 -1 -1</clus>
<clus scale="   79.987">  1  5  2 -1</clus>
<clus scale="   97.139">  7  8 -1 -1</clus>
<clus scale="   25.349">  1  5  2 -1</clus>
</clustering>
</event>
<event>
 9    1  0.1399746E-005  0.1109618E+03  0.7546771E-02  0.1261585E+00
         21   -1    0    0  501  502  0.00000000000E+00  0.00000000000E+00  0.84888479880E+02  0.84888479880E+02  0.00000000000E+00 0. -1.
         -2   -1    0    0    0  501 -0.00000000000E+00 -0.00000000000E+00 -0.35366785346E+03  0.35366785346E+03  0.00000000000E+00 0.  1.
         23    2    1    2    0    0 -0.41463981065E+02 -0.41403036558E+02 -0.26405050688E+03  0.28520447992E+03  0.90473487966E+02 0.  0.
         23    2    1    2    0    0  0.26132599179E+02  0.24647516587E+02 -0.40215488117E+02  0.11121992943E+03  0.97273708700E+02 0.  0.
        -11    1    3    3    0    0 -0.63300279545E+01 -0.49478507872E+02 -0.23090915768E+03  0.23623554156E+03  0.00000000000E+00 0.  1.
         11    1    3    3    0    0 -0.35133953111E+02  0.80754713133E+01 -0.33141349200E+02  0.48968938368E+02  0.00000000000E+00 0. -1.
        -13    1    4    4    0    0  0.46684521029E+02 -0.43058384958E+01 -0.55424337693E+02  0.72593677118E+02  0.00000000000E+00 0.  1.
         13    1    4    4    0    0 -0.20551921850E+02  0.28953355083E+02  0.15208849576E+02  0.38626252312E+02  0.00000000000E+00 0. -1.
         -2    1    1    2    0  502  0.15331381887E+02  0.16755519972E+02  0.35486621410E+02  0.42131923991E+02  0.00000000000E+00 0.  1.
<scales pt_clust_5="13000.00000" pt_clust_6="13000.00000" pt_clust_7="13000.00000" pt_clust_8="13000.00000" pt_clust_9="22.71120"></scales>
<clustering>
<clus scale="   22.711">  1  9  2 -1</clus>
<clus scale="   90.473">  5  6 -1 -1</clus>
<clus scale="   97.274">  7  8 -1 -1</clus>
<clus scale="  105.051">  2  5  1 -1</clus>
<clus scale="   22.711">  1  5  2 -1</clus>
</clustering>
</event>
<event>
 9    1  0.1399746E-005  0.1814337E+03  0.7546771E-02  0.1170121E+00
         21   -1    0    0  501  502  0.00000000000E+00  0.00000000000E+00  0.43571414714E+02  0.43571414714E+02  0.00000000000E+00 0. -1.
          1   -1    0    0  502    0 -0.00000000000E+00 -0.00000000000E+00 -0.10024145259E+04  0.10024145259E+04  0.00000000000E+00 0. -1.
         23    2    1    2    0    0  0.15401287148E+03 -0.19589181779E+01 -0.60967592224E+03  0.63940555164E+03  0.11580555844E+03 0.  0.
         23    2    1    2    0    0 -0.11742933613E+03  0.40752138365E+02 -0.27561482412E+03  0.31573315807E+03  0.90958837205E+02 0.  0.
        -11    1    4    4    0    0 -0.11493479687E+02 -0.17304072550E+02 -0.10283031119E+03  0.10490759697E+03  0.00000000000E+00 0.  1.
         11    1    4    4    0    0 -0.10593585644E+03  0.58056210915E+02 -0.17278451293E+03  0.21082556110E+03  0.00000000000E+00 0. -1.
        -11    1    3    3    0    0  0.15676932145E+03  0.30733214563E+02 -0.51474298522E+03  0.53896334890E+03  0.00000000000E+00 0. -1.
         11    1    3    3    0    0 -0.27564499720E+01 -0.32692132741E+02 -0.94932937026E+02  0.10044220274E+03  0.00000000000E+00 0.  1.
          1    1    1    2  501    0 -0.36583535352E+02 -0.38793220187E+02 -0.73552364828E+02  0.90847230905E+02  0.00000000000E+00 0. -1.
<scales pt_clust_5="13000.00000" pt_clust_6="13000.00000" pt_clust_7="13000.00000" pt_clust_8="13000.00000" pt_clust_9="53.32231"></scales>
<clustering>
<clus scale="   53.322">  1  9  2 -1</clus>
<clus scale="   90.959">  5  6 -1 -1</clus>
<clus scale="  115.806">  7  8 -1 -1</clus>
<clus scale="  166.676">  1  5  2 -1</clus>
<clus scale="   53.322">  1  5  2 -1</clus>
</clustering>
</event>
<event>
 9    1  0.1399746E-005  0.9825201E+02  0.7546771E-02  0.1284083E+00
         21   -1    0    0  501  502  0.00000000000E+00  0.00000000000E+00  0.28373967947E+02  0.28373967947E+02  0.00000000000E+00 0. -1.
          1   -1    0    0  502    0 -0.00000000000E+00 -0.00000000000E+00 -0.47706069114E+03  0.47706069114E+03  0.00000000000E+00 0. -1.
         23    2    1    2    0    0  0.21818910469E+02 -0.16400538369E+02 -0.21435288675E+03  0.23469428208E+03  0.91592595074E+02 0.  0.
         23    2    1    2    0    0 -0.25139722212E+02  0.36942516743E+02 -0.22665149845E+03  0.24855887608E+03  0.91727084071E+02 0.  0.
        -11    1    3    3    0    0  0.53614958153E+02  0.22712029277E+01 -0.88003665720E+02  0.10307457145E+03  0.00000000000E+00 0.  1.
         11    1    3    3    0    0 -0.31796047684E+02 -0.18671741297E+02 -0.12634922103E+03  0.13161971063E+03  0.00000000000E+00 0. -1.
        -13    1    4    4    0    0 -0.54939723174E+02  0.25037032834E+02 -0.19227786154E+03  0.20153412176E+03  0.00000000000E+00 0. -1.
         13    1    4    4    0    0  0.29800000962E+02  0.11905483909E+02 -0.34373636915E+02  0.47024754323E+02  0.00000000000E+00 0.  1.
          1    1    1    2  501    0  0.33208117429E+01 -0.20541978374E+02 -0.76823379939E+01  0.22181500923E+02  0.00000000000E+00 0. -1.
<scales pt_clust_5="13000.00000" pt_clust_6="13000.00000" pt_clust_7="13000.00000" pt_clust_8="13000.00000" pt_clust_9="20.80867"></scales>
<clustering>
<clus scale="   20.809">  1  9  2 -1</clus>
<clus scale="   91.593">  5  6 -1 -1</clus>
<clus scale="   91.727">  7  8 -1 -1</clus>
<clus scale="   98.126">  2  5  1 -1</clus>
<clus scale="   20.809">  1  5  2 -1</clus>
</clustering>
</event>
<event>
 9    1  0.1399746E-005  0.9686260E+02  0.7546771E-02  0.1288563E+00
         21   -1    0    0  501  502  0.00000000000E+00  0.00000000000E+00  0.28731647980E+03  0.28731647980E+03  0.00000000000E+00 0. -1.
         -4   -1    0    0    0  501 -0.00000000000E+00 -0.00000000000E+00 -0.74178388304E+02  0.74178388304E+02  0.00000000000E+00 0.  1.
         23    2    1    2    0    0 -0.28150757349E+01  0.29825530833E+02 -0.19143085836E+02  0.98134646443E+02  0.91468377904E+02 0.  0.
         23    2    1    2    0    0 -0.16360957484E+02 -0.41048774508E+02  0.16395598594E+03  0.19151306983E+03  0.88560757500E+02 0.  0.
        -11    1    3    3    0    0  0.22691642454E+02 -0.10861480483E+02  0.23117686602E+02  0.34165916194E+02  0.00000000000E+00 0. -1.
         11    1    3    3    0    0 -0.25506718189E+02  0.40687011316E+02 -0.42260772438E+02  0.63968730249E+02  0.00000000000E+00 0.  1.
        -11    1    4    4    0    0  0.10811737916E+02  0.23983835554E+02  0.64099079738E+02  0.69287878218E+02  0.00000000000E+00 0.  1.
         11    1    4    4    0    0 -0.27172695399E+02 -0.65032610062E+02  0.99856906205E+02  0.12222519161E+03  0.00000000000E+00 0. -1.
         -4    1    1    2    0  502  0.19176033219E+02  0.11223243675E+02  0.68325191384E+02  0.71847151831E+02  0.00000000000E+00 0.  1.
<scales pt_clust_5="13000.00000" pt_clust_6="13000.00000" pt_clust_7="13000.00000" pt_clust_8="13000.00000" pt_clust_9="22.21894"></scales>
<clustering>
<clus scale="   22.219">  1  9  2 -1</clus>
<clus scale="   88.561">  7  8 -1 -1</clus>
<clus scale="   91.468">  5  6 -1 -1</clus>
<clus scale="   94.122">  1  7  2 -1</clus>
<clus scale="   22.219">  1  5  2 -1</clus>
</clustering>
</event>
<event>
 9    1  0.1399746E-005  0.9331601E+02  0.7546771E-02  0.1295442E+00
         21   -1    0    0  501  502  0.00000000000E+00  0.00000000000E+00  0.12051335327E+03  0.12051335327E+03  0.00000000000E+00 0.  1.
         -1   -1    0    0    0  501 -0.00000000000E+00 -0.00000000000E+00 -0.43053689257E+03  0.43053689257E+03  0.00000000000E+00 0.  1.
         23    2    1    2    0    0 -0.18897511421E+02  0.22791310961E+02 -0.30648574969E+03  0.32081973293E+03  0.90084551834E+02 0.  0.
         23    2    1    2    0    0 -0.48311668598E+01 -0.42489512634E+01 -0.96395539236E+02  0.13261170867E+03  0.90842564539E+02 0.  0.
        -11    1    3    3    0    0 -0.49790885841E+02  0.15580996102E+02 -0.25548522675E+03  0.26075774359E+03  0.00000000000E+00 0. -1.
         11    1    3    3    0    0  0.30893374420E+02  0.72103148586E+01 -0.51000522936E+02  0.60061989337E+02  0.00000000000E+00 0.  1.
        -13    1    4    4    0    0 -0.59200721890E+01  0.41744783763E+02 -0.29640634289E+02  0.51538737152E+02  0.00000000000E+00 0.  1.
         13    1    4    4    0    0  0.10889053292E+01 -0.45993735026E+02 -0.66754904948E+02  0.81072971520E+02  0.00000000000E+00 0. -1.
         -1    1    1    2    0  502  0.23728678281E+02 -0.18542359697E+02  0.92857749631E+02  0.97618804247E+02  0.00000000000E+00 0.  1.
<scales pt_clust_5="13000.00000" pt_clust_6="13000.00000" pt_clust_7="13000.00000" pt_clust_8="13000.00000" pt_clust_9="30.11427"></scales>
<clustering>
<clus scale="   30.114">  1  9  2 -1</clus>
<clus scale="   90.085">  5  6 -1 -1</clus>
<clus scale="   90.843">  7  8 -1 -1</clus>
<clus scale="   92.578">  2  5  1 -1</clus>
<clus scale="   30.114">  1  5  2 -1</clus>
</clustering>
</event>
<event>
 9    1  0.1399746E-005  0.1110248E+03  0.7546771E-02  0.1265407E+00
         21   -1    0    0  501  502  0.00000000000E+00  0.00000000000E+00  0.36802653336E+03  0.36802653336E+03  0.00000000000E+00 0. -1.
         -2   -1    0    0    0  501 -0.00000000000E+00 -0.00000000000E+00 -0.39885083278E+02  0.39885083278E+02  0.00000000000E+00 0.  1.
         23    2    1    2    0    0 -0.73294789630E+01  0.19773728477E+02  0.81315937298E+02  0.12727835694E+03  0.95617869079E+02 0.  0.
         23    2    1    2    0    0 -0.13722270896E+02 -0.14815660375E+02  0.19677707567E+03  0.22611166151E+03  0.10953292405E+03 0.  0.
        -11    1    4    4    0    0 -0.52251267155E+02  0.19702161527E+02  0.72612045569E+02  0.91601742613E+02  0.00000000000E+00 0. -1.
         11    1    4    4    0    0  0.38528996259E+02 -0.34517821902E+02  0.12416503010E+03  0.13450991890E+03  0.00000000000E+00 0.  1.
        -13    1    3    3    0    0  0.26475428192E+02  0.21076496815E+02  0.86656275524E+02  0.93029442133E+02  0.00000000000E+00 0. -1.
         13    1    3    3    0    0 -0.33804907155E+02 -0.13027683374E+01 -0.53403382261E+01  0.34248914807E+02  0.00000000000E+00 0.  1.
         -2    1    1    2    0  502  0.21051749859E+02 -0.49580681019E+01  0.50048437112E+02  0.54521598186E+02  0.00000000000E+00 0.  1.
<scales pt_clust_5="13000.00000" pt_clust_6="13000.00000" pt_clust_7="13000.00000" pt_clust_8="13000.00000" pt_clust_9="21.62773"></scales>
<clustering>
<clus scale="   21.628">  1  9  2 -1</clus>
<clus scale="   95.618">  7  8 -1 -1</clus>
<clus scale="   97.323">  2  7  1 -1</clus>
<clus scale="  109.533">  5  6 -1 -1</clus>
<clus scale="   21.628">  1  5  2 -1</clus>
</clustering>
</event>
<event>
 9    1  0.1399746E-005  0.9903062E+02  0.7546771E-02  0.1284787E+00
          2   -1    0    0  502    0 -0.00000000000E+00  0.00000000000E+00  0.74358363437E+03  0.74358363437E+03  0.00000000000E+00 0. -1.
         21   -1    0    0  501  502  0.00000000000E+00 -0.00000000000E+00 -0.37972224814E+02  0.37972224814E+02  0.00000000000E+00 0. -1.
         23    2    1    2    0    0  0.37169869241E+02 -0.65884189225E+01  0.49290831510E+03  0.50322249504E+03  0.94070537236E+02 0.  0.
         23    2    1    2    0    0 -0.16221201766E+02 -0.33080752473E+02  0.21252613133E+03  0.23347223237E+03  0.89355823651E+02 0.  0.
        -11    1    3    3    0    0 -0.28797137654E+02 -0.18379462066E+02  0.18118307557E+03  0.18437566714E+03  0.00000000000E+00 0.  1.
         11    1    3    3    0    0  0.65967006896E+02  0.11791043143E+02  0.31172523953E+03  0.31884682789E+03  0.00000000000E+00 0. -1.
        -13    1    4    4    0    0 -0.12524957687E+02  0.24945892288E+02  0.26194947761E+02  0.38279856260E+02  0.00000000000E+00 0.  1.
         13    1    4    4    0    0 -0.36962440792E+01 -0.58026644760E+02  0.18633118357E+03  0.19519237611E+03  0.00000000000E+00 0. -1.
          2    1    1    2  501    0 -0.20948667475E+02  0.39669171395E+02  0.17696313037E+00  0.44861131775E+02  0.00000000000E+00 0. -1.
<scales pt_clust_5="13000.00000" pt_clust_6="13000.00000" pt_clust_7="13000.00000" pt_clust_8="13000.00000" pt_clust_9="44.86078"></scales>
<clustering>
<clus scale="   44.861">  2  9  1 -1</clus>
<clus scale="   89.356">  7  8 -1 -1</clus>
<clus scale="   94.071">  5  6 -1 -1</clus>
<clus scale="   94.564">  2  7  1 -1</clus>
<clus scale="   44.861">  2  5  1 -1</clus>
</clustering>
</event>
<event>
 9    1  0.1399746E-005  0.1062145E+03  0.7546771E-02  0.1268509E+00
          2   -1    0    0  502    0 -0.00000000000E+00  0.00000000000E+00  0.58033235351E+03  0.58033235351E+03  0.00000000000E+00 0. -1.
         21   -1    0    0  501  502  0.00000000000E+00 -0.00000000000E+00 -0.39549655276E+02  0.39549655276E+02  0.00000000000E+00 0. -1.
         23    2    1    2    0    0  0.39705719946E+02  0.32775049076E+02  0.43783076665E+03  0.45034355561E+03  0.91993422692E+02 0.  0.
         23    2    1    2    0    0 -0.57674116556E+02 -0.22013399787E+02  0.10045747529E+03  0.14844583161E+03  0.90186291035E+02 0.  0.
        -11    1    4    4    0    0 -0.33944328928E+02  0.11016739422E+02  0.10167592752E+03  0.10775704270E+03  0.00000000000E+00 0.  1.
         11    1    4    4    0    0 -0.23729787628E+02 -0.33030139209E+02 -0.12184522365E+01  0.40688788909E+02  0.00000000000E+00 0. -1.
        -13    1    3    3    0    0 -0.20986642649E+02 -0.59150248606E+01  0.35774463810E+02  0.41895571958E+02  0.00000000000E+00 0. -1.
         13    1    3    3    0    0  0.60692362596E+02  0.38690073936E+02  0.40205630284E+03  0.40844798365E+03  0.00000000000E+00 0.  1.
          2    1    1    2  501    0  0.17968396609E+02 -0.10761649288E+02  0.24944562954E+01  0.21092621561E+02  0.00000000000E+00 0. -1.
<scales pt_clust_5="13000.00000" pt_clust_6="13000.00000" pt_clust_7="13000.00000" pt_clust_8="13000.00000" pt_clust_9="20.94460"></scales>
<clustering>
<clus scale="   20.945">  2  9  1 -1</clus>
<clus scale="   90.186">  5  6 -1 -1</clus>
<clus scale="   91.993">  7  8 -1 -1</clus>
<clus scale="  104.653">  2  5  1 -1</clus>
<clus scale="   20.945">  2  5  1 -1</clus>
</clustering>
</event>
<event>
 9    1  0.1399746E-005  0.1083380E+03  0.7546771E-02  0.1264115E+00
         21   -1    0    0  501  502  0.00000000000E+00  0.00000000000E+00  0.16317443763E+03  0.16317443763E+03  0.00000000000E+00 0.  1.
         -3   -1    0    0    0  501 -0.00000000000E+00 -0.00000000000E+00 -0.23731299887E+03  0.23731299887E+03  0.00000000000E+00 0.  1.
         23    2    1    2    0    0  0.51035155013E+02  0.60637586070E+02 -0.11552257637E+03  0.16786909247E+03  0.92482769552E+02 0.  0.
         23    2    1    2    0    0 -0.20146365831E+02 -0.27023558147E+02 -0.64822361938E+02  0.11701637735E+03  0.91404295354E+02 0.  0.
        -11    1    3    3    0    0  0.28400428856E+02  0.83048562197E+02 -0.97832946113E+02  0.13143414087E+03  0.00000000000E+00 0.  1.
         11    1    3    3    0    0  0.22634726157E+02 -0.22410976127E+02 -0.17689630259E+02  0.36434951597E+02  0.00000000000E+00 0. -1.
        -13    1    4    4    0    0 -0.54103848959E+02 -0.10776179845E+02 -0.20469053249E+02  0.58841606582E+02  0.00000000000E+00 0. -1.
         13    1    4    4    0    0  0.33957483127E+02 -0.16247378302E+02 -0.44353308689E+02  0.58174770766E+02  0.00000000000E+00 0.  1.
         -3    1    1    2    0  502 -0.30888789181E+02 -0.33614027923E+02  0.10620637707E+03  0.11560196668E+03  0.00000000000E+00 0.  1.
<scales pt_clust_5="13000.00000" pt_clust_6="13000.00000" pt_clust_7="13000.00000" pt_clust_8="13000.00000" pt_clust_9="45.65107"></scales>
<clustering>
<clus scale="   45.651">  1  9  2 -1</clus>
<clus scale="   91.404">  7  8 -1 -1</clus>
<clus scale="   92.483">  5  6 -1 -1</clus>
<clus scale="  107.419">  1  7  2 -1</clus>
<clus scale="   45.651">  1  5  2 -1</clus>
</clustering>
</event>
<event>
 9    1  0.1399746E-005  0.1192112E+03  0.7546771E-02  0.1244886E+00
         -2   -1    0    0    0  501 -0.00000000000E+00  0.00000000000E+00  0.10284260315E+03  0.10284260315E+03  0.00000000000E+00 0.  1.
         21   -1    0    0  501  502  0.00000000000E+00 -0.00000000000E+00 -0.31256650213E+03  0.31256650213E+03  0.00000000000E+00 0. -1.
         23    2    1    2    0    0  0.30873871716E+02 -0.69852882553E+02  0.30753098962E+02  0.12332034871E+03  0.91812494543E+02 0.  0.
         23    2    1    2    0    0 -0.45696593112E+02  0.53210248490E+02 -0.11222989296E+03  0.16191959635E+03  0.93289322216E+02 0.  0.
        -11    1    4    4    0    0 -0.21395802222E+02  0.58816470059E+02 -0.12038385600E+03  0.13568135572E+03  0.00000000000E+00 0. -1.
         11    1    4    4    0    0 -0.24300790891E+02 -0.56062215696E+01  0.81539630366E+01  0.26238240631E+02  0.00000000000E+00 0.  1.
        -13    1    3    3    0    0  0.59733334803E+02 -0.62478170896E+02  0.34954931207E+02  0.93238620436E+02  0.00000000000E+00 0.  1.
         13    1    3    3    0    0 -0.28859463087E+02 -0.73747116567E+01 -0.42018322449E+01  0.30081728273E+02  0.00000000000E+00 0. -1.
         -2    1    1    2    0  502  0.14822721396E+02  0.16642634063E+02 -0.12824710498E+03  0.13016916023E+03  0.00000000000E+00 0.  1.
<scales pt_clust_5="13000.00000" pt_clust_6="13000.00000" pt_clust_7="13000.00000" pt_clust_8="13000.00000" pt_clust_9="22.28655"></scales>
<clustering>
<clus scale="   22.287">  2  9  1 -1</clus>
<clus scale="   91.812">  7  8 -1 -1</clus>
<clus scale="   93.289">  5  6 -1 -1</clus>
<clus scale="  118.059">  1  7  2 -1</clus>
<clus scale="   22.287">  2  5  1 -1</clus>
</clustering>
</event>
<event>
 9    1  0.1399746E-005  0.9991088E+02  0.7546771E-02  0.1281406E+00
         21   -1    0    0  501  502  0.00000000000E+00  0.00000000000E+00  0.79699225424E+02  0.79699225424E+02  0.00000000000E+00 0. -1.
          1   -1    0    0  502    0 -0.00000000000E+00 -0.00000000000E+00 -0.47808919196E+03  0.47808919196E+03  0.00000000000E+00 0. -1.
         23    2    1    2    0    0 -0.13833866529E+02 -0.60224409193E+02 -0.32088545609E+03  0.33894217980E+03  0.89977608268E+02 0.  0.
         23    2    1    2    0    0  0.10812703876E+02 -0.58126124072E+01 -0.11110628021E+03  0.14469035733E+03  0.91869434377E+02 0.  0.
        -11    1    3    3    0    0 -0.46367749046E+02 -0.56317546427E+02 -0.17842483796E+03  0.19276165850E+03  0.00000000000E+00 0.  1.
         11    1    3    3    0    0  0.32533882517E+02 -0.39068627660E+01 -0.14246061813E+03  0.14618052130E+03  0.00000000000E+00 0. -1.
        -13    1    4    4    0    0  0.10952698787E+02  0.26726157221E+02  0.35350439012E-01  0.28883392116E+02  0.00000000000E+00 0.  1.
         13    1    4    4    0    0 -0.13999491026E+00 -0.32538769628E+02 -0.11114163065E+03  0.11580696521E+03  0.00000000000E+00 0. -1.
          1    1    1    2  501    0  0.30211626531E+01  0.66037021600E+02  0.33601769767E+02  0.74155880259E+02  0.00000000000E+00 0. -1.
<scales pt_clust_5="13000.00000" pt_clust_6="13000.00000" pt_clust_7="13000.00000" pt_clust_8="13000.00000" pt_clust_9="66.10609"></scales>
<clustering>
<clus scale="   66.106">  1  9  2 -1</clus>
<clus scale="   89.978">  5  6 -1 -1</clus>
<clus scale="   91.869">  7  8 -1 -1</clus>
<clus scale="   98.174">  2  5  1 -1</clus>
<clus scale="   66.106">  1  5  2 -1</clus>
</clustering>
</event>
<event>
 9    1  0.1399746E-005  0.1352321E+03  0.7546771E-02  0.1220453E+00
          1   -1    0    0  502    0 -0.00000000000E+00  0.00000000000E+00  0.77070598045E+02  0.77070598045E+02  0.00000000000E+00 0. -1.
         21   -1    0    0  501  502  0.00000000000E+00 -0.00000000000E+00 -0.38134005052E+03  0.38134005052E+03  0.00000000000E+00 0.  1.
         23    2    1    2    0    0  0.10246931562E+03  0.11693540640E+02 -0.22112590231E+02  0.13659056854E+03  0.86783162137E+02 0.  0.
         23    2    1    2    0    0 -0.97771778455E+02  0.91026977065E+01 -0.25335380928E+03  0.28598481465E+03  0.89201915707E+02 0.  0.
        -11    1    3    3    0    0  0.81401406213E+02 -0.12807081206E+02 -0.47842874559E+02  0.95284578545E+02  0.00000000000E+00 0.  1.
         11    1    3    3    0    0  0.21067909403E+02  0.24500621846E+02  0.25730284328E+02  0.41305989990E+02  0.00000000000E+00 0. -1.
        -11    1    4    4    0    0 -0.41723148169E+02 -0.28415096013E+02 -0.17723520137E+03  0.18428389886E+03  0.00000000000E+00 0.  1.
         11    1    4    4    0    0 -0.56048630286E+02  0.37517793719E+02 -0.76118607916E+02  0.10170091580E+03  0.00000000000E+00 0. -1.
          1    1    1    2  501    0 -0.46975371616E+01 -0.20796238347E+02 -0.28803052960E+02  0.35835265376E+02  0.00000000000E+00 0. -1.
<scales pt_clust_5="13000.00000" pt_clust_6="13000.00000" pt_clust_7="13000.00000" pt_clust_8="13000.00000" pt_clust_9="21.32019"></scales>
<clustering>
<clus scale="   21.320">  2  9  1 -1</clus>
<clus scale="   86.783">  5  6 -1 -1</clus>
<clus scale="   89.202">  7  8 -1 -1</clus>
<clus scale="  133.649">  1  5  2 -1</clus>
<clus scale="   21.320">  2  5  1 -1</clus>
</clustering>
</event>
<event>
 9    1  0.1399746E-005  0.1291287E+03  0.7546771E-02  0.1244470E+00
          1   -1    0    0  502    0 -0.00000000000E+00  0.00000000000E+00  0.31464651908E+03  0.31464651908E+03  0.00000000000E+00 0. -1.
         21   -1    0    0  501  502  0.00000000000E+00 -0.00000000000E+00 -0.94058353993E+02  0.94058353993E+02  0.00000000000E+00 0. -1.
         23    2    1    2    0    0 -0.13507525862E+02 -0.19611669028E+02 -0.34112955580E+01  0.93736537266E+02  0.90597078674E+02 0.  0.
         23    2    1    2    0    0  0.33127922264E+02 -0.76074901490E+02  0.12939138580E+03  0.17898463253E+03  0.91697972119E+02 0.  0.
        -11    1    4    4    0    0  0.47057094501E+01 -0.80877330997E+02  0.12622413822E+03  0.14998606415E+03  0.00000000000E+00 0. -1.
         11    1    4    4    0    0  0.28422212814E+02  0.48024295073E+01  0.31672475795E+01  0.28998568372E+02  0.00000000000E+00 0.  1.
        -13    1    3    3    0    0  0.34164816702E+02 -0.28125172060E+01  0.18144770707E+02  0.38786307601E+02  0.00000000000E+00 0.  1.
         13    1    3    3    0    0 -0.47672342564E+02 -0.16799151822E+02 -0.21556066265E+02  0.54950229666E+02  0.00000000000E+00 0. -1.
          1    1    1    2  501    0 -0.19620396401E+02  0.95686570517E+02  0.94608074840E+02  0.13598370328E+03  0.00000000000E+00 0. -1.
<scales pt_clust_5="13000.00000" pt_clust_6="13000.00000" pt_clust_7="13000.00000" pt_clust_8="13000.00000" pt_clust_9="90.91600"></scales>
<clustering>
<clus scale="   90.597">  7  8 -1 -1</clus>
<clus scale="   91.698">  5  6 -1 -1</clus>
<clus scale="   93.674">  1  7  2 -1</clus>
<clus scale="   90.916">  2  9  1 -1</clus>
<clus scale="   90.916">  2  5  1 -1</clus>
</clustering>
</event>
<event>
 9    1  0.1399746E-005  0.1171910E+03  0.7546771E-02  0.1255317E+00
          2   -1    0    0  502    0 -0.00000000000E+00  0.00000000000E+00  0.15871019504E+03  0.15871019504E+03  0.00000000000E+00 0. -1.
         21   -1    0    0  501  502  0.00000000000E+00 -0.00000000000E+00 -0.17269421202E+03  0.17269421202E+03  0.00000000000E+00 0. -1.
         23    2    1    2    0    0 -0.38587420668E+01  0.57419771920E+02  0.79478092067E+02  0.13117149551E+03  0.87047538842E+02 0.  0.
         23    2    1    2    0    0  0.42559718545E+02 -0.24707376634E+02 -0.32316476823E+02  0.12081846245E+03  0.10550337479E+03 0.  0.
        -11    1    3    3    0    0 -0.34358882407E+02  0.37819174581E+02  0.89551145128E+01  0.51875011731E+02  0.00000000000E+00 0.  1.
         11    1    3    3    0    0  0.30500140340E+02  0.19600597339E+02  0.70522977554E+02  0.79296483780E+02  0.00000000000E+00 0. -1.
        -13    1    4    4    0    0 -0.34501400794E+02  0.17077612253E+01 -0.14304216253E+02  0.37388149296E+02  0.00000000000E+00 0. -1.
         13    1    4    4    0    0  0.77061119339E+02 -0.26415137860E+02 -0.18012260571E+02  0.83430313153E+02  0.00000000000E+00 0.  1.
          2    1    1    2  501    0 -0.38700976479E+02 -0.32712395286E+02 -0.61145632224E+02  0.79414449099E+02  0.00000000000E+00 0. -1.
<scales pt_clust_5="13000.00000" pt_clust_6="13000.00000" pt_clust_7="13000.00000" pt_clust_8="13000.00000" pt_clust_9="50.67412"></scales>
<clustering>
<clus scale="   50.674">  2  9  1 -1</clus>
<clus scale="   87.048">  5  6 -1 -1</clus>
<clus scale="  100.896">  1  5  2 -1</clus>
<clus scale="  105.503">  7  8 -1 -1</clus>
<clus scale="   50.674">  2  5  1 -1</clus>
</clustering>
</event>
<event>
 9    1  0.1399746E-005  0.1046376E+03  0.7546771E-02  0.1272191E+00
          1   -1    0    0  502    0 -0.00000000000E+00  0.00000000000E+00  0.27734568626E+03  0.27734568626E+03  0.00000000000E+00 0. -1.
         21   -1    0    0  501  502  0.00000000000E+00 -0.00000000000E+00 -0.62822901918E+02  0.62822901918E+02  0.00000000000E+00 0. -1.
         23    2    1    2    0    0 -0.33807441971E+02  0.29926728334E+01  0.10316517100E+03  0.14178032022E+03  0.91141140389E+02 0.  0.
         23    2    1    2    0    0  0.58230077205E+02 -0.12021198952E+01  0.12765304724E+03  0.16897377565E+03  0.94152267117E+02 0.  0.
        -11    1    3    3    0    0  0.88087682390E-02 -0.26480459065E+02  0.91747413658E+02  0.95492422228E+02  0.00000000000E+00 0. -1.
         11    1    3    3    0    0 -0.33816250739E+02  0.29473131899E+02  0.11417757342E+02  0.46287897994E+02  0.00000000000E+00 0.  1.
        -13    1    4    4    0    0  0.81624109477E+01  0.33417141997E+02  0.89053227206E+01  0.35533577142E+02  0.00000000000E+00 0.  1.
         13    1    4    4    0    0  0.50067666258E+02 -0.34619261893E+02  0.11874772452E+03  0.13344019851E+03  0.00000000000E+00 0. -1.
          1    1    1    2  501    0 -0.24422635234E+02 -0.17905529382E+01 -0.16295433901E+02  0.29414492306E+02  0.00000000000E+00 0. -1.
<scales pt_clust_5="13000.00000" pt_clust_6="13000.00000" pt_clust_7="13000.00000" pt_clust_8="13000.00000" pt_clust_9="24.48818"></scales>
<clustering>
<clus scale="   24.488">  2  9  1 -1</clus>
<clus scale="   91.141">  5  6 -1 -1</clus>
<clus scale="   94.152">  7  8 -1 -1</clus>
<clus scale="  101.937">  1  5  2 -1</clus>
<clus scale="   24.488">  2  5  1 -1</clus>
</clustering>
</event>
<event>
 9    1  0.1399746E-005  0.1134809E+03  0.7546771E-02  0.1256371E+00
         21   -1    0    0  501  502  0.00000000000E+00  0.00000000000E+00  0.33157742136E+03  0.33157742136E+03  0.00000000000E+00 0.  1.
         -3   -1    0    0    0  501 -0.00000000000E+00 -0.00000000000E+00 -0.98433202967E+02  0.98433202967E+02  0.00000000000E+00 0.  1.
         23    2    1    2    0    0 -0.36262888936E+02 -0.76745872785E+02 -0.83365829107E+01  0.12823637907E+03  0.95760869868E+02 0.  0.
         23    2    1    2    0    0  0.11390026306E+02  0.23679816305E+02  0.60992399659E+02  0.11200931495E+03  0.90197269476E+02 0.  0.
        -11    1    3    3    0    0  0.35014373692E+01  0.21256793506E+02 -0.63330544703E+01  0.22454819365E+02  0.00000000000E+00 0. -1.
         11    1    3    3    0    0 -0.39764326305E+02 -0.98002666291E+02 -0.20035284404E+01  0.10578155970E+03  0.00000000000E+00 0.  1.
        -13    1    4    4    0    0 -0.36948914051E+02 -0.56264038556E+01  0.22618829925E+02  0.43686269434E+02  0.00000000000E+00 0. -1.
         13    1    4    4    0    0  0.48338940358E+02  0.29306220160E+02  0.38373569734E+02  0.68323045520E+02  0.00000000000E+00 0.  1.
         -3    1    1    2    0  502  0.24872862630E+02  0.53066056480E+02  0.18048840165E+03  0.18976493031E+03  0.00000000000E+00 0.  1.
<scales pt_clust_5="13000.00000" pt_clust_6="13000.00000" pt_clust_7="13000.00000" pt_clust_8="13000.00000" pt_clust_9="58.60602"></scales>
<clustering>
<clus scale="   58.606">  1  9  2 -1</clus>
<clus scale="   90.197">  7  8 -1 -1</clus>
<clus scale="   95.761">  5  6 -1 -1</clus>
<clus scale="  108.827">  1  7  2 -1</clus>
<clus scale="   58.606">  1  5  2 -1</clus>
</clustering>
</event>
<event>
 9    1  0.1399746E-005  0.1344212E+03  0.7546771E-02  0.1221156E+00
          1   -1    0    0  502    0 -0.00000000000E+00  0.00000000000E+00  0.58970278491E+03  0.58970278491E+03  0.00000000000E+00 0. -1.
         21   -1    0    0  501  502  0.00000000000E+00 -0.00000000000E+00 -0.12743326331E+03  0.12743326331E+03  0.00000000000E+00 0. -1.
         23    2    1    2    0    0  0.32678730097E+02 -0.96895808695E+02  0.47488214628E+03  0.49456649988E+03  0.92877730411E+02 0.  0.
         23    2    1    2    0    0  0.11812743547E+02  0.83286254660E+02  0.58196657463E+02  0.13784254188E+03  0.92398995051E+02 0.  0.
        -11    1    4    4    0    0  0.47031778462E+02  0.73240012264E+02  0.49756758209E+02  0.10025877802E+03  0.00000000000E+00 0.  1.
         11    1    4    4    0    0 -0.35219034916E+02  0.10046242395E+02  0.84398992540E+01  0.37583763863E+02  0.00000000000E+00 0. -1.
        -13    1    3    3    0    0 -0.24432242686E+02 -0.68416501355E+02  0.21412151327E+03  0.22611009395E+03  0.00000000000E+00 0.  1.
         13    1    3    3    0    0  0.57110972783E+02 -0.28479307340E+02  0.26076063301E+03  0.26845640593E+03  0.00000000000E+00 0. -1.
          1    1    1    2  501    0 -0.44491473644E+02  0.13609554035E+02 -0.70809282134E+02  0.84727006464E+02  0.00000000000E+00 0. -1.
<scales pt_clust_5="13000.00000" pt_clust_6="13000.00000" pt_clust_7="13000.00000" pt_clust_8="13000.00000" pt_clust_9="46.52646"></scales>
<clustering>
<clus scale="   46.526">  2  9  1 -1</clus>
<clus scale="   92.399">  5  6 -1 -1</clus>
<clus scale="   92.878">  7  8 -1 -1</clus>
<clus scale="  134.091">  2  5  1 -1</clus>
<clus scale="   46.526">  2  5  1 -1</clus>
</clustering>
</event>
<event>
 9    1  0.1399746E-005  0.1050702E+03  0.7546771E-02  0.1271824E+00
         -3   -1    0    0    0  501 -0.00000000000E+00  0.00000000000E+00  0.31042778263E+03  0.31042778263E+03  0.00000000000E+00 0.  1.
         21   -1    0    0  501  502  0.00000000000E+00 -0.00000000000E+00 -0.71673592543E+02  0.71673592543E+02  0.00000000000E+00 0.  1.
         23    2    1    2    0    0 -0.34495687566E+02 -0.39379432365E+01  0.16372034355E+03  0.19003635991E+03  0.90022260245E+02 0.  0.
         23    2    1    2    0    0  0.72006111344E+02  0.21466785550E+02  0.87441561929E+02  0.14884183160E+03  0.94139052096E+02 0.  0.
        -11    1    3    3    0    0 -0.17765896971E+02 -0.35176684408E+02  0.24560223545E+02  0.46435232332E+02  0.00000000000E+00 0. -1.
         11    1    3    3    0    0 -0.16729790595E+02  0.31238741171E+02  0.13916012000E+03  0.14360112758E+03  0.00000000000E+00 0.  1.
        -11    1    4    4    0    0  0.24618139151E+01  0.31553342712E+02  0.69422386673E+02  0.76296407094E+02  0.00000000000E+00 0.  1.
         11    1    4    4    0    0  0.69544297429E+02 -0.10086557162E+02  0.18019175257E+02  0.72545424509E+02  0.00000000000E+00 0. -1.
         -3    1    1    2    0  502 -0.37510423778E+02 -0.17528842313E+02 -0.12407715385E+02  0.43223183663E+02  0.00000000000E+00 0.  1.
<scales pt_clust_5="13000.00000" pt_clust_6="13000.00000" pt_clust_7="13000.00000" pt_clust_8="13000.00000" pt_clust_9="41.40401"></scales>
<clustering>
<clus scale="   41.404">  2  9  1 -1</clus>
<clus scale="   90.022">  5  6 -1 -1</clus>
<clus scale="   94.139">  7  8 -1 -1</clus>
<clus scale="  101.398">  1  5  2 -1</clus>
<clus scale="   41.404">  2  5  1 -1</clus>
</clustering>
</event>
<event>
 9    1  0.1399746E-005  0.1094581E+03  0.7546771E-02  0.1262363E+00
         21   -1    0    0  501  502  0.00000000000E+00  0.00000000000E+00  0.13807258930E+03  0.13807258930E+03  0.00000000000E+00 0.  1.
          1   -1    0    0  502    0 -0.00000000000E+00 -0.00000000000E+00 -0.20312695473E+03  0.20312695473E+03  0.00000000000E+00 0. -1.
         23    2    1    2    0    0 -0.43921316619E+02  0.43884587573E+02 -0.14576384174E+03  0.18324035685E+03  0.92059718340E+02 0.  0.
         23    2    1    2    0    0  0.32524990510E+02 -0.26660930064E+02  0.91108031589E+02  0.13483645856E+03  0.90063960266E+02 0.  0.
        -11    1    3    3    0    0 -0.82817719123E+00  0.44478950457E+02 -0.17286403359E+02  0.47727168912E+02  0.00000000000E+00 0.  1.
         11    1    3    3    0    0 -0.43093139428E+02 -0.59436288458E+00 -0.12847743838E+03  0.13551318794E+03  0.00000000000E+00 0. -1.
        -13    1    4    4    0    0 -0.15372411080E+02 -0.45014551286E+02  0.36850730890E+02  0.60171398662E+02  0.00000000000E+00 0. -1.
         13    1    4    4    0    0  0.47897401590E+02  0.18353621222E+02  0.54257300700E+02  0.74665059903E+02  0.00000000000E+00 0.  1.
          1    1    1    2  501    0  0.11396326109E+02 -0.17223657509E+02 -0.10398555278E+02  0.23122728616E+02  0.00000000000E+00 0. -1.
<scales pt_clust_5="13000.00000" pt_clust_6="13000.00000" pt_clust_7="13000.00000" pt_clust_8="13000.00000" pt_clust_9="20.65263"></scales>
<clustering>
<clus scale="   20.653">  1  9  2 -1</clus>
<clus scale="   90.064">  7  8 -1 -1</clus>
<clus scale="   92.060">  5  6 -1 -1</clus>
<clus scale="  107.785">  1  7  2 -1</clus>
<clus scale="   20.653">  1  5  2 -1</clus>
</clustering>
</event>
<event>
 9    1  0.1399746E-005  0.1078884E+03  0.7546771E-02  0.1265468E+00
          3   -1    0    0  502    0 -0.00000000000E+00  0.00000000000E+00  0.34617589090E+03  0.34617589090E+03  0.00000000000E+00 0. -1.
         21   -1    0    0  501  502  0.00000000000E+00 -0.00000000000E+00 -0.53925331836E+02  0.53925331836E+02  0.00000000000E+00 0.  1.
         23    2    1    2    0    0  0.55290444705E+02  0.32029987129E+02  0.21418274742E+03  0.24282195129E+03  0.94896245371E+02 0.  0.
         23    2    1    2    0    0 -0.23628210275E+02 -0.19329896447E+02  0.74929054313E+02  0.12302082445E+03  0.92670506914E+02 0.  0.
        -11    1    3    3    0    0  0.65014379681E+02 -0.63613667414E+01  0.17631581080E+03  0.18802819387E+03  0.00000000000E+00 0. -1.
         11    1    3    3    0    0 -0.97239349755E+01  0.38391353870E+02  0.37866936622E+02  0.54793757423E+02  0.00000000000E+00 0.  1.
        -13    1    4    4    0    0 -0.57096542194E+02 -0.23416274706E+01  0.30210993751E+02  0.64639016802E+02  0.00000000000E+00 0.  1.
         13    1    4    4    0    0  0.33468331919E+02 -0.16988268976E+02  0.44718060561E+02  0.58381807651E+02  0.00000000000E+00 0. -1.
          3    1    1    2  501    0 -0.31662234431E+02 -0.12700090682E+02  0.31387573277E+01  0.34258446988E+02  0.00000000000E+00 0. -1.
<scales pt_clust_5="13000.00000" pt_clust_6="13000.00000" pt_clust_7="13000.00000" pt_clust_8="13000.00000" pt_clust_9="34.11436"></scales>
<clustering>
<clus scale="   34.114">  2  9  1 -1</clus>
<clus scale="   92.671">  7  8 -1 -1</clus>
<clus scale="   94.896">  5  6 -1 -1</clus>
<clus scale="  105.936">  2  7  1 -1</clus>
<clus scale="   34.114">  2  5  1 -1</clus>
</clustering>
</event>
<event>
 9    1  0.1399746E-005  0.2207354E+03  0.7546771E-02  0.1133593E+00
          1   -1    0    0  502    0 -0.00000000000E+00  0.00000000000E+00  0.90250370396E+02  0.90250370396E+02  0.00000000000E+00 0. -1.
         21   -1    0    0  501  502  0.00000000000E+00 -0.00000000000E+00 -0.86752474764E+03  0.86752474764E+03  0.00000000000E+00 0. -1.
         23    2    1    2    0    0 -0.23448986260E+02  0.17820770356E+03 -0.18996251854E+03  0.27610933723E+03  0.88559398660E+02 0.  0.
         23    2    1    2    0    0  0.87088618565E+02 -0.22704705341E+03 -0.39038264831E+03  0.46902430132E+03  0.91926009238E+02 0.  0.
        -11    1    4    4    0    0  0.86180234692E+01 -0.32358493597E+02 -0.10653811180E+02  0.35140377474E+02  0.00000000000E+00 0.  1.
         11    1    4    4    0    0  0.78470595096E+02 -0.19468855982E+03 -0.37972883713E+03  0.43388392384E+03  0.00000000000E+00 0. -1.
        -13    1    3    3    0    0  0.26358269383E+02  0.57135632279E+02 -0.96702153107E+02  0.11537133637E+03  0.00000000000E+00 0. -1.
         13    1    3    3    0    0 -0.49807255643E+02  0.12107207128E+03 -0.93260365428E+02  0.16073800085E+03  0.00000000000E+00 0.  1.
          1    1    1    2  501    0 -0.63639632305E+02  0.48839349854E+02 -0.19692921040E+03  0.21264147949E+03  0.00000000000E+00 0. -1.
<scales pt_clust_5="13000.00000" pt_clust_6="13000.00000" pt_clust_7="13000.00000" pt_clust_8="13000.00000" pt_clust_9="80.22023"></scales>
<clustering>
<clus scale="   80.220">  2  9  1 -1</clus>
<clus scale="   88.559">  7  8 -1 -1</clus>
<clus scale="   91.926">  5  6 -1 -1</clus>
<clus scale="  219.355">  1  7  2 -1</clus>
<clus scale="   80.220">  2  5  1 -1</clus>
</clustering>
</event>
<event>
 9    1  0.1399746E-005  0.1413550E+03  0.7546771E-02  0.1212010E+00
         -3   -1    0    0    0  501 -0.00000000000E+00  0.00000000000E+00  0.43972379589E+03  0.43972379589E+03  0.00000000000E+00 0.  1.
         21   -1    0    0  501  502  0.00000000000E+00 -0.00000000000E+00 -0.25974633579E+03  0.25974633579E+03  0.00000000000E+00 0.  1.
         23    2    1    2    0    0  0.82261208054E+02 -0.67024704521E+02  0.39969827721E+03  0.42459787961E+03  0.96257099486E+02 0.  0.
         23    2    1    2    0    0 -0.66640005820E+02  0.32386582236E+02 -0.12642641498E+03  0.17413662310E+03  0.94075204046E+02 0.  0.
        -11    1    4    4    0    0 -0.57806237558E+02 -0.16410298958E+02 -0.10310201013E+03  0.11933517296E+03  0.00000000000E+00 0.  1.
         11    1    4    4    0    0 -0.88337682615E+01  0.48796881194E+02 -0.23324404844E+02  0.54801450139E+02  0.00000000000E+00 0. -1.
        -13    1    3    3    0    0  0.54572449990E+02 -0.66925291432E+02  0.38222061666E+03  0.39185424169E+03  0.00000000000E+00 0.  1.
         13    1    3    3    0    0  0.27688758064E+02 -0.99413089750E-01  0.17477660547E+02  0.32743637920E+02  0.00000000000E+00 0. -1.
         -3    1    1    2    0  502 -0.15621202234E+02  0.34638122286E+02 -0.93294402134E+02  0.10073562897E+03  0.00000000000E+00 0.  1.
<scales pt_clust_5="13000.00000" pt_clust_6="13000.00000" pt_clust_7="13000.00000" pt_clust_8="13000.00000" pt_clust_9="37.99765"></scales>
<clustering>
<clus scale="   37.998">  2  9  1 -1</clus>
<clus scale="   94.075">  5  6 -1 -1</clus>
<clus scale="   96.257">  7  8 -1 -1</clus>
<clus scale="  139.878">  2  5  1 -1</clus>
<clus scale="   37.998">  2  5  1 -1</clus>
</clustering>
</event>
<event>
 9    1  0.1399746E-005  0.1053567E+03  0.7546771E-02  0.1273434E+00
          1   -1    0    0  502    0 -0.00000000000E+00  0.00000000000E+00  0.18552146105E+03  0.18552146105E+03  0.00000000000E+00 0. -1.
         21   -1    0    0  501  502  0.00000000000E+00 -0.00000000000E+00 -0.10544748427E+03  0.10544748427E+03  0.00000000000E+00 0.  1.
         23    2    1    2    0    0  0.44409714761E+01 -0.46641271049E+02  0.44749083781E+02  0.11156438450E+03  0.90824011131E+02 0.  0.
         23    2    1    2    0    0  0.48483799359E+02  0.86901571429E+01  0.21670359953E+02  0.11286310991E+03  0.99208263000E+02 0.  0.
        -11    1    3    3    0    0  0.27559123295E+02  0.12681963907E+02  0.36346810539E+02  0.47343723150E+02  0.00000000000E+00 0.  1.
         11    1    3    3    0    0 -0.23118151819E+02 -0.59323234956E+02  0.84022732416E+01  0.64220661354E+02  0.00000000000E+00 0. -1.
        -13    1    4    4    0    0  0.63949411081E+02 -0.26210024050E+02  0.27237783729E+02  0.74285862724E+02  0.00000000000E+00 0.  1.
         13    1    4    4    0    0 -0.15465611722E+02  0.34900181193E+02 -0.55674237755E+01  0.38577247190E+02  0.00000000000E+00 0. -1.
          1    1    1    2  501    0 -0.52924770835E+02  0.37951113906E+02  0.13654533045E+02  0.66541450896E+02  0.00000000000E+00 0. -1.
<scales pt_clust_5="13000.00000" pt_clust_6="13000.00000" pt_clust_7="13000.00000" pt_clust_8="13000.00000" pt_clust_9="65.12541"></scales>
<clustering>
<clus scale="   65.125">  2  9  1 -1</clus>
<clus scale="   90.824">  5  6 -1 -1</clus>
<clus scale="   97.503">  1  5  2 -1</clus>
<clus scale="   99.208">  7  8 -1 -1</clus>
<clus scale="   65.125">  2  5  1 -1</clus>
</clustering>
</event>
<event>
 9    1  0.3120374E-005  0.1440772E+03  0.7546771E-02  0.1208549E+00
         21   -1    0    0  501  502  0.00000000000E+00  0.00000000000E+00  0.33143388135E+03  0.33143388135E+03  0.00000000000E+00 0. -1.
          2   -1    0    0  502    0 -0.00000000000E+00 -0.00000000000E+00 -0.55207952378E+03  0.55207952378E+03  0.00000000000E+00 0. -1.
         23    2    1    2    0    0 -0.57729274572E+02  0.88473038300E+02 -0.42812069251E+03  0.45088382627E+03  0.94067793569E+02 0.  0.
         23    2    1    2    0    0  0.99948230622E+02 -0.17118651434E+03  0.24884696313E+03  0.33096545265E+03  0.91207720570E+02 0.  0.
        -13    1    4    4    0    0  0.30344278206E+02 -0.12445675719E+03  0.11038432896E+03  0.16910044267E+03  0.00000000000E+00 0.  1.
         13    1    4    4    0    0  0.69603952416E+02 -0.46729757150E+02  0.13846263417E+03  0.16186500998E+03  0.00000000000E+00 0. -1.
        -13    1    3    3    0    0 -0.30666246677E+01  0.73268691752E+02 -0.32514213730E+03  0.33330933805E+03  0.00000000000E+00 0. -1.
         13    1    3    3    0    0 -0.54662649905E+02  0.15204346548E+02 -0.10297855520E+03  0.11757448822E+03  0.00000000000E+00 0.  1.
          2    1    1    2  501    0 -0.42218956049E+02  0.82713476040E+02 -0.41371913054E+02  0.10166412621E+03  0.00000000000E+00 0. -1.
<scales pt_clust_5="13000.00000" pt_clust_6="13000.00000" pt_clust_7="13000.00000" pt_clust_8="13000.00000" pt_clust_9="92.86532"></scales>
<clustering>
<clus scale="   91.208">  5  6 -1 -1</clus>
<clus scale="   92.865">  1  9  2 -1</clus>
<clus scale="   94.068">  7  8 -1 -1</clus>
<clus scale="  142.226">  1  5  2 -1</clus>
<clus scale="   92.865">  1  5  2 -1</clus>
</clustering>
</event>
<event>
 9    1  0.1399746E-005  0.9917424E+02  0.7546771E-02  0.1287510E+00
          1   -1    0    0  502    0 -0.00000000000E+00  0.00000000000E+00  0.94365431247E+03  0.94365431247E+03  0.00000000000E+00 0. -1.
         21   -1    0    0  501  502  0.00000000000E+00 -0.00000000000E+00 -0.15537640881E+02  0.15537640881E+02  0.00000000000E+00 0.  1.
         23    2    1    2    0    0 -0.50494020538E+02  0.95506215231E+00  0.59853269409E+03  0.60754507293E+03  0.91208944119E+02 0.  0.
         23    2    1    2    0    0  0.16729286043E+02 -0.18499066514E+02  0.21643195605E+03  0.23226836752E+03  0.80521540469E+02 0.  0.
        -11    1    3    3    0    0 -0.77311911681E+02 -0.15170455963E+00  0.45590785872E+03  0.46241661988E+03  0.00000000000E+00 0. -1.
         11    1    3    3    0    0  0.26817891143E+02  0.11067667119E+01  0.14262483537E+03  0.14512845304E+03  0.00000000000E+00 0.  1.
        -13    1    4    4    0    0 -0.88851110736E+01 -0.45915016707E+02  0.12180681069E+03  0.13047617824E+03  0.00000000000E+00 0.  1.
         13    1    4    4    0    0  0.25614397116E+02  0.27415950193E+02  0.94625145361E+02  0.10179218928E+03  0.00000000000E+00 0. -1.
          1    1    1    2  501    0  0.33764734496E+02  0.17544004362E+02  0.11315202145E+03  0.11937851291E+03  0.00000000000E+00 0. -1.
<scales pt_clust_5="13000.00000" pt_clust_6="13000.00000" pt_clust_7="13000.00000" pt_clust_8="13000.00000" pt_clust_9="38.05062"></scales>
<clustering>
<clus scale="   38.051">  2  9  1 -1</clus>
<clus scale="   80.522">  7  8 -1 -1</clus>
<clus scale="   89.444">  2  7  1 -1</clus>
<clus scale="   91.209">  5  6 -1 -1</clus>
<clus scale="   38.051">  2  5  1 -1</clus>
</clustering>
</event>
<event>
 9    1  0.1399746E-005  0.1122606E+03  0.7546771E-02  0.1258536E+00
         21   -1    0    0  501  502  0.00000000000E+00  0.00000000000E+00  0.64810477713E+03  0.64810477713E+03  0.00000000000E+00 0.  1.
         -1   -1    0    0    0  501 -0.00000000000E+00 -0.00000000000E+00 -0.26161969482E+02  0.26161969482E+02  0.00000000000E+00 0.  1.
         23    2    1    2    0    0  0.73888535853E+00  0.69913743516E+02  0.18409831323E+03  0.21511353644E+03  0.86563081864E+02 0.  0.
         23    2    1    2    0    0 -0.14293523143E+02 -0.54819108913E+02  0.28277475302E+03  0.30276203108E+03  0.92162069282E+02 0.  0.
        -11    1    3    3    0    0 -0.27090384174E+02  0.47622734035E+02  0.43193781155E+02  0.69767588765E+02  0.00000000000E+00 0.  1.
         11    1    3    3    0    0  0.27829269532E+02  0.22291009481E+02  0.14090453207E+03  0.14534594768E+03  0.00000000000E+00 0. -1.
        -13    1    4    4    0    0 -0.43615076669E+02 -0.56177928245E+02  0.14032199930E+03  0.15731655355E+03  0.00000000000E+00 0. -1.
         13    1    4    4    0    0  0.29321553526E+02  0.13588193320E+01  0.14245275372E+03  0.14544547753E+03  0.00000000000E+00 0.  1.
         -1    1    1    2    0  502  0.13554637785E+02 -0.15094634603E+02  0.15506974140E+03  0.15639117909E+03  0.00000000000E+00 0.  1.
<scales pt_clust_5="13000.00000" pt_clust_6="13000.00000" pt_clust_7="13000.00000" pt_clust_8="13000.00000" pt_clust_9="20.28734"></scales>
<clustering>
<clus scale="   20.287">  1  9  2 -1</clus>
<clus scale="   86.563">  5  6 -1 -1</clus>
<clus scale="   92.162">  7  8 -1 -1</clus>
<clus scale="  107.711">  2  5  1 -1</clus>
<clus scale="   20.287">  1  5  2 -1</clus>
</clustering>
</event>
<event>
 9    1  0.1399746E-005  0.1425435E+03  0.7546771E-02  0.1210511E+00
          1   -1    0    0  502    0 -0.00000000000E+00  0.00000000000E+00  0.43385317304E+03  0.43385317304E+03  0.00000000000E+00 0. -1.
         21   -1    0    0  501  502  0.00000000000E+00 -0.00000000000E+00 -0.10106981397E+03  0.10106981397E+03  0.00000000000E+00 0. -1.
         23    2    1    2    0    0 -0.14136861552E+02  0.10741047670E+03  0.32155042088E+03  0.35187895745E+03  0.93205505033E+02 0.  0.
         23    2    1    2    0    0 -0.13211337342E+02 -0.10798543920E+03  0.36083933514E+02  0.14608693913E+03  0.90575653539E+02 0.  0.
        -11    1    4    4    0    0  0.55425944920E+01 -0.11926671855E+03  0.27119901184E+02  0.12243675734E+03  0.00000000000E+00 0. -1.
         11    1    4    4    0    0 -0.18753931834E+02  0.11281279355E+02  0.89640323302E+01  0.23650181790E+02  0.00000000000E+00 0.  1.
        -13    1    3    3    0    0  0.26164958553E+02  0.26164535626E+02  0.33591151498E+02  0.49975528407E+02  0.00000000000E+00 0.  1.
         13    1    3    3    0    0 -0.40301820105E+02  0.81245941076E+02  0.28795926938E+03  0.30190342904E+03  0.00000000000E+00 0. -1.
          1    1    1    2  501    0  0.27348198894E+02  0.57496249649E+00 -0.24850995324E+02  0.36957090432E+02  0.00000000000E+00 0. -1.
<scales pt_clust_5="13000.00000" pt_clust_6="13000.00000" pt_clust_7="13000.00000" pt_clust_8="13000.00000" pt_clust_9="27.35424"></scales>
<clustering>
<clus scale="   27.354">  2  9  1 -1</clus>
<clus scale="   90.576">  5  6 -1 -1</clus>
<clus scale="   93.206">  7  8 -1 -1</clus>
<clus scale="  140.838">  2  5  1 -1</clus>
<clus scale="   27.354">  2  5  1 -1</clus>
</clustering>
</event>
<event>
 9    1  0.1609677E-005  0.1147780E+03  0.7546771E-02  0.1253826E+00
         21   -1    0    0  501  502  0.00000000000E+00  0.00000000000E+00  0.35254277989E+03  0.35254277989E+03  0.00000000000E+00 0. -1.
          1   -1    0    0  502    0 -0.00000000000E+00 -0.00000000000E+00 -0.23709876546E+03  0.23709876546E+03  0.00000000000E+00 0. -1.
         23    2    1    2    0    0  0.65269406319E+02  0.47932638814E+02 -0.15716743722E+03  0.19908431395E+03  0.91516815250E+02 0.  0.
         23    2    1    2    0    0 -0.47007299079E+02 -0.11535471164E+02 -0.15043648377E+02  0.10003405687E+03  0.86242378885E+02 0.  0.
        -11    1    3    3    0    0  0.11574612739E+01 -0.20676577229E+02 -0.67845997181E+01  0.21792002107E+02  0.00000000000E+00 0.  1.
         11    1    3    3    0    0  0.64111945045E+02  0.68609216042E+02 -0.15038283750E+03  0.17729231184E+03  0.00000000000E+00 0. -1.
        -13    1    4    4    0    0 -0.44524039714E+02 -0.39267427889E+02  0.12720892825E+02  0.60713607368E+02  0.00000000000E+00 0. -1.
         13    1    4    4    0    0 -0.24832593652E+01  0.27731956725E+02 -0.27764541202E+02  0.39320449502E+02  0.00000000000E+00 0.  1.
          1    1    1    2  501    0 -0.18262107240E+02 -0.36397167650E+02  0.28765510002E+03  0.29052317453E+03  0.00000000000E+00 0. -1.
<scales pt_clust_5="13000.00000" pt_clust_6="13000.00000" pt_clust_7="13000.00000" pt_clust_8="13000.00000" pt_clust_9="40.72172"></scales>
<clustering>
<clus scale="   40.722">  1  9  2 -1</clus>
<clus scale="   86.242">  7  8 -1 -1</clus>
<clus scale="   91.517">  5  6 -1 -1</clus>
<clus scale="  110.618">  1  7  2 -1</clus>
<clus scale="   40.722">  1  5  2 -1</clus>
</clustering>
</event>
<event>
 9    1  0.1399746E-005  0.1478030E+03  0.7546771E-02  0.1203432E+00
         21   -1    0    0  501  502  0.00000000000E+00  0.00000000000E+00  0.65178547232E+02  0.65178547232E+02  0.00000000000E+00 0. -1.
          2   -1    0    0  502    0 -0.00000000000E+00 -0.00000000000E+00 -0.38408251022E+03  0.38408251022E+03  0.00000000000E+00 0. -1.
         23    2    1    2    0    0  0.11192521632E+03 -0.53820370127E+02 -0.16877288301E+03  0.22869007382E+03  0.91602279112E+02 0.  0.
         23    2    1    2    0    0 -0.91298718367E+02  0.53137508017E+02 -0.12577674868E+03  0.18864838706E+03  0.92786705392E+02 0.  0.
        -11    1    3    3    0    0  0.11629371114E+03 -0.17372642666E+02 -0.12675163585E+03  0.17289306856E+03  0.00000000000E+00 0. -1.
         11    1    3    3    0    0 -0.43684948237E+01 -0.36447727460E+02 -0.42021247160E+02  0.55797005268E+02  0.00000000000E+00 0.  1.
        -13    1    4    4    0    0 -0.97447833785E+02  0.11062624467E+02 -0.87032578751E+02  0.13112258285E+03  0.00000000000E+00 0.  1.
         13    1    4    4    0    0  0.61491154186E+01  0.42074883550E+02 -0.38744169931E+02  0.57525804208E+02  0.00000000000E+00 0. -1.
          2    1    1    2  501    0 -0.20626497954E+02  0.68286211024E+00 -0.24354331297E+02  0.31922596564E+02  0.00000000000E+00 0. -1.
<scales pt_clust_5="13000.00000" pt_clust_6="13000.00000" pt_clust_7="13000.00000" pt_clust_8="13000.00000" pt_clust_9="20.63781"></scales>
<clustering>
<clus scale="   20.638">  1  9  2 -1</clus>
<clus scale="   91.602">  5  6 -1 -1</clus>
<clus scale="   92.787">  7  8 -1 -1</clus>
<clus scale="  147.062">  2  5  1 -1</clus>
<clus scale="   20.638">  1  5  2 -1</clus>
</clustering>
</event>
<event>
 9    1  0.1399746E-005  0.1169733E+03  0.7546771E-02  0.1250211E+00
         21   -1    0    0  501  502  0.00000000000E+00  0.00000000000E+00  0.90942921207E+02  0.90942921207E+02  0.00000000000E+00 0. -1.
          2   -1    0    0  502    0 -0.00000000000E+00 -0.00000000000E+00 -0.26095722590E+03  0.26095722590E+03  0.00000000000E+00 0. -1.
         23    2    1    2    0    0 -0.72190680176E+02  0.22775177936E+02 -0.14993995909E+03  0.19020793198E+03  0.89257285524E+02 0.  0.
         23    2    1    2    0    0  0.50155104783E+02 -0.23933810867E+02 -0.52881672220E+02  0.12215451549E+03  0.95062571816E+02 0.  0.
        -11    1    3    3    0    0 -0.92421819025E+02  0.25641083130E+02 -0.11516357890E+03  0.14987297182E+03  0.00000000000E+00 0. -1.
         11    1    3    3    0    0  0.20231138849E+02 -0.28659051946E+01 -0.34776380192E+02  0.40334960158E+02  0.00000000000E+00 0.  1.
        -13    1    4    4    0    0  0.71659309108E+02  0.24324170629E+01 -0.51171335381E+02  0.88087903819E+02  0.00000000000E+00 0.  1.
         13    1    4    4    0    0 -0.21504204324E+02 -0.26366227930E+02 -0.17103368389E+01  0.34066611674E+02  0.00000000000E+00 0. -1.
          2    1    1    2  501    0  0.22035575393E+02  0.11586329308E+01  0.32807326618E+02  0.39537699642E+02  0.00000000000E+00 0. -1.
<scales pt_clust_5="13000.00000" pt_clust_6="13000.00000" pt_clust_7="13000.00000" pt_clust_8="13000.00000" pt_clust_9="22.06601"></scales>
<clustering>
<clus scale="   22.066">  1  9  2 -1</clus>
<clus scale="   89.257">  5  6 -1 -1</clus>
<clus scale="   95.063">  7  8 -1 -1</clus>
<clus scale="  112.306">  2  5  1 -1</clus>
<clus scale="   22.066">  1  5  2 -1</clus>
</clustering>
</event>
<event>
 9    1  0.1399746E-005  0.1293742E+03  0.7546771E-02  0.1228939E+00
         -3   -1    0    0    0  501 -0.00000000000E+00  0.00000000000E+00  0.25061218171E+03  0.25061218171E+03  0.00000000000E+00 0.  1.
         21   -1    0    0  501  502  0.00000000000E+00 -0.00000000000E+00 -0.19303685899E+03  0.19303685899E+03  0.00000000000E+00 0. -1.
         23    2    1    2    0    0 -0.85962196100E+02  0.12192036705E+02  0.14489961041E+03  0.19254441756E+03  0.92408390955E+02 0.  0.
         23    2    1    2    0    0  0.94712707610E+02 -0.35085153295E+02  0.23561293188E+02  0.13754284134E+03  0.90340653651E+02 0.  0.
        -11    1    3    3    0    0  0.18137734997E+01  0.33247072630E+02  0.21426200020E+02  0.39594692322E+02  0.00000000000E+00 0. -1.
         11    1    3    3    0    0 -0.87775969600E+02 -0.21055035925E+02  0.12347341039E+03  0.15294972524E+03  0.00000000000E+00 0.  1.
        -11    1    4    4    0    0  0.67439382319E+02 -0.59153513588E+02 -0.70759406871E+01  0.89984873140E+02  0.00000000000E+00 0. -1.
         11    1    4    4    0    0  0.27273325291E+02  0.24068360293E+02  0.30637233875E+02  0.47557968198E+02  0.00000000000E+00 0.  1.
         -3    1    1    2    0  502 -0.87505115099E+01  0.22893116590E+02 -0.11088558088E+03  0.11356178180E+03  0.00000000000E+00 0.  1.
<scales pt_clust_5="13000.00000" pt_clust_6="13000.00000" pt_clust_7="13000.00000" pt_clust_8="13000.00000" pt_clust_9="24.50849"></scales>
<clustering>
<clus scale="   24.508">  2  9  1 -1</clus>
<clus scale="   90.341">  7  8 -1 -1</clus>
<clus scale="   92.408">  5  6 -1 -1</clus>
<clus scale="  127.905">  2  7  1 -1</clus>
<clus scale="   24.508">  2  5  1 -1</clus>
</clustering>
</event>
<event>
 9    1  0.1399746E-005  0.1457364E+03  0.7546771E-02  0.1206575E+00
         -3   -1    0    0    0  501 -0.00000000000E+00  0.00000000000E+00  0.97797390130E+03  0.97797390130E+03  0.00000000000E+00 0.  1.
         21   -1    0    0  501  502  0.00000000000E+00 -0.00000000000E+00 -0.94204366938E+02  0.94204366938E+02  0.00000000000E+00 0.  1.
         23    2    1    2    0    0 -0.43871390101E+01 -0.10008110882E+03  0.52797963229E+03  0.54561293205E+03  0.94315980502E+02 0.  0.
         23    2    1    2    0    0  0.44075771556E+02  0.12527241076E+03  0.41842791260E+03  0.44824988682E+03  0.90610112316E+02 0.  0.
        -11    1    3    3    0    0  0.38537020004E+02 -0.71814938864E+02  0.38871646541E+03  0.39716870198E+03  0.00000000000E+00 0.  1.
         11    1    3    3    0    0 -0.42924159015E+02 -0.28266169958E+02  0.13926316688E+03  0.14844423007E+03  0.00000000000E+00 0. -1.
        -11    1    4    4    0    0  0.64536538590E+02  0.56113734183E+02  0.18248918682E+03  0.20153416406E+03  0.00000000000E+00 0.  1.
         11    1    4    4    0    0 -0.20460767033E+02  0.69158676578E+02  0.23593872578E+03  0.24671572276E+03  0.00000000000E+00 0. -1.
         -3    1    1    2    0  502 -0.39688632546E+02 -0.25191301939E+02 -0.62638010528E+02  0.78315449368E+02  0.00000000000E+00 0.  1.
<scales pt_clust_5="13000.00000" pt_clust_6="13000.00000" pt_clust_7="13000.00000" pt_clust_8="13000.00000" pt_clust_9="47.00840"></scales>
<clustering>
<clus scale="   47.008">  2  9  1 -1</clus>
<clus scale="   90.610">  7  8 -1 -1</clus>
<clus scale="   94.316">  5  6 -1 -1</clus>
<clus scale="  143.366">  2  7  1 -1</clus>
<clus scale="   47.008">  2  5  1 -1</clus>
</clustering>
</event>
<event>
 9    1  0.1399746E-005  0.1761683E+03  0.7546771E-02  0.1171722E+00
          2   -1    0    0  502    0 -0.00000000000E+00  0.00000000000E+00  0.19127716608E+03  0.19127716608E+03  0.00000000000E+00 0. -1.
         21   -1    0    0  501  502  0.00000000000E+00 -0.00000000000E+00 -0.29644816329E+03  0.29644816329E+03  0.00000000000E+00 0. -1.
         23    2    1    2    0    0 -0.22370300016E+02  0.13512878073E+03  0.44985414825E+02  0.17082869949E+03  0.91643544884E+02 0.  0.
         23    2    1    2    0    0 -0.81495402307E+01 -0.18236567817E+03 -0.63113642609E+02  0.21326637928E+03  0.90418809253E+02 0.  0.
        -13    1    3    3    0    0  0.21544002112E+02  0.46247665647E+02  0.50171374649E+02  0.71555275410E+02  0.00000000000E+00 0. -1.
         13    1    3    3    0    0 -0.43914302128E+02  0.88881115080E+02 -0.51859598243E+01  0.99273424080E+02  0.00000000000E+00 0.  1.
        -13    1    4    4    0    0 -0.10036168442E+02 -0.14026637677E+03 -0.40159409480E+01  0.14068229779E+03  0.00000000000E+00 0. -1.
         13    1    4    4    0    0  0.18866282109E+01 -0.42099301404E+02 -0.59097701661E+02  0.72584081494E+02  0.00000000000E+00 0.  1.
          2    1    1    2  501    0  0.30519840247E+02  0.47236897446E+02 -0.87042769431E+02  0.10363025060E+03  0.00000000000E+00 0. -1.
<scales pt_clust_5="13000.00000" pt_clust_6="13000.00000" pt_clust_7="13000.00000" pt_clust_8="13000.00000" pt_clust_9="56.23864"></scales>
<clustering>
<clus scale="   56.239">  2  9  1 -1</clus>
<clus scale="   90.419">  7  8 -1 -1</clus>
<clus scale="   91.644">  5  6 -1 -1</clus>
<clus scale="  175.534">  2  7  1 -1</clus>
<clus scale="   56.239">  2  5  1 -1</clus>
</clustering>
</event>
<event>
 9    1  0.1399746E-005  0.1558969E+03  0.7546771E-02  0.1193851E+00
         21   -1    0    0  501  502  0.00000000000E+00  0.00000000000E+00  0.50585716619E+03  0.50585716619E+03  0.00000000000E+00 0.  1.
          4   -1    0    0  502    0 -0.00000000000E+00 -0.00000000000E+00 -0.10314798221E+03  0.10314798221E+03  0.00000000000E+00 0. -1.
         23    2    1    2    0    0 -0.12014211953E+03  0.71372345866E+02  0.19961097972E+02  0.16839128787E+03  0.91809802096E+02 0.  0.
         23    2    1    2    0    0  0.41676150643E+02 -0.83248776203E+02  0.29695545640E+03  0.32374498886E+03  0.89224517123E+02 0.  0.
        -13    1    4    4    0    0  0.20875263949E+02 -0.56315032063E+02  0.27875703573E+03  0.28515372074E+03  0.00000000000E+00 0.  1.
         13    1    4    4    0    0  0.20800886693E+02 -0.26933744140E+02  0.18198420671E+02  0.38591268125E+02  0.00000000000E+00 0. -1.
        -13    1    3    3    0    0 -0.36034965628E+02  0.16488334691E+02  0.49780267597E+02  0.63627501685E+02  0.00000000000E+00 0.  1.
         13    1    3    3    0    0 -0.84107153898E+02  0.54884011175E+02 -0.29819169624E+02  0.10476378619E+03  0.00000000000E+00 0. -1.
          4    1    1    2  501    0  0.78465968883E+02  0.11876430337E+02  0.85792629600E+02  0.11686887166E+03  0.00000000000E+00 0. -1.
<scales pt_clust_5="13000.00000" pt_clust_6="13000.00000" pt_clust_7="13000.00000" pt_clust_8="13000.00000" pt_clust_9="79.35967"></scales>
<clustering>
<clus scale="   79.360">  1  9  2 -1</clus>
<clus scale="   89.225">  5  6 -1 -1</clus>
<clus scale="   91.810">  7  8 -1 -1</clus>
<clus scale="  154.389">  1  5  2 -1</clus>
<clus scale="   79.360">  1  5  2 -1</clus>
</clustering>
</event>
<event>
 9    1  0.1399746E-005  0.1627109E+03  0.7546771E-02  0.1210743E+00
         21   -1    0    0  501  502  0.00000000000E+00  0.00000000000E+00  0.93463832425E+02  0.93463832425E+02  0.00000000000E+00 0. -1.
          4   -1    0    0  502    0 -0.00000000000E+00 -0.00000000000E+00 -0.42976995992E+03  0.42976995992E+03  0.00000000000E+00 0. -1.
         23    2    1    2    0    0  0.13355211469E+02 -0.21701645757E+02 -0.42869594935E+02  0.10351857028E+03  0.90713665570E+02 0.  0.
         23    2    1    2    0    0  0.77590671861E+02  0.11565926423E+03 -0.18773686876E+03  0.25157359518E+03  0.92987978456E+02 0.  0.
        -13    1    3    3    0    0 -0.37742909116E+02 -0.14393907660E+02 -0.78710480451E+01  0.41154163381E+02  0.00000000000E+00 0.  1.
         13    1    3    3    0    0  0.51098120586E+02 -0.73077380978E+01 -0.34998546890E+02  0.62364406899E+02  0.00000000000E+00 0. -1.
        -13    1    4    4    0    0  0.42236656992E+02  0.42067062236E+02 -0.16475013094E+02  0.61846576102E+02  0.00000000000E+00 0. -1.
         13    1    4    4    0    0  0.35354014869E+02  0.73592201994E+02 -0.17126185567E+03  0.18972701908E+03  0.00000000000E+00 0.  1.
          4    1    1    2  501    0 -0.90945883330E+02 -0.93957618473E+02 -0.10569966380E+03  0.16814162688E+03  0.00000000000E+00 0. -1.
<scales pt_clust_5="13000.00000" pt_clust_6="13000.00000" pt_clust_7="13000.00000" pt_clust_8="13000.00000" pt_clust_9="133.52180"></scales>
<clustering>
<clus scale="   90.714">  5  6 -1 -1</clus>
<clus scale="   92.988">  7  8 -1 -1</clus>
<clus scale="   94.225">  2  5  1 -1</clus>
<clus scale="  133.522">  1  9  2 -1</clus>
<clus scale="  133.522">  1  5  2 -1</clus>
</clustering>
</event>
<event>
 9    1  0.1399746E-005  0.1570248E+03  0.7546771E-02  0.1192875E+00
          1   -1    0    0  502    0 -0.00000000000E+00  0.00000000000E+00  0.37661294867E+03  0.37661294867E+03  0.00000000000E+00 0. -1.
         21   -1    0    0  501  502  0.00000000000E+00 -0.00000000000E+00 -0.28286630985E+03  0.28286630985E+03  0.00000000000E+00 0. -1.
         23    2    1    2    0    0  0.12545688742E+03 -0.92378943747E+02  0.25344384857E+03  0.31228015020E+03  0.94930542957E+02 0.  0.
         23    2    1    2    0    0 -0.71564082815E+01  0.92464948483E+02  0.20979097416E+02  0.13123860560E+03  0.90456996378E+02 0.  0.
        -11    1    3    3    0    0  0.51174622202E+02 -0.48147761008E+02  0.37438057401E+02  0.79615683063E+02  0.00000000000E+00 0.  1.
         11    1    3    3    0    0  0.74282265214E+02 -0.44231182739E+02  0.21600579117E+03  0.23266446714E+03  0.00000000000E+00 0. -1.
        -11    1    4    4    0    0 -0.42359088920E+02  0.82831554063E+02  0.14035139478E+02  0.94086895489E+02  0.00000000000E+00 0.  1.
         11    1    4    4    0    0  0.35202680639E+02  0.96333944197E+01  0.69439579384E+01  0.37151710109E+02  0.00000000000E+00 0. -1.
          1    1    1    2  501    0 -0.11830047914E+03 -0.86004736071E-01 -0.18067630717E+03  0.21596050271E+03  0.00000000000E+00 0. -1.
<scales pt_clust_5="13000.00000" pt_clust_6="13000.00000" pt_clust_7="13000.00000" pt_clust_8="13000.00000" pt_clust_9="118.30051"></scales>
<clustering>
<clus scale="   90.457">  7  8 -1 -1</clus>
<clus scale="   94.931">  5  6 -1 -1</clus>
<clus scale="  118.301">  2  9  1 -1</clus>
<clus scale="  154.361">  2  7  1 -1</clus>
<clus scale="  118.301">  2  5  1 -1</clus>
</clustering>
</event>
<event>
 9    1  0.1399746E-005  0.1135064E+03  0.7546771E-02  0.1254632E+00
         21   -1    0    0  501  502  0.00000000000E+00  0.00000000000E+00  0.16216185909E+03  0.16216185909E+03  0.00000000000E+00 0. -1.
          2   -1    0    0  502    0 -0.00000000000E+00 -0.00000000000E+00 -0.23842370593E+03  0.23842370593E+03  0.00000000000E+00 0. -1.
         23    2    1    2    0    0 -0.72338168142E+02 -0.26228841872E+02 -0.16056122185E+03  0.20010663335E+03  0.91334528154E+02 0.  0.
         23    2    1    2    0    0  0.40245714628E+02  0.21174715816E+02 -0.92964390122E+01  0.10140498874E+03  0.90157982603E+02 0.  0.
        -13    1    3    3    0    0 -0.13500245191E+02 -0.44463406665E+02 -0.28829875749E+02  0.54684667762E+02  0.00000000000E+00 0.  1.
         13    1    3    3    0    0 -0.58837922950E+02  0.18234564793E+02 -0.13173134610E+03  0.14542196559E+03  0.00000000000E+00 0. -1.
        -13    1    4    4    0    0 -0.21011217742E+02  0.25479884798E+02  0.13805649961E+02  0.35795136139E+02  0.00000000000E+00 0. -1.
         13    1    4    4    0    0  0.61256932370E+02 -0.43051689820E+01 -0.23102088973E+02  0.65609852600E+02  0.00000000000E+00 0.  1.
          2    1    1    2  501    0  0.32092453514E+02  0.50541260556E+01  0.93595814028E+02  0.99073942922E+02  0.00000000000E+00 0. -1.
<scales pt_clust_5="13000.00000" pt_clust_6="13000.00000" pt_clust_7="13000.00000" pt_clust_8="13000.00000" pt_clust_9="32.48799"></scales>
<clustering>
<clus scale="   32.488">  1  9  2 -1</clus>
<clus scale="   90.158">  7  8 -1 -1</clus>
<clus scale="   91.335">  5  6 -1 -1</clus>
<clus scale="  112.562">  1  7  2 -1</clus>
<clus scale="   32.488">  1  5  2 -1</clus>
</clustering>
</event>
<event>
 9    1  0.1399746E-005  0.1888989E+03  0.7546771E-02  0.1159565E+00
         21   -1    0    0  501  502  0.00000000000E+00  0.00000000000E+00  0.43641983026E+03  0.43641983026E+03  0.00000000000E+00 0. -1.
          2   -1    0    0  502    0 -0.00000000000E+00 -0.00000000000E+00 -0.19204650935E+03  0.19204650935E+03  0.00000000000E+00 0. -1.
         23    2    1    2    0    0 -0.13050945740E+03  0.71409264156E+02 -0.45712052185E+02  0.17999264322E+03  0.90419900576E+02 0.  0.
         23    2    1    2    0    0  0.18163922999E+03 -0.10093059299E+03  0.97531537398E+02  0.24707175464E+03  0.91390681571E+02 0.  0.
        -11    1    4    4    0    0  0.35960852880E+02  0.16793508036E+02  0.15868904775E+02  0.42743736275E+02  0.00000000000E+00 0.  1.
         11    1    4    4    0    0  0.14567837712E+03 -0.11772410102E+03  0.81662632623E+02  0.20432801836E+03  0.00000000000E+00 0. -1.
        -13    1    3    3    0    0 -0.17238907172E+01  0.21014221969E+02 -0.35540824768E+02  0.41324563511E+02  0.00000000000E+00 0.  1.
         13    1    3    3    0    0 -0.12878556669E+03  0.50395042187E+02 -0.10171227417E+02  0.13866807971E+03  0.00000000000E+00 0. -1.
          2    1    1    2  501    0 -0.51129772590E+02  0.29521328831E+02  0.19255383570E+03  0.20140194175E+03  0.00000000000E+00 0. -1.
<scales pt_clust_5="13000.00000" pt_clust_6="13000.00000" pt_clust_7="13000.00000" pt_clust_8="13000.00000" pt_clust_9="59.04035"></scales>
<clustering>
<clus scale="   59.040">  1  9  2 -1</clus>
<clus scale="   90.420">  7  8 -1 -1</clus>
<clus scale="   91.391">  5  6 -1 -1</clus>
<clus scale="  188.431">  2  7  1 -1</clus>
<clus scale="   59.040">  1  5  2 -1</clus>
</clustering>
</event>
<event>
 9    1  0.1399746E-005  0.2532319E+03  0.7546771E-02  0.1152433E+00
         21   -1    0    0  501  502  0.00000000000E+00  0.00000000000E+00  0.21256109341E+03  0.21256109341E+03  0.00000000000E+00 0. -1.
          3   -1    0    0  502    0 -0.00000000000E+00 -0.00000000000E+00 -0.41436565872E+03  0.41436565872E+03  0.00000000000E+00 0. -1.
         23    2    1    2    0    0  0.14605649977E+02  0.24522819232E+02  0.78277398202E+00  0.92451957646E+02  0.87932121907E+02 0.  0.
         23    2    1    2    0    0  0.14462095443E+03  0.16520438825E+03 -0.14984840248E+03  0.28123395997E+03  0.91816589798E+02 0.  0.
        -11    1    3    3    0    0  0.51620139064E+02  0.12478671943E+02  0.47843171751E+01  0.53322093932E+02  0.00000000000E+00 0.  1.
         11    1    3    3    0    0 -0.37014489087E+02  0.12044147289E+02 -0.40015431931E+01  0.39129863714E+02  0.00000000000E+00 0. -1.
        -11    1    4    4    0    0  0.76093232414E+02  0.14563190042E+03 -0.85563309926E+02  0.18525633712E+03  0.00000000000E+00 0. -1.
         11    1    4    4    0    0  0.68527722012E+02  0.19572487832E+02 -0.64285092551E+02  0.95977622852E+02  0.00000000000E+00 0.  1.
          3    1    1    2  501    0 -0.15922660440E+03 -0.18972720748E+03 -0.52738936821E+02  0.25324083451E+03  0.00000000000E+00 0. -1.
<scales pt_clust_5="13000.00000" pt_clust_6="13000.00000" pt_clust_7="13000.00000" pt_clust_8="13000.00000" pt_clust_9="236.00021"></scales>
<clustering>
<clus scale="   87.932">  5  6 -1 -1</clus>
<clus scale="   91.817">  7  8 -1 -1</clus>
<clus scale="   92.449">  2  5  1 -1</clus>
<clus scale="  236.000">  1  9  2 -1</clus>
<clus scale="  236.000">  1  5  2 -1</clus>
</clustering>
</event>
<event>
 9    1  0.1399746E-005  0.1022738E+03  0.7546771E-02  0.1277422E+00
          1   -1    0    0  502    0 -0.00000000000E+00  0.00000000000E+00  0.41235959171E+03  0.41235959171E+03  0.00000000000E+00 0. -1.
         21   -1    0    0  501  502  0.00000000000E+00 -0.00000000000E+00 -0.32770239817E+02  0.32770239817E+02  0.00000000000E+00 0.  1.
         23    2    1    2    0    0  0.23451662538E+02  0.29192613549E+02  0.21366471337E+03  0.23406944241E+03  0.87941486060E+02 0.  0.
         23    2    1    2    0    0 -0.35813578612E+02 -0.46605933271E+02  0.13783874982E+03  0.17577784645E+03  0.91889090323E+02 0.  0.
        -11    1    4    4    0    0 -0.57850280680E+02 -0.53021461380E+02  0.12937847524E+03  0.15131662234E+03  0.00000000000E+00 0.  1.
         11    1    4    4    0    0  0.22036702068E+02  0.64155281082E+01  0.84602745890E+01  0.24461224112E+02  0.00000000000E+00 0. -1.
        -13    1    3    3    0    0  0.27083057236E+02 -0.20527376471E+02  0.14670567689E+03  0.15059024140E+03  0.00000000000E+00 0. -1.
         13    1    3    3    0    0 -0.36313946977E+01  0.49719990020E+02  0.66959036483E+02  0.83479201013E+02  0.00000000000E+00 0.  1.
          1    1    1    2  501    0  0.12361916074E+02  0.17413319722E+02  0.28085888699E+02  0.35282542663E+02  0.00000000000E+00 0. -1.
<scales pt_clust_5="13000.00000" pt_clust_6="13000.00000" pt_clust_7="13000.00000" pt_clust_8="13000.00000" pt_clust_9="21.35511"></scales>
<clustering>
<clus scale="   21.355">  2  9  1 -1</clus>
<clus scale="   87.941">  7  8 -1 -1</clus>
<clus scale="   91.889">  5  6 -1 -1</clus>
<clus scale="   98.742">  1  7  2 -1</clus>
<clus scale="   21.355">  2  5  1 -1</clus>
</clustering>
</event>
<event>
 9    1  0.1399746E-005  0.9833385E+02  0.7546771E-02  0.1289196E+00
         21   -1    0    0  501  502  0.00000000000E+00  0.00000000000E+00  0.18824542701E+03  0.18824542701E+03  0.00000000000E+00 0. -1.
          1   -1    0    0  502    0 -0.00000000000E+00 -0.00000000000E+00 -0.31821005627E+03  0.31821005627E+03  0.00000000000E+00 0. -1.
         23    2    1    2    0    0 -0.38514207558E+02 -0.17052234186E+02 -0.23843611129E+03  0.25520999230E+03  0.80661255432E+02 0.  0.
         23    2    1    2    0    0  0.19659336585E+02  0.47388256427E+01 -0.39764964239E+02  0.10130827014E+03  0.90956952642E+02 0.  0.
        -11    1    4    4    0    0 -0.22288304697E+02  0.23364177905E+02  0.98120289565E+01  0.33748025834E+02  0.00000000000E+00 0.  1.
         11    1    4    4    0    0  0.41947641283E+02 -0.18625352262E+02 -0.49576993195E+02  0.67560244303E+02  0.00000000000E+00 0. -1.
        -13    1    3    3    0    0  0.60196378861E+01 -0.24850998251E+02 -0.20897754830E+02  0.33023087550E+02  0.00000000000E+00 0. -1.
         13    1    3    3    0    0 -0.44533845444E+02  0.77987640657E+01 -0.21753835646E+03  0.22218690475E+03  0.00000000000E+00 0.  1.
          1    1    1    2  501    0  0.18854870973E+02  0.12313408543E+02  0.14823644628E+03  0.14993722084E+03  0.00000000000E+00 0. -1.
<scales pt_clust_5="13000.00000" pt_clust_6="13000.00000" pt_clust_7="13000.00000" pt_clust_8="13000.00000" pt_clust_9="22.51946"></scales>
<clustering>
<clus scale="   22.519">  1  9  2 -1</clus>
<clus scale="   80.661">  7  8 -1 -1</clus>
<clus scale="   88.897">  2  7  1 -1</clus>
<clus scale="   90.957">  5  6 -1 -1</clus>
<clus scale="   22.519">  1  5  2 -1</clus>
</clustering>
</event>
<event>
 9    1  0.1399746E-005  0.1252462E+03  0.7546771E-02  0.1234821E+00
         21   -1    0    0  501  502  0.00000000000E+00  0.00000000000E+00  0.22616152510E+03  0.22616152510E+03  0.00000000000E+00 0. -1.
         -2   -1    0    0    0  501 -0.00000000000E+00 -0.00000000000E+00 -0.16768582897E+03  0.16768582897E+03  0.00000000000E+00 0.  1.
         23    2    1    2    0    0 -0.29737389848E+02 -0.80017033501E+02 -0.48802192083E+02  0.13493767784E+03  0.92409333635E+02 0.  0.
         23    2    1    2    0    0  0.57451653757E+02  0.64992027200E+02 -0.19834200423E+02  0.12794664970E+03  0.91936355942E+02 0.  0.
        -11    1    3    3    0    0 -0.56449529802E+02 -0.81119212199E+02 -0.41779286137E+02  0.10729578162E+03  0.00000000000E+00 0.  1.
         11    1    3    3    0    0  0.26712139954E+02  0.11021786973E+01 -0.70229059466E+01  0.27641896222E+02  0.00000000000E+00 0. -1.
        -11    1    4    4    0    0  0.21579314756E+02 -0.21893441322E+02 -0.13965089493E+02  0.33764083325E+02  0.00000000000E+00 0. -1.
         11    1    4    4    0    0  0.35872339001E+02  0.86885468522E+02 -0.58691109308E+01  0.94182566374E+02  0.00000000000E+00 0.  1.
         -2    1    1    2    0  502 -0.27714263909E+02  0.15025006301E+02  0.12711208864E+03  0.13096302653E+03  0.00000000000E+00 0.  1.
<scales pt_clust_5="13000.00000" pt_clust_6="13000.00000" pt_clust_7="13000.00000" pt_clust_8="13000.00000" pt_clust_9="31.52509"></scales>
<clustering>
<clus scale="   31.525">  1  9  2 -1</clus>
<clus scale="   91.936">  7  8 -1 -1</clus>
<clus scale="   92.409">  5  6 -1 -1</clus>
<clus scale="  124.898">  1  7  2 -1</clus>
<clus scale="   31.525">  1  5  2 -1</clus>
</clustering>
</event>
<event>
 9    1  0.1399746E-005  0.1336475E+03  0.7546771E-02  0.1222553E+00
          1   -1    0    0  502    0 -0.00000000000E+00  0.00000000000E+00  0.35173459434E+03  0.35173459434E+03  0.00000000000E+00 0. -1.
         21   -1    0    0  501  502  0.00000000000E+00 -0.00000000000E+00 -0.12177939833E+03  0.12177939833E+03  0.00000000000E+00 0.  1.
         23    2    1    2    0    0 -0.51822850440E+02 -0.43122025446E+02  0.11854113998E+03  0.16585180471E+03  0.94391219660E+02 0.  0.
         23    2    1    2    0    0  0.85599088615E+02  0.10943071962E+03  0.14939651514E+03  0.22411373263E+03  0.92765079912E+02 0.  0.
        -13    1    3    3    0    0 -0.50704192603E+02  0.18777763122E+02  0.56614527370E+02  0.78286168923E+02  0.00000000000E+00 0.  1.
         13    1    3    3    0    0 -0.11186578375E+01 -0.61899788567E+02  0.61926612614E+02  0.87565635782E+02  0.00000000000E+00 0. -1.
        -13    1    4    4    0    0 -0.18853997670E+02  0.29718779887E+02  0.38646654470E+02  0.52270861939E+02  0.00000000000E+00 0.  1.
         13    1    4    4    0    0  0.10445308628E+03  0.79711939730E+02  0.11074986067E+03  0.17184287069E+03  0.00000000000E+00 0. -1.
          1    1    1    2  501    0 -0.33776238175E+02 -0.66308694172E+02 -0.37982459117E+02  0.83548455333E+02  0.00000000000E+00 0. -1.
<scales pt_clust_5="13000.00000" pt_clust_6="13000.00000" pt_clust_7="13000.00000" pt_clust_8="13000.00000" pt_clust_9="74.41557"></scales>
<clustering>
<clus scale="   74.416">  2  9  1 -1</clus>
<clus scale="   92.765">  7  8 -1 -1</clus>
<clus scale="   94.391">  5  6 -1 -1</clus>
<clus scale="  132.504">  2  7  1 -1</clus>
<clus scale="   74.416">  2  5  1 -1</clus>
</clustering>
</event>
<event>
 9    1  0.1399746E-005  0.1254500E+03  0.7546771E-02  0.1235094E+00
          1   -1    0    0  502    0 -0.00000000000E+00  0.00000000000E+00  0.60647903131E+03  0.60647903131E+03  0.00000000000E+00 0. -1.
         21   -1    0    0  501  502  0.00000000000E+00 -0.00000000000E+00 -0.53569028811E+02  0.53569028811E+02  0.00000000000E+00 0. -1.
         23    2    1    2    0    0  0.17494041073E+02  0.70166456822E+02  0.29361142669E+03  0.31597796657E+03  0.91678963467E+02 0.  0.
         23    2    1    2    0    0 -0.23841554228E+02 -0.94647527912E+02  0.28017709943E+03  0.31127487265E+03  0.94160846721E+02 0.  0.
        -11    1    4    4    0    0 -0.60152880583E+02 -0.56831809142E+02  0.18351880351E+03  0.20131411976E+03  0.00000000000E+00 0.  1.
         11    1    4    4    0    0  0.36311326355E+02 -0.37815718770E+02  0.96658295914E+02  0.10996075289E+03  0.00000000000E+00 0. -1.
        -11    1    3    3    0    0  0.39736017532E+02  0.81287588269E+02  0.20798184415E+03  0.22681064921E+03  0.00000000000E+00 0.  1.
         11    1    3    3    0    0 -0.22241976459E+02 -0.11121131447E+02  0.85629582534E+02  0.89167317367E+02  0.00000000000E+00 0. -1.
          1    1    1    2  501    0  0.63475131544E+01  0.24481071090E+02 -0.20878523617E+02  0.32795220892E+02  0.00000000000E+00 0. -1.
<scales pt_clust_5="13000.00000" pt_clust_6="13000.00000" pt_clust_7="13000.00000" pt_clust_8="13000.00000" pt_clust_9="25.29059"></scales>
<clustering>
<clus scale="   25.291">  2  9  1 -1</clus>
<clus scale="   91.679">  7  8 -1 -1</clus>
<clus scale="   94.161">  5  6 -1 -1</clus>
<clus scale="  123.598">  1  7  2 -1</clus>
<clus scale="   25.291">  2  5  1 -1</clus>
</clustering>
</event>
<event>
 9    1  0.1399746E-005  0.1149086E+03  0.7546771E-02  0.1252116E+00
          1   -1    0    0  502    0 -0.00000000000E+00  0.00000000000E+00  0.61859828060E+03  0.61859828060E+03  0.00000000000E+00 0. -1.
         21   -1    0    0  501  502  0.00000000000E+00 -0.00000000000E+00 -0.50585051826E+02  0.50585051826E+02  0.00000000000E+00 0. -1.
         23    2    1    2    0    0 -0.51026520965E+02 -0.64663056141E+02  0.46036978521E+03  0.47681287003E+03  0.92871724571E+02 0.  0.
         23    2    1    2    0    0  0.15113683669E+02  0.18242794033E+02  0.86873562055E+02  0.13011324920E+03  0.93921344027E+02 0.  0.
        -11    1    3    3    0    0  0.15877894775E+02  0.12544812522E+02  0.11027521952E+03  0.11211647472E+03  0.00000000000E+00 0.  1.
         11    1    3    3    0    0 -0.66904415740E+02 -0.77207868663E+02  0.35009456569E+03  0.36469639532E+03  0.00000000000E+00 0. -1.
        -13    1    4    4    0    0 -0.30928169082E+02 -0.19946997964E+02  0.28682787582E+02  0.46659797192E+02  0.00000000000E+00 0.  1.
         13    1    4    4    0    0  0.46041852750E+02  0.38189791997E+02  0.58190774474E+02  0.83453452004E+02  0.00000000000E+00 0. -1.
          1    1    1    2  501    0  0.35912837296E+02  0.46420262108E+02  0.20769881507E+02  0.62257213194E+02  0.00000000000E+00 0. -1.
<scales pt_clust_5="13000.00000" pt_clust_6="13000.00000" pt_clust_7="13000.00000" pt_clust_8="13000.00000" pt_clust_9="58.69048"></scales>
<clustering>
<clus scale="   58.690">  2  9  1 -1</clus>
<clus scale="   92.872">  5  6 -1 -1</clus>
<clus scale="   93.921">  7  8 -1 -1</clus>
<clus scale="  114.052">  1  5  2 -1</clus>
<clus scale="   58.690">  2  5  1 -1</clus>
</clustering>
</event>
<event>
 9    1  0.1399746E-005  0.2006864E+03  0.7546771E-02  0.1149188E+00
         21   -1    0    0  501  502  0.00000000000E+00  0.00000000000E+00  0.11043769850E+03  0.11043769850E+03  0.00000000000E+00 0.  1.
          2   -1    0    0  502    0 -0.00000000000E+00 -0.00000000000E+00 -0.94343681353E+03  0.94343681353E+03  0.00000000000E+00 0. -1.
         23    2    1    2    0    0  0.84682735792E+02 -0.12698803579E+03 -0.26775798631E+03  0.32135057070E+03  0.90965504895E+02 0.  0.
         23    2    1    2    0    0 -0.11866066647E+03  0.22536692568E+03 -0.16040890988E+03  0.31452629642E+03  0.91242357556E+02 0.  0.
        -13    1    4    4    0    0 -0.37346013089E+02  0.16397758759E+03 -0.90698550605E+02  0.19107485708E+03  0.00000000000E+00 0.  1.
         13    1    4    4    0    0 -0.81314653376E+02  0.61389338093E+02 -0.69710359278E+02  0.12345143934E+03  0.00000000000E+00 0. -1.
        -13    1    3    3    0    0  0.10332152065E+03 -0.93908942354E+02 -0.20614060774E+03  0.24897424816E+03  0.00000000000E+00 0. -1.
         13    1    3    3    0    0 -0.18638784859E+02 -0.33079093436E+02 -0.61617378562E+02  0.72376322540E+02  0.00000000000E+00 0.  1.
          2    1    1    2  501    0  0.33977930673E+02 -0.98378889890E+02 -0.40483221883E+03  0.41799764491E+03  0.00000000000E+00 0. -1.
<scales pt_clust_5="13000.00000" pt_clust_6="13000.00000" pt_clust_7="13000.00000" pt_clust_8="13000.00000" pt_clust_9="104.08130"></scales>
<clustering>
<clus scale="   90.966">  7  8 -1 -1</clus>
<clus scale="   91.242">  5  6 -1 -1</clus>
<clus scale="  104.081">  1  9  2 -1</clus>
<clus scale="  200.561">  2  7  1 -1</clus>
<clus scale="  104.081">  1  5  2 -1</clus>
</clustering>
</event>
<event>
 9    1  0.1399746E-005  0.9114011E+02  0.7546771E-02  0.1303377E+00
          3   -1    0    0  502    0 -0.00000000000E+00  0.00000000000E+00  0.26135401364E+03  0.26135401364E+03  0.00000000000E+00 0. -1.
         21   -1    0    0  501  502  0.00000000000E+00 -0.00000000000E+00 -0.59319043984E+02  0.59319043984E+02  0.00000000000E+00 0. -1.
         23    2    1    2    0    0  0.49892164236E+00  0.92603698069E+01  0.11144126772E+03  0.14073889451E+03  0.85453360996E+02 0.  0.
         23    2    1    2    0    0  0.15956319787E+02  0.31089228266E+01  0.11538256252E+03  0.14771209024E+03  0.90782467074E+02 0.  0.
        -11    1    4    4    0    0 -0.25069314976E+02 -0.95067765163E+01  0.97663573991E+02  0.10127696203E+03  0.00000000000E+00 0.  1.
         11    1    4    4    0    0  0.41025634763E+02  0.12615699343E+02  0.17718988525E+02  0.46435128211E+02  0.00000000000E+00 0. -1.
        -11    1    3    3    0    0 -0.27693786730E+02 -0.25155956341E+02  0.30070870867E+02  0.48000262891E+02  0.00000000000E+00 0.  1.
         11    1    3    3    0    0  0.28192708373E+02  0.34416326148E+02  0.81370396854E+02  0.92738631622E+02  0.00000000000E+00 0. -1.
          3    1    1    2  501    0 -0.16455241429E+02 -0.12369292633E+02 -0.24788860585E+02  0.32222072867E+02  0.00000000000E+00 0. -1.
<scales pt_clust_5="13000.00000" pt_clust_6="13000.00000" pt_clust_7="13000.00000" pt_clust_8="13000.00000" pt_clust_9="20.58578"></scales>
<clustering>
<clus scale="   20.586">  2  9  1 -1</clus>
<clus scale="   85.453">  7  8 -1 -1</clus>
<clus scale="   85.833">  1  7  2 -1</clus>
<clus scale="   90.782">  5  6 -1 -1</clus>
<clus scale="   20.586">  2  5  1 -1</clus>
</clustering>
</event>
<event>
 9    1  0.1532367E-005  0.1260116E+03  0.7546771E-02  0.1233736E+00
          1   -1    0    0  502    0 -0.00000000000E+00  0.00000000000E+00  0.24333436644E+03  0.24333436644E+03  0.00000000000E+00 0. -1.
         21   -1    0    0  501  502  0.00000000000E+00 -0.00000000000E+00 -0.26496001029E+03  0.26496001029E+03  0.00000000000E+00 0. -1.
         23    2    1    2    0    0  0.42411415379E+02  0.75623304045E+02  0.17831554264E+03  0.21825184347E+03  0.91213059163E+02 0.  0.
         23    2    1    2    0    0  0.47927762250E+01 -0.10356842646E+03 -0.18959072355E+03  0.23421872424E+03  0.90356951384E+02 0.  0.
        -11    1    3    3    0    0  0.68449323627E+02  0.64486804476E+02  0.15618082147E+03  0.18230827423E+03  0.00000000000E+00 0. -1.
         11    1    3    3    0    0 -0.26037908247E+02  0.11136499569E+02  0.22134721163E+02  0.35943569237E+02  0.00000000000E+00 0.  1.
        -11    1    4    4    0    0  0.29089202157E+02 -0.41717999287E+02 -0.14635530653E+03  0.15494014618E+03  0.00000000000E+00 0.  1.
         11    1    4    4    0    0 -0.24296425932E+02 -0.61850427175E+02 -0.43235417016E+02  0.79278578061E+02  0.00000000000E+00 0. -1.
          1    1    1    2  501    0 -0.47204191604E+02  0.27945122416E+02 -0.10350462935E+02  0.55823809032E+02  0.00000000000E+00 0. -1.
<scales pt_clust_5="13000.00000" pt_clust_6="13000.00000" pt_clust_7="13000.00000" pt_clust_8="13000.00000" pt_clust_9="54.85586"></scales>
<clustering>
<clus scale="   54.856">  2  9  1 -1</clus>
<clus scale="   90.357">  7  8 -1 -1</clus>
<clus scale="   91.213">  5  6 -1 -1</clus>
<clus scale="  125.393">  2  7  1 -1</clus>
<clus scale="   54.856">  2  5  1 -1</clus>
</clustering>
</event>
<event>
 9    1  0.1399746E-005  0.1612018E+03  0.7546771E-02  0.1187840E+00
         -3   -1    0    0    0  501 -0.00000000000E+00  0.00000000000E+00  0.80782275467E+02  0.80782275467E+02  0.00000000000E+00 0.  1.
         21   -1    0    0  501  502  0.00000000000E+00 -0.00000000000E+00 -0.45098629347E+03  0.45098629347E+03  0.00000000000E+00 0. -1.
         23    2    1    2    0    0 -0.12409289898E+03  0.52774486465E+02 -0.82938394638E+02  0.18115955122E+03  0.88067086326E+02 0.  0.
         23    2    1    2    0    0  0.12672956110E+03 -0.32461958019E+02 -0.17612943485E+03  0.23760103925E+03  0.91205897056E+02 0.  0.
        -11    1    3    3    0    0 -0.73653016331E+02  0.78447946260E+01  0.16009375443E+00  0.74069786333E+02  0.00000000000E+00 0.  1.
         11    1    3    3    0    0 -0.50439882650E+02  0.44929691839E+02 -0.83098488393E+02  0.10708976489E+03  0.00000000000E+00 0. -1.
        -13    1    4    4    0    0  0.42381929202E+02  0.29853721449E+02 -0.80062588506E+02  0.95380766853E+02  0.00000000000E+00 0.  1.
         13    1    4    4    0    0  0.84347631900E+02 -0.62315679469E+02 -0.96066846341E+02  0.14222027240E+03  0.00000000000E+00 0. -1.
         -3    1    1    2    0  502 -0.26366621218E+01 -0.20312528446E+02 -0.11113618851E+03  0.11300797846E+03  0.00000000000E+00 0.  1.
<scales pt_clust_5="13000.00000" pt_clust_6="13000.00000" pt_clust_7="13000.00000" pt_clust_8="13000.00000" pt_clust_9="20.48294"></scales>
<clustering>
<clus scale="   20.483">  2  9  1 -1</clus>
<clus scale="   88.067">  5  6 -1 -1</clus>
<clus scale="   91.206">  7  8 -1 -1</clus>
<clus scale="  159.447">  1  5  2 -1</clus>
<clus scale="   20.483">  2  5  1 -1</clus>
</clustering>
</event>
<event>
 9    1  0.1399746E-005  0.1493100E+03  0.7546771E-02  0.1201914E+00
          1   -1    0    0  502    0 -0.00000000000E+00  0.00000000000E+00  0.28319148184E+03  0.28319148184E+03  0.00000000000E+00 0. -1.
         21   -1    0    0  501  502  0.00000000000E+00 -0.00000000000E+00 -0.42172567681E+03  0.42172567681E+03  0.00000000000E+00 0. -1.
         23    2    1    2    0    0 -0.23684042935E+02  0.11862251194E+03  0.23025568724E+03  0.27540107272E+03  0.90530851783E+02 0.  0.
         23    2    1    2    0    0  0.24972672681E+02 -0.84159424226E+02 -0.11170348776E+03  0.17012684329E+03  0.93589692615E+02 0.  0.
        -11    1    3    3    0    0  0.34324036083E+02  0.53126500151E+02  0.87471119580E+02  0.10794332417E+03  0.00000000000E+00 0.  1.
         11    1    3    3    0    0 -0.58008079018E+02  0.65496011789E+02  0.14278456766E+03  0.16745774856E+03  0.00000000000E+00 0. -1.
        -13    1    4    4    0    0 -0.18896879227E+02  0.12159733049E+02 -0.18861840732E+02  0.29338033134E+02  0.00000000000E+00 0. -1.
         13    1    4    4    0    0  0.43869551908E+02 -0.96319157275E+02 -0.92841647032E+02  0.14078881016E+03  0.00000000000E+00 0.  1.
          1    1    1    2  501    0 -0.12886297461E+01 -0.34463087715E+02 -0.25708639444E+03  0.25938924263E+03  0.00000000000E+00 0. -1.
<scales pt_clust_5="13000.00000" pt_clust_6="13000.00000" pt_clust_7="13000.00000" pt_clust_8="13000.00000" pt_clust_9="34.48717"></scales>
<clustering>
<clus scale="   34.487">  2  9  1 -1</clus>
<clus scale="   90.531">  5  6 -1 -1</clus>
<clus scale="   93.590">  7  8 -1 -1</clus>
<clus scale="  147.412">  1  5  2 -1</clus>
<clus scale="   34.487">  2  5  1 -1</clus>
</clustering>
</event>
<event>
 9    1  0.1399746E-005  0.1253133E+03  0.7546771E-02  0.1236664E+00
         21   -1    0    0  501  502  0.00000000000E+00  0.00000000000E+00  0.19420673779E+03  0.19420673779E+03  0.00000000000E+00 0.  1.
          1   -1    0    0  502    0 -0.00000000000E+00 -0.00000000000E+00 -0.11790748820E+03  0.11790748820E+03  0.00000000000E+00 0. -1.
         23    2    1    2    0    0 -0.69718417593E+02  0.36244389555E+02 -0.17222851679E+02  0.12337014477E+03  0.93537438894E+02 0.  0.
         23    2    1    2    0    0  0.76569866287E+02 -0.58560229455E+02  0.10104201168E+03  0.16421882664E+03  0.86406539120E+02 0.  0.
        -13    1    3    3    0    0 -0.93444040372E+01  0.30912193724E+02 -0.46058030663E+02  0.56251433726E+02  0.00000000000E+00 0. -1.
         13    1    3    3    0    0 -0.60374013556E+02  0.53321958311E+01  0.28835178984E+02  0.67118711045E+02  0.00000000000E+00 0.  1.
        -13    1    4    4    0    0  0.19723389349E+02  0.21630692968E+02  0.35787604441E+02  0.46234744482E+02  0.00000000000E+00 0. -1.
         13    1    4    4    0    0  0.56846476938E+02 -0.80190922423E+02  0.65254407237E+02  0.11798408216E+03  0.00000000000E+00 0.  1.
          1    1    1    2  501    0 -0.68514486941E+01  0.22315839900E+02 -0.75199104031E+01  0.24525254578E+02  0.00000000000E+00 0. -1.
<scales pt_clust_5="13000.00000" pt_clust_6="13000.00000" pt_clust_7="13000.00000" pt_clust_8="13000.00000" pt_clust_9="23.34394"></scales>
<clustering>
<clus scale="   23.344">  1  9  2 -1</clus>
<clus scale="   86.407">  7  8 -1 -1</clus>
<clus scale="   93.537">  5  6 -1 -1</clus>
<clus scale="  120.084">  1  7  2 -1</clus>
<clus scale="   23.344">  1  5  2 -1</clus>
</clustering>
</event>
<event>
 9    1  0.1399746E-005  0.1149404E+03  0.7546771E-02  0.1254795E+00
         21   -1    0    0  501  502  0.00000000000E+00  0.00000000000E+00  0.29925462039E+03  0.29925462039E+03  0.00000000000E+00 0. -1.
          1   -1    0    0  502    0 -0.00000000000E+00 -0.00000000000E+00 -0.23563633293E+03  0.23563633293E+03  0.00000000000E+00 0. -1.
         23    2    1    2    0    0 -0.54192143062E+02  0.19934892890E+02 -0.14682128741E+03  0.18302512122E+03  0.92776700933E+02 0.  0.
         23    2    1    2    0    0  0.93606467668E+02 -0.50998039854E+02  0.25467954587E+00  0.13577303189E+03  0.84090905982E+02 0.  0.
        -11    1    3    3    0    0 -0.23886356272E+01  0.34965545172E+02 -0.10759548580E+02  0.36661462259E+02  0.00000000000E+00 0.  1.
         11    1    3    3    0    0 -0.51803507435E+02 -0.15030652282E+02 -0.13606173883E+03  0.14636365896E+03  0.00000000000E+00 0. -1.
        -13    1    4    4    0    0  0.40975559012E+02 -0.34327747969E+02 -0.40572993197E+02  0.67108557531E+02  0.00000000000E+00 0. -1.
         13    1    4    4    0    0  0.52630908657E+02 -0.16670291885E+02  0.40827672742E+02  0.68664474360E+02  0.00000000000E+00 0.  1.
          1    1    1    2  501    0 -0.39414324606E+02  0.31063146964E+02  0.21018489532E+03  0.21609280022E+03  0.00000000000E+00 0. -1.
<scales pt_clust_5="13000.00000" pt_clust_6="13000.00000" pt_clust_7="13000.00000" pt_clust_8="13000.00000" pt_clust_9="50.18374"></scales>
<clustering>
<clus scale="   50.184">  1  9  2 -1</clus>
<clus scale="   84.091">  7  8 -1 -1</clus>
<clus scale="   92.777">  5  6 -1 -1</clus>
<clus scale="  108.051">  1  7  2 -1</clus>
<clus scale="   50.184">  1  5  2 -1</clus>
</clustering>
</event>
<event>
 9    1  0.1781812E-005  0.9601390E+02  0.7546771E-02  0.1289885E+00
         21   -1    0    0  501  502  0.00000000000E+00  0.00000000000E+00  0.14346616665E+03  0.14346616665E+03  0.00000000000E+00 0. -1.
          1   -1    0    0  502    0 -0.00000000000E+00 -0.00000000000E+00 -0.54301314751E+03  0.54301314751E+03  0.00000000000E+00 0. -1.
         23    2    1    2    0    0 -0.25042034150E+02  0.70613130425E+01 -0.37703406443E+03  0.38904850814E+03  0.92342245637E+02 0.  0.
         23    2    1    2    0    0  0.16177534229E+02 -0.29822827892E+02 -0.14403757174E+03  0.17347554084E+03  0.90530809794E+02 0.  0.
        -11    1    4    4    0    0  0.11183087421E+02 -0.50076366389E+02 -0.14372899629E+03  0.15261300170E+03  0.00000000000E+00 0. -1.
         11    1    4    4    0    0  0.49944468081E+01  0.20253538497E+02 -0.30857544867E+00  0.20862539140E+02  0.00000000000E+00 0.  1.
        -11    1    3    3    0    0 -0.47818357596E+02 -0.22929690983E+02 -0.27970012059E+03  0.28468319850E+03  0.00000000000E+00 0. -1.
         11    1    3    3    0    0  0.22776323446E+02  0.29991004026E+02 -0.97333943839E+02  0.10436530964E+03  0.00000000000E+00 0.  1.
          1    1    1    2  501    0  0.88644999208E+01  0.22761514849E+02  0.12152465531E+03  0.12395526518E+03  0.00000000000E+00 0. -1.
<scales pt_clust_5="13000.00000" pt_clust_6="13000.00000" pt_clust_7="13000.00000" pt_clust_8="13000.00000" pt_clust_9="24.42675"></scales>
<clustering>
<clus scale="   24.427">  1  9  2 -1</clus>
<clus scale="   90.531">  5  6 -1 -1</clus>
<clus scale="   92.342">  7  8 -1 -1</clus>
<clus scale="   94.273">  1  5  2 -1</clus>
<clus scale="   24.427">  1  5  2 -1</clus>
</clustering>
</event>
